       N       E                     dE             d eps       ncg     rms          ort
DAV:   1     0.266958105615E+04    0.26696E+04   -0.13927E+05 10584   0.161E+03
DAV:   2     0.514182706505E+02   -0.26182E+04   -0.24077E+04 10584   0.415E+02
DAV:   3    -0.256892559950E+03   -0.30831E+03   -0.30345E+03 10584   0.162E+02
DAV:   4    -0.268029796826E+03   -0.11137E+02   -0.10808E+02 10584   0.306E+01
DAV:   5    -0.268482038504E+03   -0.45224E+00   -0.44891E+00 10584   0.484E+00
SDA:   6    -0.125145924794E+03    0.14334E+03   -0.44891E+00 10584   0.617E+03 0.000E+00
CGA:   7    -0.181798159443E+03   -0.56652E+02   -0.71120E+02 10584   0.308E+03 0.811E+01
CGA:   8    -0.203435747886E+03   -0.21638E+02   -0.64677E+01 10584   0.306E+03 0.513E+03
CGA:   9    -0.202327185349E+03    0.11086E+01   -0.16499E+02 10584   0.577E+03-0.194E+03
CGA:  10    -0.211166021364E+03   -0.88388E+01   -0.31563E+02 10584   0.230E+03-0.104E+03
CGA:  11    -0.216035263724E+03   -0.48692E+01   -0.13521E+02 10584   0.354E+03 0.195E+03
CGA:  12    -0.203545982780E+03    0.12489E+02   -0.28064E+02 10584   0.123E+04 0.365E+02
CGA:  13    -0.200852226149E+03    0.26938E+01   -0.93642E+02 10584   0.167E+03-0.137E+03
CGA:  14    -0.204652546017E+03   -0.38003E+01   -0.20796E+01 10584   0.131E+03 0.128E+03
CGA:  15    -0.207467553859E+03   -0.28150E+01   -0.14689E+01 10584   0.116E+03 0.126E+03
CGA:  16    -0.210381856860E+03   -0.29143E+01   -0.10847E+01 10584   0.302E+03 0.337E+03
CGA:  17    -0.217883667810E+03   -0.75018E+01   -0.65680E+01 10584   0.859E+02-0.402E+02
CGA:  18    -0.219757400279E+03   -0.18737E+01   -0.99974E+00 10584   0.625E+02 0.660E+02
CGA:  19    -0.221558651965E+03   -0.18013E+01   -0.12163E+01 10584   0.299E+02 0.307E+02
CGA:  20    -0.222666793893E+03   -0.11081E+01   -0.54891E+00 10584   0.305E+02 0.485E+02
CGA:  21    -0.224213057167E+03   -0.15463E+01   -0.12285E+01 10584   0.779E+02-0.726E+02
CGA:  22    -0.220231336828E+03    0.39817E+01   -0.28206E+01 10584   0.335E+03-0.173E+03
CGA:  23    -0.218215405486E+03    0.20159E+01   -0.11924E+02 10584   0.245E+03-0.163E+03
CGA:  24    -0.222945453523E+03   -0.47300E+01   -0.57893E+01 10584   0.418E+03-0.293E+03
CGA:  25    -0.216623272528E+03    0.63222E+01   -0.17614E+02 10584   0.156E+03-0.983E+02
CGA:  26    -0.218661303924E+03   -0.20380E+01   -0.54961E+01 10584   0.540E+02-0.428E+02
CGA:  27    -0.225408373521E+03   -0.67471E+01   -0.10998E+01 10584   0.218E+03-0.313E+03
CGA:  28    -0.220496019812E+03    0.49124E+01   -0.71922E+01 10584   0.567E+03-0.152E+03
CGA:  29    -0.215076576490E+03    0.54194E+01   -0.23103E+02 10584   0.198E+03-0.479E+02
CGA:  30    -0.220538139803E+03   -0.54616E+01   -0.82864E+01 10584   0.165E+03-0.172E+03
CGA:  31    -0.216142955352E+03    0.43952E+01   -0.56864E+01 10584   0.247E+03-0.311E+02
CGA:  32    -0.214919940839E+03    0.12230E+01   -0.73078E+01 10584   0.535E+03-0.344E+02
CGA:  33    -0.206569435954E+03    0.83505E+01   -0.14686E+02 10584   0.147E+03-0.632E+02
CGA:  34    -0.222797595000E+03   -0.16228E+02   -0.29985E+01 10584   0.740E+02 0.703E+02
CGA:  35    -0.221290970125E+03    0.15066E+01   -0.31732E+01 10584   0.859E+02-0.195E+02
CGA:  36    -0.221464864046E+03   -0.17389E+00   -0.28165E+01 10584   0.338E+03 0.642E+02
CGA:  37    -0.217163300904E+03    0.43016E+01   -0.94208E+01 10584   0.469E+03-0.307E+03
CGA:  38    -0.219889813078E+03   -0.27265E+01   -0.16088E+02 10584   0.758E+02-0.460E+02
CGA:  39    -0.222080773948E+03   -0.21910E+01   -0.10451E+01 10584   0.978E+02 0.108E+03
CGA:  40    -0.227602151393E+03   -0.55214E+01   -0.14676E+01 10584   0.189E+02-0.829E+02
CGA:  41    -0.227780952552E+03   -0.17880E+00   -0.24462E+00 10584   0.481E+01-0.504E+01
CGA:  42    -0.227847930864E+03   -0.66978E-01   -0.64733E-01 10584   0.878E+00 0.881E-01
CGA:  43    -0.227902407937E+03   -0.54477E-01   -0.54529E-01 10584   0.107E+01-0.927E-02
CGA:  44    -0.227981810776E+03   -0.79403E-01   -0.82722E-01 10584   0.221E+01-0.127E+00
CGA:  45    -0.228075430673E+03   -0.93620E-01   -0.91146E-01 10584   0.252E+01-0.700E-01
CGA:  46    -0.228105370122E+03   -0.29939E-01   -0.24448E-01 10584   0.273E+00 0.499E+00
CGA:  47    -0.228110143189E+03   -0.47731E-02   -0.45602E-02 10584   0.304E+00 0.126E-01
CGA:  48    -0.228131838303E+03   -0.21695E-01   -0.22336E-01 10584   0.204E+01-0.287E-01
CGA:  49    -0.228152456678E+03   -0.20618E-01   -0.23207E-01 10584   0.156E+01-0.144E+00
CGA:  50    -0.228165385250E+03   -0.12929E-01   -0.19174E-01 10584   0.870E+00-0.308E+00
CGA:  51    -0.228176818439E+03   -0.11433E-01   -0.99731E-02 10584   0.449E+00 0.967E-01
CGA:  52    -0.228183203495E+03   -0.63851E-02   -0.65471E-02 10584   0.170E+00-0.848E-02
CGA:  53    -0.228189175133E+03   -0.59716E-02   -0.59182E-02 10584   0.381E+00-0.620E-03
CGA:  54    -0.228199378133E+03   -0.10203E-01   -0.94314E-02 10584   0.539E+00 0.179E-01
CGA:  55    -0.228211031946E+03   -0.11654E-01   -0.98152E-02 10584   0.437E+00 0.904E-01
CGA:  56    -0.228217352439E+03   -0.63205E-02   -0.54073E-02 10584   0.146E+00 0.792E-01
CGA:  57    -0.228219367919E+03   -0.20155E-02   -0.20779E-02 10584   0.758E-01-0.404E-02
CGA:  58    -0.228221899308E+03   -0.25314E-02   -0.25388E-02 10584   0.245E+00 0.348E-03
CGA:  59    -0.228231161811E+03   -0.92625E-02   -0.91403E-02 10584   0.555E+00-0.143E-01
CGA:  60    -0.228237643152E+03   -0.64813E-02   -0.52477E-02 10584   0.459E+00 0.963E-01
CGA:  61    -0.228242594921E+03   -0.49518E-02   -0.47756E-02 10584   0.223E+00 0.124E-01
CGA:  62    -0.228244441569E+03   -0.18466E-02   -0.21285E-02 10584   0.114E+00-0.252E-01
CGA:  63    -0.228245598367E+03   -0.11568E-02   -0.12861E-02 10584   0.133E+00-0.726E-02
CGA:  64    -0.228249589177E+03   -0.39908E-02   -0.40345E-02 10584   0.457E+00 0.869E-02
CGA:  65    -0.228264377021E+03   -0.14788E-01   -0.12959E-01 10584   0.618E+00-0.472E-01
CGA:  66    -0.228268670177E+03   -0.42932E-02   -0.43170E-02 10584   0.514E+00-0.729E-02
CGA:  67    -0.228272451419E+03   -0.37812E-02   -0.44689E-02 10584   0.377E+00-0.585E-01
CGA:  68    -0.228275194794E+03   -0.27434E-02   -0.33357E-02 10584   0.279E+00-0.420E-01
CGA:  69    -0.228277800857E+03   -0.26061E-02   -0.30141E-02 10584   0.207E+00-0.209E-01
CGA:  70    -0.228280583903E+03   -0.27830E-02   -0.29646E-02 10584   0.180E+00-0.488E-02
SDA:  71    -0.228284242645E+03   -0.36587E-02   -0.37217E-02 10584   0.212E+00 0.113E-02
CGA:  72    -0.228291787250E+03   -0.75446E-02   -0.75914E-02 10584   0.114E+00-0.450E-02
CGA:  73    -0.228321710091E+03   -0.29923E-01   -0.11889E-01 10584   0.146E+00 0.484E-01
CGA:  74    -0.228335058386E+03   -0.13348E-01   -0.13178E-01 10584   0.100E+00 0.105E-01
CGA:  75    -0.228347656445E+03   -0.12598E-01   -0.14177E-01 10584   0.304E+00-0.220E-01
CGA:  76    -0.228357209060E+03   -0.95526E-02   -0.99025E-02 10584   0.102E+00 0.371E-02
CGA:  77    -0.228360447786E+03   -0.32387E-02   -0.32797E-02 10584   0.618E-01-0.347E-03
CGA:  78    -0.228362959763E+03   -0.25120E-02   -0.24814E-02 10584   0.492E-01-0.239E-03
CGA:  79    -0.228367647291E+03   -0.46875E-02   -0.47995E-02 10584   0.140E+00-0.246E-02
CGA:  80    -0.228371543183E+03   -0.38959E-02   -0.39777E-02 10584   0.290E-01-0.116E-02
CGA:  81    -0.228372316921E+03   -0.77374E-03   -0.76977E-03 10584   0.183E-01 0.771E-04
CGA:  82    -0.228373521652E+03   -0.12047E-02   -0.12143E-02 10584   0.429E-01-0.545E-03
CGA:  83    -0.228375675305E+03   -0.21537E-02   -0.21490E-02 10584   0.495E-01-0.716E-03
CGA:  84    -0.228377000489E+03   -0.13252E-02   -0.13252E-02 10584   0.250E-01-0.127E-04
CGA:  85    -0.228377674835E+03   -0.67435E-03   -0.67111E-03 10584   0.905E-02 0.546E-04
CGA:  86    -0.228377970057E+03   -0.29522E-03   -0.29224E-03 10584   0.132E-01 0.141E-04
CGA:  87    -0.228379452823E+03   -0.14828E-02   -0.15817E-02 10584   0.638E-01-0.162E-02
CGA:  88    -0.228380460214E+03   -0.10074E-02   -0.10664E-02 10584   0.164E-01-0.198E-02
CGA:  89    -0.228380650796E+03   -0.19058E-03   -0.19253E-03 10584   0.478E-02-0.133E-03
CGA:  90    -0.228380823047E+03   -0.17225E-03   -0.17247E-03 10584   0.122E-01 0.456E-05
CGA:  91    -0.228381350875E+03   -0.52783E-03   -0.52786E-03 10584   0.196E-01 0.105E-04
CGA:  92    -0.228381753864E+03   -0.40299E-03   -0.38515E-03 10584   0.155E-01 0.632E-03
CGA:  93    -0.228382141816E+03   -0.38795E-03   -0.38476E-03 10584   0.132E-01 0.843E-04
CGA:  94    -0.228382346206E+03   -0.20439E-03   -0.21029E-03 10584   0.485E-02-0.260E-03
CGA:  95    -0.228382447203E+03   -0.10100E-03   -0.10158E-03 10584   0.554E-02-0.111E-04
CGA:  96    -0.228382700163E+03   -0.25296E-03   -0.25289E-03 10584   0.144E-01 0.213E-04
CGA:  97    -0.228383129705E+03   -0.42954E-03   -0.42428E-03 10584   0.148E-01 0.253E-05
CGA:  98    -0.228383384936E+03   -0.25523E-03   -0.25668E-03 10584   0.538E-02-0.563E-04
CGA:  99    -0.228383465864E+03   -0.80928E-04   -0.82190E-04 10584   0.271E-02-0.570E-04
CGA: 100    -0.228383562981E+03   -0.97116E-04   -0.97333E-04 10584   0.600E-02 0.206E-04
CGA: 101    -0.228383772113E+03   -0.20913E-03   -0.20956E-03 10584   0.671E-02 0.296E-04
SDA: 102    -0.228383941889E+03   -0.16978E-03   -0.16870E-03 10584   0.756E-02 0.128E-04
CGA: 103    -0.228384124404E+03   -0.18251E-03   -0.18226E-03 10584   0.216E-02 0.161E-05
CGA: 104    -0.228384203418E+03   -0.79014E-04   -0.79015E-04 10584   0.118E-02-0.465E-06
CGA: 105    -0.228384354063E+03   -0.15065E-03   -0.15080E-03 10584   0.432E-02-0.191E-05
CGA: 106    -0.228384592024E+03   -0.23796E-03   -0.23866E-03 10584   0.426E-03-0.435E-04
CGA: 107    -0.228384712375E+03   -0.12035E-03   -0.60596E-05 10584   0.186E-02-0.682E-05
CGA: 108    -0.228384752883E+03   -0.40508E-04   -0.40689E-04 10584   0.293E-03-0.151E-04
CGA: 109    -0.228384775302E+03   -0.22419E-04   -0.22421E-04 10584   0.372E-03-0.161E-05
CGA: 110    -0.228384821894E+03   -0.46592E-04   -0.46275E-04 10584   0.927E-03 0.584E-05
CGA: 111    -0.228384856638E+03   -0.34745E-04   -0.34261E-04 10584   0.817E-04 0.939E-05
CGA: 112    -0.228384883640E+03   -0.27001E-04   -0.26762E-04 10584   0.529E-03 0.120E-05
CGA: 113    -0.228384897644E+03   -0.14005E-04   -0.13492E-04 10584   0.132E-03 0.144E-04
CGA: 114    -0.228384903834E+03   -0.61892E-05   -0.61481E-05 10584   0.768E-04-0.156E-06
   1 F= -.22838490E+03 E0= -.22837787E+03  d E =-.228385E+03  mag=    18.0000
