       N       E                     dE             d eps       ncg     rms          rms(c)
DAV:   1     0.232214039636E+04    0.23221E+04   -0.12018E+05 40000   0.147E+03
DAV:   2    -0.900814379448E+02   -0.24122E+04   -0.23294E+04 42720   0.401E+02
DAV:   3    -0.315275565261E+03   -0.22519E+03   -0.22099E+03 45088   0.139E+02
DAV:   4    -0.323876338185E+03   -0.86008E+01   -0.84692E+01 56376   0.303E+01
DAV:   5    -0.324287908782E+03   -0.41157E+00   -0.40998E+00 62264   0.487E+00    0.847E+01
DAV:   6    -0.299815587066E+03    0.24472E+02   -0.48555E+02 53464   0.658E+01    0.903E+01
DAV:   7    -0.286099924867E+03    0.13716E+02   -0.23217E+02 56256   0.134E+02    0.428E+01
DAV:   8    -0.277049324954E+03    0.90506E+01   -0.11038E+02 55448   0.313E+01    0.285E+01
DAV:   9    -0.273105835780E+03    0.39435E+01   -0.82045E+01 52592   0.176E+01    0.286E+01
DAV:  10    -0.269571123165E+03    0.35347E+01   -0.60171E+01 54392   0.149E+01    0.227E+01
DAV:  11    -0.268099515635E+03    0.14716E+01   -0.10247E+01 54720   0.105E+01    0.175E+01
DAV:  12    -0.267458336324E+03    0.64118E+00   -0.30519E+00 54648   0.742E+00    0.193E+01
DAV:  13    -0.267018871547E+03    0.43946E+00   -0.23353E+00 54184   0.418E+00    0.799E+00
DAV:  14    -0.267108890650E+03   -0.90019E-01   -0.97863E-01 53656   0.260E+00    0.627E+00
DAV:  15    -0.267179372490E+03   -0.70482E-01   -0.57982E-01 54184   0.154E+00    0.814E+00
DAV:  16    -0.267186884328E+03   -0.75118E-02   -0.40964E-02 45072   0.606E-01    0.867E+00
DAV:  17    -0.267167973149E+03    0.18911E-01   -0.14327E-01 58928   0.897E-01    0.605E+00
DAV:  18    -0.267183664687E+03   -0.15692E-01   -0.85020E-02 53544   0.716E-01    0.458E+00
DAV:  19    -0.267172351165E+03    0.11314E-01   -0.79500E-02 53752   0.111E+00    0.285E+00
DAV:  20    -0.267181652746E+03   -0.93016E-02   -0.60167E-02 53232   0.803E-01    0.185E+00
DAV:  21    -0.267180592131E+03    0.10606E-02   -0.90450E-02 54368   0.959E-01    0.238E+00
DAV:  22    -0.267183100820E+03   -0.25087E-02   -0.11136E-02 47808   0.324E-01    0.282E+00
DAV:  23    -0.267179140638E+03    0.39602E-02   -0.56963E-04 42032   0.974E-02    0.290E+00
DAV:  24    -0.267181699241E+03   -0.25586E-02   -0.66137E-03 52544   0.282E-01    0.222E+00
DAV:  25    -0.267183704639E+03   -0.20054E-02   -0.11640E-02 52552   0.451E-01    0.111E+00
DAV:  26    -0.267184830064E+03   -0.11254E-02   -0.39356E-03 53648   0.191E-01    0.705E-01
DAV:  27    -0.267185144007E+03   -0.31394E-03   -0.17589E-03 53528   0.108E-01    0.454E-01
DAV:  28    -0.267185118151E+03    0.25857E-04   -0.11847E-03 53704   0.109E-01    0.207E-01
DAV:  29    -0.267185395565E+03   -0.27741E-03   -0.54632E-04 52040   0.763E-02    0.111E-01
DAV:  30    -0.267185453961E+03   -0.58396E-04   -0.20948E-04 39272   0.407E-02    0.878E-02
DAV:  31    -0.267185453437E+03    0.52384E-06   -0.53354E-05 33128   0.272E-02
   1 F= -.26718545E+03 E0= -.26717585E+03  d E =-.267185E+03  mag=     4.0031
       N       E                     dE             d eps       ncg     rms          rms(c)
DAV:   1    -0.267218614264E+03   -0.33160E-01   -0.18439E-02 41832   0.496E-01    0.891E-02
DAV:   2    -0.267219040461E+03   -0.42620E-03   -0.33360E-03 49288   0.144E-01    0.518E-01
DAV:   3    -0.267218607555E+03    0.43291E-03   -0.22127E-03 53488   0.103E-01    0.788E-02
DAV:   4    -0.267218711988E+03   -0.10443E-03   -0.35642E-04 34312   0.476E-02    0.140E-01
DAV:   5    -0.267218673581E+03    0.38407E-04   -0.23122E-04 33664   0.437E-02    0.421E-02
DAV:   6    -0.267218685106E+03   -0.11525E-04   -0.78785E-05 30816   0.239E-02    0.883E-02
DAV:   7    -0.267218674364E+03    0.10742E-04   -0.88885E-05 26032   0.238E-02    0.397E-02
DAV:   8    -0.267218675572E+03   -0.12087E-05   -0.14501E-05 23504   0.144E-02
   2 F= -.26721868E+03 E0= -.26720910E+03  d E =-.332221E-01  mag=     4.0001
       N       E                     dE             d eps       ncg     rms          rms(c)
DAV:   1    -0.267945806685E+03   -0.72713E+00   -0.13428E+01 39816   0.134E+01    0.198E+00
DAV:   2    -0.268206910829E+03   -0.26110E+00   -0.18649E+00 51048   0.368E+00    0.121E+01
DAV:   3    -0.267964748501E+03    0.24216E+00   -0.17095E+00 53536   0.263E+00    0.147E+00
DAV:   4    -0.268024101098E+03   -0.59353E-01   -0.25253E-01 55632   0.106E+00    0.472E+00
DAV:   5    -0.267986494360E+03    0.37607E-01   -0.18592E-01 55360   0.931E-01    0.564E-01
DAV:   6    -0.268000834972E+03   -0.14341E-01   -0.61304E-02 54840   0.529E-01    0.243E+00
DAV:   7    -0.267991186238E+03    0.96487E-02   -0.47413E-02 54704   0.496E-01    0.368E-01
DAV:   8    -0.267993161546E+03   -0.19753E-02   -0.18679E-03 52264   0.159E-01    0.293E-01
DAV:   9    -0.267993162486E+03   -0.94025E-06   -0.57989E-04 56000   0.828E-02    0.296E-01
DAV:  10    -0.267993030420E+03    0.13207E-03   -0.39046E-04 53464   0.773E-02    0.171E-01
DAV:  11    -0.267993006121E+03    0.24299E-04   -0.61634E-04 53496   0.756E-02    0.129E-01
DAV:  12    -0.267993036745E+03   -0.30624E-04   -0.19052E-04 37040   0.476E-02    0.824E-02
DAV:  13    -0.267993045800E+03   -0.90545E-05   -0.66679E-05 32568   0.265E-02
   3 F= -.26799305E+03 E0= -.26798341E+03  d E =-.774370E+00  mag=     4.0000
       N       E                     dE             d eps       ncg     rms          rms(c)
DAV:   1    -0.268539935105E+03   -0.54690E+00   -0.11237E+02 39312   0.405E+01    0.602E+00
DAV:   2    -0.271387140645E+03   -0.28472E+01   -0.16811E+01 51616   0.123E+01    0.275E+01
DAV:   3    -0.269291256558E+03    0.20959E+01   -0.13208E+01 54056   0.908E+00    0.743E+00
DAV:   4    -0.269501598128E+03   -0.21034E+00   -0.21265E+00 56024   0.287E+00    0.127E+01
DAV:   5    -0.269241991573E+03    0.25961E+00   -0.16169E+00 55112   0.246E+00    0.410E+00
DAV:   6    -0.269329492017E+03   -0.87500E-01   -0.82963E-01 53648   0.158E+00    0.715E+00
DAV:   7    -0.269287124873E+03    0.42367E-01   -0.41841E-01 53304   0.133E+00    0.298E+00
DAV:   8    -0.269304573517E+03   -0.17449E-01   -0.56755E-02 54680   0.750E-01    0.252E+00
DAV:   9    -0.269297712443E+03    0.68611E-02   -0.42991E-02 56184   0.688E-01    0.163E+00
DAV:  10    -0.269295309623E+03    0.24028E-02   -0.32081E-02 55904   0.450E-01    0.738E-01
DAV:  11    -0.269297104545E+03   -0.17949E-02   -0.17420E-02 57936   0.316E-01    0.792E-01
DAV:  12    -0.269296912950E+03    0.19159E-03   -0.62180E-03 55568   0.224E-01    0.606E-01
DAV:  13    -0.269296576332E+03    0.33662E-03   -0.31054E-03 54792   0.144E-01    0.341E-01
DAV:  14    -0.269296579117E+03   -0.27844E-05   -0.16945E-03 54568   0.949E-02    0.151E-01
DAV:  15    -0.269296747337E+03   -0.16822E-03   -0.77719E-04 49888   0.594E-02    0.114E-01
DAV:  16    -0.269296797316E+03   -0.49979E-04   -0.14018E-04 35704   0.420E-02    0.968E-02
DAV:  17    -0.269296789520E+03    0.77958E-05   -0.11528E-04 41136   0.389E-02    0.737E-02
DAV:  18    -0.269296792425E+03   -0.29048E-05   -0.42303E-05 32888   0.275E-02
   4 F= -.26929679E+03 E0= -.26928690E+03  d E =-.130375E+01  mag=     4.0027
       N       E                     dE             d eps       ncg     rms          rms(c)
DAV:   1    -0.269405497239E+03   -0.10871E+00   -0.31046E+01 39312   0.221E+01    0.244E+00
DAV:   2    -0.269917255505E+03   -0.51176E+00   -0.39134E+00 49328   0.567E+00    0.150E+01
DAV:   3    -0.269557119408E+03    0.36014E+00   -0.25876E+00 54888   0.331E+00    0.242E+00
DAV:   4    -0.269634247473E+03   -0.77128E-01   -0.45543E-01 54160   0.132E+00    0.517E+00
DAV:   5    -0.269586809045E+03    0.47438E-01   -0.20376E-01 55368   0.108E+00    0.109E+00
DAV:   6    -0.269609690160E+03   -0.22881E-01   -0.14828E-01 54552   0.762E-01    0.367E+00
DAV:   7    -0.269588015156E+03    0.21675E-01   -0.96677E-02 55648   0.761E-01    0.644E-01
DAV:   8    -0.269592116948E+03   -0.41018E-02   -0.67642E-03 54096   0.328E-01    0.637E-01
DAV:   9    -0.269591843886E+03    0.27306E-03   -0.21678E-03 54960   0.170E-01    0.471E-01
DAV:  10    -0.269591425431E+03    0.41846E-03   -0.13339E-03 55352   0.139E-01    0.251E-01
DAV:  11    -0.269591565312E+03   -0.13988E-03   -0.21175E-03 55248   0.102E-01    0.178E-01
DAV:  12    -0.269591656696E+03   -0.91385E-04   -0.61959E-04 51208   0.643E-02    0.149E-01
DAV:  13    -0.269591656298E+03    0.39849E-06   -0.12892E-04 40496   0.400E-02    0.111E-01
DAV:  14    -0.269591641236E+03    0.15062E-04   -0.15771E-04 37488   0.372E-02    0.699E-02
DAV:  15    -0.269591641384E+03   -0.14841E-06   -0.95699E-05 33080   0.274E-02
   5 F= -.26959164E+03 E0= -.26958162E+03  d E =-.294849E+00  mag=     4.0000
       N       E                     dE             d eps       ncg     rms          rms(c)
DAV:   1    -0.269527778432E+03    0.63863E-01   -0.29727E+01 39312   0.236E+01    0.209E+00
DAV:   2    -0.269861811670E+03   -0.33403E+00   -0.31477E+00 44488   0.522E+00    0.957E+00
DAV:   3    -0.269723264885E+03    0.13855E+00   -0.12184E+00 54656   0.231E+00    0.196E+00
DAV:   4    -0.269786312164E+03   -0.63047E-01   -0.44829E-01 56096   0.132E+00    0.636E+00
DAV:   5    -0.269726220984E+03    0.60091E-01   -0.34036E-01 53904   0.113E+00    0.154E+00
DAV:   6    -0.269738797148E+03   -0.12576E-01   -0.87313E-02 54184   0.586E-01    0.214E+00
DAV:   7    -0.269732167266E+03    0.66299E-02   -0.32860E-02 55336   0.503E-01    0.455E-01
DAV:   8    -0.269733686389E+03   -0.15191E-02   -0.46266E-03 56280   0.238E-01    0.488E-01
DAV:   9    -0.269733542762E+03    0.14363E-03   -0.13719E-03 56432   0.139E-01    0.376E-01
DAV:  10    -0.269733384984E+03    0.15778E-03   -0.76634E-04 55632   0.105E-01    0.250E-01
DAV:  11    -0.269733334492E+03    0.50492E-04   -0.12513E-03 54048   0.920E-02    0.115E-01
DAV:  12    -0.269733412063E+03   -0.77571E-04   -0.40241E-04 47912   0.561E-02    0.113E-01
DAV:  13    -0.269733418155E+03   -0.60918E-05   -0.18439E-04 40728   0.400E-02    0.608E-02
DAV:  14    -0.269733426005E+03   -0.78504E-05   -0.86284E-05 30320   0.253E-02
   6 F= -.26973343E+03 E0= -.26972325E+03  d E =-.141785E+00  mag=     4.0000
       N       E                     dE             d eps       ncg     rms          rms(c)
DAV:   1    -0.269541181375E+03    0.19224E+00   -0.40459E+01 40320   0.292E+01    0.239E+00
DAV:   2    -0.269860986830E+03   -0.31981E+00   -0.32449E+00 41048   0.565E+00    0.762E+00
DAV:   3    -0.269790948447E+03    0.70038E-01   -0.13032E+00 53568   0.241E+00    0.359E+00
DAV:   4    -0.269829784649E+03   -0.38836E-01   -0.47407E-01 56008   0.142E+00    0.634E+00
DAV:   5    -0.269769771318E+03    0.60013E-01   -0.38961E-01 54064   0.117E+00    0.103E+00
DAV:   6    -0.269795184526E+03   -0.25413E-01   -0.12775E-01 54896   0.743E-01    0.372E+00
DAV:   7    -0.269775129585E+03    0.20055E-01   -0.11677E-01 54424   0.722E-01    0.717E-01
DAV:   8    -0.269778937698E+03   -0.38081E-02   -0.56626E-03 52496   0.335E-01    0.530E-01
DAV:   9    -0.269778757152E+03    0.18055E-03   -0.29968E-03 56304   0.182E-01    0.337E-01
DAV:  10    -0.269778731507E+03    0.25645E-04   -0.14949E-03 54200   0.109E-01    0.270E-01
DAV:  11    -0.269778661705E+03    0.69802E-04   -0.12431E-03 55600   0.109E-01    0.206E-01
DAV:  12    -0.269778704211E+03   -0.42506E-04   -0.72268E-04 51192   0.658E-02    0.181E-01
DAV:  13    -0.269778724062E+03   -0.19851E-04   -0.50231E-04 47696   0.555E-02    0.988E-02
DAV:  14    -0.269778732131E+03   -0.80691E-05   -0.79143E-05 34032   0.328E-02
   7 F= -.26977873E+03 E0= -.26976839E+03  d E =-.453061E-01  mag=     4.0000
       N       E                     dE             d eps       ncg     rms          rms(c)
DAV:   1    -0.269439602523E+03    0.33912E+00   -0.68180E+01 40320   0.357E+01    0.279E+00
DAV:   2    -0.269836848185E+03   -0.39725E+00   -0.41166E+00 40832   0.667E+00    0.677E+00
DAV:   3    -0.269800216877E+03    0.36631E-01   -0.11922E+00 53904   0.245E+00    0.469E+00
DAV:   4    -0.269805253298E+03   -0.50364E-02   -0.49989E-01 54144   0.147E+00    0.517E+00
DAV:   5    -0.269765025390E+03    0.40228E-01   -0.24692E-01 54384   0.103E+00    0.110E+00
DAV:   6    -0.269791183014E+03   -0.26158E-01   -0.17781E-01 55152   0.842E-01    0.393E+00
DAV:   7    -0.269765588187E+03    0.25595E-01   -0.11610E-01 53848   0.797E-01    0.731E-01
DAV:   8    -0.269769930918E+03   -0.43427E-02   -0.12777E-02 53584   0.390E-01    0.660E-01
DAV:   9    -0.269769746636E+03    0.18428E-03   -0.45708E-03 55176   0.232E-01    0.481E-01
DAV:  10    -0.269769496440E+03    0.25020E-03   -0.16486E-03 55752   0.140E-01    0.295E-01
DAV:  11    -0.269769452704E+03    0.43736E-04   -0.16581E-03 53848   0.108E-01    0.209E-01
DAV:  12    -0.269769581619E+03   -0.12891E-03   -0.11649E-03 54888   0.796E-02    0.143E-01
DAV:  13    -0.269769646606E+03   -0.64987E-04   -0.37128E-04 45000   0.533E-02    0.974E-02
DAV:  14    -0.269769658750E+03   -0.12144E-04   -0.12216E-04 34216   0.349E-02    0.655E-02
DAV:  15    -0.269769661939E+03   -0.31889E-05   -0.64433E-05 33072   0.248E-02
   8 F= -.26976966E+03 E0= -.26975916E+03  d E =0.907019E-02  mag=     4.0000
       N       E                     dE             d eps       ncg     rms          rms(c)
DAV:   1    -0.269791395900E+03   -0.21737E-01   -0.90203E+00 40320   0.125E+01    0.126E+00
DAV:   2    -0.269846868109E+03   -0.55472E-01   -0.60375E-01 40456   0.245E+00    0.275E+00
DAV:   3    -0.269839156676E+03    0.77114E-02   -0.20257E-01 57496   0.107E+00    0.184E+00
DAV:   4    -0.269842788801E+03   -0.36321E-02   -0.92708E-02 54504   0.692E-01    0.262E+00
DAV:   5    -0.269832171853E+03    0.10617E-01   -0.70498E-02 54600   0.524E-01    0.436E-01
DAV:   6    -0.269833474544E+03   -0.13027E-02   -0.39523E-03 56000   0.287E-01    0.324E-01
DAV:   7    -0.269835051571E+03   -0.15770E-02   -0.14359E-02 54424   0.250E-01    0.122E+00
DAV:   8    -0.269832808489E+03    0.22431E-02   -0.82457E-03 54256   0.207E-01    0.218E-01
DAV:   9    -0.269833305419E+03   -0.49693E-03   -0.49588E-04 50072   0.729E-02    0.165E-01
DAV:  10    -0.269833328658E+03   -0.23239E-04   -0.22993E-04 35432   0.407E-02    0.114E-01
DAV:  11    -0.269833340915E+03   -0.12257E-04   -0.21628E-04 45256   0.433E-02    0.115E-01
DAV:  12    -0.269833334778E+03    0.61375E-05   -0.11256E-04 32696   0.283E-02    0.421E-02
DAV:  13    -0.269833347373E+03   -0.12595E-04   -0.46831E-05 25200   0.186E-02    0.344E-02
DAV:  14    -0.269833348771E+03   -0.13987E-05   -0.11177E-05 23192   0.118E-02
   9 F= -.26983335E+03 E0= -.26982289E+03  d E =-.636868E-01  mag=     4.0000
       N       E                     dE             d eps       ncg     rms          rms(c)
DAV:   1    -0.269840414342E+03   -0.70670E-02   -0.40718E+00 39312   0.784E+00    0.833E-01
DAV:   2    -0.269863998192E+03   -0.23584E-01   -0.24352E-01 44288   0.161E+00    0.231E+00
DAV:   3    -0.269857978154E+03    0.60200E-02   -0.10162E-01 58584   0.728E-01    0.147E+00
DAV:   4    -0.269859519411E+03   -0.15413E-02   -0.46075E-02 53904   0.472E-01    0.155E+00
DAV:   5    -0.269855477127E+03    0.40423E-02   -0.32856E-02 54880   0.396E-01    0.428E-01
DAV:   6    -0.269855576328E+03   -0.99201E-04   -0.29895E-03 55392   0.233E-01    0.356E-01
DAV:   7    -0.269856351684E+03   -0.77536E-03   -0.10472E-02 54712   0.191E-01    0.859E-01
DAV:   8    -0.269855136867E+03    0.12148E-02   -0.52440E-03 54512   0.169E-01    0.130E-01
DAV:   9    -0.269855369437E+03   -0.23257E-03   -0.60123E-04 50680   0.573E-02    0.107E-01
DAV:  10    -0.269855398430E+03   -0.28993E-04   -0.84023E-05 32384   0.290E-02    0.922E-02
DAV:  11    -0.269855394011E+03    0.44192E-05   -0.72916E-05 31968   0.256E-02
  10 F= -.26985539E+03 E0= -.26984499E+03  d E =-.220452E-01  mag=     4.0000
       N       E                     dE             d eps       ncg     rms          rms(c)
DAV:   1    -0.269834576537E+03    0.20822E-01   -0.10450E+01 40320   0.114E+01    0.789E-01
DAV:   2    -0.269866026365E+03   -0.31450E-01   -0.34027E-01 41576   0.197E+00    0.119E+00
DAV:   3    -0.269868769773E+03   -0.27434E-02   -0.71481E-02 57392   0.647E-01    0.192E+00
DAV:   4    -0.269863704949E+03    0.50648E-02   -0.39086E-02 54760   0.473E-01    0.103E+00
DAV:   5    -0.269863115180E+03    0.58977E-03   -0.17600E-02 54624   0.297E-01    0.548E-01
DAV:   6    -0.269862680110E+03    0.43507E-03   -0.47690E-03 54576   0.241E-01    0.537E-01
DAV:   7    -0.269863196440E+03   -0.51633E-03   -0.14147E-02 54760   0.220E-01    0.859E-01
DAV:   8    -0.269861929621E+03    0.12668E-02   -0.57742E-03 53504   0.206E-01    0.126E-01
DAV:   9    -0.269862298305E+03   -0.36868E-03   -0.14084E-03 52920   0.785E-02    0.180E-01
DAV:  10    -0.269862333943E+03   -0.35639E-04   -0.11577E-04 38800   0.382E-02    0.164E-01
DAV:  11    -0.269862316777E+03    0.17166E-04   -0.66953E-05 35768   0.279E-02    0.121E-01
DAV:  12    -0.269862302337E+03    0.14440E-04   -0.71755E-05 37776   0.412E-02    0.598E-02
DAV:  13    -0.269862305905E+03   -0.35681E-05   -0.77183E-05 39960   0.299E-02
  11 F= -.26986231E+03 E0= -.26985195E+03  d E =-.691189E-02  mag=     4.0000
       N       E                     dE             d eps       ncg     rms          rms(c)
DAV:   1    -0.269606477714E+03    0.25582E+00   -0.76430E+01 40320   0.323E+01    0.270E+00
DAV:   2    -0.269885673665E+03   -0.27920E+00   -0.29354E+00 42952   0.564E+00    0.568E+00
DAV:   3    -0.269882605901E+03    0.30678E-02   -0.11473E+00 54176   0.229E+00    0.549E+00
DAV:   4    -0.269842506690E+03    0.40099E-01   -0.29215E-01 53912   0.136E+00    0.293E+00
DAV:   5    -0.269832907284E+03    0.95994E-02   -0.10233E-01 54920   0.717E-01    0.885E-01
DAV:   6    -0.269838161893E+03   -0.52546E-02   -0.57136E-02 54600   0.562E-01    0.219E+00
DAV:   7    -0.269831260841E+03    0.69011E-02   -0.40951E-02 53848   0.458E-01    0.600E-01
DAV:   8    -0.269832564209E+03   -0.13034E-02   -0.60615E-03 52576   0.239E-01    0.413E-01
DAV:   9    -0.269833095905E+03   -0.53170E-03   -0.50207E-03 53552   0.155E-01    0.491E-01
DAV:  10    -0.269833136431E+03   -0.40526E-04   -0.30721E-03 53456   0.142E-01    0.326E-01
DAV:  11    -0.269833118885E+03    0.17546E-04   -0.85449E-04 53968   0.107E-01    0.229E-01
DAV:  12    -0.269833098775E+03    0.20110E-04   -0.68705E-04 54248   0.941E-02    0.138E-01
DAV:  13    -0.269833132101E+03   -0.33326E-04   -0.26819E-04 46320   0.597E-02    0.678E-02
DAV:  14    -0.269833173465E+03   -0.41364E-04   -0.18728E-04 35600   0.386E-02    0.843E-02
DAV:  15    -0.269833171370E+03    0.20948E-05   -0.91151E-05 31576   0.293E-02
  12 F= -.26983317E+03 E0= -.26982306E+03  d E =0.291345E-01  mag=     4.0000
       N       E                     dE             d eps       ncg     rms          rms(c)
DAV:   1    -0.269810631711E+03    0.22542E-01   -0.19696E+01 40320   0.169E+01    0.172E+00
DAV:   2    -0.269894316412E+03   -0.83685E-01   -0.87055E-01 42400   0.308E+00    0.356E+00
DAV:   3    -0.269892435047E+03    0.18814E-02   -0.43972E-01 53576   0.141E+00    0.354E+00
DAV:   4    -0.269880933193E+03    0.11502E-01   -0.12105E-01 54648   0.876E-01    0.228E+00
DAV:   5    -0.269874032536E+03    0.69007E-02   -0.72335E-02 54032   0.658E-01    0.102E+00
DAV:   6    -0.269874226118E+03   -0.19358E-03   -0.12812E-02 54512   0.390E-01    0.863E-01
DAV:   7    -0.269875833978E+03   -0.16079E-02   -0.35496E-02 54248   0.372E-01    0.141E+00
DAV:   8    -0.269873146938E+03    0.26870E-02   -0.11826E-02 53232   0.310E-01    0.466E-01
DAV:   9    -0.269873752619E+03   -0.60568E-03   -0.15558E-03 53648   0.121E-01    0.401E-01
DAV:  10    -0.269873728496E+03    0.24122E-04   -0.36954E-04 50328   0.557E-02    0.318E-01
DAV:  11    -0.269873732003E+03   -0.35068E-05   -0.45361E-04 51448   0.728E-02    0.302E-01
DAV:  12    -0.269873635276E+03    0.96727E-04   -0.59112E-04 50016   0.611E-02    0.890E-02
DAV:  13    -0.269873717170E+03   -0.81894E-04   -0.32764E-04 42288   0.366E-02    0.103E-01
DAV:  14    -0.269873715984E+03    0.11862E-05   -0.57946E-05 30584   0.289E-02
  13 F= -.26987372E+03 E0= -.26986366E+03  d E =-.405446E-01  mag=     4.0000
       N       E                     dE             d eps       ncg     rms          rms(c)
DAV:   1    -0.269839901611E+03    0.33816E-01   -0.14868E+01 40320   0.142E+01    0.143E+00
DAV:   2    -0.269898292517E+03   -0.58391E-01   -0.58423E-01 45072   0.249E+00    0.348E+00
DAV:   3    -0.269894907727E+03    0.33848E-02   -0.39081E-01 53288   0.127E+00    0.305E+00
DAV:   4    -0.269882284141E+03    0.12624E-01   -0.55246E-02 51592   0.648E-01    0.128E+00
DAV:   5    -0.269881699811E+03    0.58433E-03   -0.19004E-02 54088   0.327E-01    0.694E-01
DAV:   6    -0.269883631312E+03   -0.19315E-02   -0.22742E-02 54464   0.323E-01    0.145E+00
DAV:   7    -0.269880472425E+03    0.31589E-02   -0.20026E-02 53544   0.293E-01    0.294E-01
DAV:   8    -0.269881502120E+03   -0.10297E-02   -0.32958E-03 52336   0.141E-01    0.398E-01
DAV:   9    -0.269881521399E+03   -0.19279E-04   -0.77733E-04 53664   0.857E-02    0.300E-01
DAV:  10    -0.269881491283E+03    0.30117E-04   -0.28620E-04 46712   0.578E-02    0.239E-01
DAV:  11    -0.269881445010E+03    0.46273E-04   -0.35928E-04 52680   0.856E-02    0.187E-01
DAV:  12    -0.269881459646E+03   -0.14636E-04   -0.39245E-04 52072   0.556E-02    0.855E-02
DAV:  13    -0.269881493152E+03   -0.33506E-04   -0.10666E-04 33656   0.327E-02    0.594E-02
DAV:  14    -0.269881498637E+03   -0.54849E-05   -0.30196E-05 27768   0.212E-02
  14 F= -.26988150E+03 E0= -.26987142E+03  d E =-.778265E-02  mag=     4.0000
       N       E                     dE             d eps       ncg     rms          rms(c)
DAV:   1    -0.269884348433E+03   -0.28553E-02   -0.14428E+00 40320   0.406E+00    0.795E-01
DAV:   2    -0.269890371266E+03   -0.60228E-02   -0.65680E-02 47304   0.832E-01    0.127E+00
DAV:   3    -0.269893993906E+03   -0.36226E-02   -0.94090E-02 54128   0.624E-01    0.208E+00
DAV:   4    -0.269887288060E+03    0.67058E-02   -0.36844E-02 53440   0.436E-01    0.628E-01
DAV:   5    -0.269888020024E+03   -0.73196E-03   -0.98632E-03 53504   0.233E-01    0.438E-01
DAV:   6    -0.269887863520E+03    0.15650E-03   -0.31070E-03 53816   0.176E-01    0.366E-01
DAV:   7    -0.269887923923E+03   -0.60403E-04   -0.39000E-03 54240   0.127E-01    0.425E-01
DAV:   8    -0.269887705391E+03    0.21853E-03   -0.12573E-03 53296   0.108E-01    0.101E-01
DAV:   9    -0.269887774140E+03   -0.68749E-04   -0.17352E-04 37928   0.386E-02    0.100E-01
DAV:  10    -0.269887773162E+03    0.97838E-06   -0.25460E-05 27736   0.165E-02
  15 F= -.26988777E+03 E0= -.26987775E+03  d E =-.627452E-02  mag=     4.0000
       N       E                     dE             d eps       ncg     rms          rms(c)
DAV:   1    -0.269883686689E+03    0.40875E-02   -0.15100E+00 39312   0.442E+00    0.298E-01
DAV:   2    -0.269888303213E+03   -0.46165E-02   -0.49751E-02 40392   0.737E-01    0.314E-01
DAV:   3    -0.269889385530E+03   -0.10823E-02   -0.13506E-02 54512   0.253E-01    0.965E-01
DAV:   4    -0.269887840341E+03    0.15452E-02   -0.69977E-03 55064   0.182E-01    0.194E-01
DAV:   5    -0.269888108524E+03   -0.26818E-03   -0.12942E-03 53888   0.873E-02    0.232E-01
DAV:   6    -0.269888002110E+03    0.10641E-03   -0.80246E-04 54232   0.919E-02    0.132E-01
DAV:   7    -0.269888115213E+03   -0.11310E-03   -0.11897E-03 54448   0.715E-02    0.297E-01
DAV:   8    -0.269887988919E+03    0.12629E-03   -0.56114E-04 38808   0.566E-02    0.744E-02
DAV:   9    -0.269888019550E+03   -0.30631E-04   -0.54102E-05 30288   0.250E-02    0.640E-02
DAV:  10    -0.269888021156E+03   -0.16058E-05   -0.11938E-05 23056   0.148E-02
  16 F= -.26988802E+03 E0= -.26987802E+03  d E =-.247994E-03  mag=     4.0000
       N       E                     dE             d eps       ncg     rms          rms(c)
DAV:   1    -0.268529346530E+03    0.13587E+01   -0.16691E+02 39312   0.494E+01    0.778E+00
DAV:   2    -0.269526058129E+03   -0.99671E+00   -0.10352E+01 47280   0.100E+01    0.154E+01
DAV:   3    -0.269412080958E+03    0.11398E+00   -0.70540E+00 53992   0.563E+00    0.124E+01
DAV:   4    -0.269218741961E+03    0.19334E+00   -0.18734E+00 55176   0.338E+00    0.987E+00
DAV:   5    -0.269106634561E+03    0.11211E+00   -0.13756E+00 54304   0.224E+00    0.364E+00
DAV:   6    -0.269160661389E+03   -0.54027E-01   -0.41640E-01 54256   0.178E+00    0.631E+00
DAV:   7    -0.269111650871E+03    0.49011E-01   -0.60051E-01 53640   0.143E+00    0.240E+00
DAV:   8    -0.269119638115E+03   -0.79872E-02   -0.80072E-02 54864   0.878E-01    0.179E+00
DAV:   9    -0.269120111299E+03   -0.47318E-03   -0.48371E-02 54048   0.604E-01    0.128E+00
DAV:  10    -0.269122268191E+03   -0.21569E-02   -0.12266E-02 53424   0.293E-01    0.135E+00
DAV:  11    -0.269119801986E+03    0.24662E-02   -0.11333E-02 54576   0.328E-01    0.770E-01
DAV:  12    -0.269119635695E+03    0.16629E-03   -0.88888E-03 53648   0.269E-01    0.551E-01
DAV:  13    -0.269120319492E+03   -0.68380E-03   -0.48363E-03 52896   0.180E-01    0.484E-01
DAV:  14    -0.269120318274E+03    0.12175E-05   -0.25510E-03 53240   0.159E-01    0.239E-01
DAV:  15    -0.269120470767E+03   -0.15249E-03   -0.13548E-03 53808   0.940E-02    0.223E-01
DAV:  16    -0.269120460718E+03    0.10049E-04   -0.29378E-04 50848   0.651E-02    0.172E-01
DAV:  17    -0.269120427748E+03    0.32970E-04   -0.47547E-04 51536   0.671E-02    0.124E-01
DAV:  18    -0.269120470435E+03   -0.42687E-04   -0.25379E-04 36200   0.453E-02    0.938E-02
DAV:  19    -0.269120495515E+03   -0.25080E-04   -0.90998E-05 37896   0.365E-02    0.538E-02
DAV:  20    -0.269120499487E+03   -0.39724E-05   -0.48250E-05 29232   0.214E-02
  17 F= -.26912050E+03 E0= -.26911031E+03  d E =0.767522E+00  mag=     4.0000
       N       E                     dE             d eps       ncg     rms          rms(c)
DAV:   1    -0.269656509128E+03   -0.53601E+00   -0.45436E+01 40360   0.221E+01    0.603E+00
DAV:   2    -0.270128214992E+03   -0.47171E+00   -0.41815E+00 47096   0.576E+00    0.146E+01
DAV:   3    -0.269955744329E+03    0.17247E+00   -0.60422E+00 53448   0.491E+00    0.103E+01
DAV:   4    -0.269879809929E+03    0.75934E-01   -0.15507E+00 53552   0.254E+00    0.944E+00
DAV:   5    -0.269762219818E+03    0.11759E+00   -0.70716E-01 53760   0.184E+00    0.308E+00
DAV:   6    -0.269830040152E+03   -0.67820E-01   -0.49788E-01 53544   0.137E+00    0.556E+00
DAV:   7    -0.269784085257E+03    0.45955E-01   -0.33463E-01 54040   0.138E+00    0.237E+00
DAV:   8    -0.269793296067E+03   -0.92108E-02   -0.52876E-02 52376   0.624E-01    0.161E+00
DAV:   9    -0.269792123874E+03    0.11722E-02   -0.42850E-02 53928   0.451E-01    0.988E-01
DAV:  10    -0.269792643061E+03   -0.51919E-03   -0.11701E-02 54024   0.364E-01    0.728E-01
DAV:  11    -0.269792243545E+03    0.39952E-03   -0.70899E-03 54776   0.302E-01    0.691E-01
DAV:  12    -0.269791699804E+03    0.54374E-03   -0.44957E-03 54256   0.255E-01    0.437E-01
DAV:  13    -0.269791893964E+03   -0.19416E-03   -0.33138E-03 52280   0.181E-01    0.214E-01
DAV:  14    -0.269792130102E+03   -0.23614E-03   -0.13780E-03 51944   0.103E-01    0.180E-01
DAV:  15    -0.269792189446E+03   -0.59344E-04   -0.54237E-04 51192   0.621E-02    0.110E-01
DAV:  16    -0.269792219004E+03   -0.29558E-04   -0.21113E-04 37544   0.412E-02    0.797E-02
DAV:  17    -0.269792235761E+03   -0.16757E-04   -0.99845E-05 35912   0.290E-02    0.537E-02
DAV:  18    -0.269792240272E+03   -0.45115E-05   -0.31169E-05 28328   0.198E-02
  18 F= -.26979224E+03 E0= -.26978235E+03  d E =-.671741E+00  mag=     4.0000
       N       E                     dE             d eps       ncg     rms          rms(c)
DAV:   1    -0.269809783437E+03   -0.17548E-01   -0.32514E-01 40640   0.194E+00    0.432E-01
DAV:   2    -0.269811362176E+03   -0.15787E-02   -0.17211E-02 50224   0.494E-01    0.660E-01
DAV:   3    -0.269812221848E+03   -0.85967E-03   -0.21869E-02 52824   0.303E-01    0.109E+00
DAV:   4    -0.269810384826E+03    0.18370E-02   -0.72987E-03 54216   0.224E-01    0.195E-01
DAV:   5    -0.269811034682E+03   -0.64986E-03   -0.37297E-03 53808   0.148E-01    0.537E-01
DAV:   6    -0.269810540605E+03    0.49408E-03   -0.32067E-03 54608   0.133E-01    0.190E-01
DAV:   7    -0.269810734357E+03   -0.19375E-03   -0.20606E-03 52840   0.905E-02    0.358E-01
DAV:   8    -0.269810543628E+03    0.19073E-03   -0.10850E-03 50856   0.804E-02    0.896E-02
DAV:   9    -0.269810593758E+03   -0.50131E-04   -0.10522E-04 32024   0.260E-02    0.733E-02
DAV:  10    -0.269810595467E+03   -0.17086E-05   -0.15897E-05 25048   0.137E-02
  19 F= -.26981060E+03 E0= -.26980072E+03  d E =-.183552E-01  mag=     4.0000
       N       E                     dE             d eps       ncg     rms          rms(c)
DAV:   1    -0.269836430679E+03   -0.25837E-01   -0.50983E+00 39816   0.836E+00    0.151E+00
DAV:   2    -0.269860266808E+03   -0.23836E-01   -0.26473E-01 51056   0.198E+00    0.226E+00
DAV:   3    -0.269870963439E+03   -0.10697E-01   -0.23033E-01 54600   0.113E+00    0.381E+00
DAV:   4    -0.269852803513E+03    0.18160E-01   -0.13954E-01 53880   0.836E-01    0.185E+00
DAV:   5    -0.269852105112E+03    0.69840E-03   -0.71525E-02 53360   0.543E-01    0.109E+00
DAV:   6    -0.269856295373E+03   -0.41903E-02   -0.55577E-02 54632   0.488E-01    0.206E+00
DAV:   7    -0.269849625669E+03    0.66697E-02   -0.39792E-02 54208   0.414E-01    0.386E-01
DAV:   8    -0.269850436298E+03   -0.81063E-03   -0.23706E-03 53208   0.224E-01    0.209E-01
DAV:   9    -0.269850770190E+03   -0.33389E-03   -0.14510E-03 51488   0.892E-02    0.248E-01
DAV:  10    -0.269850767296E+03    0.28944E-05   -0.14638E-04 38480   0.399E-02    0.222E-01
DAV:  11    -0.269850753505E+03    0.13791E-04   -0.14902E-04 47560   0.478E-02    0.185E-01
DAV:  12    -0.269850700376E+03    0.53128E-04   -0.15879E-04 38936   0.455E-02    0.764E-02
DAV:  13    -0.269850712173E+03   -0.11796E-04   -0.17321E-04 38168   0.293E-02    0.609E-02
DAV:  14    -0.269850715396E+03   -0.32230E-05   -0.33065E-05 26600   0.212E-02
  20 F= -.26985072E+03 E0= -.26984086E+03  d E =-.401199E-01  mag=     4.0000
       N       E                     dE             d eps       ncg     rms          rms(c)
DAV:   1    -0.269850046691E+03    0.66548E-03   -0.17553E-01 39792   0.130E+00    0.358E-01
DAV:   2    -0.269851037014E+03   -0.99032E-03   -0.10561E-02 49096   0.351E-01    0.587E-01
DAV:   3    -0.269851435747E+03   -0.39873E-03   -0.15356E-02 53680   0.251E-01    0.851E-01
DAV:   4    -0.269850395910E+03    0.10398E-02   -0.53729E-03 52800   0.183E-01    0.249E-01
DAV:   5    -0.269850578389E+03   -0.18248E-03   -0.22134E-03 53448   0.113E-01    0.273E-01
DAV:   6    -0.269850438862E+03    0.13953E-03   -0.78414E-04 53320   0.908E-02    0.110E-01
DAV:   7    -0.269850563805E+03   -0.12494E-03   -0.11898E-03 41240   0.647E-02    0.319E-01
DAV:   8    -0.269850409087E+03    0.15472E-03   -0.73447E-04 42792   0.643E-02    0.390E-02
DAV:   9    -0.269850452557E+03   -0.43470E-04   -0.59786E-05 29592   0.217E-02    0.423E-02
DAV:  10    -0.269850454441E+03   -0.18838E-05   -0.85562E-06 22984   0.102E-02
  21 F= -.26985045E+03 E0= -.26984061E+03  d E =0.260955E-03  mag=     4.0000
       N       E                     dE             d eps       ncg     rms          rms(c)
DAV:   1    -0.269853284247E+03   -0.28317E-02   -0.96043E-02 39552   0.122E+00    0.135E-01
DAV:   2    -0.269853750657E+03   -0.46641E-03   -0.49467E-03 46000   0.250E-01    0.279E-01
DAV:   3    -0.269853723485E+03    0.27172E-04   -0.22642E-03 56776   0.115E-01    0.278E-01
DAV:   4    -0.269853651669E+03    0.71816E-04   -0.89294E-04 46856   0.741E-02    0.174E-01
DAV:   5    -0.269853617536E+03    0.34133E-04   -0.54982E-04 34448   0.546E-02    0.853E-02
DAV:   6    -0.269853607116E+03    0.10421E-04   -0.87244E-05 42104   0.394E-02    0.383E-02
DAV:   7    -0.269853621305E+03   -0.14189E-04   -0.14690E-04 31168   0.288E-02    0.116E-01
DAV:   8    -0.269853601947E+03    0.19358E-04   -0.10765E-04 28560   0.262E-02    0.250E-02
DAV:   9    -0.269853608074E+03   -0.61268E-05   -0.82050E-06 22832   0.982E-03
  22 F= -.26985361E+03 E0= -.26984375E+03  d E =-.315363E-02  mag=     4.0000
       N       E                     dE             d eps       ncg     rms          rms(c)
DAV:   1    -0.269858351616E+03   -0.47497E-02   -0.76402E-01 39312   0.343E+00    0.262E-01
DAV:   2    -0.269861861917E+03   -0.35103E-02   -0.36917E-02 41408   0.640E-01    0.649E-01
DAV:   3    -0.269861216341E+03    0.64558E-03   -0.84192E-03 59576   0.239E-01    0.304E-01
DAV:   4    -0.269861197970E+03    0.18371E-04   -0.16287E-03 53712   0.119E-01    0.335E-01
DAV:   5    -0.269861066549E+03    0.13142E-03   -0.16342E-03 53752   0.852E-02    0.187E-01
DAV:   6    -0.269861027070E+03    0.39479E-04   -0.51294E-04 54056   0.763E-02    0.152E-01
DAV:   7    -0.269861055897E+03   -0.28827E-04   -0.10328E-03 44824   0.623E-02    0.222E-01
DAV:   8    -0.269860972596E+03    0.83301E-04   -0.43984E-04 43456   0.594E-02    0.320E-02
DAV:   9    -0.269860997608E+03   -0.25012E-04   -0.71369E-05 28936   0.215E-02    0.379E-02
DAV:  10    -0.269860999933E+03   -0.23248E-05   -0.93036E-06 22688   0.104E-02
  23 F= -.26986100E+03 E0= -.26985112E+03  d E =-.739186E-02  mag=     4.0000
       N       E                     dE             d eps       ncg     rms          rms(c)
DAV:   1    -0.269860852993E+03    0.14461E-03   -0.22117E+00 39312   0.583E+00    0.338E-01
DAV:   2    -0.269870351586E+03   -0.94986E-02   -0.99836E-02 41240   0.104E+00    0.921E-01
DAV:   3    -0.269868997658E+03    0.13539E-02   -0.16593E-02 60632   0.328E-01    0.360E-01
DAV:   4    -0.269869253487E+03   -0.25583E-03   -0.51099E-03 54600   0.164E-01    0.619E-01
DAV:   5    -0.269868611016E+03    0.64247E-03   -0.34116E-03 54408   0.127E-01    0.126E-01
DAV:   6    -0.269868757370E+03   -0.14635E-03   -0.15776E-03 54192   0.103E-01    0.378E-01
DAV:   7    -0.269868549879E+03    0.20749E-03   -0.11872E-03 54224   0.774E-02    0.884E-02
DAV:   8    -0.269868585559E+03   -0.35680E-04   -0.89670E-05 33304   0.417E-02    0.588E-02
DAV:   9    -0.269868591299E+03   -0.57396E-05   -0.90907E-05 33600   0.350E-02
  24 F= -.26986859E+03 E0= -.26985867E+03  d E =-.759137E-02  mag=     4.0000
       N       E                     dE             d eps       ncg     rms          rms(c)
DAV:   1    -0.269856013602E+03    0.12572E-01   -0.48127E+00 39816   0.819E+00    0.452E-01
DAV:   2    -0.269872010401E+03   -0.15997E-01   -0.16926E-01 42336   0.137E+00    0.724E-01
DAV:   3    -0.269872855650E+03   -0.84525E-03   -0.27775E-02 57896   0.409E-01    0.107E+00
DAV:   4    -0.269871432929E+03    0.14227E-02   -0.12107E-02 54624   0.259E-01    0.694E-01
DAV:   5    -0.269870838687E+03    0.59424E-03   -0.51530E-03 54272   0.172E-01    0.232E-01
DAV:   6    -0.269870765320E+03    0.73367E-04   -0.15093E-03 55328   0.139E-01    0.316E-01
DAV:   7    -0.269870837240E+03   -0.71920E-04   -0.37987E-03 54768   0.122E-01    0.411E-01
DAV:   8    -0.269870591875E+03    0.24537E-03   -0.13198E-03 53488   0.101E-01    0.752E-02
DAV:   9    -0.269870666947E+03   -0.75072E-04   -0.27475E-04 49920   0.477E-02    0.710E-02
DAV:  10    -0.269870687579E+03   -0.20633E-04   -0.54916E-05 30232   0.266E-02    0.767E-02
DAV:  11    -0.269870687607E+03   -0.27303E-07   -0.35719E-05 29432   0.208E-02
  25 F= -.26987069E+03 E0= -.26986075E+03  d E =-.209631E-02  mag=     4.0000
       N       E                     dE             d eps       ncg     rms          rms(c)
DAV:   1    -0.269814053063E+03    0.56635E-01   -0.16535E+01 39312   0.142E+01    0.990E-01
DAV:   2    -0.269865064464E+03   -0.51011E-01   -0.53227E-01 42416   0.236E+00    0.180E+00
DAV:   3    -0.269868019382E+03   -0.29549E-02   -0.14880E-01 54712   0.819E-01    0.233E+00
DAV:   4    -0.269858911535E+03    0.91078E-02   -0.42052E-02 54312   0.513E-01    0.701E-01
DAV:   5    -0.269859728649E+03   -0.81711E-03   -0.12365E-02 54528   0.261E-01    0.596E-01
DAV:   6    -0.269860691535E+03   -0.96289E-03   -0.17206E-02 54208   0.307E-01    0.123E+00
DAV:   7    -0.269858306654E+03    0.23849E-02   -0.12330E-02 53632   0.256E-01    0.231E-01
DAV:   8    -0.269858755579E+03   -0.44892E-03   -0.74315E-04 51864   0.127E-01    0.167E-01
DAV:   9    -0.269858787486E+03   -0.31907E-04   -0.53723E-04 54304   0.740E-02    0.118E-01
DAV:  10    -0.269858807303E+03   -0.19817E-04   -0.17684E-04 34064   0.442E-02    0.906E-02
DAV:  11    -0.269858823478E+03   -0.16175E-04   -0.13559E-04 40312   0.337E-02    0.870E-02
DAV:  12    -0.269858819633E+03    0.38453E-05   -0.78793E-05 28016   0.243E-02
  26 F= -.26985882E+03 E0= -.26984897E+03  d E =0.118680E-01  mag=     4.0000
       N       E                     dE             d eps       ncg     rms          rms(c)
DAV:   1    -0.269854847685E+03    0.39758E-02   -0.18972E+00 40336   0.578E+00    0.688E-01
DAV:   2    -0.269866852196E+03   -0.12005E-01   -0.12318E-01 44904   0.109E+00    0.149E+00
DAV:   3    -0.269866091399E+03    0.76080E-03   -0.70274E-02 54448   0.569E-01    0.146E+00
DAV:   4    -0.269865437540E+03    0.65386E-03   -0.32748E-02 54928   0.384E-01    0.121E+00
DAV:   5    -0.269863002795E+03    0.24347E-02   -0.14987E-02 54208   0.286E-01    0.221E-01
DAV:   6    -0.269864308717E+03   -0.13059E-02   -0.69165E-03 54360   0.184E-01    0.898E-01
DAV:   7    -0.269863006177E+03    0.13025E-02   -0.58803E-03 53456   0.175E-01    0.125E-01
DAV:   8    -0.269863289879E+03   -0.28370E-03   -0.40101E-04 50984   0.845E-02    0.882E-02
DAV:   9    -0.269863330436E+03   -0.40557E-04   -0.18980E-04 35912   0.446E-02    0.944E-02
DAV:  10    -0.269863333763E+03   -0.33266E-05   -0.49687E-05 28704   0.242E-02
  27 F= -.26986333E+03 E0= -.26985346E+03  d E =-.451413E-02  mag=     4.0000
       N       E                     dE             d eps       ncg     rms          rms(c)
DAV:   1    -0.269858866014E+03    0.44644E-02   -0.91722E-01 40320   0.349E+00    0.221E-01
DAV:   2    -0.269861574045E+03   -0.27080E-02   -0.30131E-02 40672   0.578E-01    0.243E-01
DAV:   3    -0.269862082571E+03   -0.50853E-03   -0.68634E-03 56800   0.177E-01    0.662E-01
DAV:   4    -0.269861341852E+03    0.74072E-03   -0.38458E-03 53912   0.137E-01    0.164E-01
DAV:   5    -0.269861493144E+03   -0.15129E-03   -0.12468E-03 52816   0.806E-02    0.233E-01
DAV:   6    -0.269861423511E+03    0.69634E-04   -0.80183E-04 53808   0.820E-02    0.207E-01
DAV:   7    -0.269861393307E+03    0.30204E-04   -0.73966E-04 46992   0.589E-02    0.143E-01
DAV:   8    -0.269861371207E+03    0.22100E-04   -0.13746E-04 34840   0.447E-02    0.583E-02
DAV:   9    -0.269861371013E+03    0.19409E-06   -0.44793E-05 26416   0.234E-02
  28 F= -.26986137E+03 E0= -.26985147E+03  d E =0.196275E-02  mag=     4.0000
       N       E                     dE             d eps       ncg     rms          rms(c)
DAV:   1    -0.269803962268E+03    0.57409E-01   -0.17756E+01 40320   0.141E+01    0.724E-01
DAV:   2    -0.269848810111E+03   -0.44848E-01   -0.47572E-01 40544   0.225E+00    0.907E-01
DAV:   3    -0.269852963727E+03   -0.41536E-02   -0.63524E-02 55680   0.632E-01    0.198E+00
DAV:   4    -0.269846384587E+03    0.65791E-02   -0.31133E-02 54592   0.442E-01    0.808E-01
DAV:   5    -0.269846512268E+03   -0.12768E-03   -0.11425E-02 54048   0.246E-01    0.485E-01
DAV:   6    -0.269846232722E+03    0.27955E-03   -0.88459E-03 54128   0.277E-01    0.788E-01
DAV:   7    -0.269845562282E+03    0.67044E-03   -0.11590E-02 54208   0.220E-01    0.425E-01
DAV:   8    -0.269845505698E+03    0.56584E-04   -0.19320E-03 52880   0.143E-01    0.133E-01
DAV:   9    -0.269845638782E+03   -0.13308E-03   -0.74174E-04 54304   0.779E-02    0.146E-01
DAV:  10    -0.269845664904E+03   -0.26123E-04   -0.10918E-04 40560   0.428E-02    0.142E-01
DAV:  11    -0.269845665269E+03   -0.36406E-06   -0.92073E-05 40872   0.317E-02
  29 F= -.26984567E+03 E0= -.26983582E+03  d E =0.157057E-01  mag=     4.0000
       N       E                     dE             d eps       ncg     rms          rms(c)
DAV:   1    -0.267298781884E+03    0.25469E+01   -0.23666E+02 39312   0.538E+01    0.115E+01
DAV:   2    -0.268897309732E+03   -0.15985E+01   -0.16166E+01 47312   0.117E+01    0.171E+01
DAV:   3    -0.269164792931E+03   -0.26748E+00   -0.15957E+01 53600   0.949E+00    0.162E+01
DAV:   4    -0.269104139726E+03    0.60653E-01   -0.86177E+00 55224   0.551E+00    0.194E+01
DAV:   5    -0.268308820826E+03    0.79532E+00   -0.21955E+00 53808   0.389E+00    0.616E+00
DAV:   6    -0.268481667744E+03   -0.17285E+00   -0.16926E+00 53464   0.232E+00    0.105E+01
DAV:   7    -0.268305018703E+03    0.17665E+00   -0.70000E-01 53832   0.216E+00    0.248E+00
DAV:   8    -0.268342332357E+03   -0.37314E-01   -0.24014E-01 53840   0.112E+00    0.261E+00
DAV:   9    -0.268341309194E+03    0.10232E-02   -0.75604E-02 54904   0.839E-01    0.186E+00
DAV:  10    -0.268339616869E+03    0.16923E-02   -0.29323E-02 54480   0.527E-01    0.136E+00
DAV:  11    -0.268336644526E+03    0.29723E-02   -0.13343E-02 54152   0.459E-01    0.108E+00
DAV:  12    -0.268335288422E+03    0.13561E-02   -0.22097E-02 54064   0.492E-01    0.867E-01
DAV:  13    -0.268337950486E+03   -0.26621E-02   -0.14447E-02 52952   0.315E-01    0.719E-01
DAV:  14    -0.268338277111E+03   -0.32662E-03   -0.41635E-03 53896   0.232E-01    0.559E-01
DAV:  15    -0.268338155489E+03    0.12162E-03   -0.20256E-03 54248   0.166E-01    0.324E-01
DAV:  16    -0.268338140209E+03    0.15280E-04   -0.14289E-03 53072   0.123E-01    0.193E-01
DAV:  17    -0.268338174221E+03   -0.34012E-04   -0.67576E-04 50576   0.687E-02    0.141E-01
DAV:  18    -0.268338205658E+03   -0.31437E-04   -0.47000E-04 48016   0.537E-02    0.873E-02
DAV:  19    -0.268338220248E+03   -0.14590E-04   -0.76817E-05 33800   0.347E-02    0.619E-02
DAV:  20    -0.268338225593E+03   -0.53456E-05   -0.83122E-05 35144   0.275E-02
  30 F= -.26833823E+03 E0= -.26832904E+03  d E =0.150744E+01  mag=     4.0000
       N       E                     dE             d eps       ncg     rms          rms(c)
DAV:   1    -0.269023373894E+03   -0.68515E+00   -0.16182E+01 40320   0.152E+01    0.282E+00
DAV:   2    -0.269107925105E+03   -0.84551E-01   -0.96227E-01 45240   0.311E+00    0.339E+00
DAV:   3    -0.269163274299E+03   -0.55349E-01   -0.84218E-01 53656   0.189E+00    0.797E+00
DAV:   4    -0.269073797974E+03    0.89476E-01   -0.48760E-01 54936   0.139E+00    0.177E+00
DAV:   5    -0.269094303158E+03   -0.20505E-01   -0.14128E-01 53584   0.922E-01    0.266E+00
DAV:   6    -0.269087549771E+03    0.67534E-02   -0.95612E-02 55448   0.777E-01    0.224E+00
DAV:   7    -0.269085856876E+03    0.16929E-02   -0.96284E-02 54784   0.620E-01    0.179E+00
DAV:   8    -0.269083647796E+03    0.22091E-02   -0.19267E-02 52536   0.477E-01    0.630E-01
DAV:   9    -0.269085309819E+03   -0.16620E-02   -0.83055E-03 53976   0.246E-01    0.600E-01
DAV:  10    -0.269085592204E+03   -0.28239E-03   -0.14861E-03 52744   0.117E-01    0.589E-01
DAV:  11    -0.269085487159E+03    0.10504E-03   -0.97215E-04 53864   0.108E-01    0.567E-01
DAV:  12    -0.269084837886E+03    0.64927E-03   -0.19166E-03 52984   0.188E-01    0.226E-01
DAV:  13    -0.269085143295E+03   -0.30541E-03   -0.12241E-03 51976   0.883E-02    0.223E-01
DAV:  14    -0.269085198869E+03   -0.55574E-04   -0.53620E-04 52480   0.828E-02    0.152E-01
DAV:  15    -0.269085200979E+03   -0.21102E-05   -0.22831E-04 49568   0.484E-02    0.758E-02
DAV:  16    -0.269085203873E+03   -0.28939E-05   -0.36902E-05 31184   0.215E-02
  31 F= -.26908520E+03 E0= -.26907592E+03  d E =-.746978E+00  mag=     4.0000
       N       E                     dE             d eps       ncg     rms          rms(c)
DAV:   1    -0.269286483220E+03   -0.20128E+00   -0.19731E+00 40320   0.523E+00    0.918E-01
DAV:   2    -0.269296807618E+03   -0.10324E-01   -0.11581E-01 46160   0.108E+00    0.117E+00
DAV:   3    -0.269303398377E+03   -0.65908E-02   -0.11244E-01 53488   0.659E-01    0.255E+00
DAV:   4    -0.269293386662E+03    0.10012E-01   -0.41869E-02 53872   0.450E-01    0.704E-01
DAV:   5    -0.269294861408E+03   -0.14747E-02   -0.11647E-02 54096   0.254E-01    0.752E-01
DAV:   6    -0.269295701401E+03   -0.83999E-03   -0.14387E-02 53880   0.243E-01    0.106E+00
DAV:   7    -0.269293662807E+03    0.20386E-02   -0.96768E-03 53864   0.229E-01    0.212E-01
DAV:   8    -0.269294221247E+03   -0.55844E-03   -0.20484E-03 54104   0.117E-01    0.233E-01
DAV:   9    -0.269294457553E+03   -0.23631E-03   -0.87147E-04 52744   0.815E-02    0.230E-01
DAV:  10    -0.269294436548E+03    0.21005E-04   -0.11962E-04 39632   0.429E-02    0.214E-01
DAV:  11    -0.269294432962E+03    0.35866E-05   -0.15925E-04 43768   0.530E-02    0.171E-01
DAV:  12    -0.269294400212E+03    0.32750E-04   -0.24214E-04 45672   0.519E-02    0.529E-02
DAV:  13    -0.269294418098E+03   -0.17887E-04   -0.84216E-05 32672   0.246E-02    0.487E-02
DAV:  14    -0.269294422540E+03   -0.44417E-05   -0.20956E-05 25880   0.178E-02
  32 F= -.26929442E+03 E0= -.26928504E+03  d E =-.209219E+00  mag=     4.0000
       N       E                     dE             d eps       ncg     rms          rms(c)
DAV:   1    -0.269431183043E+03   -0.13676E+00   -0.88016E+01 39312   0.323E+01    0.908E+00
DAV:   2    -0.269930446793E+03   -0.49926E+00   -0.55776E+00 47176   0.710E+00    0.107E+01
DAV:   3    -0.270547725001E+03   -0.61728E+00   -0.87350E+00 53960   0.655E+00    0.175E+01
DAV:   4    -0.269770145519E+03    0.77758E+00   -0.19221E+00 54488   0.413E+00    0.726E+00
DAV:   5    -0.269741475323E+03    0.28670E-01   -0.54532E-01 54008   0.180E+00    0.475E+00
DAV:   6    -0.269729156329E+03    0.12319E-01   -0.17312E-01 53688   0.116E+00    0.226E+00
DAV:   7    -0.269782804043E+03   -0.53648E-01   -0.46207E-01 54056   0.142E+00    0.622E+00
DAV:   8    -0.269724267649E+03    0.58536E-01   -0.35623E-01 53720   0.133E+00    0.208E+00
DAV:   9    -0.269736450512E+03   -0.12183E-01   -0.50128E-02 52744   0.736E-01    0.109E+00
DAV:  10    -0.269737827746E+03   -0.13772E-02   -0.97813E-03 54128   0.368E-01    0.955E-01
DAV:  11    -0.269736607026E+03    0.12207E-02   -0.12954E-02 54408   0.364E-01    0.937E-01
DAV:  12    -0.269735276116E+03    0.13309E-02   -0.12731E-02 53368   0.334E-01    0.546E-01
DAV:  13    -0.269736561981E+03   -0.12859E-02   -0.51673E-03 51400   0.205E-01    0.453E-01
DAV:  14    -0.269736604834E+03   -0.42853E-04   -0.14630E-03 54480   0.124E-01    0.293E-01
DAV:  15    -0.269736628523E+03   -0.23690E-04   -0.33197E-04 52808   0.656E-02    0.223E-01
DAV:  16    -0.269736586070E+03    0.42453E-04   -0.29916E-04 51880   0.714E-02    0.142E-01
DAV:  17    -0.269736582958E+03    0.31116E-05   -0.36761E-04 53024   0.606E-02    0.817E-02
DAV:  18    -0.269736622995E+03   -0.40036E-04   -0.18193E-04 35528   0.387E-02    0.700E-02
DAV:  19    -0.269736626120E+03   -0.31252E-05   -0.32204E-05 27448   0.203E-02
  33 F= -.26973663E+03 E0= -.26972656E+03  d E =-.442204E+00  mag=     4.0000
       N       E                     dE             d eps       ncg     rms          rms(c)
DAV:   1    -0.269813754529E+03   -0.77132E-01   -0.69806E+00 40320   0.886E+00    0.245E+00
DAV:   2    -0.269877758102E+03   -0.64004E-01   -0.60530E-01 47264   0.217E+00    0.555E+00
DAV:   3    -0.269862281876E+03    0.15476E-01   -0.88798E-01 53712   0.180E+00    0.463E+00
DAV:   4    -0.269845169003E+03    0.17113E-01   -0.26684E-01 52888   0.110E+00    0.323E+00
DAV:   5    -0.269831442189E+03    0.13727E-01   -0.12701E-01 53360   0.768E-01    0.949E-01
DAV:   6    -0.269843913693E+03   -0.12472E-01   -0.75190E-02 54344   0.592E-01    0.286E+00
DAV:   7    -0.269830965295E+03    0.12948E-01   -0.61798E-02 53136   0.561E-01    0.421E-01
DAV:   8    -0.269834547443E+03   -0.35821E-02   -0.65808E-03 51744   0.215E-01    0.435E-01
DAV:   9    -0.269834812646E+03   -0.26520E-03   -0.16104E-03 53632   0.130E-01    0.367E-01
DAV:  10    -0.269834759517E+03    0.53129E-04   -0.67590E-04 53632   0.941E-02    0.288E-01
DAV:  11    -0.269834687365E+03    0.72152E-04   -0.50184E-04 54488   0.988E-02    0.198E-01
DAV:  12    -0.269834651429E+03    0.35936E-04   -0.46562E-04 53032   0.699E-02    0.763E-02
DAV:  13    -0.269834693694E+03   -0.42265E-04   -0.16241E-04 34448   0.395E-02    0.950E-02
DAV:  14    -0.269834689651E+03    0.40424E-05   -0.66739E-05 30160   0.258E-02
  34 F= -.26983469E+03 E0= -.26982472E+03  d E =-.980635E-01  mag=     4.0000
       N       E                     dE             d eps       ncg     rms          rms(c)
DAV:   1    -0.269839943975E+03   -0.52503E-02   -0.33785E-01 40384   0.237E+00    0.224E-01
DAV:   2    -0.269841952885E+03   -0.20089E-02   -0.21750E-02 43136   0.460E-01    0.579E-01
DAV:   3    -0.269841378191E+03    0.57469E-03   -0.53633E-03 57376   0.195E-01    0.217E-01
DAV:   4    -0.269841751235E+03   -0.37304E-03   -0.31549E-03 53936   0.121E-01    0.567E-01
DAV:   5    -0.269841224937E+03    0.52630E-03   -0.23863E-03 54464   0.106E-01    0.776E-02
DAV:   6    -0.269841484673E+03   -0.25974E-03   -0.14931E-03 53328   0.749E-02    0.381E-01
DAV:   7    -0.269841249146E+03    0.23553E-03   -0.13012E-03 51144   0.740E-02    0.491E-02
DAV:   8    -0.269841297234E+03   -0.48088E-04   -0.42087E-05 29344   0.299E-02    0.409E-02
DAV:   9    -0.269841300039E+03   -0.28043E-05   -0.27642E-05 24176   0.209E-02
  35 F= -.26984130E+03 E0= -.26983133E+03  d E =-.661039E-02  mag=     4.0000
       N       E                     dE             d eps       ncg     rms          rms(c)
DAV:   1    -0.269841105812E+03    0.19142E-03   -0.21096E+00 40320   0.576E+00    0.537E-01
DAV:   2    -0.269853496374E+03   -0.12391E-01   -0.13357E-01 43144   0.113E+00    0.143E+00
DAV:   3    -0.269850088722E+03    0.34077E-02   -0.40549E-02 56776   0.514E-01    0.595E-01
DAV:   4    -0.269849892940E+03    0.19578E-03   -0.53082E-03 53784   0.224E-01    0.507E-01
DAV:   5    -0.269849735636E+03    0.15730E-03   -0.56834E-03 54408   0.149E-01    0.434E-01
DAV:   6    -0.269849449498E+03    0.28614E-03   -0.18638E-03 54976   0.142E-01    0.115E-01
DAV:   7    -0.269849572160E+03   -0.12266E-03   -0.10926E-03 55736   0.937E-02    0.306E-01
DAV:   8    -0.269849422988E+03    0.14917E-03   -0.73067E-04 39672   0.589E-02    0.677E-02
DAV:   9    -0.269849459944E+03   -0.36955E-04   -0.10284E-04 31896   0.325E-02    0.563E-02
DAV:  10    -0.269849464311E+03   -0.43670E-05   -0.25030E-05 25992   0.166E-02
  36 F= -.26984946E+03 E0= -.26983948E+03  d E =-.816427E-02  mag=     4.0000
       N       E                     dE             d eps       ncg     rms          rms(c)
DAV:   1    -0.269846830985E+03    0.26290E-02   -0.38916E-01 40352   0.258E+00    0.225E-01
DAV:   2    -0.269848851151E+03   -0.20202E-02   -0.22527E-02 40440   0.473E-01    0.420E-01
DAV:   3    -0.269848830208E+03    0.20943E-04   -0.63879E-03 57816   0.198E-01    0.429E-01
DAV:   4    -0.269848852867E+03   -0.22659E-04   -0.34538E-03 53168   0.130E-01    0.490E-01
DAV:   5    -0.269848472633E+03    0.38023E-03   -0.17990E-03 54080   0.102E-01    0.722E-02
DAV:   6    -0.269848659268E+03   -0.18664E-03   -0.10743E-03 53184   0.690E-02    0.322E-01
DAV:   7    -0.269848493638E+03    0.16563E-03   -0.92072E-04 42960   0.625E-02    0.492E-02
DAV:   8    -0.269848519020E+03   -0.25382E-04   -0.30026E-05 30232   0.332E-02    0.388E-02
DAV:   9    -0.269848521159E+03   -0.21391E-05   -0.41029E-05 24168   0.198E-02
  37 F= -.26984852E+03 E0= -.26983852E+03  d E =0.943152E-03  mag=     4.0000
       N       E                     dE             d eps       ncg     rms          rms(c)
DAV:   1    -0.269824267806E+03    0.24251E-01   -0.34745E+00 40320   0.765E+00    0.528E-01
DAV:   2    -0.269841344146E+03   -0.17076E-01   -0.18618E-01 40336   0.137E+00    0.116E+00
DAV:   3    -0.269839772153E+03    0.15720E-02   -0.34766E-02 56616   0.473E-01    0.714E-01
DAV:   4    -0.269840084536E+03   -0.31238E-03   -0.13949E-02 53800   0.271E-01    0.980E-01
DAV:   5    -0.269838592305E+03    0.14922E-02   -0.97481E-03 54800   0.203E-01    0.207E-01
DAV:   6    -0.269839566431E+03   -0.97413E-03   -0.65015E-03 54952   0.175E-01    0.866E-01
DAV:   7    -0.269838387437E+03    0.11790E-02   -0.52909E-03 54792   0.158E-01    0.150E-01
DAV:   8    -0.269838620416E+03   -0.23298E-03   -0.44246E-04 47752   0.598E-02    0.933E-02
DAV:   9    -0.269838670695E+03   -0.50279E-04   -0.22546E-04 33104   0.319E-02    0.104E-01
DAV:  10    -0.269838676287E+03   -0.55925E-05   -0.58874E-05 29992   0.255E-02
  38 F= -.26983868E+03 E0= -.26982868E+03  d E =0.984487E-02  mag=     4.0000
       N       E                     dE             d eps       ncg     rms          rms(c)
DAV:   1    -0.269834274270E+03    0.43964E-02   -0.51895E-01 40320   0.271E+00    0.190E-01
DAV:   2    -0.269837069832E+03   -0.27956E-02   -0.26510E-02 44592   0.494E-01    0.972E-01
DAV:   3    -0.269835624171E+03    0.14457E-02   -0.93964E-03 53688   0.214E-01    0.140E-01
DAV:   4    -0.269835993163E+03   -0.36899E-03   -0.14190E-03 53184   0.984E-02    0.313E-01
DAV:   5    -0.269835810739E+03    0.18242E-03   -0.12071E-03 52424   0.862E-02    0.100E-01
DAV:   6    -0.269835894463E+03   -0.83724E-04   -0.61333E-04 35024   0.549E-02    0.243E-01
DAV:   7    -0.269835786455E+03    0.10801E-03   -0.45050E-04 49368   0.603E-02    0.364E-02
DAV:   8    -0.269835808513E+03   -0.22058E-04   -0.45117E-05 29912   0.263E-02    0.422E-02
DAV:   9    -0.269835809986E+03   -0.14732E-05   -0.19728E-05 22768   0.186E-02
  39 F= -.26983581E+03 E0= -.26982582E+03  d E =0.286630E-02  mag=     4.0000
       N       E                     dE             d eps       ncg     rms          rms(c)
DAV:   1    -0.269781712044E+03    0.54096E-01   -0.14027E+01 40320   0.134E+01    0.789E-01
DAV:   2    -0.269825231117E+03   -0.43519E-01   -0.45938E-01 40408   0.222E+00    0.168E+00
DAV:   3    -0.269823957431E+03    0.12737E-02   -0.82512E-02 54408   0.661E-01    0.146E+00
DAV:   4    -0.269821893944E+03    0.20635E-02   -0.29538E-02 54096   0.412E-01    0.104E+00
DAV:   5    -0.269820210107E+03    0.16838E-02   -0.12093E-02 54864   0.259E-01    0.347E-01
DAV:   6    -0.269822231840E+03   -0.20217E-02   -0.17374E-02 54264   0.274E-01    0.139E+00
DAV:   7    -0.269818964720E+03    0.32671E-02   -0.11673E-02 53640   0.255E-01    0.204E-01
DAV:   8    -0.269819547802E+03   -0.58308E-03   -0.11327E-03 54072   0.113E-01    0.146E-01
DAV:   9    -0.269819796171E+03   -0.24837E-03   -0.95671E-04 53920   0.761E-02    0.208E-01
DAV:  10    -0.269819814387E+03   -0.18216E-04   -0.28951E-04 49016   0.594E-02    0.151E-01
DAV:  11    -0.269819822435E+03   -0.80479E-05   -0.79217E-05 35080   0.362E-02
  40 F= -.26981982E+03 E0= -.26981000E+03  d E =0.159876E-01  mag=     4.0000
       N       E                     dE             d eps       ncg     rms          rms(c)
DAV:   1    -0.269400116452E+03    0.41970E+00   -0.12417E+02 40320   0.391E+01    0.251E+00
DAV:   2    -0.269777647898E+03   -0.37753E+00   -0.40129E+00 40360   0.654E+00    0.439E+00
DAV:   3    -0.269803200911E+03   -0.25553E-01   -0.10097E+00 55000   0.210E+00    0.614E+00
DAV:   4    -0.269746891134E+03    0.56310E-01   -0.35313E-01 54984   0.136E+00    0.282E+00
DAV:   5    -0.269743905893E+03    0.29852E-02   -0.12170E-01 55072   0.762E-01    0.161E+00
DAV:   6    -0.269751474525E+03   -0.75686E-02   -0.97967E-02 53904   0.763E-01    0.293E+00
DAV:   7    -0.269737158899E+03    0.14316E-01   -0.94405E-02 53960   0.741E-01    0.946E-01
DAV:   8    -0.269736777703E+03    0.38120E-03   -0.11519E-02 53976   0.489E-01    0.501E-01
DAV:   9    -0.269737482653E+03   -0.70495E-03   -0.87911E-03 54304   0.236E-01    0.358E-01
DAV:  10    -0.269738144519E+03   -0.66187E-03   -0.27997E-03 53968   0.130E-01    0.357E-01
DAV:  11    -0.269738214878E+03   -0.70359E-04   -0.82186E-04 53912   0.922E-02    0.323E-01
DAV:  12    -0.269738064123E+03    0.15076E-03   -0.61639E-04 53464   0.106E-01    0.179E-01
DAV:  13    -0.269738025871E+03    0.38251E-04   -0.59432E-04 53368   0.120E-01    0.161E-01
DAV:  14    -0.269738146856E+03   -0.12098E-03   -0.36204E-04 49576   0.658E-02    0.146E-01
DAV:  15    -0.269738152267E+03   -0.54108E-05   -0.21399E-04 48696   0.608E-02    0.542E-02
DAV:  16    -0.269738159971E+03   -0.77045E-05   -0.50689E-05 34400   0.258E-02
  41 F= -.26973816E+03 E0= -.26972857E+03  d E =0.816625E-01  mag=     4.0000
       N       E                     dE             d eps       ncg     rms          rms(c)
DAV:   1    -0.269747996794E+03   -0.98445E-02   -0.10784E+01 40320   0.126E+01    0.142E+00
DAV:   2    -0.269793127672E+03   -0.45131E-01   -0.47217E-01 42768   0.232E+00    0.230E+00
DAV:   3    -0.269796204693E+03   -0.30770E-02   -0.22696E-01 54040   0.102E+00    0.292E+00
DAV:   4    -0.269787684883E+03    0.85198E-02   -0.93980E-02 53536   0.712E-01    0.185E+00
DAV:   5    -0.269783131491E+03    0.45534E-02   -0.38167E-02 54064   0.450E-01    0.628E-01
DAV:   6    -0.269787692505E+03   -0.45610E-02   -0.32437E-02 53464   0.378E-01    0.195E+00
DAV:   7    -0.269781960423E+03    0.57321E-02   -0.30020E-02 53264   0.368E-01    0.391E-01
DAV:   8    -0.269782746351E+03   -0.78593E-03   -0.21806E-03 52864   0.216E-01    0.268E-01
DAV:   9    -0.269783010500E+03   -0.26415E-03   -0.23184E-03 53968   0.126E-01    0.222E-01
DAV:  10    -0.269783166311E+03   -0.15581E-03   -0.77585E-04 51904   0.739E-02    0.179E-01
DAV:  11    -0.269783214802E+03   -0.48491E-04   -0.40559E-04 51784   0.605E-02    0.176E-01
DAV:  12    -0.269783190406E+03    0.24396E-04   -0.17121E-04 43440   0.515E-02    0.994E-02
DAV:  13    -0.269783195964E+03   -0.55579E-05   -0.13013E-04 40280   0.404E-02    0.593E-02
DAV:  14    -0.269783209673E+03   -0.13709E-04   -0.52985E-05 30712   0.277E-02    0.526E-02
DAV:  15    -0.269783210212E+03   -0.53882E-06   -0.29493E-05 28136   0.199E-02
  42 F= -.26978321E+03 E0= -.26977328E+03  d E =-.450502E-01  mag=     4.0000
       N       E                     dE             d eps       ncg     rms          rms(c)
DAV:   1    -0.269788517191E+03   -0.53075E-02   -0.88235E-01 39328   0.360E+00    0.712E-01
DAV:   2    -0.269792528539E+03   -0.40113E-02   -0.51755E-02 43560   0.798E-01    0.102E+00
DAV:   3    -0.269796408548E+03   -0.38800E-02   -0.75886E-02 53920   0.527E-01    0.203E+00
DAV:   4    -0.269790045958E+03    0.63626E-02   -0.29332E-02 54328   0.375E-01    0.261E-01
DAV:   5    -0.269791622564E+03   -0.15766E-02   -0.61663E-03 54152   0.184E-01    0.709E-01
DAV:   6    -0.269790915076E+03    0.70749E-03   -0.48296E-03 54056   0.166E-01    0.313E-01
DAV:   7    -0.269791037672E+03   -0.12260E-03   -0.24732E-03 54328   0.108E-01    0.278E-01
DAV:   8    -0.269790926165E+03    0.11151E-03   -0.75675E-04 53744   0.847E-02    0.976E-02
DAV:   9    -0.269790957939E+03   -0.31775E-04   -0.15720E-04 36392   0.346E-02    0.820E-02
DAV:  10    -0.269790963141E+03   -0.52019E-05   -0.26093E-05 27864   0.165E-02
  43 F= -.26979096E+03 E0= -.26978099E+03  d E =-.775293E-02  mag=     4.0000
       N       E                     dE             d eps       ncg     rms          rms(c)
DAV:   1    -0.269783634321E+03    0.73236E-02   -0.13448E+00 40320   0.405E+00    0.289E-01
DAV:   2    -0.269787752400E+03   -0.41181E-02   -0.43221E-02 40624   0.674E-01    0.665E-01
DAV:   3    -0.269787470934E+03    0.28147E-03   -0.11138E-02 54056   0.231E-01    0.527E-01
DAV:   4    -0.269787118307E+03    0.35263E-03   -0.22013E-03 54224   0.122E-01    0.206E-01
DAV:   5    -0.269787185401E+03   -0.67094E-04   -0.13469E-03 54392   0.792E-02    0.265E-01
DAV:   6    -0.269787158536E+03    0.26865E-04   -0.11925E-03 54064   0.851E-02    0.253E-01
DAV:   7    -0.269787056032E+03    0.10250E-03   -0.84754E-04 52400   0.690E-02    0.764E-02
DAV:   8    -0.269787061951E+03   -0.59195E-05   -0.44111E-05 32848   0.354E-02
  44 F= -.26978706E+03 E0= -.26977701E+03  d E =0.390119E-02  mag=     4.0000
       N       E                     dE             d eps       ncg     rms          rms(c)
DAV:   1    -0.268388766697E+03    0.13983E+01   -0.21667E+02 40320   0.648E+01    0.498E+00
DAV:   2    -0.269933003007E+03   -0.15442E+01   -0.16100E+01 41952   0.125E+01    0.121E+01
DAV:   3    -0.269623809027E+03    0.30919E+00   -0.15525E+00 53360   0.495E+00    0.783E+00
DAV:   4    -0.269546939578E+03    0.76869E-01   -0.71797E-01 53896   0.222E+00    0.265E+00
DAV:   5    -0.269585975039E+03   -0.39035E-01   -0.42225E-01 54304   0.140E+00    0.586E+00
DAV:   6    -0.269533507884E+03    0.52467E-01   -0.35068E-01 55176   0.124E+00    0.180E+00
DAV:   7    -0.269539334124E+03   -0.58262E-02   -0.68565E-02 55408   0.826E-01    0.226E+00
DAV:   8    -0.269535889299E+03    0.34448E-02   -0.93898E-02 54280   0.738E-01    0.184E+00
DAV:   9    -0.269532902731E+03    0.29866E-02   -0.33495E-02 54888   0.602E-01    0.136E+00
DAV:  10    -0.269534449955E+03   -0.15472E-02   -0.22654E-02 55904   0.396E-01    0.801E-01
DAV:  11    -0.269536886751E+03   -0.24368E-02   -0.17215E-02 53928   0.306E-01    0.959E-01
DAV:  12    -0.269536584408E+03    0.30234E-03   -0.50756E-03 53408   0.227E-01    0.536E-01
DAV:  13    -0.269536621558E+03   -0.37150E-04   -0.25927E-03 54168   0.161E-01    0.353E-01
DAV:  14    -0.269536594601E+03    0.26957E-04   -0.24157E-03 54032   0.163E-01    0.298E-01
DAV:  15    -0.269536594199E+03    0.40206E-06   -0.11137E-03 51320   0.943E-02    0.112E-01
DAV:  16    -0.269536668211E+03   -0.74011E-04   -0.43318E-04 53992   0.636E-02    0.120E-01
DAV:  17    -0.269536666623E+03    0.15881E-05   -0.15402E-04 39568   0.412E-02    0.608E-02
DAV:  18    -0.269536679735E+03   -0.13112E-04   -0.11366E-04 37560   0.303E-02    0.849E-02
DAV:  19    -0.269536678887E+03    0.84820E-06   -0.10919E-04 31304   0.321E-02    0.294E-02
DAV:  20    -0.269536685622E+03   -0.67355E-05   -0.26581E-05 27800   0.169E-02
  45 F= -.26953669E+03 E0= -.26952624E+03  d E =0.250376E+00  mag=     4.0000
       N       E                     dE             d eps       ncg     rms          rms(c)
DAV:   1    -0.269575668661E+03   -0.38990E-01   -0.20683E+01 40320   0.209E+01    0.335E+00
DAV:   2    -0.269758668710E+03   -0.18300E+00   -0.18674E+00 46288   0.464E+00    0.788E+00
DAV:   3    -0.269739870593E+03    0.18798E-01   -0.20190E+00 53528   0.254E+00    0.599E+00
DAV:   4    -0.269692141708E+03    0.47729E-01   -0.18278E-01 54072   0.150E+00    0.292E+00
DAV:   5    -0.269692495473E+03   -0.35377E-03   -0.20820E-01 54144   0.940E-01    0.285E+00
DAV:   6    -0.269698688273E+03   -0.61928E-02   -0.20479E-01 54328   0.901E-01    0.355E+00
DAV:   7    -0.269680428906E+03    0.18259E-01   -0.15175E-01 54664   0.789E-01    0.773E-01
DAV:   8    -0.269683334082E+03   -0.29052E-02   -0.15771E-02 54200   0.450E-01    0.933E-01
DAV:   9    -0.269683343178E+03   -0.90962E-05   -0.55651E-03 53376   0.234E-01    0.524E-01
DAV:  10    -0.269683483572E+03   -0.14039E-03   -0.14051E-03 53632   0.101E-01    0.383E-01
DAV:  11    -0.269683794791E+03   -0.31122E-03   -0.26794E-03 53856   0.144E-01    0.632E-01
DAV:  12    -0.269683417725E+03    0.37707E-03   -0.14645E-03 53064   0.104E-01    0.371E-01
DAV:  13    -0.269683445481E+03   -0.27756E-04   -0.10885E-03 52824   0.738E-02    0.141E-01
DAV:  14    -0.269683537287E+03   -0.91806E-04   -0.13676E-04 42000   0.421E-02    0.172E-01
DAV:  15    -0.269683514710E+03    0.22577E-04   -0.12679E-05 26112   0.167E-02    0.181E-01
DAV:  16    -0.269683512916E+03    0.17938E-05   -0.63364E-05 38752   0.384E-02
  46 F= -.26968351E+03 E0= -.26967284E+03  d E =-.146827E+00  mag=     4.0000
       N       E                     dE             d eps       ncg     rms          rms(c)
DAV:   1    -0.269690772131E+03   -0.72574E-02   -0.66860E-01 40464   0.317E+00    0.689E-01
DAV:   2    -0.269700465337E+03   -0.96932E-02   -0.87183E-02 50880   0.805E-01    0.238E+00
DAV:   3    -0.269692984220E+03    0.74811E-02   -0.72627E-02 52440   0.579E-01    0.998E-01
DAV:   4    -0.269693427901E+03   -0.44368E-03   -0.10545E-02 51752   0.279E-01    0.622E-01
DAV:   5    -0.269693070686E+03    0.35721E-03   -0.61503E-03 53728   0.167E-01    0.376E-01
DAV:   6    -0.269693218191E+03   -0.14750E-03   -0.35650E-03 53336   0.153E-01    0.435E-01
DAV:   7    -0.269692915811E+03    0.30238E-03   -0.32464E-03 54648   0.132E-01    0.208E-01
DAV:   8    -0.269692868627E+03    0.47184E-04   -0.41370E-04 54096   0.890E-02    0.918E-02
DAV:   9    -0.269692919604E+03   -0.50977E-04   -0.37800E-04 35456   0.450E-02    0.840E-02
DAV:  10    -0.269692941678E+03   -0.22074E-04   -0.86505E-05 30640   0.252E-02    0.726E-02
DAV:  11    -0.269692943862E+03   -0.21838E-05   -0.47110E-05 28416   0.215E-02
  47 F= -.26969294E+03 E0= -.26968225E+03  d E =-.943095E-02  mag=     4.0000
       N       E                     dE             d eps       ncg     rms          rms(c)
DAV:   1    -0.269702630433E+03   -0.96888E-02   -0.13004E+00 40320   0.502E+00    0.495E-01
DAV:   2    -0.269709817967E+03   -0.71875E-02   -0.76935E-02 41328   0.923E-01    0.756E-01
DAV:   3    -0.269710935974E+03   -0.11180E-02   -0.25034E-02 54536   0.367E-01    0.125E+00
DAV:   4    -0.269709869953E+03    0.10660E-02   -0.19735E-02 54496   0.288E-01    0.880E-01
DAV:   5    -0.269708857490E+03    0.10125E-02   -0.87613E-03 53184   0.212E-01    0.265E-01
DAV:   6    -0.269709192060E+03   -0.33457E-03   -0.25065E-03 54208   0.102E-01    0.440E-01
DAV:   7    -0.269708877416E+03    0.31464E-03   -0.14066E-03 53896   0.896E-02    0.203E-01
DAV:   8    -0.269708806961E+03    0.70455E-04   -0.20685E-04 54240   0.703E-02    0.153E-01
DAV:   9    -0.269708812630E+03   -0.56689E-05   -0.87182E-04 54368   0.838E-02    0.125E-01
DAV:  10    -0.269708876819E+03   -0.64189E-04   -0.29841E-04 43664   0.557E-02    0.119E-01
DAV:  11    -0.269708887450E+03   -0.10632E-04   -0.24117E-04 51632   0.584E-02    0.685E-02
DAV:  12    -0.269708891932E+03   -0.44817E-05   -0.56205E-05 34656   0.294E-02
  48 F= -.26970889E+03 E0= -.26969816E+03  d E =-.159481E-01  mag=     4.0000
       N       E                     dE             d eps       ncg     rms          rms(c)
DAV:   1    -0.269713313679E+03   -0.44262E-02   -0.19489E-01 40352   0.207E+00    0.307E-01
DAV:   2    -0.269715420567E+03   -0.21069E-02   -0.20570E-02 47280   0.453E-01    0.922E-01
DAV:   3    -0.269714626041E+03    0.79453E-03   -0.16124E-02 53160   0.252E-01    0.566E-01
DAV:   4    -0.269714609498E+03    0.16543E-04   -0.30283E-03 52816   0.152E-01    0.379E-01
DAV:   5    -0.269714385172E+03    0.22433E-03   -0.16834E-03 53784   0.102E-01    0.136E-01
DAV:   6    -0.269714550459E+03   -0.16529E-03   -0.13683E-03 48736   0.782E-02    0.344E-01
DAV:   7    -0.269714358469E+03    0.19199E-03   -0.11844E-03 48184   0.752E-02    0.774E-02
DAV:   8    -0.269714375636E+03   -0.17167E-04   -0.83908E-05 36448   0.461E-02    0.361E-02
DAV:   9    -0.269714392826E+03   -0.17190E-04   -0.80707E-05 29008   0.259E-02    0.439E-02
DAV:  10    -0.269714395929E+03   -0.31027E-05   -0.13146E-05 22664   0.116E-02
  49 F= -.26971440E+03 E0= -.26970364E+03  d E =-.550400E-02  mag=     4.0000
       N       E                     dE             d eps       ncg     rms          rms(c)
DAV:   1    -0.269720069609E+03   -0.56768E-02   -0.29991E-01 40320   0.262E+00    0.178E-01
DAV:   2    -0.269721914490E+03   -0.18449E-02   -0.20373E-02 40880   0.479E-01    0.175E-01
DAV:   3    -0.269722317481E+03   -0.40299E-03   -0.40833E-03 54304   0.145E-01    0.567E-01
DAV:   4    -0.269721849598E+03    0.46788E-03   -0.25688E-03 54672   0.108E-01    0.190E-01
DAV:   5    -0.269721883838E+03   -0.34240E-04   -0.46352E-04 35904   0.544E-02    0.112E-01
DAV:   6    -0.269721873434E+03    0.10404E-04   -0.16037E-04 42808   0.434E-02    0.104E-01
DAV:   7    -0.269721879887E+03   -0.64531E-05   -0.31569E-04 32776   0.365E-02    0.153E-01
DAV:   8    -0.269721831043E+03    0.48845E-04   -0.16239E-04 33800   0.423E-02    0.524E-02
DAV:   9    -0.269721843724E+03   -0.12682E-04   -0.14851E-04 34288   0.304E-02    0.503E-02
DAV:  10    -0.269721856414E+03   -0.12690E-04   -0.44532E-05 26976   0.226E-02    0.519E-02
DAV:  11    -0.269721858087E+03   -0.16724E-05   -0.24683E-05 26936   0.202E-02
  50 F= -.26972186E+03 E0= -.26971109E+03  d E =-.746216E-02  mag=     4.0000
       N       E                     dE             d eps       ncg     rms          rms(c)
DAV:   1    -0.269720330647E+03    0.15258E-02   -0.50002E+00 40320   0.103E+01    0.603E-01
DAV:   2    -0.269747698674E+03   -0.27368E-01   -0.29584E-01 41096   0.181E+00    0.940E-01
DAV:   3    -0.269750168921E+03   -0.24702E-02   -0.51831E-02 55192   0.525E-01    0.163E+00
DAV:   4    -0.269747489082E+03    0.26798E-02   -0.26180E-02 56136   0.361E-01    0.101E+00
DAV:   5    -0.269746275664E+03    0.12134E-02   -0.87905E-03 54016   0.241E-01    0.327E-01
DAV:   6    -0.269746567062E+03   -0.29140E-03   -0.33823E-03 54416   0.150E-01    0.563E-01
DAV:   7    -0.269746136324E+03    0.43074E-03   -0.47130E-03 55080   0.140E-01    0.362E-01
DAV:   8    -0.269745896343E+03    0.23998E-03   -0.97136E-04 53856   0.126E-01    0.160E-01
DAV:   9    -0.269746051366E+03   -0.15502E-03   -0.16238E-03 55208   0.988E-02    0.175E-01
DAV:  10    -0.269746136170E+03   -0.84804E-04   -0.42151E-04 51056   0.773E-02    0.156E-01
DAV:  11    -0.269746156284E+03   -0.20114E-04   -0.32096E-04 54104   0.642E-02    0.106E-01
DAV:  12    -0.269746155402E+03    0.88188E-06   -0.13085E-04 40936   0.431E-02    0.468E-02
DAV:  13    -0.269746165750E+03   -0.10348E-04   -0.68831E-05 37832   0.285E-02    0.264E-02
DAV:  14    -0.269746176012E+03   -0.10262E-04   -0.25279E-05 26056   0.175E-02    0.309E-02
DAV:  15    -0.269746176485E+03   -0.47228E-06   -0.53023E-06 22336   0.818E-03
  51 F= -.26974618E+03 E0= -.26973540E+03  d E =-.243184E-01  mag=     4.0000
       N       E                     dE             d eps       ncg     rms          rms(c)
DAV:   1    -0.269746426475E+03   -0.25046E-03   -0.26941E+00 39816   0.669E+00    0.369E-01
DAV:   2    -0.269757776675E+03   -0.11350E-01   -0.11924E-01 42280   0.114E+00    0.794E-01
DAV:   3    -0.269757861432E+03   -0.84757E-04   -0.18946E-02 57112   0.320E-01    0.855E-01
DAV:   4    -0.269757216713E+03    0.64472E-03   -0.70980E-03 54896   0.202E-01    0.525E-01
DAV:   5    -0.269756884559E+03    0.33215E-03   -0.36026E-03 54040   0.144E-01    0.243E-01
DAV:   6    -0.269757112594E+03   -0.22803E-03   -0.25131E-03 54264   0.105E-01    0.467E-01
DAV:   7    -0.269756662379E+03    0.45022E-03   -0.24385E-03 55704   0.118E-01    0.158E-01
DAV:   8    -0.269756671986E+03   -0.96078E-05   -0.34304E-04 54320   0.604E-02    0.794E-02
DAV:   9    -0.269756719937E+03   -0.47951E-04   -0.31357E-04 33848   0.348E-02    0.878E-02
DAV:  10    -0.269756736525E+03   -0.16587E-04   -0.10513E-04 34152   0.353E-02    0.732E-02
DAV:  11    -0.269756737710E+03   -0.11849E-05   -0.67490E-05 36512   0.301E-02
  52 F= -.26975674E+03 E0= -.26974602E+03  d E =-.105612E-01  mag=     4.0000
       N       E                     dE             d eps       ncg     rms          rms(c)
DAV:   1    -0.269733724512E+03    0.23012E-01   -0.84286E+00 39816   0.105E+01    0.573E-01
DAV:   2    -0.269762140611E+03   -0.28416E-01   -0.29807E-01 42336   0.177E+00    0.104E+00
DAV:   3    -0.269762851962E+03   -0.71135E-03   -0.36619E-02 55344   0.451E-01    0.132E+00
DAV:   4    -0.269760490185E+03    0.23618E-02   -0.14723E-02 54768   0.303E-01    0.614E-01
DAV:   5    -0.269760418730E+03    0.71455E-04   -0.52296E-03 54296   0.174E-01    0.473E-01
DAV:   6    -0.269760620724E+03   -0.20199E-03   -0.52342E-03 54512   0.152E-01    0.688E-01
DAV:   7    -0.269759700741E+03    0.91998E-03   -0.68813E-03 54832   0.189E-01    0.367E-01
DAV:   8    -0.269759484315E+03    0.21643E-03   -0.15147E-03 55320   0.132E-01    0.128E-01
DAV:   9    -0.269759687239E+03   -0.20292E-03   -0.10451E-03 54928   0.799E-02    0.163E-01
DAV:  10    -0.269759720649E+03   -0.33410E-04   -0.28276E-04 54712   0.676E-02    0.139E-01
DAV:  11    -0.269759730026E+03   -0.93772E-05   -0.13301E-04 44624   0.470E-02    0.974E-02
DAV:  12    -0.269759725238E+03    0.47885E-05   -0.88942E-05 40488   0.412E-02
  53 F= -.26975973E+03 E0= -.26974917E+03  d E =-.298753E-02  mag=     4.0000
       N       E                     dE             d eps       ncg     rms          rms(c)
DAV:   1    -0.269752349367E+03    0.73807E-02   -0.62568E-01 40320   0.334E+00    0.245E-01
DAV:   2    -0.269755912537E+03   -0.35632E-02   -0.38156E-02 40376   0.612E-01    0.642E-01
DAV:   3    -0.269755377093E+03    0.53544E-03   -0.63953E-03 55384   0.175E-01    0.265E-01
DAV:   4    -0.269755641774E+03   -0.26468E-03   -0.25372E-03 53776   0.121E-01    0.440E-01
DAV:   5    -0.269755310339E+03    0.33143E-03   -0.17607E-03 54344   0.994E-02    0.140E-01
DAV:   6    -0.269755473246E+03   -0.16291E-03   -0.13077E-03 40840   0.744E-02    0.320E-01
DAV:   7    -0.269755286275E+03    0.18697E-03   -0.92780E-04 55096   0.780E-02    0.624E-02
DAV:   8    -0.269755320906E+03   -0.34631E-04   -0.65261E-05 31168   0.335E-02    0.425E-02
DAV:   9    -0.269755325415E+03   -0.45087E-05   -0.32741E-05 24304   0.218E-02
  54 F= -.26975533E+03 E0= -.26974477E+03  d E =0.439982E-02  mag=     4.0000
       N       E                     dE             d eps       ncg     rms          rms(c)
DAV:   1    -0.269752592484E+03    0.27284E-02   -0.25483E-01 40320   0.219E+00    0.139E-01
DAV:   2    -0.269753997988E+03   -0.14055E-02   -0.14330E-02 41352   0.386E-01    0.466E-01
DAV:   3    -0.269753768575E+03    0.22941E-03   -0.33993E-03 54984   0.133E-01    0.247E-01
DAV:   4    -0.269753760368E+03    0.82066E-05   -0.52398E-04 49272   0.647E-02    0.148E-01
DAV:   5    -0.269753734046E+03    0.26322E-04   -0.33598E-04 34184   0.432E-02    0.960E-02
DAV:   6    -0.269753756142E+03   -0.22096E-04   -0.31449E-04 33552   0.415E-02    0.177E-01
DAV:   7    -0.269753706265E+03    0.49878E-04   -0.33864E-04 34528   0.446E-02    0.723E-02
DAV:   8    -0.269753705559E+03    0.70610E-06   -0.73719E-05 32336   0.305E-02
  55 F= -.26975371E+03 E0= -.26974307E+03  d E =0.161986E-02  mag=     4.0000
       N       E                     dE             d eps       ncg     rms          rms(c)
DAV:   1    -0.269745689747E+03    0.80165E-02   -0.65650E-01 40320   0.336E+00    0.244E-01
DAV:   2    -0.269748911485E+03   -0.32217E-02   -0.35435E-02 40520   0.583E-01    0.504E-01
DAV:   3    -0.269748939554E+03   -0.28068E-04   -0.85880E-03 54968   0.199E-01    0.553E-01
DAV:   4    -0.269748764762E+03    0.17479E-03   -0.37974E-03 53936   0.135E-01    0.410E-01
DAV:   5    -0.269748517207E+03    0.24755E-03   -0.16386E-03 54112   0.986E-02    0.124E-01
DAV:   6    -0.269748738400E+03   -0.22119E-03   -0.15949E-03 49592   0.800E-02    0.392E-01
DAV:   7    -0.269748469243E+03    0.26916E-03   -0.13026E-03 55584   0.846E-02    0.606E-02
DAV:   8    -0.269748518907E+03   -0.49665E-04   -0.64919E-05 31560   0.389E-02    0.518E-02
DAV:   9    -0.269748527852E+03   -0.89452E-05   -0.59926E-05 28704   0.264E-02
  56 F= -.26974853E+03 E0= -.26973788E+03  d E =0.517771E-02  mag=     4.0000
       N       E                     dE             d eps       ncg     rms          rms(c)
DAV:   1    -0.269718979490E+03    0.29539E-01   -0.40467E+00 39312   0.773E+00    0.589E-01
DAV:   2    -0.269740105602E+03   -0.21126E-01   -0.21923E-01 41208   0.138E+00    0.196E+00
DAV:   3    -0.269735407789E+03    0.46978E-02   -0.57657E-02 54112   0.536E-01    0.872E-01
DAV:   4    -0.269735704750E+03   -0.29696E-03   -0.91741E-03 53816   0.256E-01    0.670E-01
DAV:   5    -0.269735065842E+03    0.63891E-03   -0.58201E-03 53976   0.188E-01    0.328E-01
DAV:   6    -0.269735986268E+03   -0.92043E-03   -0.77762E-03 55376   0.184E-01    0.856E-01
DAV:   7    -0.269734677767E+03    0.13085E-02   -0.70663E-03 55352   0.184E-01    0.139E-01
DAV:   8    -0.269734876627E+03   -0.19886E-03   -0.31353E-04 52312   0.807E-02    0.103E-01
DAV:   9    -0.269734915567E+03   -0.38940E-04   -0.34371E-04 37976   0.525E-02    0.817E-02
DAV:  10    -0.269734944554E+03   -0.28987E-04   -0.10210E-04 32272   0.329E-02    0.819E-02
DAV:  11    -0.269734949962E+03   -0.54076E-05   -0.53430E-05 30744   0.244E-02
  57 F= -.26973495E+03 E0= -.26972439E+03  d E =0.135779E-01  mag=     4.0000
       N       E                     dE             d eps       ncg     rms          rms(c)
DAV:   1    -0.269656213626E+03    0.78731E-01   -0.14957E+01 39312   0.145E+01    0.114E+00
DAV:   2    -0.269720836914E+03   -0.64623E-01   -0.69294E-01 41008   0.252E+00    0.248E+00
DAV:   3    -0.269719268166E+03    0.15687E-02   -0.17036E-01 54264   0.902E-01    0.247E+00
DAV:   4    -0.269711602812E+03    0.76654E-02   -0.48261E-02 54384   0.510E-01    0.928E-01
DAV:   5    -0.269712386378E+03   -0.78357E-03   -0.20013E-02 53984   0.290E-01    0.814E-01
DAV:   6    -0.269711366305E+03    0.10201E-02   -0.55167E-03 55688   0.281E-01    0.348E-01
DAV:   7    -0.269712131102E+03   -0.76480E-03   -0.93173E-03 54048   0.232E-01    0.721E-01
DAV:   8    -0.269711173218E+03    0.95788E-03   -0.48577E-03 54520   0.183E-01    0.170E-01
DAV:   9    -0.269711364310E+03   -0.19109E-03   -0.62877E-04 53288   0.684E-02    0.129E-01
DAV:  10    -0.269711397004E+03   -0.32694E-04   -0.13055E-04 33456   0.359E-02    0.122E-01
DAV:  11    -0.269711403806E+03   -0.68022E-05   -0.16478E-04 44608   0.385E-02    0.121E-01
DAV:  12    -0.269711378963E+03    0.24843E-04   -0.95770E-05 34424   0.372E-02    0.521E-02
DAV:  13    -0.269711390400E+03   -0.11438E-04   -0.70984E-05 36688   0.227E-02    0.375E-02
DAV:  14    -0.269711394445E+03   -0.40450E-05   -0.20021E-05 24200   0.192E-02
  58 F= -.26971139E+03 E0= -.26970083E+03  d E =0.235555E-01  mag=     4.0000
       N       E                     dE             d eps       ncg     rms          rms(c)
DAV:   1    -0.269704882714E+03    0.65077E-02   -0.26881E+00 40320   0.661E+00    0.109E+00
DAV:   2    -0.269723464958E+03   -0.18582E-01   -0.19533E-01 45136   0.137E+00    0.228E+00
DAV:   3    -0.269720947243E+03    0.25177E-02   -0.14446E-01 54256   0.752E-01    0.198E+00
DAV:   4    -0.269717385683E+03    0.35616E-02   -0.35705E-02 52344   0.456E-01    0.117E+00
DAV:   5    -0.269716047369E+03    0.13383E-02   -0.10942E-02 53968   0.249E-01    0.517E-01
DAV:   6    -0.269716357821E+03   -0.31045E-03   -0.42742E-03 54120   0.168E-01    0.630E-01
DAV:   7    -0.269715648868E+03    0.70895E-03   -0.50521E-03 54192   0.176E-01    0.421E-01
DAV:   8    -0.269715307562E+03    0.34131E-03   -0.30480E-03 53880   0.185E-01    0.222E-01
DAV:   9    -0.269715998840E+03   -0.69128E-03   -0.31619E-03 52640   0.127E-01    0.272E-01
DAV:  10    -0.269716118492E+03   -0.11965E-03   -0.77863E-04 52544   0.104E-01    0.206E-01
DAV:  11    -0.269716142769E+03   -0.24277E-04   -0.38378E-04 54344   0.713E-02    0.141E-01
DAV:  12    -0.269716164477E+03   -0.21708E-04   -0.16154E-04 37104   0.418E-02    0.102E-01
DAV:  13    -0.269716168923E+03   -0.44462E-05   -0.71755E-05 36440   0.293E-02
  59 F= -.26971617E+03 E0= -.26970537E+03  d E =-.477448E-02  mag=     4.0000
       N       E                     dE             d eps       ncg     rms          rms(c)
DAV:   1    -0.269722463574E+03   -0.62991E-02   -0.20668E+00 39312   0.557E+00    0.702E-01
DAV:   2    -0.269732220217E+03   -0.97566E-02   -0.10663E-01 42040   0.104E+00    0.867E-01
DAV:   3    -0.269735597872E+03   -0.33777E-02   -0.49480E-02 55256   0.488E-01    0.188E+00
DAV:   4    -0.269730842091E+03    0.47558E-02   -0.26711E-02 53928   0.359E-01    0.759E-01
DAV:   5    -0.269730782298E+03    0.59793E-04   -0.54309E-03 53504   0.182E-01    0.419E-01
DAV:   6    -0.269731124961E+03   -0.34266E-03   -0.41306E-03 53800   0.125E-01    0.647E-01
DAV:   7    -0.269730416963E+03    0.70800E-03   -0.35512E-03 54448   0.135E-01    0.301E-01
DAV:   8    -0.269730345219E+03    0.71744E-04   -0.21308E-03 55696   0.151E-01    0.190E-01
DAV:   9    -0.269730720417E+03   -0.37520E-03   -0.15923E-03 53016   0.113E-01    0.203E-01
DAV:  10    -0.269730760827E+03   -0.40410E-04   -0.34001E-04 50336   0.728E-02    0.165E-01
DAV:  11    -0.269730766457E+03   -0.56296E-05   -0.22080E-04 51536   0.566E-02    0.101E-01
DAV:  12    -0.269730771555E+03   -0.50983E-05   -0.10772E-04 36440   0.393E-02    0.569E-02
DAV:  13    -0.269730775930E+03   -0.43753E-05   -0.40224E-05 35184   0.235E-02
  60 F= -.26973078E+03 E0= -.26972012E+03  d E =-.146070E-01  mag=     4.0000
       N       E                     dE             d eps       ncg     rms          rms(c)
DAV:   1    -0.269723591563E+03    0.71800E-02   -0.88647E-01 39312   0.347E+00    0.252E-01
DAV:   2    -0.269727050824E+03   -0.34593E-02   -0.36499E-02 40616   0.597E-01    0.608E-01
DAV:   3    -0.269726804841E+03    0.24598E-03   -0.93419E-03 55072   0.208E-01    0.474E-01
DAV:   4    -0.269726782914E+03    0.21927E-04   -0.34432E-03 54336   0.131E-01    0.429E-01
DAV:   5    -0.269726502295E+03    0.28062E-03   -0.16079E-03 54032   0.970E-02    0.140E-01
DAV:   6    -0.269726619958E+03   -0.11766E-03   -0.95422E-04 38544   0.646E-02    0.270E-01
DAV:   7    -0.269726480136E+03    0.13982E-03   -0.67121E-04 51048   0.677E-02    0.750E-02
DAV:   8    -0.269726480716E+03   -0.57944E-06   -0.63065E-05 35072   0.423E-02
  61 F= -.26972648E+03 E0= -.26971594E+03  d E =0.429521E-02  mag=     4.0000
       N       E                     dE             d eps       ncg     rms          rms(c)
DAV:   1    -0.269720059631E+03    0.64205E-02   -0.16153E+00 40320   0.441E+00    0.341E-01
DAV:   2    -0.269724850591E+03   -0.47910E-02   -0.49746E-02 41232   0.715E-01    0.686E-01
DAV:   3    -0.269725086946E+03   -0.23636E-03   -0.17819E-02 54720   0.277E-01    0.850E-01
DAV:   4    -0.269724176125E+03    0.91082E-03   -0.52638E-03 53072   0.167E-01    0.374E-01
DAV:   5    -0.269724133168E+03    0.42957E-04   -0.14519E-03 54088   0.844E-02    0.207E-01
DAV:   6    -0.269724195025E+03   -0.61857E-04   -0.78711E-04 49496   0.689E-02    0.278E-01
DAV:   7    -0.269724046934E+03    0.14809E-03   -0.89392E-04 52272   0.761E-02    0.159E-01
DAV:   8    -0.269723998267E+03    0.48667E-04   -0.36869E-04 53960   0.669E-02    0.785E-02
DAV:   9    -0.269724054934E+03   -0.56666E-04   -0.36396E-04 35096   0.505E-02    0.848E-02
DAV:  10    -0.269724072966E+03   -0.18032E-04   -0.10200E-04 40256   0.403E-02    0.734E-02
DAV:  11    -0.269724076027E+03   -0.30605E-05   -0.44444E-05 33120   0.246E-02
  62 F= -.26972408E+03 E0= -.26971345E+03  d E =0.240469E-02  mag=     4.0000
       N       E                     dE             d eps       ncg     rms          rms(c)
DAV:   1    -0.269565481871E+03    0.15859E+00   -0.40488E+01 39816   0.223E+01    0.202E+00
DAV:   2    -0.269691371229E+03   -0.12589E+00   -0.13358E+00 40336   0.373E+00    0.272E+00
DAV:   3    -0.269723806094E+03   -0.32435E-01   -0.60541E-01 54536   0.148E+00    0.531E+00
DAV:   4    -0.269674197262E+03    0.49609E-01   -0.18684E-01 53832   0.104E+00    0.120E+00
DAV:   5    -0.269682181419E+03   -0.79842E-02   -0.55314E-02 53168   0.500E-01    0.176E+00
DAV:   6    -0.269678131329E+03    0.40501E-02   -0.28132E-02 54312   0.454E-01    0.110E+00
DAV:   7    -0.269677163054E+03    0.96827E-03   -0.23775E-02 53680   0.376E-01    0.898E-01
DAV:   8    -0.269675972790E+03    0.11903E-02   -0.54605E-03 54216   0.257E-01    0.485E-01
DAV:   9    -0.269676776507E+03   -0.80372E-03   -0.10394E-02 54352   0.203E-01    0.469E-01
DAV:  10    -0.269677364544E+03   -0.58804E-03   -0.27713E-03 52488   0.165E-01    0.337E-01
DAV:  11    -0.269677488609E+03   -0.12406E-03   -0.99837E-04 54160   0.103E-01    0.317E-01
DAV:  12    -0.269677495466E+03   -0.68574E-05   -0.50581E-04 53912   0.801E-02    0.204E-01
DAV:  13    -0.269677490922E+03    0.45441E-05   -0.58397E-04 53160   0.989E-02    0.103E-01
DAV:  14    -0.269677546848E+03   -0.55926E-04   -0.43248E-04 54048   0.581E-02    0.152E-01
DAV:  15    -0.269677524280E+03    0.22568E-04   -0.95195E-05 34024   0.331E-02    0.829E-02
DAV:  16    -0.269677522733E+03    0.15470E-05   -0.76169E-05 33456   0.254E-02
  63 F= -.26967752E+03 E0= -.26966655E+03  d E =0.465533E-01  mag=     4.0000
       N       E                     dE             d eps       ncg     rms          rms(c)
DAV:   1    -0.269690077326E+03   -0.12553E-01   -0.55728E+00 40320   0.911E+00    0.170E+00
DAV:   2    -0.269730505275E+03   -0.40428E-01   -0.40508E-01 47120   0.191E+00    0.368E+00
DAV:   3    -0.269726280266E+03    0.42250E-02   -0.38252E-01 53480   0.126E+00    0.362E+00
DAV:   4    -0.269716215673E+03    0.10065E-01   -0.16027E-01 52736   0.784E-01    0.248E+00
DAV:   5    -0.269709482233E+03    0.67334E-02   -0.56165E-02 52712   0.493E-01    0.691E-01
DAV:   6    -0.269713628701E+03   -0.41465E-02   -0.28131E-02 53280   0.373E-01    0.149E+00
DAV:   7    -0.269709381460E+03    0.42472E-02   -0.21934E-02 53952   0.367E-01    0.341E-01
DAV:   8    -0.269710342051E+03   -0.96059E-03   -0.38456E-03 53968   0.176E-01    0.314E-01
DAV:   9    -0.269710694022E+03   -0.35197E-03   -0.18768E-03 53240   0.128E-01    0.268E-01
DAV:  10    -0.269710764522E+03   -0.70501E-04   -0.53498E-04 53376   0.776E-02    0.225E-01
DAV:  11    -0.269710773567E+03   -0.90448E-05   -0.51350E-04 53128   0.718E-02    0.183E-01
DAV:  12    -0.269710752193E+03    0.21374E-04   -0.29939E-04 46120   0.546E-02    0.106E-01
DAV:  13    -0.269710781285E+03   -0.29092E-04   -0.26646E-04 42448   0.436E-02    0.838E-02
DAV:  14    -0.269710792869E+03   -0.11584E-04   -0.52183E-05 31408   0.263E-02    0.501E-02
DAV:  15    -0.269710790537E+03    0.23320E-05   -0.28847E-05 30032   0.221E-02
  64 F= -.26971079E+03 E0= -.26970002E+03  d E =-.332678E-01  mag=     4.0000
       N       E                     dE             d eps       ncg     rms          rms(c)
DAV:   1    -0.269708793570E+03    0.19993E-02   -0.12050E+00 40320   0.388E+00    0.325E-01
DAV:   2    -0.269712222217E+03   -0.34286E-02   -0.36819E-02 40784   0.638E-01    0.231E-01
DAV:   3    -0.269713403165E+03   -0.11809E-02   -0.11669E-02 55024   0.225E-01    0.990E-01
DAV:   4    -0.269711818922E+03    0.15842E-02   -0.75630E-03 54048   0.178E-01    0.215E-01
DAV:   5    -0.269712061854E+03   -0.24293E-03   -0.10741E-03 52176   0.760E-02    0.214E-01
DAV:   6    -0.269712128463E+03   -0.66609E-04   -0.14724E-03 53872   0.850E-02    0.368E-01
DAV:   7    -0.269711929107E+03    0.19936E-03   -0.11576E-03 53184   0.770E-02    0.116E-01
DAV:   8    -0.269711958093E+03   -0.28986E-04   -0.25843E-04 36536   0.432E-02    0.653E-02
DAV:   9    -0.269711983444E+03   -0.25351E-04   -0.11925E-04 31928   0.275E-02    0.653E-02
DAV:  10    -0.269711987217E+03   -0.37730E-05   -0.48035E-05 29384   0.234E-02
  65 F= -.26971199E+03 E0= -.26970124E+03  d E =-.119668E-02  mag=     4.0000
       N       E                     dE             d eps       ncg     rms          rms(c)
DAV:   1    -0.269710052448E+03    0.19310E-02   -0.14937E-01 40320   0.157E+00    0.121E-01
DAV:   2    -0.269710865880E+03   -0.81343E-03   -0.81570E-03 41800   0.282E-01    0.425E-01
DAV:   3    -0.269710626970E+03    0.23891E-03   -0.28445E-03 54864   0.120E-01    0.166E-01
DAV:   4    -0.269710663649E+03   -0.36679E-04   -0.48318E-04 41640   0.560E-02    0.167E-01
DAV:   5    -0.269710618108E+03    0.45541E-04   -0.31182E-04 32736   0.395E-02    0.707E-02
DAV:   6    -0.269710638914E+03   -0.20806E-04   -0.18427E-04 30672   0.297E-02    0.126E-01
DAV:   7    -0.269710609892E+03    0.29022E-04   -0.11050E-04 29792   0.326E-02    0.372E-02
DAV:   8    -0.269710612796E+03   -0.29039E-05   -0.27219E-05 25360   0.180E-02
  66 F= -.26971061E+03 E0= -.26969982E+03  d E =0.137442E-02  mag=     4.0000
       N       E                     dE             d eps       ncg     rms          rms(c)
DAV:   1    -0.269699521864E+03    0.11088E-01   -0.20044E+00 40024   0.526E+00    0.320E-01
DAV:   2    -0.269706824182E+03   -0.73023E-02   -0.76693E-02 40624   0.876E-01    0.881E-01
DAV:   3    -0.269706119017E+03    0.70516E-03   -0.14838E-02 54768   0.277E-01    0.562E-01
DAV:   4    -0.269705798963E+03    0.32005E-03   -0.21160E-03 55056   0.136E-01    0.244E-01
DAV:   5    -0.269705858231E+03   -0.59268E-04   -0.17813E-03 54400   0.915E-02    0.317E-01
DAV:   6    -0.269705861843E+03   -0.36124E-05   -0.22249E-03 55904   0.110E-01    0.374E-01
DAV:   7    -0.269705614381E+03    0.24746E-03   -0.17836E-03 54088   0.971E-02    0.893E-02
DAV:   8    -0.269705664363E+03   -0.49982E-04   -0.19281E-04 39216   0.472E-02    0.659E-02
DAV:   9    -0.269705689313E+03   -0.24950E-04   -0.12651E-04 32552   0.327E-02    0.629E-02
DAV:  10    -0.269705695751E+03   -0.64380E-05   -0.27841E-05 27344   0.201E-02
  67 F= -.26970570E+03 E0= -.26969487E+03  d E =0.491705E-02  mag=     4.0000
       N       E                     dE             d eps       ncg     rms          rms(c)
DAV:   1    -0.269414700862E+03    0.29099E+00   -0.76031E+01 39312   0.317E+01    0.195E+00
DAV:   2    -0.269716131749E+03   -0.30143E+00   -0.31654E+00 40696   0.543E+00    0.507E+00
DAV:   3    -0.269694307047E+03    0.21825E-01   -0.54375E-01 53816   0.177E+00    0.371E+00
DAV:   4    -0.269676402290E+03    0.17905E-01   -0.11487E-01 55808   0.851E-01    0.135E+00
DAV:   5    -0.269680489703E+03   -0.40874E-02   -0.73912E-02 54248   0.534E-01    0.191E+00
DAV:   6    -0.269675720298E+03    0.47694E-02   -0.38443E-02 55496   0.563E-01    0.130E+00
DAV:   7    -0.269674420899E+03    0.12994E-02   -0.36581E-02 53896   0.451E-01    0.956E-01
DAV:   8    -0.269673362640E+03    0.10583E-02   -0.68594E-03 55112   0.279E-01    0.404E-01
DAV:   9    -0.269673535897E+03   -0.17326E-03   -0.38375E-03 55480   0.180E-01    0.242E-01
DAV:  10    -0.269673920298E+03   -0.38440E-03   -0.18146E-03 55464   0.130E-01    0.233E-01
DAV:  11    -0.269674077517E+03   -0.15722E-03   -0.90738E-04 53696   0.877E-02    0.237E-01
DAV:  12    -0.269674067932E+03    0.95850E-05   -0.25713E-04 48184   0.520E-02    0.179E-01
DAV:  13    -0.269674062950E+03    0.49828E-05   -0.15730E-04 39840   0.445E-02    0.130E-01
DAV:  14    -0.269674069561E+03   -0.66109E-05   -0.27538E-04 49408   0.584E-02    0.140E-01
DAV:  15    -0.269674059738E+03    0.98227E-05   -0.22610E-04 32376   0.366E-02    0.460E-02
DAV:  16    -0.269674077686E+03   -0.17948E-04   -0.71144E-05 32120   0.236E-02    0.534E-02
DAV:  17    -0.269674078920E+03   -0.12340E-05   -0.16612E-05 25120   0.146E-02
  68 F= -.26967408E+03 E0= -.26966322E+03  d E =0.316168E-01  mag=     4.0000
       N       E                     dE             d eps       ncg     rms          rms(c)
DAV:   1    -0.269664336413E+03    0.97413E-02   -0.17158E+00 39816   0.558E+00    0.870E-01
DAV:   2    -0.269674142105E+03   -0.98057E-02   -0.10983E-01 42896   0.109E+00    0.642E-01
DAV:   3    -0.269683492552E+03   -0.93504E-02   -0.77034E-02 53768   0.597E-01    0.282E+00
DAV:   4    -0.269671547150E+03    0.11945E-01   -0.60407E-02 53200   0.509E-01    0.872E-01
DAV:   5    -0.269672967705E+03   -0.14206E-02   -0.13573E-02 52512   0.259E-01    0.455E-01
DAV:   6    -0.269674292425E+03   -0.13247E-02   -0.12459E-02 53960   0.214E-01    0.105E+00
DAV:   7    -0.269672537031E+03    0.17554E-02   -0.96308E-03 53328   0.200E-01    0.176E-01
DAV:   8    -0.269672859415E+03   -0.32238E-03   -0.59250E-04 51880   0.875E-02    0.133E-01
DAV:   9    -0.269672913140E+03   -0.53725E-04   -0.36274E-04 47928   0.592E-02    0.121E-01
DAV:  10    -0.269672936897E+03   -0.23756E-04   -0.18267E-04 33104   0.397E-02    0.105E-01
DAV:  11    -0.269672948020E+03   -0.11124E-04   -0.95083E-05 34744   0.317E-02    0.976E-02
DAV:  12    -0.269672944105E+03    0.39158E-05   -0.63986E-05 31608   0.254E-02
  69 F= -.26967294E+03 E0= -.26966211E+03  d E =0.113482E-02  mag=     4.0000
       N       E                     dE             d eps       ncg     rms          rms(c)
DAV:   1    -0.269653370928E+03    0.19577E-01   -0.11511E+01 39312   0.124E+01    0.954E-01
DAV:   2    -0.269697369773E+03   -0.43999E-01   -0.45903E-01 41224   0.210E+00    0.247E+00
DAV:   3    -0.269693321151E+03    0.40486E-02   -0.15716E-01 54744   0.856E-01    0.190E+00
DAV:   4    -0.269691667354E+03    0.16538E-02   -0.40923E-02 54528   0.488E-01    0.152E+00
DAV:   5    -0.269688507145E+03    0.31602E-02   -0.22313E-02 54296   0.350E-01    0.508E-01
DAV:   6    -0.269690573286E+03   -0.20661E-02   -0.17149E-02 54288   0.271E-01    0.110E+00
DAV:   7    -0.269688203695E+03    0.23696E-02   -0.12310E-02 55912   0.272E-01    0.182E-01
DAV:   8    -0.269688556574E+03   -0.35288E-03   -0.96873E-04 53232   0.124E-01    0.130E-01
DAV:   9    -0.269688612076E+03   -0.55502E-04   -0.24931E-04 47288   0.536E-02    0.129E-01
DAV:  10    -0.269688602113E+03    0.99629E-05   -0.47802E-05 31960   0.228E-02
  70 F= -.26968860E+03 E0= -.26967780E+03  d E =-.156580E-01  mag=     4.0000
       N       E                     dE             d eps       ncg     rms          rms(c)
DAV:   1    -0.269684073743E+03    0.45383E-02   -0.31956E+00 39312   0.643E+00    0.416E-01
DAV:   2    -0.269694478192E+03   -0.10404E-01   -0.11248E-01 40360   0.106E+00    0.745E-01
DAV:   3    -0.269695411611E+03   -0.93342E-03   -0.28956E-02 54984   0.368E-01    0.112E+00
DAV:   4    -0.269693504563E+03    0.19070E-02   -0.97061E-03 54736   0.224E-01    0.347E-01
DAV:   5    -0.269693784020E+03   -0.27946E-03   -0.30805E-03 54232   0.114E-01    0.378E-01
DAV:   6    -0.269693633411E+03    0.15061E-03   -0.18116E-03 55472   0.123E-01    0.270E-01
DAV:   7    -0.269693558825E+03    0.74585E-04   -0.13953E-03 54416   0.906E-02    0.145E-01
DAV:   8    -0.269693538192E+03    0.20633E-04   -0.20078E-04 41560   0.528E-02    0.654E-02
DAV:   9    -0.269693543454E+03   -0.52620E-05   -0.13010E-04 48448   0.386E-02    0.396E-02
DAV:  10    -0.269693555013E+03   -0.11559E-04   -0.53898E-05 28168   0.248E-02    0.449E-02
DAV:  11    -0.269693559113E+03   -0.41006E-05   -0.30747E-05 25648   0.198E-02
  71 F= -.26969356E+03 E0= -.26968272E+03  d E =-.495700E-02  mag=     4.0000
       N       E                     dE             d eps       ncg     rms          rms(c)
DAV:   1    -0.269664116613E+03    0.29438E-01   -0.95893E+00 40320   0.117E+01    0.941E-01
DAV:   2    -0.269699418046E+03   -0.35301E-01   -0.37457E-01 40320   0.198E+00    0.169E+00
DAV:   3    -0.269702164988E+03   -0.27469E-02   -0.12923E-01 54656   0.728E-01    0.225E+00
DAV:   4    -0.269694688289E+03    0.74767E-02   -0.33096E-02 54128   0.448E-01    0.691E-01
DAV:   5    -0.269695660624E+03   -0.97234E-03   -0.11935E-02 54296   0.243E-01    0.761E-01
DAV:   6    -0.269696050095E+03   -0.38947E-03   -0.14105E-02 54936   0.268E-01    0.930E-01
DAV:   7    -0.269694524109E+03    0.15260E-02   -0.10764E-02 54736   0.238E-01    0.181E-01
DAV:   8    -0.269694848993E+03   -0.32488E-03   -0.83674E-04 52592   0.851E-02    0.171E-01
DAV:   9    -0.269694894282E+03   -0.45289E-04   -0.42665E-04 44056   0.461E-02    0.114E-01
DAV:  10    -0.269694917747E+03   -0.23465E-04   -0.10886E-04 33344   0.310E-02    0.118E-01
DAV:  11    -0.269694918211E+03   -0.46398E-06   -0.10083E-04 36168   0.343E-02    0.115E-01
DAV:  12    -0.269694905285E+03    0.12926E-04   -0.76858E-05 34520   0.326E-02    0.476E-02
DAV:  13    -0.269694910078E+03   -0.47931E-05   -0.51887E-05 31352   0.234E-02
  72 F= -.26969491E+03 E0= -.26968408E+03  d E =-.135096E-02  mag=     4.0000
       N       E                     dE             d eps       ncg     rms          rms(c)
DAV:   1    -0.269664527363E+03    0.30378E-01   -0.94756E+00 40320   0.115E+01    0.892E-01
DAV:   2    -0.269700372134E+03   -0.35845E-01   -0.37348E-01 40288   0.195E+00    0.204E+00
DAV:   3    -0.269698497286E+03    0.18748E-02   -0.10860E-01 54360   0.723E-01    0.185E+00
DAV:   4    -0.269694566448E+03    0.39308E-02   -0.28548E-02 54440   0.402E-01    0.864E-01
DAV:   5    -0.269694293363E+03    0.27309E-03   -0.10884E-02 54088   0.231E-01    0.458E-01
DAV:   6    -0.269695276197E+03   -0.98283E-03   -0.10863E-02 55704   0.245E-01    0.887E-01
DAV:   7    -0.269693728362E+03    0.15478E-02   -0.91949E-03 54640   0.228E-01    0.184E-01
DAV:   8    -0.269693968269E+03   -0.23991E-03   -0.45636E-04 53824   0.872E-02    0.135E-01
DAV:   9    -0.269693987803E+03   -0.19534E-04   -0.30656E-04 49464   0.535E-02    0.830E-02
DAV:  10    -0.269694011462E+03   -0.23659E-04   -0.11871E-04 32976   0.344E-02    0.776E-02
DAV:  11    -0.269694022526E+03   -0.11064E-04   -0.73975E-05 30280   0.271E-02    0.865E-02
DAV:  12    -0.269694017955E+03    0.45705E-05   -0.41244E-05 29768   0.209E-02
  73 F= -.26969402E+03 E0= -.26968320E+03  d E =0.892123E-03  mag=     4.0000
       N       E                     dE             d eps       ncg     rms          rms(c)
DAV:   1    -0.269692535927E+03    0.14866E-02   -0.21071E-01 40320   0.177E+00    0.242E-01
DAV:   2    -0.269693485487E+03   -0.94956E-03   -0.10119E-02 44792   0.336E-01    0.390E-01
DAV:   3    -0.269693685826E+03   -0.20034E-03   -0.71647E-03 53840   0.175E-01    0.560E-01
DAV:   4    -0.269693302672E+03    0.38315E-03   -0.32091E-03 54200   0.122E-01    0.276E-01
DAV:   5    -0.269693245407E+03    0.57266E-04   -0.67122E-04 45088   0.619E-02    0.126E-01
DAV:   6    -0.269693273079E+03   -0.27672E-04   -0.24735E-04 33096   0.347E-02    0.170E-01
DAV:   7    -0.269693234197E+03    0.38882E-04   -0.16370E-04 31992   0.335E-02    0.103E-01
DAV:   8    -0.269693208326E+03    0.25870E-04   -0.13104E-04 43264   0.434E-02    0.552E-02
DAV:   9    -0.269693232060E+03   -0.23734E-04   -0.18342E-04 32344   0.330E-02    0.584E-02
DAV:  10    -0.269693240885E+03   -0.88249E-05   -0.42581E-05 29328   0.296E-02
  74 F= -.26969324E+03 E0= -.26968237E+03  d E =0.777071E-03  mag=     4.0000
       N       E                     dE             d eps       ncg     rms          rms(c)
DAV:   1    -0.269691856778E+03    0.13753E-02   -0.19342E-01 40320   0.162E+00    0.193E-01
DAV:   2    -0.269692853444E+03   -0.99667E-03   -0.99548E-03 42888   0.298E-01    0.520E-01
DAV:   3    -0.269692587769E+03    0.26567E-03   -0.60198E-03 54240   0.163E-01    0.345E-01
DAV:   4    -0.269692651342E+03   -0.63573E-04   -0.20047E-03 52480   0.978E-02    0.355E-01
DAV:   5    -0.269692447856E+03    0.20349E-03   -0.88602E-04 40688   0.703E-02    0.122E-01
DAV:   6    -0.269692470313E+03   -0.22457E-04   -0.15290E-04 31416   0.297E-02    0.112E-01
DAV:   7    -0.269692451575E+03    0.18738E-04   -0.81990E-05 32416   0.304E-02    0.802E-02
DAV:   8    -0.269692439328E+03    0.12247E-04   -0.15171E-04 36920   0.345E-02    0.415E-02
DAV:   9    -0.269692460764E+03   -0.21436E-04   -0.94990E-05 29656   0.267E-02    0.491E-02
DAV:  10    -0.269692463194E+03   -0.24296E-05   -0.22658E-05 26832   0.211E-02
  75 F= -.26969246E+03 E0= -.26968162E+03  d E =0.777691E-03  mag=     4.0000
