 vasp.6.1.2 22Jul20 (build Dec 05 2020 14:50:36) complex                        
  
 executed on         CrayXC-Intel date 2021.06.21  02:47:03
 running on   24 total cores
 distrk:  each k-point on   24 cores,    1 groups
 distr:  one band on NCORE=   4 cores,    6 groups


--------------------------------------------------------------------------------------------------------


 INCAR:
 POTCAR:    PAW_PBE Ca_sv 06Sep2000               
 POTCAR:    PAW_PBE V_pv 07Sep2000                
 POTCAR:    PAW_PBE O 08Apr2002                   
 POTCAR:    PAW_PBE Ca_sv 06Sep2000               
   VRHFIN =Ca: 3s3p4s                                                                               
   LEXCH  = PE                                                                                      
   EATOM  =  1006.0909 eV,   73.9456 Ry                                                             
                                                                                                    
   TITEL  = PAW_PBE Ca_sv 06Sep2000                                                                 
   LULTRA =        F    use ultrasoft PP ?                                                          
   IUNSCR =        1    unscreen: 0-lin 1-nonlin 2-no                                               
   RPACOR =    2.000    partial core radius                                                         
   POMASS =   40.078; ZVAL   =   10.000    mass and valenz                                          
   RCORE  =    2.300    outmost cutoff radius                                                       
   RWIGS  =    2.500; RWIGS  =    1.323    wigner-seitz radius (au A)                               
   ENMAX  =  266.622; ENMIN  =  199.967 eV                                                          
   RCLOC  =    1.808    cutoff for local pot                                                        
   LCOR   =        T    correct aug charges                                                         
   LPAW   =        T    paw PP                                                                      
   EAUG   =  420.852                                                                                
   RMAX   =    2.359    core radius for proj-oper                                                   
   RAUG   =    1.300    factor for augmentation sphere                                              
   RDEP   =    2.392    radius for radial grids                                                     
   RDEPT  =    1.987    core radius for aug-charge                                                  
                                                                                                    
   Atomic configuration                                                                             
    7 entries                                                                                       
     n  l   j            E        occ.                                                              
     1  0  0.50     -3949.1705   2.0000                                                             
     2  0  0.50      -414.3434   2.0000                                                             
     2  1  1.50      -334.7047   6.0000                                                             
     3  0  0.50       -47.0896   2.0000                                                             
     4  0  0.50        -3.7663   2.0000                                                             
     3  1  1.50       -28.0061   6.0000                                                             
     3  2  1.50        -4.0817   0.0000                                                             
   Description                                                                                      
     l       E           TYP  RCUT    TYP  RCUT                                                     
     0    -47.0896403     23  2.300                                                                 
     0     -3.7663320     23  2.300                                                                 
     1    -28.0060855     23  2.300                                                                 
     1      6.8029130     23  2.300                                                                 
     2     -4.0817478     23  2.300                                                                 
     2      0.4464412     23  2.300                                                                 
  local pseudopotential read in
  partial core-charges read in
  partial kinetic energy density read in
  atomic valenz-charges read in
  non local Contribution for L=           0  read in
    real space projection operators read in
  non local Contribution for L=           0  read in
    real space projection operators read in
  non local Contribution for L=           1  read in
    real space projection operators read in
  non local Contribution for L=           1  read in
    real space projection operators read in
  non local Contribution for L=           2  read in
    real space projection operators read in
  non local Contribution for L=           2  read in
    real space projection operators read in
    PAW grid and wavefunctions read in
 
   number of l-projection  operators is LMAX  =           6
   number of lm-projection operators is LMMAX =          18
 
 POTCAR:    PAW_PBE V_pv 07Sep2000                
   VRHFIN =V: p6 d4 s1                                                                              
   LEXCH  = PE                                                                                      
   EATOM  =  1321.6206 eV,   97.1364 Ry                                                             
                                                                                                    
   TITEL  = PAW_PBE V_pv 07Sep2000                                                                  
   LULTRA =        F    use ultrasoft PP ?                                                          
   IUNSCR =        1    unscreen: 0-lin 1-nonlin 2-no                                               
   RPACOR =    1.700    partial core radius                                                         
   POMASS =   50.941; ZVAL   =   11.000    mass and valenz                                          
   RCORE  =    2.300    outmost cutoff radius                                                       
   RWIGS  =    2.300; RWIGS  =    1.217    wigner-seitz radius (au A)                               
   ENMAX  =  263.673; ENMIN  =  197.755 eV                                                          
   RCLOC  =    1.779    cutoff for local pot                                                        
   LCOR   =        T    correct aug charges                                                         
   LPAW   =        T    paw PP                                                                      
   EAUG   =  598.473                                                                                
   DEXC   =    0.000                                                                                
   RMAX   =    2.359    core radius for proj-oper                                                   
   RAUG   =    1.300    factor for augmentation sphere                                              
   RDEP   =    2.430    radius for radial grids                                                     
   RDEPT  =    1.700    core radius for aug-charge                                                  
                                                                                                    
   Atomic configuration                                                                             
    8 entries                                                                                       
     n  l   j            E        occ.                                                              
     1  0  0.50     -5360.7193   2.0000                                                             
     2  0  0.50      -598.4546   2.0000                                                             
     2  1  1.50      -499.0155   6.0000                                                             
     3  0  0.50       -66.5711   2.0000                                                             
     3  1  1.50       -40.5282   6.0000                                                             
     3  2  2.50        -2.4291   4.0000                                                             
     4  0  0.50        -3.8743   1.0000                                                             
     4  3  2.50        -1.3606   0.0000                                                             
   Description                                                                                      
     l       E           TYP  RCUT    TYP  RCUT                                                     
     1    -40.5282431     23  2.000                                                                 
     1      5.4423304     23  2.000                                                                 
     2     -2.4290905     23  2.300                                                                 
     2     -1.0472488     23  2.300                                                                 
     0     -3.8742754     23  2.300                                                                 
     0     27.2116520     23  2.300                                                                 
  local pseudopotential read in
  partial core-charges read in
  partial kinetic energy density read in
  atomic valenz-charges read in
  non local Contribution for L=           1  read in
    real space projection operators read in
  non local Contribution for L=           1  read in
    real space projection operators read in
  non local Contribution for L=           2  read in
    real space projection operators read in
  non local Contribution for L=           2  read in
    real space projection operators read in
  non local Contribution for L=           0  read in
    real space projection operators read in
  non local Contribution for L=           0  read in
    real space projection operators read in
    PAW grid and wavefunctions read in
 
   number of l-projection  operators is LMAX  =           6
   number of lm-projection operators is LMMAX =          18
 
 POTCAR:    PAW_PBE O 08Apr2002                   
   VRHFIN =O: s2p4                                                                                  
   LEXCH  = PE                                                                                      
   EATOM  =   432.3788 eV,   31.7789 Ry                                                             
                                                                                                    
   TITEL  = PAW_PBE O 08Apr2002                                                                     
   LULTRA =        F    use ultrasoft PP ?                                                          
   IUNSCR =        1    unscreen: 0-lin 1-nonlin 2-no                                               
   RPACOR =    1.200    partial core radius                                                         
   POMASS =   16.000; ZVAL   =    6.000    mass and valenz                                          
   RCORE  =    1.520    outmost cutoff radius                                                       
   RWIGS  =    1.550; RWIGS  =    0.820    wigner-seitz radius (au A)                               
   ENMAX  =  400.000; ENMIN  =  300.000 eV                                                          
   ICORE  =        2    local potential                                                             
   LCOR   =        T    correct aug charges                                                         
   LPAW   =        T    paw PP                                                                      
   EAUG   =  605.392                                                                                
   DEXC   =    0.000                                                                                
   RMAX   =    1.553    core radius for proj-oper                                                   
   RAUG   =    1.300    factor for augmentation sphere                                              
   RDEP   =    1.550    radius for radial grids                                                     
   RDEPT  =    1.329    core radius for aug-charge                                                  
                                                                                                    
   Atomic configuration                                                                             
    4 entries                                                                                       
     n  l   j            E        occ.                                                              
     1  0  0.50      -514.6923   2.0000                                                             
     2  0  0.50       -23.9615   2.0000                                                             
     2  1  0.50        -9.0305   4.0000                                                             
     3  2  1.50        -9.5241   0.0000                                                             
   Description                                                                                      
     l       E           TYP  RCUT    TYP  RCUT                                                     
     0    -23.9615318     23  1.200                                                                 
     0     -9.5240782     23  1.200                                                                 
     1     -9.0304911     23  1.520                                                                 
     1      8.1634956     23  1.520                                                                 
     2     -9.5240782      7  1.500                                                                 
  local pseudopotential read in
  partial core-charges read in
  partial kinetic energy density read in
  kinetic energy density of atom read in
  atomic valenz-charges read in
  non local Contribution for L=           0  read in
    real space projection operators read in
  non local Contribution for L=           0  read in
    real space projection operators read in
  non local Contribution for L=           1  read in
    real space projection operators read in
  non local Contribution for L=           1  read in
    real space projection operators read in
    PAW grid and wavefunctions read in
 
   number of l-projection  operators is LMAX  =           4
   number of lm-projection operators is LMMAX =           8
 
 Optimization of the real space projectors (new method)

 maximal supplied QI-value         = 16.25
 optimisation between [QCUT,QGAM] = [ 11.54, 23.24] = [ 37.28,151.24] Ry 
 Optimized for a Real-space Cutoff    1.58 Angstroem

   l    n(q)    QCUT    max X(q) W(low)/X(q) W(high)/X(q)  e(spline) 
   0     11    11.539    11.817    0.25E-04    0.22E-05    0.26E-07
   0     11    11.539     8.461    0.39E-04    0.49E-05    0.55E-07
   1     11    11.539     3.957    0.21E-05    0.44E-05    0.32E-07
   1     11    11.539     4.314    0.56E-04    0.44E-04    0.19E-06
   2     10    11.539    14.565    0.25E-03    0.21E-04    0.75E-06
   2     10    11.539    14.552    0.23E-03    0.22E-04    0.72E-06
 Optimization of the real space projectors (new method)

 maximal supplied QI-value         = 16.25
 optimisation between [QCUT,QGAM] = [ 11.54, 23.24] = [ 37.28,151.24] Ry 
 Optimized for a Real-space Cutoff    1.53 Angstroem

   l    n(q)    QCUT    max X(q) W(low)/X(q) W(high)/X(q)  e(spline) 
   1     10    11.539     3.206    0.43E-05    0.46E-05    0.52E-07
   1     10    11.539     4.597    0.39E-04    0.25E-04    0.17E-06
   2     10    11.539    89.000    0.10E-03    0.13E-03    0.24E-06
   2     10    11.539    82.410    0.10E-03    0.13E-03    0.23E-06
   0     11    11.539    36.565    0.42E-04    0.19E-04    0.30E-06
   0     11    11.539    13.729    0.20E-04    0.13E-04    0.22E-06
 Optimization of the real space projectors (new method)

 maximal supplied QI-value         = 24.76
 optimisation between [QCUT,QGAM] = [ 11.64, 23.27] = [ 37.91,151.63] Ry 
 Optimized for a Real-space Cutoff    1.14 Angstroem

   l    n(q)    QCUT    max X(q) W(low)/X(q) W(high)/X(q)  e(spline) 
   0      8    11.635    20.381    0.10E-03    0.33E-03    0.24E-06
   0      8    11.635    15.268    0.11E-03    0.35E-03    0.26E-06
   1      7    11.635     5.964    0.24E-03    0.31E-03    0.30E-06
   1      7    11.635     5.382    0.22E-03    0.25E-03    0.26E-06
  PAW_PBE Ca_sv 06Sep2000               :
 energy of atom  1       EATOM=-1006.0909
 kinetic energy error for atom=    0.0022 (will be added to EATOM!!)
  PAW_PBE V_pv 07Sep2000                :
 energy of atom  2       EATOM=-1321.6206
 kinetic energy error for atom=    0.0054 (will be added to EATOM!!)
  PAW_PBE O 08Apr2002                   :
 energy of atom  3       EATOM= -432.3788
 kinetic energy error for atom=    0.0208 (will be added to EATOM!!)
 
 
 POSCAR: Ca4 V4 O12
  positions in direct lattice
  velocities in cartesian coordinates

 METAGGA = SCAN     LMAXTAU =  6    LMIXTAU =  F

 exchange correlation table for  LEXCH =        8
   RHO(1)=    0.500       N(1)  =     2000
   RHO(2)=  100.500       N(2)  =     4000
 


--------------------------------------------------------------------------------------------------------


 ion  position               nearest neighbor table
   1  0.541  0.249  0.509-  17 2.36  10 2.36  15 2.37   9 2.46  18 2.56  16 2.57
   2  0.041  0.251  0.991-  18 2.36   9 2.36  16 2.37  10 2.46  17 2.56  15 2.57
   3  0.459  0.751  0.491-  13 2.36  12 2.36  19 2.37  11 2.46  14 2.56  20 2.57
   4  0.959  0.749  0.009-  14 2.36  11 2.36  20 2.37  12 2.46  13 2.56  19 2.57
   5  0.000  0.002  0.500-  16 1.88  20 1.88  17 1.94   9 1.94  13 1.94  11 1.97
   6  0.500  0.498  0.000-  15 1.88  19 1.88  18 1.94  10 1.94  14 1.94  12 1.97
   7  1.000  0.501  0.501-  11 1.86   9 1.87  14 1.94  18 1.94  15 2.00  19 2.00
   8  0.500  0.999  0.999-  12 1.86  10 1.87  13 1.94  17 1.94  16 2.00  20 2.00
   9  0.988  0.256  0.431-   7 1.87   5 1.94   2 2.36   1 2.46
  10  0.488  0.244  0.069-   8 1.87   6 1.94   1 2.36   2 2.46
  11  0.012  0.745  0.569-   7 1.86   5 1.97   4 2.36   3 2.46
  12  0.512  0.755  0.931-   8 1.86   6 1.97   3 2.36   4 2.46
  13  0.711  0.963  0.289-   8 1.94   5 1.94   3 2.36   4 2.56
  14  0.211  0.537  0.211-   7 1.94   6 1.94   4 2.36   3 2.56
  15  0.295  0.465  0.720-   6 1.88   7 2.00   1 2.37   2 2.57
  16  0.795  0.035  0.780-   5 1.88   8 2.00   2 2.37   1 2.57
  17  0.289  0.038  0.710-   5 1.94   8 1.94   1 2.36   2 2.56
  18  0.789  0.462  0.790-   6 1.94   7 1.94   2 2.36   1 2.56
  19  0.705  0.536  0.281-   6 1.88   7 2.00   3 2.37   4 2.57
  20  0.205  0.964  0.219-   5 1.88   8 2.00   4 2.37   3 2.57
 

IMPORTANT INFORMATION: All symmetrisations will be switched off!
NOSYMM: (Re-)initialisation of all symmetry stuff for point group C_1.


----------------------------------------------------------------------------------------

                                     Primitive cell                                     

  volume of cell :     216.5093

  direct lattice vectors                    reciprocal lattice vectors
     5.419138853  0.000122478  0.000039339     0.184531164  0.000005163  0.000000265
    -0.000209839  7.501756244 -0.032848954    -0.000003016  0.133304065  0.000444568
    -0.000007162 -0.017761696  5.325858654    -0.000001382  0.000822196  0.187765892

  length of vectors
     5.419138855  7.501828167  5.325888272     0.184531164  0.133304806  0.187767693

  position of ions in fractional coordinates (direct lattice)
     0.540694518  0.249256001  0.508748404
     0.040698120  0.250741882  0.991251717
     0.459258705  0.751084417  0.490859553
     0.959257941  0.748913241  0.009139932
     0.000046532  0.001962253  0.499668219
     0.500046170  0.498034219  0.000337380
     0.999997181  0.501177876  0.500564405
     0.500001245  0.998829206  0.999438135
     0.988352585  0.256021399  0.431298405
     0.488351430  0.243977316  0.068707033
     0.011795865  0.744585405  0.568582786
     0.511799465  0.755420463  0.931419728
     0.711459032  0.962876358  0.289443656
     0.211448384  0.537122432  0.210548714
     0.294990421  0.464533840  0.719597774
     0.794999883  0.035467652  0.780398167
     0.288575179  0.038241998  0.710280830
     0.788577174  0.461754783  0.789713968
     0.704830265  0.535500515  0.280940097
     0.204819903  0.964498746  0.219061096

  ion indices of the primitive-cell ions
   primitive index   ion index
                 1           1
                 2           2
                 3           3
                 4           4
                 5           5
                 6           6
                 7           7
                 8           8
                 9           9
                10          10
                11          11
                12          12
                13          13
                14          14
                15          15
                16          16
                17          17
                18          18
                19          19
                20          20

----------------------------------------------------------------------------------------

 
 
 KPOINTS: K-points file                           

Automatic generation of k-mesh.
Space group operators:
 irot       det(A)        alpha          n_x          n_y          n_z        tau_x        tau_y        tau_z
    1     1.000000     0.000000     1.000000     0.000000     0.000000     0.000000     0.000000     0.000000
 
 Subroutine IBZKPT returns following result:
 ===========================================
 
 Found    123 irreducible k-points:
 
 Following reciprocal coordinates:
            Coordinates               Weight
  0.000000  0.000000  0.000000      1.000000
  0.142857  0.000000  0.000000      2.000000
  0.285714 -0.000000  0.000000      2.000000
  0.428571 -0.000000 -0.000000      2.000000
  0.000000  0.200000  0.000000      2.000000
  0.142857  0.200000  0.000000      2.000000
  0.142857 -0.200000 -0.000000      2.000000
  0.285714  0.200000  0.000000      2.000000
  0.285714 -0.200000 -0.000000      2.000000
  0.428571  0.200000 -0.000000      2.000000
  0.428571 -0.200000 -0.000000      2.000000
  0.000000  0.400000  0.000000      2.000000
  0.142857  0.400000  0.000000      2.000000
  0.142857 -0.400000 -0.000000      2.000000
  0.285714  0.400000  0.000000      2.000000
  0.285714 -0.400000 -0.000000      2.000000
  0.428571  0.400000 -0.000000      2.000000
  0.428571 -0.400000 -0.000000      2.000000
 -0.000000 -0.000000  0.142857      2.000000
  0.142857  0.000000  0.142857      2.000000
  0.142857  0.000000 -0.142857      2.000000
  0.285714  0.000000  0.142857      2.000000
  0.285714  0.000000 -0.142857      2.000000
  0.428571 -0.000000  0.142857      2.000000
  0.428571 -0.000000 -0.142857      2.000000
  0.000000  0.200000  0.142857      2.000000
  0.142857  0.200000  0.142857      2.000000
  0.142857 -0.200000 -0.142857      2.000000
  0.285714  0.200000  0.142857      2.000000
  0.285714 -0.200000 -0.142857      2.000000
  0.428571  0.200000  0.142857      2.000000
  0.428571 -0.200000 -0.142857      2.000000
  0.000000  0.400000  0.142857      2.000000
  0.142857  0.400000  0.142857      2.000000
  0.142857 -0.400000 -0.142857      2.000000
  0.285714  0.400000  0.142857      2.000000
  0.285714 -0.400000 -0.142857      2.000000
  0.428571  0.400000  0.142857      2.000000
  0.428571 -0.400000 -0.142857      2.000000
 -0.000000 -0.400000  0.142857      2.000000
  0.142857 -0.400000  0.142857      2.000000
  0.142857  0.400000 -0.142857      2.000000
  0.285714 -0.400000  0.142857      2.000000
  0.285714  0.400000 -0.142857      2.000000
  0.428571 -0.400000  0.142857      2.000000
  0.428571  0.400000 -0.142857      2.000000
 -0.000000 -0.200000  0.142857      2.000000
  0.142857 -0.200000  0.142857      2.000000
  0.142857  0.200000 -0.142857      2.000000
  0.285714 -0.200000  0.142857      2.000000
  0.285714  0.200000 -0.142857      2.000000
  0.428571 -0.200000  0.142857      2.000000
  0.428571  0.200000 -0.142857      2.000000
 -0.000000 -0.000000  0.285714      2.000000
  0.142857 -0.000000  0.285714      2.000000
  0.142857  0.000000 -0.285714      2.000000
  0.285714  0.000000  0.285714      2.000000
  0.285714  0.000000 -0.285714      2.000000
  0.428571 -0.000000  0.285714      2.000000
  0.428571 -0.000000 -0.285714      2.000000
 -0.000000  0.200000  0.285714      2.000000
  0.142857  0.200000  0.285714      2.000000
  0.142857 -0.200000 -0.285714      2.000000
  0.285714  0.200000  0.285714      2.000000
  0.285714 -0.200000 -0.285714      2.000000
  0.428571  0.200000  0.285714      2.000000
  0.428571 -0.200000 -0.285714      2.000000
  0.000000  0.400000  0.285714      2.000000
  0.142857  0.400000  0.285714      2.000000
  0.142857 -0.400000 -0.285714      2.000000
  0.285714  0.400000  0.285714      2.000000
  0.285714 -0.400000 -0.285714      2.000000
  0.428571  0.400000  0.285714      2.000000
  0.428571 -0.400000 -0.285714      2.000000
 -0.000000 -0.400000  0.285714      2.000000
  0.142857 -0.400000  0.285714      2.000000
  0.142857  0.400000 -0.285714      2.000000
  0.285714 -0.400000  0.285714      2.000000
  0.285714  0.400000 -0.285714      2.000000
  0.428571 -0.400000  0.285714      2.000000
  0.428571  0.400000 -0.285714      2.000000
 -0.000000 -0.200000  0.285714      2.000000
  0.142857 -0.200000  0.285714      2.000000
  0.142857  0.200000 -0.285714      2.000000
  0.285714 -0.200000  0.285714      2.000000
  0.285714  0.200000 -0.285714      2.000000
  0.428571 -0.200000  0.285714      2.000000
  0.428571  0.200000 -0.285714      2.000000
 -0.000000  0.000000  0.428571      2.000000
  0.142857  0.000000  0.428571      2.000000
  0.142857  0.000000 -0.428571      2.000000
  0.285714 -0.000000  0.428571      2.000000
  0.285714 -0.000000 -0.428571      2.000000
  0.428571 -0.000000  0.428571      2.000000
  0.428571 -0.000000 -0.428571      2.000000
  0.000000  0.200000  0.428571      2.000000
  0.142857  0.200000  0.428571      2.000000
  0.142857 -0.200000 -0.428571      2.000000
  0.285714  0.200000  0.428571      2.000000
  0.285714 -0.200000 -0.428571      2.000000
  0.428571  0.200000  0.428571      2.000000
  0.428571 -0.200000 -0.428571      2.000000
 -0.000000  0.400000  0.428571      2.000000
  0.142857  0.400000  0.428571      2.000000
  0.142857 -0.400000 -0.428571      2.000000
  0.285714  0.400000  0.428571      2.000000
  0.285714 -0.400000 -0.428571      2.000000
  0.428571  0.400000  0.428571      2.000000
  0.428571 -0.400000 -0.428571      2.000000
 -0.000000 -0.400000  0.428571      2.000000
  0.142857 -0.400000  0.428571      2.000000
  0.142857  0.400000 -0.428571      2.000000
  0.285714 -0.400000  0.428571      2.000000
  0.285714  0.400000 -0.428571      2.000000
  0.428571 -0.400000  0.428571      2.000000
  0.428571  0.400000 -0.428571      2.000000
 -0.000000 -0.200000  0.428571      2.000000
  0.142857 -0.200000  0.428571      2.000000
  0.142857  0.200000 -0.428571      2.000000
  0.285714 -0.200000  0.428571      2.000000
  0.285714  0.200000 -0.428571      2.000000
  0.428571 -0.200000  0.428571      2.000000
  0.428571  0.200000 -0.428571      2.000000
 
 Following cartesian coordinates:
            Coordinates               Weight
  0.000000  0.000000  0.000000      1.000000
  0.026362  0.000001  0.000000      2.000000
  0.052723  0.000001  0.000000      2.000000
  0.079085  0.000002  0.000000      2.000000
 -0.000001  0.026661  0.000089      2.000000
  0.026361  0.026662  0.000089      2.000000
  0.026362 -0.026660 -0.000089      2.000000
  0.052723  0.026662  0.000089      2.000000
  0.052724 -0.026659 -0.000089      2.000000
  0.079084  0.026663  0.000089      2.000000
  0.079085 -0.026659 -0.000089      2.000000
 -0.000001  0.053322  0.000178      2.000000
  0.026360  0.053322  0.000178      2.000000
  0.026363 -0.053321 -0.000178      2.000000
  0.052722  0.053323  0.000178      2.000000
  0.052724 -0.053320 -0.000178      2.000000
  0.079084  0.053324  0.000178      2.000000
  0.079086 -0.053319 -0.000178      2.000000
 -0.000000  0.000117  0.026824      2.000000
  0.026361  0.000118  0.026824      2.000000
  0.026362 -0.000117 -0.026824      2.000000
  0.052723  0.000119  0.026824      2.000000
  0.052723 -0.000116 -0.026824      2.000000
  0.079085  0.000120  0.026824      2.000000
  0.079085 -0.000115 -0.026824      2.000000
 -0.000001  0.026778  0.026913      2.000000
  0.026361  0.026779  0.026913      2.000000
  0.026362 -0.026778 -0.026913      2.000000
  0.052722  0.026780  0.026913      2.000000
  0.052724 -0.026777 -0.026913      2.000000
  0.079084  0.026780  0.026913      2.000000
  0.079086 -0.026776 -0.026912      2.000000
 -0.000001  0.053439  0.027002      2.000000
  0.026360  0.053440  0.027002      2.000000
  0.026363 -0.053438 -0.027001      2.000000
  0.052722  0.053441  0.027002      2.000000
  0.052725 -0.053438 -0.027001      2.000000
  0.079083  0.053441  0.027002      2.000000
  0.079086 -0.053437 -0.027001      2.000000
  0.000001 -0.053204  0.026646      2.000000
  0.026363 -0.053203  0.026646      2.000000
  0.026361  0.053205 -0.026646      2.000000
  0.052724 -0.053203  0.026646      2.000000
  0.052722  0.053206 -0.026646      2.000000
  0.079086 -0.053202  0.026646      2.000000
  0.079084  0.053206 -0.026646      2.000000
  0.000000 -0.026543  0.026735      2.000000
  0.026362 -0.026543  0.026735      2.000000
  0.026361  0.026544 -0.026735      2.000000
  0.052724 -0.026542  0.026735      2.000000
  0.052723  0.026545 -0.026735      2.000000
  0.079085 -0.026541  0.026735      2.000000
  0.079084  0.026546 -0.026735      2.000000
 -0.000000  0.000235  0.053647      2.000000
  0.026361  0.000236  0.053647      2.000000
  0.026362 -0.000234 -0.053647      2.000000
  0.052723  0.000236  0.053647      2.000000
  0.052724 -0.000233 -0.053647      2.000000
  0.079084  0.000237  0.053648      2.000000
  0.079085 -0.000233 -0.053647      2.000000
 -0.000001  0.026896  0.053736      2.000000
  0.026361  0.026896  0.053736      2.000000
  0.026363 -0.026895 -0.053736      2.000000
  0.052722  0.026897  0.053736      2.000000
  0.052724 -0.026894 -0.053736      2.000000
  0.079084  0.026898  0.053736      2.000000
  0.079086 -0.026894 -0.053736      2.000000
 -0.000002  0.053557  0.053825      2.000000
  0.026360  0.053557  0.053825      2.000000
  0.026363 -0.053556 -0.053825      2.000000
  0.052722  0.053558  0.053825      2.000000
  0.052725 -0.053555 -0.053825      2.000000
  0.079083  0.053559  0.053825      2.000000
  0.079086 -0.053554 -0.053825      2.000000
  0.000001 -0.053087  0.053470      2.000000
  0.026362 -0.053086  0.053470      2.000000
  0.026361  0.053087 -0.053470      2.000000
  0.052724 -0.053085  0.053470      2.000000
  0.052722  0.053088 -0.053469      2.000000
  0.079086 -0.053085  0.053470      2.000000
  0.079084  0.053089 -0.053469      2.000000
  0.000000 -0.026426  0.053558      2.000000
  0.026362 -0.026425  0.053559      2.000000
  0.026361  0.026427 -0.053558      2.000000
  0.052723 -0.026424  0.053559      2.000000
  0.052723  0.026427 -0.053558      2.000000
  0.079085 -0.026424  0.053559      2.000000
  0.079085  0.026428 -0.053558      2.000000
 -0.000001  0.000352  0.080471      2.000000
  0.026361  0.000353  0.080471      2.000000
  0.026362 -0.000352 -0.080471      2.000000
  0.052723  0.000354  0.080471      2.000000
  0.052724 -0.000351 -0.080471      2.000000
  0.079084  0.000355  0.080471      2.000000
  0.079085 -0.000350 -0.080471      2.000000
 -0.000001  0.027013  0.080560      2.000000
  0.026360  0.027014  0.080560      2.000000
  0.026363 -0.027012 -0.080560      2.000000
  0.052722  0.027015  0.080560      2.000000
  0.052724 -0.027012 -0.080560      2.000000
  0.079084  0.027015  0.080560      2.000000
  0.079086 -0.027011 -0.080560      2.000000
 -0.000002  0.053674  0.080649      2.000000
  0.026360  0.053675  0.080649      2.000000
  0.026363 -0.053673 -0.080649      2.000000
  0.052721  0.053675  0.080649      2.000000
  0.052725 -0.053673 -0.080649      2.000000
  0.079083  0.053676  0.080649      2.000000
  0.079087 -0.053672 -0.080649      2.000000
  0.000001 -0.052969  0.080293      2.000000
  0.026362 -0.052969  0.080293      2.000000
  0.026361  0.052970 -0.080293      2.000000
  0.052724 -0.052968  0.080293      2.000000
  0.052723  0.052971 -0.080293      2.000000
  0.079085 -0.052967  0.080293      2.000000
  0.079084  0.052971 -0.080293      2.000000
  0.000000 -0.026308  0.080382      2.000000
  0.026362 -0.026308  0.080382      2.000000
  0.026362  0.026309 -0.080382      2.000000
  0.052723 -0.026307  0.080382      2.000000
  0.052723  0.026310 -0.080382      2.000000
  0.079085 -0.026306  0.080382      2.000000
  0.079085  0.026311 -0.080382      2.000000
 


--------------------------------------------------------------------------------------------------------




 Dimension of arrays:
   k-points           NKPTS =    123   k-points in BZ     NKDIM =    123   number of bands    NBANDS=     96
   number of dos      NEDOS =    301   number of ions     NIONS =     20
   non local maximal  LDIM  =      6   non local SUM 2l+1 LMDIM =     18
   total plane-waves  NPLWV =  89600
   max r-space proj   IRMAX =   6885   max aug-charges    IRDMAX=  19942
   dimension x,y,z NGX =    40 NGY =   56 NGZ =   40
   dimension x,y,z NGXF=    80 NGYF=  112 NGZF=   80
   support grid    NGXF=    80 NGYF=  112 NGZF=   80
   ions per type =               4   4  12
   NGX,Y,Z   is equivalent  to a cutoff of  12.27, 12.41, 12.49 a.u.
   NGXF,Y,Z  is equivalent  to a cutoff of  24.54, 24.82, 24.97 a.u.

 SYSTEM =  unknown system                          
 POSCAR =  Ca4 V4 O12                              

 Startparameter for this run:
   NWRITE =      2    write-flag & timer
   PREC   = accura    normal or accurate (medium, high low for compatibility)
   ISTART =      0    job   : 0-new  1-cont  2-samecut
   ICHARG =      1    charge: 1-file 2-atom 10-const
   ISPIN  =      2    spin polarized calculation?
   LNONCOLLINEAR =      F non collinear calculations
   LSORBIT =      F    spin-orbit coupling
   INIWAV =      1    electr: 0-lowe 1-rand  2-diag
   LASPH  =      T    aspherical Exc in radial PAW
   METAGGA=      F    non-selfconsistent MetaGGA calc.

 Electronic Relaxation 1
   ENCUT  =  520.0 eV  38.22 Ry    6.18 a.u.  10.08 13.95  9.90*2*pi/ulx,y,z
   ENINI  =  520.0     initial cutoff
   ENAUG  =  605.4 eV  augmentation charge cutoff
   NELM   =    100;   NELMIN=  6; NELMDL= -5     # of ELM steps 
   EDIFF  = 0.1E-04   stopping-criterion for ELM
   LREAL  =      T    real-space projection
   NLSPLINE    = F    spline interpolate recip. space projectors
   LCOMPAT=      F    compatible to vasp.4.4
   GGA_COMPAT  = T    GGA compatible to vasp.4.4-vasp.4.6
   LMAXPAW     = -100 max onsite density
   LMAXMIX     =    4 max onsite mixed and CHGCAR
   VOSKOWN=      0    Vosko Wilk Nusair interpolation
   ROPT   =   -0.00025  -0.00025  -0.00025
 Ionic relaxation
   EDIFFG = -.3E-01   stopping-criterion for IOM
   NSW    =     99    number of steps for IOM
   NBLOCK =      1;   KBLOCK =     99    inner block; outer block 
   IBRION =      2    ionic relax: 0-MD 1-quasi-New 2-CG
   NFREE  =      1    steps in history (QN), initial steepest desc. (CG)
   ISIF   =      3    stress and relaxation
   IWAVPR =     11    prediction:  0-non 1-charg 2-wave 3-comb
   ISYM   =      0    0-nonsym 1-usesym 2-fastsym
   LCORR  =      T    Harris-Foulkes like correction to forces

   POTIM  = 0.5000    time-step for ionic-motion
   TEIN   =    0.0    initial temperature
   TEBEG  =    0.0;   TEEND  =   0.0 temperature during run
   SMASS  =  -3.00    Nose mass-parameter (am)
   estimated Nose-frequenzy (Omega)   =  0.10E-29 period in steps = 0.13E+47 mass=  -0.671E-27a.u.
   SCALEE = 1.0000    scale energy and forces
   NPACO  =    256;   APACO  = 16.0  distance and # of slots for P.C.
   PSTRESS=    0.0 pullay stress

  Mass of Ions in am
   POMASS =  40.08 50.94 16.00
  Ionic Valenz
   ZVAL   =  10.00 11.00  6.00
  Atomic Wigner-Seitz radii
   RWIGS  =  -1.00 -1.00 -1.00
  virtual crystal weights 
   VCA    =   1.00  1.00  1.00
   NELECT =     156.0000    total number of electrons
   NUPDOWN=      -1.0000    fix difference up-down

 DOS related values:
   EMIN   =  10.00;   EMAX   =-10.00  energy-range for DOS
   EFERMI =   0.00
   ISMEAR =     0;   SIGMA  =   0.05  broadening in eV -4-tet -1-fermi 0-gaus

 Electronic relaxation 2 (details)
   IALGO  =     38    algorithm
   LDIAG  =      T    sub-space diagonalisation (order eigenvalues)
   LSUBROT=      F    optimize rotation matrix (better conditioning)
   TURBO    =      0    0=normal 1=particle mesh
   IRESTART =      0    0=no restart 2=restart with 2 vectors
   NREBOOT  =      0    no. of reboots
   NMIN     =      0    reboot dimension
   EREF     =   0.00    reference energy to select bands
   IMIX   =      4    mixing-type and parameters
     AMIX     =   0.40;   BMIX     =  1.00
     AMIX_MAG =   1.60;   BMIX_MAG =  1.00
     AMIN     =   0.10
     WC   =   100.;   INIMIX=   1;  MIXPRE=   1;  MAXMIX= -45

 Intra band minimization:
   WEIMIN = 0.0010     energy-eigenvalue tresh-hold
   EBREAK =  0.26E-07  absolut break condition
   DEPER  =   0.30     relativ break condition  

   TIME   =   0.40     timestep for ELM

  volume/ion in A,a.u.               =      10.83        73.05
  Fermi-wavevector in a.u.,A,eV,Ry     =   1.467656  2.773467 29.307130  2.154013
  Thomas-Fermi vector in A             =   2.583247
 
 Write flags
   LWAVE        =      F    write WAVECAR
   LDOWNSAMPLE  =      F    k-point downsampling of WAVECAR
   LCHARG       =      T    write CHGCAR
   LVTOT        =      F    write LOCPOT, total local potential
   LVHAR        =      F    write LOCPOT, Hartree potential only
   LELF         =      F    write electronic localiz. function (ELF)
   LORBIT       =     11    0 simple, 1 ext, 2 COOP (PROOUT), +10 PAW based schemes


 Dipole corrections
   LMONO  =      F    monopole corrections only (constant potential shift)
   LDIPOL =      F    correct potential (dipole corrections)
   IDIPOL =      0    1-x, 2-y, 3-z, 4-all directions 
   EPSILON=  1.0000000 bulk dielectric constant

 LDA+U is selected, type is set to LDAUTYPE =  2
   angular momentum for each species LDAUL =    -1    2   -1
   U (eV)           for each species LDAUU =   0.0  1.0  0.0
   J (eV)           for each species LDAUJ =   0.0  0.0  0.0
 Exchange correlation treatment:
   GGA     =    --    GGA type
   LEXCH   =     8    internal setting for exchange type
   VOSKOWN=      0    Vosko Wilk Nusair interpolation
   LHFCALC =     F    Hartree Fock is set to
   LHFONE  =     F    Hartree Fock one center treatment
   AEXX    =    0.0000 exact exchange contribution

 Linear response parameters
   LEPSILON=     F    determine dielectric tensor
   LRPA    =     F    only Hartree local field effects (RPA)
   LNABLA  =     F    use nabla operator in PAW spheres
   LVEL    =     F    velocity operator in full k-point grid
   LINTERFAST=   F  fast interpolation
   KINTER  =     0    interpolate to denser k-point grid
   CSHIFT  =0.1000    complex shift for real part using Kramers Kronig
   OMEGAMAX=  -1.0    maximum frequency
   DEG_THRESHOLD= 0.2000000E-02 threshold for treating states as degnerate
   RTIME   =   -0.100 relaxation time in fs
  (WPLASMAI=    0.000 imaginary part of plasma frequency in eV, 0.658/RTIME)
   DFIELD  = 0.0000000 0.0000000 0.0000000 field for delta impulse in time
 
 Orbital magnetization related:
   ORBITALMAG=     F  switch on orbital magnetization
   LCHIMAG   =     F  perturbation theory with respect to B field
   DQ        =  0.001000  dq finite difference perturbation B field
   LLRAUG    =     F  two centre corrections for induced B field



--------------------------------------------------------------------------------------------------------


 conjugate gradient relaxation of ions
 charge density and potential will be updated during run
 spin polarized calculation
 Variant of blocked Davidson
 Davidson routine will perform the subspace rotation
 perform sub-space diagonalisation
    after iterative eigenvector-optimisation
 modified Broyden-mixing scheme, WC =      100.0
 initial mixing is a Kerker type mixing with AMIX =  0.4000 and BMIX =      1.0000
 Hartree-type preconditioning will be used
 using additional bands           18
 real space projection scheme for non local part
 use partial core corrections
 calculate Harris-corrections to forces 
   (improved forces if not selfconsistent)
 use gradient corrections 
 use of overlap-Matrix (Vanderbilt PP)
 Gauss-broadening in eV      SIGMA  =   0.05


--------------------------------------------------------------------------------------------------------


  energy-cutoff  :      520.00
  volume of cell :      216.51
      direct lattice vectors                 reciprocal lattice vectors
     5.419138853  0.000122478  0.000039339     0.184531164  0.000005163  0.000000265
    -0.000209839  7.501756244 -0.032848954    -0.000003016  0.133304065  0.000444568
    -0.000007162 -0.017761696  5.325858654    -0.000001382  0.000822196  0.187765892

  length of vectors
     5.419138855  7.501828167  5.325888272     0.184531164  0.133304806  0.187767693


 
 k-points in units of 2pi/SCALE and weight: K-points file                           
   0.00000000  0.00000000  0.00000000       0.004
   0.02636159  0.00000074  0.00000004       0.008
   0.05272319  0.00000148  0.00000008       0.008
   0.07908478  0.00000221  0.00000011       0.008
  -0.00000060  0.02666081  0.00008891       0.008
   0.02636099  0.02666155  0.00008895       0.008
   0.02636220 -0.02666008 -0.00008888       0.008
   0.05272259  0.02666229  0.00008899       0.008
   0.05272379 -0.02665934 -0.00008884       0.008
   0.07908418  0.02666303  0.00008903       0.008
   0.07908539 -0.02665860 -0.00008880       0.008
  -0.00000121  0.05332163  0.00017783       0.008
   0.02636039  0.05332236  0.00017787       0.008
   0.02636280 -0.05332089 -0.00017779       0.008
   0.05272198  0.05332310  0.00017790       0.008
   0.05272440 -0.05332015 -0.00017775       0.008
   0.07908358  0.05332384  0.00017794       0.008
   0.07908599 -0.05331941 -0.00017771       0.008
  -0.00000020  0.00011746  0.02682370       0.008
   0.02636140  0.00011819  0.02682374       0.008
   0.02636179 -0.00011672 -0.02682366       0.008
   0.05272299  0.00011893  0.02682377       0.008
   0.05272339 -0.00011598 -0.02682362       0.008
   0.07908459  0.00011967  0.02682381       0.008
   0.07908498 -0.00011524 -0.02682359       0.008
  -0.00000080  0.02677827  0.02691261       0.008
   0.02636079  0.02677901  0.02691265       0.008
   0.02636240 -0.02677753 -0.02691257       0.008
   0.05272239  0.02677974  0.02691269       0.008
   0.05272399 -0.02677679 -0.02691254       0.008
   0.07908398  0.02678048  0.02691273       0.008
   0.07908559 -0.02677606 -0.02691250       0.008
  -0.00000140  0.05343908  0.02700153       0.008
   0.02636019  0.05343982  0.02700156       0.008
   0.02636300 -0.05343835 -0.02700149       0.008
   0.05272179  0.05344056  0.02700160       0.008
   0.05272459 -0.05343761 -0.02700145       0.008
   0.07908338  0.05344130  0.02700164       0.008
   0.07908619 -0.05343687 -0.02700141       0.008
   0.00000101 -0.05320417  0.02664587       0.008
   0.02636260 -0.05320343  0.02664591       0.008
   0.02636059  0.05320491 -0.02664583       0.008
   0.05272420 -0.05320269  0.02664595       0.008
   0.05272218  0.05320564 -0.02664580       0.008
   0.07908579 -0.05320196  0.02664599       0.008
   0.07908378  0.05320638 -0.02664576       0.008
   0.00000041 -0.02654336  0.02673479       0.008
   0.02636200 -0.02654262  0.02673482       0.008
   0.02636119  0.02654409 -0.02673475       0.008
   0.05272360 -0.02654188  0.02673486       0.008
   0.05272278  0.02654483 -0.02673471       0.008
   0.07908519 -0.02654114  0.02673490       0.008
   0.07908438  0.02654557 -0.02673467       0.008
  -0.00000039  0.00023491  0.05364740       0.008
   0.02636120  0.00023565  0.05364744       0.008
   0.02636199 -0.00023418 -0.05364736       0.008
   0.05272279  0.00023639  0.05364747       0.008
   0.05272358 -0.00023344 -0.05364732       0.008
   0.07908439  0.00023713  0.05364751       0.008
   0.07908518 -0.00023270 -0.05364728       0.008
  -0.00000100  0.02689573  0.05373631       0.008
   0.02636060  0.02689646  0.05373635       0.008
   0.02636259 -0.02689499 -0.05373627       0.008
   0.05272219  0.02689720  0.05373639       0.008
   0.05272419 -0.02689425 -0.05373624       0.008
   0.07908379  0.02689794  0.05373643       0.008
   0.07908578 -0.02689351 -0.05373620       0.008
  -0.00000160  0.05355654  0.05382523       0.008
   0.02635999  0.05355728  0.05382526       0.008
   0.02636320 -0.05355580 -0.05382519       0.008
   0.05272159  0.05355801  0.05382530       0.008
   0.05272479 -0.05355506 -0.05382515       0.008
   0.07908318  0.05355875  0.05382534       0.008
   0.07908639 -0.05355433 -0.05382511       0.008
   0.00000081 -0.05308671  0.05346957       0.008
   0.02636241 -0.05308598  0.05346961       0.008
   0.02636078  0.05308745 -0.05346953       0.008
   0.05272400 -0.05308524  0.05346965       0.008
   0.05272238  0.05308819 -0.05346949       0.008
   0.07908560 -0.05308450  0.05346968       0.008
   0.07908397  0.05308893 -0.05346946       0.008
   0.00000021 -0.02642590  0.05355848       0.008
   0.02636180 -0.02642516  0.05355852       0.008
   0.02636139  0.02642664 -0.05355845       0.008
   0.05272340 -0.02642442  0.05355856       0.008
   0.05272298  0.02642738 -0.05355841       0.008
   0.07908499 -0.02642369  0.05355860       0.008
   0.07908458  0.02642811 -0.05355837       0.008
  -0.00000059  0.00035237  0.08047110       0.008
   0.02636100  0.00035311  0.08047113       0.008
   0.02636219 -0.00035163 -0.08047106       0.008
   0.05272260  0.00035384  0.08047117       0.008
   0.05272378 -0.00035089 -0.08047102       0.008
   0.07908419  0.00035458  0.08047121       0.008
   0.07908538 -0.00035016 -0.08047098       0.008
  -0.00000120  0.02701318  0.08056001       0.008
   0.02636040  0.02701392  0.08056005       0.008
   0.02636279 -0.02701245 -0.08055997       0.008
   0.05272199  0.02701466  0.08056009       0.008
   0.05272438 -0.02701171 -0.08055993       0.008
   0.07908359  0.02701540  0.08056012       0.008
   0.07908598 -0.02701097 -0.08055990       0.008
  -0.00000180  0.05367400  0.08064892       0.008
   0.02635980  0.05367473  0.08064896       0.008
   0.02636339 -0.05367326 -0.08064889       0.008
   0.05272139  0.05367547  0.08064900       0.008
   0.05272499 -0.05367252 -0.08064885       0.008
   0.07908299  0.05367621  0.08064904       0.008
   0.07908658 -0.05367178 -0.08064881       0.008
   0.00000061 -0.05296926  0.08029327       0.008
   0.02636221 -0.05296852  0.08029331       0.008
   0.02636098  0.05296999 -0.08029323       0.008
   0.05272380 -0.05296778  0.08029335       0.008
   0.05272258  0.05297073 -0.08029319       0.008
   0.07908540 -0.05296704  0.08029338       0.008
   0.07908417  0.05297147 -0.08029316       0.008
   0.00000001 -0.02630844  0.08038218       0.008
   0.02636161 -0.02630771  0.08038222       0.008
   0.02636158  0.02630918 -0.08038215       0.008
   0.05272320 -0.02630697  0.08038226       0.008
   0.05272318  0.02630992 -0.08038211       0.008
   0.07908480 -0.02630623  0.08038230       0.008
   0.07908477  0.02631066 -0.08038207       0.008
 
 k-points in reciprocal lattice and weights: K-points file                           
   0.00000000  0.00000000  0.00000000       0.004
   0.14285714  0.00000000  0.00000000       0.008
   0.28571429 -0.00000000  0.00000000       0.008
   0.42857143 -0.00000000 -0.00000000       0.008
   0.00000000  0.20000000  0.00000000       0.008
   0.14285714  0.20000000  0.00000000       0.008
   0.14285714 -0.20000000 -0.00000000       0.008
   0.28571429  0.20000000  0.00000000       0.008
   0.28571429 -0.20000000 -0.00000000       0.008
   0.42857143  0.20000000 -0.00000000       0.008
   0.42857143 -0.20000000 -0.00000000       0.008
   0.00000000  0.40000000  0.00000000       0.008
   0.14285714  0.40000000  0.00000000       0.008
   0.14285714 -0.40000000 -0.00000000       0.008
   0.28571429  0.40000000  0.00000000       0.008
   0.28571429 -0.40000000 -0.00000000       0.008
   0.42857143  0.40000000 -0.00000000       0.008
   0.42857143 -0.40000000 -0.00000000       0.008
  -0.00000000 -0.00000000  0.14285714       0.008
   0.14285714  0.00000000  0.14285714       0.008
   0.14285714  0.00000000 -0.14285714       0.008
   0.28571429  0.00000000  0.14285714       0.008
   0.28571429  0.00000000 -0.14285714       0.008
   0.42857143 -0.00000000  0.14285714       0.008
   0.42857143 -0.00000000 -0.14285714       0.008
   0.00000000  0.20000000  0.14285714       0.008
   0.14285714  0.20000000  0.14285714       0.008
   0.14285714 -0.20000000 -0.14285714       0.008
   0.28571429  0.20000000  0.14285714       0.008
   0.28571429 -0.20000000 -0.14285714       0.008
   0.42857143  0.20000000  0.14285714       0.008
   0.42857143 -0.20000000 -0.14285714       0.008
   0.00000000  0.40000000  0.14285714       0.008
   0.14285714  0.40000000  0.14285714       0.008
   0.14285714 -0.40000000 -0.14285714       0.008
   0.28571429  0.40000000  0.14285714       0.008
   0.28571429 -0.40000000 -0.14285714       0.008
   0.42857143  0.40000000  0.14285714       0.008
   0.42857143 -0.40000000 -0.14285714       0.008
  -0.00000000 -0.40000000  0.14285714       0.008
   0.14285714 -0.40000000  0.14285714       0.008
   0.14285714  0.40000000 -0.14285714       0.008
   0.28571429 -0.40000000  0.14285714       0.008
   0.28571429  0.40000000 -0.14285714       0.008
   0.42857143 -0.40000000  0.14285714       0.008
   0.42857143  0.40000000 -0.14285714       0.008
  -0.00000000 -0.20000000  0.14285714       0.008
   0.14285714 -0.20000000  0.14285714       0.008
   0.14285714  0.20000000 -0.14285714       0.008
   0.28571429 -0.20000000  0.14285714       0.008
   0.28571429  0.20000000 -0.14285714       0.008
   0.42857143 -0.20000000  0.14285714       0.008
   0.42857143  0.20000000 -0.14285714       0.008
  -0.00000000 -0.00000000  0.28571429       0.008
   0.14285714 -0.00000000  0.28571429       0.008
   0.14285714  0.00000000 -0.28571429       0.008
   0.28571429  0.00000000  0.28571429       0.008
   0.28571429  0.00000000 -0.28571429       0.008
   0.42857143 -0.00000000  0.28571429       0.008
   0.42857143 -0.00000000 -0.28571429       0.008
  -0.00000000  0.20000000  0.28571429       0.008
   0.14285714  0.20000000  0.28571429       0.008
   0.14285714 -0.20000000 -0.28571429       0.008
   0.28571429  0.20000000  0.28571429       0.008
   0.28571429 -0.20000000 -0.28571429       0.008
   0.42857143  0.20000000  0.28571429       0.008
   0.42857143 -0.20000000 -0.28571429       0.008
   0.00000000  0.40000000  0.28571429       0.008
   0.14285714  0.40000000  0.28571429       0.008
   0.14285714 -0.40000000 -0.28571429       0.008
   0.28571429  0.40000000  0.28571429       0.008
   0.28571429 -0.40000000 -0.28571429       0.008
   0.42857143  0.40000000  0.28571429       0.008
   0.42857143 -0.40000000 -0.28571429       0.008
  -0.00000000 -0.40000000  0.28571429       0.008
   0.14285714 -0.40000000  0.28571429       0.008
   0.14285714  0.40000000 -0.28571429       0.008
   0.28571429 -0.40000000  0.28571429       0.008
   0.28571429  0.40000000 -0.28571429       0.008
   0.42857143 -0.40000000  0.28571429       0.008
   0.42857143  0.40000000 -0.28571429       0.008
  -0.00000000 -0.20000000  0.28571429       0.008
   0.14285714 -0.20000000  0.28571429       0.008
   0.14285714  0.20000000 -0.28571429       0.008
   0.28571429 -0.20000000  0.28571429       0.008
   0.28571429  0.20000000 -0.28571429       0.008
   0.42857143 -0.20000000  0.28571429       0.008
   0.42857143  0.20000000 -0.28571429       0.008
  -0.00000000  0.00000000  0.42857143       0.008
   0.14285714  0.00000000  0.42857143       0.008
   0.14285714  0.00000000 -0.42857143       0.008
   0.28571429 -0.00000000  0.42857143       0.008
   0.28571429 -0.00000000 -0.42857143       0.008
   0.42857143 -0.00000000  0.42857143       0.008
   0.42857143 -0.00000000 -0.42857143       0.008
   0.00000000  0.20000000  0.42857143       0.008
   0.14285714  0.20000000  0.42857143       0.008
   0.14285714 -0.20000000 -0.42857143       0.008
   0.28571429  0.20000000  0.42857143       0.008
   0.28571429 -0.20000000 -0.42857143       0.008
   0.42857143  0.20000000  0.42857143       0.008
   0.42857143 -0.20000000 -0.42857143       0.008
  -0.00000000  0.40000000  0.42857143       0.008
   0.14285714  0.40000000  0.42857143       0.008
   0.14285714 -0.40000000 -0.42857143       0.008
   0.28571429  0.40000000  0.42857143       0.008
   0.28571429 -0.40000000 -0.42857143       0.008
   0.42857143  0.40000000  0.42857143       0.008
   0.42857143 -0.40000000 -0.42857143       0.008
  -0.00000000 -0.40000000  0.42857143       0.008
   0.14285714 -0.40000000  0.42857143       0.008
   0.14285714  0.40000000 -0.42857143       0.008
   0.28571429 -0.40000000  0.42857143       0.008
   0.28571429  0.40000000 -0.42857143       0.008
   0.42857143 -0.40000000  0.42857143       0.008
   0.42857143  0.40000000 -0.42857143       0.008
  -0.00000000 -0.20000000  0.42857143       0.008
   0.14285714 -0.20000000  0.42857143       0.008
   0.14285714  0.20000000 -0.42857143       0.008
   0.28571429 -0.20000000  0.42857143       0.008
   0.28571429  0.20000000 -0.42857143       0.008
   0.42857143 -0.20000000  0.42857143       0.008
   0.42857143  0.20000000 -0.42857143       0.008
 
 position of ions in fractional coordinates (direct lattice) 
   0.54069452  0.24925600  0.50874840
   0.04069812  0.25074188  0.99125172
   0.45925871  0.75108442  0.49085955
   0.95925794  0.74891324  0.00913993
   0.00004653  0.00196225  0.49966822
   0.50004617  0.49803422  0.00033738
   0.99999718  0.50117788  0.50056441
   0.50000124  0.99882921  0.99943814
   0.98835259  0.25602140  0.43129840
   0.48835143  0.24397732  0.06870703
   0.01179586  0.74458540  0.56858279
   0.51179947  0.75542046  0.93141973
   0.71145903  0.96287636  0.28944366
   0.21144838  0.53712243  0.21054871
   0.29499042  0.46453384  0.71959777
   0.79499988  0.03546765  0.78039817
   0.28857518  0.03824200  0.71028083
   0.78857717  0.46175478  0.78971397
   0.70483027  0.53550052  0.28094010
   0.20481990  0.96449875  0.21906110
 
 position of ions in cartesian coordinates  (Angst):
   2.93004272  1.86088775  2.70135556
   0.22048905  1.86340315  5.27103153
   2.48862557  5.62578997  2.58959433
   5.19819476  5.61811973  0.02411471
   0.00024817  0.00584539  2.66109785
   2.70971512  3.73618657 -0.01454339
   5.41901483  3.75094586  2.64951144
   2.70935942  7.47528276  5.29007542
   5.35596308  1.91307059  2.28866319
   2.64639252  1.82909781  0.35792876
   0.06376311  5.57560066  3.00373316
   2.77334718  5.65049926  4.93581518
   3.85529116  7.21820986  1.50993451
   1.14575394  4.02564775  1.10371710
   1.59849142  3.47207449  3.81722819
   4.30820172  0.25230586  4.15515653
   1.56381585  0.27430170  3.78161045
   4.27330665  3.45004175  4.19076783
   3.81945869  4.01229069  1.47868434
   1.10974354  7.23156868  1.13501372
 


--------------------------------------------------------------------------------------------------------


 k-point   1 :   0.0000 0.0000 0.0000  plane waves:    5811
 k-point   2 :   0.1429 0.0000 0.0000  plane waves:    5802
 k-point   3 :   0.2857-0.0000 0.0000  plane waves:    5796
 k-point   4 :   0.4286-0.0000-0.0000  plane waves:    5844
 k-point   5 :   0.0000 0.2000 0.0000  plane waves:    5798
 k-point   6 :   0.1429 0.2000 0.0000  plane waves:    5807
 k-point   7 :   0.1429-0.2000-0.0000  plane waves:    5807
 k-point   8 :   0.2857 0.2000 0.0000  plane waves:    5820
 k-point   9 :   0.2857-0.2000-0.0000  plane waves:    5820
 k-point  10 :   0.4286 0.2000-0.0000  plane waves:    5836
 k-point  11 :   0.4286-0.2000-0.0000  plane waves:    5836
 k-point  12 :   0.0000 0.4000 0.0000  plane waves:    5826
 k-point  13 :   0.1429 0.4000 0.0000  plane waves:    5833
 k-point  14 :   0.1429-0.4000-0.0000  plane waves:    5833
 k-point  15 :   0.2857 0.4000 0.0000  plane waves:    5840
 k-point  16 :   0.2857-0.4000-0.0000  plane waves:    5839
 k-point  17 :   0.4286 0.4000-0.0000  plane waves:    5835
 k-point  18 :   0.4286-0.4000-0.0000  plane waves:    5835
 k-point  19 :  -0.0000-0.0000 0.1429  plane waves:    5807
 k-point  20 :   0.1429 0.0000 0.1429  plane waves:    5804
 k-point  21 :   0.1429 0.0000-0.1429  plane waves:    5804
 k-point  22 :   0.2857 0.0000 0.1429  plane waves:    5811
 k-point  23 :   0.2857 0.0000-0.1429  plane waves:    5811
 k-point  24 :   0.4286-0.0000 0.1429  plane waves:    5839
 k-point  25 :   0.4286-0.0000-0.1429  plane waves:    5839
 k-point  26 :   0.0000 0.2000 0.1429  plane waves:    5808
 k-point  27 :   0.1429 0.2000 0.1429  plane waves:    5814
 k-point  28 :   0.1429-0.2000-0.1429  plane waves:    5814
 k-point  29 :   0.2857 0.2000 0.1429  plane waves:    5828
 k-point  30 :   0.2857-0.2000-0.1429  plane waves:    5828
 k-point  31 :   0.4286 0.2000 0.1429  plane waves:    5834
 k-point  32 :   0.4286-0.2000-0.1429  plane waves:    5834
 k-point  33 :   0.0000 0.4000 0.1429  plane waves:    5832
 k-point  34 :   0.1429 0.4000 0.1429  plane waves:    5827
 k-point  35 :   0.1429-0.4000-0.1429  plane waves:    5827
 k-point  36 :   0.2857 0.4000 0.1429  plane waves:    5829
 k-point  37 :   0.2857-0.4000-0.1429  plane waves:    5829
 k-point  38 :   0.4286 0.4000 0.1429  plane waves:    5837
 k-point  39 :   0.4286-0.4000-0.1429  plane waves:    5837
 k-point  40 :  -0.0000-0.4000 0.1429  plane waves:    5810
 k-point  41 :   0.1429-0.4000 0.1429  plane waves:    5821
 k-point  42 :   0.1429 0.4000-0.1429  plane waves:    5821
 k-point  43 :   0.2857-0.4000 0.1429  plane waves:    5831
 k-point  44 :   0.2857 0.4000-0.1429  plane waves:    5831
 k-point  45 :   0.4286-0.4000 0.1429  plane waves:    5835
 k-point  46 :   0.4286 0.4000-0.1429  plane waves:    5835
 k-point  47 :  -0.0000-0.2000 0.1429  plane waves:    5811
 k-point  48 :   0.1429-0.2000 0.1429  plane waves:    5813
 k-point  49 :   0.1429 0.2000-0.1429  plane waves:    5813
 k-point  50 :   0.2857-0.2000 0.1429  plane waves:    5830
 k-point  51 :   0.2857 0.2000-0.1429  plane waves:    5830
 k-point  52 :   0.4286-0.2000 0.1429  plane waves:    5831
 k-point  53 :   0.4286 0.2000-0.1429  plane waves:    5831
 k-point  54 :  -0.0000-0.0000 0.2857  plane waves:    5818
 k-point  55 :   0.1429-0.0000 0.2857  plane waves:    5824
 k-point  56 :   0.1429 0.0000-0.2857  plane waves:    5824
 k-point  57 :   0.2857 0.0000 0.2857  plane waves:    5827
 k-point  58 :   0.2857 0.0000-0.2857  plane waves:    5827
 k-point  59 :   0.4286-0.0000 0.2857  plane waves:    5833
 k-point  60 :   0.4286-0.0000-0.2857  plane waves:    5833
 k-point  61 :  -0.0000 0.2000 0.2857  plane waves:    5814
 k-point  62 :   0.1429 0.2000 0.2857  plane waves:    5830
 k-point  63 :   0.1429-0.2000-0.2857  plane waves:    5829
 k-point  64 :   0.2857 0.2000 0.2857  plane waves:    5845
 k-point  65 :   0.2857-0.2000-0.2857  plane waves:    5845
 k-point  66 :   0.4286 0.2000 0.2857  plane waves:    5833
 k-point  67 :   0.4286-0.2000-0.2857  plane waves:    5833
 k-point  68 :   0.0000 0.4000 0.2857  plane waves:    5820
 k-point  69 :   0.1429 0.4000 0.2857  plane waves:    5830
 k-point  70 :   0.1429-0.4000-0.2857  plane waves:    5830
 k-point  71 :   0.2857 0.4000 0.2857  plane waves:    5850
 k-point  72 :   0.2857-0.4000-0.2857  plane waves:    5849
 k-point  73 :   0.4286 0.4000 0.2857  plane waves:    5845
 k-point  74 :   0.4286-0.4000-0.2857  plane waves:    5845
 k-point  75 :  -0.0000-0.4000 0.2857  plane waves:    5834
 k-point  76 :   0.1429-0.4000 0.2857  plane waves:    5830
 k-point  77 :   0.1429 0.4000-0.2857  plane waves:    5830
 k-point  78 :   0.2857-0.4000 0.2857  plane waves:    5833
 k-point  79 :   0.2857 0.4000-0.2857  plane waves:    5833
 k-point  80 :   0.4286-0.4000 0.2857  plane waves:    5843
 k-point  81 :   0.4286 0.4000-0.2857  plane waves:    5843
 k-point  82 :  -0.0000-0.2000 0.2857  plane waves:    5834
 k-point  83 :   0.1429-0.2000 0.2857  plane waves:    5827
 k-point  84 :   0.1429 0.2000-0.2857  plane waves:    5828
 k-point  85 :   0.2857-0.2000 0.2857  plane waves:    5838
 k-point  86 :   0.2857 0.2000-0.2857  plane waves:    5838
 k-point  87 :   0.4286-0.2000 0.2857  plane waves:    5828
 k-point  88 :   0.4286 0.2000-0.2857  plane waves:    5828
 k-point  89 :  -0.0000 0.0000 0.4286  plane waves:    5835
 k-point  90 :   0.1429 0.0000 0.4286  plane waves:    5830
 k-point  91 :   0.1429 0.0000-0.4286  plane waves:    5830
 k-point  92 :   0.2857-0.0000 0.4286  plane waves:    5834
 k-point  93 :   0.2857-0.0000-0.4286  plane waves:    5834
 k-point  94 :   0.4286-0.0000 0.4286  plane waves:    5832
 k-point  95 :   0.4286-0.0000-0.4286  plane waves:    5832
 k-point  96 :   0.0000 0.2000 0.4286  plane waves:    5829
 k-point  97 :   0.1429 0.2000 0.4286  plane waves:    5837
 k-point  98 :   0.1429-0.2000-0.4286  plane waves:    5837
 k-point  99 :   0.2857 0.2000 0.4286  plane waves:    5839
 k-point 100 :   0.2857-0.2000-0.4286  plane waves:    5839
 k-point 101 :   0.4286 0.2000 0.4286  plane waves:    5839
 k-point 102 :   0.4286-0.2000-0.4286  plane waves:    5839
 k-point 103 :  -0.0000 0.4000 0.4286  plane waves:    5829
 k-point 104 :   0.1429 0.4000 0.4286  plane waves:    5845
 k-point 105 :   0.1429-0.4000-0.4286  plane waves:    5845
 k-point 106 :   0.2857 0.4000 0.4286  plane waves:    5839
 k-point 107 :   0.2857-0.4000-0.4286  plane waves:    5839
 k-point 108 :   0.4286 0.4000 0.4286  plane waves:    5839
 k-point 109 :   0.4286-0.4000-0.4286  plane waves:    5839
 k-point 110 :  -0.0000-0.4000 0.4286  plane waves:    5830
 k-point 111 :   0.1429-0.4000 0.4286  plane waves:    5839
 k-point 112 :   0.1429 0.4000-0.4286  plane waves:    5839
 k-point 113 :   0.2857-0.4000 0.4286  plane waves:    5837
 k-point 114 :   0.2857 0.4000-0.4286  plane waves:    5837
 k-point 115 :   0.4286-0.4000 0.4286  plane waves:    5829
 k-point 116 :   0.4286 0.4000-0.4286  plane waves:    5829
 k-point 117 :  -0.0000-0.2000 0.4286  plane waves:    5830
 k-point 118 :   0.1429-0.2000 0.4286  plane waves:    5839
 k-point 119 :   0.1429 0.2000-0.4286  plane waves:    5839
 k-point 120 :   0.2857-0.2000 0.4286  plane waves:    5843
 k-point 121 :   0.2857 0.2000-0.4286  plane waves:    5843
 k-point 122 :   0.4286-0.2000 0.4286  plane waves:    5835
 k-point 123 :   0.4286 0.2000-0.4286  plane waves:    5835

 maximum and minimum number of plane-waves per node :      1526     1420

 maximum number of plane-waves:      5850
 maximum index in each direction: 
   IXMAX=   10   IYMAX=   14   IZMAX=   10
   IXMIN=  -10   IYMIN=  -14   IZMIN=  -10


 real space projection operators:
  total allocation   :       9019.69 KBytes
  max/ min on nodes  :       2267.69       2249.38


 parallel 3D FFT for wavefunctions:
    minimum data exchange during FFTs selected (reduces bandwidth)
 parallel 3D FFT for charge:
    minimum data exchange during FFTs selected (reduces bandwidth)


 total amount of memory used by VASP MPI-rank0   144284. kBytes
=======================================================================

   base      :      30000. kBytes
   nonlr-proj:       5098. kBytes
   fftplans  :       1851. kBytes
   grid      :       7049. kBytes
   one-center:        155. kBytes
   wavefun   :     100131. kBytes
 
     INWAV:  cpu time    0.0000: real time    0.0000
 Broyden mixing: mesh for mixing (old mesh)
   NGX = 21   NGY = 27   NGZ = 19
  (NGX  = 80   NGY  =112   NGZ  = 80)
  gives a total of  10773 points

 initial charge density was supplied:
 number of electron     155.9999944 magnetization       3.9999993
 keeping initial charge density in first step


--------------------------------------------------------------------------------------------------------


 Maximum index for non-local projection operator         1679
 Maximum index for augmentation-charges         1645 (set IRDMAX)


--------------------------------------------------------------------------------------------------------


 First call to EWALD:  gamma=   0.295
 Maximum number of real-space cells 3x 2x 3
 Maximum number of reciprocal cells 3x 3x 2

    FEWALD:  cpu time    0.0018: real time    0.0018


--------------------------------------- Iteration      1(   1)  ---------------------------------------


    POTLOK:  cpu time    0.0816: real time    0.0848
    SETDIJ:  cpu time    1.2602: real time    1.2602
atom =   5  type =  2  l = 2
 
 onsite density matrix
 
spin component  1
 
  0.6024  0.2581 -0.0683 -0.0583 -0.0938
  0.2581  0.3853 -0.0386 -0.0561 -0.0423
 -0.0683 -0.0386  0.2560 -0.0128  0.0526
 -0.0583 -0.0561 -0.0128  0.3551  0.0046
 -0.0938 -0.0423  0.0526  0.0046  0.2854
 
spin component  2
 
  0.1131 -0.0143  0.0039  0.0339  0.0103
 -0.0143  0.1313  0.0258 -0.0042  0.0374
  0.0039  0.0258  0.1737 -0.0483  0.0507
  0.0339 -0.0042 -0.0483  0.2909  0.0072
  0.0103  0.0374  0.0507  0.0072  0.2325
 
 occupancies and eigenvectors
 
  o =  0.0929  v =  0.0000  0.0000  0.0000  0.0000  0.0000  0.7783  0.5362 -0.2540 -0.1800 -0.0995      0.0000  0.0000  0.0000  0.0000  0.0000  0.0000  0.0000  0.0000  0.0000  0.0000
  o =  0.1289  v =  0.0000  0.0000  0.0000  0.0000  0.0000  0.4877 -0.7792 -0.1471 -0.1803  0.3177      0.0000  0.0000  0.0000  0.0000  0.0000  0.0000  0.0000  0.0000  0.0000  0.0000
  o =  0.1338  v =  0.0000  0.0000  0.0000  0.0000  0.0000  0.3525 -0.1425  0.8073  0.1873 -0.4107      0.0000  0.0000  0.0000  0.0000  0.0000  0.0000  0.0000  0.0000  0.0000  0.0000
  o =  0.2053  v =  0.4550 -0.6686 -0.3776 -0.1192  0.4349  0.0000  0.0000  0.0000  0.0000  0.0000      0.0000  0.0000  0.0000  0.0000  0.0000  0.0000  0.0000  0.0000  0.0000  0.0000
  o =  0.2191  v = -0.3408  0.4412 -0.7341 -0.0462  0.3848  0.0000  0.0000  0.0000  0.0000  0.0000      0.0000  0.0000  0.0000  0.0000  0.0000  0.0000  0.0000  0.0000  0.0000  0.0000
  o =  0.2696  v =  0.0000  0.0000  0.0000  0.0000  0.0000 -0.1144 -0.2637 -0.3352 -0.3512 -0.8256      0.0000  0.0000  0.0000  0.0000  0.0000  0.0000  0.0000  0.0000  0.0000  0.0000
  o =  0.2835  v =  0.1647  0.2717  0.4517  0.3806  0.7418  0.0000  0.0000  0.0000  0.0000  0.0000      0.0000  0.0000  0.0000  0.0000  0.0000  0.0000  0.0000  0.0000  0.0000  0.0000
  o =  0.3165  v =  0.0000  0.0000  0.0000  0.0000  0.0000 -0.1382  0.1247  0.3871 -0.8813  0.1971      0.0000  0.0000  0.0000  0.0000  0.0000  0.0000  0.0000  0.0000  0.0000  0.0000
  o =  0.3559  v =  0.1159 -0.0862 -0.3046  0.9016 -0.2712  0.0000  0.0000  0.0000  0.0000  0.0000      0.0000  0.0000  0.0000  0.0000  0.0000  0.0000  0.0000  0.0000  0.0000  0.0000
  o =  0.8203  v = -0.7977 -0.5263  0.1473  0.1614  0.1974  0.0000  0.0000  0.0000  0.0000  0.0000      0.0000  0.0000  0.0000  0.0000  0.0000  0.0000  0.0000  0.0000  0.0000  0.0000
atom =   6  type =  2  l = 2
 
 onsite density matrix
 
spin component  1
 
  0.6024 -0.2582  0.0683 -0.0583  0.0938
 -0.2582  0.3854 -0.0386  0.0561 -0.0423
  0.0683 -0.0386  0.2560  0.0128  0.0526
 -0.0583  0.0561  0.0128  0.3551 -0.0046
  0.0938 -0.0423  0.0526 -0.0046  0.2854
 
spin component  2
 
  0.1131  0.0143 -0.0039  0.0339 -0.0102
  0.0143  0.1313  0.0258  0.0042  0.0374
 -0.0039  0.0258  0.1737  0.0483  0.0507
  0.0339  0.0042  0.0483  0.2909 -0.0072
 -0.0102  0.0374  0.0507 -0.0072  0.2325
 
 occupancies and eigenvectors
 
  o =  0.0929  v =  0.0000  0.0000  0.0000  0.0000  0.0000  0.7783 -0.5362  0.2540 -0.1799  0.0994      0.0000  0.0000  0.0000  0.0000  0.0000  0.0000  0.0000  0.0000  0.0000  0.0000
  o =  0.1289  v =  0.0000  0.0000  0.0000  0.0000  0.0000  0.4877  0.7792  0.1469 -0.1803 -0.3177      0.0000  0.0000  0.0000  0.0000  0.0000  0.0000  0.0000  0.0000  0.0000  0.0000
  o =  0.1338  v =  0.0000  0.0000  0.0000  0.0000  0.0000  0.3525  0.1424 -0.8073  0.1873  0.4107      0.0000  0.0000  0.0000  0.0000  0.0000  0.0000  0.0000  0.0000  0.0000  0.0000
  o =  0.2053  v =  0.4548  0.6683  0.3780 -0.1192 -0.4351  0.0000  0.0000  0.0000  0.0000  0.0000      0.0000  0.0000  0.0000  0.0000  0.0000  0.0000  0.0000  0.0000  0.0000  0.0000
  o =  0.2191  v =  0.3411  0.4416 -0.7339  0.0461  0.3846  0.0000  0.0000  0.0000  0.0000  0.0000      0.0000  0.0000  0.0000  0.0000  0.0000  0.0000  0.0000  0.0000  0.0000  0.0000
  o =  0.2696  v =  0.0000  0.0000  0.0000  0.0000  0.0000 -0.1143  0.2637  0.3352 -0.3511  0.8257      0.0000  0.0000  0.0000  0.0000  0.0000  0.0000  0.0000  0.0000  0.0000  0.0000
  o =  0.2835  v =  0.1646 -0.2716 -0.4517  0.3805 -0.7418  0.0000  0.0000  0.0000  0.0000  0.0000      0.0000  0.0000  0.0000  0.0000  0.0000  0.0000  0.0000  0.0000  0.0000  0.0000
  o =  0.3164  v =  0.0000  0.0000  0.0000  0.0000  0.0000  0.1382  0.1247  0.3870  0.8813  0.1970      0.0000  0.0000  0.0000  0.0000  0.0000  0.0000  0.0000  0.0000  0.0000  0.0000
  o =  0.3559  v =  0.1159  0.0862  0.3045  0.9016  0.2712  0.0000  0.0000  0.0000  0.0000  0.0000      0.0000  0.0000  0.0000  0.0000  0.0000  0.0000  0.0000  0.0000  0.0000  0.0000
  o =  0.8204  v = -0.7976  0.5264 -0.1473  0.1614 -0.1973  0.0000  0.0000  0.0000  0.0000  0.0000      0.0000  0.0000  0.0000  0.0000  0.0000  0.0000  0.0000  0.0000  0.0000  0.0000
atom =   7  type =  2  l = 2
 
 onsite density matrix
 
spin component  1
 
  0.2283  0.0161 -0.0361 -0.0093  0.0317
  0.0161  0.2363 -0.1051 -0.0312  0.0381
 -0.0361 -0.1051  0.6869  0.1194 -0.2094
 -0.0093 -0.0312  0.1194  0.3076 -0.0895
  0.0317  0.0381 -0.2094 -0.0895  0.4784
 
spin component  2
 
  0.1285 -0.0024 -0.0012 -0.0218 -0.0068
 -0.0024  0.1386 -0.0210  0.0083 -0.0483
 -0.0012 -0.0210  0.1479 -0.0407  0.0837
 -0.0218  0.0083 -0.0407  0.2392  0.0096
 -0.0068 -0.0483  0.0837  0.0096  0.2445
 
 occupancies and eigenvectors
 
  o =  0.0873  v =  0.0000  0.0000  0.0000  0.0000  0.0000  0.0738 -0.1772  0.8039  0.2670 -0.4956      0.0000  0.0000  0.0000  0.0000  0.0000  0.0000  0.0000  0.0000  0.0000  0.0000
  o =  0.1199  v =  0.0000  0.0000  0.0000  0.0000  0.0000 -0.6599 -0.6990 -0.1690 -0.1152 -0.1844      0.0000  0.0000  0.0000  0.0000  0.0000  0.0000  0.0000  0.0000  0.0000  0.0000
  o =  0.1284  v =  0.0000  0.0000  0.0000  0.0000  0.0000 -0.7257  0.6279  0.2610 -0.0974  0.0384      0.0000  0.0000  0.0000  0.0000  0.0000  0.0000  0.0000  0.0000  0.0000  0.0000
  o =  0.2072  v = -0.4658  0.8553  0.1686  0.1127  0.1015  0.0000  0.0000  0.0000  0.0000  0.0000      0.0000  0.0000  0.0000  0.0000  0.0000  0.0000  0.0000  0.0000  0.0000  0.0000
  o =  0.2285  v =  0.8757  0.4556  0.1487 -0.0079 -0.0588  0.0000  0.0000  0.0000  0.0000  0.0000      0.0000  0.0000  0.0000  0.0000  0.0000  0.0000  0.0000  0.0000  0.0000  0.0000
  o =  0.2513  v =  0.0000  0.0000  0.0000  0.0000  0.0000  0.1800  0.0337  0.1163 -0.9298 -0.2975      0.0000  0.0000  0.0000  0.0000  0.0000  0.0000  0.0000  0.0000  0.0000  0.0000
  o =  0.2662  v =  0.0902 -0.0735 -0.1594  0.9498  0.2429  0.0000  0.0000  0.0000  0.0000  0.0000      0.0000  0.0000  0.0000  0.0000  0.0000  0.0000  0.0000  0.0000  0.0000  0.0000
  o =  0.3117  v =  0.0000  0.0000  0.0000  0.0000  0.0000 -0.0047 -0.2908  0.4935 -0.2037  0.7940      0.0000  0.0000  0.0000  0.0000  0.0000  0.0000  0.0000  0.0000  0.0000  0.0000
  o =  0.3547  v = -0.0468  0.1573 -0.5245  0.1393 -0.8237  0.0000  0.0000  0.0000  0.0000  0.0000      0.0000  0.0000  0.0000  0.0000  0.0000  0.0000  0.0000  0.0000  0.0000  0.0000
  o =  0.8809  v =  0.0768  0.1752 -0.8056 -0.2565  0.4987  0.0000  0.0000  0.0000  0.0000  0.0000      0.0000  0.0000  0.0000  0.0000  0.0000  0.0000  0.0000  0.0000  0.0000  0.0000
atom =   8  type =  2  l = 2
 
 onsite density matrix
 
spin component  1
 
  0.2283 -0.0161  0.0361 -0.0093 -0.0316
 -0.0161  0.2363 -0.1052  0.0313  0.0382
  0.0361 -0.1052  0.6869 -0.1195 -0.2094
 -0.0093  0.0313 -0.1195  0.3076  0.0895
 -0.0316  0.0382 -0.2094  0.0895  0.4784
 
spin component  2
 
  0.1285  0.0024  0.0012 -0.0218  0.0068
  0.0024  0.1386 -0.0210 -0.0083 -0.0483
  0.0012 -0.0210  0.1479  0.0407  0.0837
 -0.0218 -0.0083  0.0407  0.2392 -0.0096
  0.0068 -0.0483  0.0837 -0.0096  0.2445
 
 occupancies and eigenvectors
 
  o =  0.0872  v =  0.0000  0.0000  0.0000  0.0000  0.0000 -0.0736 -0.1772  0.8039 -0.2670 -0.4956      0.0000  0.0000  0.0000  0.0000  0.0000  0.0000  0.0000  0.0000  0.0000  0.0000
  o =  0.1199  v =  0.0000  0.0000  0.0000  0.0000  0.0000 -0.6598  0.6992  0.1691 -0.1152  0.1844      0.0000  0.0000  0.0000  0.0000  0.0000  0.0000  0.0000  0.0000  0.0000  0.0000
  o =  0.1284  v =  0.0000  0.0000  0.0000  0.0000  0.0000 -0.7259 -0.6278 -0.2609 -0.0974 -0.0384      0.0000  0.0000  0.0000  0.0000  0.0000  0.0000  0.0000  0.0000  0.0000  0.0000
  o =  0.2072  v = -0.4657 -0.8554 -0.1687  0.1129 -0.1014  0.0000  0.0000  0.0000  0.0000  0.0000      0.0000  0.0000  0.0000  0.0000  0.0000  0.0000  0.0000  0.0000  0.0000  0.0000
  o =  0.2285  v =  0.8758 -0.4554 -0.1487 -0.0079  0.0586  0.0000  0.0000  0.0000  0.0000  0.0000      0.0000  0.0000  0.0000  0.0000  0.0000  0.0000  0.0000  0.0000  0.0000  0.0000
  o =  0.2513  v =  0.0000  0.0000  0.0000  0.0000  0.0000 -0.1800  0.0337  0.1163  0.9298 -0.2974      0.0000  0.0000  0.0000  0.0000  0.0000  0.0000  0.0000  0.0000  0.0000  0.0000
  o =  0.2662  v = -0.0902 -0.0736 -0.1594 -0.9497  0.2430  0.0000  0.0000  0.0000  0.0000  0.0000      0.0000  0.0000  0.0000  0.0000  0.0000  0.0000  0.0000  0.0000  0.0000  0.0000
  o =  0.3117  v =  0.0000  0.0000  0.0000  0.0000  0.0000  0.0048 -0.2908  0.4935  0.2037  0.7940      0.0000  0.0000  0.0000  0.0000  0.0000  0.0000  0.0000  0.0000  0.0000  0.0000
  o =  0.3547  v =  0.0467  0.1573 -0.5245 -0.1393 -0.8238  0.0000  0.0000  0.0000  0.0000  0.0000      0.0000  0.0000  0.0000  0.0000  0.0000  0.0000  0.0000  0.0000  0.0000  0.0000
  o =  0.8809  v = -0.0767  0.1753 -0.8056  0.2565  0.4987  0.0000  0.0000  0.0000  0.0000  0.0000      0.0000  0.0000  0.0000  0.0000  0.0000  0.0000  0.0000  0.0000  0.0000  0.0000
     EDDAV:  cpu time   52.1741: real time   52.1826
       DOS:  cpu time    0.0098: real time    0.0098
    --------------------------------------------
      LOOP:  cpu time   53.5257: real time   53.5375

 eigenvalue-minimisations  : 47340
 total energy-change (2. order) : 0.1917426E+04  (-0.8484716E+04)
 number of electron     155.9999944 magnetization       3.9999993
 augmentation part      155.9999944 magnetization       3.9999993

 Free energy of the ion-electron system (eV)
  ---------------------------------------------------
  alpha Z        PSCENC =       926.96208185
  Ewald energy   TEWEN  =    -11359.01699671
  -Hartree energ DENC   =     -3178.42429995
  -exchange      EXHF   =         0.00000000
  -V(xc)+E(xc)   XCENC  =       736.23248421
  PAW double counting   =     15286.72716681   -15308.18133515
  entropy T*S    EENTRO =        -0.00773901
  eigenvalues    EBANDS =       314.02305179
  atomic energy  EATOM  =     14499.11143069
  Solvation  Ediel_sol  =         0.00000000
  ---------------------------------------------------
  free energy    TOTEN  =      1917.42584453 eV

  energy without entropy =     1917.43358353  energy(sigma->0) =     1917.42971403


--------------------------------------------------------------------------------------------------------




--------------------------------------- Iteration      1(   2)  ---------------------------------------


     EDDAV:  cpu time   53.4438: real time   53.4465
       DOS:  cpu time    0.0096: real time    0.0096
    --------------------------------------------
      LOOP:  cpu time   53.4535: real time   53.4561

 eigenvalue-minimisations  : 49164
 total energy-change (2. order) :-0.1943994E+04  (-0.1875536E+04)
 number of electron     155.9999944 magnetization       3.9999993
 augmentation part      155.9999944 magnetization       3.9999993

 Free energy of the ion-electron system (eV)
  ---------------------------------------------------
  alpha Z        PSCENC =       926.96208185
  Ewald energy   TEWEN  =    -11359.01699671
  -Hartree energ DENC   =     -3178.42429995
  -exchange      EXHF   =         0.00000000
  -V(xc)+E(xc)   XCENC  =       736.23248421
  PAW double counting   =     15286.72716681   -15308.18133515
  entropy T*S    EENTRO =        -0.01103474
  eigenvalues    EBANDS =     -1629.96763027
  atomic energy  EATOM  =     14499.11143069
  Solvation  Ediel_sol  =         0.00000000
  ---------------------------------------------------
  free energy    TOTEN  =       -26.56813326 eV

  energy without entropy =      -26.55709853  energy(sigma->0) =      -26.56261589


--------------------------------------------------------------------------------------------------------




--------------------------------------- Iteration      1(   3)  ---------------------------------------


     EDDAV:  cpu time   69.8098: real time   69.8131
       DOS:  cpu time    0.0061: real time    0.0061
    --------------------------------------------
      LOOP:  cpu time   69.8159: real time   69.8192

 eigenvalue-minimisations  : 72192
 total energy-change (2. order) :-0.2467187E+03  (-0.2307047E+03)
 number of electron     155.9999944 magnetization       3.9999993
 augmentation part      155.9999944 magnetization       3.9999993

 Free energy of the ion-electron system (eV)
  ---------------------------------------------------
  alpha Z        PSCENC =       926.96208185
  Ewald energy   TEWEN  =    -11359.01699671
  -Hartree energ DENC   =     -3178.42429995
  -exchange      EXHF   =         0.00000000
  -V(xc)+E(xc)   XCENC  =       736.23248421
  PAW double counting   =     15286.72716681   -15308.18133515
  entropy T*S    EENTRO =        -0.00000001
  eigenvalues    EBANDS =     -1876.69739814
  atomic energy  EATOM  =     14499.11143069
  Solvation  Ediel_sol  =         0.00000000
  ---------------------------------------------------
  free energy    TOTEN  =      -273.28686641 eV

  energy without entropy =     -273.28686640  energy(sigma->0) =     -273.28686640


--------------------------------------------------------------------------------------------------------




--------------------------------------- Iteration      1(   4)  ---------------------------------------


     EDDAV:  cpu time   65.9740: real time   65.9776
       DOS:  cpu time    0.0039: real time    0.0039
    --------------------------------------------
      LOOP:  cpu time   65.9778: real time   65.9814

 eigenvalue-minimisations  : 66876
 total energy-change (2. order) :-0.1304573E+02  (-0.1295341E+02)
 number of electron     155.9999944 magnetization       3.9999993
 augmentation part      155.9999944 magnetization       3.9999993

 Free energy of the ion-electron system (eV)
  ---------------------------------------------------
  alpha Z        PSCENC =       926.96208185
  Ewald energy   TEWEN  =    -11359.01699671
  -Hartree energ DENC   =     -3178.42429995
  -exchange      EXHF   =         0.00000000
[...]
  0.000  -0.002   0.001  -0.003  -0.001  -0.004   0.005   0.000
  0.003  -0.000  -0.008   0.002  -0.001   0.009  -0.002   0.003
 -0.000   0.000   0.011  -0.002   0.002  -0.015   0.003  -0.002
  0.004  -0.001   0.001  -0.011   0.003  -0.002   0.011  -0.001
 -0.015   0.001   0.002  -0.004   0.005  -0.002   0.005  -0.009
 -0.000  -0.001   0.002  -0.003  -0.001  -0.003   0.003  -0.001
 pseudopotential strength for first ion, spin component:           2
-18.061  -5.124  -0.002   0.001  -0.005   0.002  -0.001   0.000
 -5.124  -1.682  -0.001   0.000  -0.001   0.002  -0.003   0.006
 -0.002  -0.001 -19.268   0.001   0.002   6.198  -0.001  -0.002
  0.001   0.000   0.001 -19.262  -0.012  -0.001   6.197   0.011
 -0.005  -0.001   0.002  -0.012 -19.268  -0.002   0.011   6.201
  0.002   0.002   6.198  -0.001  -0.002   9.054   0.002  -0.001
 -0.001  -0.003  -0.001   6.197   0.011   0.002   9.030   0.012
  0.000   0.006  -0.002   0.011   6.201  -0.001   0.012   9.035
  0.002  -0.000  -0.007   0.002  -0.001   0.012  -0.002   0.003
  0.000   0.000   0.009  -0.001   0.002  -0.020   0.003  -0.002
  0.004  -0.002   0.001  -0.010   0.002  -0.002   0.016  -0.002
 -0.012   0.002   0.002  -0.004   0.003  -0.002   0.009  -0.009
  0.000  -0.003   0.001  -0.003  -0.001  -0.003   0.005  -0.000
  0.003   0.000  -0.008   0.002  -0.001   0.008  -0.001   0.003
  0.001   0.000   0.010  -0.002   0.002  -0.014   0.003  -0.001
  0.004  -0.001   0.001  -0.011   0.003  -0.002   0.012  -0.001
 -0.014   0.001   0.002  -0.004   0.004  -0.001   0.005  -0.008
  0.000  -0.001   0.002  -0.003  -0.001  -0.003   0.003  -0.002
 total augmentation occupancy for first ion, spin component:           1
  2.003   0.010   0.000  -0.000   0.000   0.000  -0.000   0.000  -0.000  -0.000  -0.001   0.003   0.001  -0.000   0.000   0.000
  0.010   0.425   0.003  -0.002   0.001  -0.003   0.003  -0.001   0.009   0.003   0.019  -0.063  -0.004  -0.004  -0.002  -0.012
  0.000   0.003   2.007   0.000  -0.000   0.000  -0.000  -0.000   0.007  -0.012  -0.001  -0.001  -0.001  -0.002   0.003   0.000
 -0.000  -0.002   0.000   2.007  -0.000  -0.000   0.000   0.003  -0.001   0.001   0.018   0.003   0.002   0.000   0.000  -0.007
  0.000   0.001  -0.000  -0.000   2.007  -0.000   0.003   0.001   0.001  -0.001   0.003  -0.011  -0.008   0.000   0.000  -0.001
  0.000  -0.003   0.000  -0.000  -0.000   0.028   0.000   0.001  -0.012   0.029   0.002   0.001   0.001   0.006  -0.016  -0.001
 -0.000   0.003  -0.000   0.000   0.003   0.000   0.029  -0.004   0.001  -0.001  -0.038  -0.011  -0.006  -0.001   0.000   0.022
  0.000  -0.001  -0.000   0.003   0.001   0.001  -0.004   0.028  -0.002   0.002  -0.013   0.022   0.022   0.001  -0.001   0.008
 -0.000   0.009   0.007  -0.001   0.001  -0.012   0.001  -0.002   0.358  -0.104  -0.002  -0.002   0.007  -0.203   0.060   0.001
 -0.000   0.003  -0.012   0.001  -0.001   0.029  -0.001   0.002  -0.104   0.325   0.007   0.004  -0.005   0.060  -0.187  -0.004
 -0.001   0.019  -0.001   0.018   0.003   0.002  -0.038  -0.013  -0.002   0.007   0.329   0.080  -0.024   0.001  -0.004  -0.189
  0.003  -0.063  -0.001   0.003  -0.011   0.001  -0.011   0.022  -0.002   0.004   0.080   0.260  -0.008   0.001  -0.002  -0.044
  0.001  -0.004  -0.001   0.002  -0.008   0.001  -0.006   0.022   0.007  -0.005  -0.024  -0.008   0.234  -0.004   0.003   0.016
 -0.000  -0.004  -0.002   0.000   0.000   0.006  -0.001   0.001  -0.203   0.060   0.001   0.001  -0.004   0.117  -0.035  -0.001
  0.000  -0.002   0.003   0.000   0.000  -0.016   0.000  -0.001   0.060  -0.187  -0.004  -0.002   0.003  -0.035   0.109   0.002
  0.000  -0.012   0.000  -0.007  -0.001  -0.001   0.022   0.008   0.001  -0.004  -0.189  -0.044   0.016  -0.001   0.002   0.110
  0.000   0.035   0.000  -0.001   0.004  -0.001   0.007  -0.012   0.001  -0.002  -0.044  -0.146   0.005  -0.001   0.001   0.025
 -0.000   0.002  -0.000  -0.000   0.003  -0.000   0.003  -0.012  -0.004   0.003   0.016   0.005  -0.132   0.002  -0.002  -0.010
 total augmentation occupancy for first ion, spin component:           2
  0.000   0.000   0.000  -0.000   0.000   0.000  -0.000   0.000  -0.000  -0.000   0.000  -0.000  -0.000   0.000   0.000  -0.000
  0.000  -0.000   0.000  -0.000   0.000  -0.000   0.000  -0.000   0.001  -0.001  -0.001  -0.000   0.000  -0.000   0.000   0.001
  0.000   0.000  -0.000   0.000   0.000   0.000  -0.000  -0.000  -0.000   0.000  -0.000   0.000   0.000   0.000  -0.000   0.000
 -0.000  -0.000   0.000  -0.000   0.000  -0.000   0.000  -0.000   0.000   0.000  -0.000   0.000   0.000  -0.000  -0.000   0.000
  0.000   0.000   0.000   0.000  -0.000  -0.000  -0.000   0.000  -0.000  -0.000  -0.000   0.000   0.000   0.000  -0.000  -0.000
  0.000  -0.000   0.000  -0.000  -0.000  -0.000  -0.000   0.000  -0.000   0.000   0.000  -0.000  -0.000   0.000   0.000  -0.000
 -0.000   0.000  -0.000   0.000  -0.000  -0.000  -0.000   0.000  -0.000  -0.000   0.000  -0.000  -0.000   0.000   0.000  -0.000
  0.000  -0.000  -0.000  -0.000   0.000   0.000   0.000  -0.000   0.000   0.000   0.000   0.000  -0.000  -0.000  -0.000  -0.000
 -0.000   0.001  -0.000   0.000  -0.000  -0.000  -0.000   0.000   0.000   0.000  -0.001  -0.000   0.001  -0.000  -0.000   0.000
 -0.000  -0.001   0.000   0.000  -0.000   0.000  -0.000   0.000   0.000   0.000   0.001   0.000  -0.001  -0.000   0.000  -0.000
  0.000  -0.001  -0.000  -0.000  -0.000   0.000   0.000   0.000  -0.001   0.001   0.001   0.000   0.000   0.000  -0.000  -0.000
 -0.000  -0.000   0.000   0.000   0.000  -0.000  -0.000   0.000  -0.000   0.000   0.000   0.001   0.000   0.000  -0.000   0.000
 -0.000   0.000   0.000   0.000   0.000  -0.000  -0.000  -0.000   0.001  -0.001   0.000   0.000  -0.000  -0.000   0.000  -0.000
  0.000  -0.000   0.000  -0.000   0.000   0.000   0.000  -0.000  -0.000  -0.000   0.000   0.000  -0.000   0.000   0.000  -0.000
  0.000   0.000  -0.000  -0.000  -0.000   0.000   0.000  -0.000  -0.000   0.000  -0.000  -0.000   0.000   0.000  -0.000   0.000
 -0.000   0.001   0.000   0.000  -0.000  -0.000  -0.000  -0.000   0.000  -0.000  -0.000   0.000  -0.000  -0.000   0.000  -0.000
  0.000   0.000  -0.000  -0.000  -0.000   0.000   0.000  -0.000   0.000  -0.000   0.000  -0.000  -0.000  -0.000   0.000  -0.000
  0.000  -0.000  -0.000  -0.000  -0.000   0.000   0.000   0.000  -0.000   0.000  -0.000  -0.000   0.000   0.000  -0.000  -0.000


------------------------ aborting loop because EDIFF is reached ----------------------------------------


 


 total charge     
 
# of ion       s       p       d       tot
------------------------------------------
    1        2.022   5.869   0.246   8.137
    2        2.022   5.869   0.246   8.137
    3        2.022   5.868   0.245   8.135
    4        2.022   5.868   0.245   8.135
    5        0.338   6.379   2.793   9.509
    6        0.338   6.379   2.792   9.509
    7        0.329   6.368   2.803   9.500
    8        0.329   6.368   2.803   9.500
    9        1.576   3.530   0.000   5.107
   10        1.576   3.530   0.000   5.107
   11        1.576   3.528   0.000   5.105
   12        1.576   3.528   0.000   5.104
   13        1.571   3.524   0.000   5.094
   14        1.571   3.524   0.000   5.094
   15        1.574   3.521   0.000   5.095
   16        1.574   3.521   0.000   5.095
   17        1.571   3.524   0.000   5.095
   18        1.571   3.524   0.000   5.095
   19        1.573   3.521   0.000   5.095
   20        1.573   3.521   0.000   5.095
--------------------------------------------------
tot         28.304  91.265  12.172 131.741
 


 magnetization (x)
 
# of ion       s       p       d       tot
------------------------------------------
    1       -0.000  -0.001   0.002   0.001
    2       -0.000  -0.001   0.002   0.001
    3       -0.000  -0.001   0.002   0.001
    4       -0.000  -0.001   0.002   0.001
    5        0.004   0.008   0.941   0.953
    6        0.004   0.008   0.941   0.953
    7        0.004   0.008   1.037   1.050
    8        0.004   0.008   1.037   1.050
    9       -0.001  -0.039   0.000  -0.040
   10       -0.001  -0.039   0.000  -0.040
   11       -0.001  -0.041   0.000  -0.042
   12       -0.001  -0.041   0.000  -0.042
   13        0.000   0.008   0.000   0.008
   14        0.000   0.008   0.000   0.008
   15       -0.001  -0.025   0.000  -0.026
   16       -0.001  -0.025   0.000  -0.026
   17        0.000   0.008   0.000   0.008
   18        0.000   0.008   0.000   0.008
   19       -0.001  -0.025   0.000  -0.025
   20       -0.001  -0.025   0.000  -0.025
--------------------------------------------------
tot          0.011  -0.198   3.964   3.777
 
    CHARGE:  cpu time    0.8864: real time    0.8864
    FORLOC:  cpu time    0.0032: real time    0.0032
    FORNL :  cpu time    6.9956: real time    6.9960
    STRESS:  cpu time  130.9858: real time  130.9910
    FORCOR:  cpu time    0.0756: real time    0.0756
    FORHAR:  cpu time    0.0061: real time    0.0061
    MIXING:  cpu time    0.0011: real time    0.0011
    OFIELD:  cpu time    0.0000: real time    0.0000

  FORCE on cell =-STRESS in cart. coord.  units (eV):
  Direction    XX          YY          ZZ          XY          YZ          ZX
  --------------------------------------------------------------------------------------
  Alpha Z   926.96208   926.96208   926.96208
  Ewald   -3899.86357 -3692.34240 -3766.84509    -0.01310    60.81061    -0.00012
  Hartree  1009.83061  1102.36192  1066.42217    -0.00615    24.84972     0.00144
  E(xc)    -832.78726  -832.64887  -832.48775    -0.00001     0.10186    -0.00004
  Local     446.16098   166.21799   264.74513     0.01848   -79.75915    -0.00115
  n-local  -691.07165  -685.40779  -689.09897    -0.00042     1.89743     0.00003
  augment   364.71626   356.38646   360.88028     0.00011    -2.82131    -0.00011
  Kinetic  2676.15004  2658.61775  2669.77111     0.00162    -5.06042    -0.00127
  Fock        0.00000     0.00000     0.00000     0.00000     0.00000     0.00000
  -------------------------------------------------------------------------------------
  Total       0.09750     0.14713     0.34897     0.00054     0.01873    -0.00122
  in kB       0.72149     1.08879     2.58236     0.00397     0.13860    -0.00904
  external pressure =        1.46 kB  Pullay stress =        0.00 kB


 VOLUME and BASIS-vectors are now :
 -----------------------------------------------------------------------------
  energy-cutoff  :      520.00
  volume of cell :      216.51
      direct lattice vectors                 reciprocal lattice vectors
     5.419138853  0.000122478  0.000039339     0.184531164  0.000005163  0.000000265
    -0.000209839  7.501756244 -0.032848954    -0.000003016  0.133304065  0.000444568
    -0.000007162 -0.017761696  5.325858654    -0.000001382  0.000822196  0.187765892

  length of vectors
     5.419138855  7.501828167  5.325888272     0.184531164  0.133304806  0.187767693


 FORCES acting on ions
    electron-ion (+dipol)            ewald-force                    non-local-force                 convergence-correction
 -----------------------------------------------------------------------------------------------
   0.412E+02 -.474E+01 0.193E+02   -.412E+02 0.446E+01 -.191E+02   0.623E-02 0.276E+00 -.230E+00   -.235E-03 0.138E-03 0.260E-04
   0.412E+02 0.473E+01 -.193E+02   -.412E+02 -.445E+01 0.191E+02   0.616E-02 -.276E+00 0.230E+00   -.216E-03 -.118E-03 -.118E-04
   -.410E+02 0.469E+01 -.197E+02   0.410E+02 -.443E+01 0.195E+02   -.122E-02 -.259E+00 0.257E+00   0.179E-03 -.109E-03 0.131E-03
   -.410E+02 -.469E+01 0.198E+02   0.410E+02 0.442E+01 -.195E+02   -.116E-02 0.259E+00 -.257E+00   0.174E-03 0.110E-03 -.164E-03
   -.821E+00 0.578E+01 -.314E-01   0.837E+00 -.583E+01 0.120E-01   -.239E-01 0.880E-01 -.124E-02   -.815E-04 -.543E-03 0.880E-04
   -.821E+00 -.580E+01 0.442E-01   0.837E+00 0.584E+01 -.258E-01   -.237E-01 -.882E-01 0.141E-02   -.538E-04 0.562E-03 -.786E-04
   0.531E+00 -.649E+00 -.210E+00   -.543E+00 0.580E+00 0.165E+00   0.677E-02 0.764E-01 0.365E-01   0.100E-03 0.188E-03 0.689E-04
   0.543E+00 0.659E+00 0.215E+00   -.555E+00 -.592E+00 -.170E+00   0.663E-02 -.758E-01 -.368E-01   0.131E-03 -.210E-03 -.454E-04
   -.147E+02 0.162E+02 0.450E+02   0.159E+02 -.177E+02 -.474E+02   -.121E+01 0.144E+01 0.241E+01   -.147E-03 0.137E-02 -.229E-03
   -.147E+02 -.162E+02 -.450E+02   0.159E+02 0.177E+02 0.474E+02   -.121E+01 -.144E+01 -.241E+01   -.116E-03 -.129E-02 0.220E-03
   0.148E+02 -.254E+02 -.447E+02   -.160E+02 0.280E+02 0.470E+02   0.123E+01 -.265E+01 -.232E+01   0.140E-03 -.137E-02 0.328E-03
   0.148E+02 0.254E+02 0.447E+02   -.160E+02 -.281E+02 -.470E+02   0.123E+01 0.265E+01 0.231E+01   0.135E-03 0.134E-02 -.309E-03
   0.164E+02 0.192E+02 -.215E+02   -.178E+02 -.208E+02 0.233E+02   0.134E+01 0.157E+01 -.177E+01   -.111E-02 -.235E-03 -.784E-03
   0.164E+02 -.192E+02 0.215E+02   -.178E+02 0.208E+02 -.233E+02   0.134E+01 -.157E+01 0.177E+01   -.989E-03 0.251E-03 0.689E-03
   0.319E+01 0.146E+02 0.473E+02   -.390E+01 -.157E+02 -.508E+02   0.711E+00 0.110E+01 0.353E+01   -.401E-03 -.300E-03 -.945E-03
   0.322E+01 -.146E+02 -.473E+02   -.393E+01 0.157E+02 0.508E+02   0.711E+00 -.110E+01 -.353E+01   -.513E-03 0.292E-03 0.105E-02
   -.169E+02 -.162E+02 0.209E+02   0.183E+02 0.178E+02 -.226E+02   -.139E+01 -.155E+01 0.167E+01   0.113E-02 0.821E-04 0.776E-03
   -.169E+02 0.162E+02 -.209E+02   0.183E+02 -.178E+02 0.226E+02   -.139E+01 0.155E+01 -.167E+01   0.102E-02 -.758E-04 -.708E-03
   -.272E+01 -.185E+02 -.464E+02   0.337E+01 0.197E+02 0.498E+02   -.649E+00 -.119E+01 -.345E+01   0.388E-03 0.428E-03 0.955E-03
   -.275E+01 0.185E+02 0.464E+02   0.340E+01 -.197E+02 -.498E+02   -.648E+00 0.119E+01 0.345E+01   0.483E-03 -.477E-03 -.105E-02
 -----------------------------------------------------------------------------------------------
   -.621E-01 -.224E-02 0.884E-03   0.204E-13 -.746E-13 -.853E-13   0.484E-01 0.201E-02 -.111E-02   0.177E-04 0.291E-04 0.296E-05
 
 
 POSITION                                       TOTAL-FORCE (eV/Angst)
 -----------------------------------------------------------------------------------
      2.93004      1.86089      2.70136         0.007302     -0.004376     -0.003768
      0.22049      1.86340      5.27103         0.007028      0.004545      0.003891
      2.48863      5.62579      2.58959        -0.002713      0.003661      0.002042
      5.19819      5.61812      0.02411        -0.002700     -0.003401     -0.001945
      0.00025      0.00585      2.66110        -0.001936      0.005109     -0.015074
      2.70972      3.73619     -0.01454        -0.002035     -0.003910      0.014185
      5.41901      3.75095      2.64951        -0.004169     -0.008523     -0.011759
      2.70936      7.47528      5.29008        -0.004484      0.006747      0.011503
      5.35596      1.91307      2.28866         0.000200     -0.012101      0.005316
      2.64639      1.82910      0.35793         0.000216      0.012545     -0.005591
      0.06376      5.57560      3.00373         0.000215      0.010099     -0.000549
      2.77335      5.65050      4.93582         0.000158     -0.010869      0.000562
      3.85529      7.21821      1.50993         0.010281      0.004055      0.002067
      1.14575      4.02565      1.10372         0.011121     -0.003925     -0.001767
      1.59849      3.47207      3.81723        -0.001027     -0.000459      0.002210
      4.30820      0.25231      4.15516        -0.002211      0.000535     -0.001410
      1.56382      0.27430      3.78161        -0.007251     -0.007914     -0.002384
      4.27331      3.45004      4.19077        -0.008027      0.008121      0.003040
      3.81946      4.01229      1.47868        -0.000597      0.002906     -0.005311
      1.10974      7.23157      1.13501         0.000629     -0.002845      0.004743
 -----------------------------------------------------------------------------------
    total drift:                               -0.013696     -0.000206     -0.000225


--------------------------------------------------------------------------------------------------------



  FREE ENERGIE OF THE ION-ELECTRON SYSTEM (eV)
  ---------------------------------------------------
  free  energy   TOTEN  =      -240.35852362 eV

  energy  without entropy=     -240.35852362  energy(sigma->0) =     -240.35852362
 


--------------------------------------------------------------------------------------------------------


    POTLOK:  cpu time    1.3335: real time    1.3335


--------------------------------------------------------------------------------------------------------




--------------------------------------------------------------------------------------------------------


  
 reached required accuracy - stopping structural energy minimisation
     LOOP+:  cpu time 1364.5597: real time 1364.6577
    4ORBIT:  cpu time    0.0000: real time    0.0000
 


 total charge     
 
# of ion       s       p       d       tot
------------------------------------------
    1        2.022   5.869   0.246   8.137
    2        2.022   5.869   0.246   8.137
    3        2.022   5.868   0.245   8.135
    4        2.022   5.868   0.245   8.135
    5        0.338   6.379   2.793   9.509
    6        0.338   6.379   2.792   9.509
    7        0.329   6.368   2.803   9.500
    8        0.329   6.368   2.803   9.500
    9        1.576   3.530   0.000   5.107
   10        1.576   3.530   0.000   5.107
   11        1.576   3.528   0.000   5.105
   12        1.576   3.528   0.000   5.104
   13        1.571   3.524   0.000   5.094
   14        1.571   3.524   0.000   5.094
   15        1.574   3.521   0.000   5.095
   16        1.574   3.521   0.000   5.095
   17        1.571   3.524   0.000   5.095
   18        1.571   3.524   0.000   5.095
   19        1.573   3.521   0.000   5.095
   20        1.573   3.521   0.000   5.095
--------------------------------------------------
tot         28.304  91.265  12.172 131.741
 


 magnetization (x)
 
# of ion       s       p       d       tot
------------------------------------------
    1       -0.000  -0.001   0.002   0.001
    2       -0.000  -0.001   0.002   0.001
    3       -0.000  -0.001   0.002   0.001
    4       -0.000  -0.001   0.002   0.001
    5        0.004   0.008   0.941   0.953
    6        0.004   0.008   0.941   0.953
    7        0.004   0.008   1.037   1.050
    8        0.004   0.008   1.037   1.050
    9       -0.001  -0.039   0.000  -0.040
   10       -0.001  -0.039   0.000  -0.040
   11       -0.001  -0.041   0.000  -0.042
   12       -0.001  -0.041   0.000  -0.042
   13        0.000   0.008   0.000   0.008
   14        0.000   0.008   0.000   0.008
   15       -0.001  -0.025   0.000  -0.026
   16       -0.001  -0.025   0.000  -0.026
   17        0.000   0.008   0.000   0.008
   18        0.000   0.008   0.000   0.008
   19       -0.001  -0.025   0.000  -0.025
   20       -0.001  -0.025   0.000  -0.025
--------------------------------------------------
tot          0.011  -0.198   3.964   3.777
 

 total amount of memory used by VASP MPI-rank0   144284. kBytes
=======================================================================

   base      :      30000. kBytes
   nonlr-proj:       5098. kBytes
   fftplans  :       1851. kBytes
   grid      :       7049. kBytes
   one-center:        155. kBytes
   wavefun   :     100131. kBytes
 
  
  
 General timing and accounting informations for this job:
 ========================================================
  
                  Total CPU time used (sec):     1382.133
                            User time (sec):     1377.321
                          System time (sec):        4.812
                         Elapsed time (sec):     1382.785
  
                   Maximum memory used (kb):      199472.
                   Average memory used (kb):           0.
  
                          Minor page faults:        48851
                          Major page faults:           14
                 Voluntary context switches:          480
