       N       E                     dE             d eps       ncg     rms          ort
DAV:   1     0.250849430849E+04    0.25085E+04   -0.13810E+05 10206   0.170E+03
DAV:   2    -0.168420496406E+03   -0.26769E+04   -0.24622E+04 10206   0.438E+02
DAV:   3    -0.486285994122E+03   -0.31787E+03   -0.31257E+03 10206   0.171E+02
DAV:   4    -0.496559406259E+03   -0.10273E+02   -0.10167E+02 10206   0.316E+01
DAV:   5    -0.496920585045E+03   -0.36118E+00   -0.36010E+00 10206   0.472E+00
SDA:   6    -0.196569453619E+03    0.30035E+03   -0.36010E+00 10206   0.980E+03 0.000E+00
CGA:   7    -0.259568178905E+03   -0.62999E+02   -0.98199E+02 10206   0.109E+04-0.114E+03
CGA:   8    -0.324358710486E+03   -0.64791E+02   -0.44727E+02 10206   0.397E+03 0.106E+03
CGA:   9    -0.329268611817E+03   -0.49099E+01   -0.33165E+02 10206   0.178E+03-0.857E+02
CGA:  10    -0.344991080875E+03   -0.15722E+02   -0.93432E+01 10206   0.103E+03 0.632E+02
CGA:  11    -0.348143719232E+03   -0.31526E+01   -0.87035E+01 10206   0.274E+03-0.988E+02
CGA:  12    -0.354286919544E+03   -0.61432E+01   -0.22898E+02 10206   0.741E+02-0.413E+02
CGA:  13    -0.360451364320E+03   -0.61644E+01   -0.31661E+01 10206   0.308E+02 0.497E+02
CGA:  14    -0.362454015872E+03   -0.20027E+01   -0.12109E+01 10206   0.992E+01 0.952E+01
CGA:  15    -0.363395913510E+03   -0.94190E+00   -0.10301E+01 10206   0.375E+02-0.389E+00
CGA:  16    -0.364674575481E+03   -0.12787E+01   -0.15061E+01 10206   0.777E+02-0.453E+01
CGA:  17    -0.365502448423E+03   -0.82787E+00   -0.13058E+01 10206   0.420E+02-0.264E+02
CGA:  18    -0.365626175267E+03   -0.12373E+00   -0.69308E+00 10206   0.228E+02-0.147E+02
CGA:  19    -0.365955127877E+03   -0.32895E+00   -0.59499E+00 10206   0.110E+02-0.430E+01
CGA:  20    -0.366409941725E+03   -0.45481E+00   -0.54063E+00 10206   0.527E+01-0.644E+00
CGA:  21    -0.366869628246E+03   -0.45969E+00   -0.46746E+00 10206   0.380E+01 0.662E-01
CGA:  22    -0.367332583245E+03   -0.46295E+00   -0.46307E+00 10206   0.327E+01 0.394E-01
CGA:  23    -0.367718897306E+03   -0.38631E+00   -0.38629E+00 10206   0.255E+01 0.102E-01
CGA:  24    -0.367991612539E+03   -0.27272E+00   -0.27249E+00 10206   0.149E+01-0.259E-01
CGA:  25    -0.368142159333E+03   -0.15055E+00   -0.14956E+00 10206   0.867E+00-0.486E-01
CGA:  26    -0.368240707095E+03   -0.98548E-01   -0.98451E-01 10206   0.721E+00-0.254E-01
CGA:  27    -0.368320280424E+03   -0.79573E-01   -0.79708E-01 10206   0.473E+00 0.169E-01
CGA:  28    -0.368365128043E+03   -0.44848E-01   -0.45514E-01 10206   0.245E+00 0.310E-01
CGA:  29    -0.368393615077E+03   -0.28487E-01   -0.28690E-01 10206   0.196E+00 0.246E-01
CGA:  30    -0.368420566049E+03   -0.26951E-01   -0.26872E-01 10206   0.141E+00 0.135E-01
CGA:  31    -0.368436879530E+03   -0.16313E-01   -0.16280E-01 10206   0.770E-01-0.330E-02
CGA:  32    -0.368446951944E+03   -0.10072E-01   -0.10188E-01 10206   0.721E-01-0.680E-02
CGA:  33    -0.368454600282E+03   -0.76483E-02   -0.76422E-02 10206   0.521E-01-0.156E-02
CGA:  34    -0.368459202810E+03   -0.46025E-02   -0.46383E-02 10206   0.317E-01 0.182E-02
CGA:  35    -0.368462788490E+03   -0.35857E-02   -0.35848E-02 10206   0.261E-01 0.692E-04
CGA:  36    -0.368465971840E+03   -0.31834E-02   -0.32085E-02 10206   0.185E-01-0.477E-02
CGA:  37    -0.368467875261E+03   -0.19034E-02   -0.20286E-02 10206   0.176E-01-0.762E-02
CGA:  38    -0.368469164505E+03   -0.12892E-02   -0.14589E-02 10206   0.185E-01-0.750E-02
CGA:  39    -0.368470170320E+03   -0.10058E-02   -0.86468E-03 10206   0.123E-01-0.363E-02
CGA:  40    -0.368471163883E+03   -0.99356E-03   -0.93666E-03 10206   0.110E-01-0.242E-02
CGA:  41    -0.368472295422E+03   -0.11315E-02   -0.11822E-02 10206   0.137E-01-0.296E-02
CGA:  42    -0.368473124329E+03   -0.82891E-03   -0.76970E-03 10206   0.853E-02-0.148E-02
CGA:  43    -0.368473599790E+03   -0.47546E-03   -0.48183E-03 10206   0.494E-02 0.147E-03
SDA:  44    -0.368473928303E+03   -0.32851E-03   -0.36602E-03 10206   0.437E-02 0.952E-03
CGA:  45    -0.368474751351E+03   -0.82305E-03   -0.79406E-03 10206   0.240E-02 0.413E-03
CGA:  46    -0.368475453353E+03   -0.70200E-03   -0.88537E-03 10206   0.123E-02-0.833E-03
CGA:  47    -0.368475537196E+03   -0.83843E-04   -0.88922E-04 10206   0.544E-03 0.350E-03
CGA:  48    -0.368475600817E+03   -0.63621E-04   -0.70626E-04 10206   0.283E-03 0.295E-03
CGA:  49    -0.368475549150E+03    0.51666E-04   -0.17343E-03 10206   0.214E-02-0.467E-03
CGA:  50    -0.368475692469E+03   -0.14332E-03   -0.16769E-03 10206   0.111E-03 0.355E-03
CGA:  51    -0.368475701690E+03   -0.92210E-05   -0.11605E-04 10206   0.447E-04 0.438E-04
CGA:  52    -0.368475600009E+03    0.10168E-03   -0.55887E-04 10206   0.615E-03-0.214E-03
CGA:  53    -0.368475729143E+03   -0.12913E-03   -0.12916E-03 10206   0.230E-03 0.568E-06
CGA:  54    -0.368475741788E+03   -0.12645E-04   -0.22180E-04 10206   0.214E-04 0.599E-04
CGA:  55    -0.368475742054E+03   -0.26647E-06   -0.20141E-05 10206   0.679E-05 0.101E-04
   1 F= -.36847574E+03 E0= -.36847574E+03  d E =-.368476E+03  mag=    16.0000
       N       E                     dE             d eps       ncg     rms          ort
SDA:   1    -0.368476727455E+03   -0.98567E-03    0.00000E+00 10206   0.527E-03 0.000E+00
CGA:   2    -0.368476753902E+03   -0.26446E-04   -0.40019E-04 10206   0.663E-04 0.855E-04
CGA:   3    -0.368476757891E+03   -0.39895E-05   -0.83449E-05 10206   0.392E-04 0.366E-04
CGA:   4    -0.368476767479E+03   -0.95883E-05   -0.10429E-04 10206   0.784E-04-0.187E-04
   2 F= -.36847677E+03 E0= -.36847677E+03  d E =-.102543E-02  mag=    16.0000
       N       E                     dE             d eps       ncg     rms          ort
SDA:   1    -0.368457653210E+03    0.19105E-01    0.00000E+00 10206   0.165E+00 0.000E+00
CGA:   2    -0.368496917418E+03   -0.39264E-01   -0.39227E-01 10206   0.832E-01 0.159E-02
CGA:   3    -0.368509353081E+03   -0.12436E-01   -0.12475E-01 10206   0.260E-01 0.620E-03
CGA:   4    -0.368514467893E+03   -0.51148E-02   -0.50984E-02 10206   0.565E-02-0.877E-03
CGA:   5    -0.368515427445E+03   -0.95955E-03   -0.95882E-03 10206   0.145E-02-0.192E-04
CGA:   6    -0.368515714113E+03   -0.28667E-03   -0.28670E-03 10206   0.496E-03 0.246E-05
CGA:   7    -0.368515780872E+03   -0.66759E-04   -0.75224E-04 10206   0.151E-03 0.145E-03
CGA:   8    -0.368515837621E+03   -0.56749E-04   -0.57861E-04 10206   0.106E-03-0.123E-04
CGA:   9    -0.368515857649E+03   -0.20028E-04   -0.20076E-04 10206   0.544E-04 0.775E-05
CGA:  10    -0.368515872645E+03   -0.14997E-04   -0.15553E-04 10206   0.330E-04-0.101E-04
CGA:  11    -0.368515851394E+03    0.21251E-04   -0.19267E-04 10206   0.266E-03-0.804E-04
CGA:  12    -0.368515871511E+03   -0.20117E-04   -0.27080E-04 10206   0.441E-04 0.507E-04
CGA:  13    -0.368515880264E+03   -0.87529E-05   -0.91521E-05 10206   0.129E-04 0.687E-05
   3 F= -.36851588E+03 E0= -.36851588E+03  d E =-.391128E-01  mag=    16.0000
       N       E                     dE             d eps       ncg     rms          ort
SDA:   1    -0.368209267657E+03    0.30660E+00    0.00000E+00 10206   0.109E+01 0.000E+00
CGA:   2    -0.368494692176E+03   -0.28542E+00   -0.28521E+00 10206   0.396E+00 0.564E-02
CGA:   3    -0.368569553330E+03   -0.74861E-01   -0.74860E-01 10206   0.150E+00-0.624E-04
CGA:   4    -0.368594047047E+03   -0.24494E-01   -0.24384E-01 10206   0.331E-01-0.176E-02
CGA:   5    -0.368599620526E+03   -0.55735E-02   -0.55667E-02 10206   0.933E-02-0.119E-03
CGA:   6    -0.368601426967E+03   -0.18064E-02   -0.18106E-02 10206   0.285E-02 0.161E-03
CGA:   7    -0.368602064379E+03   -0.63741E-03   -0.63718E-03 10206   0.112E-02 0.287E-03
CGA:   8    -0.368602408482E+03   -0.34410E-03   -0.35293E-03 10206   0.800E-03-0.133E-03
CGA:   9    -0.368602530012E+03   -0.12153E-03   -0.12482E-03 10206   0.348E-03 0.725E-04
CGA:  10    -0.368602637960E+03   -0.10795E-03   -0.11752E-03 10206   0.201E-03-0.107E-03
CGA:  11    -0.368602674934E+03   -0.36974E-04   -0.38012E-04 10206   0.831E-04-0.217E-04
CGA:  12    -0.368602695953E+03   -0.21019E-04   -0.28902E-04 10206   0.832E-04-0.485E-04
CGA:  13    -0.368602697229E+03   -0.12768E-05   -0.72663E-05 10206   0.269E-04 0.405E-04
   4 F= -.36860270E+03 E0= -.36860270E+03  d E =-.868170E-01  mag=    16.0000
       N       E                     dE             d eps       ncg     rms          ort
SDA:   1    -0.367954270261E+03    0.64843E+00    0.00000E+00 10206   0.210E+01 0.000E+00
CGA:   2    -0.368500930567E+03   -0.54666E+00   -0.54638E+00 10206   0.678E+00 0.576E-02
CGA:   3    -0.368639324524E+03   -0.13839E+00   -0.13842E+00 10206   0.263E+00 0.159E-02
CGA:   4    -0.368681310334E+03   -0.41986E-01   -0.41781E-01 10206   0.579E-01-0.346E-02
CGA:   5    -0.368691032001E+03   -0.97217E-02   -0.97547E-02 10206   0.165E-01 0.723E-03
CGA:   6    -0.368694412812E+03   -0.33808E-02   -0.33759E-02 10206   0.580E-02-0.333E-03
CGA:   7    -0.368695661607E+03   -0.12488E-02   -0.12466E-02 10206   0.235E-02 0.624E-03
CGA:   8    -0.368696409867E+03   -0.74826E-03   -0.78492E-03 10206   0.194E-02-0.427E-03
CGA:   9    -0.368696636553E+03   -0.22669E-03   -0.24580E-03 10206   0.809E-03 0.292E-03
CGA:  10    -0.368696841775E+03   -0.20522E-03   -0.20521E-03 10206   0.372E-03 0.385E-05
CGA:  11    -0.368696862576E+03   -0.20801E-04   -0.17033E-03 10206   0.200E-02-0.627E-03
CGA:  12    -0.368696961116E+03   -0.98539E-04   -0.15484E-03 10206   0.193E-03 0.376E-03
CGA:  13    -0.368696974812E+03   -0.13697E-04   -0.24107E-04 10206   0.952E-04 0.892E-04
CGA:  14    -0.368697005041E+03   -0.30228E-04   -0.30320E-04 10206   0.342E-04-0.419E-04
CGA:  15    -0.368697007142E+03   -0.21007E-05   -0.27345E-05 10206   0.234E-04 0.868E-05
   5 F= -.36869701E+03 E0= -.36869701E+03  d E =-.943099E-01  mag=    16.0000
       N       E                     dE             d eps       ncg     rms          ort
SDA:   1    -0.367585193870E+03    0.11118E+01    0.00000E+00 10206   0.344E+01 0.000E+00
CGA:   2    -0.368470373280E+03   -0.88518E+00   -0.88493E+00 10206   0.104E+01 0.197E-02
CGA:   3    -0.368689963868E+03   -0.21959E+00   -0.21958E+00 10206   0.421E+00 0.705E-02
CGA:   4    -0.368755076460E+03   -0.65113E-01   -0.64759E-01 10206   0.940E-01-0.726E-02
CGA:   5    -0.368770760435E+03   -0.15684E-01   -0.15780E-01 10206   0.257E-01 0.276E-02
CGA:   6    -0.368776452304E+03   -0.56919E-02   -0.57078E-02 10206   0.103E-01-0.148E-02
CGA:   7    -0.368778583609E+03   -0.21313E-02   -0.21169E-02 10206   0.424E-02 0.123E-02
CGA:   8    -0.368779981744E+03   -0.13981E-02   -0.15123E-02 10206   0.397E-02-0.101E-02
CGA:   9    -0.368780353765E+03   -0.37202E-03   -0.42076E-03 10206   0.173E-02 0.674E-03
CGA:  10    -0.368780679658E+03   -0.32589E-03   -0.33761E-03 10206   0.833E-03 0.284E-03
CGA:  11    -0.368780853271E+03   -0.17361E-03   -0.32319E-03 10206   0.246E-02-0.117E-02
CGA:  12    -0.368780954301E+03   -0.10103E-03   -0.18898E-03 10206   0.353E-03 0.653E-03
CGA:  13    -0.368780976711E+03   -0.22410E-04   -0.41948E-04 10206   0.159E-03 0.175E-03
CGA:  14    -0.368781028360E+03   -0.51649E-04   -0.61524E-04 10206   0.129E-03-0.166E-03
CGA:  15    -0.368781035395E+03   -0.70350E-05   -0.13748E-04 10206   0.415E-04 0.695E-04
CGA:  16    -0.368780940466E+03    0.94928E-04   -0.52152E-04 10206   0.615E-03-0.140E-03
CGA:  17    -0.368780997893E+03   -0.57427E-04   -0.90953E-04 10206   0.146E-03 0.157E-03
CGA:  18    -0.368781056421E+03   -0.58528E-04   -0.75957E-04 10206   0.441E-03-0.274E-03
CGA:  19    -0.368781043369E+03    0.13052E-04   -0.32215E-04 10206   0.918E-04 0.162E-03
CGA:  20    -0.368781036179E+03    0.71904E-05   -0.91131E-05 10206   0.447E-04 0.610E-04
CGA:  21    -0.368781079870E+03   -0.43692E-04    0.14632E-04 10206   0.523E-04-0.200E-04
CGA:  22    -0.368781075439E+03    0.44313E-05   -0.88616E-06 10206   0.341E-04 0.180E-04
   6 F= -.36878108E+03 E0= -.36878108E+03  d E =-.840683E-01  mag=    16.0000
       N       E                     dE             d eps       ncg     rms          ort
SDA:   1    -0.367359822248E+03    0.14213E+01    0.00000E+00 10206   0.409E+01 0.000E+00
CGA:   2    -0.368460467205E+03   -0.11006E+01   -0.11007E+01 10206   0.129E+01-0.525E-02
CGA:   3    -0.368711760884E+03   -0.25129E+00   -0.25151E+00 10206   0.590E+00 0.124E-01
CGA:   4    -0.368797287222E+03   -0.85526E-01   -0.85078E-01 10206   0.101E+00-0.974E-02
CGA:   5    -0.368816711755E+03   -0.19425E-01   -0.19609E-01 10206   0.254E-01 0.224E-02
CGA:   6    -0.368822606278E+03   -0.58945E-02   -0.58220E-02 10206   0.120E-01-0.133E-02
CGA:   7    -0.368824812422E+03   -0.22061E-02   -0.22944E-02 10206   0.528E-02 0.118E-02
CGA:   8    -0.368826541168E+03   -0.17287E-02   -0.17560E-02 10206   0.429E-02-0.904E-03
CGA:   9    -0.368827065139E+03   -0.52397E-03   -0.59758E-03 10206   0.171E-02 0.695E-03
CGA:  10    -0.368827499302E+03   -0.43416E-03   -0.43810E-03 10206   0.626E-03 0.800E-04
CGA:  11    -0.368827628407E+03   -0.12910E-03   -0.31013E-03 10206   0.271E-02-0.876E-03
CGA:  12    -0.368827709745E+03   -0.81338E-04   -0.20417E-03 10206   0.307E-03 0.617E-03
CGA:  13    -0.368827712578E+03   -0.28332E-05   -0.32733E-04 10206   0.153E-03 0.166E-03
CGA:  14    -0.368827801234E+03   -0.88657E-04    0.16042E-03 10206   0.153E-03-0.315E-04
CGA:  15    -0.368827793129E+03    0.81051E-05   -0.65483E-05 10206   0.733E-04 0.719E-04
   7 F= -.36882779E+03 E0= -.36882779E+03  d E =-.467177E-01  mag=    16.0000
       N       E                     dE             d eps       ncg     rms          ort
SDA:   1    -0.366568014078E+03    0.22598E+01    0.00000E+00 10206   0.588E+01 0.000E+00
CGA:   2    -0.368293209761E+03   -0.17252E+01   -0.17254E+01 10206   0.224E+01-0.759E-02
CGA:   3    -0.368657804796E+03   -0.36460E+00   -0.36297E+00 10206   0.901E+00 0.192E-01
CGA:   4    -0.368801057529E+03   -0.14325E+00   -0.14303E+00 10206   0.130E+00-0.960E-02
CGA:   5    -0.368827308017E+03   -0.26250E-01   -0.26321E-01 10206   0.349E-01 0.266E-02
CGA:   6    -0.368834958882E+03   -0.76509E-02   -0.76256E-02 10206   0.148E-01-0.158E-02
CGA:   7    -0.368837687550E+03   -0.27287E-02   -0.27696E-02 10206   0.608E-02 0.121E-02
CGA:   8    -0.368839628270E+03   -0.19407E-02   -0.20331E-02 10206   0.503E-02-0.114E-02
CGA:   9    -0.368840260903E+03   -0.63263E-03   -0.68018E-03 10206   0.210E-02 0.729E-03
CGA:  10    -0.368840797111E+03   -0.53621E-03   -0.53663E-03 10206   0.817E-03 0.739E-04
CGA:  11    -0.368840964629E+03   -0.16752E-03   -0.35629E-03 10206   0.283E-02-0.979E-03
CGA:  12    -0.368841073151E+03   -0.10852E-03   -0.21341E-03 10206   0.322E-03 0.652E-03
CGA:  13    -0.368841084036E+03   -0.10885E-04   -0.34825E-04 10206   0.160E-03 0.169E-03
CGA:  14    -0.368841170907E+03   -0.86871E-04    0.79836E-04 10206   0.121E-03-0.681E-05
CGA:  15    -0.368841167103E+03    0.38043E-05   -0.74113E-05 10206   0.510E-04 0.706E-04
   8 F= -.36884117E+03 E0= -.36884117E+03  d E =-.133740E-01  mag=    16.0000
       N       E                     dE             d eps       ncg     rms          ort
SDA:   1    -0.368612555506E+03    0.22862E+00    0.00000E+00 10206   0.573E+00 0.000E+00
CGA:   2    -0.368791842092E+03   -0.17929E+00   -0.17959E+00 10206   0.274E+00-0.289E-02
CGA:   3    -0.368831752650E+03   -0.39911E-01   -0.40031E-01 10206   0.724E-01 0.259E-02
CGA:   4    -0.368844148042E+03   -0.12395E-01   -0.12338E-01 10206   0.171E-01-0.156E-02
CGA:   5    -0.368846884621E+03   -0.27366E-02   -0.27663E-02 10206   0.385E-02 0.748E-03
CGA:   6    -0.368847785242E+03   -0.90062E-03   -0.90855E-03 10206   0.140E-02-0.354E-03
CGA:   7    -0.368848004398E+03   -0.21916E-03   -0.22394E-03 10206   0.374E-03 0.168E-03
CGA:   8    -0.368848123498E+03   -0.11910E-03   -0.13727E-03 10206   0.325E-03-0.147E-03
CGA:   9    -0.368848138294E+03   -0.14795E-04   -0.22215E-04 10206   0.182E-03 0.762E-04
CGA:  10    -0.368848156962E+03   -0.18669E-04   -0.24490E-04 10206   0.625E-04 0.606E-04
CGA:  11    -0.368848121545E+03    0.35417E-04   -0.50026E-04 10206   0.528E-03-0.213E-03
CGA:  12    -0.368848153604E+03   -0.32058E-04   -0.54358E-04 10206   0.109E-03 0.191E-03
CGA:  13    -0.368848176808E+03   -0.23204E-04   -0.23515E-04 10206   0.167E-04 0.565E-05
CGA:  14    -0.368848198428E+03   -0.21620E-04    0.97021E-06 10206   0.134E-04-0.552E-05
CGA:  15    -0.368848197413E+03    0.10148E-05   -0.26351E-06 10206   0.103E-04 0.702E-05
   9 F= -.36884820E+03 E0= -.36884820E+03  d E =-.703031E-02  mag=    16.0000
       N       E                     dE             d eps       ncg     rms          ort
SDA:   1    -0.368624171252E+03    0.22403E+00    0.00000E+00 10206   0.555E+00 0.000E+00
CGA:   2    -0.368801563170E+03   -0.17739E+00   -0.17767E+00 10206   0.245E+00-0.229E-02
CGA:   3    -0.368838091486E+03   -0.36528E-01   -0.36643E-01 10206   0.656E-01 0.268E-02
CGA:   4    -0.368849280908E+03   -0.11189E-01   -0.11156E-01 10206   0.158E-01-0.123E-02
CGA:   5    -0.368851767774E+03   -0.24869E-02   -0.25086E-02 10206   0.362E-02 0.647E-03
CGA:   6    -0.368852641135E+03   -0.87336E-03   -0.89875E-03 10206   0.146E-02-0.570E-03
CGA:   7    -0.368852849812E+03   -0.20868E-03   -0.21188E-03 10206   0.399E-03 0.134E-03
CGA:   8    -0.368852963868E+03   -0.11406E-03   -0.12214E-03 10206   0.246E-03-0.947E-04
CGA:   9    -0.368852986176E+03   -0.22308E-04   -0.26298E-04 10206   0.110E-03 0.679E-04
CGA:  10    -0.368853006569E+03   -0.20393E-04   -0.21355E-04 10206   0.378E-04 0.217E-04
CGA:  11    -0.368853027462E+03   -0.20893E-04    0.23026E-04 10206   0.187E-04 0.452E-05
CGA:  12    -0.368853027466E+03   -0.43547E-08   -0.15734E-05 10206   0.998E-05 0.132E-04
  10 F= -.36885303E+03 E0= -.36885303E+03  d E =-.483005E-02  mag=    16.0000
       N       E                     dE             d eps       ncg     rms          ort
SDA:   1    -0.367815903272E+03    0.10371E+01    0.00000E+00 10206   0.247E+01 0.000E+00
CGA:   2    -0.368646445981E+03   -0.83054E+00   -0.83117E+00 10206   0.100E+01-0.426E-02
CGA:   3    -0.368799528477E+03   -0.15308E+00   -0.15326E+00 10206   0.261E+00 0.573E-02
CGA:   4    -0.368843292757E+03   -0.43764E-01   -0.43729E-01 10206   0.621E-01-0.203E-02
CGA:   5    -0.368853406241E+03   -0.10113E-01   -0.10139E-01 10206   0.159E-01 0.121E-02
CGA:   6    -0.368856899660E+03   -0.34934E-02   -0.35422E-02 10206   0.535E-02-0.144E-02
CGA:   7    -0.368857813232E+03   -0.91357E-03   -0.91326E-03 10206   0.153E-02 0.304E-03
CGA:   8    -0.368858257429E+03   -0.44420E-03   -0.48708E-03 10206   0.112E-02-0.376E-03
CGA:   9    -0.368858350555E+03   -0.93126E-04   -0.10884E-03 10206   0.461E-03 0.249E-03
CGA:  10    -0.368858434522E+03   -0.83967E-04   -0.86888E-04 10206   0.204E-03 0.833E-04
CGA:  11    -0.368857165163E+03    0.12694E-02   -0.68608E-03 10206   0.106E-01-0.152E-02
CGA:  12    -0.368858022435E+03   -0.85727E-03   -0.10558E-02 10206   0.157E-02 0.916E-03
CGA:  13    -0.368858431733E+03   -0.40930E-03   -0.40445E-03 10206   0.213E-03-0.527E-04
CGA:  14    -0.368858234646E+03    0.19709E-03   -0.18280E-03 10206   0.456E-02-0.675E-03
CGA:  15    -0.368858477963E+03   -0.24332E-03   -0.38128E-03 10206   0.283E-03 0.546E-03
CGA:  16    -0.368858504130E+03   -0.26167E-04   -0.43503E-04 10206   0.101E-03 0.856E-04
CGA:  17    -0.368858547737E+03   -0.43607E-04   -0.41543E-04 10206   0.226E-03-0.147E-03
CGA:  18    -0.368858542574E+03    0.51624E-05   -0.16182E-04 10206   0.420E-04 0.832E-04
  11 F= -.36885854E+03 E0= -.36885854E+03  d E =-.551511E-02  mag=    16.0000
       N       E                     dE             d eps       ncg     rms          ort
SDA:   1    -0.363479867081E+03    0.53787E+01    0.00000E+00 10206   0.127E+02 0.000E+00
CGA:   2    -0.367766423820E+03   -0.42866E+01   -0.42866E+01 10206   0.537E+01-0.642E-02
CGA:   3    -0.368532481611E+03   -0.76606E+00   -0.76209E+00 10206   0.143E+01 0.517E-01
CGA:   4    -0.368776963288E+03   -0.24448E+00   -0.24510E+00 10206   0.314E+00-0.105E-01
CGA:   5    -0.368830876733E+03   -0.53913E-01   -0.54236E-01 10206   0.798E-01 0.330E-02
CGA:   6    -0.368848063292E+03   -0.17187E-01   -0.16996E-01 10206   0.243E-01-0.263E-02
CGA:   7    -0.368852731866E+03   -0.46686E-02   -0.47186E-02 10206   0.839E-02 0.638E-03
CGA:   8    -0.368855078548E+03   -0.23467E-02   -0.23414E-02 10206   0.501E-02-0.102E-02
CGA:   9    -0.368855772761E+03   -0.69421E-03   -0.75310E-03 10206   0.189E-02 0.565E-03
CGA:  10    -0.368856363610E+03   -0.59085E-03   -0.59542E-03 10206   0.927E-03-0.373E-03
CGA:  11    -0.368856562405E+03   -0.19880E-03   -0.19811E-03 10206   0.339E-03-0.117E-03
CGA:  12    -0.368856615930E+03   -0.53525E-04   -0.57580E-04 10206   0.122E-03 0.523E-04
CGA:  13    -0.368856699869E+03   -0.83939E-04    0.16337E-03 10206   0.789E-04-0.410E-04
CGA:  14    -0.368856700793E+03   -0.92370E-06   -0.50211E-05 10206   0.465E-04 0.238E-04
  12 F= -.36885670E+03 E0= -.36885670E+03  d E =0.184178E-02  mag=    16.0000
       N       E                     dE             d eps       ncg     rms          ort
SDA:   1    -0.368544263298E+03    0.31244E+00    0.00000E+00 10206   0.817E+00 0.000E+00
CGA:   2    -0.368785620930E+03   -0.24136E+00   -0.24130E+00 10206   0.370E+00 0.107E-02
CGA:   3    -0.368846924867E+03   -0.61304E-01   -0.61098E-01 10206   0.103E+00-0.228E-02
CGA:   4    -0.368864129320E+03   -0.17204E-01   -0.17260E-01 10206   0.245E-01 0.736E-03
CGA:   5    -0.368868363558E+03   -0.42342E-02   -0.42121E-02 10206   0.671E-02-0.302E-03
CGA:   6    -0.368869585211E+03   -0.12217E-02   -0.12405E-02 10206   0.181E-02 0.350E-03
CGA:   7    -0.368870058686E+03   -0.47347E-03   -0.47523E-03 10206   0.759E-03-0.149E-03
CGA:   8    -0.368870209511E+03   -0.15083E-03   -0.15208E-03 10206   0.262E-03 0.617E-04
CGA:   9    -0.368870246641E+03   -0.37129E-04   -0.17596E-03 10206   0.927E-03-0.362E-03
CGA:  10    -0.368870320045E+03   -0.73404E-04   -0.10532E-03 10206   0.154E-03 0.223E-03
CGA:  11    -0.368870370490E+03   -0.50445E-04   -0.56853E-04 10206   0.145E-03-0.132E-03
CGA:  12    -0.368870374240E+03   -0.37503E-05   -0.13699E-04 10206   0.324E-04 0.632E-04
  13 F= -.36887037E+03 E0= -.36887037E+03  d E =-.136734E-01  mag=    16.0000
       N       E                     dE             d eps       ncg     rms          ort
SDA:   1    -0.368839502843E+03    0.30868E-01    0.00000E+00 10206   0.804E-01 0.000E+00
CGA:   2    -0.368866040835E+03   -0.26538E-01   -0.26447E-01 10206   0.315E-01 0.993E-03
CGA:   3    -0.368871350856E+03   -0.53100E-02   -0.51818E-02 10206   0.103E-01-0.163E-02
CGA:   4    -0.368872699267E+03   -0.13484E-02   -0.14183E-02 10206   0.191E-02 0.759E-03
CGA:   5    -0.368873094417E+03   -0.39515E-03   -0.39050E-03 10206   0.602E-03-0.108E-03
CGA:   6    -0.368873180199E+03   -0.85782E-04   -0.92916E-04 10206   0.142E-03 0.105E-03
CGA:   7    -0.368873196972E+03   -0.16773E-04   -0.22557E-04 10206   0.511E-04 0.625E-04
CGA:   8    -0.368873217463E+03   -0.20491E-04   -0.21384E-04 10206   0.466E-04-0.134E-04
CGA:   9    -0.368873219409E+03   -0.19464E-05   -0.35829E-05 10206   0.310E-04 0.133E-04
  14 F= -.36887322E+03 E0= -.36887322E+03  d E =-.284517E-02  mag=    16.0000
       N       E                     dE             d eps       ncg     rms          ort
SDA:   1    -0.368832927016E+03    0.40290E-01    0.00000E+00 10206   0.105E+00 0.000E+00
CGA:   2    -0.368866447595E+03   -0.33521E-01   -0.33469E-01 10206   0.425E-01 0.473E-03
CGA:   3    -0.368873732505E+03   -0.72849E-02   -0.72105E-02 10206   0.138E-01-0.148E-02
CGA:   4    -0.368875554051E+03   -0.18215E-02   -0.18912E-02 10206   0.244E-02 0.934E-03
CGA:   5    -0.368876069443E+03   -0.51539E-03   -0.51240E-03 10206   0.840E-03-0.177E-03
CGA:   6    -0.368876213940E+03   -0.14450E-03   -0.14509E-03 10206   0.204E-03 0.223E-04
CGA:   7    -0.368876266905E+03   -0.52965E-04   -0.54697E-04 10206   0.105E-03-0.344E-04
CGA:   8    -0.368876243554E+03    0.23351E-04   -0.60116E-04 10206   0.507E-03-0.176E-03
CGA:   9    -0.368876281186E+03   -0.37632E-04   -0.55275E-04 10206   0.797E-04 0.137E-03
CGA:  10    -0.368876306475E+03   -0.25289E-04   -0.26650E-04 10206   0.572E-04-0.425E-04
CGA:  11    -0.368876308718E+03   -0.22430E-05   -0.55237E-05 10206   0.117E-04 0.241E-04
  15 F= -.36887631E+03 E0= -.36887631E+03  d E =-.308931E-02  mag=    16.0000
       N       E                     dE             d eps       ncg     rms          ort
SDA:   1    -0.368514241638E+03    0.36206E+00    0.00000E+00 10206   0.900E+00 0.000E+00
CGA:   2    -0.368802206708E+03   -0.28797E+00   -0.28800E+00 10206   0.356E+00-0.652E-03
CGA:   3    -0.368863195315E+03   -0.60989E-01   -0.60916E-01 10206   0.101E+00-0.130E-02
CGA:   4    -0.368879081024E+03   -0.15886E-01   -0.15939E-01 10206   0.210E-01 0.827E-03
CGA:   5    -0.368882845657E+03   -0.37646E-02   -0.37610E-02 10206   0.633E-02-0.868E-04
CGA:   6    -0.368884056471E+03   -0.12108E-02   -0.12110E-02 10206   0.169E-02 0.753E-05
CGA:   7    -0.368884487495E+03   -0.43102E-03   -0.44323E-03 10206   0.837E-03-0.267E-03
CGA:   8    -0.368884633736E+03   -0.14624E-03   -0.14683E-03 10206   0.290E-03 0.566E-04
CGA:   9    -0.368884726297E+03   -0.92561E-04   -0.11926E-03 10206   0.358E-03-0.160E-03
CGA:  10    -0.368884749096E+03   -0.22800E-04   -0.36206E-04 10206   0.694E-04 0.107E-03
CGA:  11    -0.368884770424E+03   -0.21327E-04   -0.22100E-04 10206   0.465E-04-0.309E-04
CGA:  12    -0.368884788178E+03   -0.17755E-04    0.51501E-05 10206   0.436E-04-0.569E-05
CGA:  13    -0.368884791457E+03   -0.32790E-05   -0.45532E-05 10206   0.186E-04 0.124E-04
  16 F= -.36888479E+03 E0= -.36888479E+03  d E =-.848274E-02  mag=    16.0000
       N       E                     dE             d eps       ncg     rms          ort
SDA:   1    -0.362061524003E+03    0.68233E+01    0.00000E+00 10206   0.166E+02 0.000E+00
CGA:   2    -0.367459467892E+03   -0.53979E+01   -0.53971E+01 10206   0.626E+01 0.316E-02
CGA:   3    -0.368476422346E+03   -0.10170E+01   -0.10158E+01 10206   0.205E+01 0.186E-01
CGA:   4    -0.368793372141E+03   -0.31695E+00   -0.31712E+00 10206   0.399E+00-0.130E-01
CGA:   5    -0.368865322827E+03   -0.71951E-01   -0.72131E-01 10206   0.107E+00 0.693E-02
CGA:   6    -0.368888045704E+03   -0.22723E-01   -0.22725E-01 10206   0.324E-01-0.204E-02
CGA:   7    -0.368894726038E+03   -0.66803E-02   -0.66774E-02 10206   0.123E-01 0.152E-02
CGA:   8    -0.368898334822E+03   -0.36088E-02   -0.37961E-02 10206   0.910E-02-0.217E-02
CGA:   9    -0.368899416073E+03   -0.10813E-02   -0.11540E-02 10206   0.344E-02 0.125E-02
CGA:  10    -0.368900254294E+03   -0.83822E-03   -0.83720E-03 10206   0.145E-02 0.266E-03
CGA:  11    -0.368900638408E+03   -0.38411E-03   -0.49023E-03 10206   0.260E-02-0.102E-02
CGA:  12    -0.368900733583E+03   -0.95175E-04   -0.19403E-03 10206   0.376E-03 0.707E-03
CGA:  13    -0.368900749998E+03   -0.16415E-04   -0.41664E-04 10206   0.207E-03 0.208E-03
CGA:  14    -0.368900861809E+03   -0.11181E-03    0.62941E-04 10206   0.148E-03 0.240E-04
CGA:  15    -0.368900866035E+03   -0.42261E-05   -0.15295E-04 10206   0.633E-04 0.101E-03
  17 F= -.36890087E+03 E0= -.36890087E+03  d E =-.160746E-01  mag=    16.0000
       N       E                     dE             d eps       ncg     rms          ort
SDA:   1    -0.368741033839E+03    0.15983E+00    0.00000E+00 10206   0.417E+00 0.000E+00
CGA:   2    -0.368873841686E+03   -0.13281E+00   -0.13342E+00 10206   0.214E+00-0.482E-02
CGA:   3    -0.368901588966E+03   -0.27747E-01   -0.28092E-01 10206   0.549E-01 0.636E-02
CGA:   4    -0.368912318892E+03   -0.10730E-01   -0.10723E-01 10206   0.119E-01-0.245E-02
CGA:   5    -0.368914350497E+03   -0.20316E-02   -0.20388E-02 10206   0.299E-02 0.524E-03
CGA:   6    -0.368915096948E+03   -0.74645E-03   -0.78308E-03 10206   0.154E-02-0.621E-03
CGA:   7    -0.368915313860E+03   -0.21691E-03   -0.21759E-03 10206   0.535E-03 0.411E-04
CGA:   8    -0.368915460473E+03   -0.14661E-03   -0.15830E-03 10206   0.312E-03-0.124E-03
CGA:   9    -0.368915504516E+03   -0.44043E-04   -0.44466E-04 10206   0.133E-03 0.332E-04
CGA:  10    -0.368915539610E+03   -0.35094E-04   -0.36173E-04 10206   0.613E-04-0.225E-04
CGA:  11    -0.368915563585E+03   -0.23975E-04    0.29332E-04 10206   0.261E-04 0.584E-05
CGA:  12    -0.368915570641E+03   -0.70564E-05   -0.74539E-05 10206   0.156E-04-0.656E-05
  18 F= -.36891557E+03 E0= -.36891557E+03  d E =-.147046E-01  mag=    16.0000
       N       E                     dE             d eps       ncg     rms          ort
SDA:   1    -0.368388131079E+03    0.52743E+00    0.00000E+00 10206   0.127E+01 0.000E+00
CGA:   2    -0.368808665314E+03   -0.42053E+00   -0.42073E+00 10206   0.448E+00-0.180E-02
CGA:   3    -0.368885815218E+03   -0.77150E-01   -0.77313E-01 10206   0.136E+00 0.469E-02
CGA:   4    -0.368907577848E+03   -0.21763E-01   -0.21567E-01 10206   0.299E-01-0.393E-02
CGA:   5    -0.368912341816E+03   -0.47640E-02   -0.48211E-02 10206   0.759E-02 0.147E-02
CGA:   6    -0.368914062264E+03   -0.17204E-02   -0.17275E-02 10206   0.243E-02-0.525E-03
CGA:   7    -0.368914459970E+03   -0.39771E-03   -0.40722E-03 10206   0.712E-03 0.396E-03
CGA:   8    -0.368914712322E+03   -0.25235E-03   -0.27547E-03 10206   0.553E-03-0.178E-03
CGA:   9    -0.368914770233E+03   -0.57911E-04   -0.64460E-04 10206   0.268E-03 0.121E-03
CGA:  10    -0.368914832732E+03   -0.62499E-04   -0.62582E-04 10206   0.110E-03 0.545E-05
CGA:  11    -0.368914884174E+03   -0.51441E-04    0.10428E-03 10206   0.557E-04 0.300E-05
CGA:  12    -0.368914885365E+03   -0.11916E-05   -0.49308E-05 10206   0.269E-04 0.313E-04
  19 F= -.36891489E+03 E0= -.36891489E+03  d E =0.685276E-03  mag=    16.0000
       N       E                     dE             d eps       ncg     rms          ort
SDA:   1    -0.366623599245E+03    0.22913E+01    0.00000E+00 10206   0.584E+01 0.000E+00
CGA:   2    -0.368219109157E+03   -0.15955E+01   -0.15967E+01 10206   0.312E+01-0.791E-02
CGA:   3    -0.368721903074E+03   -0.50279E+00   -0.50260E+00 10206   0.839E+00-0.159E-01
CGA:   4    -0.368853070999E+03   -0.13117E+00   -0.13127E+00 10206   0.187E+00 0.491E-02
CGA:   5    -0.368889683467E+03   -0.36612E-01   -0.36613E-01 10206   0.527E-01-0.126E-02
CGA:   6    -0.368899113404E+03   -0.94299E-02   -0.94427E-02 10206   0.133E-01 0.925E-03
CGA:   7    -0.368902297059E+03   -0.31837E-02   -0.31911E-02 10206   0.502E-02-0.181E-03
CGA:   8    -0.368903508959E+03   -0.12119E-02   -0.12317E-02 10206   0.197E-02-0.371E-03
CGA:   9    -0.368903946567E+03   -0.43761E-03   -0.43194E-03 10206   0.666E-03 0.149E-03
CGA:  10    -0.368903597157E+03    0.34941E-03   -0.56610E-03 10206   0.629E-02-0.155E-02
CGA:  11    -0.368904059389E+03   -0.46223E-03   -0.60133E-03 10206   0.854E-03 0.105E-02
CGA:  12    -0.368904247368E+03   -0.18798E-03   -0.18904E-03 10206   0.226E-03 0.319E-04
CGA:  13    -0.368904364976E+03   -0.11761E-03    0.19640E-03 10206   0.243E-03-0.105E-03
CGA:  14    -0.368904369017E+03   -0.40409E-05   -0.10341E-04 10206   0.143E-03 0.445E-04
  20 F= -.36890437E+03 E0= -.36890437E+03  d E =0.105163E-01  mag=    16.0000
       N       E                     dE             d eps       ncg     rms          ort
SDA:   1    -0.368441180793E+03    0.46318E+00    0.00000E+00 10206   0.126E+01 0.000E+00
CGA:   2    -0.368769877466E+03   -0.32870E+00   -0.32849E+00 10206   0.667E+00 0.438E-02
CGA:   3    -0.368881158509E+03   -0.11128E+00   -0.11111E+00 10206   0.196E+00-0.421E-02
CGA:   4    -0.368911097466E+03   -0.29939E-01   -0.30094E-01 10206   0.431E-01 0.350E-02
CGA:   5    -0.368919943980E+03   -0.88465E-02   -0.88449E-02 10206   0.130E-01-0.984E-03
CGA:   6    -0.368922145792E+03   -0.22018E-02   -0.22155E-02 10206   0.306E-02 0.468E-03
CGA:   7    -0.368922880565E+03   -0.73477E-03   -0.73174E-03 10206   0.112E-02 0.105E-03
CGA:   8    -0.368923137356E+03   -0.25679E-03   -0.25515E-03 10206   0.343E-03 0.999E-04
CGA:   9    -0.368923227084E+03   -0.89728E-04   -0.87258E-04 10206   0.113E-03 0.842E-04
CGA:  10    -0.368923262894E+03   -0.35810E-04   -0.34491E-04 10206   0.433E-04 0.332E-04
CGA:  11    -0.368923264937E+03   -0.20430E-05   -0.59419E-05 10206   0.244E-04 0.384E-04
  21 F= -.36892326E+03 E0= -.36892326E+03  d E =-.188959E-01  mag=    16.0000
       N       E                     dE             d eps       ncg     rms          ort
SDA:   1    -0.368856402968E+03    0.66860E-01    0.00000E+00 10206   0.178E+00 0.000E+00
CGA:   2    -0.368906239319E+03   -0.49836E-01   -0.49810E-01 10206   0.879E-01 0.305E-03
CGA:   3    -0.368921355430E+03   -0.15116E-01   -0.15119E-01 10206   0.233E-01 0.959E-04
CGA:   4    -0.368924911562E+03   -0.35561E-02   -0.35715E-02 10206   0.554E-02 0.314E-03
CGA:   5    -0.368925985481E+03   -0.10739E-02   -0.10733E-02 10206   0.171E-02-0.779E-04
CGA:   6    -0.368926275075E+03   -0.28959E-03   -0.29133E-03 10206   0.395E-03 0.643E-04
CGA:   7    -0.368926372010E+03   -0.96935E-04   -0.96735E-04 10206   0.142E-03 0.528E-05
CGA:   8    -0.368926399986E+03   -0.27976E-04   -0.28096E-04 10206   0.409E-04 0.242E-04
CGA:   9    -0.368926410650E+03   -0.10664E-04   -0.10445E-04 10206   0.154E-04 0.122E-04
CGA:  10    -0.368926411771E+03   -0.11208E-05   -0.22408E-05 10206   0.774E-05 0.127E-04
  22 F= -.36892641E+03 E0= -.36892641E+03  d E =-.314683E-02  mag=    16.0000
       N       E                     dE             d eps       ncg     rms          ort
SDA:   1    -0.367766571367E+03    0.11598E+01    0.00000E+00 10206   0.273E+01 0.000E+00
CGA:   2    -0.368671519132E+03   -0.90495E+00   -0.90520E+00 10206   0.123E+01-0.228E-02
CGA:   3    -0.368861467468E+03   -0.18995E+00   -0.19003E+00 10206   0.301E+00 0.307E-02
CGA:   4    -0.368910362253E+03   -0.48895E-01   -0.48853E-01 10206   0.744E-01-0.142E-02
CGA:   5    -0.368923188240E+03   -0.12826E-01   -0.12850E-01 10206   0.194E-01 0.115E-02
CGA:   6    -0.368927062763E+03   -0.38745E-02   -0.38751E-02 10206   0.554E-02-0.232E-03
CGA:   7    -0.368928263055E+03   -0.12003E-02   -0.11967E-02 10206   0.174E-02 0.147E-03
CGA:   8    -0.368928744370E+03   -0.48131E-03   -0.49805E-03 10206   0.931E-03-0.201E-03
CGA:   9    -0.368928896655E+03   -0.15229E-03   -0.15409E-03 10206   0.329E-03 0.150E-03
CGA:  10    -0.368928997764E+03   -0.10111E-03   -0.10983E-03 10206   0.253E-03-0.978E-04
CGA:  11    -0.368929016163E+03   -0.18399E-04   -0.22338E-04 10206   0.114E-03 0.509E-04
CGA:  12    -0.368929029969E+03   -0.13806E-04   -0.16297E-04 10206   0.449E-04 0.310E-04
CGA:  13    -0.368929028928E+03    0.10410E-05   -0.26783E-04 10206   0.198E-03-0.101E-03
CGA:  14    -0.368929039787E+03   -0.10859E-04   -0.19127E-04 10206   0.440E-04 0.736E-04
CGA:  15    -0.368929046592E+03   -0.68041E-05   -0.78159E-05 10206   0.954E-05 0.137E-04
  23 F= -.36892905E+03 E0= -.36892905E+03  d E =-.263482E-02  mag=    16.0000
       N       E                     dE             d eps       ncg     rms          ort
SDA:   1    -0.354159648097E+03    0.14769E+02    0.00000E+00 10206   0.352E+02 0.000E+00
CGA:   2    -0.365446138180E+03   -0.11286E+02   -0.11234E+02 10206   0.173E+02 0.385E+00
CGA:   3    -0.367890252340E+03   -0.24441E+01   -0.24004E+01 10206   0.442E+01 0.908E-01
CGA:   4    -0.368637177770E+03   -0.74693E+00   -0.74812E+00 10206   0.896E+00-0.484E-02
CGA:   5    -0.368814243336E+03   -0.17707E+00   -0.17708E+00 10206   0.233E+00 0.868E-02
CGA:   6    -0.368860749064E+03   -0.46506E-01   -0.46500E-01 10206   0.796E-01-0.252E-02
CGA:   7    -0.368877250512E+03   -0.16501E-01   -0.16488E-01 10206   0.279E-01 0.154E-02
CGA:   8    -0.368884493597E+03   -0.72431E-02   -0.73810E-02 10206   0.161E-01-0.237E-02
CGA:   9    -0.368887303821E+03   -0.28102E-02   -0.28238E-02 10206   0.657E-02 0.117E-02
CGA:  10    -0.368889032905E+03   -0.17291E-02   -0.17742E-02 10206   0.317E-02-0.930E-03
CGA:  11    -0.368889622359E+03   -0.58945E-03   -0.58735E-03 10206   0.942E-03 0.210E-03
CGA:  12    -0.368889890791E+03   -0.26843E-03   -0.28904E-03 10206   0.578E-03-0.251E-03
CGA:  13    -0.368889934613E+03   -0.43822E-04   -0.54321E-04 10206   0.250E-03 0.129E-03
CGA:  14    -0.368889964422E+03   -0.29809E-04   -0.38073E-04 10206   0.111E-03 0.102E-03
CGA:  15    -0.368889989800E+03   -0.25378E-04   -0.26054E-04 10206   0.618E-04 0.191E-04
CGA:  16    -0.368889993502E+03   -0.37024E-05   -0.78711E-05 10206   0.461E-04 0.456E-04
  24 F= -.36888999E+03 E0= -.36888999E+03  d E =0.390531E-01  mag=    16.0000
       N       E                     dE             d eps       ncg     rms          ort
SDA:   1    -0.367450350056E+03    0.14396E+01    0.00000E+00 10206   0.353E+01 0.000E+00
CGA:   2    -0.368577749705E+03   -0.11274E+01   -0.11270E+01 10206   0.153E+01 0.238E-02
CGA:   3    -0.368827015031E+03   -0.24927E+00   -0.24928E+00 10206   0.414E+00 0.193E-02
CGA:   4    -0.368896025226E+03   -0.69010E-01   -0.68943E-01 10206   0.102E+00-0.283E-02
CGA:   5    -0.368913347715E+03   -0.17322E-01   -0.17335E-01 10206   0.267E-01 0.572E-03
CGA:   6    -0.368918905957E+03   -0.55582E-02   -0.55832E-02 10206   0.900E-02-0.159E-02
CGA:   7    -0.368920748677E+03   -0.18427E-02   -0.18429E-02 10206   0.288E-02-0.521E-05
CGA:   8    -0.368921515422E+03   -0.76675E-03   -0.81178E-03 10206   0.175E-02-0.512E-03
CGA:   9    -0.368921742283E+03   -0.22686E-03   -0.23553E-03 10206   0.608E-03 0.252E-03
CGA:  10    -0.368921920358E+03   -0.17807E-03   -0.23577E-03 10206   0.687E-03-0.406E-03
CGA:  11    -0.368922024532E+03   -0.10417E-03   -0.10669E-03 10206   0.622E-04 0.519E-04
CGA:  12    -0.368922064389E+03   -0.39857E-04    0.14065E-04 10206   0.276E-04 0.209E-04
CGA:  13    -0.368922080375E+03   -0.15986E-04    0.47174E-04 10206   0.141E-04 0.130E-04
CGA:  14    -0.368922104589E+03   -0.24214E-04    0.11049E-05 10206   0.699E-05 0.101E-04
CGA:  15    -0.368922114069E+03   -0.94802E-05    0.29736E-06 10206   0.406E-05 0.452E-05
  25 F= -.36892211E+03 E0= -.36892211E+03  d E =-.321206E-01  mag=    16.0000
       N       E                     dE             d eps       ncg     rms          ort
SDA:   1    -0.368584698937E+03    0.33741E+00    0.00000E+00 10206   0.856E+00 0.000E+00
CGA:   2    -0.368844501310E+03   -0.25980E+00   -0.25949E+00 10206   0.390E+00 0.306E-02
CGA:   3    -0.368908827512E+03   -0.64326E-01   -0.64143E-01 10206   0.111E+00-0.441E-02
CGA:   4    -0.368925577633E+03   -0.16750E-01   -0.16889E-01 10206   0.255E-01 0.280E-02
CGA:   5    -0.368930665424E+03   -0.50878E-02   -0.50790E-02 10206   0.759E-02-0.117E-02
CGA:   6    -0.368931907566E+03   -0.12421E-02   -0.12554E-02 10206   0.187E-02 0.470E-03
CGA:   7    -0.368932389566E+03   -0.48200E-03   -0.48311E-03 10206   0.709E-03-0.258E-04
CGA:   8    -0.368932576314E+03   -0.18675E-03   -0.19318E-03 10206   0.326E-03-0.869E-04
CGA:   9    -0.368932641992E+03   -0.65678E-04   -0.64928E-04 10206   0.103E-03 0.357E-04
CGA:  10    -0.368932517624E+03    0.12437E-03   -0.10977E-03 10206   0.114E-02-0.312E-03
CGA:  11    -0.368932624847E+03   -0.10722E-03   -0.14015E-03 10206   0.207E-03 0.271E-03
CGA:  12    -0.368932629448E+03   -0.46010E-05   -0.12818E-03 10206   0.926E-03-0.470E-03
CGA:  13    -0.368932670515E+03   -0.41067E-04   -0.90569E-04 10206   0.190E-03 0.322E-03
CGA:  14    -0.368932696407E+03   -0.25892E-04   -0.32514E-04 10206   0.322E-04 0.568E-04
CGA:  15    -0.368932737182E+03   -0.40775E-04    0.47422E-05 10206   0.466E-04-0.340E-04
CGA:  16    -0.368932731715E+03    0.54675E-05   -0.13812E-05 10206   0.233E-04 0.329E-04
  26 F= -.36893273E+03 E0= -.36893273E+03  d E =-.106176E-01  mag=    16.0000
       N       E                     dE             d eps       ncg     rms          ort
SDA:   1    -0.368839471582E+03    0.93266E-01    0.00000E+00 10206   0.226E+00 0.000E+00
CGA:   2    -0.368910892112E+03   -0.71421E-01   -0.71528E-01 10206   0.105E+00-0.112E-02
CGA:   3    -0.368927214266E+03   -0.16322E-01   -0.16441E-01 10206   0.268E-01 0.185E-02
CGA:   4    -0.368931824954E+03   -0.46107E-02   -0.45666E-02 10206   0.723E-02-0.860E-03
CGA:   5    -0.368932946658E+03   -0.11217E-02   -0.11415E-02 10206   0.174E-02 0.370E-03
CGA:   6    -0.368933339953E+03   -0.39330E-03   -0.39347E-03 10206   0.601E-03-0.143E-03
CGA:   7    -0.368933451835E+03   -0.11188E-03   -0.11235E-03 10206   0.169E-03 0.450E-04
CGA:   8    -0.368933493237E+03   -0.41402E-04   -0.41232E-04 10206   0.624E-04 0.125E-04
CGA:   9    -0.368933515155E+03   -0.21918E-04   -0.29637E-04 10206   0.656E-04-0.338E-04
CGA:  10    -0.368933517675E+03   -0.25200E-05   -0.64145E-05 10206   0.171E-04 0.305E-04
  27 F= -.36893352E+03 E0= -.36893352E+03  d E =-.785961E-03  mag=    16.0000
       N       E                     dE             d eps       ncg     rms          ort
SDA:   1    -0.368376486631E+03    0.55703E+00    0.00000E+00 10206   0.130E+01 0.000E+00
CGA:   2    -0.368828053766E+03   -0.45157E+00   -0.45143E+00 10206   0.463E+00 0.922E-03
CGA:   3    -0.368905032484E+03   -0.76979E-01   -0.76976E-01 10206   0.124E+00 0.176E-04
CGA:   4    -0.368924816442E+03   -0.19784E-01   -0.19789E-01 10206   0.294E-01 0.643E-04
CGA:   5    -0.368930065431E+03   -0.52490E-02   -0.52299E-02 10206   0.831E-02-0.498E-03
CGA:   6    -0.368931611767E+03   -0.15463E-02   -0.15448E-02 10206   0.228E-02-0.603E-04
CGA:   7    -0.368932137570E+03   -0.52580E-03   -0.52747E-03 10206   0.782E-03-0.805E-04
CGA:   8    -0.368932327544E+03   -0.18997E-03   -0.19096E-03 10206   0.329E-03-0.250E-04
CGA:   9    -0.368932426909E+03   -0.99364E-04   -0.11416E-03 10206   0.233E-03-0.104E-03
CGA:  10    -0.368932454679E+03   -0.27770E-04   -0.28094E-04 10206   0.922E-04 0.698E-05
CGA:  11    -0.368932465381E+03   -0.10702E-04   -0.43476E-04 10206   0.255E-03-0.138E-03
CGA:  12    -0.368932495270E+03   -0.29889E-04   -0.33703E-04 10206   0.318E-04 0.380E-04
CGA:  13    -0.368932455490E+03    0.39780E-04   -0.27621E-04 10206   0.571E-03-0.127E-03
CGA:  14    -0.368932497228E+03   -0.41738E-04   -0.55430E-04 10206   0.682E-04 0.876E-04
CGA:  15    -0.368932513692E+03   -0.16464E-04   -0.16038E-04 10206   0.111E-04-0.101E-04
CGA:  16    -0.368932523623E+03   -0.99315E-05    0.10048E-05 10206   0.151E-04-0.764E-05
  28 F= -.36893252E+03 E0= -.36893252E+03  d E =0.994052E-03  mag=    16.0000
       N       E                     dE             d eps       ncg     rms          ort
SDA:   1    -0.360822214622E+03    0.81103E+01    0.00000E+00 10206   0.189E+02 0.000E+00
CGA:   2    -0.367305172644E+03   -0.64830E+01   -0.64721E+01 10206   0.891E+01 0.888E-01
CGA:   3    -0.368415999656E+03   -0.11108E+01   -0.10679E+01 10206   0.199E+01 0.273E+00
CGA:   4    -0.368817268266E+03   -0.40127E+00   -0.40139E+00 10206   0.339E+00-0.502E-02
CGA:   5    -0.368889228912E+03   -0.71961E-01   -0.71951E-01 10206   0.986E-01-0.521E-03
CGA:   6    -0.368907904775E+03   -0.18676E-01   -0.18693E-01 10206   0.336E-01 0.396E-03
CGA:   7    -0.368915383340E+03   -0.74786E-02   -0.74684E-02 10206   0.132E-01-0.140E-02
CGA:   8    -0.368918466418E+03   -0.30831E-02   -0.30773E-02 10206   0.601E-02 0.387E-03
CGA:   9    -0.368920194652E+03   -0.17282E-02   -0.18715E-02 10206   0.615E-02-0.196E-02
CGA:  10    -0.368920635350E+03   -0.44070E-03   -0.50176E-03 10206   0.212E-02 0.556E-03
CGA:  11    -0.368920843393E+03   -0.20804E-03   -0.25618E-03 10206   0.103E-02 0.415E-03
CGA:  12    -0.368921116873E+03   -0.27348E-03   -0.27485E-03 10206   0.649E-03-0.511E-03
CGA:  13    -0.368921131607E+03   -0.14734E-04   -0.12994E-03 10206   0.116E-02-0.649E-03
CGA:  14    -0.368921183968E+03   -0.52361E-04   -0.11319E-03 10206   0.349E-03 0.458E-03
CGA:  15    -0.368921234306E+03   -0.50338E-04   -0.66364E-04 10206   0.152E-03 0.184E-03
CGA:  16    -0.368921329381E+03   -0.95076E-04    0.38583E-04 10206   0.183E-03-0.497E-04
CGA:  17    -0.368921327995E+03    0.13864E-05   -0.97012E-05 10206   0.117E-03 0.790E-04
  29 F= -.36892133E+03 E0= -.36892133E+03  d E =0.111956E-01  mag=    16.0000
       N       E                     dE             d eps       ncg     rms          ort
SDA:   1    -0.368270319253E+03    0.65101E+00    0.00000E+00 10206   0.157E+01 0.000E+00
CGA:   2    -0.368773559377E+03   -0.50324E+00   -0.50412E+00 10206   0.724E+00-0.796E-02
CGA:   3    -0.368881987372E+03   -0.10843E+00   -0.10880E+00 10206   0.197E+00 0.770E-02
CGA:   4    -0.368914755220E+03   -0.32768E-01   -0.32599E-01 10206   0.448E-01-0.427E-02
CGA:   5    -0.368922193281E+03   -0.74381E-02   -0.75130E-02 10206   0.109E-01 0.228E-02
CGA:   6    -0.368924724429E+03   -0.25311E-02   -0.25454E-02 10206   0.383E-02-0.753E-03
CGA:   7    -0.368925456902E+03   -0.73247E-03   -0.73211E-03 10206   0.122E-02 0.207E-03
CGA:   8    -0.368925817793E+03   -0.36089E-03   -0.37775E-03 10206   0.734E-03-0.189E-03
CGA:   9    -0.368925909433E+03   -0.91640E-04   -0.10027E-03 10206   0.274E-03 0.185E-03
CGA:  10    -0.368925987915E+03   -0.78482E-04   -0.78950E-04 10206   0.139E-03-0.195E-04
CGA:  11    -0.368926023863E+03   -0.35948E-04   -0.39607E-04 10206   0.895E-04-0.364E-04
CGA:  12    -0.368926021373E+03    0.24897E-05   -0.40430E-05 10206   0.578E-04 0.433E-04
  30 F= -.36892602E+03 E0= -.36892602E+03  d E =-.469338E-02  mag=    16.0000
       N       E                     dE             d eps       ncg     rms          ort
SDA:   1    -0.366934812731E+03    0.19912E+01    0.00000E+00 10206   0.454E+01 0.000E+00
CGA:   2    -0.368615892464E+03   -0.16811E+01   -0.16843E+01 10206   0.161E+01-0.166E-01
CGA:   3    -0.368831326947E+03   -0.21543E+00   -0.21512E+00 10206   0.474E+00 0.197E-01
CGA:   4    -0.368914154323E+03   -0.82827E-01   -0.82636E-01 10206   0.767E-01-0.785E-02
CGA:   5    -0.368929696321E+03   -0.15542E-01   -0.15531E-01 10206   0.199E-01 0.205E-02
CGA:   6    -0.368933917132E+03   -0.42208E-02   -0.42272E-02 10206   0.728E-02-0.109E-02
CGA:   7    -0.368935121874E+03   -0.12047E-02   -0.12202E-02 10206   0.218E-02 0.646E-03
CGA:   8    -0.368935841507E+03   -0.71963E-03   -0.94247E-03 10206   0.279E-02-0.113E-02
CGA:   9    -0.368936079173E+03   -0.23767E-03   -0.30181E-03 10206   0.515E-03 0.631E-03
CGA:  10    -0.368936231793E+03   -0.15262E-03   -0.16191E-03 10206   0.335E-03-0.180E-03
CGA:  11    -0.368936171995E+03    0.59798E-04   -0.15598E-03 10206   0.950E-03-0.425E-03
CGA:  12    -0.368936314053E+03   -0.14206E-03   -0.15887E-03 10206   0.208E-03 0.256E-03
CGA:  13    -0.368935854895E+03    0.45916E-03   -0.26164E-03 10206   0.420E-02-0.948E-03
CGA:  14    -0.368936132375E+03   -0.27748E-03   -0.41254E-03 10206   0.792E-03 0.810E-03
CGA:  15    -0.368936333180E+03   -0.20080E-03   -0.20445E-03 10206   0.231E-03 0.852E-04
CGA:  16    -0.368935736416E+03    0.59676E-03   -0.19496E-03 10206   0.994E-02-0.157E-02
CGA:  17    -0.368936288834E+03   -0.55242E-03   -0.79164E-03 10206   0.447E-03 0.126E-02
CGA:  18    -0.368936310020E+03   -0.21186E-04   -0.53579E-04 10206   0.224E-03 0.195E-03
CGA:  19    -0.368936393239E+03   -0.83219E-04   -0.82673E-04 10206   0.414E-04-0.805E-04
CGA:  20    -0.368936436187E+03   -0.42949E-04    0.16809E-05 10206   0.914E-04-0.362E-04
CGA:  21    -0.368936426859E+03    0.93279E-05   -0.34761E-05 10206   0.366E-04 0.568E-04
  31 F= -.36893643E+03 E0= -.36893643E+03  d E =-.104055E-01  mag=    16.0000
       N       E                     dE             d eps       ncg     rms          ort
SDA:   1    -0.368830116307E+03    0.10632E+00    0.00000E+00 10206   0.262E+00 0.000E+00
CGA:   2    -0.368910575346E+03   -0.80459E-01   -0.80621E-01 10206   0.124E+00-0.247E-02
CGA:   3    -0.368928878985E+03   -0.18304E-01   -0.18550E-01 10206   0.336E-01 0.287E-02
CGA:   4    -0.368934836478E+03   -0.59575E-02   -0.58727E-02 10206   0.844E-02-0.125E-02
CGA:   5    -0.368936144220E+03   -0.13077E-02   -0.13547E-02 10206   0.190E-02 0.676E-03
CGA:   6    -0.368936560378E+03   -0.41616E-03   -0.41626E-03 10206   0.590E-03 0.277E-05
CGA:   7    -0.368936675796E+03   -0.11542E-03   -0.11880E-03 10206   0.175E-03 0.112E-03
CGA:   8    -0.368936719815E+03   -0.44019E-04   -0.44637E-04 10206   0.670E-04 0.407E-04
CGA:   9    -0.368936749208E+03   -0.29392E-04   -0.31007E-04 10206   0.482E-04-0.110E-04
CGA:  10    -0.368936745813E+03    0.33944E-05   -0.20793E-05 10206   0.320E-04 0.296E-04
  32 F= -.36893675E+03 E0= -.36893675E+03  d E =-.318954E-03  mag=    16.0000
       N       E                     dE             d eps       ncg     rms          ort
SDA:   1    -0.368904352615E+03    0.32397E-01    0.00000E+00 10206   0.764E-01 0.000E+00
CGA:   2    -0.368931558511E+03   -0.27206E-01   -0.27231E-01 10206   0.265E-01-0.190E-03
CGA:   3    -0.368935942576E+03   -0.43841E-02   -0.43912E-02 10206   0.767E-02 0.114E-03
CGA:   4    -0.368937190671E+03   -0.12481E-02   -0.12405E-02 10206   0.191E-02-0.122E-03
CGA:   5    -0.368937512387E+03   -0.32172E-03   -0.32207E-03 10206   0.497E-03 0.702E-05
CGA:   6    -0.368937637209E+03   -0.12482E-03   -0.13285E-03 10206   0.296E-03-0.163E-03
CGA:   7    -0.368937672473E+03   -0.35265E-04   -0.35359E-04 10206   0.928E-04 0.227E-05
CGA:   8    -0.368937686763E+03   -0.14290E-04   -0.15266E-04 10206   0.342E-04 0.179E-04
CGA:   9    -0.368937693434E+03   -0.66707E-05   -0.70643E-05 10206   0.137E-04 0.944E-05
  33 F= -.36893769E+03 E0= -.36893769E+03  d E =-.947621E-03  mag=    16.0000
       N       E                     dE             d eps       ncg     rms          ort
SDA:   1    -0.368813314306E+03    0.12437E+00    0.00000E+00 10206   0.282E+00 0.000E+00
CGA:   2    -0.368921232588E+03   -0.10792E+00   -0.10813E+00 10206   0.686E-01-0.121E-02
CGA:   3    -0.368934328872E+03   -0.13096E-01   -0.13133E-01 10206   0.183E-01 0.128E-02
CGA:   4    -0.368937300897E+03   -0.29720E-02   -0.29022E-02 10206   0.502E-02-0.110E-02
CGA:   5    -0.368937992876E+03   -0.69198E-03   -0.72886E-03 10206   0.110E-02 0.599E-03
CGA:   6    -0.368938288572E+03   -0.29570E-03   -0.30493E-03 10206   0.534E-03-0.262E-03
CGA:   7    -0.368938362082E+03   -0.73509E-04   -0.74523E-04 10206   0.173E-03 0.323E-04
CGA:   8    -0.368938394853E+03   -0.32771E-04   -0.33756E-04 10206   0.705E-04 0.341E-04
CGA:   9    -0.368938410703E+03   -0.15851E-04   -0.42260E-04 10206   0.178E-03-0.913E-04
CGA:  10    -0.368938419129E+03   -0.84253E-05   -0.17740E-04 10206   0.427E-04 0.737E-04
CGA:  11    -0.368938429870E+03   -0.10742E-04   -0.10614E-04 10206   0.115E-04-0.290E-05
CGA:  12    -0.368938443485E+03   -0.13615E-04    0.60121E-06 10206   0.712E-05-0.414E-05
CGA:  13    -0.368938442795E+03    0.68943E-06   -0.82819E-07 10206   0.578E-05 0.387E-05
  34 F= -.36893844E+03 E0= -.36893844E+03  d E =-.749361E-03  mag=    16.0000
       N       E                     dE             d eps       ncg     rms          ort
SDA:   1    -0.364433153004E+03    0.45053E+01    0.00000E+00 10206   0.105E+02 0.000E+00
CGA:   2    -0.368086578962E+03   -0.36534E+01   -0.36529E+01 10206   0.449E+01 0.809E-02
CGA:   3    -0.368667678570E+03   -0.58110E+00   -0.57285E+00 10206   0.117E+01 0.555E-01
CGA:   4    -0.368881040087E+03   -0.21336E+00   -0.21329E+00 10206   0.181E+00-0.728E-02
CGA:   5    -0.368920396869E+03   -0.39357E-01   -0.39328E-01 10206   0.488E-01 0.156E-02
CGA:   6    -0.368930007642E+03   -0.96108E-02   -0.96060E-02 10206   0.173E-01-0.744E-03
CGA:   7    -0.368933502931E+03   -0.34953E-02   -0.34939E-02 10206   0.569E-02 0.376E-03
CGA:   8    -0.368935296725E+03   -0.17938E-02   -0.19268E-02 10206   0.393E-02-0.102E-02
CGA:   9    -0.368935863520E+03   -0.56679E-03   -0.58237E-03 10206   0.147E-02 0.568E-03
CGA:  10    -0.368936263215E+03   -0.39970E-03   -0.40804E-03 10206   0.741E-03-0.227E-03
CGA:  11    -0.368936393184E+03   -0.12997E-03   -0.13000E-03 10206   0.247E-03 0.439E-04
CGA:  12    -0.368936460125E+03   -0.66941E-04   -0.70803E-04 10206   0.124E-03-0.623E-04
CGA:  13    -0.368936471397E+03   -0.11272E-04   -0.13582E-04 10206   0.640E-04 0.358E-04
CGA:  14    -0.368936471946E+03   -0.54896E-06   -0.67648E-05 10206   0.326E-04 0.492E-04
  35 F= -.36893647E+03 E0= -.36893647E+03  d E =0.197085E-02  mag=    16.0000
       N       E                     dE             d eps       ncg     rms          ort
SDA:   1    -0.368600257029E+03    0.33621E+00    0.00000E+00 10206   0.794E+00 0.000E+00
CGA:   2    -0.368873438604E+03   -0.27318E+00   -0.27366E+00 10206   0.280E+00-0.322E-02
CGA:   3    -0.368918159777E+03   -0.44721E-01   -0.44890E-01 10206   0.880E-01 0.407E-02
CGA:   4    -0.368933098721E+03   -0.14939E-01   -0.14800E-01 10206   0.211E-01-0.401E-02
CGA:   5    -0.368936328769E+03   -0.32300E-02   -0.32775E-02 10206   0.472E-02 0.129E-02
CGA:   6    -0.368937495258E+03   -0.11665E-02   -0.11876E-02 10206   0.184E-02-0.536E-03
CGA:   7    -0.368937827193E+03   -0.33193E-03   -0.33145E-03 10206   0.566E-03 0.142E-03
CGA:   8    -0.368938005107E+03   -0.17791E-03   -0.20893E-03 10206   0.480E-03-0.217E-03
CGA:   9    -0.368938053769E+03   -0.48662E-04   -0.50095E-04 10206   0.228E-03 0.382E-04
CGA:  10    -0.368938107932E+03   -0.54163E-04   -0.55634E-04 10206   0.118E-03-0.710E-04
CGA:  11    -0.368938144499E+03   -0.36567E-04    0.95312E-04 10206   0.618E-04-0.110E-04
CGA:  12    -0.368938150366E+03   -0.58666E-05   -0.70357E-05 10206   0.247E-04 0.145E-04
  36 F= -.36893815E+03 E0= -.36893815E+03  d E =-.167842E-02  mag=    16.0000
       N       E                     dE             d eps       ncg     rms          ort
SDA:   1    -0.367607496757E+03    0.13306E+01    0.00000E+00 10206   0.303E+01 0.000E+00
CGA:   2    -0.368741772426E+03   -0.11343E+01   -0.11357E+01 10206   0.872E+00-0.766E-02
CGA:   3    -0.368881468490E+03   -0.13970E+00   -0.13972E+00 10206   0.308E+00 0.612E-02
CGA:   4    -0.368927065273E+03   -0.45597E-01   -0.45415E-01 10206   0.503E-01-0.503E-02
CGA:   5    -0.368937386076E+03   -0.10321E-01   -0.10313E-01 10206   0.121E-01 0.167E-02
CGA:   6    -0.368940029624E+03   -0.26435E-02   -0.26505E-02 10206   0.458E-02-0.803E-03
CGA:   7    -0.368940779730E+03   -0.75011E-03   -0.76045E-03 10206   0.145E-02 0.397E-03
CGA:   8    -0.368941231088E+03   -0.45136E-03   -0.65014E-03 10206   0.232E-02-0.942E-03
CGA:   9    -0.368941421209E+03   -0.19012E-03   -0.24275E-03 10206   0.403E-03 0.485E-03
CGA:  10    -0.368941531880E+03   -0.11067E-03   -0.11309E-03 10206   0.194E-03-0.100E-03
CGA:  11    -0.368941596356E+03   -0.64476E-04    0.26248E-03 10206   0.102E-03 0.329E-04
CGA:  12    -0.368941616688E+03   -0.20332E-04   -0.20925E-04 10206   0.400E-04 0.173E-04
CGA:  13    -0.368941640232E+03   -0.23543E-04    0.22530E-04 10206   0.183E-04 0.115E-04
CGA:  14    -0.368941651413E+03   -0.11181E-04    0.16777E-04 10206   0.892E-05 0.642E-05
CGA:  15    -0.368941656724E+03   -0.53112E-05    0.19828E-04 10206   0.514E-05 0.338E-05
  37 F= -.36894166E+03 E0= -.36894166E+03  d E =-.350636E-02  mag=    16.0000
       N       E                     dE             d eps       ncg     rms          ort
SDA:   1    -0.368882385356E+03    0.59266E-01    0.00000E+00 10206   0.135E+00 0.000E+00
CGA:   2    -0.368930164258E+03   -0.47779E-01   -0.47692E-01 10206   0.441E-01 0.576E-03
CGA:   3    -0.368938062573E+03   -0.78983E-02   -0.78499E-02 10206   0.134E-01-0.130E-02
CGA:   4    -0.368939935126E+03   -0.18726E-02   -0.19078E-02 10206   0.254E-02 0.532E-03
CGA:   5    -0.368940449670E+03   -0.51454E-03   -0.51201E-03 10206   0.890E-03-0.159E-03
CGA:   6    -0.368940560060E+03   -0.11039E-03   -0.12141E-03 10206   0.203E-03 0.175E-03
CGA:   7    -0.368940606883E+03   -0.46823E-04   -0.47085E-04 10206   0.863E-04 0.219E-04
CGA:   8    -0.368940562468E+03    0.44415E-04   -0.72547E-04 10206   0.702E-03-0.211E-03
CGA:   9    -0.368940610972E+03   -0.48505E-04   -0.72647E-04 10206   0.116E-03 0.187E-03
CGA:  10    -0.368940643190E+03   -0.32217E-04   -0.31971E-04 10206   0.515E-04-0.262E-04
CGA:  11    -0.368940643955E+03   -0.76501E-06   -0.19288E-04 10206   0.128E-03-0.718E-04
CGA:  12    -0.368940648102E+03   -0.41474E-05   -0.12211E-04 10206   0.323E-04 0.564E-04
  38 F= -.36894065E+03 E0= -.36894065E+03  d E =0.100862E-02  mag=    16.0000
       N       E                     dE             d eps       ncg     rms          ort
SDA:   1    -0.368890290344E+03    0.50354E-01    0.00000E+00 10206   0.114E+00 0.000E+00
CGA:   2    -0.368933826326E+03   -0.43536E-01   -0.43486E-01 10206   0.254E-01 0.320E-03
CGA:   3    -0.368939266453E+03   -0.54401E-02   -0.54333E-02 10206   0.696E-02-0.331E-03
CGA:   4    -0.368940154659E+03   -0.88821E-03   -0.90638E-03 10206   0.173E-02 0.181E-03
CGA:   5    -0.368940530080E+03   -0.37542E-03   -0.37248E-03 10206   0.488E-03-0.163E-03
CGA:   6    -0.368940618255E+03   -0.88175E-04   -0.87627E-04 10206   0.144E-03-0.188E-04
CGA:   7    -0.368940650264E+03   -0.32010E-04   -0.32032E-04 10206   0.516E-04-0.466E-05
CGA:   8    -0.368940661058E+03   -0.10793E-04   -0.10856E-04 10206   0.193E-04 0.725E-05
CGA:   9    -0.368940581132E+03    0.79926E-04   -0.43218E-04 10206   0.579E-03-0.932E-04
CGA:  10    -0.368940653981E+03   -0.72849E-04   -0.77634E-04 10206   0.133E-03 0.171E-04
CGA:  11    -0.368940673529E+03   -0.19548E-04   -0.21418E-04 10206   0.223E-04 0.776E-05
CGA:  12    -0.368940683509E+03   -0.99800E-05   -0.10621E-04 10206   0.194E-04-0.100E-04
  39 F= -.36894068E+03 E0= -.36894068E+03  d E =-.354072E-04  mag=    16.0000
       N       E                     dE             d eps       ncg     rms          ort
SDA:   1    -0.368835888841E+03    0.10478E+00    0.00000E+00 10206   0.239E+00 0.000E+00
CGA:   2    -0.368924986494E+03   -0.89098E-01   -0.89096E-01 10206   0.609E-01-0.373E-03
CGA:   3    -0.368936671008E+03   -0.11685E-01   -0.11834E-01 10206   0.163E-01 0.847E-03
CGA:   4    -0.368939372131E+03   -0.27011E-02   -0.25404E-02 10206   0.444E-02-0.757E-03
CGA:   5    -0.368939981966E+03   -0.60984E-03   -0.67639E-03 10206   0.956E-03 0.339E-03
CGA:   6    -0.368940233788E+03   -0.25182E-03   -0.23733E-03 10206   0.392E-03-0.125E-03
CGA:   7    -0.368940290921E+03   -0.57132E-04   -0.62933E-04 10206   0.106E-03 0.372E-04
CGA:   8    -0.368940318685E+03   -0.27764E-04   -0.28389E-04 10206   0.505E-04 0.711E-05
CGA:   9    -0.368940336885E+03   -0.18200E-04   -0.27778E-04 10206   0.105E-03-0.512E-04
CGA:  10    -0.368940336940E+03   -0.55639E-07   -0.10328E-04 10206   0.239E-04 0.429E-04
  40 F= -.36894034E+03 E0= -.36894034E+03  d E =0.346569E-03  mag=    16.0000
       N       E                     dE             d eps       ncg     rms          ort
SDA:   1    -0.368501066109E+03    0.43927E+00    0.00000E+00 10206   0.995E+00 0.000E+00
CGA:   2    -0.368875546555E+03   -0.37448E+00   -0.37458E+00 10206   0.247E+00-0.164E-02
CGA:   3    -0.368923384506E+03   -0.47838E-01   -0.48119E-01 10206   0.710E-01 0.242E-02
CGA:   4    -0.368934022009E+03   -0.10638E-01   -0.10263E-01 10206   0.178E-01-0.233E-02
CGA:   5    -0.368936862299E+03   -0.28403E-02   -0.29693E-02 10206   0.379E-02 0.981E-03
CGA:   6    -0.368937798777E+03   -0.93648E-03   -0.91630E-03 10206   0.134E-02-0.290E-03
CGA:   7    -0.368938037437E+03   -0.23866E-03   -0.24864E-03 10206   0.396E-03 0.105E-03
CGA:   8    -0.368938184919E+03   -0.14748E-03   -0.15872E-03 10206   0.368E-03-0.138E-03
CGA:   9    -0.368938211161E+03   -0.26242E-04   -0.34722E-04 10206   0.173E-03 0.568E-04
CGA:  10    -0.368938243137E+03   -0.31976E-04   -0.32875E-04 10206   0.666E-04 0.732E-05
CGA:  11    -0.368937450723E+03    0.79241E-03   -0.43025E-03 10206   0.470E-02-0.605E-03
CGA:  12    -0.368937884175E+03   -0.43345E-03   -0.61420E-03 10206   0.120E-02 0.490E-03
CGA:  13    -0.368938240833E+03   -0.35666E-03   -0.29437E-03 10206   0.255E-03-0.231E-03
CGA:  14    -0.368938240876E+03   -0.42739E-07   -0.26830E-04 10206   0.808E-04 0.767E-04
CGA:  15    -0.368938249265E+03   -0.83883E-05   -0.17267E-04 10206   0.355E-04 0.298E-04
CGA:  16    -0.368937941208E+03    0.30806E-03   -0.79584E-04 10206   0.269E-02-0.326E-03
CGA:  17    -0.368938053451E+03   -0.11224E-03   -0.26433E-03 10206   0.454E-03 0.387E-03
CGA:  18    -0.368938179905E+03   -0.12645E-03   -0.13161E-03 10206   0.134E-03 0.221E-04
CGA:  19    -0.368938247778E+03   -0.67873E-04   -0.66168E-04 10206   0.179E-02-0.446E-03
CGA:  20    -0.368938260833E+03   -0.13055E-04   -0.13285E-03 10206   0.870E-04 0.310E-03
CGA:  21    -0.368938247938E+03    0.12895E-04   -0.62307E-05 10206   0.347E-04 0.486E-04
CGA:  22    -0.368938257072E+03   -0.91335E-05   -0.10161E-04 10206   0.314E-05 0.725E-05
  41 F= -.36893826E+03 E0= -.36893826E+03  d E =0.207987E-02  mag=    16.0000
       N       E                     dE             d eps       ncg     rms          ort
SDA:   1    -0.368671446495E+03    0.26680E+00    0.00000E+00 10206   0.603E+00 0.000E+00
CGA:   2    -0.368893235492E+03   -0.22179E+00   -0.22164E+00 10206   0.201E+00-0.253E-02
CGA:   3    -0.368921222987E+03   -0.27987E-01   -0.28556E-01 10206   0.638E-01 0.437E-02
CGA:   4    -0.368932388951E+03   -0.11166E-01   -0.10776E-01 10206   0.104E-01-0.188E-02
CGA:   5    -0.368934325782E+03   -0.19368E-02   -0.20260E-02 10206   0.260E-02 0.453E-03
CGA:   6    -0.368934981495E+03   -0.65571E-03   -0.59551E-03 10206   0.116E-02-0.357E-03
CGA:   7    -0.368935093784E+03   -0.11229E-03   -0.14912E-03 10206   0.314E-03 0.160E-03
CGA:   8    -0.368935204424E+03   -0.11064E-03   -0.10608E-03 10206   0.237E-03-0.637E-04
CGA:   9    -0.368935272191E+03   -0.67767E-04   -0.63702E-04 10206   0.278E-03-0.143E-03
CGA:  10    -0.368935282860E+03   -0.10669E-04   -0.30884E-04 10206   0.575E-04 0.801E-04
CGA:  11    -0.368935309050E+03   -0.26190E-04   -0.27166E-04 10206   0.822E-04-0.612E-04
CGA:  12    -0.368935314806E+03   -0.57560E-05   -0.10469E-04 10206   0.965E-05 0.210E-04
  42 F= -.36893531E+03 E0= -.36893531E+03  d E =0.294227E-02  mag=    16.0000
       N       E                     dE             d eps       ncg     rms          ort
SDA:   1    -0.368737950427E+03    0.19736E+00    0.00000E+00 10206   0.460E+00 0.000E+00
CGA:   2    -0.368904896909E+03   -0.16695E+00   -0.16697E+00 10206   0.126E+00-0.819E-03
CGA:   3    -0.368929019443E+03   -0.24123E-01   -0.24240E-01 10206   0.348E-01 0.806E-03
CGA:   4    -0.368934443676E+03   -0.54242E-02   -0.53577E-02 10206   0.854E-02-0.356E-03
CGA:   5    -0.368935829471E+03   -0.13858E-02   -0.14311E-02 10206   0.219E-02 0.291E-03
CGA:   6    -0.368936293180E+03   -0.46371E-03   -0.45909E-03 10206   0.691E-03-0.405E-04
CGA:   7    -0.368936438462E+03   -0.14528E-03   -0.14789E-03 10206   0.218E-03 0.280E-04
CGA:   8    -0.368936500196E+03   -0.61734E-04   -0.61834E-04 10206   0.103E-03 0.295E-05
CGA:   9    -0.368936523752E+03   -0.23556E-04   -0.24632E-04 10206   0.354E-04 0.156E-04
CGA:  10    -0.368936527852E+03   -0.40993E-05   -0.64847E-05 10206   0.133E-04 0.168E-04
  43 F= -.36893653E+03 E0= -.36893653E+03  d E =-.121305E-02  mag=    16.0000
       N       E                     dE             d eps       ncg     rms          ort
SDA:   1    -0.368915509259E+03    0.21014E-01    0.00000E+00 10206   0.527E-01 0.000E+00
CGA:   2    -0.368932857952E+03   -0.17349E-01   -0.17351E-01 10206   0.209E-01-0.587E-04
CGA:   3    -0.368936248763E+03   -0.33908E-02   -0.34484E-02 10206   0.560E-02 0.450E-03
CGA:   4    -0.368937232959E+03   -0.98420E-03   -0.97286E-03 10206   0.139E-02-0.979E-04
CGA:   5    -0.368937454872E+03   -0.22191E-03   -0.22631E-03 10206   0.372E-03 0.381E-04
CGA:   6    -0.368937552810E+03   -0.97938E-04   -0.95633E-04 10206   0.190E-03-0.955E-04
CGA:   7    -0.368937574407E+03   -0.21597E-04   -0.23475E-04 10206   0.565E-04 0.175E-04
CGA:   8    -0.368937584879E+03   -0.10473E-04   -0.11147E-04 10206   0.227E-04 0.772E-05
CGA:   9    -0.368937588603E+03   -0.37240E-05   -0.43604E-05 10206   0.898E-05 0.671E-05
  44 F= -.36893759E+03 E0= -.36893759E+03  d E =-.106075E-02  mag=    16.0000
       N       E                     dE             d eps       ncg     rms          ort
SDA:   1    -0.368915204997E+03    0.22380E-01    0.00000E+00 10206   0.498E-01 0.000E+00
CGA:   2    -0.368934041640E+03   -0.18837E-01   -0.18872E-01 10206   0.126E-01-0.278E-03
CGA:   3    -0.368936363709E+03   -0.23221E-02   -0.23533E-02 10206   0.331E-02 0.448E-03
CGA:   4    -0.368936999268E+03   -0.63556E-03   -0.59006E-03 10206   0.123E-02-0.560E-03
CGA:   5    -0.368937093644E+03   -0.94376E-04   -0.12321E-03 10206   0.256E-03 0.223E-03
CGA:   6    -0.368937123022E+03   -0.29378E-04   -0.37822E-04 10206   0.970E-04 0.717E-04
CGA:   7    -0.368936792642E+03    0.33038E-03   -0.12365E-03 10206   0.297E-02-0.599E-03
CGA:   8    -0.368937008249E+03   -0.21561E-03   -0.30956E-03 10206   0.511E-03 0.552E-03
CGA:   9    -0.368937151555E+03   -0.14331E-03   -0.13871E-03 10206   0.142E-03-0.122E-03
CGA:  10    -0.368937179709E+03   -0.28154E-04   -0.27807E-04 10206   0.770E-04-0.460E-04
CGA:  11    -0.368937178136E+03    0.15736E-05   -0.40555E-05 10206   0.405E-04 0.302E-04
  45 F= -.36893718E+03 E0= -.36893718E+03  d E =0.410467E-03  mag=    16.0000
