       N       E                     dE             d eps       ncg     rms          rms(c)
DAV:   1     0.280201543066E+04    0.28020E+04   -0.13322E+05 24208   0.152E+03
DAV:   2    -0.274676292556E+02   -0.28295E+04   -0.27421E+04 26984   0.436E+02
DAV:   3    -0.309801228259E+03   -0.28233E+03   -0.27651E+03 28032   0.149E+02
DAV:   4    -0.324959355224E+03   -0.15158E+02   -0.14695E+02 37320   0.360E+01
DAV:   5    -0.326072081891E+03   -0.11127E+01   -0.10968E+01 45040   0.658E+00    0.712E+01
DAV:   6    -0.294904104157E+03    0.31168E+02   -0.30776E+02 32824   0.506E+01    0.547E+01
DAV:   7    -0.314111562660E+03   -0.19207E+02   -0.16904E+02 34896   0.859E+01    0.557E+01
DAV:   8    -0.309836737998E+03    0.42748E+01   -0.14856E+02 33528   0.455E+01    0.475E+01
DAV:   9    -0.286841988019E+03    0.22995E+02   -0.34746E+01 33856   0.234E+01    0.263E+01
DAV:  10    -0.289169867505E+03   -0.23279E+01   -0.36450E+01 34920   0.127E+01    0.344E+01
DAV:  11    -0.286339034920E+03    0.28308E+01   -0.80387E+00 33072   0.821E+00    0.153E+01
DAV:  12    -0.287126898165E+03   -0.78786E+00   -0.16682E+00 34488   0.349E+00    0.124E+01
DAV:  13    -0.287229313845E+03   -0.10242E+00   -0.13340E+00 33344   0.365E+00    0.768E+00
DAV:  14    -0.287570584105E+03   -0.34127E+00   -0.27149E+00 32656   0.243E+00    0.109E+01
DAV:  15    -0.287608887439E+03   -0.38303E-01   -0.31731E+00 33208   0.231E+00    0.118E+01
DAV:  16    -0.287673572425E+03   -0.64685E-01   -0.24791E+00 33616   0.195E+00    0.110E+01
DAV:  17    -0.287675409072E+03   -0.18366E-02   -0.43371E-02 28872   0.863E-01    0.984E+00
DAV:  18    -0.287630144568E+03    0.45265E-01   -0.54288E-01 37560   0.103E+00    0.506E+00
DAV:  19    -0.287656469068E+03   -0.26325E-01   -0.80605E-02 30152   0.651E-01    0.420E+00
DAV:  20    -0.287668423264E+03   -0.11954E-01   -0.72856E-02 33360   0.531E-01    0.468E+00
DAV:  21    -0.287665718721E+03    0.27045E-02   -0.11164E-01 34712   0.627E-01    0.468E+00
DAV:  22    -0.287695315556E+03   -0.29597E-01   -0.30833E-01 32776   0.877E-01    0.493E+00
DAV:  23    -0.287701242179E+03   -0.59266E-02   -0.12339E-01 32472   0.735E-01    0.450E+00
DAV:  24    -0.287694323217E+03    0.69190E-02   -0.73881E-03 28088   0.292E-01    0.433E+00
DAV:  25    -0.287688660836E+03    0.56624E-02   -0.37188E-03 32520   0.179E-01    0.433E+00
DAV:  26    -0.287688010092E+03    0.65074E-03   -0.12330E-03 32216   0.966E-02    0.433E+00
DAV:  27    -0.287686245762E+03    0.17643E-02   -0.11497E-02 31544   0.216E-01    0.377E+00
DAV:  28    -0.287682409015E+03    0.38367E-02   -0.47039E-02 32952   0.451E-01    0.185E+00
DAV:  29    -0.287692684641E+03   -0.10276E-01   -0.66003E-02 33680   0.405E-01    0.179E+00
DAV:  30    -0.287693496955E+03   -0.81231E-03   -0.39025E-03 27032   0.236E-01    0.180E+00
DAV:  31    -0.287691594587E+03    0.19024E-02   -0.29089E-03 32920   0.132E-01    0.144E+00
DAV:  32    -0.287692327058E+03   -0.73247E-03   -0.58002E-03 32072   0.169E-01    0.103E+00
DAV:  33    -0.287693920788E+03   -0.15937E-02   -0.70984E-03 33040   0.266E-01    0.690E-01
DAV:  34    -0.287695080971E+03   -0.11602E-02   -0.64509E-03 29632   0.168E-01    0.897E-01
DAV:  35    -0.287695178838E+03   -0.97868E-04   -0.15240E-03 31272   0.125E-01    0.729E-01
DAV:  36    -0.287695276770E+03   -0.97931E-04   -0.15900E-03 33616   0.100E-01    0.462E-01
DAV:  37    -0.287695497553E+03   -0.22078E-03   -0.62794E-04 31000   0.619E-02    0.298E-01
DAV:  38    -0.287695653271E+03   -0.15572E-03   -0.75305E-04 28896   0.616E-02    0.221E-01
DAV:  39    -0.287695678633E+03   -0.25362E-04   -0.21173E-04 26776   0.395E-02    0.225E-01
DAV:  40    -0.287695698643E+03   -0.20010E-04   -0.16919E-04 21592   0.327E-02    0.233E-01
DAV:  41    -0.287695740796E+03   -0.42153E-04   -0.17026E-04 25600   0.386E-02    0.119E-01
DAV:  42    -0.287695786762E+03   -0.45966E-04   -0.77340E-05 21224   0.283E-02    0.682E-02
DAV:  43    -0.287695796569E+03   -0.98078E-05   -0.21025E-05 16536   0.140E-02
   1 F= -.28769580E+03 E0= -.28768291E+03  d E =-.287696E+03  mag=    10.0005
       N       E                     dE             d eps       ncg     rms          rms(c)
DAV:   1    -0.287697027163E+03   -0.12404E-02   -0.53408E-04 25552   0.930E-02    0.672E-02
DAV:   2    -0.287697227354E+03   -0.20019E-03   -0.18880E-03 28352   0.589E-02    0.463E-01
DAV:   3    -0.287696927840E+03    0.29951E-03   -0.97721E-04 24952   0.519E-02    0.135E-01
DAV:   4    -0.287697019705E+03   -0.91864E-04   -0.78402E-05 17896   0.181E-02    0.140E-01
DAV:   5    -0.287697012210E+03    0.74949E-05   -0.29030E-04 20168   0.293E-02    0.126E-01
DAV:   6    -0.287697049577E+03   -0.37367E-04   -0.91412E-05 18360   0.184E-02    0.163E-01
DAV:   7    -0.287697035815E+03    0.13762E-04   -0.88781E-05 17512   0.192E-02    0.143E-01
DAV:   8    -0.287697021388E+03    0.14427E-04   -0.12864E-04 19264   0.211E-02    0.524E-02
DAV:   9    -0.287697038098E+03   -0.16710E-04   -0.34534E-05 18928   0.153E-02    0.800E-02
DAV:  10    -0.287697034145E+03    0.39525E-05   -0.18984E-05 13616   0.106E-02
   2 F= -.28769703E+03 E0= -.28768419E+03  d E =-.123758E-02  mag=    10.0000
       N       E                     dE             d eps       ncg     rms          rms(c)
DAV:   1    -0.287753481207E+03   -0.56443E-01   -0.21129E+00 24768   0.585E+00    0.911E-01
DAV:   2    -0.287793693658E+03   -0.40212E-01   -0.44887E-01 32576   0.140E+00    0.470E+00
DAV:   3    -0.287755854082E+03    0.37840E-01   -0.20347E-01 33200   0.852E-01    0.108E+00
DAV:   4    -0.287766600162E+03   -0.10746E-01   -0.49079E-02 33536   0.359E-01    0.133E+00
DAV:   5    -0.287764408073E+03    0.21921E-02   -0.14045E-02 34016   0.275E-01    0.302E-01
DAV:   6    -0.287766125133E+03   -0.17171E-02   -0.12807E-02 34384   0.159E-01    0.113E+00
DAV:   7    -0.287764237026E+03    0.18881E-02   -0.67498E-03 33520   0.153E-01    0.315E-01
DAV:   8    -0.287764739259E+03   -0.50223E-03   -0.12339E-03 33024   0.792E-02    0.140E-01
DAV:   9    -0.287765000225E+03   -0.26097E-03   -0.10753E-03 28832   0.546E-02    0.159E-01
DAV:  10    -0.287765058690E+03   -0.58465E-04   -0.25694E-04 22872   0.349E-02    0.171E-01
DAV:  11    -0.287765041978E+03    0.16713E-04   -0.27355E-05 18456   0.169E-02    0.174E-01
DAV:  12    -0.287765005787E+03    0.36191E-04   -0.14231E-05 15112   0.128E-02    0.181E-01
DAV:  13    -0.287764989783E+03    0.16004E-04   -0.87753E-06 15472   0.973E-03    0.188E-01
DAV:  14    -0.287764920592E+03    0.69191E-04   -0.66487E-05 20552   0.242E-02    0.233E-01
DAV:  15    -0.287764999005E+03   -0.78413E-04   -0.49542E-05 21760   0.358E-02    0.169E-01
DAV:  16    -0.287765020562E+03   -0.21556E-04   -0.36063E-04 30784   0.633E-02    0.571E-02
DAV:  17    -0.287765020074E+03    0.48758E-06   -0.18201E-04 27248   0.349E-02    0.538E-02
DAV:  18    -0.287765038665E+03   -0.18591E-04   -0.55312E-05 17752   0.175E-02    0.371E-02
DAV:  19    -0.287765051671E+03   -0.13006E-04   -0.14272E-05 15296   0.125E-02    0.452E-02
DAV:  20    -0.287765051420E+03    0.25123E-06   -0.49257E-06 13688   0.759E-03
   3 F= -.28776505E+03 E0= -.28775219E+03  d E =-.680173E-01  mag=    10.0000
       N       E                     dE             d eps       ncg     rms          rms(c)
DAV:   1    -0.287818870419E+03   -0.53819E-01   -0.62157E+00 24768   0.997E+00    0.133E+00
DAV:   2    -0.287916347751E+03   -0.97477E-01   -0.11207E+00 32248   0.232E+00    0.617E+00
DAV:   3    -0.287841918668E+03    0.74429E-01   -0.29645E-01 33424   0.126E+00    0.219E+00
DAV:   4    -0.287852656107E+03   -0.10737E-01   -0.11017E-01 34880   0.505E-01    0.127E+00
DAV:   5    -0.287853185501E+03   -0.52939E-03   -0.15399E-02 33608   0.355E-01    0.701E-01
DAV:   6    -0.287853688420E+03   -0.50292E-03   -0.16379E-02 33296   0.197E-01    0.981E-01
DAV:   7    -0.287852463158E+03    0.12253E-02   -0.12295E-02 32424   0.206E-01    0.444E-01
DAV:   8    -0.287852911692E+03   -0.44853E-03   -0.34703E-03 33952   0.121E-01    0.332E-01
DAV:   9    -0.287852970632E+03   -0.58940E-04   -0.18457E-03 33376   0.701E-02    0.220E-01
DAV:  10    -0.287853057824E+03   -0.87192E-04   -0.54584E-04 26840   0.470E-02    0.218E-01
DAV:  11    -0.287853055455E+03    0.23686E-05   -0.22629E-04 23176   0.290E-02    0.191E-01
DAV:  12    -0.287853054949E+03    0.50575E-06   -0.12400E-04 22816   0.276E-02    0.182E-01
DAV:  13    -0.287853035531E+03    0.19418E-04   -0.47160E-04 29808   0.462E-02    0.158E-01
DAV:  14    -0.287853037991E+03   -0.24601E-05   -0.31856E-04 24480   0.388E-02    0.106E-01
DAV:  15    -0.287853061477E+03   -0.23486E-04   -0.54307E-05 19944   0.227E-02    0.953E-02
DAV:  16    -0.287853065432E+03   -0.39554E-05   -0.29162E-05 16688   0.174E-02
   4 F= -.28785307E+03 E0= -.28784022E+03  d E =-.880140E-01  mag=    10.0000
       N       E                     dE             d eps       ncg     rms          rms(c)
DAV:   1    -0.287883775487E+03   -0.30714E-01   -0.77371E+00 24768   0.108E+01    0.124E+00
DAV:   2    -0.287987794344E+03   -0.10402E+00   -0.11781E+00 31552   0.247E+00    0.624E+00
DAV:   3    -0.287915380041E+03    0.72414E-01   -0.29216E-01 33616   0.122E+00    0.265E+00
DAV:   4    -0.287920822028E+03   -0.54420E-02   -0.10233E-01 35856   0.499E-01    0.858E-01
DAV:   5    -0.287923615866E+03   -0.27938E-02   -0.92098E-03 32544   0.324E-01    0.390E-01
DAV:   6    -0.287925803928E+03   -0.21881E-02   -0.26235E-02 35064   0.263E-01    0.156E+00
DAV:   7    -0.287921823556E+03    0.39804E-02   -0.19498E-02 35064   0.255E-01    0.321E-01
DAV:   8    -0.287923320514E+03   -0.14970E-02   -0.37555E-03 30488   0.119E-01    0.300E-01
DAV:   9    -0.287923453735E+03   -0.13322E-03   -0.88784E-04 30360   0.650E-02    0.231E-01
DAV:  10    -0.287923475516E+03   -0.21781E-04   -0.20540E-04 24944   0.351E-02    0.238E-01
DAV:  11    -0.287923397588E+03    0.77927E-04   -0.69216E-04 29992   0.560E-02    0.139E-01
DAV:  12    -0.287923400900E+03   -0.33116E-05   -0.35276E-04 28360   0.434E-02    0.135E-01
DAV:  13    -0.287923410259E+03   -0.93588E-05   -0.26372E-04 25488   0.331E-02    0.644E-02
DAV:  14    -0.287923427631E+03   -0.17372E-04   -0.65700E-05 19424   0.199E-02    0.578E-02
DAV:  15    -0.287923428664E+03   -0.10333E-05   -0.10175E-05 14912   0.107E-02
   5 F= -.28792343E+03 E0= -.28791050E+03  d E =-.703632E-01  mag=    10.0000
       N       E                     dE             d eps       ncg     rms          rms(c)
DAV:   1    -0.287926660949E+03   -0.32333E-02   -0.11945E+01 24768   0.128E+01    0.133E+00
DAV:   2    -0.288043415366E+03   -0.11675E+00   -0.13466E+00 30848   0.283E+00    0.591E+00
DAV:   3    -0.287965714497E+03    0.77701E-01   -0.15248E-01 33920   0.129E+00    0.116E+00
DAV:   4    -0.287986195700E+03   -0.20481E-01   -0.12140E-01 35680   0.535E-01    0.313E+00
DAV:   5    -0.287973848746E+03    0.12347E-01   -0.79474E-02 34488   0.464E-01    0.121E+00
DAV:   6    -0.287976512836E+03   -0.26641E-02   -0.18946E-02 32344   0.252E-01    0.626E-01
DAV:   7    -0.287978441710E+03   -0.19289E-02   -0.30722E-02 35248   0.298E-01    0.140E+00
DAV:   8    -0.287976186362E+03    0.22553E-02   -0.39466E-02 33160   0.274E-01    0.830E-01
DAV:   9    -0.287976727001E+03   -0.54064E-03   -0.54695E-03 30416   0.149E-01    0.298E-01
DAV:  10    -0.287976858274E+03   -0.13127E-03   -0.12933E-04 26088   0.348E-02    0.283E-01
DAV:  11    -0.287976866261E+03   -0.79864E-05   -0.12886E-04 21472   0.242E-02    0.285E-01
DAV:  12    -0.287976825298E+03    0.40963E-04   -0.87874E-05 21720   0.250E-02    0.256E-01
DAV:  13    -0.287976818182E+03    0.71159E-05   -0.33776E-04 29368   0.455E-02    0.277E-01
DAV:  14    -0.287976757492E+03    0.60689E-04   -0.31962E-04 28968   0.626E-02    0.200E-01
DAV:  15    -0.287976777701E+03   -0.20208E-04   -0.24784E-04 21808   0.312E-02    0.103E-01
DAV:  16    -0.287976820297E+03   -0.42596E-04   -0.10323E-04 23032   0.302E-02    0.111E-01
DAV:  17    -0.287976820628E+03   -0.33119E-06   -0.76129E-05 20320   0.250E-02
   6 F= -.28797682E+03 E0= -.28796373E+03  d E =-.533920E-01  mag=    10.0000
       N       E                     dE             d eps       ncg     rms          rms(c)
DAV:   1    -0.287898468145E+03    0.78352E-01   -0.30565E+01 24768   0.198E+01    0.181E+00
DAV:   2    -0.288102925846E+03   -0.20446E+00   -0.23498E+00 29504   0.406E+00    0.685E+00
DAV:   3    -0.288005289058E+03    0.97637E-01   -0.37476E-01 33744   0.166E+00    0.296E+00
DAV:   4    -0.288016557636E+03   -0.11269E-01   -0.23173E-01 37248   0.729E-01    0.258E+00
DAV:   5    -0.288008157297E+03    0.84003E-02   -0.58568E-02 34032   0.570E-01    0.746E-01
DAV:   6    -0.288015637800E+03   -0.74805E-02   -0.78773E-02 34816   0.425E-01    0.247E+00
DAV:   7    -0.288005078186E+03    0.10560E-01   -0.45090E-02 34752   0.413E-01    0.915E-01
DAV:   8    -0.288007914416E+03   -0.28362E-02   -0.17456E-02 34200   0.229E-01    0.672E-01
DAV:   9    -0.288008621328E+03   -0.70691E-03   -0.68223E-03 32448   0.156E-01    0.490E-01
DAV:  10    -0.288008670834E+03   -0.49506E-04   -0.22712E-03 33000   0.104E-01    0.380E-01
DAV:  11    -0.288008572278E+03    0.98557E-04   -0.15219E-03 32208   0.878E-02    0.240E-01
DAV:  12    -0.288008640129E+03   -0.67852E-04   -0.87054E-04 32456   0.591E-02    0.231E-01
DAV:  13    -0.288008646127E+03   -0.59974E-05   -0.64471E-04 27440   0.479E-02    0.174E-01
DAV:  14    -0.288008677646E+03   -0.31519E-04   -0.24629E-04 21384   0.335E-02    0.152E-01
DAV:  15    -0.288008690491E+03   -0.12844E-04   -0.14201E-04 24720   0.301E-02    0.154E-01
DAV:  16    -0.288008675342E+03    0.15149E-04   -0.77314E-05 22080   0.338E-02    0.124E-01
DAV:  17    -0.288008685230E+03   -0.98883E-05   -0.35792E-04 26856   0.393E-02    0.140E-01
DAV:  18    -0.288008676975E+03    0.82548E-05   -0.19602E-04 26360   0.358E-02    0.693E-02
DAV:  19    -0.288008687221E+03   -0.10245E-04   -0.62244E-05 19992   0.255E-02    0.725E-02
DAV:  20    -0.288008685661E+03    0.15601E-05   -0.29234E-05 17192   0.159E-02
   7 F= -.28800869E+03 E0= -.28799540E+03  d E =-.318650E-01  mag=    10.0000
       N       E                     dE             d eps       ncg     rms          rms(c)
DAV:   1    -0.287994379421E+03    0.14308E-01   -0.74912E+00 24768   0.989E+00    0.968E-01
DAV:   2    -0.288031301728E+03   -0.36922E-01   -0.39954E-01 27272   0.184E+00    0.298E+00
DAV:   3    -0.288021833525E+03    0.94682E-02   -0.18494E-01 34080   0.702E-01    0.168E+00
DAV:   4    -0.288022315336E+03   -0.48181E-03   -0.19964E-02 33680   0.358E-01    0.102E+00
DAV:   5    -0.288022107556E+03    0.20778E-03   -0.17471E-02 34240   0.183E-01    0.102E+00
DAV:   6    -0.288021695265E+03    0.41229E-03   -0.32710E-03 31512   0.125E-01    0.904E-01
DAV:   7    -0.288021238543E+03    0.45672E-03   -0.30565E-03 33856   0.906E-02    0.875E-01
DAV:   8    -0.288020908235E+03    0.33031E-03   -0.13776E-03 30880   0.844E-02    0.681E-01
DAV:   9    -0.288020519014E+03    0.38922E-03   -0.32294E-03 32224   0.121E-01    0.352E-01
DAV:  10    -0.288021217890E+03   -0.69888E-03   -0.50697E-03 29592   0.125E-01    0.294E-01
DAV:  11    -0.288021637148E+03   -0.41926E-03   -0.16813E-03 29792   0.866E-02    0.416E-01
DAV:  12    -0.288021616858E+03    0.20290E-04   -0.31275E-04 28224   0.468E-02    0.419E-01
DAV:  13    -0.288021588732E+03    0.28126E-04   -0.25904E-04 27816   0.435E-02    0.356E-01
DAV:  14    -0.288021562903E+03    0.25829E-04   -0.46431E-04 30048   0.612E-02    0.195E-01
DAV:  15    -0.288021603728E+03   -0.40825E-04   -0.54899E-04 31248   0.739E-02    0.235E-01
DAV:  16    -0.288021611019E+03   -0.72916E-05   -0.97791E-05 27536   0.332E-02
   8 F= -.28802161E+03 E0= -.28800817E+03  d E =-.129254E-01  mag=    10.0000
       N       E                     dE             d eps       ncg     rms          rms(c)
DAV:   1    -0.288020377206E+03    0.12265E-02   -0.33489E+00 24768   0.728E+00    0.738E-01
DAV:   2    -0.288052797160E+03   -0.32420E-01   -0.31190E-01 31856   0.144E+00    0.434E+00
DAV:   3    -0.288026629701E+03    0.26167E-01   -0.17655E-01 32904   0.650E-01    0.111E+00
DAV:   4    -0.288036605676E+03   -0.99760E-02   -0.45159E-02 32864   0.338E-01    0.151E+00
DAV:   5    -0.288034138027E+03    0.24676E-02   -0.17620E-02 33280   0.269E-01    0.560E-01
DAV:   6    -0.288034775132E+03   -0.63710E-03   -0.67012E-03 34192   0.132E-01    0.502E-01
DAV:   7    -0.288034417095E+03    0.35804E-03   -0.24469E-03 32512   0.116E-01    0.205E-01
DAV:   8    -0.288034571199E+03   -0.15410E-03   -0.12845E-03 31872   0.730E-02    0.246E-01
DAV:   9    -0.288034702290E+03   -0.13109E-03   -0.10139E-03 27344   0.484E-02    0.213E-01
DAV:  10    -0.288034744421E+03   -0.42131E-04   -0.15089E-04 24496   0.321E-02    0.239E-01
DAV:  11    -0.288034700632E+03    0.43789E-04   -0.18870E-05 17624   0.179E-02    0.260E-01
DAV:  12    -0.288034657904E+03    0.42727E-04   -0.11223E-04 26672   0.376E-02    0.160E-01
DAV:  13    -0.288034698225E+03   -0.40321E-04   -0.33544E-04 28672   0.486E-02    0.658E-02
DAV:  14    -0.288034730493E+03   -0.32267E-04   -0.11893E-04 20064   0.273E-02    0.716E-02
DAV:  15    -0.288034734645E+03   -0.41519E-05   -0.21006E-05 16088   0.135E-02
   9 F= -.28803473E+03 E0= -.28802116E+03  d E =-.131236E-01  mag=    10.0000
       N       E                     dE             d eps       ncg     rms          rms(c)
DAV:   1    -0.288022393977E+03    0.12337E-01   -0.59827E+00 25344   0.959E+00    0.737E-01
DAV:   2    -0.288053992689E+03   -0.31599E-01   -0.32476E-01 25960   0.172E+00    0.289E+00
DAV:   3    -0.288043450187E+03    0.10543E-01   -0.10281E-01 33792   0.535E-01    0.922E-01
DAV:   4    -0.288050847024E+03   -0.73968E-02   -0.48937E-02 35320   0.350E-01    0.205E+00
DAV:   5    -0.288044647500E+03    0.61995E-02   -0.34108E-02 33808   0.310E-01    0.384E-01
DAV:   6    -0.288047157181E+03   -0.25097E-02   -0.90369E-03 33144   0.165E-01    0.923E-01
DAV:   7    -0.288045864469E+03    0.12927E-02   -0.79531E-03 33984   0.144E-01    0.365E-01
DAV:   8    -0.288046119692E+03   -0.25522E-03   -0.18913E-03 31384   0.939E-02    0.346E-01
DAV:   9    -0.288046251898E+03   -0.13221E-03   -0.21636E-03 30320   0.730E-02    0.210E-01
DAV:  10    -0.288046420157E+03   -0.16826E-03   -0.94901E-04 31344   0.703E-02    0.198E-01
DAV:  11    -0.288046459862E+03   -0.39705E-04   -0.40749E-04 28424   0.452E-02    0.200E-01
DAV:  12    -0.288046460787E+03   -0.92489E-06   -0.64401E-05 19592   0.222E-02
  10 F= -.28804646E+03 E0= -.28803275E+03  d E =-.117261E-01  mag=    10.0000
       N       E                     dE             d eps       ncg     rms          rms(c)
DAV:   1    -0.287991529162E+03    0.54931E-01   -0.17851E+01 25344   0.160E+01    0.127E+00
DAV:   2    -0.288079249503E+03   -0.87720E-01   -0.92114E-01 25424   0.288E+00    0.441E+00
DAV:   3    -0.288058065854E+03    0.21184E-01   -0.35366E-01 33808   0.960E-01    0.220E+00
DAV:   4    -0.288073316140E+03   -0.15250E-01   -0.16041E-01 35584   0.621E-01    0.375E+00
DAV:   5    -0.288054371707E+03    0.18944E-01   -0.12685E-01 33448   0.551E-01    0.896E-01
DAV:   6    -0.288063790200E+03   -0.94185E-02   -0.41051E-02 32960   0.307E-01    0.201E+00
DAV:   7    -0.288058099281E+03    0.56909E-02   -0.39315E-02 33904   0.295E-01    0.473E-01
DAV:   8    -0.288060167588E+03   -0.20683E-02   -0.40513E-03 30056   0.149E-01    0.455E-01
DAV:   9    -0.288060136012E+03    0.31576E-04   -0.16232E-03 31616   0.853E-02    0.253E-01
DAV:  10    -0.288060364133E+03   -0.22812E-03   -0.15851E-03 32200   0.654E-02    0.317E-01
DAV:  11    -0.288060407743E+03   -0.43610E-04   -0.49897E-04 29632   0.527E-02    0.309E-01
DAV:  12    -0.288060399253E+03    0.84900E-05   -0.38446E-05 18600   0.187E-02
  11 F= -.28806040E+03 E0= -.28804668E+03  d E =-.139385E-01  mag=    10.0000
       N       E                     dE             d eps       ncg     rms          rms(c)
DAV:   1    -0.288026284570E+03    0.34123E-01   -0.10397E+01 25344   0.124E+01    0.115E+00
DAV:   2    -0.288086347306E+03   -0.60063E-01   -0.62075E-01 26664   0.231E+00    0.479E+00
DAV:   3    -0.288061714461E+03    0.24633E-01   -0.31401E-01 33400   0.812E-01    0.165E+00
DAV:   4    -0.288073201324E+03   -0.11487E-01   -0.46249E-02 32280   0.472E-01    0.203E+00
DAV:   5    -0.288067693479E+03    0.55078E-02   -0.23521E-02 33464   0.298E-01    0.111E+00
DAV:   6    -0.288068725165E+03   -0.10317E-02   -0.15024E-03 30856   0.952E-02    0.103E+00
DAV:   7    -0.288068738747E+03   -0.13582E-04   -0.15505E-03 30600   0.611E-02    0.106E+00
DAV:   8    -0.288068519350E+03    0.21940E-03   -0.12502E-04 22352   0.327E-02    0.110E+00
DAV:   9    -0.288067473985E+03    0.10454E-02   -0.52924E-03 32120   0.192E-01    0.762E-01
DAV:  10    -0.288068176113E+03   -0.70213E-03   -0.11339E-02 33608   0.192E-01    0.570E-01
DAV:  11    -0.288068556572E+03   -0.38046E-03   -0.14454E-03 27440   0.120E-01    0.504E-01
DAV:  12    -0.288068645672E+03   -0.89100E-04   -0.13029E-03 33760   0.780E-02    0.478E-01
DAV:  13    -0.288068774661E+03   -0.12899E-03   -0.63296E-04 32128   0.647E-02    0.531E-01
DAV:  14    -0.288068619638E+03    0.15502E-03   -0.30590E-04 27824   0.448E-02    0.395E-01
DAV:  15    -0.288068657423E+03   -0.37785E-04   -0.38208E-04 29728   0.576E-02    0.232E-01
DAV:  16    -0.288068749306E+03   -0.91883E-04   -0.36297E-04 27992   0.471E-02    0.200E-01
DAV:  17    -0.288068757303E+03   -0.79968E-05   -0.72592E-05 20744   0.252E-02
  12 F= -.28806876E+03 E0= -.28805471E+03  d E =-.835805E-02  mag=    10.0000
       N       E                     dE             d eps       ncg     rms          rms(c)
DAV:   1    -0.288059694886E+03    0.90544E-02   -0.47185E+00 24768   0.774E+00    0.131E+00
DAV:   2    -0.288136407479E+03   -0.76713E-01   -0.71562E-01 31432   0.178E+00    0.802E+00
DAV:   3    -0.288056160018E+03    0.80247E-01   -0.73094E-01 32480   0.113E+00    0.268E+00
DAV:   4    -0.288081492385E+03   -0.25332E-01   -0.14912E-01 31344   0.597E-01    0.245E+00
DAV:   5    -0.288077138256E+03    0.43541E-02   -0.44008E-02 33640   0.421E-01    0.176E+00
DAV:   6    -0.288075385225E+03    0.17530E-02   -0.30364E-02 33744   0.245E-01    0.106E+00
DAV:   7    -0.288075359821E+03    0.25404E-04   -0.70740E-03 31344   0.186E-01    0.544E-01
DAV:   8    -0.288076136435E+03   -0.77661E-03   -0.75041E-03 31616   0.141E-01    0.337E-01
DAV:   9    -0.288076896798E+03   -0.76036E-03   -0.33651E-03 30624   0.108E-01    0.340E-01
DAV:  10    -0.288077086533E+03   -0.18974E-03   -0.15545E-03 32352   0.833E-02    0.330E-01
DAV:  11    -0.288077163192E+03   -0.76659E-04   -0.70164E-04 30808   0.529E-02    0.333E-01
DAV:  12    -0.288077193163E+03   -0.29971E-04   -0.24726E-04 22688   0.337E-02    0.359E-01
DAV:  13    -0.288077131357E+03    0.61806E-04   -0.56872E-04 29616   0.537E-02    0.279E-01
DAV:  14    -0.288077126634E+03    0.47234E-05   -0.32855E-04 28584   0.503E-02    0.140E-01
DAV:  15    -0.288077176347E+03   -0.49713E-04   -0.22890E-04 24304   0.357E-02    0.130E-01
DAV:  16    -0.288077189795E+03   -0.13448E-04   -0.93102E-05 20960   0.295E-02    0.938E-02
DAV:  17    -0.288077188721E+03    0.10736E-05   -0.61621E-05 20504   0.236E-02
  13 F= -.28807719E+03 E0= -.28806324E+03  d E =-.843142E-02  mag=    10.0000
       N       E                     dE             d eps       ncg     rms          rms(c)
DAV:   1    -0.288081454037E+03   -0.42642E-02   -0.43197E-01 25344   0.241E+00    0.393E-01
DAV:   2    -0.288084565263E+03   -0.31112E-02   -0.32783E-02 29632   0.491E-01    0.111E+00
DAV:   3    -0.288082902535E+03    0.16627E-02   -0.20965E-02 33416   0.252E-01    0.534E-01
DAV:   4    -0.288083596827E+03   -0.69429E-03   -0.71694E-03 33184   0.146E-01    0.779E-01
DAV:   5    -0.288082747890E+03    0.84894E-03   -0.49587E-03 33040   0.107E-01    0.153E-01
DAV:   6    -0.288083195450E+03   -0.44756E-03   -0.16444E-03 30384   0.635E-02    0.397E-01
DAV:   7    -0.288082951610E+03    0.24384E-03   -0.11023E-03 30600   0.571E-02    0.124E-01
DAV:   8    -0.288083002454E+03   -0.50844E-04   -0.11477E-04 22232   0.280E-02    0.117E-01
DAV:   9    -0.288083003666E+03   -0.12121E-05   -0.20600E-04 21320   0.256E-02    0.842E-02
DAV:  10    -0.288083025808E+03   -0.22142E-04   -0.23196E-04 19912   0.250E-02    0.707E-02
DAV:  11    -0.288083044128E+03   -0.18320E-04   -0.11245E-04 18136   0.189E-02    0.642E-02
DAV:  12    -0.288083051523E+03   -0.73953E-05   -0.32718E-05 16904   0.132E-02
  14 F= -.28808305E+03 E0= -.28806907E+03  d E =-.586280E-02  mag=    10.0000
       N       E                     dE             d eps       ncg     rms          rms(c)
DAV:   1    -0.288079649109E+03    0.33950E-02   -0.16724E+00 25344   0.479E+00    0.378E-01
DAV:   2    -0.288087495170E+03   -0.78461E-02   -0.81358E-02 26104   0.857E-01    0.139E+00
DAV:   3    -0.288085111532E+03    0.23836E-02   -0.26272E-02 33504   0.270E-01    0.463E-01
DAV:   4    -0.288086615971E+03   -0.15044E-02   -0.97121E-03 34744   0.169E-01    0.919E-01
DAV:   5    -0.288085372661E+03    0.12433E-02   -0.58106E-03 33592   0.123E-01    0.176E-01
DAV:   6    -0.288085828038E+03   -0.45538E-03   -0.15230E-03 32816   0.721E-02    0.386E-01
DAV:   7    -0.288085616502E+03    0.21154E-03   -0.11275E-03 31872   0.593E-02    0.171E-01
DAV:   8    -0.288085634098E+03   -0.17595E-04   -0.19380E-04 26024   0.401E-02    0.159E-01
DAV:   9    -0.288085653459E+03   -0.19361E-04   -0.78921E-04 26432   0.408E-02    0.123E-01
DAV:  10    -0.288085722488E+03   -0.69029E-04   -0.34005E-04 25744   0.420E-02    0.122E-01
DAV:  11    -0.288085731046E+03   -0.85582E-05   -0.12865E-04 22760   0.298E-02    0.934E-02
DAV:  12    -0.288085736719E+03   -0.56730E-05   -0.32105E-05 17336   0.161E-02
  15 F= -.28808574E+03 E0= -.28807173E+03  d E =-.268520E-02  mag=    10.0000
       N       E                     dE             d eps       ncg     rms          rms(c)
DAV:   1    -0.287954442376E+03    0.13129E+00   -0.34915E+01 25344   0.219E+01    0.184E+00
DAV:   2    -0.288137896003E+03   -0.18345E+00   -0.18320E+00 27056   0.390E+00    0.823E+00
DAV:   3    -0.288064449320E+03    0.73447E-01   -0.93743E-01 33200   0.133E+00    0.253E+00
DAV:   4    -0.288109129791E+03   -0.44680E-01   -0.28123E-01 33960   0.897E-01    0.442E+00
DAV:   5    -0.288079178193E+03    0.29952E-01   -0.14553E-01 33496   0.663E-01    0.206E+00
DAV:   6    -0.288083220284E+03   -0.40421E-02   -0.23503E-02 32304   0.249E-01    0.129E+00
DAV:   7    -0.288083214109E+03    0.61745E-05   -0.93441E-03 32096   0.230E-01    0.834E-01
DAV:   8    -0.288082896231E+03    0.31788E-03   -0.49138E-03 33176   0.174E-01    0.793E-01
DAV:   9    -0.288082571877E+03    0.32435E-03   -0.15759E-02 32384   0.177E-01    0.577E-01
DAV:  10    -0.288084682246E+03   -0.21104E-02   -0.99151E-03 29496   0.183E-01    0.813E-01
DAV:  11    -0.288084663392E+03    0.18854E-04   -0.24465E-03 33064   0.115E-01    0.665E-01
DAV:  12    -0.288084812132E+03   -0.14874E-03   -0.88769E-04 32928   0.749E-02    0.642E-01
DAV:  13    -0.288084700632E+03    0.11150E-03   -0.16604E-03 31832   0.127E-01    0.370E-01
DAV:  14    -0.288084852522E+03   -0.15189E-03   -0.11022E-03 32992   0.845E-02    0.240E-01
DAV:  15    -0.288084920367E+03   -0.67846E-04   -0.69173E-04 30824   0.748E-02    0.159E-01
DAV:  16    -0.288084934880E+03   -0.14512E-04   -0.40264E-04 31104   0.629E-02    0.169E-01
DAV:  17    -0.288084949695E+03   -0.14815E-04   -0.88533E-05 21088   0.271E-02    0.153E-01
DAV:  18    -0.288084967824E+03   -0.18129E-04   -0.15061E-04 25416   0.373E-02    0.144E-01
DAV:  19    -0.288084991485E+03   -0.23661E-04   -0.25746E-04 23552   0.367E-02    0.133E-01
DAV:  20    -0.288084992688E+03   -0.12026E-05   -0.69361E-05 19616   0.218E-02
  16 F= -.28808499E+03 E0= -.28807096E+03  d E =0.744032E-03  mag=    10.0000
       N       E                     dE             d eps       ncg     rms          rms(c)
DAV:   1    -0.286394320324E+03    0.16907E+01   -0.13149E+02 25344   0.341E+01    0.112E+01
DAV:   2    -0.287761839297E+03   -0.13675E+01   -0.16188E+01 30736   0.922E+00    0.189E+01
DAV:   3    -0.287407875895E+03    0.35396E+00   -0.16783E+01 33208   0.617E+00    0.160E+01
DAV:   4    -0.287073591571E+03    0.33428E+00   -0.87391E+00 33928   0.379E+00    0.105E+01
DAV:   5    -0.287170324720E+03   -0.96733E-01   -0.59974E+00 33368   0.330E+00    0.143E+01
DAV:   6    -0.286728153977E+03    0.44217E+00   -0.25465E+00 33632   0.287E+00    0.750E+00
DAV:   7    -0.286907886313E+03   -0.17973E+00   -0.24145E+00 34520   0.210E+00    0.128E+01
DAV:   8    -0.286812401179E+03    0.95485E-01   -0.24067E+00 32672   0.170E+00    0.975E+00
DAV:   9    -0.286733206247E+03    0.79195E-01   -0.10366E+00 32880   0.153E+00    0.389E+00
DAV:  10    -0.286766351789E+03   -0.33146E-01   -0.10674E-01 30968   0.676E-01    0.472E+00
DAV:  11    -0.286759986922E+03    0.63649E-02   -0.65111E-03 26544   0.276E-01    0.511E+00
DAV:  12    -0.286753211364E+03    0.67756E-02   -0.14314E-03 33808   0.122E-01    0.491E+00
DAV:  13    -0.286746634288E+03    0.65771E-02   -0.23644E-02 32816   0.277E-01    0.349E+00
DAV:  14    -0.286754030573E+03   -0.73963E-02   -0.53351E-03 27992   0.169E-01    0.312E+00
DAV:  15    -0.286758504836E+03   -0.44743E-02   -0.92585E-03 32296   0.165E-01    0.359E+00
DAV:  16    -0.286750932106E+03    0.75727E-02   -0.11950E-02 33056   0.212E-01    0.273E+00
DAV:  17    -0.286753703056E+03   -0.27710E-02   -0.89637E-04 26480   0.855E-02    0.266E+00
DAV:  18    -0.286749300935E+03    0.44021E-02   -0.24681E-02 35024   0.256E-01    0.134E+00
DAV:  19    -0.286754198970E+03   -0.48980E-02   -0.51443E-03 29616   0.180E-01    0.134E+00
DAV:  20    -0.286755335813E+03   -0.11368E-02   -0.20023E-03 32088   0.106E-01    0.159E+00
DAV:  21    -0.286753913215E+03    0.14226E-02   -0.26024E-03 31656   0.150E-01    0.109E+00
DAV:  22    -0.286754694575E+03   -0.78136E-03   -0.15399E-03 32744   0.131E-01    0.951E-01
DAV:  23    -0.286754932181E+03   -0.23761E-03   -0.34785E-04 30696   0.601E-02    0.950E-01
DAV:  24    -0.286754703987E+03    0.22819E-03   -0.21622E-03 32752   0.849E-02    0.576E-01
DAV:  25    -0.286755270973E+03   -0.56699E-03   -0.14495E-03 31248   0.826E-02    0.471E-01
DAV:  26    -0.286755451005E+03   -0.18003E-03   -0.36019E-04 28736   0.519E-02    0.447E-01
DAV:  27    -0.286755550921E+03   -0.99916E-04   -0.24151E-04 28080   0.489E-02    0.403E-01
DAV:  28    -0.286755653214E+03   -0.10229E-03   -0.58346E-04 28632   0.512E-02    0.429E-01
DAV:  29    -0.286755621636E+03    0.31578E-04   -0.85385E-05 23720   0.324E-02    0.440E-01
DAV:  30    -0.286755548533E+03    0.73103E-04   -0.87871E-05 23928   0.302E-02    0.453E-01
DAV:  31    -0.286755425371E+03    0.12316E-03   -0.96755E-05 22152   0.274E-02    0.493E-01
DAV:  32    -0.286755375960E+03    0.49411E-04   -0.45360E-05 18680   0.182E-02    0.526E-01
DAV:  33    -0.286755414849E+03   -0.38888E-04   -0.52033E-06 14240   0.102E-02    0.522E-01
DAV:  34    -0.286755428222E+03   -0.13373E-04   -0.19715E-06 13520   0.507E-03    0.520E-01
DAV:  35    -0.286755536019E+03   -0.10780E-03   -0.23537E-05 18984   0.193E-02    0.486E-01
DAV:  36    -0.286755708262E+03   -0.17224E-03   -0.14865E-04 27968   0.373E-02    0.409E-01
DAV:  37    -0.286755800241E+03   -0.91979E-04   -0.98924E-05 20440   0.251E-02    0.343E-01
DAV:  38    -0.286755932406E+03   -0.13216E-03   -0.12179E-04 25928   0.303E-02    0.317E-01
DAV:  39    -0.286756015782E+03   -0.83375E-04   -0.13414E-04 24872   0.349E-02    0.238E-01
DAV:  40    -0.286756071897E+03   -0.56116E-04   -0.48950E-04 30872   0.644E-02    0.714E-02
DAV:  41    -0.286756125494E+03   -0.53597E-04   -0.76509E-05 22488   0.235E-02    0.539E-02
DAV:  42    -0.286756136725E+03   -0.11231E-04   -0.21494E-05 17360   0.143E-02    0.412E-02
DAV:  43    -0.286756138246E+03   -0.15217E-05   -0.84659E-06 15128   0.952E-03
  17 F= -.28675614E+03 E0= -.28674214E+03  d E =0.132885E+01  mag=    10.0000
       N       E                     dE             d eps       ncg     rms          rms(c)
DAV:   1    -0.287456401912E+03   -0.70027E+00   -0.12304E+01 25344   0.104E+01    0.343E+00
DAV:   2    -0.287598165840E+03   -0.14176E+00   -0.16517E+00 29408   0.279E+00    0.655E+00
DAV:   3    -0.287517900075E+03    0.80266E-01   -0.59834E-01 34096   0.203E+00    0.554E+00
DAV:   4    -0.287518210173E+03   -0.31010E-03   -0.56093E-01 33864   0.134E+00    0.523E+00
DAV:   5    -0.287497747795E+03    0.20462E-01   -0.48198E-01 34200   0.997E-01    0.447E+00
DAV:   6    -0.287490305559E+03    0.74422E-02   -0.18946E-01 32304   0.623E-01    0.250E+00
DAV:   7    -0.287499074273E+03   -0.87687E-02   -0.23552E-01 33936   0.684E-01    0.391E+00
DAV:   8    -0.287487890210E+03    0.11184E-01   -0.27204E-01 32144   0.594E-01    0.201E+00
DAV:   9    -0.287492183191E+03   -0.42930E-02   -0.94395E-03 27432   0.297E-01    0.128E+00
DAV:  10    -0.287490960485E+03    0.12227E-02   -0.10102E-02 33912   0.140E-01    0.497E-01
DAV:  11    -0.287491989295E+03   -0.10288E-02   -0.48719E-03 30544   0.142E-01    0.556E-01
DAV:  12    -0.287491865071E+03    0.12422E-03   -0.27181E-03 31080   0.776E-02    0.261E-01
DAV:  13    -0.287492228995E+03   -0.36392E-03   -0.34270E-04 25376   0.459E-02    0.259E-01
DAV:  14    -0.287492248780E+03   -0.19784E-04   -0.10668E-04 21792   0.279E-02    0.271E-01
DAV:  15    -0.287492213792E+03    0.34988E-04   -0.29762E-05 19368   0.229E-02    0.286E-01
DAV:  16    -0.287492222302E+03   -0.85099E-05   -0.35527E-04 29728   0.709E-02    0.267E-01
DAV:  17    -0.287492129381E+03    0.92921E-04   -0.65293E-04 32144   0.790E-02    0.288E-01
DAV:  18    -0.287492220107E+03   -0.90726E-04   -0.75206E-04 29888   0.814E-02    0.141E-01
DAV:  19    -0.287492263790E+03   -0.43683E-04   -0.14184E-04 25984   0.323E-02    0.122E-01
DAV:  20    -0.287492267172E+03   -0.33820E-05   -0.13236E-05 16136   0.117E-02
  18 F= -.28749227E+03 E0= -.28747805E+03  d E =-.736129E+00  mag=    10.0000
       N       E                     dE             d eps       ncg     rms          rms(c)
DAV:   1    -0.287703823480E+03   -0.21156E+00   -0.20694E+00 25344   0.428E+00    0.134E+00
DAV:   2    -0.287739190780E+03   -0.35367E-01   -0.34803E-01 30792   0.119E+00    0.482E+00
DAV:   3    -0.287704635424E+03    0.34555E-01   -0.29941E-01 33416   0.957E-01    0.214E+00
DAV:   4    -0.287718484111E+03   -0.13849E-01   -0.10983E-01 32760   0.566E-01    0.282E+00
DAV:   5    -0.287706114690E+03    0.12369E-01   -0.68071E-02 33088   0.436E-01    0.873E-01
DAV:   6    -0.287710044641E+03   -0.39300E-02   -0.19892E-02 33368   0.221E-01    0.102E+00
DAV:   7    -0.287708928247E+03    0.11164E-02   -0.10999E-02 32688   0.208E-01    0.515E-01
DAV:   8    -0.287709674992E+03   -0.74675E-03   -0.85312E-03 32728   0.115E-01    0.603E-01
DAV:   9    -0.287709735031E+03   -0.60038E-04   -0.99102E-04 28248   0.810E-02    0.481E-01
DAV:  10    -0.287709684897E+03    0.50133E-04   -0.25542E-04 27296   0.369E-02    0.435E-01
DAV:  11    -0.287709658254E+03    0.26644E-04   -0.11723E-04 20416   0.255E-02    0.399E-01
DAV:  12    -0.287709620461E+03    0.37793E-04   -0.22618E-04 26328   0.346E-02    0.295E-01
DAV:  13    -0.287709649848E+03   -0.29388E-04   -0.46818E-04 30144   0.637E-02    0.187E-01
DAV:  14    -0.287709696826E+03   -0.46978E-04   -0.41755E-04 26592   0.393E-02    0.131E-01
DAV:  15    -0.287709717540E+03   -0.20714E-04   -0.15111E-04 23640   0.394E-02    0.517E-02
DAV:  16    -0.287709732820E+03   -0.15280E-04   -0.60394E-05 22480   0.250E-02    0.658E-02
DAV:  17    -0.287709735927E+03   -0.31072E-05   -0.18796E-05 15104   0.123E-02
  19 F= -.28770974E+03 E0= -.28769543E+03  d E =-.217469E+00  mag=    10.0000
       N       E                     dE             d eps       ncg     rms          rms(c)
DAV:   1    -0.288042460638E+03   -0.33273E+00   -0.27613E+01 25344   0.150E+01    0.497E+00
DAV:   2    -0.288474874721E+03   -0.43241E+00   -0.38067E+00 30944   0.421E+00    0.151E+01
DAV:   3    -0.288230947284E+03    0.24393E+00   -0.58780E+00 32904   0.298E+00    0.130E+01
DAV:   4    -0.288149784480E+03    0.81163E-01   -0.26598E+00 32976   0.175E+00    0.754E+00
DAV:   5    -0.288150034017E+03   -0.24954E-03   -0.10734E+00 32704   0.150E+00    0.850E+00
DAV:   6    -0.288076417838E+03    0.73616E-01   -0.51936E-01 32560   0.883E-01    0.212E+00
DAV:   7    -0.288099781142E+03   -0.23363E-01   -0.71089E-02 30048   0.593E-01    0.168E+00
DAV:   8    -0.288109102339E+03   -0.93212E-02   -0.87153E-02 32192   0.476E-01    0.219E+00
DAV:   9    -0.288109260638E+03   -0.15830E-03   -0.37425E-02 31808   0.366E-01    0.128E+00
DAV:  10    -0.288112887960E+03   -0.36273E-02   -0.37241E-02 31976   0.280E-01    0.948E-01
DAV:  11    -0.288115165476E+03   -0.22775E-02   -0.86404E-03 31160   0.209E-01    0.112E+00
DAV:  12    -0.288115182701E+03   -0.17225E-04   -0.17530E-03 31440   0.881E-02    0.120E+00
DAV:  13    -0.288114682731E+03    0.49997E-03   -0.16886E-04 25824   0.381E-02    0.119E+00
DAV:  14    -0.288114360248E+03    0.32248E-03   -0.68731E-04 30736   0.674E-02    0.123E+00
DAV:  15    -0.288114025006E+03    0.33524E-03   -0.10506E-03 32056   0.130E-01    0.116E+00
DAV:  16    -0.288110425257E+03    0.35997E-02   -0.11054E-02 32784   0.336E-01    0.158E+00
DAV:  17    -0.288106761509E+03    0.36637E-02   -0.67948E-03 32472   0.247E-01    0.189E+00
DAV:  18    -0.288109777840E+03   -0.30163E-02   -0.83272E-04 27992   0.124E-01    0.174E+00
DAV:  19    -0.288113136161E+03   -0.33583E-02   -0.14676E-02 31840   0.432E-01    0.785E-01
DAV:  20    -0.288114177095E+03   -0.10409E-02   -0.70150E-03 32504   0.236E-01    0.492E-01
DAV:  21    -0.288114902891E+03   -0.72580E-03   -0.28596E-03 31432   0.120E-01    0.350E-01
DAV:  22    -0.288115287871E+03   -0.38498E-03   -0.16718E-03 30976   0.950E-02    0.472E-01
DAV:  23    -0.288115287317E+03    0.55389E-06   -0.33338E-04 31696   0.537E-02    0.435E-01
DAV:  24    -0.288115164338E+03    0.12298E-03   -0.37133E-04 31088   0.610E-02    0.303E-01
DAV:  25    -0.288115136109E+03    0.28229E-04   -0.50243E-04 31256   0.775E-02    0.220E-01
DAV:  26    -0.288115280535E+03   -0.14443E-03   -0.37332E-04 29552   0.555E-02    0.180E-01
DAV:  27    -0.288115284010E+03   -0.34752E-05   -0.99769E-05 25184   0.402E-02
  20 F= -.28811528E+03 E0= -.28810114E+03  d E =-.405548E+00  mag=    10.0000
       N       E                     dE             d eps       ncg     rms          rms(c)
DAV:   1    -0.288124982066E+03   -0.97015E-02   -0.43759E-01 25344   0.186E+00    0.528E-01
DAV:   2    -0.288127070094E+03   -0.20880E-02   -0.23997E-02 31352   0.430E-01    0.976E-01
DAV:   3    -0.288127299602E+03   -0.22951E-03   -0.35143E-02 33656   0.247E-01    0.131E+00
DAV:   4    -0.288125780040E+03    0.15196E-02   -0.13457E-02 32456   0.197E-01    0.740E-01
DAV:   5    -0.288125618691E+03    0.16135E-03   -0.29444E-03 33032   0.961E-02    0.261E-01
DAV:   6    -0.288125895505E+03   -0.27681E-03   -0.66425E-04 29008   0.529E-02    0.324E-01
DAV:   7    -0.288125801707E+03    0.93797E-04   -0.83303E-04 25104   0.487E-02    0.236E-01
DAV:   8    -0.288125804455E+03   -0.27480E-05   -0.11386E-03 30640   0.663E-02    0.160E-01
DAV:   9    -0.288125936413E+03   -0.13196E-03   -0.70355E-04 27096   0.478E-02    0.144E-01
DAV:  10    -0.288125959172E+03   -0.22760E-04   -0.20631E-04 26656   0.366E-02    0.115E-01
DAV:  11    -0.288125966725E+03   -0.75531E-05   -0.75799E-05 18936   0.184E-02
  21 F= -.28812597E+03 E0= -.28811193E+03  d E =-.106827E-01  mag=    10.0000
       N       E                     dE             d eps       ncg     rms          rms(c)
DAV:   1    -0.288124988643E+03    0.97053E-03   -0.15034E+00 25344   0.390E+00    0.952E-01
DAV:   2    -0.288130915751E+03   -0.59271E-02   -0.72868E-02 31400   0.844E-01    0.131E+00
DAV:   3    -0.288135307267E+03   -0.43915E-02   -0.11379E-01 34640   0.504E-01    0.260E+00
DAV:   4    -0.288128930339E+03    0.63769E-02   -0.68961E-02 33576   0.407E-01    0.187E+00
DAV:   5    -0.288126735994E+03    0.21943E-02   -0.27243E-02 33016   0.255E-01    0.400E-01
DAV:   6    -0.288128400486E+03   -0.16645E-02   -0.18854E-03 29696   0.106E-01    0.499E-01
DAV:   7    -0.288128403040E+03   -0.25540E-05   -0.19667E-03 33680   0.746E-02    0.588E-01
DAV:   8    -0.288128013217E+03    0.38982E-03   -0.22484E-03 32240   0.749E-02    0.339E-01
DAV:   9    -0.288127999152E+03    0.14065E-04   -0.12638E-03 30256   0.787E-02    0.295E-01
DAV:  10    -0.288128192664E+03   -0.19351E-03   -0.35629E-03 30976   0.776E-02    0.255E-01
DAV:  11    -0.288128463909E+03   -0.27125E-03   -0.11281E-03 28696   0.597E-02    0.298E-01
DAV:  12    -0.288128456337E+03    0.75727E-05   -0.14034E-04 22680   0.311E-02    0.309E-01
DAV:  13    -0.288128404406E+03    0.51931E-04   -0.15489E-05 16936   0.135E-02    0.317E-01
DAV:  14    -0.288128305266E+03    0.99140E-04   -0.77126E-05 20152   0.236E-02    0.360E-01
DAV:  15    -0.288128233288E+03    0.71979E-04   -0.46097E-05 19744   0.185E-02    0.385E-01
DAV:  16    -0.288128313781E+03   -0.80493E-04   -0.33865E-05 19320   0.233E-02    0.331E-01
DAV:  17    -0.288128423749E+03   -0.10997E-03   -0.38649E-04 30224   0.772E-02    0.151E-01
DAV:  18    -0.288128426879E+03   -0.31295E-05   -0.41429E-04 32064   0.612E-02    0.835E-02
DAV:  19    -0.288128462557E+03   -0.35679E-04   -0.83220E-05 19632   0.225E-02    0.666E-02
DAV:  20    -0.288128475420E+03   -0.12862E-04   -0.37191E-05 16776   0.192E-02    0.369E-02
DAV:  21    -0.288128479315E+03   -0.38954E-05   -0.25207E-05 16936   0.140E-02
  22 F= -.28812848E+03 E0= -.28811439E+03  d E =-.251259E-02  mag=    10.0000
       N       E                     dE             d eps       ncg     rms          rms(c)
DAV:   1    -0.288128670673E+03   -0.19525E-03   -0.45052E-02 25192   0.623E-01    0.177E-01
DAV:   2    -0.288129167995E+03   -0.49732E-03   -0.51222E-03 32736   0.168E-01    0.584E-01
DAV:   3    -0.288128669057E+03    0.49894E-03   -0.44915E-03 33568   0.115E-01    0.209E-01
DAV:   4    -0.288128977785E+03   -0.30873E-03   -0.22249E-03 30248   0.693E-02    0.456E-01
DAV:   5    -0.288128674412E+03    0.30337E-03   -0.17573E-03 27864   0.615E-02    0.125E-01
DAV:   6    -0.288128769211E+03   -0.94798E-04   -0.54436E-05 18136   0.211E-02    0.130E-01
DAV:   7    -0.288128761052E+03    0.81586E-05   -0.20361E-05 15304   0.130E-02
  23 F= -.28812876E+03 E0= -.28811463E+03  d E =-.281737E-03  mag=    10.0000
       N       E                     dE             d eps       ncg     rms          rms(c)
DAV:   1    -0.288127741101E+03    0.10281E-02   -0.29163E-02 25344   0.647E-01    0.197E-01
DAV:   2    -0.288131046552E+03   -0.33055E-02   -0.31267E-02 32240   0.255E-01    0.188E+00
DAV:   3    -0.288125939209E+03    0.51073E-02   -0.23598E-02 31520   0.220E-01    0.155E-01
DAV:   4    -0.288127842020E+03   -0.19028E-02   -0.14702E-03 26096   0.786E-02    0.357E-01
DAV:   5    -0.288127797203E+03    0.44817E-04   -0.49255E-04 25272   0.500E-02    0.234E-01
DAV:   6    -0.288127793420E+03    0.37828E-05   -0.98634E-05 19712   0.221E-02
  24 F= -.28812779E+03 E0= -.28811360E+03  d E =0.967632E-03  mag=    10.0000
       N       E                     dE             d eps       ncg     rms          rms(c)
DAV:   1    -0.288116652105E+03    0.11145E-01   -0.10898E+00 25344   0.393E+00    0.432E-01
DAV:   2    -0.288132408275E+03   -0.15756E-01   -0.15990E-01 30728   0.869E-01    0.336E+00
DAV:   3    -0.288115369566E+03    0.17039E-01   -0.74227E-02 32760   0.450E-01    0.476E-01
DAV:   4    -0.288121539437E+03   -0.61699E-02   -0.13466E-02 32520   0.193E-01    0.968E-01
DAV:   5    -0.288120559038E+03    0.98040E-03   -0.62302E-03 32632   0.157E-01    0.213E-01
DAV:   6    -0.288121151586E+03   -0.59255E-03   -0.33205E-03 34264   0.899E-02    0.524E-01
DAV:   7    -0.288120838842E+03    0.31274E-03   -0.26383E-03 33088   0.871E-02    0.360E-01
DAV:   8    -0.288120854972E+03   -0.16130E-04   -0.10624E-03 27744   0.552E-02    0.160E-01
DAV:   9    -0.288120969957E+03   -0.11498E-03   -0.21405E-04 21928   0.294E-02    0.197E-01
DAV:  10    -0.288120965611E+03    0.43454E-05   -0.38615E-05 17984   0.158E-02
  25 F= -.28812097E+03 E0= -.28810679E+03  d E =0.682781E-02  mag=    10.0000
       N       E                     dE             d eps       ncg     rms          rms(c)
DAV:   1    -0.288105438829E+03    0.15531E-01   -0.19538E+00 25344   0.494E+00    0.617E-01
DAV:   2    -0.288124910647E+03   -0.19472E-01   -0.19037E-01 28528   0.102E+00    0.392E+00
DAV:   3    -0.288105762401E+03    0.19148E-01   -0.14179E-01 32976   0.523E-01    0.102E+00
DAV:   4    -0.288112705154E+03   -0.69428E-02   -0.13063E-02 30512   0.240E-01    0.928E-01
DAV:   5    -0.288112264751E+03    0.44040E-03   -0.42473E-03 32264   0.140E-01    0.736E-01
DAV:   6    -0.288112191524E+03    0.73227E-04   -0.68689E-04 28072   0.527E-02    0.876E-01
DAV:   7    -0.288111998613E+03    0.19291E-03   -0.14689E-04 23040   0.297E-02    0.923E-01
DAV:   8    -0.288111114530E+03    0.88408E-03   -0.10385E-02 33384   0.181E-01    0.277E-01
DAV:   9    -0.288111958311E+03   -0.84378E-03   -0.14477E-03 27936   0.941E-02    0.361E-01
DAV:  10    -0.288111940796E+03    0.17515E-04   -0.78451E-04 33064   0.691E-02    0.298E-01
DAV:  11    -0.288111949741E+03   -0.89451E-05   -0.15162E-04 24776   0.271E-02    0.311E-01
DAV:  12    -0.288111858639E+03    0.91102E-04   -0.63405E-05 20088   0.257E-02    0.330E-01
DAV:  13    -0.288111869566E+03   -0.10927E-04   -0.46078E-05 20240   0.273E-02    0.281E-01
DAV:  14    -0.288111937048E+03   -0.67482E-04   -0.63082E-04 31120   0.766E-02    0.148E-01
DAV:  15    -0.288111958970E+03   -0.21922E-04   -0.12406E-04 27152   0.378E-02    0.112E-01
DAV:  16    -0.288111961207E+03   -0.22372E-05   -0.50010E-05 21680   0.259E-02
  26 F= -.28811196E+03 E0= -.28809798E+03  d E =0.900440E-02  mag=    10.0000
       N       E                     dE             d eps       ncg     rms          rms(c)
DAV:   1    -0.288037667302E+03    0.74292E-01   -0.15734E+01 25344   0.139E+01    0.108E+00
DAV:   2    -0.288107434375E+03   -0.69767E-01   -0.74465E-01 27024   0.253E+00    0.404E+00
DAV:   3    -0.288084773321E+03    0.22661E-01   -0.19618E-01 33960   0.796E-01    0.130E+00
DAV:   4    -0.288100488695E+03   -0.15715E-01   -0.11948E-01 34992   0.511E-01    0.327E+00
DAV:   5    -0.288085155292E+03    0.15333E-01   -0.86020E-02 33208   0.431E-01    0.757E-01
DAV:   6    -0.288090130390E+03   -0.49751E-02   -0.16923E-02 32408   0.210E-01    0.885E-01
DAV:   7    -0.288088976268E+03    0.11541E-02   -0.82671E-03 33152   0.198E-01    0.351E-01
DAV:   8    -0.288089080633E+03   -0.10437E-03   -0.11406E-03 31200   0.874E-02    0.323E-01
DAV:   9    -0.288088879386E+03    0.20125E-03   -0.93647E-04 32224   0.667E-02    0.315E-01
DAV:  10    -0.288089020501E+03   -0.14111E-03   -0.29210E-03 32152   0.718E-02    0.244E-01
DAV:  11    -0.288089218845E+03   -0.19834E-03   -0.15070E-03 30952   0.831E-02    0.217E-01
DAV:  12    -0.288089330846E+03   -0.11200E-03   -0.78012E-04 32080   0.635E-02    0.248E-01
DAV:  13    -0.288089349608E+03   -0.18762E-04   -0.23142E-04 28176   0.440E-02    0.219E-01
DAV:  14    -0.288089336985E+03    0.12623E-04   -0.17379E-04 24552   0.366E-02    0.152E-01
DAV:  15    -0.288089368547E+03   -0.31562E-04   -0.15238E-04 24464   0.317E-02    0.871E-02
DAV:  16    -0.288089400553E+03   -0.32006E-04   -0.18250E-04 21272   0.327E-02    0.102E-01
DAV:  17    -0.288089407613E+03   -0.70602E-05   -0.47965E-05 19008   0.190E-02
  27 F= -.28808941E+03 E0= -.28807533E+03  d E =0.225536E-01  mag=    10.0000
       N       E                     dE             d eps       ncg     rms          rms(c)
DAV:   1    -0.287621842538E+03    0.46756E+00   -0.11508E+02 25344   0.363E+01    0.354E+00
DAV:   2    -0.288049514499E+03   -0.42767E+00   -0.45524E+00 25832   0.654E+00    0.864E+00
DAV:   3    -0.288021154685E+03    0.28360E-01   -0.25555E+00 34208   0.211E+00    0.565E+00
DAV:   4    -0.288133140699E+03   -0.11199E+00   -0.18491E+00 34720   0.157E+00    0.121E+01
DAV:   5    -0.287976922875E+03    0.15622E+00   -0.16042E+00 32880   0.137E+00    0.787E+00
DAV:   6    -0.287967097093E+03    0.98258E-02   -0.31578E-01 30984   0.850E-01    0.354E+00
DAV:   7    -0.287972306081E+03   -0.52090E-02   -0.89604E-02 32168   0.590E-01    0.224E+00
DAV:   8    -0.287976943870E+03   -0.46378E-02   -0.22549E-02 31032   0.376E-01    0.200E+00
DAV:   9    -0.287971140326E+03    0.58035E-02   -0.24563E-02 34176   0.349E-01    0.129E+00
DAV:  10    -0.287974100270E+03   -0.29599E-02   -0.54189E-02 33808   0.384E-01    0.143E+00
DAV:  11    -0.287979898382E+03   -0.57981E-02   -0.26560E-02 29792   0.291E-01    0.167E+00
DAV:  12    -0.287979140977E+03    0.75740E-03   -0.78744E-03 32968   0.197E-01    0.139E+00
DAV:  13    -0.287979422327E+03   -0.28135E-03   -0.17379E-03 33080   0.116E-01    0.132E+00
DAV:  14    -0.287979910561E+03   -0.48823E-03   -0.13642E-03 33024   0.104E-01    0.134E+00
DAV:  15    -0.287979223834E+03    0.68673E-03   -0.36039E-03 32840   0.162E-01    0.918E-01
DAV:  16    -0.287979460668E+03   -0.23683E-03   -0.27064E-03 31288   0.139E-01    0.783E-01
DAV:  17    -0.287979555791E+03   -0.95122E-04   -0.19301E-03 33304   0.821E-02    0.641E-01
DAV:  18    -0.287979834352E+03   -0.27856E-03   -0.11997E-03 30512   0.770E-02    0.707E-01
DAV:  19    -0.287979781790E+03    0.52563E-04   -0.94029E-05 24920   0.306E-02    0.733E-01
DAV:  20    -0.287979355660E+03    0.42613E-03   -0.18389E-03 31584   0.822E-02    0.645E-01
DAV:  21    -0.287979232138E+03    0.12352E-03   -0.18582E-03 32824   0.808E-02    0.286E-01
DAV:  22    -0.287979611878E+03   -0.37974E-03   -0.91709E-04 31368   0.661E-02    0.285E-01
DAV:  23    -0.287979688331E+03   -0.76454E-04   -0.65540E-05 21112   0.267E-02    0.300E-01
DAV:  24    -0.287979670780E+03    0.17551E-04   -0.89502E-05 21680   0.344E-02    0.314E-01
DAV:  25    -0.287979660242E+03    0.10538E-04   -0.11504E-05 16680   0.169E-02    0.315E-01
DAV:  26    -0.287979586589E+03    0.73653E-04   -0.81723E-05 22432   0.344E-02    0.347E-01
DAV:  27    -0.287979557824E+03    0.28765E-04   -0.46836E-05 21360   0.200E-02    0.373E-01
DAV:  28    -0.287979634210E+03   -0.76386E-04   -0.26680E-05 18328   0.201E-02    0.350E-01
DAV:  29    -0.287979703667E+03   -0.69457E-04   -0.83352E-05 25344   0.350E-02    0.300E-01
DAV:  30    -0.287979748921E+03   -0.45255E-04   -0.26659E-04 30752   0.566E-02    0.181E-01
DAV:  31    -0.287979778696E+03   -0.29774E-04   -0.27180E-04 30552   0.480E-02    0.780E-02
DAV:  32    -0.287979808920E+03   -0.30224E-04   -0.55788E-05 20128   0.257E-02    0.526E-02
DAV:  33    -0.287979813390E+03   -0.44693E-05   -0.18318E-05 15272   0.134E-02
  28 F= -.28797981E+03 E0= -.28796546E+03  d E =0.109594E+00  mag=    10.0000
       N       E                     dE             d eps       ncg     rms          rms(c)
DAV:   1    -0.287973016273E+03    0.67926E-02   -0.15290E+01 24768   0.150E+01    0.304E+00
DAV:   2    -0.288176171391E+03   -0.20316E+00   -0.22013E+00 29144   0.355E+00    0.955E+00
DAV:   3    -0.288076120035E+03    0.10005E+00   -0.22026E+00 33272   0.199E+00    0.676E+00
DAV:   4    -0.288055570656E+03    0.20549E-01   -0.60886E-01 33912   0.122E+00    0.485E+00
DAV:   5    -0.288068436917E+03   -0.12866E-01   -0.62787E-01 33024   0.103E+00    0.628E+00
DAV:   6    -0.288038070184E+03    0.30367E-01   -0.32292E-01 32464   0.826E-01    0.342E+00
DAV:   7    -0.288037657140E+03    0.41304E-03   -0.46825E-02 30120   0.447E-01    0.179E+00
DAV:   8    -0.288043409850E+03   -0.57527E-02   -0.35547E-02 33152   0.361E-01    0.220E+00
DAV:   9    -0.288038019668E+03    0.53902E-02   -0.57504E-02 33568   0.365E-01    0.887E-01
DAV:  10    -0.288043904601E+03   -0.58849E-02   -0.29119E-02 31336   0.260E-01    0.121E+00
DAV:  11    -0.288043652821E+03    0.25178E-03   -0.83639E-03 31088   0.225E-01    0.699E-01
DAV:  12    -0.288044118441E+03   -0.46562E-03   -0.78734E-03 33544   0.148E-01    0.596E-01
DAV:  13    -0.288044604205E+03   -0.48576E-03   -0.16207E-03 30088   0.836E-02    0.665E-01
DAV:  14    -0.288044258376E+03    0.34583E-03   -0.25253E-04 26120   0.609E-02    0.677E-01
DAV:  15    -0.288044196601E+03    0.61775E-04   -0.23434E-05 20240   0.235E-02    0.658E-01
DAV:  16    -0.288044430317E+03   -0.23372E-03   -0.21620E-03 32544   0.174E-01    0.585E-01
DAV:  17    -0.288044193833E+03    0.23648E-03   -0.15224E-03 30872   0.115E-01    0.422E-01
DAV:  18    -0.288044272778E+03   -0.78944E-04   -0.79115E-04 30912   0.762E-02    0.245E-01
DAV:  19    -0.288044359179E+03   -0.86401E-04   -0.40009E-04 31224   0.569E-02    0.108E-01
DAV:  20    -0.288044419190E+03   -0.60011E-04   -0.18609E-04 23168   0.363E-02    0.106E-01
DAV:  21    -0.288044438907E+03   -0.19717E-04   -0.48301E-05 18000   0.178E-02    0.124E-01
DAV:  22    -0.288044433249E+03    0.56573E-05   -0.79116E-06 13912   0.994E-03
  29 F= -.28804443E+03 E0= -.28803055E+03  d E =-.646199E-01  mag=    10.0000
       N       E                     dE             d eps       ncg     rms          rms(c)
DAV:   1    -0.288054749862E+03   -0.10311E-01   -0.91899E+00 25344   0.109E+01    0.126E+00
DAV:   2    -0.288104276785E+03   -0.49527E-01   -0.52418E-01 28544   0.209E+00    0.394E+00
DAV:   3    -0.288083761744E+03    0.20515E-01   -0.22372E-01 33912   0.808E-01    0.175E+00
DAV:   4    -0.288100311413E+03   -0.16550E-01   -0.17740E-01 33800   0.604E-01    0.348E+00
DAV:   5    -0.288081774984E+03    0.18536E-01   -0.76843E-02 33456   0.496E-01    0.844E-01
DAV:   6    -0.288086648548E+03   -0.48736E-02   -0.70874E-03 31728   0.157E-01    0.865E-01
DAV:   7    -0.288086751983E+03   -0.10344E-03   -0.20238E-03 31864   0.948E-02    0.738E-01
DAV:   8    -0.288086257129E+03    0.49485E-03   -0.10730E-03 30832   0.988E-02    0.819E-01
DAV:   9    -0.288086121901E+03    0.13523E-03   -0.23339E-03 31040   0.190E-01    0.381E-01
DAV:  10    -0.288086598926E+03   -0.47703E-03   -0.60968E-03 32880   0.168E-01    0.495E-01
DAV:  11    -0.288086581493E+03    0.17433E-04   -0.18182E-03 32320   0.128E-01    0.362E-01
DAV:  12    -0.288086687037E+03   -0.10554E-03   -0.97254E-04 33608   0.883E-02    0.333E-01
DAV:  13    -0.288086671878E+03    0.15159E-04   -0.25052E-04 27872   0.433E-02    0.285E-01
DAV:  14    -0.288086645650E+03    0.26228E-04   -0.18054E-04 25744   0.381E-02    0.198E-01
DAV:  15    -0.288086665118E+03   -0.19468E-04   -0.23207E-04 25872   0.339E-02    0.154E-01
DAV:  16    -0.288086677876E+03   -0.12759E-04   -0.98357E-05 20344   0.239E-02    0.130E-01
DAV:  17    -0.288086691681E+03   -0.13804E-04   -0.38522E-05 16432   0.161E-02    0.153E-01
DAV:  18    -0.288086688194E+03    0.34864E-05   -0.58576E-06 13912   0.839E-03
  30 F= -.28808669E+03 E0= -.28807261E+03  d E =-.422549E-01  mag=    10.0000
       N       E                     dE             d eps       ncg     rms          rms(c)
DAV:   1    -0.288084500893E+03    0.21908E-02   -0.22170E+00 25344   0.530E+00    0.577E-01
DAV:   2    -0.288098493938E+03   -0.13993E-01   -0.13882E-01 28216   0.988E-01    0.292E+00
DAV:   3    -0.288088260876E+03    0.10233E-01   -0.80831E-02 33200   0.395E-01    0.649E-01
DAV:   4    -0.288094351336E+03   -0.60905E-02   -0.26489E-02 32104   0.273E-01    0.153E+00
DAV:   5    -0.288090939233E+03    0.34121E-02   -0.17093E-02 33184   0.220E-01    0.477E-01
DAV:   6    -0.288091802750E+03   -0.86352E-03   -0.10890E-03 29712   0.706E-02    0.416E-01
DAV:   7    -0.288091842031E+03   -0.39281E-04   -0.38314E-05 21072   0.252E-02    0.422E-01
DAV:   8    -0.288091495057E+03    0.34697E-03   -0.11891E-03 30264   0.632E-02    0.350E-01
DAV:   9    -0.288091371134E+03    0.12392E-03   -0.86429E-04 29600   0.615E-02    0.314E-01
DAV:  10    -0.288091686047E+03   -0.31491E-03   -0.20168E-03 32648   0.679E-02    0.573E-01
DAV:  11    -0.288091757119E+03   -0.71072E-04   -0.48739E-04 27288   0.426E-02    0.643E-01
DAV:  12    -0.288091609098E+03    0.14802E-03   -0.11530E-04 20328   0.265E-02    0.565E-01
DAV:  13    -0.288091603001E+03    0.60962E-05   -0.24993E-04 27664   0.425E-02    0.445E-01
DAV:  14    -0.288091652252E+03   -0.49251E-04   -0.47584E-04 24688   0.354E-02    0.317E-01
DAV:  15    -0.288091731794E+03   -0.79542E-04   -0.97580E-05 21360   0.322E-02    0.344E-01
DAV:  16    -0.288091741283E+03   -0.94894E-05   -0.19049E-05 15600   0.130E-02
  31 F= -.28809174E+03 E0= -.28807759E+03  d E =-.505309E-02  mag=    10.0000
       N       E                     dE             d eps       ncg     rms          rms(c)
DAV:   1    -0.286552444859E+03    0.15393E+01   -0.14541E+02 25224   0.444E+01    0.870E+00
DAV:   2    -0.287762411642E+03   -0.12100E+01   -0.14081E+01 27592   0.996E+00    0.135E+01
DAV:   3    -0.287535347738E+03    0.22706E+00   -0.68135E+00 33792   0.533E+00    0.135E+01
DAV:   4    -0.287613831413E+03   -0.78484E-01   -0.71428E+00 34136   0.287E+00    0.155E+01
DAV:   5    -0.287276152890E+03    0.33768E+00   -0.37018E+00 32808   0.254E+00    0.974E+00
DAV:   6    -0.287274358435E+03    0.17945E-02   -0.62828E-01 31080   0.112E+00    0.659E+00
DAV:   7    -0.287281578136E+03   -0.72197E-02   -0.13154E+00 34336   0.160E+00    0.645E+00
DAV:   8    -0.287281218483E+03    0.35965E-03   -0.65010E-01 32920   0.127E+00    0.380E+00
DAV:   9    -0.287274238246E+03    0.69802E-02   -0.74757E-02 32672   0.627E-01    0.236E+00
DAV:  10    -0.287277924211E+03   -0.36860E-02   -0.15390E-01 34768   0.637E-01    0.268E+00
DAV:  11    -0.287282680386E+03   -0.47562E-02   -0.62100E-02 31128   0.450E-01    0.208E+00
DAV:  12    -0.287282050303E+03    0.63008E-03   -0.42922E-03 30328   0.176E-01    0.204E+00
DAV:  13    -0.287280534202E+03    0.15161E-02   -0.25292E-04 28128   0.534E-02    0.205E+00
DAV:  14    -0.287279769684E+03    0.76452E-03   -0.30341E-03 33448   0.166E-01    0.188E+00
DAV:  15    -0.287278201228E+03    0.15685E-02   -0.21848E-02 31728   0.316E-01    0.142E+00
DAV:  16    -0.287277907694E+03    0.29353E-03   -0.75750E-03 33144   0.265E-01    0.106E+00
DAV:  17    -0.287278549487E+03   -0.64179E-03   -0.68193E-03 31344   0.138E-01    0.896E-01
DAV:  18    -0.287279448854E+03   -0.89937E-03   -0.14417E-03 30512   0.998E-02    0.916E-01
DAV:  19    -0.287279360843E+03    0.88011E-04   -0.61223E-04 32224   0.560E-02    0.977E-01
DAV:  20    -0.287279106752E+03    0.25409E-03   -0.91224E-05 21304   0.301E-02    0.976E-01
DAV:  21    -0.287278580317E+03    0.52643E-03   -0.83448E-04 31848   0.931E-02    0.110E+00
DAV:  22    -0.287277665186E+03    0.91513E-03   -0.10823E-03 32352   0.102E-01    0.128E+00
DAV:  23    -0.287277409537E+03    0.25565E-03   -0.15904E-04 28480   0.406E-02    0.135E+00
DAV:  24    -0.287277224630E+03    0.18491E-03   -0.12805E-05 18688   0.147E-02    0.135E+00
DAV:  25    -0.287277310961E+03   -0.86331E-04   -0.44418E-06 15048   0.109E-02    0.134E+00
DAV:  26    -0.287277870753E+03   -0.55979E-03   -0.12458E-04 28160   0.468E-02    0.123E+00
DAV:  27    -0.287279861580E+03   -0.19908E-02   -0.22583E-03 31968   0.205E-01    0.749E-01
DAV:  28    -0.287280390769E+03   -0.52919E-03   -0.11602E-03 33560   0.103E-01    0.487E-01
DAV:  29    -0.287280726271E+03   -0.33550E-03   -0.16763E-04 28656   0.413E-02    0.445E-01
DAV:  30    -0.287280865769E+03   -0.13950E-03   -0.26647E-04 28344   0.482E-02    0.288E-01
DAV:  31    -0.287281052152E+03   -0.18638E-03   -0.35403E-04 31376   0.725E-02    0.127E-01
DAV:  32    -0.287281096361E+03   -0.44209E-04   -0.14913E-04 28568   0.349E-02    0.473E-02
DAV:  33    -0.287281110199E+03   -0.13838E-04   -0.14872E-05 17448   0.150E-02    0.433E-02
DAV:  34    -0.287281114030E+03   -0.38310E-05   -0.16491E-05 16920   0.145E-02
  32 F= -.28728111E+03 E0= -.28726906E+03  d E =0.810627E+00  mag=    10.0000
       N       E                     dE             d eps       ncg     rms          rms(c)
DAV:   1    -0.287935060992E+03   -0.65395E+00   -0.30467E+01 25464   0.164E+01    0.513E+00
DAV:   2    -0.288380959536E+03   -0.44590E+00   -0.50096E+00 31192   0.484E+00    0.136E+01
DAV:   3    -0.288235743278E+03    0.14522E+00   -0.59904E+00 33056   0.317E+00    0.134E+01
DAV:   4    -0.288046109971E+03    0.18963E+00   -0.22974E+00 32736   0.189E+00    0.830E+00
DAV:   5    -0.288142555316E+03   -0.96445E-01   -0.21956E+00 32688   0.155E+00    0.128E+01
DAV:   6    -0.287979310380E+03    0.16324E+00   -0.19730E+00 32352   0.147E+00    0.620E+00
DAV:   7    -0.288014752328E+03   -0.35442E-01   -0.88061E-01 31664   0.114E+00    0.549E+00
DAV:   8    -0.288022670857E+03   -0.79185E-02   -0.72418E-01 33104   0.106E+00    0.466E+00
DAV:   9    -0.288012344889E+03    0.10326E-01   -0.19657E-01 32728   0.851E-01    0.224E+00
DAV:  10    -0.288029679603E+03   -0.17335E-01   -0.12630E-01 33208   0.521E-01    0.269E+00
DAV:  11    -0.288032480834E+03   -0.28012E-02   -0.11245E-02 27800   0.263E-01    0.318E+00
DAV:  12    -0.288026670086E+03    0.58107E-02   -0.13556E-03 26672   0.132E-01    0.340E+00
DAV:  13    -0.288022146640E+03    0.45234E-02   -0.34107E-03 31624   0.113E-01    0.284E+00
DAV:  14    -0.288025048352E+03   -0.29017E-02   -0.83740E-03 31576   0.348E-01    0.223E+00
DAV:  15    -0.288028468645E+03   -0.34203E-02   -0.10892E-02 30568   0.319E-01    0.250E+00
DAV:  16    -0.288025744094E+03    0.27246E-02   -0.41143E-03 33232   0.200E-01    0.226E+00
DAV:  17    -0.288021504590E+03    0.42395E-02   -0.26633E-02 35072   0.267E-01    0.971E-01
DAV:  18    -0.288025564093E+03   -0.40595E-02   -0.75890E-03 29432   0.184E-01    0.952E-01
DAV:  19    -0.288026184257E+03   -0.62016E-03   -0.47295E-03 32592   0.172E-01    0.621E-01
DAV:  20    -0.288026293961E+03   -0.10970E-03   -0.14418E-03 32824   0.109E-01    0.551E-01
DAV:  21    -0.288026418906E+03   -0.12495E-03   -0.26789E-04 29032   0.485E-02    0.532E-01
DAV:  22    -0.288026526935E+03   -0.10803E-03   -0.83497E-04 31368   0.792E-02    0.507E-01
DAV:  23    -0.288026439393E+03    0.87542E-04   -0.78091E-04 30568   0.653E-02    0.385E-01
DAV:  24    -0.288026431408E+03    0.79846E-05   -0.16763E-03 31528   0.706E-02    0.194E-01
DAV:  25    -0.288026547715E+03   -0.11631E-03   -0.88394E-05 23560   0.344E-02    0.205E-01
DAV:  26    -0.288026543936E+03    0.37792E-05   -0.17580E-05 17232   0.150E-02
  33 F= -.28802654E+03 E0= -.28801359E+03  d E =-.745430E+00  mag=    10.0000
       N       E                     dE             d eps       ncg     rms          rms(c)
DAV:   1    -0.288078708341E+03   -0.52161E-01   -0.65833E-01 25056   0.242E+00    0.781E-01
DAV:   2    -0.288098138705E+03   -0.19430E-01   -0.19249E-01 31608   0.766E-01    0.395E+00
DAV:   3    -0.288073918989E+03    0.24220E-01   -0.17116E-01 33368   0.688E-01    0.896E-01
DAV:   4    -0.288083703208E+03   -0.97842E-02   -0.28895E-02 31400   0.311E-01    0.157E+00
DAV:   5    -0.288079476345E+03    0.42269E-02   -0.17832E-02 32560   0.233E-01    0.374E-01
DAV:   6    -0.288080903105E+03   -0.14268E-02   -0.56533E-03 32608   0.125E-01    0.640E-01
DAV:   7    -0.288080452573E+03    0.45053E-03   -0.45629E-03 33560   0.108E-01    0.270E-01
DAV:   8    -0.288080686198E+03   -0.23362E-03   -0.50003E-04 26792   0.587E-02    0.189E-01
DAV:   9    -0.288080686663E+03   -0.46497E-06   -0.49065E-04 26264   0.389E-02    0.115E-01
DAV:  10    -0.288080733160E+03   -0.46498E-04   -0.37865E-04 24496   0.343E-02    0.119E-01
DAV:  11    -0.288080756369E+03   -0.23209E-04   -0.17960E-04 21624   0.272E-02    0.116E-01
DAV:  12    -0.288080756750E+03   -0.38029E-06   -0.91574E-05 21872   0.242E-02
  34 F= -.28808076E+03 E0= -.28806759E+03  d E =-.542128E-01  mag=    10.0000
       N       E                     dE             d eps       ncg     rms          rms(c)
DAV:   1    -0.288083753145E+03   -0.29968E-02   -0.16225E+01 25080   0.128E+01    0.354E+00
DAV:   2    -0.288254555786E+03   -0.17080E+00   -0.18606E+00 29664   0.312E+00    0.817E+00
DAV:   3    -0.288158177732E+03    0.96378E-01   -0.14014E+00 33856   0.218E+00    0.539E+00
DAV:   4    -0.288183053944E+03   -0.24876E-01   -0.56407E-01 33192   0.131E+00    0.677E+00
DAV:   5    -0.288126351819E+03    0.56702E-01   -0.22931E-01 32904   0.894E-01    0.263E+00
DAV:   6    -0.288133640367E+03   -0.72885E-02   -0.46032E-02 29328   0.437E-01    0.323E+00
DAV:   7    -0.288138117979E+03   -0.44776E-02   -0.34875E-03 26912   0.176E-01    0.326E+00
DAV:   8    -0.288142917030E+03   -0.47991E-02   -0.80288E-02 32728   0.496E-01    0.378E+00
DAV:   9    -0.288133297225E+03    0.96198E-02   -0.31248E-01 34752   0.720E-01    0.196E+00
DAV:  10    -0.288138553521E+03   -0.52563E-02   -0.78599E-02 30840   0.549E-01    0.152E+00
DAV:  11    -0.288136989073E+03    0.15644E-02   -0.19502E-02 31408   0.249E-01    0.642E-01
DAV:  12    -0.288138426958E+03   -0.14379E-02   -0.31340E-03 31976   0.141E-01    0.691E-01
DAV:  13    -0.288138158215E+03    0.26874E-03   -0.14374E-03 32712   0.970E-02    0.589E-01
DAV:  14    -0.288137781537E+03    0.37668E-03   -0.20299E-03 32304   0.971E-02    0.298E-01
DAV:  15    -0.288138150082E+03   -0.36855E-03   -0.25775E-03 31496   0.801E-02    0.287E-01
DAV:  16    -0.288138456354E+03   -0.30627E-03   -0.14073E-03 29336   0.599E-02    0.383E-01
DAV:  17    -0.288138432737E+03    0.23618E-04   -0.22951E-04 26320   0.453E-02    0.350E-01
DAV:  18    -0.288138421607E+03    0.11130E-04   -0.10840E-04 22128   0.274E-02    0.303E-01
DAV:  19    -0.288138403434E+03    0.18173E-04   -0.23567E-05 18624   0.169E-02    0.279E-01
DAV:  20    -0.288138440976E+03   -0.37541E-04   -0.52269E-04 30928   0.722E-02    0.175E-01
DAV:  21    -0.288138466877E+03   -0.25901E-04   -0.30916E-04 30448   0.557E-02    0.117E-01
DAV:  22    -0.288138500450E+03   -0.33573E-04   -0.19217E-04 21016   0.297E-02    0.957E-02
DAV:  23    -0.288138505180E+03   -0.47301E-05   -0.25037E-05 17240   0.179E-02
  35 F= -.28813851E+03 E0= -.28812390E+03  d E =-.577484E-01  mag=    10.0000
       N       E                     dE             d eps       ncg     rms          rms(c)
DAV:   1    -0.288147957891E+03   -0.94574E-02   -0.28403E+00 26192   0.528E+00    0.138E+00
DAV:   2    -0.288180557772E+03   -0.32600E-01   -0.32352E-01 29824   0.128E+00    0.464E+00
DAV:   3    -0.288155702006E+03    0.24856E-01   -0.36990E-01 33200   0.870E-01    0.252E+00
DAV:   4    -0.288168564411E+03   -0.12862E-01   -0.15054E-01 32264   0.557E-01    0.349E+00
DAV:   5    -0.288154167172E+03    0.14397E-01   -0.14150E-01 32576   0.499E-01    0.165E+00
DAV:   6    -0.288157535363E+03   -0.33682E-02   -0.10755E-02 29864   0.221E-01    0.130E+00
DAV:   7    -0.288157505196E+03    0.30166E-04   -0.34241E-04 27392   0.745E-02    0.127E+00
DAV:   8    -0.288156878307E+03    0.62689E-03   -0.12276E-03 30064   0.794E-02    0.113E+00
DAV:   9    -0.288155768244E+03    0.11101E-02   -0.65875E-03 31560   0.164E-01    0.628E-01
DAV:  10    -0.288157263787E+03   -0.14955E-02   -0.98113E-03 31928   0.154E-01    0.756E-01
DAV:  11    -0.288157494715E+03   -0.23093E-03   -0.15419E-03 28680   0.113E-01    0.693E-01
DAV:  12    -0.288157313201E+03    0.18151E-03   -0.36842E-03 31992   0.121E-01    0.425E-01
DAV:  13    -0.288157524529E+03   -0.21133E-03   -0.11705E-03 31136   0.822E-02    0.260E-01
DAV:  14    -0.288157596735E+03   -0.72206E-04   -0.17966E-04 26248   0.376E-02    0.201E-01
DAV:  15    -0.288157588965E+03    0.77704E-05   -0.13630E-04 24544   0.348E-02    0.187E-01
DAV:  16    -0.288157622377E+03   -0.33412E-04   -0.41066E-04 26400   0.382E-02    0.213E-01
DAV:  17    -0.288157616425E+03    0.59513E-05   -0.16390E-04 24496   0.406E-02    0.112E-01
DAV:  18    -0.288157628780E+03   -0.12355E-04   -0.25486E-04 27864   0.383E-02    0.867E-02
DAV:  19    -0.288157639716E+03   -0.10936E-04   -0.52211E-05 18672   0.200E-02    0.106E-01
DAV:  20    -0.288157633078E+03    0.66381E-05   -0.65246E-05 16616   0.173E-02
  36 F= -.28815763E+03 E0= -.28814364E+03  d E =-.191279E-01  mag=    10.0000
       N       E                     dE             d eps       ncg     rms          rms(c)
DAV:   1    -0.288158443046E+03   -0.80333E-03   -0.20687E-01 25352   0.161E+00    0.361E-01
DAV:   2    -0.288161425438E+03   -0.29824E-02   -0.29520E-02 29360   0.378E-01    0.147E+00
DAV:   3    -0.288158539782E+03    0.28857E-02   -0.27476E-02 33184   0.267E-01    0.577E-01
DAV:   4    -0.288160158419E+03   -0.16186E-02   -0.97382E-03 31792   0.155E-01    0.908E-01
DAV:   5    -0.288158936043E+03    0.12224E-02   -0.57206E-03 32400   0.126E-01    0.281E-01
DAV:   6    -0.288159257072E+03   -0.32103E-03   -0.16728E-04 25048   0.372E-02    0.271E-01
DAV:   7    -0.288159200574E+03    0.56498E-04   -0.24076E-04 21912   0.298E-02    0.270E-01
DAV:   8    -0.288159198351E+03    0.22233E-05   -0.59945E-04 31600   0.538E-02    0.403E-01
DAV:   9    -0.288159201182E+03   -0.28314E-05   -0.32694E-05 20696   0.196E-02
  37 F= -.28815920E+03 E0= -.28814497E+03  d E =-.156810E-02  mag=    10.0000
       N       E                     dE             d eps       ncg     rms          rms(c)
DAV:   1    -0.288158676721E+03    0.52163E-03   -0.72738E-02 25344   0.120E+00    0.455E-01
DAV:   2    -0.288181991838E+03   -0.23315E-01   -0.20074E-01 33128   0.572E-01    0.545E+00
DAV:   3    -0.288145557180E+03    0.36435E-01   -0.18237E-01 31064   0.539E-01    0.106E+00
DAV:   4    -0.288157719065E+03   -0.12162E-01   -0.67547E-03 26536   0.209E-01    0.492E-01
DAV:   5    -0.288158981946E+03   -0.12629E-02   -0.82391E-04 27240   0.866E-02    0.550E-01
DAV:   6    -0.288159028845E+03   -0.46899E-04   -0.10806E-04 23064   0.314E-02    0.518E-01
DAV:   7    -0.288159014244E+03    0.14601E-04   -0.27152E-04 26144   0.428E-02    0.598E-01
DAV:   8    -0.288158796250E+03    0.21799E-03   -0.18014E-03 29512   0.118E-01    0.343E-01
DAV:   9    -0.288159156292E+03   -0.36004E-03   -0.18812E-03 31480   0.981E-02    0.462E-01
DAV:  10    -0.288159045804E+03    0.11049E-03   -0.32176E-04 26984   0.539E-02    0.381E-01
DAV:  11    -0.288159027958E+03    0.17846E-04   -0.65839E-04 30800   0.617E-02    0.174E-01
DAV:  12    -0.288159133114E+03   -0.10516E-03   -0.40050E-04 28152   0.480E-02    0.905E-02
DAV:  13    -0.288159171718E+03   -0.38604E-04   -0.17231E-04 20176   0.280E-02    0.105E-01
DAV:  14    -0.288159171403E+03    0.31511E-06   -0.11832E-04 20032   0.269E-02    0.955E-02
DAV:  15    -0.288159173186E+03   -0.17833E-05   -0.10475E-05 14080   0.115E-02
  38 F= -.28815917E+03 E0= -.28814501E+03  d E =0.279961E-04  mag=    10.0000
       N       E                     dE             d eps       ncg     rms          rms(c)
DAV:   1    -0.288158680868E+03    0.49054E-03   -0.65057E-02 25344   0.115E+00    0.195E-01
DAV:   2    -0.288160584092E+03   -0.19032E-02   -0.19050E-02 31288   0.287E-01    0.115E+00
DAV:   3    -0.288158434866E+03    0.21492E-02   -0.10521E-02 32648   0.179E-01    0.209E-01
DAV:   4    -0.288159089310E+03   -0.65444E-03   -0.27731E-04 25064   0.463E-02    0.209E-01
DAV:   5    -0.288159108979E+03   -0.19669E-04   -0.28025E-05 19928   0.173E-02    0.228E-01
DAV:   6    -0.288159096847E+03    0.12133E-04   -0.64405E-06 14352   0.913E-03    0.233E-01
DAV:   7    -0.288159102583E+03   -0.57356E-05   -0.11907E-04 16040   0.146E-02    0.254E-01
DAV:   8    -0.288159035713E+03    0.66870E-04   -0.37773E-04 28304   0.444E-02    0.140E-01
DAV:   9    -0.288159070025E+03   -0.34312E-04   -0.36908E-04 24392   0.310E-02    0.935E-02
DAV:  10    -0.288159097579E+03   -0.27553E-04   -0.87320E-05 20616   0.244E-02    0.103E-01
DAV:  11    -0.288159093225E+03    0.43540E-05   -0.80123E-05 16760   0.187E-02
  39 F= -.28815909E+03 E0= -.28814502E+03  d E =0.799618E-04  mag=    10.0000
       N       E                     dE             d eps       ncg     rms          rms(c)
DAV:   1    -0.288146021587E+03    0.13076E-01   -0.15572E+00 25344   0.554E+00    0.547E-01
DAV:   2    -0.288165409770E+03   -0.19388E-01   -0.20050E-01 29760   0.115E+00    0.299E+00
DAV:   3    -0.288151425988E+03    0.13984E-01   -0.85186E-02 33256   0.505E-01    0.837E-01
DAV:   4    -0.288156306448E+03   -0.48805E-02   -0.26102E-02 33808   0.240E-01    0.109E+00
DAV:   5    -0.288155273963E+03    0.10325E-02   -0.97073E-03 32656   0.189E-01    0.473E-01
DAV:   6    -0.288155502323E+03   -0.22836E-03   -0.40176E-03 33112   0.101E-01    0.325E-01
DAV:   7    -0.288155447532E+03    0.54791E-04   -0.14197E-03 32032   0.819E-02    0.115E-01
DAV:   8    -0.288155509134E+03   -0.61601E-04   -0.24457E-04 29928   0.402E-02    0.135E-01
DAV:   9    -0.288155514873E+03   -0.57395E-05   -0.13666E-04 19824   0.231E-02    0.118E-01
DAV:  10    -0.288155511840E+03    0.30330E-05   -0.61844E-05 17864   0.184E-02
  40 F= -.28815551E+03 E0= -.28814160E+03  d E =0.358138E-02  mag=    10.0000
       N       E                     dE             d eps       ncg     rms          rms(c)
DAV:   1    -0.288136578067E+03    0.18937E-01   -0.21860E+00 25344   0.615E+00    0.507E-01
DAV:   2    -0.288149033061E+03   -0.12455E-01   -0.13849E-01 25224   0.114E+00    0.112E+00
DAV:   3    -0.288148056897E+03    0.97616E-03   -0.27595E-02 36352   0.302E-01    0.801E-01
DAV:   4    -0.288149732835E+03   -0.16759E-02   -0.24694E-02 34264   0.233E-01    0.143E+00
DAV:   5    -0.288146889910E+03    0.28429E-02   -0.12998E-02 33232   0.181E-01    0.241E-01
DAV:   6    -0.288148228935E+03   -0.13390E-02   -0.42637E-03 33520   0.107E-01    0.677E-01
DAV:   7    -0.288147583733E+03    0.64520E-03   -0.32958E-03 33904   0.918E-02    0.199E-01
DAV:   8    -0.288147735910E+03   -0.15218E-03   -0.26717E-04 27744   0.487E-02    0.156E-01
DAV:   9    -0.288147766287E+03   -0.30377E-04   -0.80571E-04 26600   0.407E-02    0.129E-01
DAV:  10    -0.288147853327E+03   -0.87040E-04   -0.53568E-04 25944   0.439E-02    0.139E-01
DAV:  11    -0.288147870661E+03   -0.17334E-04   -0.14886E-04 21200   0.279E-02    0.132E-01
DAV:  12    -0.288147873149E+03   -0.24880E-05   -0.32849E-05 16432   0.144E-02
  41 F= -.28814787E+03 E0= -.28813381E+03  d E =0.763869E-02  mag=    10.0000
       N       E                     dE             d eps       ncg     rms          rms(c)
DAV:   1    -0.288142686054E+03    0.51846E-02   -0.36221E-01 25344   0.236E+00    0.283E-01
DAV:   2    -0.288147446646E+03   -0.47606E-02   -0.48291E-02 30656   0.508E-01    0.181E+00
DAV:   3    -0.288142717764E+03    0.47289E-02   -0.28793E-02 32976   0.260E-01    0.264E-01
DAV:   4    -0.288144618013E+03   -0.19002E-02   -0.27151E-03 29800   0.110E-01    0.543E-01
DAV:   5    -0.288144288727E+03    0.32929E-03   -0.93974E-04 30376   0.661E-02    0.397E-01
DAV:   6    -0.288144284323E+03    0.44040E-05   -0.10363E-04 21944   0.285E-02    0.446E-01
DAV:   7    -0.288144275567E+03    0.87554E-05   -0.12089E-05 15960   0.122E-02
  42 F= -.28814428E+03 E0= -.28813049E+03  d E =0.359758E-02  mag=    10.0000
       N       E                     dE             d eps       ncg     rms          rms(c)
DAV:   1    -0.288139387581E+03    0.48967E-02   -0.34100E-01 25344   0.231E+00    0.326E-01
DAV:   2    -0.288150834914E+03   -0.11447E-01   -0.11073E-01 31288   0.589E-01    0.315E+00
DAV:   3    -0.288135930941E+03    0.14904E-01   -0.55282E-02 31496   0.388E-01    0.580E-01
DAV:   4    -0.288140516298E+03   -0.45854E-02   -0.49109E-03 29376   0.131E-01    0.492E-01
DAV:   5    -0.288140916750E+03   -0.40045E-03   -0.17638E-03 31504   0.887E-02    0.269E-01
DAV:   6    -0.288140995854E+03   -0.79105E-04   -0.11023E-04 21704   0.278E-02    0.272E-01
DAV:   7    -0.288140962621E+03    0.33233E-04   -0.49701E-05 18352   0.157E-02    0.265E-01
DAV:   8    -0.288140944158E+03    0.18463E-04   -0.13298E-04 19816   0.252E-02    0.314E-01
DAV:   9    -0.288140956005E+03   -0.11847E-04   -0.86991E-06 15512   0.120E-02    0.315E-01
DAV:  10    -0.288140921515E+03    0.34490E-04   -0.35078E-04 28728   0.509E-02    0.243E-01
DAV:  11    -0.288140908913E+03    0.12602E-04   -0.90692E-04 32064   0.783E-02    0.239E-01
DAV:  12    -0.288140932005E+03   -0.23092E-04   -0.43254E-04 28192   0.510E-02    0.153E-01
DAV:  13    -0.288140944200E+03   -0.12195E-04   -0.85282E-05 25680   0.320E-02    0.101E-01
DAV:  14    -0.288140943644E+03    0.55681E-06   -0.84483E-05 20056   0.230E-02
  43 F= -.28814094E+03 E0= -.28812705E+03  d E =0.333192E-02  mag=    10.0000
       N       E                     dE             d eps       ncg     rms          rms(c)
DAV:   1    -0.288128987004E+03    0.11957E-01   -0.12023E+00 25344   0.413E+00    0.328E-01
DAV:   2    -0.288134391028E+03   -0.54040E-02   -0.60418E-02 25344   0.743E-01    0.701E-01
DAV:   3    -0.288134171674E+03    0.21935E-03   -0.15044E-02 36048   0.215E-01    0.627E-01
DAV:   4    -0.288134381247E+03   -0.20957E-03   -0.89615E-03 34072   0.149E-01    0.809E-01
DAV:   5    -0.288133536136E+03    0.84511E-03   -0.46287E-03 33504   0.109E-01    0.122E-01
DAV:   6    -0.288134106608E+03   -0.57047E-03   -0.25276E-03 33584   0.799E-02    0.521E-01
DAV:   7    -0.288133680429E+03    0.42618E-03   -0.22482E-03 34120   0.779E-02    0.918E-02
DAV:   8    -0.288133832053E+03   -0.15162E-03   -0.15645E-04 23320   0.325E-02    0.744E-02
DAV:   9    -0.288133841678E+03   -0.96260E-05   -0.50598E-05 17976   0.156E-02
  44 F= -.28813384E+03 E0= -.28812002E+03  d E =0.710197E-02  mag=    10.0000
       N       E                     dE             d eps       ncg     rms          rms(c)
DAV:   1    -0.287818424296E+03    0.31541E+00   -0.59550E+01 24768   0.283E+01    0.210E+00
DAV:   2    -0.288115360650E+03   -0.29694E+00   -0.31814E+00 26104   0.519E+00    0.673E+00
DAV:   3    -0.288074902680E+03    0.40458E-01   -0.10133E+00 34696   0.150E+00    0.372E+00
DAV:   4    -0.288128251367E+03   -0.53349E-01   -0.65136E-01 35296   0.106E+00    0.848E+00
DAV:   5    -0.288040292935E+03    0.87958E-01   -0.54860E-01 32776   0.959E-01    0.149E+00
DAV:   6    -0.288077192415E+03   -0.36899E-01   -0.11488E-01 33496   0.613E-01    0.297E+00
DAV:   7    -0.288068229493E+03    0.89629E-02   -0.73696E-02 33968   0.462E-01    0.153E+00
DAV:   8    -0.288070828813E+03   -0.25993E-02   -0.14902E-02 32208   0.247E-01    0.900E-01
DAV:   9    -0.288071548410E+03   -0.71960E-03   -0.17091E-03 30336   0.101E-01    0.815E-01
DAV:  10    -0.288071621021E+03   -0.72611E-04   -0.42355E-03 33424   0.123E-01    0.829E-01
DAV:  11    -0.288071157480E+03    0.46354E-03   -0.13305E-03 32912   0.102E-01    0.721E-01
DAV:  12    -0.288070922879E+03    0.23460E-03   -0.51929E-03 35256   0.123E-01    0.309E-01
DAV:  13    -0.288071623757E+03   -0.70088E-03   -0.14625E-03 31008   0.873E-02    0.311E-01
DAV:  14    -0.288071683658E+03   -0.59901E-04   -0.37908E-04 29792   0.503E-02    0.326E-01
DAV:  15    -0.288071661382E+03    0.22275E-04   -0.41414E-05 18472   0.189E-02    0.347E-01
DAV:  16    -0.288071506751E+03    0.15463E-03   -0.27033E-04 29216   0.414E-02    0.272E-01
DAV:  17    -0.288071500178E+03    0.65729E-05   -0.10824E-04 22944   0.309E-02    0.261E-01
DAV:  18    -0.288071435233E+03    0.64945E-04   -0.12311E-04 26592   0.387E-02    0.309E-01
DAV:  19    -0.288071468901E+03   -0.33668E-04   -0.21706E-05 17584   0.141E-02    0.310E-01
DAV:  20    -0.288071480645E+03   -0.11744E-04   -0.77440E-06 13680   0.891E-03    0.301E-01
DAV:  21    -0.288071491330E+03   -0.10685E-04   -0.37514E-06 13600   0.605E-03    0.300E-01
DAV:  22    -0.288071511128E+03   -0.19798E-04   -0.23755E-06 13480   0.702E-03    0.295E-01
DAV:  23    -0.288071607271E+03   -0.96143E-04   -0.16330E-04 26520   0.450E-02    0.221E-01
DAV:  24    -0.288071628143E+03   -0.20872E-04   -0.30752E-04 30288   0.514E-02    0.132E-01
DAV:  25    -0.288071651977E+03   -0.23834E-04   -0.99284E-05 26920   0.350E-02    0.761E-02
[...]
DAV:  10    -0.288113833279E+03   -0.52032E-03   -0.55511E-03 31792   0.967E-02    0.266E-01
DAV:  11    -0.288114201323E+03   -0.36804E-03   -0.13951E-03 30672   0.771E-02    0.323E-01
DAV:  12    -0.288114223384E+03   -0.22061E-04   -0.38307E-04 28232   0.477E-02    0.293E-01
DAV:  13    -0.288114211255E+03    0.12130E-04   -0.65433E-05 21216   0.237E-02    0.280E-01
DAV:  14    -0.288114165002E+03    0.46253E-04   -0.53089E-04 31192   0.706E-02    0.121E-01
DAV:  15    -0.288114224799E+03   -0.59797E-04   -0.45026E-04 31784   0.578E-02    0.217E-01
DAV:  16    -0.288114234548E+03   -0.97484E-05   -0.69447E-05 20568   0.246E-02
  70 F= -.28811423E+03 E0= -.28810062E+03  d E =-.153237E-01  mag=    10.0000
       N       E                     dE             d eps       ncg     rms          rms(c)
DAV:   1    -0.288109102500E+03    0.51223E-02   -0.40498E+00 25344   0.649E+00    0.790E-01
DAV:   2    -0.288128032140E+03   -0.18930E-01   -0.19825E-01 28192   0.120E+00    0.271E+00
DAV:   3    -0.288117983662E+03    0.10048E-01   -0.10576E-01 33632   0.533E-01    0.896E-01
DAV:   4    -0.288124088733E+03   -0.61051E-02   -0.39339E-02 33496   0.315E-01    0.198E+00
DAV:   5    -0.288118367071E+03    0.57217E-02   -0.28999E-02 33624   0.256E-01    0.539E-01
DAV:   6    -0.288120060882E+03   -0.16938E-02   -0.61103E-04 27264   0.798E-02    0.562E-01
DAV:   7    -0.288120106416E+03   -0.45534E-04   -0.26608E-03 31624   0.797E-02    0.732E-01
DAV:   8    -0.288119905151E+03    0.20126E-03   -0.35594E-03 33136   0.923E-02    0.713E-01
DAV:   9    -0.288119421176E+03    0.48398E-03   -0.94789E-04 28688   0.644E-02    0.582E-01
DAV:  10    -0.288119520684E+03   -0.99508E-04   -0.10629E-03 31936   0.774E-02    0.832E-01
DAV:  11    -0.288119572629E+03   -0.51945E-04   -0.37552E-03 32640   0.132E-01    0.143E+00
DAV:  12    -0.288119223057E+03    0.34957E-03   -0.19252E-03 30304   0.137E-01    0.111E+00
DAV:  13    -0.288118856351E+03    0.36671E-03   -0.96169E-03 33760   0.225E-01    0.203E-01
DAV:  14    -0.288119783334E+03   -0.92698E-03   -0.17384E-03 28080   0.109E-01    0.316E-01
DAV:  15    -0.288119938983E+03   -0.15565E-03   -0.69832E-04 31328   0.756E-02    0.246E-01
DAV:  16    -0.288119937653E+03    0.13298E-05   -0.82952E-04 31728   0.615E-02    0.231E-01
DAV:  17    -0.288119982812E+03   -0.45158E-04   -0.26377E-04 25256   0.408E-02    0.349E-01
DAV:  18    -0.288119929624E+03    0.53188E-04   -0.14038E-04 24656   0.329E-02    0.378E-01
DAV:  19    -0.288119885998E+03    0.43626E-04   -0.31165E-05 17896   0.172E-02    0.365E-01
DAV:  20    -0.288119856411E+03    0.29587E-04   -0.37393E-05 13888   0.124E-02    0.320E-01
DAV:  21    -0.288119869518E+03   -0.13106E-04   -0.25618E-05 15408   0.115E-02    0.274E-01
DAV:  22    -0.288119876508E+03   -0.69908E-05   -0.54422E-05 17304   0.141E-02
  71 F= -.28811988E+03 E0= -.28810627E+03  d E =-.564196E-02  mag=    10.0000
       N       E                     dE             d eps       ncg     rms          rms(c)
DAV:   1    -0.288115501058E+03    0.43685E-02   -0.97246E-01 25344   0.321E+00    0.422E-01
DAV:   2    -0.288121982470E+03   -0.64814E-02   -0.63398E-02 29376   0.619E-01    0.198E+00
DAV:   3    -0.288116400333E+03    0.55821E-02   -0.42745E-02 33184   0.307E-01    0.304E-01
DAV:   4    -0.288118665563E+03   -0.22652E-02   -0.49526E-03 31600   0.151E-01    0.704E-01
DAV:   5    -0.288117964180E+03    0.70138E-03   -0.40496E-03 33512   0.106E-01    0.213E-01
DAV:   6    -0.288118286739E+03   -0.32256E-03   -0.20993E-03 32208   0.788E-02    0.457E-01
DAV:   7    -0.288117985043E+03    0.30170E-03   -0.11846E-03 32424   0.594E-02    0.117E-01
DAV:   8    -0.288118085482E+03   -0.10044E-03   -0.26973E-04 24856   0.353E-02    0.994E-02
DAV:   9    -0.288118121738E+03   -0.36256E-04   -0.22217E-04 21272   0.291E-02    0.787E-02
DAV:  10    -0.288118142162E+03   -0.20425E-04   -0.16960E-04 20464   0.249E-02    0.894E-02
DAV:  11    -0.288118149845E+03   -0.76827E-05   -0.64935E-05 17184   0.168E-02
  72 F= -.28811815E+03 E0= -.28810457E+03  d E =0.172666E-02  mag=    10.0000
       N       E                     dE             d eps       ncg     rms          rms(c)
DAV:   1    -0.288117101840E+03    0.10403E-02   -0.33338E-01 25056   0.177E+00    0.282E-01
DAV:   2    -0.288120953648E+03   -0.38518E-02   -0.37380E-02 32040   0.388E-01    0.185E+00
DAV:   3    -0.288116037792E+03    0.49159E-02   -0.28956E-02 32280   0.264E-01    0.178E-01
DAV:   4    -0.288118163225E+03   -0.21254E-02   -0.28451E-03 29632   0.114E-01    0.528E-01
DAV:   5    -0.288117785828E+03    0.37740E-03   -0.21585E-03 32848   0.796E-02    0.173E-01
DAV:   6    -0.288117897813E+03   -0.11199E-03   -0.41039E-04 27168   0.447E-02    0.177E-01
DAV:   7    -0.288117874106E+03    0.23707E-04   -0.45428E-04 21560   0.337E-02    0.116E-01
DAV:   8    -0.288117881310E+03   -0.72035E-05   -0.91366E-05 20592   0.270E-02
  73 F= -.28811788E+03 E0= -.28810426E+03  d E =0.268535E-03  mag=    10.0000
       N       E                     dE             d eps       ncg     rms          rms(c)
DAV:   1    -0.288118153527E+03   -0.27942E-03   -0.32877E-02 25344   0.631E-01    0.117E-01
DAV:   2    -0.288118621336E+03   -0.46781E-03   -0.45974E-03 31656   0.147E-01    0.596E-01
DAV:   3    -0.288118087958E+03    0.53338E-03   -0.31554E-03 32720   0.954E-02    0.824E-02
DAV:   4    -0.288118277876E+03   -0.18992E-03   -0.14646E-04 23680   0.331E-02    0.103E-01
DAV:   5    -0.288118276493E+03    0.13836E-05   -0.12012E-05 16608   0.125E-02
  74 F= -.28811828E+03 E0= -.28810468E+03  d E =-.395183E-03  mag=    10.0000
       N       E                     dE             d eps       ncg     rms          rms(c)
DAV:   1    -0.288118371189E+03   -0.93312E-04   -0.64272E-03 25792   0.276E-01    0.244E-01
DAV:   2    -0.288126167196E+03   -0.77960E-02   -0.72908E-02 33920   0.318E-01    0.297E+00
DAV:   3    -0.288113694268E+03    0.12473E-01   -0.55162E-02 31376   0.334E-01    0.422E-01
DAV:   4    -0.288117843723E+03   -0.41495E-02   -0.20566E-03 25928   0.993E-02    0.958E-02
DAV:   5    -0.288118341526E+03   -0.49780E-03   -0.25908E-04 25112   0.524E-02    0.140E-01
DAV:   6    -0.288118329131E+03    0.12395E-04   -0.22824E-04 21024   0.259E-02    0.851E-02
DAV:   7    -0.288118332467E+03   -0.33356E-05   -0.97510E-05 19288   0.224E-02
  75 F= -.28811833E+03 E0= -.28810475E+03  d E =-.559738E-04  mag=    10.0000
       N       E                     dE             d eps       ncg     rms          rms(c)
DAV:   1    -0.288117618346E+03    0.71078E-03   -0.11152E-01 25344   0.107E+00    0.999E-02
DAV:   2    -0.288117966847E+03   -0.34850E-03   -0.36746E-03 27816   0.182E-01    0.238E-01
DAV:   3    -0.288117917763E+03    0.49084E-04   -0.99109E-04 33368   0.588E-02    0.151E-01
DAV:   4    -0.288117927664E+03   -0.99004E-05   -0.23762E-04 21472   0.305E-02    0.142E-01
DAV:   5    -0.288117919078E+03    0.85853E-05   -0.14814E-05 15928   0.129E-02
  76 F= -.28811792E+03 E0= -.28810432E+03  d E =0.413388E-03  mag=    10.0000
       N       E                     dE             d eps       ncg     rms          rms(c)
DAV:   1    -0.288113120444E+03    0.48072E-02   -0.14984E+00 25344   0.381E+00    0.313E-01
DAV:   2    -0.288121030474E+03   -0.79100E-02   -0.80869E-02 28904   0.695E-01    0.213E+00
DAV:   3    -0.288114192306E+03    0.68382E-02   -0.34214E-02 32544   0.329E-01    0.180E-01
DAV:   4    -0.288116762327E+03   -0.25700E-02   -0.34448E-03 30656   0.129E-01    0.546E-01
DAV:   5    -0.288116412464E+03    0.34986E-03   -0.22565E-03 33672   0.890E-02    0.155E-01
DAV:   6    -0.288116522165E+03   -0.10970E-03   -0.71357E-04 29120   0.617E-02    0.156E-01
DAV:   7    -0.288116533391E+03   -0.11226E-04   -0.51745E-04 27952   0.380E-02    0.156E-01
DAV:   8    -0.288116521826E+03    0.11565E-04   -0.13743E-04 19800   0.250E-02    0.112E-01
DAV:   9    -0.288116518316E+03    0.35099E-05   -0.73630E-06 14536   0.946E-03
  77 F= -.28811652E+03 E0= -.28810304E+03  d E =0.140076E-02  mag=    10.0000
       N       E                     dE             d eps       ncg     rms          rms(c)
DAV:   1    -0.288086712074E+03    0.29810E-01   -0.97933E+00 25344   0.103E+01    0.989E-01
DAV:   2    -0.288119594866E+03   -0.32883E-01   -0.35181E-01 27048   0.179E+00    0.237E+00
DAV:   3    -0.288114894018E+03    0.47008E-02   -0.12989E-01 34528   0.601E-01    0.173E+00
DAV:   4    -0.288116451835E+03   -0.15578E-02   -0.50499E-02 33600   0.398E-01    0.204E+00
DAV:   5    -0.288111103920E+03    0.53479E-02   -0.32320E-02 34008   0.301E-01    0.711E-01
DAV:   6    -0.288112900798E+03   -0.17969E-02   -0.15533E-03 29136   0.108E-01    0.755E-01
DAV:   7    -0.288112651734E+03    0.24906E-03   -0.71718E-04 29352   0.543E-02    0.727E-01
DAV:   8    -0.288112350119E+03    0.30162E-03   -0.47205E-04 30136   0.614E-02    0.661E-01
DAV:   9    -0.288111226446E+03    0.11237E-02   -0.62272E-03 32376   0.208E-01    0.343E-01
DAV:  10    -0.288113077837E+03   -0.18514E-02   -0.95839E-03 29568   0.129E-01    0.887E-01
DAV:  11    -0.288112451574E+03    0.62626E-03   -0.17316E-03 30904   0.119E-01    0.587E-01
DAV:  12    -0.288112658062E+03   -0.20649E-03   -0.43837E-03 33200   0.158E-01    0.410E-01
DAV:  13    -0.288112814491E+03   -0.15643E-03   -0.80957E-04 31336   0.952E-02    0.465E-01
DAV:  14    -0.288112723186E+03    0.91305E-04   -0.16666E-04 26360   0.376E-02    0.524E-01
DAV:  15    -0.288112497783E+03    0.22540E-03   -0.62423E-04 29944   0.604E-02    0.280E-01
DAV:  16    -0.288112679707E+03   -0.18192E-03   -0.33472E-04 26464   0.398E-02    0.154E-01
DAV:  17    -0.288112741160E+03   -0.61453E-04   -0.67100E-05 18888   0.239E-02    0.127E-01
DAV:  18    -0.288112767304E+03   -0.26144E-04   -0.34181E-05 16008   0.165E-02    0.162E-01
DAV:  19    -0.288112763469E+03    0.38350E-05   -0.12408E-05 15072   0.113E-02
  78 F= -.28811276E+03 E0= -.28809929E+03  d E =0.375485E-02  mag=    10.0000
       N       E                     dE             d eps       ncg     rms          rms(c)
DAV:   1    -0.288104385616E+03    0.83817E-02   -0.73521E+00 25344   0.843E+00    0.897E-01
DAV:   2    -0.288130736762E+03   -0.26351E-01   -0.27342E-01 28240   0.148E+00    0.259E+00
DAV:   3    -0.288122793536E+03    0.79432E-02   -0.11448E-01 34032   0.573E-01    0.129E+00
DAV:   4    -0.288123742503E+03   -0.94897E-03   -0.17016E-02 31688   0.296E-01    0.905E-01
DAV:   5    -0.288123033378E+03    0.70912E-03   -0.74477E-03 33760   0.141E-01    0.655E-01
DAV:   6    -0.288123147685E+03   -0.11431E-03   -0.53174E-04 28344   0.613E-02    0.722E-01
DAV:   7    -0.288122870177E+03    0.27751E-03   -0.49805E-05 21824   0.244E-02    0.730E-01
DAV:   8    -0.288123372444E+03   -0.50227E-03   -0.64195E-03 31520   0.104E-01    0.114E+00
DAV:   9    -0.288120862056E+03    0.25104E-02   -0.11948E-02 33200   0.182E-01    0.761E-01
DAV:  10    -0.288122356659E+03   -0.14946E-02   -0.13404E-02 33248   0.197E-01    0.175E+00
DAV:  11    -0.288122112791E+03    0.24387E-03   -0.46917E-03 31976   0.146E-01    0.233E+00
DAV:  12    -0.288120669640E+03    0.14432E-02   -0.28855E-03 29696   0.191E-01    0.201E+00
DAV:  13    -0.288119816652E+03    0.85299E-03   -0.68156E-03 33096   0.232E-01    0.121E+00
DAV:  14    -0.288121102803E+03   -0.12862E-02   -0.46644E-03 32768   0.136E-01    0.548E-01
DAV:  15    -0.288122379804E+03   -0.12770E-02   -0.92532E-04 30600   0.953E-02    0.251E-01
DAV:  16    -0.288122701326E+03   -0.32152E-03   -0.57755E-04 31056   0.788E-02    0.103E-01
DAV:  17    -0.288122766493E+03   -0.65167E-04   -0.26883E-04 28096   0.465E-02    0.117E-01
DAV:  18    -0.288122793735E+03   -0.27242E-04   -0.71171E-05 19424   0.236E-02    0.877E-02
DAV:  19    -0.288122814016E+03   -0.20281E-04   -0.45569E-05 19832   0.247E-02    0.520E-02
DAV:  20    -0.288122817099E+03   -0.30828E-05   -0.47444E-05 15168   0.144E-02
  79 F= -.28812282E+03 E0= -.28810933E+03  d E =-.100536E-01  mag=    10.0000
       N       E                     dE             d eps       ncg     rms          rms(c)
DAV:   1    -0.288054728252E+03    0.68086E-01   -0.20742E+01 25344   0.143E+01    0.171E+00
DAV:   2    -0.288134576529E+03   -0.79848E-01   -0.84183E-01 28008   0.261E+00    0.533E+00
DAV:   3    -0.288106918637E+03    0.27658E-01   -0.57681E-01 33664   0.108E+00    0.291E+00
DAV:   4    -0.288119621319E+03   -0.12703E-01   -0.16229E-01 33624   0.714E-01    0.366E+00
DAV:   5    -0.288101218011E+03    0.18403E-01   -0.11682E-01 33520   0.530E-01    0.170E+00
DAV:   6    -0.288105466698E+03   -0.42487E-02   -0.28402E-02 33560   0.258E-01    0.144E+00
DAV:   7    -0.288103485112E+03    0.19816E-02   -0.27042E-02 34048   0.303E-01    0.799E-01
DAV:   8    -0.288104651434E+03   -0.11663E-02   -0.12876E-02 31480   0.223E-01    0.451E-01
DAV:   9    -0.288105614332E+03   -0.96290E-03   -0.72470E-03 31800   0.148E-01    0.688E-01
DAV:  10    -0.288105431560E+03    0.18277E-03   -0.37180E-03 32032   0.124E-01    0.488E-01
DAV:  11    -0.288105639211E+03   -0.20765E-03   -0.22291E-03 31840   0.839E-02    0.276E-01
DAV:  12    -0.288105866167E+03   -0.22696E-03   -0.44350E-04 27928   0.503E-02    0.324E-01
DAV:  13    -0.288105871160E+03   -0.49934E-05   -0.46702E-05 20240   0.213E-02
  80 F= -.28810587E+03 E0= -.28809244E+03  d E =0.169459E-01  mag=    10.0000
       N       E                     dE             d eps       ncg     rms          rms(c)
DAV:   1    -0.288094913878E+03    0.10952E-01   -0.11095E+01 25344   0.105E+01    0.140E+00
DAV:   2    -0.288164227422E+03   -0.69314E-01   -0.73538E-01 29080   0.207E+00    0.575E+00
DAV:   3    -0.288111605480E+03    0.52622E-01   -0.33768E-01 33280   0.110E+00    0.159E+00
DAV:   4    -0.288132264596E+03   -0.20659E-01   -0.11084E-01 33200   0.568E-01    0.289E+00
DAV:   5    -0.288119323389E+03    0.12941E-01   -0.65284E-02 34040   0.456E-01    0.700E-01
DAV:   6    -0.288122139743E+03   -0.28164E-02   -0.47085E-03 30536   0.160E-01    0.815E-01
DAV:   7    -0.288121481508E+03    0.65824E-03   -0.60259E-03 33896   0.127E-01    0.708E-01
DAV:   8    -0.288120303663E+03    0.11778E-02   -0.68604E-03 33256   0.204E-01    0.350E-01
DAV:   9    -0.288121637390E+03   -0.13337E-02   -0.87751E-03 31384   0.135E-01    0.374E-01
DAV:  10    -0.288122305708E+03   -0.66832E-03   -0.44313E-03 32032   0.120E-01    0.443E-01
DAV:  11    -0.288122345788E+03   -0.40080E-04   -0.73439E-04 29480   0.645E-02    0.478E-01
DAV:  12    -0.288122238794E+03    0.10699E-03   -0.34090E-04 25648   0.377E-02    0.444E-01
DAV:  13    -0.288122222906E+03    0.15887E-04   -0.41306E-04 30280   0.567E-02    0.355E-01
DAV:  14    -0.288122219125E+03    0.37808E-05   -0.94839E-04 32096   0.120E-01    0.251E-01
DAV:  15    -0.288122276387E+03   -0.57261E-04   -0.65104E-04 32272   0.776E-02    0.285E-01
DAV:  16    -0.288122320964E+03   -0.44577E-04   -0.55118E-04 30480   0.790E-02    0.173E-01
DAV:  17    -0.288122376455E+03   -0.55491E-04   -0.30140E-04 28400   0.459E-02    0.209E-01
DAV:  18    -0.288122342434E+03    0.34021E-04   -0.94475E-05 20232   0.249E-02    0.136E-01
DAV:  19    -0.288122357238E+03   -0.14804E-04   -0.31320E-05 19656   0.238E-02    0.110E-01
DAV:  20    -0.288122352792E+03    0.44458E-05   -0.12153E-04 17160   0.187E-02    0.496E-02
DAV:  21    -0.288122364723E+03   -0.11931E-04   -0.17182E-05 15512   0.142E-02    0.281E-02
DAV:  22    -0.288122366525E+03   -0.18018E-05   -0.72340E-06 13424   0.834E-03
  81 F= -.28812237E+03 E0= -.28810883E+03  d E =-.164954E-01  mag=    10.0000
       N       E                     dE             d eps       ncg     rms          rms(c)
DAV:   1    -0.288112351798E+03    0.10013E-01   -0.29859E+00 25344   0.539E+00    0.723E-01
DAV:   2    -0.288120169623E+03   -0.78178E-02   -0.89809E-02 27952   0.951E-01    0.589E-01
DAV:   3    -0.288125756476E+03   -0.55869E-02   -0.75087E-02 34704   0.409E-01    0.244E+00
DAV:   4    -0.288116460172E+03    0.92963E-02   -0.41885E-02 33760   0.346E-01    0.520E-01
DAV:   5    -0.288119160227E+03   -0.27001E-02   -0.51421E-03 31624   0.129E-01    0.360E-01
DAV:   6    -0.288119305823E+03   -0.14560E-03   -0.23594E-03 33264   0.112E-01    0.386E-01
DAV:   7    -0.288119194326E+03    0.11150E-03   -0.29816E-03 34680   0.858E-02    0.303E-01
DAV:   8    -0.288119206317E+03   -0.11991E-04   -0.10794E-03 30744   0.675E-02    0.162E-01
DAV:   9    -0.288119305385E+03   -0.99067E-04   -0.44999E-04 25944   0.355E-02    0.155E-01
DAV:  10    -0.288119312174E+03   -0.67894E-05   -0.13844E-04 21848   0.289E-02    0.140E-01
DAV:  11    -0.288119307735E+03    0.44387E-05   -0.16497E-04 23952   0.277E-02    0.114E-01
DAV:  12    -0.288119320182E+03   -0.12446E-04   -0.96045E-05 18896   0.191E-02    0.985E-02
DAV:  13    -0.288119323499E+03   -0.33171E-05   -0.25570E-05 16136   0.128E-02
  82 F= -.28811932E+03 E0= -.28810587E+03  d E =0.304303E-02  mag=    10.0000
       N       E                     dE             d eps       ncg     rms          rms(c)
DAV:   1    -0.288118414921E+03    0.90526E-03   -0.17010E+00 25056   0.408E+00    0.535E-01
DAV:   2    -0.288122989576E+03   -0.45747E-02   -0.52110E-02 27840   0.720E-01    0.467E-01
DAV:   3    -0.288126201425E+03   -0.32118E-02   -0.40928E-02 34688   0.304E-01    0.192E+00
DAV:   4    -0.288120584007E+03    0.56174E-02   -0.29159E-02 33248   0.252E-01    0.207E-01
DAV:   5    -0.288122472829E+03   -0.18888E-02   -0.27835E-03 31632   0.111E-01    0.507E-01
DAV:   6    -0.288122169901E+03    0.30293E-03   -0.31882E-03 34240   0.901E-02    0.207E-01
DAV:   7    -0.288122343100E+03   -0.17320E-03   -0.11739E-03 31848   0.712E-02    0.196E-01
DAV:   8    -0.288122489397E+03   -0.14630E-03   -0.19021E-03 31224   0.631E-02    0.354E-01
DAV:   9    -0.288122381678E+03    0.10772E-03   -0.62772E-04 24352   0.490E-02    0.170E-01
DAV:  10    -0.288122405411E+03   -0.23734E-04   -0.59613E-05 20592   0.222E-02    0.133E-01
DAV:  11    -0.288122413271E+03   -0.78594E-05   -0.11600E-04 20984   0.248E-02    0.115E-01
DAV:  12    -0.288122409619E+03    0.36518E-05   -0.11952E-04 18824   0.205E-02    0.777E-02
DAV:  13    -0.288122425289E+03   -0.15670E-04   -0.20491E-05 16384   0.139E-02    0.750E-02
DAV:  14    -0.288122424425E+03    0.86441E-06   -0.94908E-06 14664   0.107E-02
  83 F= -.28812242E+03 E0= -.28810889E+03  d E =-.310093E-02  mag=    10.0000
       N       E                     dE             d eps       ncg     rms          rms(c)
DAV:   1    -0.288122160696E+03    0.26459E-03   -0.10956E-02 25352   0.339E-01    0.910E-02
DAV:   2    -0.288122329216E+03   -0.16852E-03   -0.16850E-03 31352   0.868E-02    0.372E-01
DAV:   3    -0.288122138965E+03    0.19025E-03   -0.15853E-03 30408   0.636E-02    0.107E-01
DAV:   4    -0.288122239484E+03   -0.10052E-03   -0.43416E-04 21640   0.365E-02    0.206E-01
DAV:   5    -0.288122173970E+03    0.65514E-04   -0.27830E-04 20224   0.308E-02    0.651E-02
DAV:   6    -0.288122190942E+03   -0.16973E-04   -0.19571E-05 15992   0.112E-02    0.644E-02
DAV:   7    -0.288122189956E+03    0.98626E-06   -0.23098E-05 14176   0.961E-03
  84 F= -.28812219E+03 E0= -.28810866E+03  d E =0.234469E-03  mag=    10.0000
       N       E                     dE             d eps       ncg     rms          rms(c)
DAV:   1    -0.288122162694E+03    0.28248E-04   -0.78552E-03 25128   0.273E-01    0.100E-01
DAV:   2    -0.288123320060E+03   -0.11574E-02   -0.98569E-03 34464   0.138E-01    0.102E+00
DAV:   3    -0.288121589800E+03    0.17303E-02   -0.70032E-03 31888   0.135E-01    0.110E-01
DAV:   4    -0.288122137665E+03   -0.54787E-03   -0.29123E-04 21784   0.393E-02    0.108E-01
DAV:   5    -0.288122171688E+03   -0.34023E-04   -0.95470E-05 18824   0.239E-02    0.338E-02
DAV:   6    -0.288122184351E+03   -0.12663E-04   -0.68256E-05 15392   0.156E-02    0.725E-02
DAV:   7    -0.288122180060E+03    0.42913E-05   -0.33815E-05 14016   0.131E-02
  85 F= -.28812218E+03 E0= -.28810864E+03  d E =0.989644E-05  mag=    10.0000
