 vasp.6.1.2 22Jul20 (build Mar 19 2021 09:51:12) complex                        
  
 executed on             LinuxIFC date 2021.07.25  11:17:13
 running on   12 total cores
 distrk:  each k-point on   12 cores,    1 groups
 distr:  one band on NCORE=   4 cores,    3 groups


--------------------------------------------------------------------------------------------------------


 INCAR:
 POTCAR:    PAW_PBE Ca_sv 06Sep2000               
 POTCAR:    PAW_PBE Fe_pv 02Aug2007               
 POTCAR:    PAW_PBE O 08Apr2002                   
 POTCAR:    PAW_PBE Ca_sv 06Sep2000               
   VRHFIN =Ca: 3s3p4s                                                                               
   LEXCH  = PE                                                                                      
   EATOM  =  1006.0909 eV,   73.9456 Ry                                                             
                                                                                                    
   TITEL  = PAW_PBE Ca_sv 06Sep2000                                                                 
   LULTRA =        F    use ultrasoft PP ?                                                          
   IUNSCR =        1    unscreen: 0-lin 1-nonlin 2-no                                               
   RPACOR =    2.000    partial core radius                                                         
   POMASS =   40.078; ZVAL   =   10.000    mass and valenz                                          
   RCORE  =    2.300    outmost cutoff radius                                                       
   RWIGS  =    2.500; RWIGS  =    1.323    wigner-seitz radius (au A)                               
   ENMAX  =  266.622; ENMIN  =  199.967 eV                                                          
   RCLOC  =    1.808    cutoff for local pot                                                        
   LCOR   =        T    correct aug charges                                                         
   LPAW   =        T    paw PP                                                                      
   EAUG   =  420.852                                                                                
   RMAX   =    2.359    core radius for proj-oper                                                   
   RAUG   =    1.300    factor for augmentation sphere                                              
   RDEP   =    2.392    radius for radial grids                                                     
   RDEPT  =    1.987    core radius for aug-charge                                                  
                                                                                                    
   Atomic configuration                                                                             
    7 entries                                                                                       
     n  l   j            E        occ.                                                              
     1  0  0.50     -3949.1705   2.0000                                                             
     2  0  0.50      -414.3434   2.0000                                                             
     2  1  1.50      -334.7047   6.0000                                                             
     3  0  0.50       -47.0896   2.0000                                                             
     4  0  0.50        -3.7663   2.0000                                                             
     3  1  1.50       -28.0061   6.0000                                                             
     3  2  1.50        -4.0817   0.0000                                                             
   Description                                                                                      
     l       E           TYP  RCUT    TYP  RCUT                                                     
     0    -47.0896403     23  2.300                                                                 
     0     -3.7663320     23  2.300                                                                 
     1    -28.0060855     23  2.300                                                                 
     1      6.8029130     23  2.300                                                                 
     2     -4.0817478     23  2.300                                                                 
     2      0.4464412     23  2.300                                                                 
  local pseudopotential read in
  partial core-charges read in
  partial kinetic energy density read in
  atomic valenz-charges read in
  non local Contribution for L=           0  read in
    real space projection operators read in
  non local Contribution for L=           0  read in
    real space projection operators read in
  non local Contribution for L=           1  read in
    real space projection operators read in
  non local Contribution for L=           1  read in
    real space projection operators read in
  non local Contribution for L=           2  read in
    real space projection operators read in
  non local Contribution for L=           2  read in
    real space projection operators read in
    PAW grid and wavefunctions read in
 
   number of l-projection  operators is LMAX  =           6
   number of lm-projection operators is LMMAX =          18
 
 POTCAR:    PAW_PBE Fe_pv 02Aug2007               
   VRHFIN =Fe:  3pd7s1                                                                              
   LEXCH  = PE                                                                                      
   EATOM  =  2457.4239 eV,  180.6156 Ry                                                             
                                                                                                    
   TITEL  = PAW_PBE Fe_pv 02Aug2007                                                                 
   LULTRA =        F    use ultrasoft PP ?                                                          
   IUNSCR =        1    unscreen: 0-lin 1-nonlin 2-no                                               
   RPACOR =    1.750    partial core radius                                                         
   POMASS =   55.847; ZVAL   =   14.000    mass and valenz                                          
   RCORE  =    2.200    outmost cutoff radius                                                       
   RWIGS  =    2.200; RWIGS  =    1.164    wigner-seitz radius (au A)                               
   ENMAX  =  293.238; ENMIN  =  219.928 eV                                                          
   ICORE  =        3    local potential                                                             
   LCOR   =        T    correct aug charges                                                         
   LPAW   =        T    paw PP                                                                      
   EAUG   =  578.342                                                                                
   DEXC   =    0.000                                                                                
   RMAX   =    2.249    core radius for proj-oper                                                   
   RAUG   =    1.300    factor for augmentation sphere                                              
   RDEP   =    2.296    radius for radial grids                                                     
   RDEPT  =    1.766    core radius for aug-charge                                                  
                                                                                                    
   Atomic configuration                                                                             
    8 entries                                                                                       
     n  l   j            E        occ.                                                              
     1  0  0.50     -6993.8440   2.0000                                                             
     2  0  0.50      -814.6047   2.0000                                                             
     2  1  1.50      -693.3689   6.0000                                                             
     3  0  0.50       -89.4732   2.0000                                                             
     3  1  1.50       -55.6373   6.0000                                                             
     3  2  2.50        -3.8151   7.0000                                                             
     4  0  0.50        -4.2551   1.0000                                                             
     4  3  2.50        -1.3606   0.0000                                                             
   Description                                                                                      
     l       E           TYP  RCUT    TYP  RCUT                                                     
     1    -55.6372668     23  2.000                                                                 
     1     -5.4423304     23  2.000                                                                 
     2     -3.8151096     23  2.200                                                                 
     2     -5.1756922     23  2.200                                                                 
     0     -4.2550951     23  2.200                                                                 
     0     27.2116520     23  2.200                                                                 
     3     -1.3605826     23  2.200                                                                 
  local pseudopotential read in
  partial core-charges read in
  partial kinetic energy density read in
  atomic valenz-charges read in
  non local Contribution for L=           1  read in
    real space projection operators read in
  non local Contribution for L=           1  read in
    real space projection operators read in
  non local Contribution for L=           2  read in
    real space projection operators read in
  non local Contribution for L=           2  read in
    real space projection operators read in
  non local Contribution for L=           0  read in
    real space projection operators read in
  non local Contribution for L=           0  read in
    real space projection operators read in
    PAW grid and wavefunctions read in
 
   number of l-projection  operators is LMAX  =           6
   number of lm-projection operators is LMMAX =          18
 
 POTCAR:    PAW_PBE O 08Apr2002                   
   VRHFIN =O: s2p4                                                                                  
   LEXCH  = PE                                                                                      
   EATOM  =   432.3788 eV,   31.7789 Ry                                                             
                                                                                                    
   TITEL  = PAW_PBE O 08Apr2002                                                                     
   LULTRA =        F    use ultrasoft PP ?                                                          
   IUNSCR =        1    unscreen: 0-lin 1-nonlin 2-no                                               
   RPACOR =    1.200    partial core radius                                                         
   POMASS =   16.000; ZVAL   =    6.000    mass and valenz                                          
   RCORE  =    1.520    outmost cutoff radius                                                       
   RWIGS  =    1.550; RWIGS  =    0.820    wigner-seitz radius (au A)                               
   ENMAX  =  400.000; ENMIN  =  300.000 eV                                                          
   ICORE  =        2    local potential                                                             
   LCOR   =        T    correct aug charges                                                         
   LPAW   =        T    paw PP                                                                      
   EAUG   =  605.392                                                                                
   DEXC   =    0.000                                                                                
   RMAX   =    1.553    core radius for proj-oper                                                   
   RAUG   =    1.300    factor for augmentation sphere                                              
   RDEP   =    1.550    radius for radial grids                                                     
   RDEPT  =    1.329    core radius for aug-charge                                                  
                                                                                                    
   Atomic configuration                                                                             
    4 entries                                                                                       
     n  l   j            E        occ.                                                              
     1  0  0.50      -514.6923   2.0000                                                             
     2  0  0.50       -23.9615   2.0000                                                             
     2  1  0.50        -9.0305   4.0000                                                             
     3  2  1.50        -9.5241   0.0000                                                             
   Description                                                                                      
     l       E           TYP  RCUT    TYP  RCUT                                                     
     0    -23.9615318     23  1.200                                                                 
     0     -9.5240782     23  1.200                                                                 
     1     -9.0304911     23  1.520                                                                 
     1      8.1634956     23  1.520                                                                 
     2     -9.5240782      7  1.500                                                                 
  local pseudopotential read in
  partial core-charges read in
  partial kinetic energy density read in
  kinetic energy density of atom read in
  atomic valenz-charges read in
  non local Contribution for L=           0  read in
    real space projection operators read in
  non local Contribution for L=           0  read in
    real space projection operators read in
  non local Contribution for L=           1  read in
    real space projection operators read in
  non local Contribution for L=           1  read in
    real space projection operators read in
    PAW grid and wavefunctions read in
 
   number of l-projection  operators is LMAX  =           4
   number of lm-projection operators is LMMAX =           8
 
 -----------------------------------------------------------------------------
|                                                                             |
|               ----> ADVICE to this user running VASP <----                  |
|                                                                             |
|     You have a (more or less) 'small supercell' and for smaller cells       |
|     it is recommended to use the reciprocal-space projection scheme!        |
|     The real-space optimization is not efficient for small cells and it     |
|     is also less accurate ...                                               |
|     Therefore, set LREAL=.FALSE. in the INCAR file.                         |
|                                                                             |
 -----------------------------------------------------------------------------

 Optimization of the real space projectors (new method)

 maximal supplied QI-value         = 16.25
 optimisation between [QCUT,QGAM] = [ 11.54, 23.24] = [ 37.28,151.24] Ry 
 Optimized for a Real-space Cutoff    1.58 Angstroem

   l    n(q)    QCUT    max X(q) W(low)/X(q) W(high)/X(q)  e(spline) 
   0     11    11.539    11.817    0.25E-04    0.22E-05    0.26E-07
   0     11    11.539     8.461    0.39E-04    0.49E-05    0.55E-07
   1     11    11.539     3.957    0.21E-05    0.44E-05    0.32E-07
   1     11    11.539     4.314    0.56E-04    0.44E-04    0.19E-06
   2     10    11.539    14.565    0.25E-03    0.21E-04    0.75E-06
   2     10    11.539    14.552    0.23E-03    0.22E-04    0.72E-06
 Optimization of the real space projectors (new method)

 maximal supplied QI-value         = 17.01
 optimisation between [QCUT,QGAM] = [ 11.57, 23.30] = [ 37.45,152.03] Ry 
 Optimized for a Real-space Cutoff    1.45 Angstroem

   l    n(q)    QCUT    max X(q) W(low)/X(q) W(high)/X(q)  e(spline) 
   1     10    11.565     4.267    0.91E-04    0.15E-03    0.13E-06
   1     10    11.565     5.750    0.14E-03    0.22E-03    0.20E-06
   2      9    11.565    53.656    0.13E-03    0.57E-04    0.16E-06
   2      9    11.565    49.521    0.13E-03    0.59E-04    0.16E-06
   0     10    11.565    31.246    0.61E-04    0.74E-05    0.89E-07
   0     10    11.565    12.201    0.44E-04    0.68E-05    0.74E-07
 Optimization of the real space projectors (new method)

 maximal supplied QI-value         = 24.76
 optimisation between [QCUT,QGAM] = [ 11.64, 23.27] = [ 37.91,151.63] Ry 
 Optimized for a Real-space Cutoff    1.14 Angstroem

   l    n(q)    QCUT    max X(q) W(low)/X(q) W(high)/X(q)  e(spline) 
   0      8    11.635    20.381    0.10E-03    0.33E-03    0.24E-06
   0      8    11.635    15.268    0.11E-03    0.35E-03    0.26E-06
   1      7    11.635     5.964    0.24E-03    0.31E-03    0.30E-06
   1      7    11.635     5.382    0.22E-03    0.25E-03    0.26E-06
  PAW_PBE Ca_sv 06Sep2000               :
 energy of atom  1       EATOM=-1006.0909
 kinetic energy error for atom=    0.0022 (will be added to EATOM!!)
  PAW_PBE Fe_pv 02Aug2007               :
 energy of atom  2       EATOM=-2457.4239
 kinetic energy error for atom=    0.0062 (will be added to EATOM!!)
  PAW_PBE O 08Apr2002                   :
 energy of atom  3       EATOM= -432.3788
 kinetic energy error for atom=    0.0208 (will be added to EATOM!!)
 
 
 POSCAR: Ca2 Fe2 O4
  positions in direct lattice
  velocities in cartesian coordinates

 METAGGA = SCAN     LMAXTAU =  6    LMIXTAU =  F

 exchange correlation table for  LEXCH =        8
   RHO(1)=    0.500       N(1)  =     2000
   RHO(2)=  100.500       N(2)  =     4000
 


--------------------------------------------------------------------------------------------------------


 ion  position               nearest neighbor table
   1  0.500  0.000  0.423-   6 2.35   8 2.35   7 2.40   5 2.40   8 2.50   6 2.50
   2  0.000  0.500  0.577-   7 2.35   5 2.35   8 2.40   6 2.40   5 2.50   7 2.50
   3  0.500  0.500  1.000-   6 1.99   5 2.00   7 2.00   8 2.00
   4  0.000  1.000  0.000-   7 2.00   8 2.00   6 2.00   5 2.00
   5  0.776  0.276  0.109-   3 2.00   4 2.00   2 2.35   1 2.40   2 2.50
   6  0.724  0.776  0.891-   3 1.99   4 2.00   1 2.35   2 2.40   1 2.50
   7  0.224  0.724  0.110-   4 2.00   3 2.00   2 2.35   1 2.40   2 2.50
   8  0.276  0.224  0.891-   4 2.00   3 2.00   1 2.35   2 2.40   1 2.50
 

IMPORTANT INFORMATION: All symmetrisations will be switched off!
NOSYMM: (Re-)initialisation of all symmetry stuff for point group C_1.


----------------------------------------------------------------------------------------

                                     Primitive cell                                     

  volume of cell :     102.5090

  direct lattice vectors                    reciprocal lattice vectors
     5.515417863 -0.000018842 -0.000046067     0.181309925  0.000000618  0.000000925
    -0.000018798  5.515452768  0.000022881     0.000000619  0.181308778 -0.000000526
    -0.000017183  0.000009775  3.369786314     0.000002479 -0.000001231  0.296754722

  length of vectors
     5.515417864  5.515452768  3.369786314     0.181309925  0.181308778  0.296754722

  position of ions in fractional coordinates (direct lattice)
     0.500007330  0.000005164  0.423194936
     0.000007778  0.499987412  0.576798981
     0.499999649  0.500012448  0.999993997
     0.000000958  0.999991868  0.000000183
     0.776198602  0.276210468  0.109477155
     0.723789110  0.776198683  0.890502504
     0.223797191  0.723807603  0.109512935
     0.276199383  0.223786353  0.890519308

  ion indices of the primitive-cell ions
   primitive index   ion index
                 1           1
                 2           2
                 3           3
                 4           4
                 5           5
                 6           6
                 7           7
                 8           8

----------------------------------------------------------------------------------------

 
 
 KPOINTS: K-points file                           

Automatic generation of k-mesh.
Space group operators:
 irot       det(A)        alpha          n_x          n_y          n_z        tau_x        tau_y        tau_z
    1     1.000000     0.000000     1.000000     0.000000     0.000000     0.000000     0.000000     0.000000
 
 Subroutine IBZKPT returns following result:
 ===========================================
 
 Found    184 irreducible k-points:
 
 Following reciprocal coordinates:
            Coordinates               Weight
  0.000000  0.000000  0.000000      1.000000
  0.166667 -0.000000 -0.000000      2.000000
 -0.000000 -0.166667  0.000000      2.000000
  0.333333 -0.000000 -0.000000      2.000000
 -0.000000 -0.333333 -0.000000      2.000000
  0.500000  0.000000 -0.000000      1.000000
  0.000000  0.500000 -0.000000      1.000000
  0.166667  0.166667 -0.000000      2.000000
  0.166667 -0.166667 -0.000000      2.000000
  0.333333  0.166667 -0.000000      2.000000
  0.166667 -0.333333 -0.000000      2.000000
 -0.333333  0.166667  0.000000      2.000000
 -0.166667 -0.333333  0.000000      2.000000
  0.500000  0.166667 -0.000000      2.000000
  0.166667  0.500000 -0.000000      2.000000
  0.333333  0.333333  0.000000      2.000000
  0.333333 -0.333333 -0.000000      2.000000
  0.500000  0.333333  0.000000      2.000000
  0.333333  0.500000  0.000000      2.000000
  0.500000  0.500000 -0.000000      1.000000
  0.000000  0.000000  0.100000      2.000000
  0.166667 -0.000000  0.100000      2.000000
  0.000000 -0.166667  0.100000      2.000000
 -0.166667  0.000000  0.100000      2.000000
  0.000000  0.166667  0.100000      2.000000
  0.333333 -0.000000  0.100000      2.000000
 -0.000000 -0.333333  0.100000      2.000000
 -0.333333 -0.000000  0.100000      2.000000
  0.000000  0.333333  0.100000      2.000000
  0.500000 -0.000000  0.100000      2.000000
 -0.000000  0.500000  0.100000      2.000000
  0.166667  0.166667  0.100000      2.000000
  0.166667 -0.166667  0.100000      2.000000
 -0.166667 -0.166667  0.100000      2.000000
 -0.166667  0.166667  0.100000      2.000000
  0.333333  0.166667  0.100000      2.000000
  0.166667 -0.333333  0.100000      2.000000
 -0.333333 -0.166667  0.100000      2.000000
 -0.166667  0.333333  0.100000      2.000000
 -0.333333  0.166667 -0.100000      2.000000
 -0.166667 -0.333333 -0.100000      2.000000
  0.333333 -0.166667 -0.100000      2.000000
  0.166667  0.333333 -0.100000      2.000000
  0.500000  0.166667  0.100000      2.000000
  0.166667  0.500000  0.100000      2.000000
  0.500000 -0.166667  0.100000      2.000000
 -0.166667  0.500000  0.100000      2.000000
  0.333333  0.333333  0.100000      2.000000
  0.333333 -0.333333  0.100000      2.000000
 -0.333333 -0.333333  0.100000      2.000000
 -0.333333  0.333333  0.100000      2.000000
  0.500000  0.333333  0.100000      2.000000
  0.333333  0.500000  0.100000      2.000000
  0.500000 -0.333333  0.100000      2.000000
 -0.333333  0.500000  0.100000      2.000000
  0.500000  0.500000  0.100000      2.000000
  0.000000 -0.000000  0.200000      2.000000
  0.166667  0.000000  0.200000      2.000000
  0.000000 -0.166667  0.200000      2.000000
 -0.166667 -0.000000  0.200000      2.000000
 -0.000000  0.166667  0.200000      2.000000
  0.333333 -0.000000  0.200000      2.000000
  0.000000 -0.333333  0.200000      2.000000
 -0.333333  0.000000  0.200000      2.000000
  0.000000  0.333333  0.200000      2.000000
  0.500000 -0.000000  0.200000      2.000000
  0.000000  0.500000  0.200000      2.000000
  0.166667  0.166667  0.200000      2.000000
  0.166667 -0.166667  0.200000      2.000000
 -0.166667 -0.166667  0.200000      2.000000
 -0.166667  0.166667  0.200000      2.000000
  0.333333  0.166667  0.200000      2.000000
  0.166667 -0.333333  0.200000      2.000000
 -0.333333 -0.166667  0.200000      2.000000
 -0.166667  0.333333  0.200000      2.000000
 -0.333333  0.166667 -0.200000      2.000000
 -0.166667 -0.333333 -0.200000      2.000000
  0.333333 -0.166667 -0.200000      2.000000
  0.166667  0.333333 -0.200000      2.000000
  0.500000  0.166667  0.200000      2.000000
  0.166667  0.500000  0.200000      2.000000
  0.500000 -0.166667  0.200000      2.000000
 -0.166667  0.500000  0.200000      2.000000
  0.333333  0.333333  0.200000      2.000000
  0.333333 -0.333333  0.200000      2.000000
 -0.333333 -0.333333  0.200000      2.000000
 -0.333333  0.333333  0.200000      2.000000
  0.500000  0.333333  0.200000      2.000000
  0.333333  0.500000  0.200000      2.000000
  0.500000 -0.333333  0.200000      2.000000
 -0.333333  0.500000  0.200000      2.000000
  0.500000  0.500000  0.200000      2.000000
  0.000000  0.000000  0.300000      2.000000
  0.166667  0.000000  0.300000      2.000000
  0.000000 -0.166667  0.300000      2.000000
 -0.166667 -0.000000  0.300000      2.000000
  0.000000  0.166667  0.300000      2.000000
  0.333333 -0.000000  0.300000      2.000000
  0.000000 -0.333333  0.300000      2.000000
 -0.333333  0.000000  0.300000      2.000000
  0.000000  0.333333  0.300000      2.000000
  0.500000 -0.000000  0.300000      2.000000
  0.000000  0.500000  0.300000      2.000000
  0.166667  0.166667  0.300000      2.000000
  0.166667 -0.166667  0.300000      2.000000
 -0.166667 -0.166667  0.300000      2.000000
 -0.166667  0.166667  0.300000      2.000000
  0.333333  0.166667  0.300000      2.000000
  0.166667 -0.333333  0.300000      2.000000
 -0.333333 -0.166667  0.300000      2.000000
 -0.166667  0.333333  0.300000      2.000000
 -0.333333  0.166667 -0.300000      2.000000
 -0.166667 -0.333333 -0.300000      2.000000
  0.333333 -0.166667 -0.300000      2.000000
  0.166667  0.333333 -0.300000      2.000000
  0.500000  0.166667  0.300000      2.000000
  0.166667  0.500000  0.300000      2.000000
  0.500000 -0.166667  0.300000      2.000000
 -0.166667  0.500000  0.300000      2.000000
  0.333333  0.333333  0.300000      2.000000
  0.333333 -0.333333  0.300000      2.000000
 -0.333333 -0.333333  0.300000      2.000000
 -0.333333  0.333333  0.300000      2.000000
  0.500000  0.333333  0.300000      2.000000
  0.333333  0.500000  0.300000      2.000000
  0.500000 -0.333333  0.300000      2.000000
 -0.333333  0.500000  0.300000      2.000000
  0.500000  0.500000  0.300000      2.000000
  0.000000 -0.000000  0.400000      2.000000
  0.166667 -0.000000  0.400000      2.000000
  0.000000 -0.166667  0.400000      2.000000
 -0.166667 -0.000000  0.400000      2.000000
  0.000000  0.166667  0.400000      2.000000
  0.333333  0.000000  0.400000      2.000000
  0.000000 -0.333333  0.400000      2.000000
 -0.333333 -0.000000  0.400000      2.000000
 -0.000000  0.333333  0.400000      2.000000
  0.500000  0.000000  0.400000      2.000000
  0.000000  0.500000  0.400000      2.000000
  0.166667  0.166667  0.400000      2.000000
  0.166667 -0.166667  0.400000      2.000000
 -0.166667 -0.166667  0.400000      2.000000
 -0.166667  0.166667  0.400000      2.000000
  0.333333  0.166667  0.400000      2.000000
  0.166667 -0.333333  0.400000      2.000000
 -0.333333 -0.166667  0.400000      2.000000
 -0.166667  0.333333  0.400000      2.000000
 -0.333333  0.166667 -0.400000      2.000000
 -0.166667 -0.333333 -0.400000      2.000000
  0.333333 -0.166667 -0.400000      2.000000
  0.166667  0.333333 -0.400000      2.000000
  0.500000  0.166667  0.400000      2.000000
  0.166667  0.500000  0.400000      2.000000
  0.500000 -0.166667  0.400000      2.000000
 -0.166667  0.500000  0.400000      2.000000
  0.333333  0.333333  0.400000      2.000000
  0.333333 -0.333333  0.400000      2.000000
 -0.333333 -0.333333  0.400000      2.000000
 -0.333333  0.333333  0.400000      2.000000
  0.500000  0.333333  0.400000      2.000000
  0.333333  0.500000  0.400000      2.000000
  0.500000 -0.333333  0.400000      2.000000
 -0.333333  0.500000  0.400000      2.000000
  0.500000  0.500000  0.400000      2.000000
  0.000000  0.000000  0.500000      1.000000
  0.166667 -0.000000  0.500000      2.000000
 -0.000000 -0.166667  0.500000      2.000000
  0.333333 -0.000000  0.500000      2.000000
  0.000000 -0.333333  0.500000      2.000000
  0.500000  0.000000  0.500000      1.000000
  0.000000  0.500000  0.500000      1.000000
  0.166667  0.166667  0.500000      2.000000
  0.166667 -0.166667  0.500000      2.000000
  0.333333  0.166667  0.500000      2.000000
  0.166667 -0.333333  0.500000      2.000000
 -0.333333  0.166667  0.500000      2.000000
 -0.166667 -0.333333  0.500000      2.000000
  0.500000  0.166667  0.500000      2.000000
  0.166667  0.500000  0.500000      2.000000
  0.333333  0.333333  0.500000      2.000000
  0.333333 -0.333333  0.500000      2.000000
  0.500000  0.333333  0.500000      2.000000
  0.333333  0.500000  0.500000      2.000000
  0.500000  0.500000  0.500000      1.000000
 
 Following cartesian coordinates:
            Coordinates               Weight
  0.000000  0.000000  0.000000      1.000000
  0.030218  0.000000  0.000000      2.000000
 -0.000000 -0.030218  0.000000      2.000000
  0.060437  0.000000  0.000000      2.000000
 -0.000000 -0.060436  0.000000      2.000000
  0.090655  0.000000  0.000000      1.000000
  0.000000  0.090654 -0.000000      1.000000
  0.030218  0.030218  0.000000      2.000000
  0.030218 -0.030218  0.000000      2.000000
  0.060437  0.030218  0.000000      2.000000
  0.030218 -0.060436  0.000000      2.000000
 -0.060437  0.030218 -0.000000      2.000000
 -0.030219 -0.060436  0.000000      2.000000
  0.090655  0.030218  0.000000      2.000000
  0.030219  0.090654 -0.000000      2.000000
  0.060437  0.060436  0.000000      2.000000
  0.060436 -0.060436  0.000000      2.000000
  0.090655  0.060437  0.000000      2.000000
  0.060437  0.090655  0.000000      2.000000
  0.090655  0.090655  0.000000      1.000000
  0.000000 -0.000000  0.029675      2.000000
  0.030219 -0.000000  0.029676      2.000000
  0.000000 -0.030218  0.029676      2.000000
 -0.030218 -0.000000  0.029675      2.000000
  0.000000  0.030218  0.029675      2.000000
  0.060437  0.000000  0.029676      2.000000
  0.000000 -0.060436  0.029676      2.000000
 -0.060436 -0.000000  0.029675      2.000000
  0.000000  0.060436  0.029675      2.000000
  0.090655  0.000000  0.029676      2.000000
  0.000001  0.090654  0.029675      2.000000
  0.030219  0.030218  0.029676      2.000000
  0.030218 -0.030218  0.029676      2.000000
 -0.030218 -0.030218  0.029675      2.000000
 -0.030218  0.030218  0.029675      2.000000
  0.060437  0.030218  0.029676      2.000000
  0.030218 -0.060436  0.029676      2.000000
 -0.060436 -0.030218  0.029675      2.000000
 -0.030218  0.060436  0.029675      2.000000
 -0.060437  0.030218 -0.029676      2.000000
 -0.030219 -0.060436 -0.029675      2.000000
  0.060436 -0.030218 -0.029675      2.000000
  0.030218  0.060436 -0.029675      2.000000
  0.090655  0.030218  0.029676      2.000000
  0.030219  0.090654  0.029675      2.000000
  0.090655 -0.030218  0.029676      2.000000
 -0.030218  0.090654  0.029675      2.000000
  0.060437  0.060436  0.029676      2.000000
  0.060437 -0.060436  0.029676      2.000000
 -0.060437 -0.060437  0.029675      2.000000
 -0.060436  0.060436  0.029675      2.000000
  0.090655  0.060436  0.029676      2.000000
  0.060437  0.090654  0.029676      2.000000
  0.090655 -0.060436  0.029676      2.000000
 -0.060436  0.090654  0.029675      2.000000
  0.090656  0.090655  0.029676      2.000000
  0.000000 -0.000000  0.059351      2.000000
  0.030219 -0.000000  0.059351      2.000000
  0.000000 -0.030218  0.059351      2.000000
 -0.030218 -0.000000  0.059351      2.000000
  0.000001  0.030218  0.059351      2.000000
  0.060437 -0.000000  0.059351      2.000000
  0.000000 -0.060437  0.059351      2.000000
 -0.060436 -0.000000  0.059351      2.000000
  0.000001  0.060436  0.059351      2.000000
  0.090655  0.000000  0.059351      2.000000
  0.000001  0.090654  0.059351      2.000000
  0.030219  0.030218  0.059351      2.000000
  0.030219 -0.030218  0.059351      2.000000
 -0.030218 -0.030218  0.059351      2.000000
 -0.030218  0.030218  0.059351      2.000000
  0.060437  0.030218  0.059351      2.000000
  0.030219 -0.060436  0.059351      2.000000
 -0.060436 -0.030219  0.059351      2.000000
 -0.030218  0.060436  0.059351      2.000000
 -0.060437  0.030218 -0.059351      2.000000
 -0.030219 -0.060436 -0.059351      2.000000
  0.060436 -0.030218 -0.059351      2.000000
  0.030218  0.060437 -0.059351      2.000000
  0.090656  0.030218  0.059351      2.000000
  0.030219  0.090654  0.059351      2.000000
  0.090655 -0.030218  0.059351      2.000000
 -0.030218  0.090654  0.059351      2.000000
  0.060437  0.060436  0.059351      2.000000
  0.060437 -0.060436  0.059351      2.000000
 -0.060436 -0.060437  0.059351      2.000000
 -0.060436  0.060436  0.059350      2.000000
  0.090656  0.060436  0.059351      2.000000
  0.060437  0.090654  0.059351      2.000000
  0.090655 -0.060436  0.059352      2.000000
 -0.060436  0.090654  0.059350      2.000000
  0.090656  0.090654  0.059351      2.000000
  0.000001 -0.000000  0.089026      2.000000
  0.030219 -0.000000  0.089027      2.000000
  0.000001 -0.030218  0.089027      2.000000
 -0.030218 -0.000000  0.089026      2.000000
  0.000001  0.030218  0.089026      2.000000
  0.060437 -0.000000  0.089027      2.000000
  0.000001 -0.060437  0.089027      2.000000
 -0.060436 -0.000001  0.089026      2.000000
  0.000001  0.060436  0.089026      2.000000
  0.090656 -0.000000  0.089027      2.000000
  0.000001  0.090654  0.089026      2.000000
  0.030219  0.030218  0.089026      2.000000
  0.030219 -0.030218  0.089027      2.000000
 -0.030218 -0.030219  0.089026      2.000000
 -0.030217  0.030218  0.089026      2.000000
  0.060437  0.030218  0.089027      2.000000
  0.030219 -0.060437  0.089027      2.000000
 -0.060436 -0.030219  0.089026      2.000000
 -0.030217  0.060436  0.089026      2.000000
 -0.060437  0.030218 -0.089027      2.000000
 -0.030219 -0.060436 -0.089026      2.000000
  0.060436 -0.030218 -0.089026      2.000000
  0.030218  0.060437 -0.089026      2.000000
  0.090656  0.030218  0.089027      2.000000
  0.030219  0.090654  0.089026      2.000000
  0.090656 -0.030218  0.089027      2.000000
 -0.030217  0.090654  0.089026      2.000000
  0.060438  0.060436  0.089027      2.000000
  0.060437 -0.060436  0.089027      2.000000
 -0.060436 -0.060437  0.089026      2.000000
 -0.060436  0.060436  0.089026      2.000000
  0.090656  0.060436  0.089027      2.000000
  0.060438  0.090654  0.089026      2.000000
  0.090655 -0.060436  0.089027      2.000000
 -0.060436  0.090654  0.089026      2.000000
  0.090656  0.090654  0.089027      2.000000
  0.000001 -0.000000  0.118702      2.000000
  0.030219 -0.000000  0.118702      2.000000
  0.000001 -0.030219  0.118702      2.000000
 -0.030217 -0.000001  0.118702      2.000000
  0.000001  0.030218  0.118702      2.000000
  0.060438 -0.000000  0.118702      2.000000
  0.000001 -0.060437  0.118702      2.000000
 -0.060436 -0.000001  0.118702      2.000000
  0.000001  0.060436  0.118702      2.000000
  0.090656 -0.000000  0.118702      2.000000
  0.000001  0.090654  0.118702      2.000000
  0.030219  0.030218  0.118702      2.000000
  0.030219 -0.030219  0.118702      2.000000
 -0.030217 -0.030219  0.118702      2.000000
 -0.030217  0.030218  0.118702      2.000000
  0.060438  0.030218  0.118702      2.000000
  0.030219 -0.060437  0.118702      2.000000
 -0.060436 -0.030219  0.118702      2.000000
 -0.030217  0.060436  0.118702      2.000000
 -0.060438  0.030218 -0.118702      2.000000
 -0.030220 -0.060436 -0.118702      2.000000
  0.060436 -0.030217 -0.118701      2.000000
  0.030218  0.060437 -0.118702      2.000000
  0.090656  0.030218  0.118702      2.000000
  0.030220  0.090654  0.118702      2.000000
  0.090656 -0.030218  0.118702      2.000000
 -0.030217  0.090654  0.118701      2.000000
  0.060438  0.060436  0.118702      2.000000
  0.060437 -0.060437  0.118702      2.000000
 -0.060436 -0.060437  0.118702      2.000000
 -0.060435  0.060436  0.118701      2.000000
  0.090656  0.060436  0.118702      2.000000
  0.060438  0.090654  0.118702      2.000000
  0.090656 -0.060436  0.118703      2.000000
 -0.060435  0.090654  0.118701      2.000000
  0.090656  0.090654  0.118702      2.000000
  0.000001 -0.000001  0.148377      1.000000
  0.030220 -0.000001  0.148378      2.000000
  0.000001 -0.030219  0.148377      2.000000
  0.060438 -0.000000  0.148378      2.000000
  0.000001 -0.060437  0.148378      2.000000
  0.090656 -0.000000  0.148378      1.000000
  0.000002  0.090654  0.148377      1.000000
  0.030220  0.030218  0.148377      2.000000
  0.030219 -0.030219  0.148378      2.000000
  0.060438  0.030218  0.148378      2.000000
  0.030219 -0.060437  0.148378      2.000000
 -0.060435  0.030217  0.148377      2.000000
 -0.030217 -0.060437  0.148377      2.000000
  0.090656  0.030218  0.148378      2.000000
  0.030220  0.090654  0.148377      2.000000
  0.060438  0.060436  0.148377      2.000000
  0.060438 -0.060437  0.148378      2.000000
  0.090656  0.060436  0.148378      2.000000
  0.060438  0.090654  0.148377      2.000000
  0.090657  0.090654  0.148378      1.000000
 


--------------------------------------------------------------------------------------------------------




 Dimension of arrays:
   k-points           NKPTS =    184   k-points in BZ     NKDIM =    184   number of bands    NBANDS=     48
   number of dos      NEDOS =    301   number of ions     NIONS =      8
   non local maximal  LDIM  =      6   non local SUM 2l+1 LMDIM =     18
   total plane-waves  NPLWV =  49392
   max r-space proj   IRMAX =   8008   max aug-charges    IRDMAX=  23186
   dimension x,y,z NGX =    42 NGY =   42 NGZ =   28
   dimension x,y,z NGXF=    84 NGYF=   84 NGZF=   56
   support grid    NGXF=    84 NGYF=   84 NGZF=   56
   ions per type =               2   2   4
   NGX,Y,Z   is equivalent  to a cutoff of  12.66, 12.66, 13.81 a.u.
   NGXF,Y,Z  is equivalent  to a cutoff of  25.32, 25.32, 27.63 a.u.

 SYSTEM =  unknown system                          
 POSCAR =  Ca2 Fe2 O4                              

 Startparameter for this run:
   NWRITE =      2    write-flag & timer
   PREC   = accura    normal or accurate (medium, high low for compatibility)
   ISTART =      0    job   : 0-new  1-cont  2-samecut
   ICHARG =      1    charge: 1-file 2-atom 10-const
   ISPIN  =      2    spin polarized calculation?
   LNONCOLLINEAR =      F non collinear calculations
   LSORBIT =      F    spin-orbit coupling
   INIWAV =      1    electr: 0-lowe 1-rand  2-diag
   LASPH  =      T    aspherical Exc in radial PAW
   METAGGA=      F    non-selfconsistent MetaGGA calc.

 Electronic Relaxation 1
   ENCUT  =  520.0 eV  38.22 Ry    6.18 a.u.  10.26 10.26  6.27*2*pi/ulx,y,z
   ENINI  =  520.0     initial cutoff
   ENAUG  =  605.4 eV  augmentation charge cutoff
   NELM   =    100;   NELMIN=  6; NELMDL= -5     # of ELM steps 
   EDIFF  = 0.1E-04   stopping-criterion for ELM
   LREAL  =      T    real-space projection
   NLSPLINE    = F    spline interpolate recip. space projectors
   LCOMPAT=      F    compatible to vasp.4.4
   GGA_COMPAT  = T    GGA compatible to vasp.4.4-vasp.4.6
   LMAXPAW     = -100 max onsite density
   LMAXMIX     =    4 max onsite mixed and CHGCAR
   VOSKOWN=      0    Vosko Wilk Nusair interpolation
   ROPT   =   -0.00025  -0.00025  -0.00025
 Ionic relaxation
   EDIFFG = -.3E-01   stopping-criterion for IOM
   NSW    =     99    number of steps for IOM
   NBLOCK =      1;   KBLOCK =     99    inner block; outer block 
   IBRION =      2    ionic relax: 0-MD 1-quasi-New 2-CG
   NFREE  =      1    steps in history (QN), initial steepest desc. (CG)
   ISIF   =      3    stress and relaxation
   IWAVPR =     11    prediction:  0-non 1-charg 2-wave 3-comb
   ISYM   =      0    0-nonsym 1-usesym 2-fastsym
   LCORR  =      T    Harris-Foulkes like correction to forces

   POTIM  = 0.5000    time-step for ionic-motion
   TEIN   =    0.0    initial temperature
   TEBEG  =    0.0;   TEEND  =   0.0 temperature during run
   SMASS  =  -3.00    Nose mass-parameter (am)
   estimated Nose-frequenzy (Omega)   =  0.10E-29 period in steps = 0.13E+47 mass=  -0.695E-27a.u.
   SCALEE = 1.0000    scale energy and forces
   NPACO  =    256;   APACO  = 16.0  distance and # of slots for P.C.
   PSTRESS=    0.0 pullay stress

  Mass of Ions in am
   POMASS =  40.08 55.85 16.00
  Ionic Valenz
   ZVAL   =  10.00 14.00  6.00
  Atomic Wigner-Seitz radii
   RWIGS  =  -1.00 -1.00 -1.00
  virtual crystal weights 
   VCA    =   1.00  1.00  1.00
   NELECT =      72.0000    total number of electrons
   NUPDOWN=      -1.0000    fix difference up-down

 DOS related values:
   EMIN   =  10.00;   EMAX   =-10.00  energy-range for DOS
   EFERMI =   0.00
   ISMEAR =     0;   SIGMA  =   0.05  broadening in eV -4-tet -1-fermi 0-gaus

 Electronic relaxation 2 (details)
   IALGO  =     38    algorithm
   LDIAG  =      T    sub-space diagonalisation (order eigenvalues)
   LSUBROT=      F    optimize rotation matrix (better conditioning)
   TURBO    =      0    0=normal 1=particle mesh
   IRESTART =      0    0=no restart 2=restart with 2 vectors
   NREBOOT  =      0    no. of reboots
   NMIN     =      0    reboot dimension
   EREF     =   0.00    reference energy to select bands
   IMIX   =      4    mixing-type and parameters
     AMIX     =   0.40;   BMIX     =  1.00
     AMIX_MAG =   1.60;   BMIX_MAG =  1.00
     AMIN     =   0.10
     WC   =   100.;   INIMIX=   1;  MIXPRE=   1;  MAXMIX= -45

 Intra band minimization:
   WEIMIN = 0.0010     energy-eigenvalue tresh-hold
   EBREAK =  0.52E-07  absolut break condition
   DEPER  =   0.30     relativ break condition  

   TIME   =   0.40     timestep for ELM

  volume/ion in A,a.u.               =      12.81        86.47
  Fermi-wavevector in a.u.,A,eV,Ry     =   1.455230  2.749986 28.812986  2.117695
  Thomas-Fermi vector in A             =   2.572289
 
 Write flags
   LWAVE        =      F    write WAVECAR
   LDOWNSAMPLE  =      F    k-point downsampling of WAVECAR
   LCHARG       =      T    write CHGCAR
   LVTOT        =      F    write LOCPOT, total local potential
   LVHAR        =      F    write LOCPOT, Hartree potential only
   LELF         =      F    write electronic localiz. function (ELF)
   LORBIT       =     11    0 simple, 1 ext, 2 COOP (PROOUT), +10 PAW based schemes


 Dipole corrections
   LMONO  =      F    monopole corrections only (constant potential shift)
   LDIPOL =      F    correct potential (dipole corrections)
   IDIPOL =      0    1-x, 2-y, 3-z, 4-all directions 
   EPSILON=  1.0000000 bulk dielectric constant

 LDA+U is selected, type is set to LDAUTYPE =  2
   angular momentum for each species LDAUL =    -1    2   -1
   U (eV)           for each species LDAUU =   0.0  3.1  0.0
   J (eV)           for each species LDAUJ =   0.0  0.0  0.0
 Exchange correlation treatment:
   GGA     =    --    GGA type
   LEXCH   =     8    internal setting for exchange type
   VOSKOWN=      0    Vosko Wilk Nusair interpolation
   LHFCALC =     F    Hartree Fock is set to
   LHFONE  =     F    Hartree Fock one center treatment
   AEXX    =    0.0000 exact exchange contribution

 Linear response parameters
   LEPSILON=     F    determine dielectric tensor
   LRPA    =     F    only Hartree local field effects (RPA)
   LNABLA  =     F    use nabla operator in PAW spheres
   LVEL    =     F    velocity operator in full k-point grid
   LINTERFAST=   F  fast interpolation
   KINTER  =     0    interpolate to denser k-point grid
   CSHIFT  =0.1000    complex shift for real part using Kramers Kronig
   OMEGAMAX=  -1.0    maximum frequency
   DEG_THRESHOLD= 0.2000000E-02 threshold for treating states as degnerate
   RTIME   =   -0.100 relaxation time in fs
  (WPLASMAI=    0.000 imaginary part of plasma frequency in eV, 0.658/RTIME)
   DFIELD  = 0.0000000 0.0000000 0.0000000 field for delta impulse in time
 
 Orbital magnetization related:
   ORBITALMAG=     F  switch on orbital magnetization
   LCHIMAG   =     F  perturbation theory with respect to B field
   DQ        =  0.001000  dq finite difference perturbation B field
   LLRAUG    =     F  two centre corrections for induced B field



--------------------------------------------------------------------------------------------------------


 conjugate gradient relaxation of ions
 charge density and potential will be updated during run
 spin polarized calculation
 Variant of blocked Davidson
 Davidson routine will perform the subspace rotation
 perform sub-space diagonalisation
    after iterative eigenvector-optimisation
 modified Broyden-mixing scheme, WC =      100.0
 initial mixing is a Kerker type mixing with AMIX =  0.4000 and BMIX =      1.0000
 Hartree-type preconditioning will be used
 using additional bands           12
 real space projection scheme for non local part
 use partial core corrections
 calculate Harris-corrections to forces 
   (improved forces if not selfconsistent)
 use gradient corrections 
 use of overlap-Matrix (Vanderbilt PP)
 Gauss-broadening in eV      SIGMA  =   0.05


--------------------------------------------------------------------------------------------------------


  energy-cutoff  :      520.00
  volume of cell :      102.51
      direct lattice vectors                 reciprocal lattice vectors
     5.515417863 -0.000018842 -0.000046067     0.181309925  0.000000618  0.000000925
    -0.000018798  5.515452768  0.000022881     0.000000619  0.181308778 -0.000000526
    -0.000017183  0.000009775  3.369786314     0.000002479 -0.000001231  0.296754722

  length of vectors
     5.515417864  5.515452768  3.369786314     0.181309925  0.181308778  0.296754722


 
 k-points in units of 2pi/SCALE and weight: K-points file                           
   0.00000000  0.00000000  0.00000000       0.003
   0.03021832  0.00000010  0.00000015       0.006
  -0.00000010 -0.03021813  0.00000009       0.006
   0.06043664  0.00000021  0.00000031       0.006
  -0.00000021 -0.06043626  0.00000018       0.006
   0.09065496  0.00000031  0.00000046       0.003
   0.00000031  0.09065439 -0.00000026       0.003
   0.03021842  0.03021823  0.00000007       0.006
   0.03021822 -0.03021803  0.00000024       0.006
   0.06043674  0.03021834  0.00000022       0.006
   0.03021811 -0.06043616  0.00000033       0.006
  -0.06043654  0.03021792 -0.00000040       0.006
  -0.03021853 -0.06043636  0.00000002       0.006
   0.09065507  0.03021844  0.00000037       0.006
   0.03021863  0.09065449 -0.00000011       0.006
   0.06043685  0.06043647  0.00000013       0.006
   0.06043644 -0.06043605  0.00000048       0.006
   0.09065517  0.06043657  0.00000029       0.006
   0.06043695  0.09065459  0.00000005       0.006
   0.09065527  0.09065470  0.00000020       0.003
   0.00000025 -0.00000012  0.02967547       0.006
   0.03021857 -0.00000002  0.02967563       0.006
   0.00000014 -0.03021825  0.02967556       0.006
  -0.03021807 -0.00000023  0.02967532       0.006
   0.00000035  0.03021801  0.02967538       0.006
   0.06043689  0.00000008  0.02967578       0.006
   0.00000004 -0.06043638  0.02967565       0.006
  -0.06043639 -0.00000033  0.02967516       0.006
   0.00000045  0.06043614  0.02967530       0.006
   0.09065521  0.00000019  0.02967593       0.006
   0.00000056  0.09065427  0.02967521       0.006
   0.03021867  0.03021811  0.02967554       0.006
   0.03021847 -0.03021815  0.02967571       0.006
  -0.03021818 -0.03021836  0.02967541       0.006
  -0.03021797  0.03021790  0.02967523       0.006
   0.06043699  0.03021821  0.02967569       0.006
   0.03021836 -0.06043628  0.02967580       0.006
  -0.06043650 -0.03021846  0.02967525       0.006
  -0.03021787  0.06043603  0.02967514       0.006
  -0.06043679  0.03021805 -0.02967587       0.006
  -0.03021878 -0.06043624 -0.02967545       0.006
   0.06043629 -0.03021780 -0.02967508       0.006
   0.03021828  0.06043649 -0.02967549       0.006
   0.09065531  0.03021832  0.02967585       0.006
   0.03021888  0.09065437  0.02967536       0.006
   0.09065511 -0.03021794  0.02967602       0.006
  -0.03021776  0.09065416  0.02967506       0.006
   0.06043710  0.06043634  0.02967561       0.006
   0.06043668 -0.06043618  0.02967596       0.006
  -0.06043660 -0.06043659  0.02967534       0.006
  -0.06043619  0.06043593  0.02967499       0.006
   0.09065542  0.06043645  0.02967576       0.006
   0.06043720  0.09065447  0.02967552       0.006
   0.09065500 -0.06043607  0.02967611       0.006
  -0.06043608  0.09065406  0.02967490       0.006
   0.09065552  0.09065457  0.02967567       0.006
   0.00000050 -0.00000025  0.05935094       0.006
   0.03021882 -0.00000014  0.05935110       0.006
   0.00000039 -0.03021838  0.05935103       0.006
  -0.03021783 -0.00000035  0.05935079       0.006
   0.00000060  0.03021788  0.05935086       0.006
   0.06043714 -0.00000004  0.05935125       0.006
   0.00000029 -0.06043651  0.05935112       0.006
  -0.06043615 -0.00000045  0.05935064       0.006
   0.00000070  0.06043601  0.05935077       0.006
   0.09065546  0.00000006  0.05935141       0.006
   0.00000081  0.09065414  0.05935068       0.006
   0.03021892  0.03021799  0.05935101       0.006
   0.03021871 -0.03021827  0.05935119       0.006
  -0.03021793 -0.03021848  0.05935088       0.006
  -0.03021772  0.03021778  0.05935070       0.006
   0.06043724  0.03021809  0.05935116       0.006
   0.03021861 -0.06043640  0.05935127       0.006
  -0.06043625 -0.03021858  0.05935072       0.006
  -0.03021762  0.06043591  0.05935061       0.006
  -0.06043703  0.03021817 -0.05935134       0.006
  -0.03021902 -0.06043612 -0.05935092       0.006
   0.06043604 -0.03021768 -0.05935055       0.006
   0.03021803  0.06043661 -0.05935097       0.006
   0.09065556  0.03021819  0.05935132       0.006
   0.03021913  0.09065425  0.05935084       0.006
   0.09065536 -0.03021807  0.05935149       0.006
  -0.03021752  0.09065404  0.05935053       0.006
   0.06043734  0.06043622  0.05935108       0.006
   0.06043693 -0.06043630  0.05935143       0.006
  -0.06043635 -0.06043671  0.05935081       0.006
  -0.06043594  0.06043581  0.05935046       0.006
   0.09065566  0.06043632  0.05935123       0.006
   0.06043745  0.09065435  0.05935099       0.006
   0.09065525 -0.06043620  0.05935158       0.006
  -0.06043584  0.09065394  0.05935037       0.006
   0.09065577  0.09065445  0.05935114       0.006
   0.00000074 -0.00000037  0.08902642       0.006
   0.03021906 -0.00000027  0.08902657       0.006
   0.00000064 -0.03021850  0.08902650       0.006
  -0.03021758 -0.00000047  0.08902626       0.006
   0.00000085  0.03021776  0.08902633       0.006
   0.06043739 -0.00000016  0.08902672       0.006
   0.00000054 -0.06043663  0.08902659       0.006
  -0.06043590 -0.00000058  0.08902611       0.006
   0.00000095  0.06043589  0.08902624       0.006
   0.09065571 -0.00000006  0.08902688       0.006
   0.00000105  0.09065402  0.08902615       0.006
   0.03021917  0.03021786  0.08902648       0.006
   0.03021896 -0.03021840  0.08902666       0.006
  -0.03021768 -0.03021860  0.08902635       0.006
  -0.03021747  0.03021766  0.08902617       0.006
   0.06043749  0.03021797  0.08902664       0.006
   0.03021886 -0.06043653  0.08902675       0.006
  -0.06043600 -0.03021870  0.08902620       0.006
  -0.03021737  0.06043579  0.08902609       0.006
  -0.06043728  0.03021829 -0.08902681       0.006
  -0.03021927 -0.06043599 -0.08902640       0.006
   0.06043579 -0.03021755 -0.08902602       0.006
   0.03021778  0.06043673 -0.08902644       0.006
   0.09065581  0.03021807  0.08902679       0.006
   0.03021937  0.09065412  0.08902631       0.006
   0.09065560 -0.03021819  0.08902697       0.006
  -0.03021727  0.09065392  0.08902600       0.006
   0.06043759  0.06043610  0.08902655       0.006
   0.06043718 -0.06043642  0.08902690       0.006
  -0.06043610 -0.06043683  0.08902628       0.006
  -0.06043569  0.06043568  0.08902593       0.006
   0.09065591  0.06043620  0.08902670       0.006
   0.06043769  0.09065423  0.08902646       0.006
   0.09065550 -0.06043632  0.08902705       0.006
  -0.06043559  0.09065381  0.08902585       0.006
   0.09065602  0.09065433  0.08902662       0.006
   0.00000099 -0.00000049  0.11870189       0.006
   0.03021931 -0.00000039  0.11870204       0.006
   0.00000089 -0.03021862  0.11870198       0.006
  -0.03021733 -0.00000060  0.11870173       0.006
   0.00000109  0.03021764  0.11870180       0.006
   0.06043763 -0.00000029  0.11870220       0.006
   0.00000078 -0.06043675  0.11870206       0.006
  -0.06043565 -0.00000070  0.11870158       0.006
   0.00000120  0.06043577  0.11870171       0.006
   0.09065595 -0.00000018  0.11870235       0.006
   0.00000130  0.09065390  0.11870163       0.006
   0.03021942  0.03021774  0.11870196       0.006
   0.03021921 -0.03021852  0.11870213       0.006
  -0.03021743 -0.03021873  0.11870182       0.006
  -0.03021723  0.03021753  0.11870165       0.006
   0.06043774  0.03021784  0.11870211       0.006
   0.03021911 -0.06043665  0.11870222       0.006
  -0.06043575 -0.03021883  0.11870167       0.006
  -0.03021712  0.06043566  0.11870156       0.006
  -0.06043753  0.03021842 -0.11870228       0.006
  -0.03021952 -0.06043587 -0.11870187       0.006
   0.06043555 -0.03021743 -0.11870149       0.006
   0.03021754  0.06043685 -0.11870191       0.006
   0.09065606  0.03021795  0.11870226       0.006
   0.03021962  0.09065400  0.11870178       0.006
   0.09065585 -0.03021831  0.11870244       0.006
  -0.03021702  0.09065379  0.11870147       0.006
   0.06043784  0.06043597  0.11870202       0.006
   0.06043743 -0.06043655  0.11870237       0.006
  -0.06043586 -0.06043696  0.11870176       0.006
  -0.06043544  0.06043556  0.11870141       0.006
   0.09065616  0.06043608  0.11870218       0.006
   0.06043794  0.09065410  0.11870193       0.006
   0.09065575 -0.06043644  0.11870253       0.006
  -0.06043534  0.09065369  0.11870132       0.006
   0.09065626  0.09065421  0.11870209       0.006
   0.00000124 -0.00000062  0.14837736       0.003
   0.03021956 -0.00000051  0.14837751       0.006
   0.00000114 -0.03021875  0.14837745       0.006
   0.06043788 -0.00000041  0.14837767       0.006
   0.00000103 -0.06043687  0.14837754       0.006
   0.09065620 -0.00000031  0.14837782       0.003
   0.00000155  0.09065377  0.14837710       0.003
   0.03021966  0.03021762  0.14837743       0.006
   0.03021946 -0.03021864  0.14837760       0.006
   0.06043798  0.03021772  0.14837758       0.006
   0.03021935 -0.06043677  0.14837769       0.006
  -0.06043530  0.03021731  0.14837697       0.006
  -0.03021729 -0.06043698  0.14837738       0.006
   0.09065631  0.03021782  0.14837774       0.006
   0.03021987  0.09065388  0.14837725       0.006
   0.06043809  0.06043585  0.14837749       0.006
   0.06043767 -0.06043667  0.14837784       0.006
   0.09065641  0.06043595  0.14837765       0.006
   0.06043819  0.09065398  0.14837741       0.006
   0.09065651  0.09065408  0.14837756       0.003
 
 k-points in reciprocal lattice and weights: K-points file                           
   0.00000000  0.00000000  0.00000000       0.003
   0.16666667 -0.00000000 -0.00000000       0.006
  -0.00000000 -0.16666667  0.00000000       0.006
   0.33333333 -0.00000000 -0.00000000       0.006
  -0.00000000 -0.33333333 -0.00000000       0.006
   0.50000000  0.00000000 -0.00000000       0.003
   0.00000000  0.50000000 -0.00000000       0.003
   0.16666667  0.16666667 -0.00000000       0.006
   0.16666667 -0.16666667 -0.00000000       0.006
   0.33333333  0.16666667 -0.00000000       0.006
   0.16666667 -0.33333333 -0.00000000       0.006
  -0.33333333  0.16666667  0.00000000       0.006
  -0.16666667 -0.33333333  0.00000000       0.006
   0.50000000  0.16666667 -0.00000000       0.006
   0.16666667  0.50000000 -0.00000000       0.006
   0.33333333  0.33333333  0.00000000       0.006
   0.33333333 -0.33333333 -0.00000000       0.006
   0.50000000  0.33333333  0.00000000       0.006
   0.33333333  0.50000000  0.00000000       0.006
   0.50000000  0.50000000 -0.00000000       0.003
   0.00000000  0.00000000  0.10000000       0.006
   0.16666667 -0.00000000  0.10000000       0.006
   0.00000000 -0.16666667  0.10000000       0.006
  -0.16666667  0.00000000  0.10000000       0.006
   0.00000000  0.16666667  0.10000000       0.006
   0.33333333 -0.00000000  0.10000000       0.006
  -0.00000000 -0.33333333  0.10000000       0.006
  -0.33333333 -0.00000000  0.10000000       0.006
   0.00000000  0.33333333  0.10000000       0.006
   0.50000000 -0.00000000  0.10000000       0.006
  -0.00000000  0.50000000  0.10000000       0.006
   0.16666667  0.16666667  0.10000000       0.006
   0.16666667 -0.16666667  0.10000000       0.006
  -0.16666667 -0.16666667  0.10000000       0.006
  -0.16666667  0.16666667  0.10000000       0.006
   0.33333333  0.16666667  0.10000000       0.006
   0.16666667 -0.33333333  0.10000000       0.006
  -0.33333333 -0.16666667  0.10000000       0.006
  -0.16666667  0.33333333  0.10000000       0.006
  -0.33333333  0.16666667 -0.10000000       0.006
  -0.16666667 -0.33333333 -0.10000000       0.006
   0.33333333 -0.16666667 -0.10000000       0.006
   0.16666667  0.33333333 -0.10000000       0.006
   0.50000000  0.16666667  0.10000000       0.006
   0.16666667  0.50000000  0.10000000       0.006
   0.50000000 -0.16666667  0.10000000       0.006
  -0.16666667  0.50000000  0.10000000       0.006
   0.33333333  0.33333333  0.10000000       0.006
   0.33333333 -0.33333333  0.10000000       0.006
  -0.33333333 -0.33333333  0.10000000       0.006
  -0.33333333  0.33333333  0.10000000       0.006
   0.50000000  0.33333333  0.10000000       0.006
   0.33333333  0.50000000  0.10000000       0.006
   0.50000000 -0.33333333  0.10000000       0.006
  -0.33333333  0.50000000  0.10000000       0.006
   0.50000000  0.50000000  0.10000000       0.006
   0.00000000 -0.00000000  0.20000000       0.006
   0.16666667  0.00000000  0.20000000       0.006
   0.00000000 -0.16666667  0.20000000       0.006
  -0.16666667 -0.00000000  0.20000000       0.006
  -0.00000000  0.16666667  0.20000000       0.006
   0.33333333 -0.00000000  0.20000000       0.006
   0.00000000 -0.33333333  0.20000000       0.006
  -0.33333333  0.00000000  0.20000000       0.006
   0.00000000  0.33333333  0.20000000       0.006
   0.50000000 -0.00000000  0.20000000       0.006
   0.00000000  0.50000000  0.20000000       0.006
   0.16666667  0.16666667  0.20000000       0.006
   0.16666667 -0.16666667  0.20000000       0.006
  -0.16666667 -0.16666667  0.20000000       0.006
  -0.16666667  0.16666667  0.20000000       0.006
   0.33333333  0.16666667  0.20000000       0.006
   0.16666667 -0.33333333  0.20000000       0.006
  -0.33333333 -0.16666667  0.20000000       0.006
  -0.16666667  0.33333333  0.20000000       0.006
  -0.33333333  0.16666667 -0.20000000       0.006
  -0.16666667 -0.33333333 -0.20000000       0.006
   0.33333333 -0.16666667 -0.20000000       0.006
   0.16666667  0.33333333 -0.20000000       0.006
   0.50000000  0.16666667  0.20000000       0.006
   0.16666667  0.50000000  0.20000000       0.006
   0.50000000 -0.16666667  0.20000000       0.006
  -0.16666667  0.50000000  0.20000000       0.006
   0.33333333  0.33333333  0.20000000       0.006
   0.33333333 -0.33333333  0.20000000       0.006
  -0.33333333 -0.33333333  0.20000000       0.006
  -0.33333333  0.33333333  0.20000000       0.006
   0.50000000  0.33333333  0.20000000       0.006
   0.33333333  0.50000000  0.20000000       0.006
   0.50000000 -0.33333333  0.20000000       0.006
  -0.33333333  0.50000000  0.20000000       0.006
   0.50000000  0.50000000  0.20000000       0.006
   0.00000000  0.00000000  0.30000000       0.006
   0.16666667  0.00000000  0.30000000       0.006
   0.00000000 -0.16666667  0.30000000       0.006
  -0.16666667 -0.00000000  0.30000000       0.006
   0.00000000  0.16666667  0.30000000       0.006
   0.33333333 -0.00000000  0.30000000       0.006
   0.00000000 -0.33333333  0.30000000       0.006
  -0.33333333  0.00000000  0.30000000       0.006
   0.00000000  0.33333333  0.30000000       0.006
   0.50000000 -0.00000000  0.30000000       0.006
   0.00000000  0.50000000  0.30000000       0.006
   0.16666667  0.16666667  0.30000000       0.006
   0.16666667 -0.16666667  0.30000000       0.006
  -0.16666667 -0.16666667  0.30000000       0.006
  -0.16666667  0.16666667  0.30000000       0.006
   0.33333333  0.16666667  0.30000000       0.006
   0.16666667 -0.33333333  0.30000000       0.006
  -0.33333333 -0.16666667  0.30000000       0.006
  -0.16666667  0.33333333  0.30000000       0.006
  -0.33333333  0.16666667 -0.30000000       0.006
  -0.16666667 -0.33333333 -0.30000000       0.006
   0.33333333 -0.16666667 -0.30000000       0.006
   0.16666667  0.33333333 -0.30000000       0.006
   0.50000000  0.16666667  0.30000000       0.006
   0.16666667  0.50000000  0.30000000       0.006
   0.50000000 -0.16666667  0.30000000       0.006
  -0.16666667  0.50000000  0.30000000       0.006
   0.33333333  0.33333333  0.30000000       0.006
   0.33333333 -0.33333333  0.30000000       0.006
  -0.33333333 -0.33333333  0.30000000       0.006
  -0.33333333  0.33333333  0.30000000       0.006
   0.50000000  0.33333333  0.30000000       0.006
   0.33333333  0.50000000  0.30000000       0.006
   0.50000000 -0.33333333  0.30000000       0.006
  -0.33333333  0.50000000  0.30000000       0.006
   0.50000000  0.50000000  0.30000000       0.006
   0.00000000 -0.00000000  0.40000000       0.006
   0.16666667 -0.00000000  0.40000000       0.006
   0.00000000 -0.16666667  0.40000000       0.006
  -0.16666667 -0.00000000  0.40000000       0.006
   0.00000000  0.16666667  0.40000000       0.006
   0.33333333  0.00000000  0.40000000       0.006
   0.00000000 -0.33333333  0.40000000       0.006
  -0.33333333 -0.00000000  0.40000000       0.006
  -0.00000000  0.33333333  0.40000000       0.006
   0.50000000  0.00000000  0.40000000       0.006
   0.00000000  0.50000000  0.40000000       0.006
   0.16666667  0.16666667  0.40000000       0.006
   0.16666667 -0.16666667  0.40000000       0.006
  -0.16666667 -0.16666667  0.40000000       0.006
  -0.16666667  0.16666667  0.40000000       0.006
   0.33333333  0.16666667  0.40000000       0.006
   0.16666667 -0.33333333  0.40000000       0.006
  -0.33333333 -0.16666667  0.40000000       0.006
  -0.16666667  0.33333333  0.40000000       0.006
  -0.33333333  0.16666667 -0.40000000       0.006
  -0.16666667 -0.33333333 -0.40000000       0.006
   0.33333333 -0.16666667 -0.40000000       0.006
   0.16666667  0.33333333 -0.40000000       0.006
   0.50000000  0.16666667  0.40000000       0.006
   0.16666667  0.50000000  0.40000000       0.006
   0.50000000 -0.16666667  0.40000000       0.006
  -0.16666667  0.50000000  0.40000000       0.006
   0.33333333  0.33333333  0.40000000       0.006
   0.33333333 -0.33333333  0.40000000       0.006
  -0.33333333 -0.33333333  0.40000000       0.006
  -0.33333333  0.33333333  0.40000000       0.006
   0.50000000  0.33333333  0.40000000       0.006
   0.33333333  0.50000000  0.40000000       0.006
   0.50000000 -0.33333333  0.40000000       0.006
  -0.33333333  0.50000000  0.40000000       0.006
   0.50000000  0.50000000  0.40000000       0.006
   0.00000000  0.00000000  0.50000000       0.003
   0.16666667 -0.00000000  0.50000000       0.006
  -0.00000000 -0.16666667  0.50000000       0.006
   0.33333333 -0.00000000  0.50000000       0.006
   0.00000000 -0.33333333  0.50000000       0.006
   0.50000000  0.00000000  0.50000000       0.003
   0.00000000  0.50000000  0.50000000       0.003
   0.16666667  0.16666667  0.50000000       0.006
   0.16666667 -0.16666667  0.50000000       0.006
   0.33333333  0.16666667  0.50000000       0.006
   0.16666667 -0.33333333  0.50000000       0.006
  -0.33333333  0.16666667  0.50000000       0.006
  -0.16666667 -0.33333333  0.50000000       0.006
   0.50000000  0.16666667  0.50000000       0.006
   0.16666667  0.50000000  0.50000000       0.006
   0.33333333  0.33333333  0.50000000       0.006
   0.33333333 -0.33333333  0.50000000       0.006
   0.50000000  0.33333333  0.50000000       0.006
   0.33333333  0.50000000  0.50000000       0.006
   0.50000000  0.50000000  0.50000000       0.003
 
 position of ions in fractional coordinates (direct lattice) 
   0.50000733  0.00000516  0.42319494
   0.00000778  0.49998741  0.57679898
   0.49999965  0.50001245  0.99999400
   0.00000096  0.99999187  0.00000018
   0.77619860  0.27621047  0.10947716
   0.72378911  0.77619868  0.89050250
   0.22379719  0.72380760  0.10951294
   0.27619938  0.22378635  0.89051931
 
 position of ions in cartesian coordinates  (Angst):
   2.75774209  0.00002320  1.42605347
   0.00002359  2.75766260  1.94370075
   2.75768041  2.75779539  3.36975449
  -0.00001351  5.51540792  0.00002350
   4.28105256  1.52341224  0.36888518
   3.99196949  4.28108224  3.00078757
   1.23431953  3.99212350  0.36904144
   1.52333550  1.23428656  3.00085217
 


--------------------------------------------------------------------------------------------------------


 k-point   1 :   0.0000 0.0000 0.0000  plane waves:    2753
 k-point   2 :   0.1667-0.0000-0.0000  plane waves:    2743
 k-point   3 :  -0.0000-0.1667 0.0000  plane waves:    2743
 k-point   4 :   0.3333-0.0000-0.0000  plane waves:    2754
 k-point   5 :  -0.0000-0.3333-0.0000  plane waves:    2754
 k-point   6 :   0.5000 0.0000-0.0000  plane waves:    2764
 k-point   7 :   0.0000 0.5000-0.0000  plane waves:    2764
 k-point   8 :   0.1667 0.1667-0.0000  plane waves:    2769
 k-point   9 :   0.1667-0.1667-0.0000  plane waves:    2769
 k-point  10 :   0.3333 0.1667-0.0000  plane waves:    2766
 k-point  11 :   0.1667-0.3333-0.0000  plane waves:    2766
 k-point  12 :  -0.3333 0.1667 0.0000  plane waves:    2766
 k-point  13 :  -0.1667-0.3333 0.0000  plane waves:    2766
 k-point  14 :   0.5000 0.1667-0.0000  plane waves:    2758
 k-point  15 :   0.1667 0.5000-0.0000  plane waves:    2758
 k-point  16 :   0.3333 0.3333 0.0000  plane waves:    2778
 k-point  17 :   0.3333-0.3333-0.0000  plane waves:    2778
 k-point  18 :   0.5000 0.3333 0.0000  plane waves:    2768
 k-point  19 :   0.3333 0.5000 0.0000  plane waves:    2768
 k-point  20 :   0.5000 0.5000-0.0000  plane waves:    2764
 k-point  21 :   0.0000 0.0000 0.1000  plane waves:    2749
 k-point  22 :   0.1667-0.0000 0.1000  plane waves:    2759
 k-point  23 :   0.0000-0.1667 0.1000  plane waves:    2759
 k-point  24 :  -0.1667 0.0000 0.1000  plane waves:    2759
 k-point  25 :   0.0000 0.1667 0.1000  plane waves:    2759
 k-point  26 :   0.3333-0.0000 0.1000  plane waves:    2756
 k-point  27 :  -0.0000-0.3333 0.1000  plane waves:    2756
 k-point  28 :  -0.3333-0.0000 0.1000  plane waves:    2756
 k-point  29 :   0.0000 0.3333 0.1000  plane waves:    2756
 k-point  30 :   0.5000-0.0000 0.1000  plane waves:    2758
 k-point  31 :  -0.0000 0.5000 0.1000  plane waves:    2758
 k-point  32 :   0.1667 0.1667 0.1000  plane waves:    2765
 k-point  33 :   0.1667-0.1667 0.1000  plane waves:    2765
 k-point  34 :  -0.1667-0.1667 0.1000  plane waves:    2765
 k-point  35 :  -0.1667 0.1667 0.1000  plane waves:    2765
 k-point  36 :   0.3333 0.1667 0.1000  plane waves:    2762
 k-point  37 :   0.1667-0.3333 0.1000  plane waves:    2762
 k-point  38 :  -0.3333-0.1667 0.1000  plane waves:    2762
 k-point  39 :  -0.1667 0.3333 0.1000  plane waves:    2763
 k-point  40 :  -0.3333 0.1667-0.1000  plane waves:    2763
 k-point  41 :  -0.1667-0.3333-0.1000  plane waves:    2761
 k-point  42 :   0.3333-0.1667-0.1000  plane waves:    2763
 k-point  43 :   0.1667 0.3333-0.1000  plane waves:    2761
 k-point  44 :   0.5000 0.1667 0.1000  plane waves:    2762
 k-point  45 :   0.1667 0.5000 0.1000  plane waves:    2762
 k-point  46 :   0.5000-0.1667 0.1000  plane waves:    2762
 k-point  47 :  -0.1667 0.5000 0.1000  plane waves:    2762
 k-point  48 :   0.3333 0.3333 0.1000  plane waves:    2763
 k-point  49 :   0.3333-0.3333 0.1000  plane waves:    2763
 k-point  50 :  -0.3333-0.3333 0.1000  plane waves:    2763
 k-point  51 :  -0.3333 0.3333 0.1000  plane waves:    2763
 k-point  52 :   0.5000 0.3333 0.1000  plane waves:    2768
 k-point  53 :   0.3333 0.5000 0.1000  plane waves:    2768
 k-point  54 :   0.5000-0.3333 0.1000  plane waves:    2768
 k-point  55 :  -0.3333 0.5000 0.1000  plane waves:    2768
 k-point  56 :   0.5000 0.5000 0.1000  plane waves:    2772
 k-point  57 :   0.0000-0.0000 0.2000  plane waves:    2753
 k-point  58 :   0.1667 0.0000 0.2000  plane waves:    2764
 k-point  59 :   0.0000-0.1667 0.2000  plane waves:    2764
 k-point  60 :  -0.1667-0.0000 0.2000  plane waves:    2764
 k-point  61 :  -0.0000 0.1667 0.2000  plane waves:    2764
 k-point  62 :   0.3333-0.0000 0.2000  plane waves:    2766
 k-point  63 :   0.0000-0.3333 0.2000  plane waves:    2766
 k-point  64 :  -0.3333 0.0000 0.2000  plane waves:    2766
 k-point  65 :   0.0000 0.3333 0.2000  plane waves:    2766
 k-point  66 :   0.5000-0.0000 0.2000  plane waves:    2756
 k-point  67 :   0.0000 0.5000 0.2000  plane waves:    2756
 k-point  68 :   0.1667 0.1667 0.2000  plane waves:    2755
 k-point  69 :   0.1667-0.1667 0.2000  plane waves:    2755
 k-point  70 :  -0.1667-0.1667 0.2000  plane waves:    2755
 k-point  71 :  -0.1667 0.1667 0.2000  plane waves:    2755
 k-point  72 :   0.3333 0.1667 0.2000  plane waves:    2745
 k-point  73 :   0.1667-0.3333 0.2000  plane waves:    2745
 k-point  74 :  -0.3333-0.1667 0.2000  plane waves:    2745
 k-point  75 :  -0.1667 0.3333 0.2000  plane waves:    2745
 k-point  76 :  -0.3333 0.1667-0.2000  plane waves:    2745
 k-point  77 :  -0.1667-0.3333-0.2000  plane waves:    2745
 k-point  78 :   0.3333-0.1667-0.2000  plane waves:    2745
 k-point  79 :   0.1667 0.3333-0.2000  plane waves:    2745
 k-point  80 :   0.5000 0.1667 0.2000  plane waves:    2756
 k-point  81 :   0.1667 0.5000 0.2000  plane waves:    2756
 k-point  82 :   0.5000-0.1667 0.2000  plane waves:    2756
 k-point  83 :  -0.1667 0.5000 0.2000  plane waves:    2756
 k-point  84 :   0.3333 0.3333 0.2000  plane waves:    2761
 k-point  85 :   0.3333-0.3333 0.2000  plane waves:    2761
 k-point  86 :  -0.3333-0.3333 0.2000  plane waves:    2761
 k-point  87 :  -0.3333 0.3333 0.2000  plane waves:    2761
 k-point  88 :   0.5000 0.3333 0.2000  plane waves:    2770
 k-point  89 :   0.3333 0.5000 0.2000  plane waves:    2770
 k-point  90 :   0.5000-0.3333 0.2000  plane waves:    2770
 k-point  91 :  -0.3333 0.5000 0.2000  plane waves:    2770
 k-point  92 :   0.5000 0.5000 0.2000  plane waves:    2764
 k-point  93 :   0.0000 0.0000 0.3000  plane waves:    2788
 k-point  94 :   0.1667 0.0000 0.3000  plane waves:    2762
 k-point  95 :   0.0000-0.1667 0.3000  plane waves:    2762
 k-point  96 :  -0.1667-0.0000 0.3000  plane waves:    2762
 k-point  97 :   0.0000 0.1667 0.3000  plane waves:    2762
 k-point  98 :   0.3333-0.0000 0.3000  plane waves:    2757
 k-point  99 :   0.0000-0.3333 0.3000  plane waves:    2757
 k-point 100 :  -0.3333 0.0000 0.3000  plane waves:    2757
 k-point 101 :   0.0000 0.3333 0.3000  plane waves:    2757
 k-point 102 :   0.5000-0.0000 0.3000  plane waves:    2738
 k-point 103 :   0.0000 0.5000 0.3000  plane waves:    2738
 k-point 104 :   0.1667 0.1667 0.3000  plane waves:    2762
 k-point 105 :   0.1667-0.1667 0.3000  plane waves:    2762
 k-point 106 :  -0.1667-0.1667 0.3000  plane waves:    2762
 k-point 107 :  -0.1667 0.1667 0.3000  plane waves:    2762
 k-point 108 :   0.3333 0.1667 0.3000  plane waves:    2763
 k-point 109 :   0.1667-0.3333 0.3000  plane waves:    2763
 k-point 110 :  -0.3333-0.1667 0.3000  plane waves:    2763
 k-point 111 :  -0.1667 0.3333 0.3000  plane waves:    2763
 k-point 112 :  -0.3333 0.1667-0.3000  plane waves:    2763
 k-point 113 :  -0.1667-0.3333-0.3000  plane waves:    2763
 k-point 114 :   0.3333-0.1667-0.3000  plane waves:    2763
 k-point 115 :   0.1667 0.3333-0.3000  plane waves:    2763
 k-point 116 :   0.5000 0.1667 0.3000  plane waves:    2758
 k-point 117 :   0.1667 0.5000 0.3000  plane waves:    2758
 k-point 118 :   0.5000-0.1667 0.3000  plane waves:    2758
 k-point 119 :  -0.1667 0.5000 0.3000  plane waves:    2758
 k-point 120 :   0.3333 0.3333 0.3000  plane waves:    2753
 k-point 121 :   0.3333-0.3333 0.3000  plane waves:    2753
 k-point 122 :  -0.3333-0.3333 0.3000  plane waves:    2753
 k-point 123 :  -0.3333 0.3333 0.3000  plane waves:    2753
 k-point 124 :   0.5000 0.3333 0.3000  plane waves:    2750
 k-point 125 :   0.3333 0.5000 0.3000  plane waves:    2750
 k-point 126 :   0.5000-0.3333 0.3000  plane waves:    2750
 k-point 127 :  -0.3333 0.5000 0.3000  plane waves:    2750
 k-point 128 :   0.5000 0.5000 0.3000  plane waves:    2748
 k-point 129 :   0.0000-0.0000 0.4000  plane waves:    2780
 k-point 130 :   0.1667-0.0000 0.4000  plane waves:    2771
 k-point 131 :   0.0000-0.1667 0.4000  plane waves:    2771
 k-point 132 :  -0.1667-0.0000 0.4000  plane waves:    2771
 k-point 133 :   0.0000 0.1667 0.4000  plane waves:    2771
 k-point 134 :   0.3333 0.0000 0.4000  plane waves:    2754
 k-point 135 :   0.0000-0.3333 0.4000  plane waves:    2754
 k-point 136 :  -0.3333-0.0000 0.4000  plane waves:    2754
 k-point 137 :  -0.0000 0.3333 0.4000  plane waves:    2754
 k-point 138 :   0.5000 0.0000 0.4000  plane waves:    2738
 k-point 139 :   0.0000 0.5000 0.4000  plane waves:    2738
 k-point 140 :   0.1667 0.1667 0.4000  plane waves:    2772
 k-point 141 :   0.1667-0.1667 0.4000  plane waves:    2772
 k-point 142 :  -0.1667-0.1667 0.4000  plane waves:    2772
 k-point 143 :  -0.1667 0.1667 0.4000  plane waves:    2772
 k-point 144 :   0.3333 0.1667 0.4000  plane waves:    2764
 k-point 145 :   0.1667-0.3333 0.4000  plane waves:    2764
 k-point 146 :  -0.3333-0.1667 0.4000  plane waves:    2764
 k-point 147 :  -0.1667 0.3333 0.4000  plane waves:    2764
 k-point 148 :  -0.3333 0.1667-0.4000  plane waves:    2764
 k-point 149 :  -0.1667-0.3333-0.4000  plane waves:    2764
 k-point 150 :   0.3333-0.1667-0.4000  plane waves:    2764
 k-point 151 :   0.1667 0.3333-0.4000  plane waves:    2764
 k-point 152 :   0.5000 0.1667 0.4000  plane waves:    2764
 k-point 153 :   0.1667 0.5000 0.4000  plane waves:    2764
 k-point 154 :   0.5000-0.1667 0.4000  plane waves:    2764
 k-point 155 :  -0.1667 0.5000 0.4000  plane waves:    2764
 k-point 156 :   0.3333 0.3333 0.4000  plane waves:    2753
 k-point 157 :   0.3333-0.3333 0.4000  plane waves:    2753
 k-point 158 :  -0.3333-0.3333 0.4000  plane waves:    2753
 k-point 159 :  -0.3333 0.3333 0.4000  plane waves:    2753
 k-point 160 :   0.5000 0.3333 0.4000  plane waves:    2752
 k-point 161 :   0.3333 0.5000 0.4000  plane waves:    2752
 k-point 162 :   0.5000-0.3333 0.4000  plane waves:    2752
 k-point 163 :  -0.3333 0.5000 0.4000  plane waves:    2752
 k-point 164 :   0.5000 0.5000 0.4000  plane waves:    2756
 k-point 165 :   0.0000 0.0000 0.5000  plane waves:    2740
 k-point 166 :   0.1667-0.0000 0.5000  plane waves:    2778
 k-point 167 :  -0.0000-0.1667 0.5000  plane waves:    2778
 k-point 168 :   0.3333-0.0000 0.5000  plane waves:    2768
 k-point 169 :   0.0000-0.3333 0.5000  plane waves:    2768
 k-point 170 :   0.5000 0.0000 0.5000  plane waves:    2744
 k-point 171 :   0.0000 0.5000 0.5000  plane waves:    2744
 k-point 172 :   0.1667 0.1667 0.5000  plane waves:    2762
 k-point 173 :   0.1667-0.1667 0.5000  plane waves:    2762
 k-point 174 :   0.3333 0.1667 0.5000  plane waves:    2762
 k-point 175 :   0.1667-0.3333 0.5000  plane waves:    2762
 k-point 176 :  -0.3333 0.1667 0.5000  plane waves:    2762
 k-point 177 :  -0.1667-0.3333 0.5000  plane waves:    2762
 k-point 178 :   0.5000 0.1667 0.5000  plane waves:    2764
 k-point 179 :   0.1667 0.5000 0.5000  plane waves:    2764
 k-point 180 :   0.3333 0.3333 0.5000  plane waves:    2764
 k-point 181 :   0.3333-0.3333 0.5000  plane waves:    2764
 k-point 182 :   0.5000 0.3333 0.5000  plane waves:    2752
 k-point 183 :   0.3333 0.5000 0.5000  plane waves:    2752
 k-point 184 :   0.5000 0.5000 0.5000  plane waves:    2760

 maximum and minimum number of plane-waves per node :       724      660

 maximum number of plane-waves:      2788
 maximum index in each direction: 
   IXMAX=   10   IYMAX=   10   IZMAX=    6
   IXMIN=  -10   IYMIN=  -10   IZMIN=   -6


 real space projection operators:
  total allocation   :       4558.41 KBytes
  max/ min on nodes  :       1202.23       1076.97


 parallel 3D FFT for wavefunctions:
    minimum data exchange during FFTs selected (reduces bandwidth)
 parallel 3D FFT for charge:
    minimum data exchange during FFTs selected (reduces bandwidth)


 total amount of memory used by VASP MPI-rank0   110493. kBytes
=======================================================================

   base      :      30000. kBytes
   nonlr-proj:       2562. kBytes
   fftplans  :       1526. kBytes
   grid      :       5405. kBytes
   one-center:         62. kBytes
   wavefun   :      70938. kBytes
 
     INWAV:  cpu time    0.0000: real time    0.0000
 Broyden mixing: mesh for mixing (old mesh)
   NGX = 21   NGY = 21   NGZ = 13
  (NGX  = 84   NGY  = 84   NGZ  = 56)
  gives a total of   5733 points

 initial charge density was supplied:
 number of electron      71.9999992 magnetization       8.0000006
 keeping initial charge density in first step


--------------------------------------------------------------------------------------------------------


 Maximum index for non-local projection operator         2162
 Maximum index for augmentation-charges         1957 (set IRDMAX)


--------------------------------------------------------------------------------------------------------


 First call to EWALD:  gamma=   0.379
 Maximum number of real-space cells 2x 2x 4
 Maximum number of reciprocal cells 3x 3x 2

    FEWALD:  cpu time    0.0009: real time    0.0009


--------------------------------------- Iteration      1(   1)  ---------------------------------------


    POTLOK:  cpu time    0.0898: real time    0.0898
    SETDIJ:  cpu time    0.9632: real time    0.9632
atom =   3  type =  2  l = 2
 
 onsite density matrix
 
spin component  1
 
  1.0008 -0.0000  0.0000  0.0000 -0.0061
 -0.0000  0.9547 -0.0000  0.0000  0.0000
  0.0000 -0.0000  0.9135 -0.0000 -0.0000
  0.0000  0.0000 -0.0000  0.9547 -0.0000
 -0.0061  0.0000 -0.0000 -0.0000  0.9650
 
spin component  2
 
  0.1725 -0.0000  0.0000 -0.0000 -0.0210
 -0.0000  0.0404  0.0000  0.0000  0.0000
  0.0000  0.0000  0.8108 -0.0000  0.0000
 -0.0000  0.0000 -0.0000  0.0404 -0.0000
 -0.0210  0.0000  0.0000 -0.0000  0.0607
 
 occupancies and eigenvectors
 
  o =  0.0404  v =  0.0000  0.0000  0.0000  0.0000  0.0000 -0.0001  0.0812 -0.0001 -0.9967 -0.0001      0.0000  0.0000  0.0000  0.0000  0.0000  0.0000  0.0000  0.0000  0.0000  0.0000
[...]
      9     -17.0420      1.00000
     10     -17.0419      1.00000
     11     -16.7194      1.00000
     12     -16.7193      1.00000
     13     -16.5391      1.00000
     14     -16.5391      1.00000
     15     -13.9796      1.00000
     16     -13.9796      1.00000
     17     -13.5091      1.00000
     18     -13.5091      1.00000
     19      -0.6104      1.00000
     20      -0.6104      1.00000
     21       0.2141      1.00000
     22       0.2141      1.00000
     23       0.7360      1.00000
     24       0.7361      1.00000
     25       1.0817      1.00000
     26       1.0817      1.00000
     27       1.2576      1.00000
     28       1.2577      1.00000
     29       2.1099      1.00000
     30       2.1099      1.00000
     31       4.7252      1.00000
     32       4.7253      1.00000
     33       7.1418      0.00000
     34       7.1419      0.00000
     35       7.9480      0.00000
     36       7.9481      0.00000
     37       8.1850      0.00000
     38       8.1852      0.00000
     39       8.6792      0.00000
     40       8.6793      0.00000
     41       9.2274      0.00000
     42       9.2275      0.00000
     43      10.9694      0.00000
     44      10.9695      0.00000
     45      11.4402      0.00000
     46      11.4403      0.00000
     47      12.0153      0.00000
     48      12.0155      0.00000

 k-point   184 :       0.5000    0.5000    0.5000
  band No.  band energies     occupation 
      1     -47.7653      1.00000
      2     -47.7653      1.00000
      3     -47.7615      1.00000
      4     -47.7615      1.00000
      5     -47.6854      1.00000
      6     -47.6854      1.00000
      7     -36.3857      1.00000
      8     -36.3855      1.00000
      9     -17.0217      1.00000
     10     -17.0216      1.00000
     11     -16.7460      1.00000
     12     -16.7460      1.00000
     13     -16.5329      1.00000
     14     -16.5329      1.00000
     15     -13.9879      1.00000
     16     -13.9879      1.00000
     17     -13.5023      1.00000
     18     -13.5023      1.00000
     19      -0.6420      1.00000
     20      -0.6419      1.00000
     21       0.1937      1.00000
     22       0.1937      1.00000
     23       0.9346      1.00000
     24       0.9346      1.00000
     25       1.1225      1.00000
     26       1.1226      1.00000
     27       1.1803      1.00000
     28       1.1803      1.00000
     29       1.9985      1.00000
     30       1.9986      1.00000
     31       4.7110      1.00000
     32       4.7110      1.00000
     33       7.2685      0.00000
     34       7.2686      0.00000
     35       7.9720      0.00000
     36       7.9720      0.00000
     37       8.3575      0.00000
     38       8.3576      0.00000
     39       8.4226      0.00000
     40       8.4227      0.00000
     41       9.1841      0.00000
     42       9.1841      0.00000
     43      10.9995      0.00000
     44      10.9996      0.00000
     45      11.2759      0.00000
     46      11.2760      0.00000
     47      11.9391      0.00000
     48      11.9393      0.00000


--------------------------------------------------------------------------------------------------------


 soft charge-density along one line, spin component           1
         0         1         2         3         4         5         6         7         8         9
 total charge-density along one line
 
 soft charge-density along one line, spin component           2
         0         1         2         3         4         5         6         7         8         9
 total charge-density along one line
 
 pseudopotential strength for first ion, spin component:           1
-18.093  -5.048  -0.000  -0.002  -0.000  -0.000   0.001  -0.000
 -5.048  -1.767  -0.000  -0.002  -0.000   0.000   0.004   0.000
 -0.000  -0.000 -19.244  -0.000  -0.004   6.157   0.000   0.006
 -0.002  -0.002  -0.000 -19.229  -0.000   0.000   6.146  -0.000
 -0.000  -0.000  -0.004  -0.000 -19.244   0.006  -0.000   6.157
 -0.000   0.000   6.157   0.000   0.006   9.039   0.000  -0.002
  0.001   0.004   0.000   6.146  -0.000   0.000   9.020   0.000
 -0.000   0.000   0.006  -0.000   6.157  -0.002   0.000   9.039
 -0.003  -0.000  -0.000  -0.014  -0.000   0.000   0.024   0.000
 -0.000   0.000  -0.002  -0.000  -0.014   0.008   0.000   0.024
  0.009  -0.002   0.000  -0.000   0.000  -0.000   0.002  -0.000
 -0.000   0.000  -0.014  -0.000  -0.002   0.024   0.000   0.008
 -0.000   0.000  -0.000  -0.000  -0.000   0.000   0.000   0.000
 -0.005  -0.000  -0.000  -0.017  -0.000   0.000   0.017   0.000
 -0.000   0.000  -0.003  -0.000  -0.017   0.006   0.000   0.017
  0.011  -0.000   0.000  -0.000   0.000  -0.000   0.002  -0.000
 -0.000   0.000  -0.017  -0.000  -0.003   0.017   0.000   0.006
 -0.000   0.000  -0.000  -0.000  -0.000   0.000   0.000   0.000
 pseudopotential strength for first ion, spin component:           2
-18.092  -5.050  -0.000  -0.005  -0.000  -0.000   0.002  -0.000
 -5.050  -1.766  -0.000  -0.002  -0.000   0.000   0.009   0.000
 -0.000  -0.000 -19.244  -0.000  -0.004   6.157   0.000   0.006
 -0.005  -0.002  -0.000 -19.231  -0.000   0.000   6.148  -0.000
 -0.000  -0.000  -0.004  -0.000 -19.244   0.006  -0.000   6.157
 -0.000   0.000   6.157   0.000   0.006   9.030   0.000  -0.002
  0.002   0.009   0.000   6.148  -0.000   0.000   9.013   0.000
 -0.000   0.000   0.006  -0.000   6.157  -0.002   0.000   9.030
 -0.003  -0.000   0.000  -0.013  -0.000   0.000   0.022   0.000
 -0.000   0.000  -0.005  -0.000  -0.013   0.015   0.000   0.022
  0.008  -0.001   0.000   0.001   0.000  -0.000   0.004  -0.000
 -0.000   0.000  -0.013  -0.000  -0.005   0.022   0.000   0.015
 -0.000   0.000  -0.000  -0.000  -0.000   0.000   0.000   0.000
 -0.004  -0.000   0.000  -0.015  -0.000   0.000   0.015   0.000
 -0.000   0.000  -0.006  -0.000  -0.015   0.011   0.000   0.015
  0.009   0.000   0.000   0.001   0.000  -0.000   0.003  -0.000
 -0.000   0.000  -0.015  -0.000  -0.006   0.015   0.000   0.011
 -0.000   0.000  -0.000  -0.000  -0.000   0.000   0.000   0.000
 total augmentation occupancy for first ion, spin component:           1
  2.004   0.012   0.000   0.000   0.000   0.000   0.001   0.000   0.001   0.000  -0.002   0.000   0.000   0.000   0.000  -0.000
  0.012   0.501   0.000   0.006   0.000  -0.000  -0.003  -0.000  -0.028  -0.000   0.025   0.000  -0.000   0.015   0.000  -0.015
  0.000   0.000   2.008   0.000  -0.000   0.003   0.000   0.002  -0.000   0.005  -0.000   0.017  -0.000   0.000  -0.001  -0.000
  0.000   0.006   0.000   2.008   0.000   0.000   0.001  -0.000   0.016  -0.000  -0.003  -0.000  -0.000  -0.005   0.000   0.002
  0.000   0.000  -0.000   0.000   2.008   0.002  -0.000   0.003  -0.000   0.017  -0.000   0.005   0.000   0.000  -0.006  -0.000
  0.000  -0.000   0.003   0.000   0.002   0.031  -0.000  -0.002   0.000  -0.012   0.000  -0.037   0.000  -0.000   0.007  -0.000
  0.001  -0.003   0.000   0.001  -0.000  -0.000   0.033   0.000  -0.035  -0.000   0.010  -0.000  -0.000   0.020   0.000  -0.005
  0.000  -0.000   0.002  -0.000   0.003  -0.002   0.000   0.031  -0.000  -0.037   0.000  -0.012  -0.000   0.000   0.021  -0.000
  0.001  -0.028  -0.000   0.016  -0.000   0.000  -0.035  -0.000   0.387   0.000  -0.093  -0.000  -0.000  -0.215  -0.000   0.052
  0.000  -0.000   0.005  -0.000   0.017  -0.012  -0.000  -0.037   0.000   0.409  -0.000  -0.129   0.000  -0.000  -0.231   0.000
 -0.002   0.025  -0.000  -0.003  -0.000   0.000   0.010   0.000  -0.093  -0.000   0.182  -0.000   0.000   0.052   0.000  -0.100
  0.000   0.000   0.017  -0.000   0.005  -0.037  -0.000  -0.012  -0.000  -0.129  -0.000   0.409  -0.000   0.000   0.073  -0.000
  0.000  -0.000  -0.000  -0.000   0.000   0.000  -0.000  -0.000  -0.000   0.000   0.000  -0.000   0.153   0.000  -0.000  -0.000
  0.000   0.015   0.000  -0.005   0.000  -0.000   0.020   0.000  -0.215  -0.000   0.052   0.000   0.000   0.122   0.000  -0.030
  0.000   0.000  -0.001   0.000  -0.006   0.007   0.000   0.021  -0.000  -0.231   0.000   0.073  -0.000   0.000   0.133  -0.000
 -0.000  -0.015  -0.000   0.002  -0.000  -0.000  -0.005  -0.000   0.052   0.000  -0.100  -0.000  -0.000  -0.030  -0.000   0.056
 -0.000  -0.000  -0.006   0.000  -0.001   0.021   0.000   0.007   0.000   0.073  -0.000  -0.231   0.000  -0.000  -0.042   0.000
  0.000   0.000   0.000   0.000   0.000  -0.000   0.000   0.000   0.000  -0.000  -0.000   0.000  -0.084  -0.000   0.000   0.000
 total augmentation occupancy for first ion, spin component:           2
  0.000   0.001  -0.000  -0.000   0.000  -0.000  -0.000   0.000   0.000   0.000  -0.000   0.000   0.000  -0.000  -0.000  -0.000
  0.001  -0.005  -0.000  -0.000   0.000  -0.000   0.001  -0.000  -0.000  -0.000   0.006   0.000  -0.000   0.000   0.000  -0.003
 -0.000  -0.000  -0.000   0.000   0.000   0.000   0.000  -0.000  -0.000  -0.000  -0.000   0.000   0.000   0.000  -0.000   0.000
 -0.000  -0.000   0.000   0.000  -0.000   0.000   0.000   0.000   0.000  -0.000   0.000  -0.000  -0.000   0.000   0.000   0.000
  0.000   0.000   0.000  -0.000  -0.000  -0.000   0.000   0.000   0.000   0.000   0.000  -0.000  -0.000  -0.000   0.000  -0.000
 -0.000  -0.000   0.000   0.000  -0.000  -0.001  -0.000   0.000  -0.000   0.001   0.000  -0.001  -0.000   0.000  -0.001  -0.000
 -0.000   0.001   0.000   0.000   0.000  -0.000  -0.000   0.000  -0.001   0.000  -0.000  -0.000  -0.000   0.000  -0.000   0.000
  0.000  -0.000  -0.000   0.000   0.000   0.000   0.000  -0.001  -0.000  -0.001  -0.000   0.001   0.000   0.000   0.000   0.000
  0.000  -0.000  -0.000   0.000   0.000  -0.000  -0.001  -0.000   0.003   0.000  -0.000  -0.000   0.000  -0.002  -0.000   0.000
  0.000  -0.000  -0.000  -0.000   0.000   0.001   0.000  -0.001   0.000  -0.003   0.000  -0.001  -0.000  -0.000   0.001   0.000
 -0.000   0.006  -0.000   0.000   0.000   0.000  -0.000  -0.000  -0.000   0.000  -0.001   0.000  -0.000   0.000   0.000   0.000
  0.000   0.000   0.000  -0.000  -0.000  -0.001  -0.000   0.001  -0.000  -0.001   0.000  -0.003  -0.000   0.000   0.001  -0.000
  0.000  -0.000   0.000  -0.000  -0.000  -0.000  -0.000   0.000   0.000  -0.000  -0.000  -0.000   0.011  -0.000   0.000   0.000
 -0.000   0.000   0.000   0.000  -0.000   0.000   0.000   0.000  -0.002  -0.000   0.000   0.000  -0.000   0.001   0.000  -0.000
 -0.000   0.000  -0.000   0.000   0.000  -0.001  -0.000   0.000  -0.000   0.001   0.000   0.001   0.000   0.000  -0.000  -0.000
 -0.000  -0.003   0.000   0.000  -0.000  -0.000   0.000   0.000   0.000   0.000   0.000  -0.000   0.000  -0.000  -0.000  -0.000
 -0.000  -0.000   0.000   0.000  -0.000   0.000   0.000  -0.001   0.000   0.001  -0.000   0.001   0.000  -0.000  -0.000   0.000
 -0.000  -0.000  -0.000   0.000   0.000   0.000   0.000  -0.000  -0.000   0.000   0.000  -0.000  -0.006   0.000  -0.000  -0.000


------------------------ aborting loop because EDIFF is reached ----------------------------------------


 


 total charge     
 
# of ion       s       p       d       tot
------------------------------------------
    1        2.030   5.874   0.262   8.166
    2        2.030   5.874   0.262   8.166
    3        0.317   6.290   5.891  12.498
    4        0.317   6.290   5.891  12.498
    5        1.562   3.504   0.000   5.066
    6        1.562   3.504   0.000   5.066
    7        1.562   3.504   0.000   5.066
    8        1.562   3.504   0.000   5.066
--------------------------------------------------
tot         10.940  38.344  12.305  61.590
 


 magnetization (x)
 
# of ion       s       p       d       tot
------------------------------------------
    1       -0.000  -0.001   0.001  -0.001
    2       -0.000  -0.001   0.001  -0.001
    3        0.016   0.031   3.661   3.708
    4        0.016   0.031   3.661   3.708
    5        0.010   0.098   0.000   0.108
    6        0.010   0.098   0.000   0.108
    7        0.010   0.098   0.000   0.108
    8        0.010   0.098   0.000   0.108
--------------------------------------------------
tot          0.070   0.453   7.324   7.846
 
    CHARGE:  cpu time    0.8722: real time    0.8723
    FORLOC:  cpu time    0.0027: real time    0.0027
    FORNL :  cpu time    7.3777: real time    7.4373
    STRESS:  cpu time  144.1909: real time  144.1934
    FORCOR:  cpu time    0.0883: real time    0.0883
    FORHAR:  cpu time    0.0078: real time    0.0078
    MIXING:  cpu time    0.0025: real time    0.0025
    OFIELD:  cpu time    0.0000: real time    0.0000

  FORCE on cell =-STRESS in cart. coord.  units (eV):
  Direction    XX          YY          ZZ          XY          YZ          ZX
  --------------------------------------------------------------------------------------
  Alpha Z   368.56944   368.56944   368.56944
  Ewald   -1601.69665 -1601.69768 -2717.49267     0.01209    -0.03834     0.00010
  Hartree  1029.64019  1029.64034   303.27026     0.00620    -0.02112    -0.00048
  E(xc)    -423.16499  -423.16501  -423.46853     0.00004    -0.00007     0.00001
  Local    -578.67841  -578.67831  1220.44745    -0.01826     0.05912    -0.00062
  n-local  -216.70373  -216.70387  -218.90246    -0.00003     0.00034    -0.00019
  augment   378.79300   378.79334   396.74693     0.00008     0.00058     0.00049
  Kinetic  1043.10091  1043.10103  1070.79485     0.00023    -0.00120     0.00093
  Fock        0.00000     0.00000     0.00000     0.00000     0.00000     0.00000
  -------------------------------------------------------------------------------------
  Total      -0.14024    -0.14072    -0.03474     0.00034    -0.00070     0.00023
  in kB      -2.18834    -2.19586    -0.54210     0.00528    -0.01088     0.00364
  external pressure =       -1.64 kB  Pullay stress =        0.00 kB


 VOLUME and BASIS-vectors are now :
 -----------------------------------------------------------------------------
  energy-cutoff  :      520.00
  volume of cell :      102.68
      direct lattice vectors                 reciprocal lattice vectors
     5.517907429 -0.000010094 -0.000042156     0.181228122  0.000000330  0.000000775
    -0.000010051  5.517919959  0.000002187     0.000000332  0.181227710  0.000000137
    -0.000014417 -0.000002544  3.372233785     0.000002266 -0.000000118  0.296539346

  length of vectors
     5.517907430  5.517919959  3.372233785     0.181228122  0.181227710  0.296539346


 FORCES acting on ions
    electron-ion (+dipol)            ewald-force                    non-local-force                 convergence-correction
 -----------------------------------------------------------------------------------------------
   -.131E-02 -.101E-01 -.437E+02   0.917E-03 0.986E-02 0.431E+02   0.928E-05 0.117E-03 0.509E+00   0.163E-05 0.258E-04 -.756E-04
   0.384E-02 -.111E-01 0.436E+02   -.408E-02 0.110E-01 -.431E+02   -.248E-03 0.559E-03 -.508E+00   -.653E-05 -.109E-04 0.878E-04
   0.197E-01 0.223E-01 0.424E-02   -.182E-01 -.182E-01 -.397E-02   -.153E-02 -.471E-02 -.218E-04   -.134E-04 -.613E-04 -.704E-05
   0.183E-01 -.316E-02 0.135E-02   -.170E-01 -.614E-03 -.142E-02   -.130E-02 0.426E-02 0.112E-03   -.165E-04 0.512E-04 -.406E-05
   -.120E+02 -.120E+02 -.440E+02   0.127E+02 0.127E+02 0.454E+02   -.626E+00 -.626E+00 -.141E+01   -.114E-04 -.107E-04 0.174E-03
   0.120E+02 -.120E+02 0.440E+02   -.126E+02 0.127E+02 -.454E+02   0.626E+00 -.626E+00 0.141E+01   0.121E-04 -.978E-05 -.177E-03
   0.120E+02 0.120E+02 -.440E+02   -.127E+02 -.127E+02 0.454E+02   0.625E+00 0.625E+00 -.141E+01   0.700E-05 0.602E-05 0.176E-03
   -.120E+02 0.120E+02 0.440E+02   0.127E+02 -.126E+02 -.454E+02   -.627E+00 0.627E+00 0.141E+01   -.116E-04 0.134E-04 -.171E-03
 -----------------------------------------------------------------------------------------------
   0.522E-02 -.174E-04 -.233E-03   0.142E-13 -.142E-13 0.142E-13   -.541E-02 0.158E-03 0.434E-03   -.387E-04 0.383E-05 0.352E-05
 
 
 POSITION                                       TOTAL-FORCE (eV/Angst)
 -----------------------------------------------------------------------------------
      2.75898      0.00002      1.42694        -0.000355     -0.000126     -0.005992
      0.00001      2.75890      1.94526        -0.000465      0.000496      0.006104
      2.75894      2.75899     -0.00003         0.000008     -0.000677      0.000206
     -0.00001     -0.00002     -0.00000        -0.000002      0.000490      0.000007
      4.28317      1.52426      0.36880         0.008509      0.007879     -0.015000
      3.99362      4.28318      3.00330        -0.007862      0.008493      0.014997
      1.23471      3.99371      0.36894        -0.008281     -0.008844     -0.015230
      1.52421      1.23468      3.00338         0.008447     -0.007710      0.014909
 -----------------------------------------------------------------------------------
    total drift:                               -0.000225      0.000144      0.000204


--------------------------------------------------------------------------------------------------------



  FREE ENERGIE OF THE ION-ELECTRON SYSTEM (eV)
  ---------------------------------------------------
  free  energy   TOTEN  =       -96.39588384 eV

  energy  without entropy=      -96.39588384  energy(sigma->0) =      -96.39588384
 
 d Force =-0.3756744E-04[-0.391E-04,-0.361E-04]  d Energy = 0.5421312E-03-0.580E-03
 d Force = 0.6717669E-01[ 0.672E-01, 0.672E-01]  d Ewald  = 0.3933467E+01-0.387E+01


--------------------------------------------------------------------------------------------------------


    POTLOK:  cpu time    1.2906: real time    1.2906


--------------------------------------------------------------------------------------------------------




--------------------------------------------------------------------------------------------------------


  
 reached required accuracy - stopping structural energy minimisation
     LOOP+:  cpu time  730.1873: real time  730.2725
    4ORBIT:  cpu time    0.0000: real time    0.0000
 


 total charge     
 
# of ion       s       p       d       tot
------------------------------------------
    1        2.030   5.874   0.262   8.166
    2        2.030   5.874   0.262   8.166
    3        0.317   6.290   5.891  12.498
    4        0.317   6.290   5.891  12.498
    5        1.562   3.504   0.000   5.066
    6        1.562   3.504   0.000   5.066
    7        1.562   3.504   0.000   5.066
    8        1.562   3.504   0.000   5.066
--------------------------------------------------
tot         10.940  38.344  12.305  61.590
 


 magnetization (x)
 
# of ion       s       p       d       tot
------------------------------------------
    1       -0.000  -0.001   0.001  -0.001
    2       -0.000  -0.001   0.001  -0.001
    3        0.016   0.031   3.661   3.708
    4        0.016   0.031   3.661   3.708
    5        0.010   0.098   0.000   0.108
    6        0.010   0.098   0.000   0.108
    7        0.010   0.098   0.000   0.108
    8        0.010   0.098   0.000   0.108
--------------------------------------------------
tot          0.070   0.453   7.324   7.846
 

 total amount of memory used by VASP MPI-rank0   110493. kBytes
=======================================================================

   base      :      30000. kBytes
   nonlr-proj:       2562. kBytes
   fftplans  :       1526. kBytes
   grid      :       5405. kBytes
   one-center:         62. kBytes
   wavefun   :      70938. kBytes
 
  
  
 General timing and accounting informations for this job:
 ========================================================
  
                  Total CPU time used (sec):     2977.942
                            User time (sec):     2976.630
                          System time (sec):        1.312
                         Elapsed time (sec):     2978.397
  
                   Maximum memory used (kb):      311248.
                   Average memory used (kb):           0.
  
                          Minor page faults:        31846
                          Major page faults:            0
                 Voluntary context switches:           73
