       N       E                     dE             d eps       ncg     rms          ort
DAV:   1     0.253784390060E+04    0.25378E+04   -0.14406E+05  6804   0.160E+03
DAV:   2    -0.179865894696E+03   -0.27177E+04   -0.25887E+04  6804   0.425E+02
DAV:   3    -0.451976958321E+03   -0.27211E+03   -0.26804E+03  6804   0.150E+02
DAV:   4    -0.462456473827E+03   -0.10480E+02   -0.10230E+02  6804   0.257E+01
DAV:   5    -0.462929164443E+03   -0.47269E+00   -0.47126E+00  6804   0.449E+00
SDA:   6    -0.270841664955E+03    0.19209E+03   -0.47126E+00  6804   0.661E+03 0.000E+00
CGA:   7    -0.342037795914E+03   -0.71196E+02   -0.81207E+02  6804   0.856E+02-0.143E+02
CGA:   8    -0.356079978918E+03   -0.14042E+02   -0.13880E+02  6804   0.161E+02 0.156E+01
CGA:   9    -0.359730233466E+03   -0.36503E+01   -0.36523E+01  6804   0.604E+01-0.540E-01
CGA:  10    -0.361053148314E+03   -0.13229E+01   -0.13205E+01  6804   0.231E+01 0.471E-01
CGA:  11    -0.361607535249E+03   -0.55439E+00   -0.55456E+00  6804   0.793E+00-0.100E-01
CGA:  12    -0.361806357243E+03   -0.19882E+00   -0.19966E+00  6804   0.294E+00-0.159E-01
CGA:  13    -0.361883001580E+03   -0.76644E-01   -0.76351E-01  6804   0.917E-01 0.456E-02
CGA:  14    -0.361909967326E+03   -0.26966E-01   -0.26550E-01  6804   0.358E-01 0.523E-02
CGA:  15    -0.361922826447E+03   -0.12859E-01   -0.13058E-01  6804   0.177E-01-0.146E-02
CGA:  16    -0.361927932451E+03   -0.51060E-02   -0.49734E-02  6804   0.622E-02 0.171E-02
CGA:  17    -0.361930410528E+03   -0.24781E-02   -0.25806E-02  6804   0.323E-02-0.649E-03
CGA:  18    -0.361931465913E+03   -0.10554E-02   -0.10975E-02  6804   0.156E-02-0.280E-03
CGA:  19    -0.361931714066E+03   -0.24815E-03   -0.27406E-03  6804   0.694E-03 0.596E-03
CGA:  20    -0.361931878749E+03   -0.16468E-03   -0.18058E-03  6804   0.331E-03 0.354E-03
CGA:  21    -0.361932040753E+03   -0.16200E-03    0.65370E-03  6804   0.187E-03 0.167E-03
CGA:  22    -0.361932034134E+03    0.66195E-05   -0.16432E-04  6804   0.158E-03 0.161E-03
CGA:  23    -0.361932041834E+03   -0.77003E-05   -0.20761E-04  6804   0.139E-03 0.141E-03
CGA:  24    -0.361932064306E+03   -0.22472E-04   -0.26259E-04  6804   0.118E-03 0.123E-03
CGA:  25    -0.361932072497E+03   -0.81907E-05   -0.16556E-04  6804   0.108E-03 0.108E-03
CGA:  26    -0.361932077527E+03   -0.50305E-05   -0.13750E-04  6804   0.101E-03 0.100E-03
CGA:  27    -0.361932078742E+03   -0.12149E-05   -0.10922E-04  6804   0.974E-04 0.953E-04
   1 F= -.36193208E+03 E0= -.36193208E+03  d E =-.361932E+03  mag=    16.0000
       N       E                     dE             d eps       ncg     rms          ort
SDA:   1    -0.361993366037E+03   -0.61289E-01    0.00000E+00  6804   0.110E-01 0.000E+00
CGA:   2    -0.361995890089E+03   -0.25241E-02   -0.25174E-02  6804   0.261E-02 0.227E-03
CGA:   3    -0.361996633940E+03   -0.74385E-03   -0.74885E-03  6804   0.789E-03-0.617E-04
CGA:   4    -0.361996783963E+03   -0.15002E-03   -0.15049E-03  6804   0.226E-03 0.508E-04
CGA:   5    -0.361996817963E+03   -0.34000E-04   -0.37747E-04  6804   0.786E-04 0.801E-04
CGA:   6    -0.361996827262E+03   -0.92989E-05   -0.13919E-04  6804   0.546E-04 0.652E-04
   2 F= -.36199683E+03 E0= -.36199683E+03  d E =-.647485E-01  mag=    16.0000
       N       E                     dE             d eps       ncg     rms          ort
SDA:   1    -0.359203128159E+03    0.27937E+01    0.00000E+00  6804   0.144E+02 0.000E+00
CGA:   2    -0.362647373380E+03   -0.34442E+01   -0.34474E+01  6804   0.346E+01-0.658E-01
CGA:   3    -0.363556519911E+03   -0.90915E+00   -0.90964E+00  6804   0.902E+00-0.111E-01
CGA:   4    -0.363746721338E+03   -0.19020E+00   -0.19022E+00  6804   0.263E+00-0.145E-02
CGA:   5    -0.363800255569E+03   -0.53534E-01   -0.53535E-01  6804   0.858E-01-0.397E-03
CGA:   6    -0.363824148733E+03   -0.23893E-01   -0.23886E-01  6804   0.430E-01 0.941E-04
CGA:   7    -0.363836901036E+03   -0.12752E-01   -0.12726E-01  6804   0.216E-01 0.278E-03
CGA:   8    -0.363843201565E+03   -0.63005E-02   -0.62749E-02  6804   0.819E-02 0.319E-03
CGA:   9    -0.363845714536E+03   -0.25130E-02   -0.24938E-02  6804   0.314E-02 0.222E-03
CGA:  10    -0.363846757297E+03   -0.10428E-02   -0.10230E-02  6804   0.127E-02 0.198E-03
CGA:  11    -0.363847187237E+03   -0.42994E-03   -0.40617E-03  6804   0.505E-03 0.303E-03
CGA:  12    -0.363847373134E+03   -0.18590E-03   -0.17605E-03  6804   0.199E-03 0.180E-03
CGA:  13    -0.363847425161E+03   -0.52027E-04   -0.55352E-04  6804   0.881E-04 0.136E-03
CGA:  14    -0.363847432682E+03   -0.75211E-05   -0.12752E-04  6804   0.538E-04 0.627E-04
   3 F= -.36384743E+03 E0= -.36384743E+03  d E =-.185061E+01  mag=    16.0000
       N       E                     dE             d eps       ncg     rms          ort
SDA:   1    -0.354528055322E+03    0.93194E+01    0.00000E+00  6804   0.338E+02 0.000E+00
CGA:   2    -0.362575660425E+03   -0.80476E+01   -0.80491E+01  6804   0.824E+01-0.106E+00
CGA:   3    -0.364661469903E+03   -0.20858E+01   -0.20866E+01  6804   0.234E+01-0.322E-01
CGA:   4    -0.365108268842E+03   -0.44680E+00   -0.44671E+00  6804   0.654E+00-0.410E-02
CGA:   5    -0.365242220584E+03   -0.13395E+00   -0.13393E+00  6804   0.197E+00-0.957E-03
CGA:   6    -0.365296024241E+03   -0.53804E-01   -0.53801E-01  6804   0.991E-01 0.191E-04
CGA:   7    -0.365324550778E+03   -0.28527E-01   -0.28504E-01  6804   0.483E-01 0.287E-03
CGA:   8    -0.365339140673E+03   -0.14590E-01   -0.14565E-01  6804   0.192E-01 0.331E-03
CGA:   9    -0.365344932664E+03   -0.57920E-02   -0.57623E-02  6804   0.718E-02 0.432E-03
CGA:  10    -0.365347374642E+03   -0.24420E-02   -0.24274E-02  6804   0.301E-02 0.148E-03
CGA:  11    -0.365348487324E+03   -0.11127E-02   -0.10782E-02  6804   0.136E-02 0.304E-03
CGA:  12    -0.365349034373E+03   -0.54705E-03   -0.52776E-03  6804   0.548E-03 0.177E-03
CGA:  13    -0.365349255917E+03   -0.22154E-03   -0.21536E-03  6804   0.193E-03 0.616E-04
CGA:  14    -0.365349303178E+03   -0.47261E-04   -0.49268E-04  6804   0.638E-04 0.851E-04
CGA:  15    -0.365349318202E+03   -0.15023E-04   -0.17605E-04  6804   0.283E-04 0.427E-04
CGA:  16    -0.365349325315E+03   -0.71136E-05   -0.70911E-05  6804   0.159E-04 0.170E-04
   4 F= -.36534933E+03 E0= -.36534933E+03  d E =-.150189E+01  mag=    16.0000
       N       E                     dE             d eps       ncg     rms          ort
SDA:   1    -0.358091207575E+03    0.72581E+01    0.00000E+00  6804   0.244E+02 0.000E+00
CGA:   2    -0.363819419870E+03   -0.57282E+01   -0.57282E+01  6804   0.648E+01-0.282E-01
CGA:   3    -0.365403414782E+03   -0.15840E+01   -0.15841E+01  6804   0.202E+01-0.257E-01
CGA:   4    -0.365753505175E+03   -0.35009E+00   -0.35001E+00  6804   0.468E+00-0.234E-02
CGA:   5    -0.365850087720E+03   -0.96583E-01   -0.96633E-01  6804   0.132E+00 0.170E-02
CGA:   6    -0.365883431672E+03   -0.33344E-01   -0.33330E-01  6804   0.617E-01 0.911E-03
CGA:   7    -0.365901706831E+03   -0.18275E-01   -0.18297E-01  6804   0.321E-01-0.386E-03
CGA:   8    -0.365912128468E+03   -0.10422E-01   -0.10492E-01  6804   0.157E-01-0.776E-03
CGA:   9    -0.365916728538E+03   -0.46001E-02   -0.45942E-02  6804   0.579E-02 0.109E-03
CGA:  10    -0.365918610837E+03   -0.18823E-02   -0.18732E-02  6804   0.226E-02 0.123E-03
CGA:  11    -0.365919428504E+03   -0.81767E-03   -0.80482E-03  6804   0.103E-02 0.130E-03
CGA:  12    -0.365919826379E+03   -0.39787E-03   -0.38762E-03  6804   0.419E-03 0.103E-03
CGA:  13    -0.365920016860E+03   -0.19048E-03   -0.21176E-03  6804   0.238E-03-0.107E-03
CGA:  14    -0.365920058888E+03   -0.42028E-04   -0.43048E-04  6804   0.796E-04 0.372E-04
CGA:  15    -0.365920079067E+03   -0.20179E-04   -0.20716E-04  6804   0.251E-04 0.122E-04
CGA:  16    -0.365920096202E+03   -0.17135E-04    0.35793E-04  6804   0.112E-04 0.644E-05
CGA:  17    -0.365920103944E+03   -0.77421E-05    0.64078E-04  6804   0.553E-05 0.360E-05
   5 F= -.36592010E+03 E0= -.36592010E+03  d E =-.570779E+00  mag=    16.0000
       N       E                     dE             d eps       ncg     rms          ort
SDA:   1    -0.357524687668E+03    0.83954E+01    0.00000E+00  6804   0.250E+02 0.000E+00
CGA:   2    -0.363791677575E+03   -0.62670E+01   -0.62668E+01  6804   0.825E+01-0.224E-01
CGA:   3    -0.365608512492E+03   -0.18168E+01   -0.18161E+01  6804   0.257E+01-0.172E-01
CGA:   4    -0.366041461785E+03   -0.43295E+00   -0.43286E+00  6804   0.509E+00-0.192E-02
CGA:   5    -0.366146577525E+03   -0.10512E+00   -0.10521E+00  6804   0.150E+00 0.191E-02
CGA:   6    -0.366181816966E+03   -0.35239E-01   -0.35261E-01  6804   0.614E-01 0.984E-03
CGA:   7    -0.366199730415E+03   -0.17913E-01   -0.17934E-01  6804   0.309E-01-0.585E-03
CGA:   8    -0.366209807002E+03   -0.10077E-01   -0.10156E-01  6804   0.160E-01-0.106E-02
CGA:   9    -0.366214489131E+03   -0.46821E-02   -0.46807E-02  6804   0.590E-02 0.348E-04
CGA:  10    -0.366216372384E+03   -0.18833E-02   -0.18764E-02  6804   0.227E-02 0.127E-03
CGA:  11    -0.366217212652E+03   -0.84027E-03   -0.83920E-03  6804   0.112E-02 0.108E-04
CGA:  12    -0.366217630416E+03   -0.41776E-03   -0.41169E-03  6804   0.480E-03 0.631E-04
CGA:  13    -0.366217843272E+03   -0.21286E-03   -0.25510E-03  6804   0.338E-03-0.186E-03
CGA:  14    -0.366217905568E+03   -0.62296E-04   -0.62643E-04  6804   0.123E-03-0.211E-04
CGA:  15    -0.366217944672E+03   -0.39103E-04   -0.46430E-04  6804   0.854E-04-0.633E-04
CGA:  16    -0.366217967951E+03   -0.23279E-04   -0.52331E-04  6804   0.154E-03-0.913E-04
CGA:  17    -0.366217999488E+03   -0.31537E-04   -0.33217E-04  6804   0.641E-05 0.180E-04
CGA:  18    -0.366218014287E+03   -0.14798E-04    0.45462E-06  6804   0.267E-05 0.127E-05
CGA:  19    -0.366218021135E+03   -0.68484E-05    0.19353E-06  6804   0.206E-05 0.191E-05
   6 F= -.36621802E+03 E0= -.36621802E+03  d E =-.297917E+00  mag=    16.0000
       N       E                     dE             d eps       ncg     rms          ort
SDA:   1    -0.353605857939E+03    0.12612E+02    0.00000E+00  6804   0.337E+02 0.000E+00
CGA:   2    -0.362935313170E+03   -0.93295E+01   -0.93286E+01  6804   0.142E+02-0.277E-01
CGA:   3    -0.365574142443E+03   -0.26388E+01   -0.26398E+01  6804   0.358E+01 0.299E-02
CGA:   4    -0.366199264540E+03   -0.62512E+00   -0.62533E+00  6804   0.716E+00-0.211E-03
CGA:   5    -0.366342620570E+03   -0.14336E+00   -0.14346E+00  6804   0.211E+00 0.111E-02
CGA:   6    -0.366389275375E+03   -0.46655E-01   -0.46684E-01  6804   0.717E-01 0.421E-03
CGA:   7    -0.366408878391E+03   -0.19603E-01   -0.19598E-01  6804   0.321E-01-0.551E-03
CGA:   8    -0.366418983526E+03   -0.10105E-01   -0.10130E-01  6804   0.161E-01-0.722E-03
CGA:   9    -0.366423831952E+03   -0.48484E-02   -0.48492E-02  6804   0.605E-02-0.368E-04
CGA:  10    -0.366425759100E+03   -0.19271E-02   -0.19281E-02  6804   0.225E-02-0.273E-04
CGA:  11    -0.366426587577E+03   -0.82848E-03   -0.84623E-03  6804   0.121E-02-0.199E-03
CGA:  12    -0.366427017045E+03   -0.42947E-03   -0.43276E-03  6804   0.606E-03-0.344E-04
CGA:  13    -0.366427274975E+03   -0.25793E-03   -0.31843E-03  6804   0.496E-03-0.250E-03
CGA:  14    -0.366427378316E+03   -0.10334E-03   -0.11191E-03  6804   0.205E-03-0.116E-03
CGA:  15    -0.366427289245E+03    0.89071E-04   -0.14600E-03  6804   0.884E-03-0.383E-03
CGA:  16    -0.366427498460E+03   -0.20922E-03   -0.21806E-03  6804   0.756E-04 0.909E-04
CGA:  17    -0.366427556068E+03   -0.57607E-04    0.71023E-03  6804   0.348E-04 0.972E-05
CGA:  18    -0.366427569048E+03   -0.12981E-04   -0.13074E-04  6804   0.189E-04 0.152E-04
CGA:  19    -0.366427583216E+03   -0.14168E-04   -0.26119E-04  6804   0.482E-04-0.194E-04
CGA:  20    -0.366427621554E+03   -0.38338E-04    0.11882E-03  6804   0.198E-04-0.174E-04
CGA:  21    -0.366427619235E+03    0.23189E-05   -0.75176E-06  6804   0.133E-04 0.989E-05
   7 F= -.36642762E+03 E0= -.36642762E+03  d E =-.209598E+00  mag=    16.0000
       N       E                     dE             d eps       ncg     rms          ort
SDA:   1    -0.343373806158E+03    0.23054E+02    0.00000E+00  6804   0.586E+02 0.000E+00
CGA:   2    -0.360493617881E+03   -0.17120E+02   -0.17121E+02  6804   0.269E+02-0.142E-01
CGA:   3    -0.365154256980E+03   -0.46606E+01   -0.46717E+01  6804   0.582E+01 0.669E-01
CGA:   4    -0.366191887322E+03   -0.10376E+01   -0.10378E+01  6804   0.124E+01 0.739E-03
CGA:   5    -0.366437656224E+03   -0.24577E+00   -0.24582E+00  6804   0.370E+00 0.201E-03
CGA:   6    -0.366519060331E+03   -0.81404E-01   -0.81459E-01  6804   0.122E+00 0.346E-03
CGA:   7    -0.366551830275E+03   -0.32770E-01   -0.32743E-01  6804   0.525E-01-0.727E-03
CGA:   8    -0.366567897125E+03   -0.16067E-01   -0.16066E-01  6804   0.243E-01-0.102E-02
CGA:   9    -0.366575198532E+03   -0.73014E-02   -0.73008E-02  6804   0.866E-02-0.398E-03
CGA:  10    -0.366577908803E+03   -0.27103E-02   -0.27149E-02  6804   0.307E-02-0.432E-03
CGA:  11    -0.366578972972E+03   -0.10642E-02   -0.10889E-02  6804   0.159E-02-0.387E-03
CGA:  12    -0.366579581480E+03   -0.60851E-03   -0.69543E-03  6804   0.130E-02-0.467E-03
CGA:  13    -0.366579941658E+03   -0.36018E-03   -0.54346E-03  6804   0.122E-02-0.682E-03
CGA:  14    -0.366580266578E+03   -0.32492E-03   -0.32305E-03  6804   0.256E-03-0.276E-04
CGA:  15    -0.366580362679E+03   -0.96101E-04   -0.13959E-03  6804   0.429E-03-0.193E-03
CGA:  16    -0.366580432060E+03   -0.69382E-04   -0.72107E-04  6804   0.384E-04 0.154E-04
CGA:  17    -0.366580463643E+03   -0.31583E-04    0.35075E-04  6804   0.885E-05 0.297E-05
CGA:  18    -0.366580490092E+03   -0.26449E-04    0.50529E-06  6804   0.545E-05 0.414E-05
CGA:  19    -0.366580517589E+03   -0.27497E-04    0.32211E-06  6804   0.307E-05 0.317E-05
CGA:  20    -0.366580529110E+03   -0.11521E-04    0.11062E-06  6804   0.189E-05 0.777E-06
CGA:  21    -0.366580548794E+03   -0.19684E-04    0.34516E-07  6804   0.122E-05 0.114E-05
CGA:  22    -0.366580556353E+03   -0.75593E-05    0.24799E-07  6804   0.818E-06 0.387E-06
   8 F= -.36658056E+03 E0= -.36658056E+03  d E =-.152937E+00  mag=    16.0000
       N       E                     dE             d eps       ncg     rms          ort
SDA:   1    -0.362950504550E+03    0.36300E+01    0.00000E+00  6804   0.985E+01 0.000E+00
CGA:   2    -0.365618898918E+03   -0.26684E+01   -0.26685E+01  6804   0.443E+01-0.451E-03
CGA:   3    -0.366421007966E+03   -0.80211E+00   -0.80221E+00  6804   0.108E+01 0.652E-03
CGA:   4    -0.366613960214E+03   -0.19295E+00   -0.19290E+00  6804   0.230E+00-0.503E-03
CGA:   5    -0.366659105145E+03   -0.45145E-01   -0.45134E-01  6804   0.651E-01-0.149E-03
CGA:   6    -0.366672995772E+03   -0.13891E-01   -0.13891E-01  6804   0.207E-01-0.679E-05
CGA:   7    -0.366678453168E+03   -0.54574E-02   -0.54544E-02  6804   0.856E-02-0.759E-04
CGA:   8    -0.366681015858E+03   -0.25627E-02   -0.25624E-02  6804   0.388E-02-0.108E-03
CGA:   9    -0.366682207548E+03   -0.11917E-02   -0.11922E-02  6804   0.147E-02-0.596E-04
CGA:  10    -0.366682679239E+03   -0.47169E-03   -0.47361E-03  6804   0.547E-03-0.855E-04
CGA:  11    -0.366682864223E+03   -0.18498E-03   -0.18957E-03  6804   0.274E-03-0.734E-04
CGA:  12    -0.366682965109E+03   -0.10089E-03   -0.12553E-03  6804   0.262E-03-0.112E-03
CGA:  13    -0.366683021304E+03   -0.56194E-04   -0.85710E-04  6804   0.213E-03-0.127E-03
CGA:  14    -0.366681722659E+03    0.12986E-02   -0.70374E-03  6804   0.487E-02-0.845E-03
CGA:  15    -0.366682762836E+03   -0.10402E-02   -0.11133E-02  6804   0.692E-03 0.194E-03
CGA:  16    -0.366683028271E+03   -0.26544E-03   -0.24353E-03  6804   0.361E-03-0.889E-04
CGA:  17    -0.366683101731E+03   -0.73460E-04   -0.98037E-04  6804   0.147E-03 0.946E-04
CGA:  18    -0.366683151980E+03   -0.50250E-04   -0.61833E-04  6804   0.924E-04 0.516E-04
CGA:  19    -0.366683203418E+03   -0.51438E-04   -0.50555E-04  6804   0.751E-04-0.595E-05
CGA:  20    -0.366683198930E+03    0.44881E-05   -0.11154E-04  6804   0.421E-04 0.411E-04
   9 F= -.36668320E+03 E0= -.36668320E+03  d E =-.102643E+00  mag=    16.0000
       N       E                     dE             d eps       ncg     rms          ort
SDA:   1    -0.365145765672E+03    0.15374E+01    0.00000E+00  6804   0.425E+01 0.000E+00
CGA:   2    -0.366281397447E+03   -0.11356E+01   -0.11360E+01  6804   0.185E+01-0.422E-04
CGA:   3    -0.366630790163E+03   -0.34939E+00   -0.34964E+00  6804   0.478E+00 0.116E-02
CGA:   4    -0.366712941494E+03   -0.82151E-01   -0.82304E-01  6804   0.943E-01 0.485E-03
CGA:   5    -0.366731643466E+03   -0.18702E-01   -0.18670E-01  6804   0.269E-01-0.135E-03
CGA:   6    -0.366737554307E+03   -0.59108E-02   -0.58449E-02  6804   0.904E-02-0.285E-03
CGA:   7    -0.366739987147E+03   -0.24328E-02   -0.24154E-02  6804   0.406E-02-0.107E-03
CGA:   8    -0.366741223185E+03   -0.12360E-02   -0.12377E-02  6804   0.196E-02 0.124E-04
CGA:   9    -0.366741868228E+03   -0.64504E-03   -0.64118E-03  6804   0.832E-03-0.413E-04
CGA:  10    -0.366742147842E+03   -0.27961E-03   -0.27513E-03  6804   0.339E-03-0.570E-04
CGA:  11    -0.366742272538E+03   -0.12470E-03   -0.12344E-03  6804   0.187E-03-0.581E-04
CGA:  12    -0.366742337805E+03   -0.65267E-04   -0.65708E-04  6804   0.104E-03-0.332E-04
CGA:  13    -0.366742374447E+03   -0.36642E-04   -0.37177E-04  6804   0.480E-04-0.234E-04
CGA:  14    -0.366742389247E+03   -0.14801E-04   -0.14618E-04  6804   0.171E-04-0.889E-05
CGA:  15    -0.366742394771E+03   -0.55234E-05   -0.54585E-05  6804   0.720E-05-0.319E-05
CGA:  16    -0.366742400014E+03   -0.52436E-05    0.13832E-04  6804   0.379E-05-0.106E-05
  10 F= -.36674240E+03 E0= -.36674240E+03  d E =-.592011E-01  mag=    16.0000
       N       E                     dE             d eps       ncg     rms          ort
SDA:   1    -0.363819726242E+03    0.29227E+01    0.00000E+00  6804   0.767E+01 0.000E+00
CGA:   2    -0.365940848126E+03   -0.21211E+01   -0.21216E+01  6804   0.368E+01 0.296E-02
CGA:   3    -0.366589330839E+03   -0.64848E+00   -0.64847E+00  6804   0.824E+00 0.176E-02
CGA:   4    -0.366733888872E+03   -0.14456E+00   -0.14440E+00  6804   0.163E+00-0.540E-03
CGA:   5    -0.366765526925E+03   -0.31638E-01   -0.31544E-01  6804   0.450E-01-0.491E-03
CGA:   6    -0.366774985435E+03   -0.94585E-02   -0.93904E-02  6804   0.131E-01-0.383E-03
CGA:   7    -0.366778334767E+03   -0.33493E-02   -0.33309E-02  6804   0.526E-02-0.151E-03
CGA:   8    -0.366779946578E+03   -0.16118E-02   -0.16019E-02  6804   0.258E-02-0.149E-03
CGA:   9    -0.366780807350E+03   -0.86077E-03   -0.85545E-03  6804   0.116E-02-0.179E-03
CGA:  10    -0.366781183951E+03   -0.37660E-03   -0.37280E-03  6804   0.466E-03-0.159E-03
CGA:  11    -0.366781343096E+03   -0.15914E-03   -0.16465E-03  6804   0.276E-03-0.136E-03
CGA:  12    -0.366781421536E+03   -0.78441E-04   -0.80363E-04  6804   0.151E-03-0.489E-04
CGA:  13    -0.366781460616E+03   -0.39080E-04   -0.96021E-04  6804   0.302E-03-0.142E-03
CGA:  14    -0.366781515829E+03   -0.55213E-04   -0.63428E-04  6804   0.289E-04 0.449E-04
CGA:  15    -0.366781542789E+03   -0.26961E-04    0.11023E-03  6804   0.132E-04-0.561E-05
CGA:  16    -0.366781542188E+03    0.60145E-06   -0.12736E-05  6804   0.787E-05 0.709E-05
  11 F= -.36678154E+03 E0= -.36678154E+03  d E =-.391422E-01  mag=    16.0000
       N       E                     dE             d eps       ncg     rms          ort
SDA:   1    -0.340177938459E+03    0.26604E+02    0.00000E+00  6804   0.694E+02 0.000E+00
CGA:   2    -0.359081048201E+03   -0.18903E+02   -0.18922E+02  6804   0.338E+02 0.655E-01
CGA:   3    -0.365033165834E+03   -0.59521E+01   -0.59747E+01  6804   0.706E+01 0.152E+00
CGA:   4    -0.366295746240E+03   -0.12626E+01   -0.12616E+01  6804   0.150E+01 0.255E-02
CGA:   5    -0.366588074434E+03   -0.29233E+00   -0.29212E+00  6804   0.435E+00-0.219E-02
CGA:   6    -0.366681330264E+03   -0.93256E-01   -0.93154E-01  6804   0.134E+00-0.119E-02
CGA:   7    -0.366715910001E+03   -0.34580E-01   -0.34527E-01  6804   0.551E-01-0.963E-03
CGA:   8    -0.366732641161E+03   -0.16731E-01   -0.16716E-01  6804   0.254E-01-0.110E-02
CGA:   9    -0.366740612043E+03   -0.79709E-02   -0.79718E-02  6804   0.991E-02-0.999E-03
CGA:  10    -0.366743657662E+03   -0.30456E-02   -0.30462E-02  6804   0.346E-02-0.757E-03
CGA:  11    -0.366744784048E+03   -0.11264E-02   -0.11433E-02  6804   0.160E-02-0.438E-03
CGA:  12    -0.366745363132E+03   -0.57908E-03   -0.61269E-03  6804   0.103E-02-0.283E-03
CGA:  13    -0.366745752381E+03   -0.38925E-03   -0.46730E-03  6804   0.800E-03-0.346E-03
CGA:  14    -0.366745950818E+03   -0.19844E-03   -0.20414E-03  6804   0.317E-03-0.122E-03
CGA:  15    -0.366745981531E+03   -0.30713E-04   -0.20219E-03  6804   0.807E-03-0.415E-03
CGA:  16    -0.366746111439E+03   -0.12991E-03   -0.15621E-03  6804   0.110E-03 0.157E-03
CGA:  17    -0.366746164026E+03   -0.52587E-04   -0.57394E-04  6804   0.861E-04-0.567E-04
CGA:  18    -0.366746175389E+03   -0.11363E-04   -0.16374E-04  6804   0.188E-04 0.300E-04
CGA:  19    -0.366746183862E+03   -0.84730E-05   -0.84877E-05  6804   0.146E-04 0.111E-05
CGA:  20    -0.366746187299E+03   -0.34367E-05   -0.18792E-04  6804   0.635E-04-0.176E-04
  12 F= -.36674619E+03 E0= -.36674619E+03  d E =0.353549E-01  mag=    16.0000
       N       E                     dE             d eps       ncg     rms          ort
SDA:   1    -0.362250000156E+03    0.44962E+01    0.00000E+00  6804   0.118E+02 0.000E+00
CGA:   2    -0.365481043991E+03   -0.32310E+01   -0.32315E+01  6804   0.534E+01 0.773E-02
CGA:   3    -0.366475050039E+03   -0.99401E+00   -0.99310E+00  6804   0.133E+01-0.312E-02
CGA:   4    -0.366717034337E+03   -0.24198E+00   -0.24148E+00  6804   0.283E+00-0.308E-02
CGA:   5    -0.366772223513E+03   -0.55189E-01   -0.55154E-01  6804   0.826E-01-0.205E-03
CGA:   6    -0.366790180711E+03   -0.17957E-01   -0.18029E-01  6804   0.283E-01 0.553E-03
CGA:   7    -0.366797527834E+03   -0.73471E-02   -0.73765E-02  6804   0.113E-01 0.356E-03
CGA:   8    -0.366800932577E+03   -0.34047E-02   -0.34045E-02  6804   0.512E-02-0.778E-05
CGA:   9    -0.366802436200E+03   -0.15036E-02   -0.15111E-02  6804   0.183E-02 0.192E-03
CGA:  10    -0.366802972891E+03   -0.53669E-03   -0.54479E-03  6804   0.623E-03 0.175E-03
CGA:  11    -0.366803171852E+03   -0.19896E-03   -0.20224E-03  6804   0.262E-03 0.970E-04
CGA:  12    -0.366803243303E+03   -0.71451E-04   -0.78794E-04  6804   0.124E-03 0.108E-03
CGA:  13    -0.366803281881E+03   -0.38578E-04   -0.43911E-04  6804   0.678E-04 0.714E-04
CGA:  14    -0.366803302259E+03   -0.20378E-04   -0.20713E-04  6804   0.344E-04 0.209E-04
CGA:  15    -0.366803307611E+03   -0.53518E-05   -0.90944E-05  6804   0.230E-04 0.316E-04
  13 F= -.36680331E+03 E0= -.36680331E+03  d E =-.571203E-01  mag=    16.0000
       N       E                     dE             d eps       ncg     rms          ort
SDA:   1    -0.362863659234E+03    0.39396E+01    0.00000E+00  6804   0.103E+02 0.000E+00
CGA:   2    -0.365692226938E+03   -0.28286E+01   -0.28289E+01  6804   0.518E+01-0.119E-02
CGA:   3    -0.366594178493E+03   -0.90195E+00   -0.90275E+00  6804   0.112E+01 0.455E-02
CGA:   4    -0.366790534432E+03   -0.19636E+00   -0.19655E+00  6804   0.230E+00 0.153E-02
CGA:   5    -0.366834744962E+03   -0.44211E-01   -0.44232E-01  6804   0.648E-01 0.189E-03
CGA:   6    -0.366848366175E+03   -0.13621E-01   -0.13635E-01  6804   0.196E-01 0.160E-03
CGA:   7    -0.366853311946E+03   -0.49458E-02   -0.49517E-02  6804   0.772E-02 0.162E-03
CGA:   8    -0.366855602229E+03   -0.22903E-02   -0.22890E-02  6804   0.344E-02 0.160E-03
CGA:   9    -0.366856739829E+03   -0.11376E-02   -0.11393E-02  6804   0.143E-02-0.443E-04
CGA:  10    -0.366857168826E+03   -0.42900E-03   -0.42887E-03  6804   0.489E-03 0.817E-05
CGA:  11    -0.366857298460E+03   -0.12963E-03   -0.13138E-03  6804   0.168E-03 0.811E-04
CGA:  12    -0.366857364212E+03   -0.65752E-04   -0.64633E-04  6804   0.909E-04 0.266E-04
CGA:  13    -0.366857388825E+03   -0.24613E-04   -0.26389E-04  6804   0.460E-04 0.452E-04
CGA:  14    -0.366857399749E+03   -0.10924E-04   -0.13860E-04  6804   0.228E-04 0.338E-04
CGA:  15    -0.366857406576E+03   -0.68269E-05   -0.67220E-05  6804   0.111E-04 0.966E-05
  14 F= -.36685741E+03 E0= -.36685741E+03  d E =-.540990E-01  mag=    16.0000
       N       E                     dE             d eps       ncg     rms          ort
SDA:   1    -0.366498724111E+03    0.35868E+00    0.00000E+00  6804   0.103E+01 0.000E+00
CGA:   2    -0.366756177351E+03   -0.25745E+00   -0.25749E+00  6804   0.449E+00 0.120E-02
CGA:   3    -0.366840298786E+03   -0.84121E-01   -0.84193E-01  6804   0.120E+00 0.795E-03
CGA:   4    -0.366861822298E+03   -0.21524E-01   -0.21507E-01  6804   0.256E-01-0.198E-03
CGA:   5    -0.366866730555E+03   -0.49083E-02   -0.48882E-02  6804   0.716E-02-0.276E-03
CGA:   6    -0.366868258659E+03   -0.15281E-02   -0.15253E-02  6804   0.241E-02-0.626E-04
CGA:   7    -0.366868852731E+03   -0.59407E-03   -0.59521E-03  6804   0.941E-03 0.112E-03
CGA:   8    -0.366869128424E+03   -0.27569E-03   -0.27348E-03  6804   0.406E-03 0.115E-03
CGA:   9    -0.366869272122E+03   -0.14370E-03   -0.14179E-03  6804   0.178E-03 0.366E-04
CGA:  10    -0.366869324393E+03   -0.52270E-04   -0.52059E-04  6804   0.644E-04 0.362E-04
CGA:  11    -0.366869340375E+03   -0.15982E-04   -0.17154E-04  6804   0.255E-04 0.286E-04
CGA:  12    -0.366869345704E+03   -0.53290E-05   -0.67990E-05  6804   0.142E-04 0.194E-04
  15 F= -.36686935E+03 E0= -.36686935E+03  d E =-.119391E-01  mag=    16.0000
       N       E                     dE             d eps       ncg     rms          ort
SDA:   1    -0.366067892488E+03    0.80145E+00    0.00000E+00  6804   0.209E+01 0.000E+00
CGA:   2    -0.366662124450E+03   -0.59423E+00   -0.59406E+00  6804   0.935E+00 0.502E-02
CGA:   3    -0.366832704846E+03   -0.17058E+00   -0.17047E+00  6804   0.216E+00-0.169E-02
CGA:   4    -0.366870485915E+03   -0.37781E-01   -0.37689E-01  6804   0.422E-01-0.125E-02
CGA:   5    -0.366878705858E+03   -0.82199E-02   -0.82014E-02  6804   0.121E-01-0.374E-03
CGA:   6    -0.366881197745E+03   -0.24919E-02   -0.24914E-02  6804   0.364E-02-0.171E-04
CGA:   7    -0.366882110361E+03   -0.91262E-03   -0.91169E-03  6804   0.148E-02 0.100E-03
CGA:   8    -0.366882587204E+03   -0.47684E-03   -0.47425E-03  6804   0.765E-03 0.369E-04
CGA:   9    -0.366882841333E+03   -0.25413E-03   -0.25161E-03  6804   0.330E-03 0.331E-04
CGA:  10    -0.366882944741E+03   -0.10341E-03   -0.10205E-03  6804   0.115E-03 0.286E-04
CGA:  11    -0.366882985863E+03   -0.41122E-04   -0.40797E-04  6804   0.516E-04 0.426E-05
CGA:  12    -0.366882997370E+03   -0.11507E-04   -0.12148E-04  6804   0.221E-04 0.225E-04
CGA:  13    -0.366883002249E+03   -0.48792E-05   -0.59260E-05  6804   0.116E-04 0.156E-04
  16 F= -.36688300E+03 E0= -.36688300E+03  d E =-.136565E-01  mag=    16.0000
       N       E                     dE             d eps       ncg     rms          ort
SDA:   1    -0.340247670315E+03    0.26635E+02    0.00000E+00  6804   0.661E+02 0.000E+00
CGA:   2    -0.359290115045E+03   -0.19042E+02   -0.19039E+02  6804   0.282E+02 0.554E-01
CGA:   3    -0.364359519617E+03   -0.50694E+01   -0.50770E+01  6804   0.718E+01 0.367E-01
CGA:   4    -0.365671725831E+03   -0.13122E+01   -0.13126E+01  6804   0.159E+01 0.401E-02
CGA:   5    -0.365980560359E+03   -0.30883E+00   -0.30891E+00  6804   0.474E+00 0.867E-03
CGA:   6    -0.366085021848E+03   -0.10446E+00   -0.10450E+00  6804   0.165E+00 0.140E-02
CGA:   7    -0.366128134028E+03   -0.43112E-01   -0.43099E-01  6804   0.655E-01 0.780E-03
CGA:   8    -0.366147324329E+03   -0.19190E-01   -0.19161E-01  6804   0.274E-01 0.632E-03
CGA:   9    -0.366155547396E+03   -0.82231E-02   -0.82209E-02  6804   0.936E-02 0.409E-04
CGA:  10    -0.366158393534E+03   -0.28461E-02   -0.28528E-02  6804   0.318E-02-0.127E-03
CGA:  11    -0.366159311389E+03   -0.91786E-03   -0.90863E-03  6804   0.112E-02 0.253E-03
CGA:  12    -0.366159807208E+03   -0.49582E-03   -0.53324E-03  6804   0.814E-03-0.202E-03
CGA:  13    -0.366159958454E+03   -0.15125E-03   -0.15770E-03  6804   0.371E-03 0.229E-03
CGA:  14    -0.366160079481E+03   -0.12103E-03   -0.12144E-03  6804   0.151E-03 0.537E-04
CGA:  15    -0.366160113558E+03   -0.34078E-04   -0.13192E-03  6804   0.401E-03-0.195E-03
CGA:  16    -0.366160132997E+03   -0.19439E-04   -0.52055E-04  6804   0.119E-03 0.206E-03
CGA:  17    -0.366160169909E+03   -0.36912E-04   -0.36439E-04  6804   0.135E-04 0.177E-04
CGA:  18    -0.366160183632E+03   -0.13723E-04    0.37877E-05  6804   0.448E-05 0.565E-05
CGA:  19    -0.366160183560E+03    0.72494E-07   -0.73941E-06  6804   0.325E-05 0.492E-05
  17 F= -.36616018E+03 E0= -.36616018E+03  d E =0.722819E+00  mag=    16.0000
       N       E                     dE             d eps       ncg     rms          ort
SDA:   1    -0.357059339448E+03    0.91008E+01    0.00000E+00  6804   0.235E+02 0.000E+00
CGA:   2    -0.364564859653E+03   -0.75055E+01   -0.75062E+01  6804   0.738E+01-0.119E-01
CGA:   3    -0.366246441594E+03   -0.16816E+01   -0.16819E+01  6804   0.203E+01 0.803E-03
CGA:   4    -0.366618408850E+03   -0.37197E+00   -0.37205E+00  6804   0.551E+00 0.984E-03
CGA:   5    -0.366734140064E+03   -0.11573E+00   -0.11575E+00  6804   0.176E+00 0.399E-03
CGA:   6    -0.366776153524E+03   -0.42013E-01   -0.42020E-01  6804   0.765E-01 0.288E-03
CGA:   7    -0.366795580888E+03   -0.19427E-01   -0.19427E-01  6804   0.289E-01-0.146E-04
CGA:   8    -0.366804059637E+03   -0.84787E-02   -0.84788E-02  6804   0.115E-01-0.953E-05
CGA:   9    -0.366807162389E+03   -0.31028E-02   -0.30981E-02  6804   0.360E-02 0.440E-03
CGA:  10    -0.366808266158E+03   -0.11038E-02   -0.11012E-02  6804   0.121E-02 0.756E-04
CGA:  11    -0.366808630478E+03   -0.36432E-03   -0.36069E-03  6804   0.438E-03 0.116E-03
CGA:  12    -0.366808751000E+03   -0.12052E-03   -0.12189E-03  6804   0.179E-03 0.146E-03
CGA:  13    -0.366808821327E+03   -0.70327E-04   -0.68778E-04  6804   0.938E-04 0.627E-04
CGA:  14    -0.366808834134E+03   -0.12806E-04   -0.20550E-04  6804   0.520E-04 0.761E-04
CGA:  15    -0.366808838986E+03   -0.48521E-05   -0.82832E-05  6804   0.271E-04 0.344E-04
  18 F= -.36680884E+03 E0= -.36680884E+03  d E =-.648655E+00  mag=    16.0000
       N       E                     dE             d eps       ncg     rms          ort
SDA:   1    -0.366622378283E+03    0.18646E+00    0.00000E+00  6804   0.652E+00 0.000E+00
CGA:   2    -0.366827944901E+03   -0.20557E+00   -0.20548E+00  6804   0.217E+00 0.118E-02
CGA:   3    -0.366876901728E+03   -0.48957E-01   -0.48961E-01  6804   0.604E-01 0.116E-03
CGA:   4    -0.366887637224E+03   -0.10735E-01   -0.10769E-01  6804   0.159E-01 0.443E-03
CGA:   5    -0.366891078734E+03   -0.34415E-02   -0.34364E-02  6804   0.509E-02-0.157E-03
CGA:   6    -0.366892316037E+03   -0.12373E-02   -0.12372E-02  6804   0.239E-02-0.264E-03
CGA:   7    -0.366892868209E+03   -0.55217E-03   -0.55212E-03  6804   0.834E-03-0.262E-04
CGA:   8    -0.366893084546E+03   -0.21634E-03   -0.21524E-03  6804   0.288E-03 0.728E-04
CGA:   9    -0.366893180516E+03   -0.95970E-04   -0.97479E-04  6804   0.125E-03-0.234E-04
CGA:  10    -0.366893216108E+03   -0.35592E-04   -0.37030E-04  6804   0.484E-04-0.198E-04
CGA:  11    -0.366893215096E+03    0.10119E-05   -0.28807E-04  6804   0.150E-03-0.658E-04
CGA:  12    -0.366893238987E+03   -0.23890E-04   -0.25848E-04  6804   0.143E-04 0.189E-04
CGA:  13    -0.366893244454E+03   -0.54671E-05   -0.55364E-05  6804   0.582E-05-0.957E-06
  19 F= -.36689324E+03 E0= -.36689324E+03  d E =-.844055E-01  mag=    16.0000
       N       E                     dE             d eps       ncg     rms          ort
SDA:   1    -0.366248473787E+03    0.64477E+00    0.00000E+00  6804   0.170E+01 0.000E+00
CGA:   2    -0.366746292240E+03   -0.49782E+00   -0.49773E+00  6804   0.622E+00 0.258E-02
CGA:   3    -0.366872082200E+03   -0.12579E+00   -0.12582E+00  6804   0.201E+00 0.253E-03
CGA:   4    -0.366908497296E+03   -0.36415E-01   -0.36486E-01  6804   0.444E-01 0.771E-03
CGA:   5    -0.366917696540E+03   -0.91992E-02   -0.91787E-02  6804   0.146E-01-0.365E-03
CGA:   6    -0.366921031419E+03   -0.33349E-02   -0.33196E-02  6804   0.585E-02-0.495E-03
CGA:   7    -0.366922490037E+03   -0.14586E-02   -0.14586E-02  6804   0.219E-02-0.961E-05
CGA:   8    -0.366923072698E+03   -0.58266E-03   -0.58180E-03  6804   0.794E-03 0.121E-03
CGA:   9    -0.366923329721E+03   -0.25702E-03   -0.25910E-03  6804   0.298E-03-0.423E-04
CGA:  10    -0.366923418989E+03   -0.89268E-04   -0.91473E-04  6804   0.112E-03-0.358E-04
CGA:  11    -0.366922841608E+03    0.57738E-03   -0.31090E-03  6804   0.315E-02-0.508E-03
CGA:  12    -0.366923363684E+03   -0.52208E-03   -0.57864E-03  6804   0.286E-03 0.187E-03
CGA:  13    -0.366923484986E+03   -0.12130E-03   -0.11547E-03  6804   0.128E-03-0.667E-04
CGA:  14    -0.366923481309E+03    0.36768E-05   -0.13756E-04  6804   0.603E-04 0.537E-04
CGA:  15    -0.366923479932E+03    0.13771E-05   -0.10706E-04  6804   0.224E-04 0.374E-04
  20 F= -.36692348E+03 E0= -.36692348E+03  d E =-.302355E-01  mag=    16.0000
       N       E                     dE             d eps       ncg     rms          ort
SDA:   1    -0.366890820728E+03    0.32661E-01    0.00000E+00  6804   0.106E+00 0.000E+00
CGA:   2    -0.366920112442E+03   -0.29292E-01   -0.29332E-01  6804   0.458E-01 0.255E-03
CGA:   3    -0.366928782252E+03   -0.86698E-02   -0.86361E-02  6804   0.129E-01-0.146E-03
CGA:   4    -0.366931168424E+03   -0.23862E-02   -0.23737E-02  6804   0.311E-02-0.552E-04
CGA:   5    -0.366931789354E+03   -0.62093E-03   -0.60862E-03  6804   0.948E-03-0.604E-04
CGA:   6    -0.366932004831E+03   -0.21548E-03   -0.20942E-03  6804   0.359E-03-0.366E-04
CGA:   7    -0.366932085629E+03   -0.80798E-04   -0.83718E-04  6804   0.122E-03 0.208E-04
CGA:   8    -0.366932115255E+03   -0.29626E-04   -0.32092E-04  6804   0.449E-04 0.195E-04
CGA:   9    -0.366932131318E+03   -0.16063E-04   -0.16150E-04  6804   0.199E-04 0.145E-05
CGA:  10    -0.366932134073E+03   -0.27551E-05   -0.39935E-05  6804   0.674E-05 0.719E-05
  21 F= -.36693213E+03 E0= -.36693213E+03  d E =-.865414E-02  mag=    16.0000
       N       E                     dE             d eps       ncg     rms          ort
SDA:   1    -0.366881898233E+03    0.50233E-01    0.00000E+00  6804   0.150E+00 0.000E+00
CGA:   2    -0.366917876684E+03   -0.35978E-01   -0.36018E-01  6804   0.725E-01 0.337E-03
CGA:   3    -0.366931770513E+03   -0.13894E-01   -0.13860E-01  6804   0.190E-01-0.233E-03
CGA:   4    -0.366935182988E+03   -0.34125E-02   -0.33973E-02  6804   0.438E-02-0.941E-04
CGA:   5    -0.366936009584E+03   -0.82660E-03   -0.81822E-03  6804   0.121E-02-0.604E-04
CGA:   6    -0.366936278138E+03   -0.26855E-03   -0.26452E-03  6804   0.428E-03-0.414E-04
CGA:   7    -0.366936376013E+03   -0.97875E-04   -0.99343E-04  6804   0.149E-03 0.196E-04
CGA:   8    -0.366936413437E+03   -0.37424E-04   -0.38907E-04  6804   0.560E-04 0.242E-04
CGA:   9    -0.366936433165E+03   -0.19728E-04   -0.19756E-04  6804   0.255E-04 0.582E-05
CGA:  10    -0.366936437653E+03   -0.44882E-05   -0.56467E-05  6804   0.968E-05 0.108E-04
  22 F= -.36693644E+03 E0= -.36693644E+03  d E =-.430358E-02  mag=    16.0000
       N       E                     dE             d eps       ncg     rms          ort
SDA:   1    -0.366864678463E+03    0.71755E-01    0.00000E+00  6804   0.222E+00 0.000E+00
CGA:   2    -0.366913201064E+03   -0.48523E-01   -0.48560E-01  6804   0.105E+00 0.435E-03
CGA:   3    -0.366934085944E+03   -0.20885E-01   -0.20857E-01  6804   0.280E-01-0.323E-03
CGA:   4    -0.366938974989E+03   -0.48890E-02   -0.48782E-02  6804   0.605E-02-0.882E-04
CGA:   5    -0.366940075403E+03   -0.11004E-02   -0.10974E-02  6804   0.158E-02-0.308E-04
CGA:   6    -0.366940425043E+03   -0.34964E-03   -0.34718E-03  6804   0.532E-03-0.444E-04
CGA:   7    -0.366940550888E+03   -0.12585E-03   -0.12610E-03  6804   0.193E-03 0.868E-05
CGA:   8    -0.366940602331E+03   -0.51443E-04   -0.51636E-04  6804   0.773E-04 0.233E-04
CGA:   9    -0.366940627839E+03   -0.25508E-04   -0.25263E-04  6804   0.333E-04 0.121E-04
CGA:  10    -0.366940635360E+03   -0.75209E-05   -0.83303E-05  6804   0.133E-04 0.144E-04
  23 F= -.36694064E+03 E0= -.36694064E+03  d E =-.419771E-02  mag=    16.0000
       N       E                     dE             d eps       ncg     rms          ort
SDA:   1    -0.366052812967E+03    0.88781E+00    0.00000E+00  6804   0.254E+01 0.000E+00
CGA:   2    -0.366638494208E+03   -0.58568E+00   -0.58579E+00  6804   0.126E+01 0.205E-02
CGA:   3    -0.366880044017E+03   -0.24155E+00   -0.24148E+00  6804   0.307E+00-0.133E-02
CGA:   4    -0.366933591550E+03   -0.53548E-01   -0.53512E-01  6804   0.644E-01-0.292E-03
CGA:   5    -0.366945338656E+03   -0.11747E-01   -0.11746E-01  6804   0.171E-01-0.223E-04
CGA:   6    -0.366949013469E+03   -0.36748E-02   -0.36714E-02  6804   0.535E-02-0.960E-04
CGA:   7    -0.366950323257E+03   -0.13098E-02   -0.13099E-02  6804   0.199E-02 0.361E-04
CGA:   8    -0.366950900423E+03   -0.57717E-03   -0.57392E-03  6804   0.875E-03 0.879E-04
CGA:   9    -0.366951182837E+03   -0.28241E-03   -0.27906E-03  6804   0.362E-03 0.617E-04
CGA:  10    -0.366951286666E+03   -0.10383E-03   -0.10293E-03  6804   0.130E-03 0.782E-04
CGA:  11    -0.366951327053E+03   -0.40387E-04   -0.40351E-04  6804   0.532E-04 0.432E-04
CGA:  12    -0.366951346847E+03   -0.19794E-04   -0.19374E-04  6804   0.277E-04 0.223E-04
CGA:  13    -0.366951352835E+03   -0.59879E-05   -0.74316E-05  6804   0.153E-04 0.218E-04
  24 F= -.36695135E+03 E0= -.36695135E+03  d E =-.107175E-01  mag=    16.0000
       N       E                     dE             d eps       ncg     rms          ort
SDA:   1    -0.360328580054E+03    0.66228E+01    0.00000E+00  6804   0.175E+02 0.000E+00
CGA:   2    -0.364902754031E+03   -0.45742E+01   -0.45737E+01  6804   0.883E+01 0.198E-01
CGA:   3    -0.366489726819E+03   -0.15870E+01   -0.15874E+01  6804   0.193E+01 0.486E-03
CGA:   4    -0.366831611440E+03   -0.34188E+00   -0.34179E+00  6804   0.404E+00 0.205E-04
CGA:   5    -0.366907297720E+03   -0.75686E-01   -0.75708E-01  6804   0.114E+00 0.305E-03
CGA:   6    -0.366931631910E+03   -0.24334E-01   -0.24326E-01  6804   0.354E-01-0.355E-03
CGA:   7    -0.366940521370E+03   -0.88895E-02   -0.88914E-02  6804   0.140E-01-0.153E-03
CGA:   8    -0.366944663236E+03   -0.41419E-02   -0.41301E-02  6804   0.636E-02 0.204E-03
CGA:   9    -0.366946668950E+03   -0.20057E-02   -0.19958E-02  6804   0.249E-02 0.146E-03
CGA:  10    -0.366947440956E+03   -0.77201E-03   -0.76471E-03  6804   0.877E-03 0.132E-03
CGA:  11    -0.366947741586E+03   -0.30063E-03   -0.29930E-03  6804   0.377E-03 0.172E-04
CGA:  12    -0.366947893152E+03   -0.15157E-03   -0.15456E-03  6804   0.217E-03-0.201E-04
CGA:  13    -0.366947962489E+03   -0.69337E-04   -0.66735E-04  6804   0.883E-04 0.397E-04
CGA:  14    -0.366948002906E+03   -0.40417E-04   -0.40949E-04  6804   0.459E-04-0.417E-05
CGA:  15    -0.366948020121E+03   -0.17215E-04   -0.24799E-04  6804   0.427E-04-0.255E-04
CGA:  16    -0.366948035102E+03   -0.14981E-04   -0.19285E-04  6804   0.327E-04-0.257E-04
CGA:  17    -0.366948042405E+03   -0.73031E-05   -0.72378E-05  6804   0.209E-05-0.929E-06
  25 F= -.36694804E+03 E0= -.36694804E+03  d E =0.331043E-02  mag=    16.0000
       N       E                     dE             d eps       ncg     rms          ort
SDA:   1    -0.366668437634E+03    0.27960E+00    0.00000E+00  6804   0.848E+00 0.000E+00
CGA:   2    -0.366868567314E+03   -0.20013E+00   -0.20012E+00  6804   0.411E+00-0.429E-03
CGA:   3    -0.366949278601E+03   -0.80711E-01   -0.80747E-01  6804   0.115E+00 0.285E-03
CGA:   4    -0.366970094500E+03   -0.20816E-01   -0.20796E-01  6804   0.269E-01-0.190E-03
CGA:   5    -0.366975365052E+03   -0.52706E-02   -0.52593E-02  6804   0.818E-02-0.141E-03
CGA:   6    -0.366977112945E+03   -0.17479E-02   -0.17536E-02  6804   0.281E-02 0.997E-04
CGA:   7    -0.366977823661E+03   -0.71072E-03   -0.71379E-03  6804   0.104E-02 0.161E-03
CGA:   8    -0.366978114075E+03   -0.29041E-03   -0.29077E-03  6804   0.404E-03 0.826E-04
CGA:   9    -0.366978246059E+03   -0.13198E-03   -0.13135E-03  6804   0.157E-03 0.194E-04
CGA:  10    -0.366978294120E+03   -0.48061E-04   -0.47873E-04  6804   0.598E-04 0.891E-05
CGA:  11    -0.366978306199E+03   -0.12079E-04   -0.13351E-04  6804   0.208E-04 0.212E-04
CGA:  12    -0.366978308919E+03   -0.27198E-05   -0.43949E-05  6804   0.106E-04 0.149E-04
  26 F= -.36697831E+03 E0= -.36697831E+03  d E =-.302665E-01  mag=    16.0000
       N       E                     dE             d eps       ncg     rms          ort
SDA:   1    -0.366906829147E+03    0.71477E-01    0.00000E+00  6804   0.192E+00 0.000E+00
CGA:   2    -0.366963447592E+03   -0.56618E-01   -0.56619E-01  6804   0.936E-01-0.305E-04
CGA:   3    -0.366979509029E+03   -0.16061E-01   -0.16090E-01  6804   0.197E-01 0.307E-03
CGA:   4    -0.366982959298E+03   -0.34503E-02   -0.34565E-02  6804   0.440E-02 0.763E-04
CGA:   5    -0.366983788060E+03   -0.82876E-03   -0.83066E-03  6804   0.119E-02 0.292E-04
CGA:   6    -0.366984041271E+03   -0.25321E-03   -0.25357E-03  6804   0.375E-03 0.940E-05
CGA:   7    -0.366984134889E+03   -0.93617E-04   -0.93607E-04  6804   0.142E-03 0.826E-05
CGA:   8    -0.366984171100E+03   -0.36212E-04   -0.36129E-04  6804   0.537E-04 0.259E-04
CGA:   9    -0.366984186375E+03   -0.15274E-04   -0.15355E-04  6804   0.204E-04 0.181E-04
CGA:  10    -0.366984193056E+03   -0.66812E-05   -0.66853E-05  6804   0.845E-05 0.753E-05
  27 F= -.36698419E+03 E0= -.36698419E+03  d E =-.588414E-02  mag=    16.0000
       N       E                     dE             d eps       ncg     rms          ort
SDA:   1    -0.364455165429E+03    0.25290E+01    0.00000E+00  6804   0.618E+01 0.000E+00
CGA:   2    -0.366420271311E+03   -0.19651E+01   -0.19648E+01  6804   0.268E+01 0.262E-02
CGA:   3    -0.366871862849E+03   -0.45159E+00   -0.45170E+00  6804   0.555E+00 0.336E-03
CGA:   4    -0.366970395663E+03   -0.98533E-01   -0.98541E-01  6804   0.115E+00 0.246E-03
CGA:   5    -0.366992909480E+03   -0.22514E-01   -0.22517E-01  6804   0.327E-01 0.433E-04
CGA:   6    -0.366999665386E+03   -0.67559E-02   -0.67511E-02  6804   0.953E-02-0.152E-03
CGA:   7    -0.367002045663E+03   -0.23803E-02   -0.23803E-02  6804   0.382E-02-0.165E-05
CGA:   8    -0.367003190550E+03   -0.11449E-02   -0.11391E-02  6804   0.177E-02 0.965E-04
CGA:   9    -0.367003760533E+03   -0.56998E-03   -0.56620E-03  6804   0.688E-03 0.529E-04
CGA:  10    -0.367003971832E+03   -0.21130E-03   -0.20925E-03  6804   0.219E-03 0.406E-04
CGA:  11    -0.367004050461E+03   -0.78629E-04   -0.80882E-04  6804   0.103E-03-0.221E-04
CGA:  12    -0.367004085246E+03   -0.34785E-04   -0.36002E-04  6804   0.546E-04-0.890E-05
CGA:  13    -0.367004104728E+03   -0.19482E-04   -0.19233E-04  6804   0.252E-04 0.195E-05
CGA:  14    -0.367004113535E+03   -0.88070E-05   -0.85534E-05  6804   0.939E-05 0.406E-05
CGA:  15    -0.367004112743E+03    0.79232E-06   -0.10217E-04  6804   0.400E-04-0.165E-04
  28 F= -.36700411E+03 E0= -.36700411E+03  d E =-.199197E-01  mag=    16.0000
       N       E                     dE             d eps       ncg     rms          ort
SDA:   1    -0.351684621009E+03    0.15319E+02    0.00000E+00  6804   0.359E+02 0.000E+00
CGA:   2    -0.363109914664E+03   -0.11425E+02   -0.11424E+02  6804   0.141E+02 0.240E-01
CGA:   3    -0.365622571227E+03   -0.25127E+01   -0.25158E+01  6804   0.346E+01 0.184E-01
CGA:   4    -0.366242858872E+03   -0.62029E+00   -0.62089E+00  6804   0.786E+00 0.113E-02
CGA:   5    -0.366404143851E+03   -0.16128E+00   -0.16121E+00  6804   0.248E+00-0.110E-02
CGA:   6    -0.366457727281E+03   -0.53583E-01   -0.53587E-01  6804   0.889E-01-0.355E-04
CGA:   7    -0.366481038370E+03   -0.23311E-01   -0.23317E-01  6804   0.370E-01 0.363E-03
CGA:   8    -0.366492046230E+03   -0.11008E-01   -0.11003E-01  6804   0.159E-01 0.276E-03
CGA:   9    -0.366496748696E+03   -0.47025E-02   -0.47023E-02  6804   0.548E-02 0.542E-05
CGA:  10    -0.366498442262E+03   -0.16936E-02   -0.16975E-02  6804   0.192E-02-0.128E-03
CGA:  11    -0.366499053909E+03   -0.61165E-03   -0.61451E-03  6804   0.807E-03-0.606E-04
CGA:  12    -0.366499347212E+03   -0.29330E-03   -0.29606E-03  6804   0.416E-03-0.291E-04
CGA:  13    -0.366499487390E+03   -0.14018E-03   -0.13730E-03  6804   0.166E-03 0.525E-04
CGA:  14    -0.366499559712E+03   -0.72323E-04   -0.72372E-04  6804   0.785E-04-0.494E-06
CGA:  15    -0.366499585591E+03   -0.25879E-04   -0.25574E-04  6804   0.284E-04 0.973E-05
CGA:  16    -0.366499598576E+03   -0.12985E-04   -0.19493E-04  6804   0.395E-04-0.207E-04
CGA:  17    -0.366499604416E+03   -0.58400E-05   -0.72551E-05  6804   0.591E-05 0.110E-04
  29 F= -.36649960E+03 E0= -.36649960E+03  d E =0.504508E+00  mag=    16.0000
       N       E                     dE             d eps       ncg     rms          ort
SDA:   1    -0.364563503375E+03    0.19361E+01    0.00000E+00  6804   0.571E+01 0.000E+00
CGA:   2    -0.366467995527E+03   -0.19045E+01   -0.19047E+01  6804   0.170E+01-0.651E-02
CGA:   3    -0.366861396421E+03   -0.39340E+00   -0.39340E+00  6804   0.432E+00-0.873E-03
CGA:   4    -0.366941646250E+03   -0.80250E-01   -0.80321E-01  6804   0.127E+00 0.524E-03
CGA:   5    -0.366968011336E+03   -0.26365E-01   -0.26429E-01  6804   0.408E-01 0.722E-03
CGA:   6    -0.366977870800E+03   -0.98595E-02   -0.98849E-02  6804   0.182E-01 0.479E-03
CGA:   7    -0.366982506636E+03   -0.46358E-02   -0.46376E-02  6804   0.715E-02 0.446E-04
CGA:   8    -0.366984576765E+03   -0.20701E-02   -0.20701E-02  6804   0.273E-02 0.101E-04
CGA:   9    -0.366985304316E+03   -0.72755E-03   -0.73045E-03  6804   0.886E-03 0.136E-03
CGA:  10    -0.366985559787E+03   -0.25547E-03   -0.25634E-03  6804   0.293E-03 0.723E-04
CGA:  11    -0.366985643258E+03   -0.83471E-04   -0.84729E-04  6804   0.113E-03 0.631E-04
CGA:  12    -0.366985673710E+03   -0.30452E-04   -0.32751E-04  6804   0.511E-04 0.493E-04
CGA:  13    -0.366985692700E+03   -0.18990E-04   -0.19449E-04  6804   0.279E-04 0.238E-04
CGA:  14    -0.366985698511E+03   -0.58108E-05   -0.77736E-05  6804   0.146E-04 0.211E-04
  30 F= -.36698570E+03 E0= -.36698570E+03  d E =-.486094E+00  mag=    16.0000
       N       E                     dE             d eps       ncg     rms          ort
SDA:   1    -0.366849411968E+03    0.13628E+00    0.00000E+00  6804   0.408E+00 0.000E+00
CGA:   2    -0.366982411854E+03   -0.13300E+00   -0.13303E+00  6804   0.137E+00-0.536E-03
CGA:   3    -0.367011353324E+03   -0.28941E-01   -0.28938E-01  6804   0.390E-01-0.686E-04
CGA:   4    -0.367018253530E+03   -0.69002E-02   -0.69218E-02  6804   0.973E-02 0.226E-03
CGA:   5    -0.367020301530E+03   -0.20480E-02   -0.20580E-02  6804   0.323E-02 0.182E-03
CGA:   6    -0.367021032799E+03   -0.73127E-03   -0.73579E-03  6804   0.133E-02 0.116E-03
CGA:   7    -0.367021395406E+03   -0.36261E-03   -0.36254E-03  6804   0.538E-03 0.287E-04
CGA:   8    -0.367021561040E+03   -0.16563E-03   -0.16601E-03  6804   0.233E-03-0.924E-05
CGA:   9    -0.367021616448E+03   -0.55408E-04   -0.55919E-04  6804   0.696E-04 0.278E-04
CGA:  10    -0.367021632364E+03   -0.15916E-04   -0.16915E-04  6804   0.241E-04 0.224E-04
CGA:  11    -0.367021638801E+03   -0.64365E-05   -0.68904E-05  6804   0.109E-04 0.104E-04
  31 F= -.36702164E+03 E0= -.36702164E+03  d E =-.359403E-01  mag=    16.0000
       N       E                     dE             d eps       ncg     rms          ort
SDA:   1    -0.366935527554E+03    0.86105E-01    0.00000E+00  6804   0.235E+00 0.000E+00
CGA:   2    -0.367004899946E+03   -0.69372E-01   -0.69401E-01  6804   0.969E-01-0.726E-03
CGA:   3    -0.367023420958E+03   -0.18521E-01   -0.18517E-01  6804   0.262E-01-0.722E-04
CGA:   4    -0.367028049616E+03   -0.46287E-02   -0.46522E-02  6804   0.584E-02 0.304E-03
CGA:   5    -0.367029217995E+03   -0.11684E-02   -0.11785E-02  6804   0.178E-02 0.201E-03
CGA:   6    -0.367029621679E+03   -0.40368E-03   -0.40578E-03  6804   0.668E-03 0.786E-04
CGA:   7    -0.367029814550E+03   -0.19287E-03   -0.19295E-03  6804   0.302E-03-0.272E-05
CGA:   8    -0.367029904990E+03   -0.90440E-04   -0.91242E-04  6804   0.137E-03-0.143E-04
CGA:   9    -0.367029935505E+03   -0.30515E-04   -0.30810E-04  6804   0.394E-04 0.203E-04
CGA:  10    -0.367029942498E+03   -0.69933E-05   -0.82019E-05  6804   0.149E-04 0.178E-04
  32 F= -.36702994E+03 E0= -.36702994E+03  d E =-.830370E-02  mag=    16.0000
       N       E                     dE             d eps       ncg     rms          ort
SDA:   1    -0.367004358283E+03    0.25577E-01    0.00000E+00  6804   0.802E-01 0.000E+00
CGA:   2    -0.367024683266E+03   -0.20325E-01   -0.20329E-01  6804   0.349E-01-0.402E-03
CGA:   3    -0.367031372923E+03   -0.66897E-02   -0.66855E-02  6804   0.928E-02-0.866E-04
CGA:   4    -0.367032951593E+03   -0.15787E-02   -0.15940E-02  6804   0.186E-02 0.221E-03
CGA:   5    -0.367033290510E+03   -0.33892E-03   -0.34542E-03  6804   0.487E-03 0.115E-03
CGA:   6    -0.367033402737E+03   -0.11223E-03   -0.11247E-03  6804   0.166E-03 0.137E-04
CGA:   7    -0.367033454690E+03   -0.51953E-04   -0.54559E-04  6804   0.102E-03-0.305E-04
CGA:   8    -0.367033480229E+03   -0.25539E-04   -0.27352E-04  6804   0.572E-04-0.202E-04
CGA:   9    -0.367033490503E+03   -0.10274E-04   -0.10380E-04  6804   0.189E-04 0.643E-05
CGA:  10    -0.367033493244E+03   -0.27404E-05   -0.34099E-05  6804   0.774E-05 0.839E-05
  33 F= -.36703349E+03 E0= -.36703349E+03  d E =-.355075E-02  mag=    16.0000
       N       E                     dE             d eps       ncg     rms          ort
SDA:   1    -0.366966150263E+03    0.67340E-01    0.00000E+00  6804   0.204E+00 0.000E+00
CGA:   2    -0.367015435122E+03   -0.49285E-01   -0.49288E-01  6804   0.874E-01-0.542E-03
CGA:   3    -0.367032468815E+03   -0.17034E-01   -0.17029E-01  6804   0.239E-01-0.130E-03
CGA:   4    -0.367036581504E+03   -0.41127E-02   -0.41351E-02  6804   0.473E-02 0.373E-03
CGA:   5    -0.367037460565E+03   -0.87906E-03   -0.88669E-03  6804   0.125E-02 0.167E-03
CGA:   6    -0.367037744087E+03   -0.28352E-03   -0.28337E-03  6804   0.426E-03-0.175E-04
CGA:   7    -0.367037865385E+03   -0.12130E-03   -0.12612E-03  6804   0.232E-03-0.664E-04
CGA:   8    -0.367037924203E+03   -0.58819E-04   -0.61401E-04  6804   0.118E-03-0.315E-04
CGA:   9    -0.367037951029E+03   -0.26826E-04   -0.26653E-04  6804   0.375E-04 0.630E-05
CGA:  10    -0.367037959407E+03   -0.83783E-05   -0.85890E-05  6804   0.128E-04 0.110E-04
  34 F= -.36703796E+03 E0= -.36703796E+03  d E =-.446616E-02  mag=    16.0000
       N       E                     dE             d eps       ncg     rms          ort
SDA:   1    -0.366893840297E+03    0.14411E+00    0.00000E+00  6804   0.433E+00 0.000E+00
CGA:   2    -0.366993549610E+03   -0.99709E-01   -0.99705E-01  6804   0.185E+00-0.666E-03
CGA:   3    -0.367030124510E+03   -0.36575E-01   -0.36568E-01  6804   0.518E-01-0.191E-03
CGA:   4    -0.367039089402E+03   -0.89649E-02   -0.89991E-02  6804   0.998E-02 0.535E-03
CGA:   5    -0.367040949113E+03   -0.18597E-02   -0.18702E-02  6804   0.263E-02 0.215E-03
CGA:   6    -0.367041537604E+03   -0.58849E-03   -0.58784E-03  6804   0.873E-03-0.512E-04
CGA:   7    -0.367041773839E+03   -0.23624E-03   -0.24053E-03  6804   0.422E-03-0.863E-04
CGA:   8    -0.367041888243E+03   -0.11440E-03   -0.11696E-03  6804   0.209E-03-0.344E-04
CGA:   9    -0.367041944046E+03   -0.55804E-04   -0.55565E-04  6804   0.734E-04 0.450E-05
CGA:  10    -0.367041963386E+03   -0.19339E-04   -0.19118E-04  6804   0.239E-04 0.148E-04
CGA:  11    -0.367041974284E+03   -0.10898E-04   -0.13396E-04  6804   0.259E-04-0.111E-04
CGA:  12    -0.367041982220E+03   -0.79359E-05    0.12969E-04  6804   0.175E-04-0.193E-05
CGA:  13    -0.367041865027E+03    0.11719E-03   -0.63228E-04  6804   0.561E-03-0.105E-03
CGA:  14    -0.367041987149E+03   -0.12212E-03   -0.12463E-03  6804   0.359E-04 0.105E-04
CGA:  15    -0.367041999118E+03   -0.11969E-04   -0.12266E-04  6804   0.119E-04 0.264E-05
CGA:  16    -0.367042001659E+03   -0.25404E-05   -0.36105E-05  6804   0.592E-05 0.676E-05
CGA:  17    -0.367041969942E+03    0.31716E-04   -0.17370E-04  6804   0.196E-03-0.212E-04
CGA:  18    -0.367041996031E+03   -0.26089E-04   -0.39757E-04  6804   0.200E-04 0.232E-04
CGA:  19    -0.367042008191E+03   -0.12159E-04   -0.77992E-05  6804   0.108E-04-0.106E-04
CGA:  20    -0.367042006320E+03    0.18709E-05   -0.11430E-05  6804   0.247E-05 0.474E-05
  35 F= -.36704201E+03 E0= -.36704201E+03  d E =-.404691E-02  mag=    16.0000
       N       E                     dE             d eps       ncg     rms          ort
SDA:   1    -0.366752798323E+03    0.28921E+00    0.00000E+00  6804   0.868E+00 0.000E+00
CGA:   2    -0.366944805980E+03   -0.19201E+00   -0.19208E+00  6804   0.392E+00-0.354E-03
CGA:   3    -0.367022132503E+03   -0.77327E-01   -0.77262E-01  6804   0.106E+00-0.468E-04
CGA:   4    -0.367040716404E+03   -0.18584E-01   -0.18662E-01  6804   0.206E-01 0.250E-03
CGA:   5    -0.367044474229E+03   -0.37578E-02   -0.37931E-02  6804   0.565E-02 0.833E-04
CGA:   6    -0.367045694151E+03   -0.12199E-02   -0.12071E-02  6804   0.176E-02-0.351E-04
CGA:   7    -0.367046156526E+03   -0.46237E-03   -0.44864E-03  6804   0.716E-03-0.444E-04
CGA:   8    -0.367046371640E+03   -0.21511E-03   -0.21097E-03  6804   0.342E-03-0.166E-04
CGA:   9    -0.367046477971E+03   -0.10633E-03   -0.10608E-03  6804   0.140E-03-0.123E-05
CGA:  10    -0.367046517662E+03   -0.39691E-04   -0.41861E-04  6804   0.507E-04 0.937E-05
CGA:  11    -0.367046539564E+03   -0.21902E-04   -0.20866E-04  6804   0.296E-04-0.784E-05
CGA:  12    -0.367046552961E+03   -0.13396E-04   -0.14756E-04  6804   0.363E-04-0.177E-04
CGA:  13    -0.367046560187E+03   -0.72268E-05   -0.81593E-05  6804   0.576E-05 0.320E-05
  36 F= -.36704656E+03 E0= -.36704656E+03  d E =-.455387E-02  mag=    16.0000
       N       E                     dE             d eps       ncg     rms          ort
SDA:   1    -0.366347479102E+03    0.69907E+00    0.00000E+00  6804   0.197E+01 0.000E+00
CGA:   2    -0.366816602317E+03   -0.46912E+00   -0.46936E+00  6804   0.962E+00-0.583E-03
CGA:   3    -0.366998537808E+03   -0.18194E+00   -0.18189E+00  6804   0.233E+00 0.141E-03
CGA:   4    -0.367039022829E+03   -0.40485E-01   -0.40548E-01  6804   0.456E-01 0.400E-03
CGA:   5    -0.367047434209E+03   -0.84114E-02   -0.84443E-02  6804   0.128E-01 0.114E-03
CGA:   6    -0.367050157185E+03   -0.27230E-02   -0.27098E-02  6804   0.387E-02-0.567E-04
CGA:   7    -0.367051141988E+03   -0.98480E-03   -0.97395E-03  6804   0.154E-02-0.580E-04
CGA:   8    -0.367051598376E+03   -0.45639E-03   -0.45513E-03  6804   0.729E-03-0.968E-05
CGA:   9    -0.367051824216E+03   -0.22584E-03   -0.22745E-03  6804   0.295E-03 0.142E-04
CGA:  10    -0.367051910589E+03   -0.86373E-04   -0.89276E-04  6804   0.106E-03 0.233E-04
CGA:  11    -0.367051950684E+03   -0.40095E-04   -0.39814E-04  6804   0.518E-04-0.428E-05
CGA:  12    -0.367051973593E+03   -0.22909E-04   -0.23929E-04  6804   0.410E-04-0.146E-04
CGA:  13    -0.367051983845E+03   -0.10252E-04   -0.10168E-04  6804   0.179E-04-0.122E-05
CGA:  14    -0.367051990793E+03   -0.69484E-05   -0.68732E-05  6804   0.952E-05-0.474E-05
  37 F= -.36705199E+03 E0= -.36705199E+03  d E =-.543061E-02  mag=    16.0000
       N       E                     dE             d eps       ncg     rms          ort
SDA:   1    -0.367012929062E+03    0.39055E-01    0.00000E+00  6804   0.111E+00 0.000E+00
CGA:   2    -0.367043350026E+03   -0.30421E-01   -0.30460E-01  6804   0.490E-01 0.233E-03
CGA:   3    -0.367052587736E+03   -0.92377E-02   -0.92528E-02  6804   0.117E-01 0.607E-04
CGA:   4    -0.367054642976E+03   -0.20552E-02   -0.20278E-02  6804   0.242E-02-0.121E-03
CGA:   5    -0.367055132620E+03   -0.48964E-03   -0.48144E-03  6804   0.671E-03-0.426E-04
CGA:   6    -0.367055262593E+03   -0.12997E-03   -0.13409E-03  6804   0.191E-03 0.225E-04
CGA:   7    -0.367055305731E+03   -0.43138E-04   -0.46489E-04  6804   0.697E-04 0.239E-04
CGA:   8    -0.367055324870E+03   -0.19139E-04   -0.20642E-04  6804   0.312E-04 0.143E-04
CGA:   9    -0.367055334864E+03   -0.99942E-05   -0.10585E-04  6804   0.134E-04 0.722E-05
  38 F= -.36705533E+03 E0= -.36705533E+03  d E =-.334407E-02  mag=    16.0000
       N       E                     dE             d eps       ncg     rms          ort
SDA:   1    -0.366969856990E+03    0.85468E-01    0.00000E+00  6804   0.208E+00 0.000E+00
CGA:   2    -0.367043554743E+03   -0.73698E-01   -0.73698E-01  6804   0.660E-01 0.258E-03
CGA:   3    -0.367055834050E+03   -0.12279E-01   -0.12271E-01  6804   0.140E-01-0.541E-04
CGA:   4    -0.367058265683E+03   -0.24316E-02   -0.24262E-02  6804   0.332E-02-0.334E-04
CGA:   5    -0.367058936545E+03   -0.67086E-03   -0.66838E-03  6804   0.869E-03-0.185E-04
CGA:   6    -0.367059110799E+03   -0.17425E-03   -0.17558E-03  6804   0.270E-03 0.102E-04
CGA:   7    -0.367059175588E+03   -0.64789E-04   -0.66156E-04  6804   0.105E-03 0.163E-04
CGA:   8    -0.367059207045E+03   -0.31457E-04   -0.31944E-04  6804   0.479E-04 0.143E-04
CGA:   9    -0.367059220987E+03   -0.13942E-04   -0.14554E-04  6804   0.181E-04 0.117E-04
CGA:  10    -0.367059226290E+03   -0.53032E-05   -0.56782E-05  6804   0.663E-05 0.575E-05
  39 F= -.36705923E+03 E0= -.36705923E+03  d E =-.389143E-02  mag=    16.0000
       N       E                     dE             d eps       ncg     rms          ort
SDA:   1    -0.365333233329E+03    0.17260E+01    0.00000E+00  6804   0.407E+01 0.000E+00
CGA:   2    -0.366754058103E+03   -0.14208E+01   -0.14207E+01  6804   0.141E+01 0.114E-02
CGA:   3    -0.367000842791E+03   -0.24678E+00   -0.24679E+00  6804   0.303E+00-0.170E-03
CGA:   4    -0.367053724727E+03   -0.52882E-01   -0.52914E-01  6804   0.664E-01 0.278E-03
CGA:   5    -0.367067189550E+03   -0.13465E-01   -0.13463E-01  6804   0.182E-01-0.305E-04
CGA:   6    -0.367070900265E+03   -0.37107E-02   -0.37040E-02  6804   0.549E-02-0.790E-04
CGA:   7    -0.367072301914E+03   -0.14016E-02   -0.14014E-02  6804   0.229E-02-0.823E-05
CGA:   8    -0.367073001705E+03   -0.69979E-03   -0.69905E-03  6804   0.110E-02 0.389E-04
CGA:   9    -0.367073345874E+03   -0.34417E-03   -0.34339E-03  6804   0.411E-03 0.427E-04
CGA:  10    -0.367073479717E+03   -0.13384E-03   -0.13390E-03  6804   0.141E-03-0.248E-05
CGA:  11    -0.367073526242E+03   -0.46525E-04   -0.46828E-04  6804   0.591E-04-0.703E-05
CGA:  12    -0.367073548207E+03   -0.21965E-04   -0.22424E-04  6804   0.337E-04-0.430E-05
CGA:  13    -0.367073559120E+03   -0.10913E-04   -0.10662E-04  6804   0.140E-04 0.583E-05
CGA:  14    -0.367073565927E+03   -0.68075E-05   -0.69759E-05  6804   0.811E-05-0.136E-05
  40 F= -.36707357E+03 E0= -.36707357E+03  d E =-.143396E-01  mag=    16.0000
       N       E                     dE             d eps       ncg     rms          ort
SDA:   1    -0.359437775632E+03    0.76358E+01    0.00000E+00  6804   0.189E+02 0.000E+00
CGA:   2    -0.364818824829E+03   -0.53810E+01   -0.53819E+01  6804   0.872E+01 0.416E-02
CGA:   3    -0.366365593680E+03   -0.15468E+01   -0.15480E+01  6804   0.204E+01 0.142E-01
CGA:   4    -0.366733379704E+03   -0.36779E+00   -0.36832E+00  6804   0.449E+00 0.284E-02
CGA:   5    -0.366820418008E+03   -0.87038E-01   -0.87114E-01  6804   0.131E+00 0.440E-03
CGA:   6    -0.366848051657E+03   -0.27634E-01   -0.27658E-01  6804   0.432E-01 0.243E-03
CGA:   7    -0.366859184558E+03   -0.11133E-01   -0.11142E-01  6804   0.169E-01 0.261E-03
CGA:   8    -0.366864063039E+03   -0.48785E-02   -0.48792E-02  6804   0.724E-02 0.264E-03
CGA:   9    -0.366866244149E+03   -0.21811E-02   -0.21796E-02  6804   0.251E-02 0.206E-03
CGA:  10    -0.366867006105E+03   -0.76196E-03   -0.76140E-03  6804   0.827E-03 0.108E-03
CGA:  11    -0.366867279531E+03   -0.27343E-03   -0.27336E-03  6804   0.333E-03 0.228E-05
CGA:  12    -0.366867403218E+03   -0.12369E-03   -0.12376E-03  6804   0.167E-03-0.101E-05
CGA:  13    -0.366867461584E+03   -0.58366E-04   -0.57095E-04  6804   0.717E-04 0.262E-04
CGA:  14    -0.366867493211E+03   -0.31627E-04   -0.31218E-04  6804   0.351E-04 0.513E-05
CGA:  15    -0.366867508982E+03   -0.15771E-04   -0.16358E-04  6804   0.194E-04-0.441E-05
CGA:  16    -0.366867515425E+03   -0.64426E-05   -0.65541E-05  6804   0.852E-05-0.143E-05
CGA:  17    -0.366867459684E+03    0.55740E-04   -0.30021E-04  6804   0.250E-03-0.416E-04
CGA:  18    -0.366867514297E+03   -0.54613E-04   -0.54692E-04  6804   0.433E-04 0.188E-06
CGA:  19    -0.366867527576E+03   -0.13279E-04   -0.12235E-04  6804   0.964E-05-0.390E-05
CGA:  20    -0.366867530597E+03   -0.30206E-05   -0.32223E-05  6804   0.275E-05 0.118E-05
  41 F= -.36686753E+03 E0= -.36686753E+03  d E =0.206035E+00  mag=    16.0000
       N       E                     dE             d eps       ncg     rms          ort
SDA:   1    -0.366619620119E+03    0.24791E+00    0.00000E+00  6804   0.997E+00 0.000E+00
CGA:   2    -0.366918775986E+03   -0.29916E+00   -0.29895E+00  6804   0.341E+00 0.657E-03
CGA:   3    -0.366998031978E+03   -0.79256E-01   -0.79243E-01  6804   0.834E-01-0.123E-03
CGA:   4    -0.367013655212E+03   -0.15623E-01   -0.15668E-01  6804   0.240E-01 0.179E-03
CGA:   5    -0.367018601398E+03   -0.49462E-02   -0.49557E-02  6804   0.706E-02 0.382E-04
CGA:   6    -0.367020335356E+03   -0.17340E-02   -0.17248E-02  6804   0.317E-02-0.331E-04
CGA:   7    -0.367021120305E+03   -0.78495E-03   -0.77955E-03  6804   0.122E-02-0.207E-04
CGA:   8    -0.367021475906E+03   -0.35560E-03   -0.35406E-03  6804   0.471E-03-0.782E-05
CGA:   9    -0.367021612488E+03   -0.13658E-03   -0.13541E-03  6804   0.167E-03-0.607E-05
CGA:  10    -0.367021658403E+03   -0.45916E-04   -0.46836E-04  6804   0.530E-04 0.477E-05
CGA:  11    -0.367021677584E+03   -0.19181E-04   -0.18853E-04  6804   0.247E-04-0.276E-05
CGA:  12    -0.367021684936E+03   -0.73513E-05   -0.76218E-05  6804   0.106E-04 0.199E-05
  42 F= -.36702168E+03 E0= -.36702168E+03  d E =-.154154E+00  mag=    16.0000
       N       E                     dE             d eps       ncg     rms          ort
SDA:   1    -0.367005044925E+03    0.16633E-01    0.00000E+00  6804   0.114E+00 0.000E+00
CGA:   2    -0.367040595444E+03   -0.35551E-01   -0.35572E-01  6804   0.395E-01 0.154E-03
CGA:   3    -0.367049232617E+03   -0.86372E-02   -0.86202E-02  6804   0.110E-01-0.772E-04
CGA:   4    -0.367051174743E+03   -0.19421E-02   -0.19544E-02  6804   0.291E-02 0.464E-04
CGA:   5    -0.367051771584E+03   -0.59684E-03   -0.60031E-03  6804   0.927E-03 0.157E-04
CGA:   6    -0.367051992400E+03   -0.22082E-03   -0.21737E-03  6804   0.384E-03-0.184E-04
CGA:   7    -0.367052095690E+03   -0.10329E-03   -0.10177E-03  6804   0.145E-03-0.108E-04
CGA:   8    -0.367052136841E+03   -0.41151E-04   -0.41065E-04  6804   0.585E-04-0.787E-06
CGA:   9    -0.367052154678E+03   -0.17837E-04   -0.17384E-04  6804   0.221E-04-0.452E-05
CGA:  10    -0.367052160912E+03   -0.62344E-05   -0.61539E-05  6804   0.686E-05-0.877E-06
  43 F= -.36705216E+03 E0= -.36705216E+03  d E =-.304760E-01  mag=    16.0000
       N       E                     dE             d eps       ncg     rms          ort
SDA:   1    -0.366680489374E+03    0.37167E+00    0.00000E+00  6804   0.983E+00 0.000E+00
CGA:   2    -0.366975110431E+03   -0.29462E+00   -0.29469E+00  6804   0.392E+00 0.404E-03
CGA:   3    -0.367051653545E+03   -0.76543E-01   -0.76501E-01  6804   0.112E+00-0.228E-03
CGA:   4    -0.367071984457E+03   -0.20331E-01   -0.20340E-01  6804   0.260E-01 0.848E-04
CGA:   5    -0.367077423965E+03   -0.54395E-02   -0.54438E-02  6804   0.824E-02 0.292E-04
CGA:   6    -0.367079264985E+03   -0.18410E-02   -0.18360E-02  6804   0.327E-02-0.381E-04
CGA:   7    -0.367080122451E+03   -0.85747E-03   -0.85589E-03  6804   0.128E-02-0.178E-04
CGA:   8    -0.367080479730E+03   -0.35728E-03   -0.35763E-03  6804   0.516E-03 0.509E-05
CGA:   9    -0.367080632083E+03   -0.15235E-03   -0.15173E-03  6804   0.177E-03-0.123E-04
CGA:  10    -0.367080685393E+03   -0.53310E-04   -0.53194E-04  6804   0.595E-04-0.356E-05
CGA:  11    -0.367080703796E+03   -0.18403E-04   -0.18374E-04  6804   0.232E-04-0.120E-05
CGA:  12    -0.367080711633E+03   -0.78375E-05   -0.78348E-05  6804   0.103E-04 0.464E-06
  44 F= -.36708071E+03 E0= -.36708071E+03  d E =-.285507E-01  mag=    16.0000
       N       E                     dE             d eps       ncg     rms          ort
SDA:   1    -0.367071852608E+03    0.88512E-02    0.00000E+00  6804   0.306E-01 0.000E+00
CGA:   2    -0.367081279351E+03   -0.94267E-02   -0.94237E-02  6804   0.114E-01-0.712E-04
CGA:   3    -0.367083650281E+03   -0.23709E-02   -0.23617E-02  6804   0.333E-02-0.649E-04
CGA:   4    -0.367084241757E+03   -0.59148E-03   -0.58548E-03  6804   0.847E-03-0.374E-04
CGA:   5    -0.367084417578E+03   -0.17582E-03   -0.17330E-03  6804   0.281E-03-0.200E-04
CGA:   6    -0.367084475888E+03   -0.58310E-04   -0.58916E-04  6804   0.100E-03 0.537E-05
CGA:   7    -0.367084498551E+03   -0.22663E-04   -0.24022E-04  6804   0.325E-04 0.157E-04
CGA:   8    -0.367084509196E+03   -0.10645E-04   -0.10714E-04  6804   0.164E-04 0.213E-05
CGA:   9    -0.367084513022E+03   -0.38264E-05   -0.40949E-05  6804   0.517E-05 0.328E-05
  45 F= -.36708451E+03 E0= -.36708451E+03  d E =-.380139E-02  mag=    16.0000
       N       E                     dE             d eps       ncg     rms          ort
SDA:   1    -0.367051277677E+03    0.33232E-01    0.00000E+00  6804   0.991E-01 0.000E+00
CGA:   2    -0.367076209666E+03   -0.24932E-01   -0.24934E-01  6804   0.488E-01 0.174E-04
CGA:   3    -0.367085407955E+03   -0.91983E-02   -0.91747E-02  6804   0.123E-01-0.208E-03
CGA:   4    -0.367087662811E+03   -0.22549E-02   -0.22419E-02  6804   0.273E-02-0.114E-03
CGA:   5    -0.367088184671E+03   -0.52186E-03   -0.51680E-03  6804   0.794E-03-0.519E-04
CGA:   6    -0.367088351256E+03   -0.16658E-03   -0.16580E-03  6804   0.267E-03-0.110E-04
CGA:   7    -0.367088413446E+03   -0.62190E-04   -0.63003E-04  6804   0.954E-04 0.194E-04
CGA:   8    -0.367088441343E+03   -0.27897E-04   -0.27945E-04  6804   0.398E-04 0.842E-05
CGA:   9    -0.367088454700E+03   -0.13357E-04   -0.13302E-04  6804   0.167E-04 0.193E-05
CGA:  10    -0.367088457342E+03   -0.26425E-05   -0.32831E-05  6804   0.589E-05 0.689E-05
  46 F= -.36708846E+03 E0= -.36708846E+03  d E =-.394432E-02  mag=    16.0000
       N       E                     dE             d eps       ncg     rms          ort
SDA:   1    -0.367072405118E+03    0.16050E-01    0.00000E+00  6804   0.506E-01 0.000E+00
CGA:   2    -0.367084443008E+03   -0.12038E-01   -0.12041E-01  6804   0.258E-01 0.110E-03
CGA:   3    -0.367089364128E+03   -0.49211E-02   -0.49110E-02  6804   0.632E-02-0.134E-03
CGA:   4    -0.367090506687E+03   -0.11426E-02   -0.11364E-02  6804   0.140E-02-0.743E-04
CGA:   5    -0.367090766164E+03   -0.25948E-03   -0.25722E-03  6804   0.397E-03-0.313E-04
CGA:   6    -0.367090851942E+03   -0.85778E-04   -0.85144E-04  6804   0.136E-03-0.179E-04
CGA:   7    -0.367090883708E+03   -0.31766E-04   -0.31789E-04  6804   0.505E-04 0.300E-05
CGA:   8    -0.367090897550E+03   -0.13842E-04   -0.13773E-04  6804   0.199E-04 0.479E-05
CGA:   9    -0.367090904737E+03   -0.71875E-05   -0.72003E-05  6804   0.954E-05-0.166E-06
  47 F= -.36709090E+03 E0= -.36709090E+03  d E =-.244740E-02  mag=    16.0000
       N       E                     dE             d eps       ncg     rms          ort
SDA:   1    -0.367055869843E+03    0.35028E-01    0.00000E+00  6804   0.102E+00 0.000E+00
CGA:   2    -0.367080507612E+03   -0.24638E-01   -0.24641E-01  6804   0.534E-01 0.222E-03
CGA:   3    -0.367090549666E+03   -0.10042E-01   -0.10030E-01  6804   0.124E-01-0.190E-03
CGA:   4    -0.367092772573E+03   -0.22229E-02   -0.22155E-02  6804   0.268E-02-0.103E-03
CGA:   5    -0.367093271523E+03   -0.49895E-03   -0.49643E-03  6804   0.766E-03-0.423E-04
CGA:   6    -0.367093437196E+03   -0.16567E-03   -0.16486E-03  6804   0.257E-03-0.327E-04
CGA:   7    -0.367093499278E+03   -0.62082E-04   -0.62131E-04  6804   0.101E-03-0.489E-05
CGA:   8    -0.367093526541E+03   -0.27263E-04   -0.27121E-04  6804   0.402E-04 0.443E-05
CGA:   9    -0.367093540437E+03   -0.13896E-04   -0.14072E-04  6804   0.183E-04-0.195E-05
CGA:  10    -0.367093544689E+03   -0.42520E-05   -0.42671E-05  6804   0.608E-05 0.352E-05
  48 F= -.36709354E+03 E0= -.36709354E+03  d E =-.263995E-02  mag=    16.0000
       N       E                     dE             d eps       ncg     rms          ort
SDA:   1    -0.367047103041E+03    0.46437E-01    0.00000E+00  6804   0.128E+00 0.000E+00
CGA:   2    -0.367079926723E+03   -0.32824E-01   -0.32821E-01  6804   0.693E-01 0.250E-03
CGA:   3    -0.367092437924E+03   -0.12511E-01   -0.12498E-01  6804   0.146E-01-0.211E-03
CGA:   4    -0.367095025444E+03   -0.25875E-02   -0.25815E-02  6804   0.311E-02-0.880E-04
CGA:   5    -0.367095606022E+03   -0.58058E-03   -0.57866E-03  6804   0.880E-03-0.368E-04
CGA:   6    -0.367095796407E+03   -0.19039E-03   -0.18967E-03  6804   0.283E-03-0.376E-04
CGA:   7    -0.367095864702E+03   -0.68295E-04   -0.68461E-04  6804   0.113E-03-0.100E-04
CGA:   8    -0.367095895240E+03   -0.30538E-04   -0.30348E-04  6804   0.468E-04 0.469E-05
CGA:   9    -0.367095910835E+03   -0.15595E-04   -0.15518E-04  6804   0.195E-04 0.963E-06
CGA:  10    -0.367095916125E+03   -0.52900E-05   -0.52204E-05  6804   0.661E-05 0.360E-05
  49 F= -.36709592E+03 E0= -.36709592E+03  d E =-.237144E-02  mag=    16.0000
       N       E                     dE             d eps       ncg     rms          ort
SDA:   1    -0.366956488446E+03    0.13942E+00    0.00000E+00  6804   0.361E+00 0.000E+00
CGA:   2    -0.367058329155E+03   -0.10184E+00   -0.10183E+00  6804   0.191E+00 0.300E-03
CGA:   3    -0.367090902792E+03   -0.32574E-01   -0.32549E-01  6804   0.371E-01-0.352E-03
CGA:   4    -0.367097469312E+03   -0.65665E-02   -0.65629E-02  6804   0.778E-02-0.504E-04
CGA:   5    -0.367098941593E+03   -0.14723E-02   -0.14720E-02  6804   0.220E-02-0.766E-05
CGA:   6    -0.367099407834E+03   -0.46624E-03   -0.46493E-03  6804   0.657E-03-0.552E-04
CGA:   7    -0.367099572515E+03   -0.16468E-03   -0.16553E-03  6804   0.277E-03-0.355E-04
CGA:   8    -0.367099649294E+03   -0.76779E-04   -0.76848E-04  6804   0.126E-03-0.122E-05
CGA:   9    -0.367099688833E+03   -0.39539E-04   -0.39394E-04  6804   0.491E-04 0.190E-05
CGA:  10    -0.367099704449E+03   -0.15615E-04   -0.15567E-04  6804   0.178E-04 0.684E-06
CGA:  11    -0.367099710566E+03   -0.61178E-05   -0.62109E-05  6804   0.806E-05-0.945E-06
  50 F= -.36709971E+03 E0= -.36709971E+03  d E =-.379444E-02  mag=    16.0000
       N       E                     dE             d eps       ncg     rms          ort
SDA:   1    -0.366331096172E+03    0.76861E+00    0.00000E+00  6804   0.191E+01 0.000E+00
CGA:   2    -0.366905150334E+03   -0.57405E+00   -0.57403E+00  6804   0.964E+00 0.463E-03
CGA:   3    -0.367064352123E+03   -0.15920E+00   -0.15915E+00  6804   0.183E+00-0.671E-03
CGA:   4    -0.367096860275E+03   -0.32508E-01   -0.32508E-01  6804   0.387E-01 0.385E-04
CGA:   5    -0.367104243572E+03   -0.73833E-02   -0.73870E-02  6804   0.111E-01 0.467E-04
CGA:   6    -0.367106510382E+03   -0.22668E-02   -0.22608E-02  6804   0.313E-02-0.117E-03
CGA:   7    -0.367107300999E+03   -0.79062E-03   -0.79084E-03  6804   0.128E-02-0.100E-03
CGA:   8    -0.367107672435E+03   -0.37144E-03   -0.37187E-03  6804   0.602E-03-0.926E-05
CGA:   9    -0.367107865528E+03   -0.19309E-03   -0.19336E-03  6804   0.243E-03-0.396E-05
CGA:  10    -0.367107943214E+03   -0.77686E-04   -0.78508E-04  6804   0.906E-04-0.125E-04
CGA:  11    -0.367107972940E+03   -0.29725E-04   -0.31098E-04  6804   0.430E-04-0.139E-04
CGA:  12    -0.367107985828E+03   -0.12889E-04   -0.22398E-04  6804   0.614E-04-0.274E-04
CGA:  13    -0.367107997600E+03   -0.11771E-04   -0.12455E-04  6804   0.834E-05 0.833E-05
CGA:  14    -0.367107958981E+03    0.38619E-04   -0.20897E-04  6804   0.164E-03-0.357E-04
CGA:  15    -0.367107998721E+03   -0.39740E-04   -0.43417E-04  6804   0.179E-04 0.148E-04
CGA:  16    -0.367108003900E+03   -0.51787E-05   -0.15700E-04  6804   0.841E-04-0.347E-04
CGA:  17    -0.367108008808E+03   -0.49081E-05   -0.12335E-04  6804   0.103E-04 0.201E-04
  51 F= -.36710801E+03 E0= -.36710801E+03  d E =-.829824E-02  mag=    16.0000
       N       E                     dE             d eps       ncg     rms          ort
SDA:   1    -0.366988696234E+03    0.11931E+00    0.00000E+00  6804   0.293E+00 0.000E+00
CGA:   2    -0.367086326403E+03   -0.97630E-01   -0.97602E-01  6804   0.119E+00-0.236E-03
CGA:   3    -0.367106252591E+03   -0.19926E-01   -0.19971E-01  6804   0.243E-01 0.133E-03
CGA:   4    -0.367110501792E+03   -0.42492E-02   -0.42948E-02  6804   0.530E-02 0.162E-03
CGA:   5    -0.367111532434E+03   -0.10306E-02   -0.10374E-02  6804   0.144E-02 0.265E-04
CGA:   6    -0.367111843034E+03   -0.31060E-03   -0.30360E-03  6804   0.434E-03-0.320E-04
CGA:   7    -0.367111953308E+03   -0.11027E-03   -0.10853E-03  6804   0.177E-03-0.108E-04
CGA:   8    -0.367111999996E+03   -0.46688E-04   -0.48140E-04  6804   0.754E-04 0.109E-04
CGA:   9    -0.367112024692E+03   -0.24696E-04   -0.25062E-04  6804   0.296E-04 0.402E-05
CGA:  10    -0.367112036007E+03   -0.11316E-04   -0.11150E-04  6804   0.136E-04-0.401E-05
CGA:  11    -0.367112036842E+03   -0.83421E-06   -0.95772E-05  6804   0.546E-04-0.210E-04
CGA:  12    -0.367112047370E+03   -0.10529E-04   -0.10765E-04  6804   0.607E-05 0.106E-05
CGA:  13    -0.367112049996E+03   -0.26253E-05   -0.26585E-05  6804   0.300E-05-0.148E-05
  52 F= -.36711205E+03 E0= -.36711205E+03  d E =-.404119E-02  mag=    16.0000
       N       E                     dE             d eps       ncg     rms          ort
SDA:   1    -0.366624697060E+03    0.48735E+00    0.00000E+00  6804   0.117E+01 0.000E+00
CGA:   2    -0.367016887537E+03   -0.39219E+00   -0.39216E+00  6804   0.473E+00-0.588E-03
CGA:   3    -0.367096091584E+03   -0.79204E-01   -0.79276E-01  6804   0.974E-01 0.252E-03
CGA:   4    -0.367113167512E+03   -0.17076E-01   -0.17150E-01  6804   0.211E-01 0.340E-03
CGA:   5    -0.367117285563E+03   -0.41181E-02   -0.41313E-02  6804   0.580E-02 0.670E-04
CGA:   6    -0.367118496688E+03   -0.12111E-02   -0.12009E-02  6804   0.170E-02-0.627E-04
CGA:   7    -0.367118928791E+03   -0.43210E-03   -0.42913E-03  6804   0.696E-03-0.273E-04
CGA:   8    -0.367119125937E+03   -0.19715E-03   -0.19877E-03  6804   0.315E-03 0.236E-04
CGA:   9    -0.367119228067E+03   -0.10213E-03   -0.10257E-03  6804   0.122E-03 0.108E-04
CGA:  10    -0.367119270305E+03   -0.42238E-04   -0.42078E-04  6804   0.472E-04-0.768E-05
CGA:  11    -0.367119288073E+03   -0.17768E-04   -0.19366E-04  6804   0.353E-04-0.187E-04
CGA:  12    -0.367119264682E+03    0.23391E-04   -0.23746E-04  6804   0.210E-03-0.621E-04
CGA:  13    -0.367119304221E+03   -0.39539E-04   -0.42283E-04  6804   0.250E-04 0.142E-04
CGA:  14    -0.367119316247E+03   -0.12025E-04   -0.12600E-04  6804   0.133E-04-0.661E-05
CGA:  15    -0.367119317031E+03   -0.78460E-06   -0.17547E-05  6804   0.623E-05 0.462E-05
  53 F= -.36711932E+03 E0= -.36711932E+03  d E =-.726704E-02  mag=    16.0000
       N       E                     dE             d eps       ncg     rms          ort
SDA:   1    -0.361965010725E+03    0.51543E+01    0.00000E+00  6804   0.123E+02 0.000E+00
CGA:   2    -0.366083814203E+03   -0.41188E+01   -0.41192E+01  6804   0.484E+01 0.122E-02
CGA:   3    -0.366898447497E+03   -0.81463E+00   -0.81559E+00  6804   0.100E+01 0.337E-02
CGA:   4    -0.367074150710E+03   -0.17570E+00   -0.17589E+00  6804   0.220E+00 0.137E-02
CGA:   5    -0.367117766289E+03   -0.43616E-01   -0.43662E-01  6804   0.622E-01 0.261E-03
CGA:   6    -0.367130599297E+03   -0.12833E-01   -0.12810E-01  6804   0.185E-01-0.196E-03
CGA:   7    -0.367135378154E+03   -0.47789E-02   -0.47690E-02  6804   0.782E-02-0.137E-03
CGA:   8    -0.367137715753E+03   -0.23376E-02   -0.23396E-02  6804   0.370E-02 0.721E-04
CGA:   9    -0.367138883090E+03   -0.11673E-02   -0.11680E-02  6804   0.139E-02 0.422E-04
CGA:  10    -0.367139322687E+03   -0.43960E-03   -0.43908E-03  6804   0.473E-03-0.355E-04
CGA:  11    -0.367139474268E+03   -0.15158E-03   -0.15163E-03  6804   0.191E-03-0.202E-04
CGA:  12    -0.367139554930E+03   -0.80662E-04   -0.90810E-04  6804   0.171E-03-0.598E-04
CGA:  13    -0.367139594061E+03   -0.39131E-04   -0.39148E-04  6804   0.794E-04 0.692E-05
CGA:  14    -0.367139625102E+03   -0.31041E-04   -0.32291E-04  6804   0.468E-04-0.223E-04
CGA:  15    -0.367139637191E+03   -0.12089E-04   -0.12443E-04  6804   0.223E-04-0.112E-04
CGA:  16    -0.367139640242E+03   -0.30504E-05   -0.35968E-05  6804   0.959E-05 0.429E-05
  54 F= -.36713964E+03 E0= -.36713964E+03  d E =-.203232E-01  mag=    16.0000
       N       E                     dE             d eps       ncg     rms          ort
SDA:   1    -0.364553353745E+03    0.25863E+01    0.00000E+00  6804   0.712E+01 0.000E+00
CGA:   2    -0.366266823820E+03   -0.17135E+01   -0.17149E+01  6804   0.266E+01-0.121E-02
CGA:   3    -0.366846299459E+03   -0.57948E+00   -0.57965E+00  6804   0.817E+00 0.168E-02
CGA:   4    -0.366984441782E+03   -0.13814E+00   -0.13816E+00  6804   0.173E+00-0.545E-04
CGA:   5    -0.367018738829E+03   -0.34297E-01   -0.34262E-01  6804   0.498E-01-0.333E-03
CGA:   6    -0.367029604121E+03   -0.10865E-01   -0.10869E-01  6804   0.184E-01 0.265E-04
CGA:   7    -0.367034370179E+03   -0.47661E-02   -0.47756E-02  6804   0.746E-02 0.206E-03
CGA:   8    -0.367036605514E+03   -0.22353E-02   -0.22364E-02  6804   0.332E-02 0.173E-03
CGA:   9    -0.367037621264E+03   -0.10157E-02   -0.10159E-02  6804   0.126E-02 0.714E-04
CGA:  10    -0.367038018579E+03   -0.39731E-03   -0.39703E-03  6804   0.480E-03 0.414E-04
CGA:  11    -0.367038170932E+03   -0.15235E-03   -0.15212E-03  6804   0.203E-03 0.507E-04
CGA:  12    -0.367038236475E+03   -0.65543E-04   -0.66055E-04  6804   0.910E-04 0.590E-04
CGA:  13    -0.367038263902E+03   -0.27427E-04   -0.29728E-04  6804   0.434E-04 0.472E-04
CGA:  14    -0.367038274653E+03   -0.10751E-04   -0.11396E-04  6804   0.195E-04 0.175E-04
CGA:  15    -0.367038279712E+03   -0.50586E-05   -0.62810E-05  6804   0.139E-04 0.178E-04
  55 F= -.36703828E+03 E0= -.36703828E+03  d E =0.101361E+00  mag=    16.0000
       N       E                     dE             d eps       ncg     rms          ort
SDA:   1    -0.366765356127E+03    0.27292E+00    0.00000E+00  6804   0.875E+00 0.000E+00
CGA:   2    -0.367039806853E+03   -0.27445E+00   -0.27448E+00  6804   0.284E+00-0.748E-03
CGA:   3    -0.367108038852E+03   -0.68232E-01   -0.68235E-01  6804   0.630E-01-0.846E-04
CGA:   4    -0.367120749060E+03   -0.12710E-01   -0.12752E-01  6804   0.194E-01 0.489E-03
CGA:   5    -0.367124608351E+03   -0.38593E-02   -0.38711E-02  6804   0.593E-02 0.138E-03
CGA:   6    -0.367126133727E+03   -0.15254E-02   -0.15230E-02  6804   0.268E-02-0.932E-04
CGA:   7    -0.367126803577E+03   -0.66985E-03   -0.66778E-03  6804   0.109E-02-0.790E-04
CGA:   8    -0.367127102622E+03   -0.29904E-03   -0.29911E-03  6804   0.410E-03-0.112E-04
CGA:   9    -0.367127219737E+03   -0.11712E-03   -0.11718E-03  6804   0.141E-03-0.638E-05
CGA:  10    -0.367127258372E+03   -0.38635E-04   -0.38635E-04  6804   0.440E-04 0.557E-05
CGA:  11    -0.367127275991E+03   -0.17619E-04   -0.21801E-04  6804   0.422E-04-0.212E-04
CGA:  12    -0.367127282930E+03   -0.69396E-05   -0.92843E-05  6804   0.316E-04-0.173E-04
CGA:  13    -0.367127211040E+03    0.71890E-04   -0.26192E-04  6804   0.344E-03-0.885E-04
CGA:  14    -0.367127282142E+03   -0.71102E-04   -0.76577E-04  6804   0.301E-04 0.427E-04
CGA:  15    -0.367127285531E+03   -0.33889E-05   -0.31471E-04  6804   0.138E-03-0.478E-04
CGA:  16    -0.367127292447E+03   -0.69159E-05   -0.19501E-04  6804   0.279E-04 0.542E-04
  56 F= -.36712729E+03 E0= -.36712729E+03  d E =-.890127E-01  mag=    16.0000
[...]
CGA:   2    -0.365982826309E+03   -0.29215E+01   -0.29220E+01  6804   0.509E+01 0.283E-01
CGA:   3    -0.366999434125E+03   -0.10166E+01   -0.10166E+01  6804   0.148E+01-0.331E-02
CGA:   4    -0.367243506134E+03   -0.24407E+00   -0.24395E+00  6804   0.282E+00-0.175E-02
CGA:   5    -0.367296627621E+03   -0.53121E-01   -0.53118E-01  6804   0.752E-01-0.833E-04
CGA:   6    -0.367312439361E+03   -0.15812E-01   -0.15811E-01  6804   0.240E-01-0.289E-04
CGA:   7    -0.367318642056E+03   -0.62027E-02   -0.62088E-02  6804   0.104E-01-0.264E-03
CGA:   8    -0.367321963344E+03   -0.33213E-02   -0.33548E-02  6804   0.584E-02-0.376E-03
CGA:   9    -0.367323792512E+03   -0.18292E-02   -0.18406E-02  6804   0.266E-02-0.134E-03
CGA:  10    -0.367324635039E+03   -0.84253E-03   -0.85262E-03  6804   0.104E-02-0.122E-03
CGA:  11    -0.367324973828E+03   -0.33879E-03   -0.34496E-03  6804   0.478E-03-0.637E-04
CGA:  12    -0.367325126248E+03   -0.15242E-03   -0.14936E-03  6804   0.206E-03 0.384E-04
CGA:  13    -0.367325216192E+03   -0.89944E-04   -0.91492E-04  6804   0.109E-03-0.103E-04
CGA:  14    -0.367325251301E+03   -0.35109E-04   -0.34695E-04  6804   0.356E-04 0.580E-05
CGA:  15    -0.367325265822E+03   -0.14521E-04   -0.17246E-04  6804   0.216E-04-0.143E-04
CGA:  16    -0.367325269038E+03   -0.32165E-05   -0.32691E-05  6804   0.943E-05 0.205E-05
 154 F= -.36732527E+03 E0= -.36732527E+03  d E =0.924220E-02  mag=    16.0000
       N       E                     dE             d eps       ncg     rms          ort
SDA:   1    -0.314196312886E+03    0.53129E+02    0.00000E+00  6804   0.122E+03 0.000E+00
CGA:   2    -0.349505069870E+03   -0.35309E+02   -0.35314E+02  6804   0.489E+02-0.305E+00
CGA:   3    -0.358825150358E+03   -0.93201E+01   -0.93503E+01  6804   0.142E+02 0.110E+00
CGA:   4    -0.361049307035E+03   -0.22242E+01   -0.16958E+01  6804   0.462E+01 0.354E+01
CGA:   5    -0.361858993520E+03   -0.80969E+00   -0.84401E+00  6804   0.268E+01-0.767E-01
CGA:   6    -0.362104217903E+03   -0.24522E+00   -0.15401E+00  6804   0.116E+01 0.149E+01
CGA:   7    -0.362293153605E+03   -0.18894E+00   -0.18303E+00  6804   0.115E+01 0.174E-01
CGA:   8    -0.362375204187E+03   -0.82051E-01   -0.11039E+00  6804   0.781E+00-0.188E+00
CGA:   9    -0.362486542111E+03   -0.11134E+00   -0.91618E-01  6804   0.469E+00 0.782E-01
CGA:  10    -0.362562106886E+03   -0.75565E-01   -0.76894E-01  6804   0.271E+00-0.824E-02
CGA:  11    -0.362579630484E+03   -0.17524E-01   -0.15108E-01  6804   0.866E-01 0.551E-01
CGA:  12    -0.362602666893E+03   -0.23036E-01   -0.23035E-01  6804   0.112E+00 0.196E-02
CGA:  13    -0.362609490962E+03   -0.68241E-02   -0.75975E-02  6804   0.600E-01-0.206E-01
CGA:  14    -0.362614466996E+03   -0.49760E-02   -0.49160E-02  6804   0.249E-01 0.204E-02
CGA:  15    -0.362619668251E+03   -0.52013E-02   -0.52031E-02  6804   0.110E-01 0.816E-03
CGA:  16    -0.362620822317E+03   -0.11541E-02   -0.99733E-03  6804   0.132E-01-0.177E-02
CGA:  17    -0.362622258793E+03   -0.14365E-02   -0.14706E-02  6804   0.439E-02 0.556E-03
CGA:  18    -0.362622463323E+03   -0.20453E-03   -0.29062E-03  6804   0.372E-02 0.798E-03
CGA:  19    -0.362623314503E+03   -0.85118E-03   -0.85360E-03  6804   0.178E-02-0.476E-03
CGA:  20    -0.362623541144E+03   -0.22664E-03   -0.19891E-03  6804   0.300E-02-0.469E-03
CGA:  21    -0.362623624043E+03   -0.82898E-04   -0.13038E-03  6804   0.176E-02 0.452E-03
CGA:  22    -0.362623706182E+03   -0.82139E-04   -0.12246E-03  6804   0.162E-02 0.389E-03
CGA:  23    -0.362623942760E+03   -0.23658E-03   -0.20471E-03  6804   0.107E-02-0.491E-03
CGA:  24    -0.362624022118E+03   -0.79358E-04   -0.63235E-04  6804   0.121E-02-0.193E-03
CGA:  25    -0.362624016977E+03    0.51416E-05   -0.37326E-04  6804   0.534E-03 0.366E-03
CGA:  26    -0.362623998254E+03    0.18723E-04   -0.17505E-04  6804   0.231E-03 0.292E-03
CGA:  27    -0.362624040031E+03   -0.41778E-04   -0.39835E-04  6804   0.856E-04 0.101E-03
CGA:  28    -0.362624093246E+03   -0.53214E-04    0.23493E-04  6804   0.255E-03-0.258E-04
CGA:  29    -0.362624093820E+03   -0.57467E-06   -0.61555E-05  6804   0.205E-03 0.471E-04
 155 F= -.36262409E+03 E0= -.36262227E+03  d E =0.470118E+01  mag=    16.0000
       N       E                     dE             d eps       ncg     rms          ort
SDA:   1    -0.354711073869E+03    0.79130E+01    0.00000E+00  6804   0.286E+02 0.000E+00
CGA:   2    -0.358398597018E+03   -0.36875E+01   -0.52817E+01  6804   0.156E+03-0.222E+02
CGA:   3    -0.362189285311E+03   -0.37907E+01   -0.11850E+02  6804   0.120E+02-0.527E+01
CGA:   4    -0.361612947129E+03    0.57634E+00   -0.21455E+01  6804   0.163E+03-0.658E+02
CGA:   5    -0.364604228952E+03   -0.29913E+01   -0.11989E+02  6804   0.453E+01-0.578E+01
CGA:   6    -0.364861594221E+03   -0.25737E+00   -0.80096E+00  6804   0.230E+02-0.157E+02
CGA:   7    -0.365558769266E+03   -0.69718E+00   -0.17487E+01  6804   0.957E+00-0.761E+00
CGA:   8    -0.365702381681E+03   -0.14361E+00   -0.23213E+00  6804   0.296E+01-0.983E+00
CGA:   9    -0.365865954046E+03   -0.16357E+00   -0.24833E+00  6804   0.206E+00-0.704E-01
CGA:  10    -0.365948678384E+03   -0.82724E-01   -0.84063E-01  6804   0.262E+00-0.753E-02
CGA:  11    -0.365987080809E+03   -0.38402E-01   -0.38460E-01  6804   0.138E-01 0.117E-01
CGA:  12    -0.365996709251E+03   -0.96284E-02   -0.84566E-05  6804   0.117E-01-0.487E-02
CGA:  13    -0.365997826378E+03   -0.11171E-02   -0.11982E-02  6804   0.451E-02 0.675E-03
CGA:  14    -0.365998854945E+03   -0.10286E-02   -0.10530E-02  6804   0.263E-02 0.447E-03
CGA:  15    -0.365999509171E+03   -0.65423E-03   -0.66135E-03  6804   0.135E-02 0.162E-03
CGA:  16    -0.365999789824E+03   -0.28065E-03   -0.29363E-03  6804   0.676E-03 0.198E-03
CGA:  17    -0.365999985904E+03   -0.19608E-03   -0.19701E-03  6804   0.410E-03 0.721E-04
CGA:  18    -0.366000086912E+03   -0.10101E-03   -0.10206E-03  6804   0.208E-03 0.271E-04
CGA:  19    -0.366000102624E+03   -0.15712E-04   -0.28652E-04  6804   0.925E-04 0.957E-04
CGA:  20    -0.366000105756E+03   -0.31314E-05   -0.13627E-04  6804   0.449E-04 0.672E-04
CGA:  21    -0.366000126854E+03   -0.21098E-04   -0.21343E-04  6804   0.231E-04-0.109E-05
CGA:  22    -0.366000125072E+03    0.17823E-05   -0.15024E-05  6804   0.139E-04 0.169E-04
 156 F= -.36600013E+03 E0= -.36600013E+03  d E =-.337603E+01  mag=    16.0000
       N       E                     dE             d eps       ncg     rms          ort
SDA:   1    -0.358375041079E+03    0.76251E+01    0.00000E+00  6804   0.211E+02 0.000E+00
CGA:   2    -0.365193708427E+03   -0.68187E+01   -0.68088E+01  6804   0.662E+01 0.938E-01
CGA:   3    -0.366734974399E+03   -0.15413E+01   -0.15414E+01  6804   0.173E+01 0.391E-03
CGA:   4    -0.367061426141E+03   -0.32645E+00   -0.32669E+00  6804   0.521E+00 0.168E-02
CGA:   5    -0.367167071080E+03   -0.10564E+00   -0.10572E+00  6804   0.167E+00 0.127E-02
CGA:   6    -0.367208923415E+03   -0.41852E-01   -0.41849E-01  6804   0.736E-01 0.340E-03
CGA:   7    -0.367227341763E+03   -0.18418E-01   -0.18421E-01  6804   0.289E-01-0.363E-03
CGA:   8    -0.367235793217E+03   -0.84515E-02   -0.84576E-02  6804   0.112E-01-0.124E-03
CGA:   9    -0.367238870630E+03   -0.30774E-02   -0.30718E-02  6804   0.379E-02 0.175E-03
CGA:  10    -0.367240062325E+03   -0.11917E-02   -0.12054E-02  6804   0.138E-02-0.205E-03
CGA:  11    -0.367240447509E+03   -0.38518E-03   -0.38027E-03  6804   0.466E-03 0.116E-03
CGA:  12    -0.367240632091E+03   -0.18458E-03   -0.18580E-03  6804   0.256E-03-0.106E-04
CGA:  13    -0.367240726427E+03   -0.94336E-04   -0.96701E-04  6804   0.127E-03-0.186E-04
CGA:  14    -0.367240769093E+03   -0.42666E-04   -0.43612E-04  6804   0.598E-04-0.891E-05
CGA:  15    -0.367240521584E+03    0.24751E-03   -0.13366E-03  6804   0.126E-02-0.237E-03
CGA:  16    -0.367240741347E+03   -0.21976E-03   -0.24647E-03  6804   0.190E-03 0.901E-04
CGA:  17    -0.367240796416E+03   -0.55068E-04   -0.55059E-04  6804   0.476E-04-0.139E-06
CGA:  18    -0.367240818787E+03   -0.22371E-04   -0.22413E-04  6804   0.248E-04-0.705E-05
CGA:  19    -0.367240817905E+03    0.88235E-06   -0.31888E-05  6804   0.127E-04 0.129E-04
 157 F= -.36724082E+03 E0= -.36724082E+03  d E =-.124069E+01  mag=    16.0000
       N       E                     dE             d eps       ncg     rms          ort
SDA:   1    -0.367054310724E+03    0.18651E+00    0.00000E+00  6804   0.604E+00 0.000E+00
CGA:   2    -0.367232580962E+03   -0.17827E+00   -0.17835E+00  6804   0.221E+00-0.708E-03
CGA:   3    -0.367276984782E+03   -0.44404E-01   -0.44531E-01  6804   0.679E-01 0.522E-03
CGA:   4    -0.367289097793E+03   -0.12113E-01   -0.12172E-01  6804   0.162E-01 0.254E-03
CGA:   5    -0.367292390987E+03   -0.32932E-02   -0.32569E-02  6804   0.518E-02-0.179E-03
CGA:   6    -0.367293605191E+03   -0.12142E-02   -0.11892E-02  6804   0.211E-02-0.151E-03
CGA:   7    -0.367294094499E+03   -0.48931E-03   -0.49939E-03  6804   0.746E-03 0.688E-04
CGA:   8    -0.367294280667E+03   -0.18617E-03   -0.19750E-03  6804   0.273E-03 0.893E-04
CGA:   9    -0.367294375435E+03   -0.94769E-04   -0.94252E-04  6804   0.114E-03-0.764E-05
CGA:  10    -0.367294412568E+03   -0.37132E-04   -0.36396E-04  6804   0.468E-04-0.161E-04
CGA:  11    -0.367294423070E+03   -0.10502E-04   -0.26037E-04  6804   0.116E-03-0.563E-04
CGA:  12    -0.367294434770E+03   -0.11700E-04   -0.17697E-04  6804   0.135E-04 0.259E-04
CGA:  13    -0.367294436274E+03   -0.15046E-05   -0.28070E-05  6804   0.529E-05 0.641E-05
 158 F= -.36729444E+03 E0= -.36729444E+03  d E =-.536184E-01  mag=    16.0000
       N       E                     dE             d eps       ncg     rms          ort
SDA:   1    -0.366950434524E+03    0.34400E+00    0.00000E+00  6804   0.983E+00 0.000E+00
CGA:   2    -0.367212245522E+03   -0.26181E+00   -0.26188E+00  6804   0.413E+00-0.354E-03
CGA:   3    -0.367289902846E+03   -0.77657E-01   -0.77811E-01  6804   0.122E+00 0.886E-03
CGA:   4    -0.367312554210E+03   -0.22651E-01   -0.22736E-01  6804   0.295E-01 0.568E-03
CGA:   5    -0.367318179852E+03   -0.56256E-02   -0.55745E-02  6804   0.861E-02-0.359E-03
CGA:   6    -0.367320223797E+03   -0.20439E-02   -0.20014E-02  6804   0.343E-02-0.467E-03
CGA:   7    -0.367321013330E+03   -0.78953E-03   -0.79224E-03  6804   0.123E-02 0.344E-04
CGA:   8    -0.367321297000E+03   -0.28367E-03   -0.29817E-03  6804   0.409E-03 0.184E-03
CGA:   9    -0.367321443561E+03   -0.14656E-03   -0.14655E-03  6804   0.178E-03-0.550E-05
CGA:  10    -0.367321507298E+03   -0.63737E-04   -0.69306E-04  6804   0.125E-03-0.698E-04
CGA:  11    -0.367321436715E+03    0.70582E-04   -0.67980E-04  6804   0.651E-03-0.241E-03
CGA:  12    -0.367321532682E+03   -0.95967E-04   -0.11167E-03  6804   0.847E-04 0.894E-04
CGA:  13    -0.367321551522E+03   -0.18840E-04   -0.22605E-04  6804   0.344E-04 0.363E-04
CGA:  14    -0.367321558791E+03   -0.72689E-05   -0.10025E-04  6804   0.155E-04 0.214E-04
CGA:  15    -0.367321568184E+03   -0.93927E-05   -0.11051E-04  6804   0.168E-04-0.432E-05
 159 F= -.36732157E+03 E0= -.36732157E+03  d E =-.271319E-01  mag=    16.0000
       N       E                     dE             d eps       ncg     rms          ort
SDA:   1    -0.367289781380E+03    0.31777E-01    0.00000E+00  6804   0.114E+00 0.000E+00
CGA:   2    -0.367313206165E+03   -0.23425E-01   -0.23431E-01  6804   0.492E-01 0.277E-04
CGA:   3    -0.367323045395E+03   -0.98392E-02   -0.98854E-02  6804   0.148E-01 0.332E-03
CGA:   4    -0.367325747231E+03   -0.27018E-02   -0.27296E-02  6804   0.377E-02 0.193E-03
CGA:   5    -0.367326485702E+03   -0.73847E-03   -0.72493E-03  6804   0.104E-02-0.100E-03
CGA:   6    -0.367326761057E+03   -0.27535E-03   -0.26308E-03  6804   0.529E-03-0.217E-03
CGA:   7    -0.367326864206E+03   -0.10315E-03   -0.99603E-04  6804   0.190E-03-0.463E-04
CGA:   8    -0.367326889879E+03   -0.25673E-04   -0.31704E-04  6804   0.567E-04 0.471E-04
CGA:   9    -0.367326899777E+03   -0.98978E-05   -0.12517E-04  6804   0.211E-04 0.205E-04
CGA:  10    -0.367326909828E+03   -0.10051E-04   -0.13094E-04  6804   0.301E-04-0.194E-04
CGA:  11    -0.367326919599E+03   -0.97709E-05   -0.12580E-04  6804   0.352E-04-0.253E-04
CGA:  12    -0.367326930500E+03   -0.10901E-04   -0.10699E-04  6804   0.235E-04-0.267E-04
CGA:  13    -0.367326930462E+03    0.37642E-07   -0.22185E-05  6804   0.450E-05 0.104E-04
 160 F= -.36732693E+03 E0= -.36732693E+03  d E =-.536228E-02  mag=    16.0000
       N       E                     dE             d eps       ncg     rms          ort
SDA:   1    -0.367085810298E+03    0.24112E+00    0.00000E+00  6804   0.871E+00 0.000E+00
CGA:   2    -0.367234779753E+03   -0.14897E+00   -0.14901E+00  6804   0.311E+00 0.265E-04
CGA:   3    -0.367303455836E+03   -0.68676E-01   -0.68679E-01  6804   0.115E+00-0.311E-04
CGA:   4    -0.367324410997E+03   -0.20955E-01   -0.20958E-01  6804   0.291E-01 0.105E-03
CGA:   5    -0.367329756971E+03   -0.53460E-02   -0.53274E-02  6804   0.753E-02-0.193E-03
CGA:   6    -0.367331459083E+03   -0.17021E-02   -0.16854E-02  6804   0.270E-02-0.373E-03
CGA:   7    -0.367332110277E+03   -0.65119E-03   -0.64931E-03  6804   0.102E-02-0.124E-03
CGA:   8    -0.367332345829E+03   -0.23555E-03   -0.23758E-03  6804   0.324E-03 0.860E-04
CGA:   9    -0.367332442952E+03   -0.97124E-04   -0.96803E-04  6804   0.119E-03 0.322E-04
CGA:  10    -0.367332492167E+03   -0.49215E-04   -0.61913E-04  6804   0.133E-03-0.612E-04
CGA:  11    -0.367332519093E+03   -0.26925E-04   -0.27054E-04  6804   0.229E-04 0.172E-05
CGA:  12    -0.367332512254E+03    0.68388E-05   -0.22066E-04  6804   0.139E-03-0.426E-04
CGA:  13    -0.367332532554E+03   -0.20300E-04   -0.23505E-04  6804   0.161E-04 0.233E-04
CGA:  14    -0.367332537028E+03   -0.44747E-05   -0.46039E-05  6804   0.291E-05 0.231E-05
 161 F= -.36733254E+03 E0= -.36733254E+03  d E =-.560657E-02  mag=    16.0000
       N       E                     dE             d eps       ncg     rms          ort
SDA:   1    -0.367310022302E+03    0.22510E-01    0.00000E+00  6804   0.818E-01 0.000E+00
CGA:   2    -0.367323765982E+03   -0.13744E-01   -0.13743E-01  6804   0.286E-01-0.154E-04
CGA:   3    -0.367330220395E+03   -0.64544E-02   -0.64328E-02  6804   0.111E-01-0.364E-03
CGA:   4    -0.367332254187E+03   -0.20338E-02   -0.20112E-02  6804   0.278E-02-0.221E-03
CGA:   5    -0.367332740178E+03   -0.48599E-03   -0.48587E-03  6804   0.696E-03-0.482E-06
CGA:   6    -0.367332875455E+03   -0.13528E-03   -0.13934E-03  6804   0.211E-03 0.561E-04
CGA:   7    -0.367332930855E+03   -0.55401E-04   -0.55774E-04  6804   0.801E-04 0.154E-04
CGA:   8    -0.367332960186E+03   -0.29331E-04   -0.41105E-04  6804   0.118E-03-0.560E-04
CGA:   9    -0.367332977555E+03   -0.17369E-04   -0.18839E-04  6804   0.165E-04 0.123E-04
CGA:  10    -0.367332981864E+03   -0.43090E-05   -0.44274E-05  6804   0.532E-05 0.405E-05
 162 F= -.36733298E+03 E0= -.36733298E+03  d E =-.444835E-03  mag=    16.0000
       N       E                     dE             d eps       ncg     rms          ort
SDA:   1    -0.367288997956E+03    0.43980E-01    0.00000E+00  6804   0.141E+00 0.000E+00
CGA:   2    -0.367316036945E+03   -0.27039E-01   -0.27032E-01  6804   0.586E-01-0.757E-04
CGA:   3    -0.367328303125E+03   -0.12266E-01   -0.12211E-01  6804   0.196E-01-0.668E-03
CGA:   4    -0.367331805908E+03   -0.35028E-02   -0.34637E-02  6804   0.471E-02-0.351E-03
CGA:   5    -0.367332627280E+03   -0.82137E-03   -0.82278E-03  6804   0.114E-02 0.138E-04
CGA:   6    -0.367332847202E+03   -0.21992E-03   -0.22799E-03  6804   0.344E-03 0.104E-03
CGA:   7    -0.367332934877E+03   -0.87675E-04   -0.89084E-04  6804   0.129E-03 0.386E-04
CGA:   8    -0.367332986627E+03   -0.51750E-04   -0.58975E-04  6804   0.128E-03-0.525E-04
CGA:   9    -0.367333003573E+03   -0.16946E-04   -0.16479E-04  6804   0.642E-04-0.746E-05
CGA:  10    -0.367333010356E+03   -0.67832E-05   -0.88979E-05  6804   0.299E-04 0.164E-04
 163 F= -.36733301E+03 E0= -.36733301E+03  d E =-.284923E-04  mag=    16.0000
       N       E                     dE             d eps       ncg     rms          ort
SDA:   1    -0.367320261795E+03    0.12742E-01    0.00000E+00  6804   0.383E-01 0.000E+00
CGA:   2    -0.367328325151E+03   -0.80634E-02   -0.80544E-02  6804   0.174E-01-0.173E-03
CGA:   3    -0.367331799799E+03   -0.34746E-02   -0.34623E-02  6804   0.505E-02-0.207E-03
CGA:   4    -0.367332667840E+03   -0.86804E-03   -0.87212E-03  6804   0.111E-02 0.498E-04
CGA:   5    -0.367332865244E+03   -0.19740E-03   -0.19919E-03  6804   0.284E-03 0.234E-04
CGA:   6    -0.367332935108E+03   -0.69864E-04   -0.69655E-04  6804   0.113E-03-0.246E-04
CGA:   7    -0.367332964760E+03   -0.29652E-04   -0.30867E-04  6804   0.638E-04-0.246E-04
CGA:   8    -0.367332978452E+03   -0.13692E-04   -0.13812E-04  6804   0.263E-04-0.474E-05
CGA:   9    -0.367332984706E+03   -0.62540E-05   -0.62452E-05  6804   0.881E-05 0.224E-05
 164 F= -.36733298E+03 E0= -.36733298E+03  d E =0.256496E-04  mag=    16.0000
       N       E                     dE             d eps       ncg     rms          ort
SDA:   1    -0.367261795079E+03    0.71183E-01    0.00000E+00  6804   0.218E+00 0.000E+00
CGA:   2    -0.367304796698E+03   -0.43002E-01   -0.42993E-01  6804   0.977E-01-0.176E-03
CGA:   3    -0.367325059727E+03   -0.20263E-01   -0.20254E-01  6804   0.294E-01-0.253E-03
CGA:   4    -0.367330111604E+03   -0.50519E-02   -0.50604E-02  6804   0.644E-02 0.118E-03
CGA:   5    -0.367331268614E+03   -0.11570E-02   -0.11581E-02  6804   0.166E-02 0.165E-04
CGA:   6    -0.367331653584E+03   -0.38497E-03   -0.38428E-03  6804   0.604E-03-0.891E-04
CGA:   7    -0.367331806813E+03   -0.15323E-03   -0.15589E-03  6804   0.272E-03-0.781E-04
CGA:   8    -0.367331874164E+03   -0.67352E-04   -0.68618E-04  6804   0.116E-03-0.257E-04
CGA:   9    -0.367331907798E+03   -0.33633E-04   -0.35979E-04  6804   0.559E-04-0.232E-04
CGA:  10    -0.367331922515E+03   -0.14717E-04   -0.16319E-04  6804   0.275E-04-0.136E-04
CGA:  11    -0.367331928616E+03   -0.61013E-05   -0.11178E-04  6804   0.316E-04-0.179E-04
 165 F= -.36733193E+03 E0= -.36733193E+03  d E =0.105609E-02  mag=    16.0000
       N       E                     dE             d eps       ncg     rms          ort
SDA:   1    -0.367319088247E+03    0.12834E-01    0.00000E+00  6804   0.377E-01 0.000E+00
CGA:   2    -0.367327831348E+03   -0.87431E-02   -0.87414E-02  6804   0.192E-01-0.495E-04
CGA:   3    -0.367331490545E+03   -0.36592E-02   -0.36664E-02  6804   0.516E-02 0.102E-03
CGA:   4    -0.367332406942E+03   -0.91640E-03   -0.91515E-03  6804   0.118E-02-0.150E-04
CGA:   5    -0.367332622577E+03   -0.21563E-03   -0.21763E-03  6804   0.327E-03 0.283E-04
CGA:   6    -0.367332684158E+03   -0.61581E-04   -0.64391E-04  6804   0.976E-04 0.478E-04
CGA:   7    -0.367332707448E+03   -0.23290E-04   -0.24118E-04  6804   0.372E-04 0.255E-04
CGA:   8    -0.367332719093E+03   -0.11645E-04   -0.11632E-04  6804   0.174E-04 0.871E-05
CGA:   9    -0.367332722150E+03   -0.30572E-05   -0.37486E-05  6804   0.723E-05 0.960E-05
 166 F= -.36733272E+03 E0= -.36733272E+03  d E =-.793534E-03  mag=    16.0000
       N       E                     dE             d eps       ncg     rms          ort
SDA:   1    -0.367326173569E+03    0.65455E-02    0.00000E+00  6804   0.212E-01 0.000E+00
CGA:   2    -0.367330523162E+03   -0.43496E-02   -0.43511E-02  6804   0.965E-02 0.471E-04
CGA:   3    -0.367332397348E+03   -0.18742E-02   -0.18841E-02  6804   0.272E-02 0.238E-03
CGA:   4    -0.367332887685E+03   -0.49034E-03   -0.49287E-03  6804   0.618E-03 0.444E-04
CGA:   5    -0.367333006838E+03   -0.11915E-03   -0.11844E-03  6804   0.172E-03-0.167E-04
CGA:   6    -0.367333042577E+03   -0.35738E-04   -0.35753E-04  6804   0.560E-04 0.902E-06
CGA:   7    -0.367333053049E+03   -0.10472E-04   -0.10934E-04  6804   0.179E-04 0.135E-04
CGA:   8    -0.367333056321E+03   -0.32720E-05   -0.38208E-05  6804   0.838E-05 0.993E-05
 167 F= -.36733306E+03 E0= -.36733306E+03  d E =-.334171E-03  mag=    16.0000
