 vasp.6.1.2 22Jul20 (build Feb 09 2022 12:23:39) complex                        
  
 executed on             LinuxIFC date 2022.04.06  14:57:26
 running on 1056 total cores
 distrk:  each k-point on 1056 cores,    1 groups
 distr:  one band on NCORE=  24 cores,   44 groups


--------------------------------------------------------------------------------------------------------


 INCAR:
 POTCAR:    PAW_PBE Ca_sv 06Sep2000               
 POTCAR:    PAW_PBE V_pv 07Sep2000                
 POTCAR:    PAW_PBE S 06Sep2000                   
 POTCAR:    PAW_PBE O 08Apr2002                   
 POTCAR:    PAW_PBE Ca_sv 06Sep2000               
   SHA256 =  a47365830e737f14e0e6c5cf1ed81b94e081eecf0a33df105380881bc9da05d5 Ca_sv/POTCAR          
   COPYR  = (c) Copyright 06Sep2000 Georg Kresse                                                    
   COPYR  = This file is part of the software VASP. Any use, copying, and all other rights are regul
   COPYR  = If you do not have a valid VASP license, you may not use, copy or distribute this file. 
   VRHFIN =Ca: 3s3p4s                                                                               
   LEXCH  = PE                                                                                      
   EATOM  =  1006.0909 eV,   73.9456 Ry                                                             
                                                                                                    
   TITEL  = PAW_PBE Ca_sv 06Sep2000                                                                 
   LULTRA =        F    use ultrasoft PP ?                                                          
   IUNSCR =        1    unscreen: 0-lin 1-nonlin 2-no                                               
   RPACOR =    2.000    partial core radius                                                         
   POMASS =   40.078; ZVAL   =   10.000    mass and valenz                                          
   RCORE  =    2.300    outmost cutoff radius                                                       
   RWIGS  =    2.500; RWIGS  =    1.323    wigner-seitz radius (au A)                               
   ENMAX  =  266.622; ENMIN  =  199.967 eV                                                          
   RCLOC  =    1.808    cutoff for local pot                                                        
   LCOR   =        T    correct aug charges                                                         
   LPAW   =        T    paw PP                                                                      
   EAUG   =  420.852                                                                                
   RMAX   =    2.359    core radius for proj-oper                                                   
   RAUG   =    1.300    factor for augmentation sphere                                              
   RDEP   =    2.392    radius for radial grids                                                     
   RDEPT  =    1.987    core radius for aug-charge                                                  
                                                                                                    
   Atomic configuration                                                                             
    7 entries                                                                                       
     n  l   j            E        occ.                                                              
     1  0  0.50     -3949.1705   2.0000                                                             
     2  0  0.50      -414.3434   2.0000                                                             
     2  1  1.50      -334.7047   6.0000                                                             
     3  0  0.50       -47.0896   2.0000                                                             
     4  0  0.50        -3.7663   2.0000                                                             
     3  1  1.50       -28.0061   6.0000                                                             
     3  2  1.50        -4.0817   0.0000                                                             
   Description                                                                                      
     l       E           TYP  RCUT    TYP  RCUT                                                     
     0    -47.0896403     23  2.300                                                                 
     0     -3.7663320     23  2.300                                                                 
     1    -28.0060855     23  2.300                                                                 
     1      6.8029130     23  2.300                                                                 
     2     -4.0817478     23  2.300                                                                 
     2      0.4464412     23  2.300                                                                 
  local pseudopotential read in
  partial core-charges read in
  partial kinetic energy density read in
  atomic valenz-charges read in
  non local Contribution for L=           0  read in
    real space projection operators read in
  non local Contribution for L=           0  read in
    real space projection operators read in
  non local Contribution for L=           1  read in
    real space projection operators read in
  non local Contribution for L=           1  read in
    real space projection operators read in
  non local Contribution for L=           2  read in
    real space projection operators read in
  non local Contribution for L=           2  read in
    real space projection operators read in
    PAW grid and wavefunctions read in
 
   number of l-projection  operators is LMAX  =           6
   number of lm-projection operators is LMMAX =          18
 
 POTCAR:    PAW_PBE V_pv 07Sep2000                
   SHA256 =  1175d3c8cb4ffd1d150a520fa74fae5c3ec72c0849b5615a94a5372dd2cf07f7 V_pv/POTCAR           
   COPYR  = (c) Copyright 07Sep2000 Georg Kresse                                                    
   COPYR  = This file is part of the software VASP. Any use, copying, and all other rights are regul
   COPYR  = If you do not have a valid VASP license, you may not use, copy or distribute this file. 
   VRHFIN =V: p6 d4 s1                                                                              
   LEXCH  = PE                                                                                      
   EATOM  =  1321.6206 eV,   97.1364 Ry                                                             
                                                                                                    
   TITEL  = PAW_PBE V_pv 07Sep2000                                                                  
   LULTRA =        F    use ultrasoft PP ?                                                          
   IUNSCR =        1    unscreen: 0-lin 1-nonlin 2-no                                               
   RPACOR =    1.700    partial core radius                                                         
   POMASS =   50.941; ZVAL   =   11.000    mass and valenz                                          
   RCORE  =    2.300    outmost cutoff radius                                                       
   RWIGS  =    2.300; RWIGS  =    1.217    wigner-seitz radius (au A)                               
   ENMAX  =  263.673; ENMIN  =  197.755 eV                                                          
   RCLOC  =    1.779    cutoff for local pot                                                        
   LCOR   =        T    correct aug charges                                                         
   LPAW   =        T    paw PP                                                                      
   EAUG   =  598.473                                                                                
   DEXC   =    0.000                                                                                
   RMAX   =    2.359    core radius for proj-oper                                                   
   RAUG   =    1.300    factor for augmentation sphere                                              
   RDEP   =    2.430    radius for radial grids                                                     
   RDEPT  =    1.700    core radius for aug-charge                                                  
                                                                                                    
   Atomic configuration                                                                             
    8 entries                                                                                       
     n  l   j            E        occ.                                                              
     1  0  0.50     -5360.7193   2.0000                                                             
     2  0  0.50      -598.4546   2.0000                                                             
     2  1  1.50      -499.0155   6.0000                                                             
     3  0  0.50       -66.5711   2.0000                                                             
     3  1  1.50       -40.5282   6.0000                                                             
     3  2  2.50        -2.4291   4.0000                                                             
     4  0  0.50        -3.8743   1.0000                                                             
     4  3  2.50        -1.3606   0.0000                                                             
   Description                                                                                      
     l       E           TYP  RCUT    TYP  RCUT                                                     
     1    -40.5282431     23  2.000                                                                 
     1      5.4423304     23  2.000                                                                 
     2     -2.4290905     23  2.300                                                                 
     2     -1.0472488     23  2.300                                                                 
     0     -3.8742754     23  2.300                                                                 
     0     27.2116520     23  2.300                                                                 
  local pseudopotential read in
  partial core-charges read in
  partial kinetic energy density read in
  atomic valenz-charges read in
  non local Contribution for L=           1  read in
    real space projection operators read in
  non local Contribution for L=           1  read in
    real space projection operators read in
  non local Contribution for L=           2  read in
    real space projection operators read in
  non local Contribution for L=           2  read in
    real space projection operators read in
  non local Contribution for L=           0  read in
    real space projection operators read in
  non local Contribution for L=           0  read in
    real space projection operators read in
    PAW grid and wavefunctions read in
 
   number of l-projection  operators is LMAX  =           6
   number of lm-projection operators is LMMAX =          18
 
 POTCAR:    PAW_PBE S 06Sep2000                   
   SHA256 =  0fc7481fb0695f01bdc6462160264c5c84044ae9ec85a907d398b887a2bc3132 S/POTCAR              
   COPYR  = (c) Copyright 06Sep2000 Georg Kresse                                                    
   COPYR  = This file is part of the software VASP. Any use, copying, and all other rights are regul
   COPYR  = If you do not have a valid VASP license, you may not use, copy or distribute this file. 
   VRHFIN =S : s2p4                                                                                 
   LEXCH  = PE                                                                                      
   EATOM  =   276.8230 eV,   20.3459 Ry                                                             
                                                                                                    
   TITEL  = PAW_PBE S 06Sep2000                                                                     
   LULTRA =        F    use ultrasoft PP ?                                                          
   IUNSCR =        1    unscreen: 0-lin 1-nonlin 2-no                                               
   RPACOR =    1.500    partial core radius                                                         
   POMASS =   32.066; ZVAL   =    6.000    mass and valenz                                          
   RCORE  =    1.900    outmost cutoff radius                                                       
   RWIGS  =    2.200; RWIGS  =    1.164    wigner-seitz radius (au A)                               
   ENMAX  =  258.689; ENMIN  =  194.016 eV                                                          
   ICORE  =        2    local potential                                                             
   LCOR   =        T    correct aug charges                                                         
   LPAW   =        T    paw PP                                                                      
   EAUG   =  335.092                                                                                
   DEXC   =    0.000                                                                                
   RMAX   =    1.942    core radius for proj-oper                                                   
   RAUG   =    1.300    factor for augmentation sphere                                              
   RDEP   =    1.954    radius for radial grids                                                     
   RDEPT  =    1.744    core radius for aug-charge                                                  
                                                                                                    
   Atomic configuration                                                                             
    6 entries                                                                                       
     n  l   j            E        occ.                                                              
     1  0  0.50     -2405.8406   2.0000                                                             
     2  0  0.50      -211.7007   2.0000                                                             
     2  1  1.50      -156.4958   6.0000                                                             
     3  0  0.50       -17.2562   2.0000                                                             
     3  1  0.50        -7.0085   4.0000                                                             
     3  2  1.50        -6.8029   0.0000                                                             
   Description                                                                                      
     l       E           TYP  RCUT    TYP  RCUT                                                     
     0    -17.2561641     23  1.900                                                                 
     0    -15.8743224     23  1.900                                                                 
     1     -7.0085400     23  1.900                                                                 
     1     -2.7779785     23  1.900                                                                 
     2     -6.8029130     23  1.900                                                                 
  local pseudopotential read in
  partial core-charges read in
  partial kinetic energy density read in
  atomic valenz-charges read in
  non local Contribution for L=           0  read in
    real space projection operators read in
  non local Contribution for L=           0  read in
    real space projection operators read in
  non local Contribution for L=           1  read in
    real space projection operators read in
  non local Contribution for L=           1  read in
    real space projection operators read in
    PAW grid and wavefunctions read in
 
   number of l-projection  operators is LMAX  =           4
   number of lm-projection operators is LMMAX =           8
 
 POTCAR:    PAW_PBE O 08Apr2002                   
   SHA256 =  818f92134a0a090dccd8ba1447fa70422a3b330e708bb4f08108d8ae51209ddf O/POTCAR              
   COPYR  = (c) Copyright 08Apr2002 Georg Kresse                                                    
   COPYR  = This file is part of the software VASP. Any use, copying, and all other rights are regul
   COPYR  = If you do not have a valid VASP license, you may not use, copy or distribute this file. 
   VRHFIN =O: s2p4                                                                                  
   LEXCH  = PE                                                                                      
   EATOM  =   432.3788 eV,   31.7789 Ry                                                             
                                                                                                    
   TITEL  = PAW_PBE O 08Apr2002                                                                     
   LULTRA =        F    use ultrasoft PP ?                                                          
   IUNSCR =        1    unscreen: 0-lin 1-nonlin 2-no                                               
   RPACOR =    1.200    partial core radius                                                         
   POMASS =   16.000; ZVAL   =    6.000    mass and valenz                                          
   RCORE  =    1.520    outmost cutoff radius                                                       
   RWIGS  =    1.550; RWIGS  =    0.820    wigner-seitz radius (au A)                               
   ENMAX  =  400.000; ENMIN  =  300.000 eV                                                          
   ICORE  =        2    local potential                                                             
   LCOR   =        T    correct aug charges                                                         
   LPAW   =        T    paw PP                                                                      
   EAUG   =  605.392                                                                                
   DEXC   =    0.000                                                                                
   RMAX   =    1.553    core radius for proj-oper                                                   
   RAUG   =    1.300    factor for augmentation sphere                                              
   RDEP   =    1.550    radius for radial grids                                                     
   RDEPT  =    1.329    core radius for aug-charge                                                  
                                                                                                    
   Atomic configuration                                                                             
    4 entries                                                                                       
     n  l   j            E        occ.                                                              
     1  0  0.50      -514.6923   2.0000                                                             
     2  0  0.50       -23.9615   2.0000                                                             
     2  1  0.50        -9.0305   4.0000                                                             
     3  2  1.50        -9.5241   0.0000                                                             
   Description                                                                                      
     l       E           TYP  RCUT    TYP  RCUT                                                     
     0    -23.9615318     23  1.200                                                                 
     0     -9.5240782     23  1.200                                                                 
     1     -9.0304911     23  1.520                                                                 
     1      8.1634956     23  1.520                                                                 
     2     -9.5240782      7  1.500                                                                 
  local pseudopotential read in
  partial core-charges read in
  partial kinetic energy density read in
  kinetic energy density of atom read in
  atomic valenz-charges read in
  non local Contribution for L=           0  read in
    real space projection operators read in
  non local Contribution for L=           0  read in
    real space projection operators read in
  non local Contribution for L=           1  read in
    real space projection operators read in
  non local Contribution for L=           1  read in
    real space projection operators read in
    PAW grid and wavefunctions read in
 
   number of l-projection  operators is LMAX  =           4
   number of lm-projection operators is LMMAX =           8
 
 Optimization of the real space projectors (new method)

 maximal supplied QI-value         = 16.25
 optimisation between [QCUT,QGAM] = [ 11.54, 23.24] = [ 37.28,151.24] Ry 
 Optimized for a Real-space Cutoff    1.58 Angstroem

   l    n(q)    QCUT    max X(q) W(low)/X(q) W(high)/X(q)  e(spline) 
   0     11    11.539    11.817    0.25E-04    0.22E-05    0.26E-07
   0     11    11.539     8.461    0.39E-04    0.49E-05    0.55E-07
   1     11    11.539     3.957    0.21E-05    0.44E-05    0.32E-07
   1     11    11.539     4.314    0.56E-04    0.44E-04    0.19E-06
   2     10    11.539    14.565    0.25E-03    0.21E-04    0.75E-06
   2     10    11.539    14.552    0.23E-03    0.22E-04    0.72E-06
 Optimization of the real space projectors (new method)

 maximal supplied QI-value         = 16.25
 optimisation between [QCUT,QGAM] = [ 11.54, 23.24] = [ 37.28,151.24] Ry 
 Optimized for a Real-space Cutoff    1.53 Angstroem

   l    n(q)    QCUT    max X(q) W(low)/X(q) W(high)/X(q)  e(spline) 
   1     10    11.539     3.206    0.43E-05    0.46E-05    0.52E-07
   1     10    11.539     4.597    0.39E-04    0.25E-04    0.17E-06
   2     10    11.539    89.000    0.10E-03    0.13E-03    0.24E-06
   2     10    11.539    82.410    0.10E-03    0.13E-03    0.23E-06
   0     11    11.539    36.565    0.42E-04    0.19E-04    0.30E-06
   0     11    11.539    13.729    0.20E-04    0.13E-04    0.22E-06
 Optimization of the real space projectors (new method)

 maximal supplied QI-value         = 19.84
 optimisation between [QCUT,QGAM] = [ 11.51, 23.22] = [ 37.09,150.92] Ry 
 Optimized for a Real-space Cutoff    1.21 Angstroem

   l    n(q)    QCUT    max X(q) W(low)/X(q) W(high)/X(q)  e(spline) 
   0      8    11.508   187.594    0.96E-04    0.18E-03    0.54E-07
   0      8    11.508   164.243    0.96E-04    0.18E-03    0.54E-07
   1      8    11.508    67.533    0.18E-03    0.65E-04    0.94E-07
   1      8    11.508    50.729    0.18E-03    0.63E-04    0.92E-07
 Optimization of the real space projectors (new method)

 maximal supplied QI-value         = 24.76
 optimisation between [QCUT,QGAM] = [ 11.64, 23.27] = [ 37.91,151.63] Ry 
 Optimized for a Real-space Cutoff    1.14 Angstroem

   l    n(q)    QCUT    max X(q) W(low)/X(q) W(high)/X(q)  e(spline) 
   0      8    11.635    20.381    0.10E-03    0.33E-03    0.24E-06
   0      8    11.635    15.268    0.11E-03    0.35E-03    0.26E-06
   1      7    11.635     5.964    0.24E-03    0.31E-03    0.30E-06
   1      7    11.635     5.382    0.22E-03    0.25E-03    0.26E-06
  PAW_PBE Ca_sv 06Sep2000               :
 energy of atom  1       EATOM=-1006.0909
 kinetic energy error for atom=    0.0022 (will be added to EATOM!!)
  PAW_PBE V_pv 07Sep2000                :
 energy of atom  2       EATOM=-1321.6206
 kinetic energy error for atom=    0.0054 (will be added to EATOM!!)
  PAW_PBE S 06Sep2000                   :
 energy of atom  3       EATOM= -276.8230
 kinetic energy error for atom=    0.0016 (will be added to EATOM!!)
  PAW_PBE O 08Apr2002                   :
 energy of atom  4       EATOM= -432.3788
 kinetic energy error for atom=    0.0208 (will be added to EATOM!!)
 
 
 POSCAR: Ca2 V4 S6 O24
  positions in direct lattice
  velocities in cartesian coordinates

 METAGGA = SCAN     LMAXTAU =  6    LMIXTAU =  F

 exchange correlation table for  LEXCH =        8
   RHO(1)=    0.500       N(1)  =     2000
   RHO(2)=  100.500       N(2)  =     4000
 


--------------------------------------------------------------------------------------------------------


 ion  position               nearest neighbor table
   1  0.498  0.498  0.498-  15 2.38  17 2.38  13 2.38  22 2.38  24 2.38  20 2.38
   2  0.998  0.998  0.998-  14 2.38  16 2.38  18 2.38  23 2.38  21 2.38  19 2.39
   3  0.644  0.645  0.645-  26 2.09  30 2.09  28 2.09  17 2.14  13 2.14  15 2.14
   4  0.145  0.144  0.145-  29 2.09  27 2.09  25 2.09  16 2.14  18 2.14  14 2.14
   5  0.851  0.851  0.851-  34 2.09  36 2.09  32 2.09  21 2.14  19 2.14  23 2.14
   6  0.351  0.351  0.351-  35 2.09  31 2.09  33 2.09  20 2.14  22 2.14  24 2.14
   7  0.949  0.248  0.546-  31 1.45  25 1.45  15 1.49  23 1.49
   8  0.449  0.046  0.748-  32 1.45  26 1.45  22 1.49  18 1.49
   9  0.546  0.949  0.248-  33 1.45  27 1.45  19 1.49  17 1.49
  10  0.748  0.449  0.046-  34 1.45  28 1.45  14 1.49  24 1.49
  11  0.248  0.546  0.949-  35 1.45  29 1.45  13 1.49  21 1.49
  12  0.046  0.748  0.449-  36 1.45  30 1.45  20 1.49  16 1.49
  13  0.404  0.566  0.767-  11 1.49   3 2.14   1 2.38
  14  0.904  0.267  0.065-  10 1.49   4 2.14   2 2.38
  15  0.767  0.404  0.565-   7 1.49   3 2.14   1 2.38
  16  0.065  0.904  0.267-  12 1.49   4 2.14   2 2.38
  17  0.566  0.767  0.404-   9 1.49   3 2.14   1 2.38
  18  0.267  0.065  0.904-   8 1.49   4 2.14   2 2.38
  19  0.728  0.930  0.091-   9 1.49   5 2.14   2 2.39
  20  0.228  0.591  0.430-  12 1.49   6 2.14   1 2.38
  21  0.091  0.728  0.930-  11 1.49   5 2.14   2 2.38
  22  0.430  0.228  0.591-   8 1.49   6 2.14   1 2.38
  23  0.930  0.091  0.728-   7 1.49   5 2.14   2 2.38
  24  0.591  0.430  0.228-  10 1.49   6 2.14   1 2.38
  25  0.984  0.193  0.400-   7 1.45   4 2.09
  26  0.484  0.900  0.693-   8 1.45   3 2.09
  27  0.400  0.983  0.193-   9 1.45   4 2.09
  28  0.693  0.484  0.900-  10 1.45   3 2.09
  29  0.193  0.400  0.984-  11 1.45   4 2.09
  30  0.900  0.693  0.484-  12 1.45   3 2.09
  31  0.095  0.303  0.510-   7 1.45   6 2.09
  32  0.595  0.011  0.802-   8 1.45   5 2.09
  33  0.510  0.095  0.303-   9 1.45   6 2.09
  34  0.803  0.596  0.010-  10 1.45   5 2.09
  35  0.303  0.511  0.095-  11 1.45   6 2.09
  36  0.011  0.803  0.595-  12 1.45   5 2.09
 

IMPORTANT INFORMATION: All symmetrisations will be switched off!
NOSYMM: (Re-)initialisation of all symmetry stuff for point group C_1.


----------------------------------------------------------------------------------------

                                     Primitive cell                                     

  volume of cell :     481.1270

  direct lattice vectors                    reciprocal lattice vectors
     7.662240225  0.092113576  4.491070898     0.131985695 -0.047131842 -0.001550770
     2.623141105  7.197875346  4.493236953    -0.000821149  0.140148991 -0.001473542
     0.137982244  0.094185357  8.881104001    -0.066328183 -0.047071871  0.114128333

  length of vectors
     8.881898895  8.881410759  8.882675174     0.140157194  0.140159142  0.140144444

  position of ions in fractional coordinates (direct lattice)
     0.497689175  0.497683856  0.497745863
     0.997674870  0.997710906  0.997737797
     0.644488735  0.644523121  0.644584653
     0.144598501  0.144412789  0.144581302
     0.850874255  0.850866513  0.850746700
     0.350807622  0.350941829  0.350742893
     0.949446455  0.247586860  0.545618078
     0.449389759  0.045683583  0.747536137
     0.545636898  0.949320269  0.247597430
     0.747582800  0.449430588  0.045573169
     0.247576682  0.545651619  0.949487737
     0.045621143  0.747597217  0.449433957
     0.403891262  0.565512709  0.766682790
     0.904011632  0.266718308  0.065347360
     0.766624216  0.403877710  0.565478273
     0.065379210  0.903991861  0.266678930
     0.565515564  0.766603730  0.404022434
     0.266706464  0.065364674  0.904034790
     0.728311958  0.930048924  0.091069162
     0.228332603  0.591093186  0.430094947
     0.090946089  0.728265888  0.930259085
     0.429928347  0.228399155  0.591087723
     0.930315064  0.091055696  0.728308218
     0.591133183  0.430146121  0.228321570
     0.983921563  0.192505784  0.399842448
     0.483876515  0.899775708  0.692628976
     0.399801103  0.983486549  0.192761202
     0.692544076  0.483763252  0.899845631
     0.192754272  0.399635224  0.984078180
     0.899722126  0.692655186  0.483989250
     0.095350870  0.302878826  0.510403721
     0.595444582  0.010778437  0.802449974
     0.510445548  0.095442268  0.302561015
     0.802678748  0.595505389  0.010342058
     0.302701098  0.510787225  0.095358594
     0.010677014  0.802699039  0.595367954

  ion indices of the primitive-cell ions
   primitive index   ion index
                 1           1
                 2           2
                 3           3
                 4           4
                 5           5
                 6           6
                 7           7
                 8           8
                 9           9
                10          10
                11          11
                12          12
                13          13
                14          14
                15          15
                16          16
                17          17
                18          18
                19          19
                20          20
                21          21
                22          22
                23          23
                24          24
                25          25
                26          26
                27          27
                28          28
                29          29
                30          30
                31          31
                32          32
                33          33
                34          34
                35          35
                36          36

----------------------------------------------------------------------------------------

 
 

Automatic generation of k-mesh.
 generate k-points for:    2    2    2
Space group operators:
 irot       det(A)        alpha          n_x          n_y          n_z        tau_x        tau_y        tau_z
    1     1.000000     0.000000     1.000000     0.000000     0.000000     0.000000     0.000000     0.000000
 
 Subroutine IBZKPT returns following result:
 ===========================================
 
 Found      8 irreducible k-points:
 
 Following reciprocal coordinates:
            Coordinates               Weight
  0.000000  0.000000  0.000000      1.000000
  0.500000  0.000000 -0.000000      1.000000
 -0.000000  0.500000  0.000000      1.000000
  0.500000  0.500000 -0.000000      1.000000
  0.000000 -0.000000  0.500000      1.000000
  0.500000  0.000000  0.500000      1.000000
  0.000000  0.500000  0.500000      1.000000
  0.500000  0.500000  0.500000      1.000000
 
 Following cartesian coordinates:
            Coordinates               Weight
  0.000000  0.000000  0.000000      1.000000
  0.065993 -0.023566 -0.000775      1.000000
 -0.000411  0.070074 -0.000737      1.000000
  0.065582  0.046509 -0.001512      1.000000
 -0.033164 -0.023536  0.057064      1.000000
  0.032829 -0.047102  0.056289      1.000000
 -0.033575  0.046539  0.056327      1.000000
  0.032418  0.022973  0.055552      1.000000
 


--------------------------------------------------------------------------------------------------------




 Dimension of arrays:
   k-points           NKPTS =      8   k-points in BZ     NKDIM =      8   number of bands    NBANDS=    176
   number of dos      NEDOS =    301   number of ions     NIONS =     36
   non local maximal  LDIM  =      6   non local SUM 2l+1 LMDIM =     18
   total plane-waves  NPLWV = 343000
   max r-space proj   IRMAX =  11824   max aug-charges    IRDMAX=  34210
   dimension x,y,z NGX =    70 NGY =   70 NGZ =   70
   dimension x,y,z NGXF=   140 NGYF=  140 NGZF=  140
   support grid    NGXF=   140 NGYF=  140 NGZF=  140
   ions per type =               2   4   6  24
   NGX,Y,Z   is equivalent  to a cutoff of  13.10, 13.10, 13.10 a.u.
   NGXF,Y,Z  is equivalent  to a cutoff of  26.20, 26.21, 26.20 a.u.

 SYSTEM =  unknown system                          
 POSCAR =  Ca2 V4 S6 O24                           

 Startparameter for this run:
   NWRITE =      2    write-flag & timer
   PREC   = accura    normal or accurate (medium, high low for compatibility)
   ISTART =      0    job   : 0-new  1-cont  2-samecut
   ICHARG =      1    charge: 1-file 2-atom 10-const
   ISPIN  =      2    spin polarized calculation?
   LNONCOLLINEAR =      F non collinear calculations
   LSORBIT =      F    spin-orbit coupling
   INIWAV =      1    electr: 0-lowe 1-rand  2-diag
   LASPH  =      T    aspherical Exc in radial PAW
   METAGGA=      F    non-selfconsistent MetaGGA calc.

 Electronic Relaxation 1
   ENCUT  =  520.0 eV  38.22 Ry    6.18 a.u.  16.51 16.51 16.52*2*pi/ulx,y,z
   ENINI  =  520.0     initial cutoff
   ENAUG  =  605.4 eV  augmentation charge cutoff
   NELM   =    150;   NELMIN=  6; NELMDL= -5     # of ELM steps 
   EDIFF  = 0.1E-04   stopping-criterion for ELM
   LREAL  =      T    real-space projection
   NLSPLINE    = F    spline interpolate recip. space projectors
   LCOMPAT=      F    compatible to vasp.4.4
   GGA_COMPAT  = T    GGA compatible to vasp.4.4-vasp.4.6
   LMAXPAW     = -100 max onsite density
   LMAXMIX     =    2 max onsite mixed and CHGCAR
   VOSKOWN=      0    Vosko Wilk Nusair interpolation
   ROPT   =   -0.00025  -0.00025  -0.00025  -0.00025
 Ionic relaxation
   EDIFFG = -.3E-01   stopping-criterion for IOM
   NSW    =    300    number of steps for IOM
   NBLOCK =      1;   KBLOCK =    300    inner block; outer block 
   IBRION =      2    ionic relax: 0-MD 1-quasi-New 2-CG
   NFREE  =      1    steps in history (QN), initial steepest desc. (CG)
   ISIF   =      3    stress and relaxation
   IWAVPR =     11    prediction:  0-non 1-charg 2-wave 3-comb
   ISYM   =      0    0-nonsym 1-usesym 2-fastsym
   LCORR  =      T    Harris-Foulkes like correction to forces

   POTIM  = 0.5000    time-step for ionic-motion
   TEIN   =    0.0    initial temperature
   TEBEG  =    0.0;   TEEND  =   0.0 temperature during run
   SMASS  =  -3.00    Nose mass-parameter (am)
   estimated Nose-frequenzy (Omega)   =  0.10E-29 period in steps = 0.13E+47 mass=  -0.180E-26a.u.
   SCALEE = 1.0000    scale energy and forces
   NPACO  =    256;   APACO  = 16.0  distance and # of slots for P.C.
   PSTRESS=    0.0 pullay stress

  Mass of Ions in am
   POMASS =  40.08 50.94 32.07 16.00
  Ionic Valenz
   ZVAL   =  10.00 11.00  6.00  6.00
  Atomic Wigner-Seitz radii
   RWIGS  =  -1.00 -1.00 -1.00 -1.00
  virtual crystal weights 
   VCA    =   1.00  1.00  1.00  1.00
   NELECT =     244.0000    total number of electrons
   NUPDOWN=      -1.0000    fix difference up-down

 DOS related values:
   EMIN   =  10.00;   EMAX   =-10.00  energy-range for DOS
   EFERMI =   0.00
   ISMEAR =     0;   SIGMA  =   0.05  broadening in eV -4-tet -1-fermi 0-gaus

 Electronic relaxation 2 (details)
   IALGO  =     58    algorithm
   LDIAG  =      T    sub-space diagonalisation (order eigenvalues)
   LSUBROT=      F    optimize rotation matrix (better conditioning)
   TURBO    =      0    0=normal 1=particle mesh
   IRESTART =      0    0=no restart 2=restart with 2 vectors
   NREBOOT  =      0    no. of reboots
   NMIN     =      0    reboot dimension
   EREF     =   0.00    reference energy to select bands
   IMIX   =      4    mixing-type and parameters
     AMIX     =   0.40;   BMIX     =  1.00
     AMIX_MAG =   1.60;   BMIX_MAG =  1.00
     AMIN     =   0.10
     WC   =   100.;   INIMIX=   1;  MIXPRE=   1;  MAXMIX= -45

 Intra band minimization:
   WEIMIN = 0.0010     energy-eigenvalue tresh-hold
   EBREAK =  0.14E-07  absolut break condition
   DEPER  =   0.30     relativ break condition  

   TIME   =   0.40     timestep for ELM

  volume/ion in A,a.u.               =      13.36        90.19
  Fermi-wavevector in a.u.,A,eV,Ry     =   1.305524  2.467083 23.189674  1.704393
  Thomas-Fermi vector in A             =   2.436387
 
 Write flags
   LWAVE        =      F    write WAVECAR
   LDOWNSAMPLE  =      F    k-point downsampling of WAVECAR
   LCHARG       =      T    write CHGCAR
   LVTOT        =      F    write LOCPOT, total local potential
   LVHAR        =      F    write LOCPOT, Hartree potential only
   LELF         =      F    write electronic localiz. function (ELF)
   LORBIT       =     11    0 simple, 1 ext, 2 COOP (PROOUT), +10 PAW based schemes


 Dipole corrections
   LMONO  =      F    monopole corrections only (constant potential shift)
   LDIPOL =      F    correct potential (dipole corrections)
   IDIPOL =      0    1-x, 2-y, 3-z, 4-all directions 
   EPSILON=  1.0000000 bulk dielectric constant

 Exchange correlation treatment:
   GGA     =    --    GGA type
   LEXCH   =     8    internal setting for exchange type
   VOSKOWN=      0    Vosko Wilk Nusair interpolation
   LHFCALC =     F    Hartree Fock is set to
   LHFONE  =     F    Hartree Fock one center treatment
   AEXX    =    0.0000 exact exchange contribution

 Linear response parameters
   LEPSILON=     F    determine dielectric tensor
   LRPA    =     F    only Hartree local field effects (RPA)
   LNABLA  =     F    use nabla operator in PAW spheres
   LVEL    =     F    velocity operator in full k-point grid
   LINTERFAST=   F  fast interpolation
   KINTER  =     0    interpolate to denser k-point grid
   CSHIFT  =0.1000    complex shift for real part using Kramers Kronig
   OMEGAMAX=  -1.0    maximum frequency
   DEG_THRESHOLD= 0.2000000E-02 threshold for treating states as degnerate
   RTIME   =   -0.100 relaxation time in fs
  (WPLASMAI=    0.000 imaginary part of plasma frequency in eV, 0.658/RTIME)
   DFIELD  = 0.0000000 0.0000000 0.0000000 field for delta impulse in time
 
 Orbital magnetization related:
   ORBITALMAG=     F  switch on orbital magnetization
   LCHIMAG   =     F  perturbation theory with respect to B field
   DQ        =  0.001000  dq finite difference perturbation B field
   LLRAUG    =     F  two centre corrections for induced B field



--------------------------------------------------------------------------------------------------------


 conjugate gradient relaxation of ions
 charge density and potential will be updated during run
 spin polarized calculation
 Conjugate gradient for all bands (Freysoldt, et al. PRB 79, 241103 (2009))
 preconditioned conjugated gradient                                        
 perform sub-space diagonalisation
    before iterative eigenvector-optimisation
 modified Broyden-mixing scheme, WC =      100.0
 initial mixing is a Kerker type mixing with AMIX =  0.4000 and BMIX =      1.0000
 Hartree-type preconditioning will be used
 using additional bands           54
 real space projection scheme for non local part
 use partial core corrections
 no Harris-corrections to forces 
 use gradient corrections 
 use of overlap-Matrix (Vanderbilt PP)
 Gauss-broadening in eV      SIGMA  =   0.05


--------------------------------------------------------------------------------------------------------


  energy-cutoff  :      520.00
  volume of cell :      481.13
      direct lattice vectors                 reciprocal lattice vectors
     7.662240225  0.092113576  4.491070898     0.131985695 -0.047131842 -0.001550770
     2.623141105  7.197875346  4.493236953    -0.000821149  0.140148991 -0.001473542
     0.137982244  0.094185357  8.881104001    -0.066328183 -0.047071871  0.114128333

  length of vectors
     8.881898895  8.881410759  8.882675174     0.140157194  0.140159142  0.140144444


 
 k-points in units of 2pi/SCALE and weight: read from INCAR                         
   0.00000000  0.00000000  0.00000000       0.125
   0.06599285 -0.02356592 -0.00077539       0.125
  -0.00041057  0.07007450 -0.00073677       0.125
   0.06558227  0.04650857 -0.00151216       0.125
  -0.03316409 -0.02353594  0.05706417       0.125
   0.03282876 -0.04710186  0.05628878       0.125
  -0.03357467  0.04653856  0.05632740       0.125
   0.03241818  0.02297264  0.05555201       0.125
 
 k-points in reciprocal lattice and weights: read from INCAR                         
   0.00000000  0.00000000  0.00000000       0.125
   0.50000000  0.00000000 -0.00000000       0.125
  -0.00000000  0.50000000  0.00000000       0.125
   0.50000000  0.50000000 -0.00000000       0.125
   0.00000000 -0.00000000  0.50000000       0.125
   0.50000000  0.00000000  0.50000000       0.125
   0.00000000  0.50000000  0.50000000       0.125
   0.50000000  0.50000000  0.50000000       0.125
 
 position of ions in fractional coordinates (direct lattice) 
   0.49768917  0.49768386  0.49774586
   0.99767487  0.99771091  0.99773780
   0.64448873  0.64452312  0.64458465
   0.14459850  0.14441279  0.14458130
   0.85087425  0.85086651  0.85074670
   0.35080762  0.35094183  0.35074289
   0.94944645  0.24758686  0.54561808
   0.44938976  0.04568358  0.74753614
   0.54563690  0.94932027  0.24759743
   0.74758280  0.44943059  0.04557317
   0.24757668  0.54565162  0.94948774
   0.04562114  0.74759722  0.44943396
   0.40389126  0.56551271  0.76668279
   0.90401163  0.26671831  0.06534736
   0.76662422  0.40387771  0.56547827
   0.06537921  0.90399186  0.26667893
   0.56551556  0.76660373  0.40402243
   0.26670646  0.06536467  0.90403479
   0.72831196  0.93004892  0.09106916
   0.22833260  0.59109319  0.43009495
   0.09094609  0.72826589  0.93025908
   0.42992835  0.22839916  0.59108772
   0.93031506  0.09105570  0.72830822
   0.59113318  0.43014612  0.22832157
   0.98392156  0.19250578  0.39984245
   0.48387652  0.89977571  0.69262898
   0.39980110  0.98348655  0.19276120
   0.69254408  0.48376325  0.89984563
   0.19275427  0.39963522  0.98407818
   0.89972213  0.69265519  0.48398925
   0.09535087  0.30287883  0.51040372
   0.59544458  0.01077844  0.80244997
   0.51044555  0.09544227  0.30256102
   0.80267875  0.59550539  0.01034206
   0.30270110  0.51078723  0.09535859
   0.01067701  0.80269904  0.59536795
 
 position of ions in cartesian coordinates  (Angst):
   5.18758909  3.67499066  8.89190164
  10.39923111  7.36727043 17.82459323
   6.71784384  4.75927368 11.51506305
   1.50671322  1.06640218  2.58232458
   8.86893381  6.28293605 15.20005138
   3.65693850  2.59138453  6.26735080
   7.99962769  1.92094550 10.22218867
   3.66631349  0.44062659  8.86245461
   6.70516606  6.90666958  8.91495344
   6.91336714  3.30810020  5.78158554
   3.45932565  4.03976535 11.99612579
   2.37262705  5.42764400  7.55548894
   4.68392012  4.17990414 11.16387649
   7.63541082  2.00923165  5.83876559
   7.01151309  3.03093769 10.27975331
   2.90904638  6.53796029  6.72387561
   6.39977378  5.60806275  9.57246796
   2.33977051  0.58020090  9.52032360
   8.03271667  6.77004102  8.25862553
   3.35940555  4.31615625  7.50109761
   2.73555420  5.33796123 11.94244421
   3.97489710  1.73926269  8.20660175
   7.46764305  0.80969817 11.05542676
   5.68924275  3.17209410  6.61531709
   8.09918437  1.51392448  8.83487796
   6.16338724  6.58628049 12.36733916
   5.66979371  7.13399598  7.92650549
   6.69958107  3.63061258 13.27555010
   2.66101444  2.98696557 11.40102952
   8.77760128  5.11410701 11.45133860
   1.59552182  2.23693970  6.32208238
   4.70143664  0.20800941  9.84925558
   4.20326299  0.76249733  5.40836771
   7.71383907  4.36128524  6.37248288
   3.67239329  3.71344704  4.50142972
   2.26955290  5.83478606  8.94219293
 


--------------------------------------------------------------------------------------------------------


 k-point   1 :   0.0000 0.0000 0.0000  plane waves:   12939
 k-point   2 :   0.5000 0.0000-0.0000  plane waves:   12982
 k-point   3 :  -0.0000 0.5000 0.0000  plane waves:   12982
 k-point   4 :   0.5000 0.5000-0.0000  plane waves:   12958
 k-point   5 :   0.0000-0.0000 0.5000  plane waves:   12982
 k-point   6 :   0.5000 0.0000 0.5000  plane waves:   12958
 k-point   7 :   0.0000 0.5000 0.5000  plane waves:   12954
 k-point   8 :   0.5000 0.5000 0.5000  plane waves:   12910

 maximum and minimum number of plane-waves per node :       564      523

 maximum number of plane-waves:     12982
 maximum index in each direction: 
   IXMAX=   16   IYMAX=   16   IZMAX=   16
   IXMIN=  -17   IYMIN=  -17   IZMIN=  -17


 real space projection operators:
  total allocation   :      17489.44 KBytes
  max/ min on nodes  :        781.59        474.78


 parallel 3D FFT for wavefunctions:
    minimum data exchange during FFTs selected (reduces bandwidth)
 parallel 3D FFT for charge:
    minimum data exchange during FFTs selected (reduces bandwidth)


 total amount of memory used by VASP MPI-rank0    45754. kBytes
=======================================================================

   base      :      30000. kBytes
   nonlr-proj:       8189. kBytes
   fftplans  :       1269. kBytes
   grid      :       4344. kBytes
   one-center:         62. kBytes
   wavefun   :       1890. kBytes
 
     INWAV:  cpu time    0.0000: real time    0.0000
 Broyden mixing: mesh for mixing (old mesh)
   NGX = 33   NGY = 33   NGZ = 33
  (NGX  =140   NGY  =140   NGZ  =140)
  gives a total of  35937 points

 initial charge density was supplied:
 number of electron     244.0000015 magnetization      12.0000007
 keeping initial charge density in first step


--------------------------------------------------------------------------------------------------------


 Maximum index for non-local projection operator          560
 Maximum index for augmentation-charges         1128 (set IRDMAX)


--------------------------------------------------------------------------------------------------------


 First call to EWALD:  gamma=   0.226
 Maximum number of real-space cells 3x 3x 3
 Maximum number of reciprocal cells 3x 3x 3

    FEWALD:  cpu time    0.0026: real time    0.0026


--------------------------------------- Iteration      1(   1)  ---------------------------------------


    POTLOK:  cpu time    0.2395: real time    0.2419
    SETDIJ:  cpu time    0.8481: real time    0.8502
    TRIAL :  cpu time    2.4873: real time    2.4942
    CORREC:  cpu time    0.0011: real time    0.0011
    --------------------------------------------
      LOOP:  cpu time    3.5812: real time    3.5934

 eigenvalue-minimisations  :  5632
 total energy-change (2. order) : 0.2148890E+04  (-0.1424390E+05)
 number of electron     244.0000015 magnetization      12.0000007
 augmentation part      244.0000015 magnetization      12.0000007

 Free energy of the ion-electron system (eV)
  ---------------------------------------------------
  alpha Z        PSCENC =       741.17287291
  Ewald energy   TEWEN  =    -11989.66476162
  -Hartree energ DENC   =     -6915.17274237
  -exchange      EXHF   =         0.00000000
  -V(xc)+E(xc)   XCENC  =      1163.37093211
  PAW double counting   =     43508.48791678   -43563.70353949
  entropy T*S    EENTRO =        -0.01246159
  eigenvalues    EBANDS =      -131.74635681
  atomic energy  EATOM  =     19336.15840935
  ---------------------------------------------------
  free energy    TOTEN  =      2148.89026927 eV

  energy without entropy =     2148.90273086  energy(sigma->0) =     2148.89650007


--------------------------------------------------------------------------------------------------------




--------------------------------------- Iteration      1(   2)  ---------------------------------------


    TRIAL :  cpu time    2.5735: real time    2.5835
    CORREC:  cpu time    0.0004: real time    0.0004
    --------------------------------------------
      LOOP:  cpu time    2.5793: real time    2.5931

 eigenvalue-minimisations  :  7040
 total energy-change (2. order) :-0.2433246E+04  (-0.2322508E+04)
 number of electron     244.0000015 magnetization      12.0000007
 augmentation part      244.0000015 magnetization      12.0000007

 Free energy of the ion-electron system (eV)
  ---------------------------------------------------
  alpha Z        PSCENC =       741.17287291
  Ewald energy   TEWEN  =    -11989.66476162
  -Hartree energ DENC   =     -6915.17274237
  -exchange      EXHF   =         0.00000000
  -V(xc)+E(xc)   XCENC  =      1163.37093211
  PAW double counting   =     43508.48791678   -43563.70353949
  entropy T*S    EENTRO =        -0.00000000
  eigenvalues    EBANDS =     -2565.00435858
  atomic energy  EATOM  =     19336.15840935
  ---------------------------------------------------
  free energy    TOTEN  =      -284.35527091 eV

  energy without entropy =     -284.35527091  energy(sigma->0) =     -284.35527091


--------------------------------------------------------------------------------------------------------




--------------------------------------- Iteration      1(   3)  ---------------------------------------


    TRIAL :  cpu time    3.0210: real time    3.0288
    CORREC:  cpu time    0.0004: real time    0.0004
    --------------------------------------------
      LOOP:  cpu time    3.0981: real time    3.1077

 eigenvalue-minimisations  :  8184
 total energy-change (2. order) :-0.1609844E+03  (-0.1591966E+03)
 number of electron     244.0000015 magnetization      12.0000007
 augmentation part      244.0000015 magnetization      12.0000007

 Free energy of the ion-electron system (eV)
  ---------------------------------------------------
  alpha Z        PSCENC =       741.17287291
  Ewald energy   TEWEN  =    -11989.66476162
  -Hartree energ DENC   =     -6915.17274237
  -exchange      EXHF   =         0.00000000
  -V(xc)+E(xc)   XCENC  =      1163.37093211
  PAW double counting   =     43508.48791678   -43563.70353949
  entropy T*S    EENTRO =        -0.00000000
  eigenvalues    EBANDS =     -2725.98873103
  atomic energy  EATOM  =     19336.15840935
  ---------------------------------------------------
  free energy    TOTEN  =      -445.33964336 eV

  energy without entropy =     -445.33964336  energy(sigma->0) =     -445.33964336


--------------------------------------------------------------------------------------------------------




--------------------------------------- Iteration      1(   4)  ---------------------------------------


    TRIAL :  cpu time    3.1869: real time    3.1985
    CORREC:  cpu time    0.0004: real time    0.0004
    --------------------------------------------
      LOOP:  cpu time    3.1896: real time    3.2083

 eigenvalue-minimisations  :  9284
 total energy-change (2. order) :-0.3609900E+01  (-0.3599574E+01)
 number of electron     244.0000015 magnetization      12.0000007
 augmentation part      244.0000015 magnetization      12.0000007

 Free energy of the ion-electron system (eV)
  ---------------------------------------------------
  alpha Z        PSCENC =       741.17287291
  Ewald energy   TEWEN  =    -11989.66476162
  -Hartree energ DENC   =     -6915.17274237
  -exchange      EXHF   =         0.00000000
  -V(xc)+E(xc)   XCENC  =      1163.37093211
  PAW double counting   =     43508.48791678   -43563.70353949
  entropy T*S    EENTRO =        -0.00000000
  eigenvalues    EBANDS =     -2729.59863098
  atomic energy  EATOM  =     19336.15840935
  ---------------------------------------------------
  free energy    TOTEN  =      -448.94954331 eV

  energy without entropy =     -448.94954331  energy(sigma->0) =     -448.94954331


--------------------------------------------------------------------------------------------------------




--------------------------------------- Iteration      1(   5)  ---------------------------------------


    TRIAL :  cpu time    2.4743: real time    2.4832
    CORREC:  cpu time    0.0004: real time    0.0004
    CHARGE:  cpu time    0.0948: real time    0.0954
    --------------------------------------------
      LOOP:  cpu time    2.5714: real time    2.5885

 eigenvalue-minimisations  :  7392
 total energy-change (2. order) :-0.3690730E-01  (-0.3690147E-01)
 number of electron     244.0000014 magnetization      12.0000006
 augmentation part       34.5051196 magnetization       5.8651264

 Free energy of the ion-electron system (eV)
  ---------------------------------------------------
  alpha Z        PSCENC =       741.17287291
  Ewald energy   TEWEN  =    -11989.66476162
  -Hartree energ DENC   =     -6915.17274237
  -exchange      EXHF   =         0.00000000
  -V(xc)+E(xc)   XCENC  =      1163.37093211
  PAW double counting   =     43508.48791678   -43563.70353949
  entropy T*S    EENTRO =        -0.00000000
  eigenvalues    EBANDS =     -2729.63553827
  atomic energy  EATOM  =     19336.15840935
  ---------------------------------------------------
  free energy    TOTEN  =      -448.98645060 eV

  energy without entropy =     -448.98645060  energy(sigma->0) =     -448.98645060


--------------------------------------------------------------------------------------------------------




--------------------------------------- Iteration      1(   6)  ---------------------------------------


    POTLOK:  cpu time    0.1671: real time    0.1694
    SETDIJ:  cpu time    0.8495: real time    0.8517
    TRIAL :  cpu time    1.2490: real time    1.2565
    CORREC:  cpu time    1.9026: real time    1.9080
    CHARGE:  cpu time    0.1085: real time    0.1088
    --------------------------------------------
      LOOP:  cpu time    4.2823: real time    4.3041

 eigenvalue-minimisations  :     0
 total energy-change (2. order) : 0.8364363E+02  (-0.2967999E+01)
 number of electron     244.0000015 magnetization      12.0000007
 augmentation part       35.7937417 magnetization       6.1797985

 Free energy of the ion-electron system (eV)
  ---------------------------------------------------
  alpha Z        PSCENC =       741.17287291
  Ewald energy   TEWEN  =    -11989.66476162
  -Hartree energ DENC   =     -6721.90396830
  -exchange      EXHF   =         0.00000000
  -V(xc)+E(xc)   XCENC  =      1185.85403847
  PAW double counting   =     42929.61607527   -42983.11151481
  entropy T*S    EENTRO =        -0.00000000
  eigenvalues    EBANDS =     -2863.46397315
  atomic energy  EATOM  =     19336.15840935
  ---------------------------------------------------
  free energy    TOTEN  =      -365.34282186 eV

  energy without entropy =     -365.34282186  energy(sigma->0) =     -365.34282186


--------------------------------------------------------------------------------------------------------




--------------------------------------- Iteration      1(   7)  ---------------------------------------


    POTLOK:  cpu time    0.1609: real time    0.1630
    SETDIJ:  cpu time    0.8471: real time    0.8493
    TRIAL :  cpu time    1.1990: real time    1.2032
    CORREC:  cpu time    1.8829: real time    1.8900
    CHARGE:  cpu time    0.0843: real time    0.0845
    --------------------------------------------
      LOOP:  cpu time    4.1761: real time    4.1990

 eigenvalue-minimisations  :     0
 total energy-change (2. order) :-0.2961246E+01  (-0.5654570E+00)
 number of electron     244.0000015 magnetization      12.0000007
 augmentation part       35.9929173 magnetization       6.2368956

 Free energy of the ion-electron system (eV)
  ---------------------------------------------------
  alpha Z        PSCENC =       741.17287291
  Ewald energy   TEWEN  =    -11989.66476162
  -Hartree energ DENC   =     -6895.85957983
  -exchange      EXHF   =         0.00000000
  -V(xc)+E(xc)   XCENC  =      1197.53577109
  PAW double counting   =     42816.56132298   -42870.46411832
  entropy T*S    EENTRO =        -0.00000000
  eigenvalues    EBANDS =     -2703.74398395
  atomic energy  EATOM  =     19336.15840935
  ---------------------------------------------------
  free energy    TOTEN  =      -368.30406738 eV

  energy without entropy =     -368.30406738  energy(sigma->0) =     -368.30406738


--------------------------------------------------------------------------------------------------------




--------------------------------------- Iteration      1(   8)  ---------------------------------------


    POTLOK:  cpu time    0.1588: real time    0.1595
    SETDIJ:  cpu time    0.8457: real time    0.8486
    TRIAL :  cpu time    1.2335: real time    1.2404
    CORREC:  cpu time    1.8756: real time    1.8823
    CHARGE:  cpu time    0.0835: real time    0.0837
    --------------------------------------------
      LOOP:  cpu time    4.1994: real time    4.2240

 eigenvalue-minimisations  :     0
 total energy-change (2. order) :-0.5651978E+00  (-0.2490423E+00)
 number of electron     244.0000015 magnetization      12.0000007
 augmentation part       36.1183285 magnetization       6.2987549

 Free energy of the ion-electron system (eV)
  ---------------------------------------------------
  alpha Z        PSCENC =       741.17287291
  Ewald energy   TEWEN  =    -11989.66476162
  -Hartree energ DENC   =     -6919.44884437
  -exchange      EXHF   =         0.00000000
  -V(xc)+E(xc)   XCENC  =      1199.90195432
  PAW double counting   =     43291.18841825   -43346.04205762
  entropy T*S    EENTRO =        -0.00000000
  eigenvalues    EBANDS =     -2682.13525640
  atomic energy  EATOM  =     19336.15840935
  ---------------------------------------------------
  free energy    TOTEN  =      -368.86926517 eV

  energy without entropy =     -368.86926517  energy(sigma->0) =     -368.86926517


--------------------------------------------------------------------------------------------------------




--------------------------------------- Iteration      1(   9)  ---------------------------------------


    POTLOK:  cpu time    0.1735: real time    0.1739
    SETDIJ:  cpu time    0.8500: real time    0.8522
    TRIAL :  cpu time    1.1650: real time    1.1688
    CORREC:  cpu time    1.8896: real time    1.8946
    CHARGE:  cpu time    0.0832: real time    0.0834
    --------------------------------------------
      LOOP:  cpu time    4.1620: real time    4.2113

 eigenvalue-minimisations  :     0
 total energy-change (2. order) :-0.2454813E+00  (-0.7904923E-01)
 number of electron     244.0000015 magnetization      12.0000007
 augmentation part       36.1670903 magnetization       6.2998359

 Free energy of the ion-electron system (eV)
  ---------------------------------------------------
  alpha Z        PSCENC =       741.17287291
  Ewald energy   TEWEN  =    -11989.66476162
  -Hartree energ DENC   =     -6910.22667004
  -exchange      EXHF   =         0.00000000
  -V(xc)+E(xc)   XCENC  =      1199.16392696
  PAW double counting   =     43792.21447946   -43848.13995237
  entropy T*S    EENTRO =        -0.00000000
  eigenvalues    EBANDS =     -2689.79305115
  atomic energy  EATOM  =     19336.15840935
  ---------------------------------------------------
  free energy    TOTEN  =      -369.11474650 eV

  energy without entropy =     -369.11474650  energy(sigma->0) =     -369.11474650


--------------------------------------------------------------------------------------------------------




--------------------------------------- Iteration      1(  10)  ---------------------------------------


    POTLOK:  cpu time    0.1657: real time    0.1662
    SETDIJ:  cpu time    0.8495: real time    0.8517
    TRIAL :  cpu time    1.1711: real time    1.1748
    CORREC:  cpu time    1.9228: real time    1.9280
    CHARGE:  cpu time    0.0833: real time    0.0835
    --------------------------------------------
      LOOP:  cpu time    4.1959: real time    4.2136

 eigenvalue-minimisations  :     0
 total energy-change (2. order) :-0.7724023E-01  (-0.3499507E-01)
 number of electron     244.0000015 magnetization      12.0000007
 augmentation part       36.1652612 magnetization       6.2880485

 Free energy of the ion-electron system (eV)
  ---------------------------------------------------
  alpha Z        PSCENC =       741.17287291
  Ewald energy   TEWEN  =    -11989.66476162
  -Hartree energ DENC   =     -6912.67596004
  -exchange      EXHF   =         0.00000000
  -V(xc)+E(xc)   XCENC  =      1199.26663267
  PAW double counting   =     43763.78762878   -43820.07460426
  entropy T*S    EENTRO =        -0.00000000
  eigenvalues    EBANDS =     -2687.16220453
  atomic energy  EATOM  =     19336.15840935
  ---------------------------------------------------
  free energy    TOTEN  =      -369.19198673 eV

  energy without entropy =     -369.19198673  energy(sigma->0) =     -369.19198673


--------------------------------------------------------------------------------------------------------




--------------------------------------- Iteration      1(  11)  ---------------------------------------


    POTLOK:  cpu time    0.1638: real time    0.1642
    SETDIJ:  cpu time    0.8476: real time    0.8498
    TRIAL :  cpu time    1.1720: real time    1.1757
    CORREC:  cpu time    1.8896: real time    1.8949
    CHARGE:  cpu time    0.0836: real time    0.0838
    --------------------------------------------
      LOOP:  cpu time    4.1613: real time    4.1777

 eigenvalue-minimisations  :     0
 total energy-change (2. order) :-0.3353220E-01  (-0.1361902E-01)
 number of electron     244.0000015 magnetization      12.0000007
 augmentation part       36.1761714 magnetization       6.2995368

 Free energy of the ion-electron system (eV)
  ---------------------------------------------------
  alpha Z        PSCENC =       741.17287291
  Ewald energy   TEWEN  =    -11989.66476162
  -Hartree energ DENC   =     -6915.73265142
  -exchange      EXHF   =         0.00000000
  -V(xc)+E(xc)   XCENC  =      1199.57638996
  PAW double counting   =     43653.49101352   -43709.99403241
  entropy T*S    EENTRO =        -0.00000000
  eigenvalues    EBANDS =     -2684.23275922
  atomic energy  EATOM  =     19336.15840935
  ---------------------------------------------------
  free energy    TOTEN  =      -369.22551893 eV

  energy without entropy =     -369.22551893  energy(sigma->0) =     -369.22551893


--------------------------------------------------------------------------------------------------------




--------------------------------------- Iteration      1(  12)  ---------------------------------------


    POTLOK:  cpu time    0.1667: real time    0.1673
    SETDIJ:  cpu time    0.8491: real time    0.8517
    TRIAL :  cpu time    1.1721: real time    1.1767
    CORREC:  cpu time    1.8983: real time    1.9041
    CHARGE:  cpu time    0.0830: real time    0.0833
    --------------------------------------------
      LOOP:  cpu time    4.1719: real time    4.1930

 eigenvalue-minimisations  :     0
 total energy-change (2. order) :-0.1289436E-01  (-0.3713851E-02)
 number of electron     244.0000015 magnetization      12.0000007
 augmentation part       36.1788150 magnetization       6.3051657

 Free energy of the ion-electron system (eV)
  ---------------------------------------------------
  alpha Z        PSCENC =       741.17287291
  Ewald energy   TEWEN  =    -11989.66476162
  -Hartree energ DENC   =     -6915.59458041
  -exchange      EXHF   =         0.00000000
  -V(xc)+E(xc)   XCENC  =      1199.56820080
  PAW double counting   =     43599.02365446   -43655.67812000
  entropy T*S    EENTRO =        -0.00000000
  eigenvalues    EBANDS =     -2684.22408880
  atomic energy  EATOM  =     19336.15840935
  ---------------------------------------------------
  free energy    TOTEN  =      -369.23841329 eV

  energy without entropy =     -369.23841329  energy(sigma->0) =     -369.23841329


--------------------------------------------------------------------------------------------------------




--------------------------------------- Iteration      1(  13)  ---------------------------------------


    POTLOK:  cpu time    0.1738: real time    0.1744
    SETDIJ:  cpu time    0.8480: real time    0.8505
    TRIAL :  cpu time    1.1686: real time    1.1738
    CORREC:  cpu time    1.8907: real time    1.9001
    CHARGE:  cpu time    0.0841: real time    0.0844
    --------------------------------------------
      LOOP:  cpu time    4.1789: real time    4.2042

 eigenvalue-minimisations  :     0
 total energy-change (2. order) :-0.3555942E-02  (-0.1263569E-02)
 number of electron     244.0000015 magnetization      12.0000007
 augmentation part       36.1788504 magnetization       6.3037823

 Free energy of the ion-electron system (eV)
  ---------------------------------------------------
  alpha Z        PSCENC =       741.17287291
  Ewald energy   TEWEN  =    -11989.66476162
  -Hartree energ DENC   =     -6915.20556681
  -exchange      EXHF   =         0.00000000
  -V(xc)+E(xc)   XCENC  =      1199.54886604
  PAW double counting   =     43550.64864511   -43607.32905124
  entropy T*S    EENTRO =        -0.00000000
  eigenvalues    EBANDS =     -2684.57138298
  atomic energy  EATOM  =     19336.15840935
  ---------------------------------------------------
  free energy    TOTEN  =      -369.24196923 eV

  energy without entropy =     -369.24196923  energy(sigma->0) =     -369.24196923


--------------------------------------------------------------------------------------------------------




--------------------------------------- Iteration      1(  14)  ---------------------------------------


    POTLOK:  cpu time    0.1680: real time    0.1686
    SETDIJ:  cpu time    0.8515: real time    0.8543
    TRIAL :  cpu time    1.2324: real time    1.2380
    CORREC:  cpu time    1.9129: real time    1.9193
    CHARGE:  cpu time    0.0839: real time    0.0843
    --------------------------------------------
      LOOP:  cpu time    4.2636: real time    4.2869

 eigenvalue-minimisations  :     0
 total energy-change (2. order) :-0.1202418E-02  (-0.4006613E-03)
 number of electron     244.0000015 magnetization      12.0000007
 augmentation part       36.1803536 magnetization       6.3036737

 Free energy of the ion-electron system (eV)
  ---------------------------------------------------
  alpha Z        PSCENC =       741.17287291
  Ewald energy   TEWEN  =    -11989.66476162
  -Hartree energ DENC   =     -6915.54946155
  -exchange      EXHF   =         0.00000000
  -V(xc)+E(xc)   XCENC  =      1199.58513112
  PAW double counting   =     43506.96032189   -43563.63556842
  entropy T*S    EENTRO =        -0.00000000
  eigenvalues    EBANDS =     -2684.27011532
  atomic energy  EATOM  =     19336.15840935
  ---------------------------------------------------
  free energy    TOTEN  =      -369.24317165 eV

  energy without entropy =     -369.24317165  energy(sigma->0) =     -369.24317165


--------------------------------------------------------------------------------------------------------




--------------------------------------- Iteration      1(  15)  ---------------------------------------


    POTLOK:  cpu time    0.1729: real time    0.1736
    SETDIJ:  cpu time    0.8483: real time    0.8509
    TRIAL :  cpu time    1.2726: real time    1.2784
    CORREC:  cpu time    1.9132: real time    1.9222
    CHARGE:  cpu time    0.0838: real time    0.0842
    --------------------------------------------
      LOOP:  cpu time    4.2928: real time    4.3184

 eigenvalue-minimisations  :     0
 total energy-change (2. order) :-0.4138566E-03  (-0.1102650E-03)
 number of electron     244.0000015 magnetization      12.0000007
 augmentation part       36.1801993 magnetization       6.3034847

 Free energy of the ion-electron system (eV)
  ---------------------------------------------------
  alpha Z        PSCENC =       741.17287291
  Ewald energy   TEWEN  =    -11989.66476162
  -Hartree energ DENC   =     -6915.51868756
  -exchange      EXHF   =         0.00000000
  -V(xc)+E(xc)   XCENC  =      1199.57268787
  PAW double counting   =     43493.54969836   -43550.22322721
  entropy T*S    EENTRO =        -0.00000000
  eigenvalues    EBANDS =     -2684.29057762
  atomic energy  EATOM  =     19336.15840935
  ---------------------------------------------------
  free energy    TOTEN  =      -369.24358551 eV

  energy without entropy =     -369.24358551  energy(sigma->0) =     -369.24358551


--------------------------------------------------------------------------------------------------------




--------------------------------------- Iteration      1(  16)  ---------------------------------------


    POTLOK:  cpu time    0.1769: real time    0.1776
    SETDIJ:  cpu time    0.8479: real time    0.8507
    TRIAL :  cpu time    1.2068: real time    1.2125
    CORREC:  cpu time    1.9039: real time    1.9114
    CHARGE:  cpu time    0.0838: real time    0.0842
    --------------------------------------------
      LOOP:  cpu time    4.2341: real time    4.2581

 eigenvalue-minimisations  :     0
 total energy-change (2. order) :-0.1006214E-03  (-0.2689824E-04)
 number of electron     244.0000015 magnetization      12.0000007
 augmentation part       36.1800045 magnetization       6.3034133

 Free energy of the ion-electron system (eV)
  ---------------------------------------------------
  alpha Z        PSCENC =       741.17287291
  Ewald energy   TEWEN  =    -11989.66476162
  -Hartree energ DENC   =     -6915.35851072
  -exchange      EXHF   =         0.00000000
  -V(xc)+E(xc)   XCENC  =      1199.55698176
  PAW double counting   =     43494.55373131   -43551.22776230
  entropy T*S    EENTRO =        -0.00000000
  eigenvalues    EBANDS =     -2684.43464682
  atomic energy  EATOM  =     19336.15840935
  ---------------------------------------------------
  free energy    TOTEN  =      -369.24368613 eV

  energy without entropy =     -369.24368613  energy(sigma->0) =     -369.24368613


--------------------------------------------------------------------------------------------------------




--------------------------------------- Iteration      1(  17)  ---------------------------------------


    POTLOK:  cpu time    0.1712: real time    0.1720
    SETDIJ:  cpu time    0.8470: real time    0.8505
    TRIAL :  cpu time    1.2225: real time    1.2263
    CORREC:  cpu time    1.9087: real time    1.9140
    CHARGE:  cpu time    0.0840: real time    0.0842
    --------------------------------------------
      LOOP:  cpu time    4.2350: real time    4.2560

 eigenvalue-minimisations  :     0
 total energy-change (2. order) :-0.1504673E-04  (-0.1046314E-04)
 number of electron     244.0000015 magnetization      12.0000007
 augmentation part       36.1799736 magnetization       6.3034221

 Free energy of the ion-electron system (eV)
  ---------------------------------------------------
  alpha Z        PSCENC =       741.17287291
  Ewald energy   TEWEN  =    -11989.66476162
  -Hartree energ DENC   =     -6915.33055443
  -exchange      EXHF   =         0.00000000
  -V(xc)+E(xc)   XCENC  =      1199.55489979
  PAW double counting   =     43496.81329198   -43553.48815170
  entropy T*S    EENTRO =        -0.00000000
  eigenvalues    EBANDS =     -2684.45970747
  atomic energy  EATOM  =     19336.15840935
  ---------------------------------------------------
  free energy    TOTEN  =      -369.24370117 eV

  energy without entropy =     -369.24370117  energy(sigma->0) =     -369.24370117


--------------------------------------------------------------------------------------------------------




--------------------------------------- Iteration      1(  18)  ---------------------------------------


    POTLOK:  cpu time    0.1704: real time    0.1710
    SETDIJ:  cpu time    0.8483: real time    0.8503
    TRIAL :  cpu time    1.2096: real time    1.2135
    CORREC:  cpu time    1.8968: real time    1.9019
    EDDIAG:  cpu time    0.7246: real time    0.7267
    CHARGE:  cpu time    0.0842: real time    0.0844
    --------------------------------------------
      LOOP:  cpu time    4.9375: real time    4.9571

 eigenvalue-minimisations  :     0
 total energy-change (2. order) : 0.1126482E-05  (-0.6794362E-05)
 number of electron     244.0000015 magnetization      12.0000007
 augmentation part       36.1799540 magnetization       6.3034244

 Free energy of the ion-electron system (eV)
  ---------------------------------------------------
  alpha Z        PSCENC =       741.17287291
  Ewald energy   TEWEN  =    -11989.66476162
  -Hartree energ DENC   =     -6915.31732425
  -exchange      EXHF   =         0.00000000
  -V(xc)+E(xc)   XCENC  =      1199.55356245
  PAW double counting   =     43498.12181095   -43554.79731002
  entropy T*S    EENTRO =        -0.00000000
  eigenvalues    EBANDS =     -2684.47095982
  atomic energy  EATOM  =     19336.15840935
  ---------------------------------------------------
  free energy    TOTEN  =      -369.24370005 eV

  energy without entropy =     -369.24370005  energy(sigma->0) =     -369.24370005


--------------------------------------------------------------------------------------------------------


  average scaling for gradient   0.7577


 average (electrostatic) potential at core
  the test charge radii are     1.1137  0.9339  0.9698  0.7215
  (the norm of the test charge is              1.0000)
       1 -50.6254       2 -50.6254       3 -52.6828       4 -52.6814       5 -52.6801
       6 -52.6820       7 -97.0135       8 -97.0148       9 -97.0146      10 -97.0138
      11 -97.0156      12 -97.0162      13 -77.5667      14 -77.5640      15 -77.5642
      16 -77.5672      17 -77.5656      18 -77.5658      19 -77.5657      20 -77.5679
      21 -77.5671      22 -77.5658      23 -77.5650      24 -77.5655      25 -77.3960
      26 -77.4011      27 -77.3976      28 -77.3974      29 -77.3997      30 -77.4016
      31 -77.3955      32 -77.3932      33 -77.3966      34 -77.3954      35 -77.3965
      36 -77.3957
 
 
 
 E-fermi :   4.1412     XC(G=0):  -9.9362     alpha+bet : -9.1911


 spin component 1

 k-point     1 :       0.0000    0.0000    0.0000
  band No.  band energies     occupation 
      1     -39.5444      1.00000
      2     -39.5443      1.00000
      3     -35.9774      1.00000
      4     -35.9768      1.00000
      5     -35.9743      1.00000
      6     -35.9734      1.00000
      7     -35.9230      1.00000
      8     -35.9222      1.00000
      9     -35.9205      1.00000
     10     -35.9201      1.00000
     11     -35.9093      1.00000
     12     -35.9088      1.00000
     13     -35.9055      1.00000
     14     -35.9051      1.00000
     15     -24.1751      1.00000
     16     -24.0939      1.00000
     17     -24.0936      1.00000
     18     -24.0898      1.00000
     19     -24.0809      1.00000
     20     -24.0808      1.00000
     21     -20.4570      1.00000
     22     -20.2685      1.00000
     23     -20.1483      1.00000
     24     -20.1482      1.00000
     25     -19.9972      1.00000
     26     -19.9641      1.00000
     27     -19.9639      1.00000
     28     -19.9414      1.00000
     29     -19.9411      1.00000
     30     -19.8361      1.00000
     31     -19.8084      1.00000
     32     -19.7979      1.00000
     33     -19.7978      1.00000
     34     -19.7321      1.00000
     35     -19.6953      1.00000
     36     -19.6950      1.00000
     37     -19.6418      1.00000
     38     -19.6417      1.00000
     39     -19.3310      1.00000
     40     -19.3308      1.00000
     41     -19.2527      1.00000
     42     -19.1801      1.00000
     43     -19.1799      1.00000
     44     -19.0137      1.00000
     45      -9.7037      1.00000
     46      -8.9276      1.00000
     47      -8.7403      1.00000
     48      -8.7400      1.00000
     49      -8.6644      1.00000
     50      -8.6640      1.00000
     51      -7.0931      1.00000
     52      -7.0592      1.00000
     53      -6.5538      1.00000
     54      -6.5016      1.00000
     55      -6.3592      1.00000
     56      -6.3421      1.00000
     57      -6.3415      1.00000
     58      -6.2947      1.00000
     59      -6.2941      1.00000
     60      -6.2378      1.00000
     61      -6.2368      1.00000
     62      -6.1376      1.00000
     63      -6.1375      1.00000
     64      -6.1182      1.00000
     65      -5.9642      1.00000
     66      -5.9640      1.00000
     67      -5.8810      1.00000
     68      -5.8808      1.00000
     69      -3.5551      1.00000
     70      -3.4095      1.00000
     71      -3.4093      1.00000
     72      -3.3738      1.00000
     73      -3.3614      1.00000
     74      -3.2985      1.00000
     75      -3.2980      1.00000
     76      -3.1730      1.00000
     77      -3.1728      1.00000
     78      -3.0308      1.00000
     79      -2.8621      1.00000
     80      -2.8544      1.00000
     81      -2.8537      1.00000
     82      -2.7655      1.00000
     83      -2.7654      1.00000
     84      -2.6312      1.00000
     85      -2.6203      1.00000
     86      -2.6200      1.00000
     87      -2.5249      1.00000
     88      -2.5243      1.00000
     89      -2.3297      1.00000
     90      -2.3294      1.00000
     91      -2.3249      1.00000
     92      -2.3248      1.00000
     93      -2.2139      1.00000
     94      -2.2073      1.00000
     95      -2.1206      1.00000
     96      -2.0090      1.00000
     97      -1.7828      1.00000
     98      -1.7824      1.00000
     99      -0.8681      1.00000
    100      -0.8672      1.00000
    101      -0.8145      1.00000
    102      -0.8137      1.00000
    103      -0.8055      1.00000
    104      -0.6187      1.00000
    105      -0.5285      1.00000
    106      -0.5280      1.00000
    107      -0.5064      1.00000
    108      -0.4967      1.00000
    109      -0.4954      1.00000
    110      -0.3251      1.00000
    111      -0.3249      1.00000
    112      -0.2113      1.00000
    113      -0.2112      1.00000
    114      -0.1806      1.00000
    115       0.1348      1.00000
    116       0.2011      1.00000
    117       3.2707      1.00000
    118       3.3802      1.00000
    119       3.5293      1.00000
    120       3.5405      1.00000
    121       3.6213      1.00000
    122       3.6321      1.00000
    123       3.6447      1.00000
    124       3.6861      1.00000
    125       3.8328      1.00000
    126       3.8437      1.00000
    127       3.8596      1.00000
    128       3.8698      1.00000
    129       6.2923      0.00000
    130       6.4897      0.00000
    131       6.4982      0.00000
    132       6.5705      0.00000
    133       6.5768      0.00000
    134       7.3714      0.00000
    135       7.3785      0.00000
    136       7.4358      0.00000
    137       7.4425      0.00000
    138       7.5237      0.00000
    139       7.5717      0.00000
    140       7.6300      0.00000
    141       7.6304      0.00000
    142       7.7713      0.00000
    143       7.7723      0.00000
    144       9.0865      0.00000
    145       9.0867      0.00000
    146       9.1672      0.00000
    147       9.1679      0.00000
    148       9.2364      0.00000
    149       9.5865      0.00000
    150       9.7103      0.00000
    151       9.7124      0.00000
    152       9.8220      0.00000
    153       9.9417      0.00000
    154       9.9426      0.00000
    155       9.9576      0.00000
    156       9.9587      0.00000
    157      10.0884      0.00000
    158      10.1256      0.00000
    159      10.1813      0.00000
    160      10.1827      0.00000
    161      10.3640      0.00000
    162      10.5081      0.00000
    163      10.5670      0.00000
    164      10.7449      0.00000
    165      10.7473      0.00000
    166      10.9155      0.00000
    167      10.9196      0.00000
[...]
 -0.000   0.000   0.000   0.000   0.000  -0.000   0.000  -0.000   0.000  -0.000   0.000  -0.000  -0.000   0.000   0.000  -0.000
 -0.000   0.000   0.000   0.000   0.000  -0.000  -0.000   0.000   0.000   0.000  -0.000   0.000   0.000  -0.000   0.000   0.000
  0.000  -0.002   0.000  -0.000   0.000   0.000   0.000   0.000   0.001   0.002   0.002   0.004   0.001  -0.000  -0.001  -0.001
  0.000  -0.003   0.000   0.000  -0.000   0.000  -0.000   0.000   0.002   0.005   0.004   0.006   0.001  -0.001  -0.001  -0.001
  0.000  -0.003   0.000   0.000   0.000  -0.000   0.000  -0.000   0.002   0.004   0.005   0.006   0.001  -0.001  -0.001  -0.001
  0.000  -0.004  -0.000   0.000   0.000   0.000  -0.000   0.000   0.004   0.006   0.006   0.008   0.001  -0.001  -0.002  -0.002
  0.000  -0.001   0.000   0.000  -0.000  -0.000  -0.000   0.000   0.001   0.001   0.001   0.001   0.000  -0.000  -0.000  -0.000
 -0.000   0.000  -0.000   0.000  -0.000  -0.000   0.000  -0.000  -0.000  -0.001  -0.001  -0.001  -0.000   0.000   0.000   0.000
 -0.000   0.001  -0.000  -0.000   0.000  -0.000   0.000   0.000  -0.001  -0.001  -0.001  -0.002  -0.000   0.000   0.000   0.000
 -0.000   0.001   0.000  -0.000   0.000   0.000  -0.000   0.000  -0.001  -0.001  -0.001  -0.002  -0.000   0.000   0.000   0.000
 -0.000   0.001   0.000  -0.000  -0.000   0.000   0.000  -0.000  -0.001  -0.002  -0.002  -0.002  -0.000   0.000   0.001   0.001
 -0.000   0.000   0.000   0.000  -0.000   0.000   0.000  -0.000  -0.000  -0.000  -0.000  -0.000   0.000   0.000   0.000   0.000


------------------------ aborting loop because EDIFF is reached ----------------------------------------


 


 total charge     
 
# of ion       s       p       d       tot
------------------------------------------
    1        2.016   5.865   0.185   8.065
    2        2.016   5.865   0.185   8.065
    3        0.147   6.122   3.063   9.333
    4        0.147   6.122   3.063   9.333
    5        0.147   6.122   3.063   9.332
    6        0.147   6.122   3.063   9.332
    7        1.220   2.300   0.000   3.519
    8        1.220   2.299   0.000   3.519
    9        1.220   2.300   0.000   3.519
   10        1.220   2.300   0.000   3.519
   11        1.220   2.300   0.000   3.519
   12        1.220   2.299   0.000   3.519
   13        1.581   3.652   0.000   5.233
   14        1.581   3.652   0.000   5.233
   15        1.581   3.652   0.000   5.233
   16        1.581   3.652   0.000   5.233
   17        1.581   3.652   0.000   5.233
   18        1.581   3.652   0.000   5.233
   19        1.581   3.652   0.000   5.233
   20        1.581   3.652   0.000   5.233
   21        1.581   3.652   0.000   5.233
   22        1.581   3.652   0.000   5.233
   23        1.581   3.652   0.000   5.233
   24        1.581   3.652   0.000   5.233
   25        1.585   3.656   0.000   5.241
   26        1.585   3.656   0.000   5.241
   27        1.585   3.655   0.000   5.241
   28        1.585   3.656   0.000   5.241
   29        1.585   3.656   0.000   5.241
   30        1.585   3.656   0.000   5.241
   31        1.585   3.656   0.000   5.241
   32        1.585   3.656   0.000   5.241
   33        1.585   3.656   0.000   5.241
   34        1.585   3.656   0.000   5.241
   35        1.585   3.656   0.000   5.241
   36        1.585   3.656   0.000   5.241
--------------------------------------------------
tot         49.932 137.709  12.622 200.263
 


 magnetization (x)
 
# of ion       s       p       d       tot
------------------------------------------
    1        0.000   0.000   0.009   0.010
    2        0.000   0.000   0.009   0.010
    3        0.012   0.012   2.639   2.663
    4        0.012   0.012   2.639   2.663
    5        0.012   0.012   2.639   2.663
    6        0.012   0.012   2.639   2.663
    7        0.004   0.011   0.000   0.015
    8        0.004   0.011   0.000   0.015
    9        0.004   0.011   0.000   0.015
   10        0.004   0.011   0.000   0.015
   11        0.004   0.011   0.000   0.015
   12        0.004   0.011   0.000   0.015
   13        0.000  -0.001   0.000  -0.000
   14        0.000  -0.001   0.000  -0.000
   15        0.000  -0.001   0.000  -0.000
   16        0.000  -0.001   0.000  -0.001
   17        0.000  -0.001   0.000  -0.000
   18        0.000  -0.001   0.000  -0.000
   19        0.000  -0.000   0.000  -0.000
   20        0.000  -0.001   0.000  -0.001
   21        0.000  -0.001   0.000  -0.000
   22        0.000  -0.001   0.000  -0.000
   23        0.000  -0.001   0.000  -0.000
   24        0.000  -0.001   0.000  -0.000
   25       -0.001   0.005   0.000   0.005
   26       -0.001   0.005   0.000   0.005
   27       -0.001   0.005   0.000   0.005
   28       -0.001   0.005   0.000   0.005
   29       -0.001   0.005   0.000   0.005
   30       -0.001   0.005   0.000   0.005
   31       -0.001   0.005   0.000   0.005
   32       -0.001   0.005   0.000   0.005
   33       -0.001   0.005   0.000   0.005
   34       -0.001   0.005   0.000   0.004
   35       -0.001   0.005   0.000   0.005
   36       -0.001   0.005   0.000   0.005
--------------------------------------------------
tot          0.068   0.168  10.574  10.810
 
    FORLOC:  cpu time    0.0036: real time    0.0036
    FORNL :  cpu time    0.1325: real time    0.1330
    STRESS:  cpu time    1.6034: real time    1.6077
    FORCOR:  cpu time    0.1158: real time    0.1161
    OFIELD:  cpu time    0.0001: real time    0.0001

  FORCE on cell =-STRESS in cart. coord.  units (eV):
  Direction    XX          YY          ZZ          XY          YZ          ZX
  --------------------------------------------------------------------------------------
  Alpha Z   741.17287   741.17287   741.17287
  Ewald   -4153.33755 -4315.14445 -3521.24217   232.37026   396.24571   559.16206
  Hartree  2220.97422  2134.11029  2560.22243   124.72016   212.46972   300.02737
  E(xc)   -1264.10709 -1263.99107 -1264.55634    -0.16505    -0.28352    -0.39890
  Local   -1841.87705 -1598.94133 -2790.84928  -348.86753  -594.67607  -839.42606
  n-local  -587.04994  -588.15179  -582.82773     1.56868     2.63878     3.73838
  augment   296.84460   297.15769   295.64897    -0.44383    -0.72191    -1.02152
  Kinetic  4587.26060  4593.72400  4562.10267    -9.23947   -15.79770   -22.24759
  Fock        0.00000     0.00000     0.00000     0.00000     0.00000     0.00000
  -------------------------------------------------------------------------------------
  Total      -0.11933    -0.06379    -0.32858    -0.05678    -0.12499    -0.16624
  in kB      -0.39738    -0.21243    -1.09419    -0.18908    -0.41621    -0.55360
  external pressure =       -0.57 kB  Pullay stress =        0.00 kB


 VOLUME and BASIS-vectors are now :
 -----------------------------------------------------------------------------
  energy-cutoff  :      520.00
  volume of cell :      481.13
      direct lattice vectors                 reciprocal lattice vectors
     7.662240225  0.092113576  4.491070898     0.131985695 -0.047131842 -0.001550770
     2.623141105  7.197875346  4.493236953    -0.000821149  0.140148991 -0.001473542
     0.137982244  0.094185357  8.881104001    -0.066328183 -0.047071871  0.114128333

  length of vectors
     8.881898895  8.881410759  8.882675174     0.140157194  0.140159142  0.140144444


 FORCES acting on ions:
    Electron-Ion                     Ewald-Force                    Non-Local-Force
 -----------------------------------------------------------------------------------------------
   0.610E+00 0.619E+00 0.103E+01   -.593E+00 -.611E+00 -.101E+01   -.165E-01 -.651E-02 -.185E-01
   0.775E+00 0.338E+00 0.103E+01   -.761E+00 -.325E+00 -.102E+01   -.128E-01 -.120E-01 -.163E-01
   -.327E+02 -.231E+02 -.559E+02   0.332E+02 0.233E+02 0.567E+02   -.501E+00 -.204E+00 -.764E+00
   -.327E+02 -.235E+02 -.559E+02   0.331E+02 0.239E+02 0.567E+02   -.379E+00 -.416E+00 -.765E+00
   0.325E+02 0.228E+02 0.555E+02   -.331E+02 -.231E+02 -.564E+02   0.581E+00 0.261E+00 0.888E+00
   0.321E+02 0.233E+02 0.555E+02   -.326E+02 -.238E+02 -.564E+02   0.463E+00 0.470E+00 0.882E+00
   -.534E+01 0.109E+00 0.314E+01   0.839E+01 -.942E-01 -.491E+01   -.312E+01 -.157E-01 0.181E+01
   -.370E+01 0.502E+01 0.133E+00   0.576E+01 -.788E+01 -.106E+00   -.209E+01 0.293E+01 -.104E-01
   0.349E+01 -.523E+01 0.841E-01   -.551E+01 0.811E+01 -.615E-01   0.207E+01 -.295E+01 -.268E-01
   -.174E+01 -.509E+01 0.302E+01   0.276E+01 0.797E+01 -.479E+01   -.104E+01 -.293E+01 0.182E+01
   0.197E+01 0.511E+01 -.307E+01   -.296E+01 -.798E+01 0.486E+01   0.102E+01 0.294E+01 -.182E+01
   0.548E+01 0.116E+00 -.316E+01   -.853E+01 -.107E+00 0.496E+01   0.312E+01 -.274E-02 -.182E+01
   -.255E+02 0.949E+01 0.856E+02   0.568E+02 -.625E+01 -.109E+03   -.313E+02 -.326E+01 0.236E+02
   -.165E+01 0.789E+02 0.424E+02   0.196E+02 -.114E+03 -.424E+02   -.179E+02 0.350E+02 -.720E-01
   0.742E+02 -.274E+02 0.425E+02   -.101E+03 0.559E+02 -.424E+02   0.271E+02 -.284E+02 -.813E-01
   0.882E+00 -.275E+02 0.855E+02   0.125E+02 0.559E+02 -.109E+03   -.134E+02 -.284E+02 0.235E+02
   0.375E+02 0.789E+02 0.196E+02   -.462E+02 -.114E+03 -.394E+01   0.876E+01 0.349E+02 -.156E+02
   0.869E+02 0.957E+01 0.197E+02   -.123E+03 -.635E+01 -.400E+01   0.359E+02 -.324E+01 -.157E+02
   -.873E+02 -.105E+02 -.198E+02   0.123E+03 0.744E+01 0.425E+01   -.359E+02 0.311E+01 0.156E+02
   -.739E+02 0.278E+02 -.436E+02   0.101E+03 -.562E+02 0.437E+02   -.270E+02 0.285E+02 -.103E+00
   0.202E+01 -.787E+02 -.436E+02   -.200E+02 0.114E+03 0.437E+02   0.180E+02 -.349E+02 -.120E+00
   -.385E+02 -.789E+02 -.198E+02   0.474E+02 0.114E+03 0.421E+01   -.889E+01 -.349E+02 0.156E+02
   -.171E+01 0.278E+02 -.860E+02   -.115E+02 -.563E+02 0.110E+03   0.132E+02 0.285E+02 -.236E+02
   0.255E+02 -.104E+02 -.860E+02   -.567E+02 0.729E+01 0.110E+03   0.312E+02 0.309E+01 -.236E+02
   0.501E+02 0.209E+02 0.105E+03   -.523E+02 -.349E+02 -.148E+03   0.224E+01 0.140E+02 0.430E+02
   0.621E+02 0.555E+02 0.832E+02   -.698E+02 -.852E+02 -.116E+03   0.771E+01 0.297E+02 0.333E+02
   0.731E+02 0.405E+02 0.832E+02   -.104E+03 -.381E+02 -.116E+03   0.305E+02 -.245E+01 0.333E+02
   0.365E+02 0.404E+02 0.105E+03   -.504E+02 -.379E+02 -.148E+03   0.140E+02 -.251E+01 0.430E+02
   0.418E+02 0.558E+02 0.949E+02   -.670E+02 -.855E+02 -.118E+03   0.252E+02 0.297E+02 0.231E+02
   0.666E+02 0.209E+02 0.949E+02   -.103E+03 -.349E+02 -.118E+03   0.364E+02 0.140E+02 0.231E+02
   -.670E+02 -.214E+02 -.940E+02   0.103E+03 0.355E+02 0.117E+03   -.364E+02 -.141E+02 -.229E+02
   -.735E+02 -.393E+02 -.830E+02   0.104E+03 0.366E+02 0.116E+03   -.306E+02 0.275E+01 -.333E+02
   -.611E+02 -.564E+02 -.831E+02   0.685E+02 0.862E+02 0.116E+03   -.745E+01 -.298E+02 -.333E+02
   -.422E+02 -.561E+02 -.939E+02   0.675E+02 0.858E+02 0.117E+03   -.253E+02 -.297E+02 -.229E+02
   -.363E+02 -.394E+02 -.105E+03   0.503E+02 0.366E+02 0.148E+03   -.140E+02 0.272E+01 -.430E+02
   -.491E+02 -.211E+02 -.105E+03   0.511E+02 0.351E+02 0.148E+03   -.204E+01 -.141E+02 -.430E+02
 -----------------------------------------------------------------------------------------------
   0.672E-01 0.216E-01 0.116E+00   -.355E-13 -.114E-12 0.142E-12   0.318E-02 0.284E-01 0.103E-02
 
 
 POSITION                                       TOTAL-FORCE (eV/Angst)
 -----------------------------------------------------------------------------------
      5.18759      3.67499      8.89190        -0.000697     -0.000396     -0.001448
     10.39923      7.36727     17.82459        -0.000886     -0.000323     -0.001377
      6.71784      4.75927     11.51506         0.000928     -0.002694     -0.000086
      1.50671      1.06640      2.58232         0.000177      0.001267      0.001011
      8.86893      6.28294     15.20005        -0.004693     -0.000332     -0.005066
      3.65694      2.59138      6.26735        -0.001581     -0.004141     -0.003863
      7.99963      1.92095     10.22219        -0.002916     -0.001823     -0.002672
      3.66631      0.44063      8.86245         0.007808      0.006492      0.013860
      6.70517      6.90667      8.91495        -0.002962     -0.004446     -0.006522
      6.91337      3.30810      5.78159         0.004678      0.000596      0.005865
      3.45933      4.03977     11.99613         0.000601      0.003109      0.003961
      2.37263      5.42764      7.55549         0.009314      0.005676      0.010658
      4.68392      4.17990     11.16388         0.013165     -0.010333      0.008793
      7.63541      2.00923      5.83877         0.019873      0.002376     -0.001628
      7.01151      3.03094     10.27975         0.009990      0.016922     -0.000480
      2.90905      6.53796      6.72388        -0.007647      0.015728      0.008860
      6.39977      5.60806      9.57247        -0.009537      0.003256      0.019568
      2.33977      0.58020      9.52032        -0.000393     -0.012463      0.015827
      8.03272      6.77004      8.25863        -0.000464      0.012164     -0.013853
      3.35941      4.31616      7.50110        -0.010627     -0.016442     -0.000419
      2.73555      5.33796     11.94244        -0.017699     -0.004949      0.001631
      3.97490      1.73926      8.20660         0.008402     -0.004956     -0.017353
      7.46764      0.80970     11.05543         0.007260     -0.014933     -0.008501
      5.68924      3.17209      6.61532        -0.013764      0.011235     -0.009024
      8.09918      1.51392      8.83488         0.015273      0.015404      0.008865
      6.16339      6.58628     12.36734         0.008454     -0.009319      0.014948
      5.66979      7.13400      7.92651         0.000417      0.011965      0.021646
      6.69958      3.63061     13.27555         0.017600      0.010292      0.006138
      2.66101      2.98697     11.40103         0.011773     -0.006535      0.016519
      8.77760      5.11411     11.45134        -0.004827      0.012024      0.014285
      1.59552      2.23694      6.32208         0.008651     -0.009033     -0.018605
      4.70144      0.20801      9.84926        -0.002021     -0.016147     -0.024258
      4.20326      0.76250      5.40837        -0.013236      0.011163     -0.016877
      7.71384      4.36129      6.37248        -0.011058      0.007740     -0.021967
      3.67239      3.71345      4.50143        -0.018169     -0.015052     -0.007157
      2.26955      5.83479      8.94219        -0.021187     -0.013091     -0.011280
 -----------------------------------------------------------------------------------
    total drift:                                0.070360      0.050004      0.116762


--------------------------------------------------------------------------------------------------------



  FREE ENERGIE OF THE ION-ELECTRON SYSTEM (eV)
  ---------------------------------------------------
  free  energy   TOTEN  =      -369.24370005 eV

  energy  without entropy=     -369.24370005  energy(sigma->0) =     -369.24370005
 


--------------------------------------------------------------------------------------------------------


    POTLOK:  cpu time    1.0184: real time    1.0210


--------------------------------------------------------------------------------------------------------




--------------------------------------------------------------------------------------------------------


  
 reached required accuracy - stopping structural energy minimisation
     LOOP+:  cpu time   78.3530: real time   78.7952
    4ORBIT:  cpu time    0.0000: real time    0.0000
 


 total charge     
 
# of ion       s       p       d       tot
------------------------------------------
    1        2.016   5.865   0.185   8.065
    2        2.016   5.865   0.185   8.065
    3        0.147   6.122   3.063   9.333
    4        0.147   6.122   3.063   9.333
    5        0.147   6.122   3.063   9.332
    6        0.147   6.122   3.063   9.332
    7        1.220   2.300   0.000   3.519
    8        1.220   2.299   0.000   3.519
    9        1.220   2.300   0.000   3.519
   10        1.220   2.300   0.000   3.519
   11        1.220   2.300   0.000   3.519
   12        1.220   2.299   0.000   3.519
   13        1.581   3.652   0.000   5.233
   14        1.581   3.652   0.000   5.233
   15        1.581   3.652   0.000   5.233
   16        1.581   3.652   0.000   5.233
   17        1.581   3.652   0.000   5.233
   18        1.581   3.652   0.000   5.233
   19        1.581   3.652   0.000   5.233
   20        1.581   3.652   0.000   5.233
   21        1.581   3.652   0.000   5.233
   22        1.581   3.652   0.000   5.233
   23        1.581   3.652   0.000   5.233
   24        1.581   3.652   0.000   5.233
   25        1.585   3.656   0.000   5.241
   26        1.585   3.656   0.000   5.241
   27        1.585   3.655   0.000   5.241
   28        1.585   3.656   0.000   5.241
   29        1.585   3.656   0.000   5.241
   30        1.585   3.656   0.000   5.241
   31        1.585   3.656   0.000   5.241
   32        1.585   3.656   0.000   5.241
   33        1.585   3.656   0.000   5.241
   34        1.585   3.656   0.000   5.241
   35        1.585   3.656   0.000   5.241
   36        1.585   3.656   0.000   5.241
--------------------------------------------------
tot         49.932 137.709  12.622 200.263
 


 magnetization (x)
 
# of ion       s       p       d       tot
------------------------------------------
    1        0.000   0.000   0.009   0.010
    2        0.000   0.000   0.009   0.010
    3        0.012   0.012   2.639   2.663
    4        0.012   0.012   2.639   2.663
    5        0.012   0.012   2.639   2.663
    6        0.012   0.012   2.639   2.663
    7        0.004   0.011   0.000   0.015
    8        0.004   0.011   0.000   0.015
    9        0.004   0.011   0.000   0.015
   10        0.004   0.011   0.000   0.015
   11        0.004   0.011   0.000   0.015
   12        0.004   0.011   0.000   0.015
   13        0.000  -0.001   0.000  -0.000
   14        0.000  -0.001   0.000  -0.000
   15        0.000  -0.001   0.000  -0.000
   16        0.000  -0.001   0.000  -0.001
   17        0.000  -0.001   0.000  -0.000
   18        0.000  -0.001   0.000  -0.000
   19        0.000  -0.000   0.000  -0.000
   20        0.000  -0.001   0.000  -0.001
   21        0.000  -0.001   0.000  -0.000
   22        0.000  -0.001   0.000  -0.000
   23        0.000  -0.001   0.000  -0.000
   24        0.000  -0.001   0.000  -0.000
   25       -0.001   0.005   0.000   0.005
   26       -0.001   0.005   0.000   0.005
   27       -0.001   0.005   0.000   0.005
   28       -0.001   0.005   0.000   0.005
   29       -0.001   0.005   0.000   0.005
   30       -0.001   0.005   0.000   0.005
   31       -0.001   0.005   0.000   0.005
   32       -0.001   0.005   0.000   0.005
   33       -0.001   0.005   0.000   0.005
   34       -0.001   0.005   0.000   0.004
   35       -0.001   0.005   0.000   0.005
   36       -0.001   0.005   0.000   0.005
--------------------------------------------------
tot          0.068   0.168  10.574  10.810
 

 total amount of memory used by VASP MPI-rank0    45754. kBytes
=======================================================================

   base      :      30000. kBytes
   nonlr-proj:       8189. kBytes
   fftplans  :       1269. kBytes
   grid      :       4344. kBytes
   one-center:         62. kBytes
   wavefun   :       1890. kBytes
 
  
  
 General timing and accounting informations for this job:
 ========================================================
  
                  Total CPU time used (sec):      110.444
                            User time (sec):      108.111
                          System time (sec):        2.333
                         Elapsed time (sec):      115.620
  
                   Maximum memory used (kb):      347268.
                   Average memory used (kb):           0.
  
                          Minor page faults:        54577
                          Major page faults:            0
                 Voluntary context switches:         3543
