       N       E                     dE             d eps       ncg     rms          ort
DAV:   1     0.247120203177E+04    0.24712E+04   -0.13842E+05 10080   0.163E+03
DAV:   2    -0.199019352267E+03   -0.26702E+04   -0.24675E+04 10080   0.437E+02
DAV:   3    -0.486867383822E+03   -0.28785E+03   -0.28311E+03 10080   0.162E+02
DAV:   4    -0.495652501046E+03   -0.87851E+01   -0.86922E+01 10080   0.277E+01
DAV:   5    -0.495990538351E+03   -0.33804E+00   -0.33736E+00 10080   0.437E+00
SDA:   6    -0.236460371675E+03    0.25953E+03   -0.33736E+00 10080   0.783E+03 0.000E+00
CGA:   7    -0.344916802239E+03   -0.10846E+03   -0.10999E+03 10080   0.887E+02 0.778E+01
CGA:   8    -0.362727623314E+03   -0.17811E+02   -0.17817E+02 10080   0.326E+02-0.169E+01
CGA:   9    -0.369483908923E+03   -0.67563E+01   -0.67592E+01 10080   0.154E+02 0.102E-01
CGA:  10    -0.372518502279E+03   -0.30346E+01   -0.30349E+01 10080   0.462E+01 0.152E+00
CGA:  11    -0.373477571546E+03   -0.95907E+00   -0.95898E+00 10080   0.131E+01 0.371E-02
CGA:  12    -0.373768499383E+03   -0.29093E+00   -0.29144E+00 10080   0.438E+00-0.211E-01
CGA:  13    -0.373878422083E+03   -0.10992E+00   -0.11138E+00 10080   0.170E+00-0.249E-01
CGA:  14    -0.373921291187E+03   -0.42869E-01   -0.43515E-01 10080   0.649E-01-0.957E-02
CGA:  15    -0.373937150381E+03   -0.15859E-01   -0.15864E-01 10080   0.228E-01-0.174E-03
CGA:  16    -0.373943400244E+03   -0.62499E-02   -0.62996E-02 10080   0.798E-02-0.744E-03
CGA:  17    -0.373945543044E+03   -0.21428E-02   -0.21207E-02 10080   0.272E-02 0.366E-03
CGA:  18    -0.373946343689E+03   -0.80065E-03   -0.79137E-03 10080   0.894E-03 0.157E-03
CGA:  19    -0.373943828232E+03    0.25155E-02   -0.13724E-02 10080   0.108E-01-0.319E-02
CGA:  20    -0.373946500498E+03   -0.26723E-02   -0.27858E-02 10080   0.164E-02 0.803E-03
CGA:  21    -0.373947259579E+03   -0.75908E-03   -0.95146E-03 10080   0.201E-02-0.129E-02
CGA:  22    -0.373947317164E+03   -0.57585E-04   -0.24670E-03 10080   0.325E-03 0.690E-03
CGA:  23    -0.373947298275E+03    0.18889E-04   -0.43002E-04 10080   0.126E-03 0.216E-03
CGA:  24    -0.373947354425E+03   -0.56150E-04   -0.57560E-04 10080   0.294E-04-0.162E-04
CGA:  25    -0.373947348273E+03    0.61519E-05   -0.10662E-05 10080   0.217E-04 0.217E-04
   1 F= -.37394735E+03 E0= -.37394735E+03  d E =-.373947E+03  mag=    12.0000
       N       E                     dE             d eps       ncg     rms          ort
SDA:   1    -0.373991071181E+03   -0.43717E-01    0.00000E+00 10080   0.115E-01 0.000E+00
CGA:   2    -0.373993806413E+03   -0.27352E-02   -0.27452E-02 10080   0.270E-02 0.907E-04
CGA:   3    -0.373994500626E+03   -0.69421E-03   -0.69299E-03 10080   0.988E-03-0.155E-04
CGA:   4    -0.373994777408E+03   -0.27678E-03   -0.23707E-03 10080   0.665E-03-0.434E-03
CGA:   5    -0.373994828907E+03   -0.51499E-04   -0.50143E-04 10080   0.206E-03-0.713E-05
CGA:   6    -0.373994825850E+03    0.30566E-05   -0.16503E-04 10080   0.903E-04 0.822E-04
   2 F= -.37399483E+03 E0= -.37399483E+03  d E =-.474776E-01  mag=    12.0000
       N       E                     dE             d eps       ncg     rms          ort
SDA:   1    -0.365592767764E+03    0.84021E+01    0.00000E+00 10080   0.308E+02 0.000E+00
CGA:   2    -0.373203495199E+03   -0.76107E+01   -0.76168E+01 10080   0.701E+01-0.783E-02
CGA:   3    -0.375071263026E+03   -0.18678E+01   -0.18671E+01 10080   0.215E+01-0.298E-01
CGA:   4    -0.375471045936E+03   -0.39978E+00   -0.39750E+00 10080   0.609E+00-0.159E-01
CGA:   5    -0.375590602258E+03   -0.11956E+00   -0.11955E+00 10080   0.185E+00-0.351E-03
CGA:   6    -0.375634587241E+03   -0.43985E-01   -0.44082E-01 10080   0.856E-01 0.199E-02
CGA:   7    -0.375660161598E+03   -0.25574E-01   -0.25626E-01 10080   0.407E-01-0.314E-02
CGA:   8    -0.375671277483E+03   -0.11116E-01   -0.11117E-01 10080   0.155E-01-0.395E-03
CGA:   9    -0.375675086612E+03   -0.38091E-02   -0.38363E-02 10080   0.470E-02 0.875E-03
CGA:  10    -0.375676691336E+03   -0.16047E-02   -0.16227E-02 10080   0.197E-02-0.378E-03
CGA:  11    -0.375677140997E+03   -0.44966E-03   -0.45868E-03 10080   0.635E-03 0.324E-03
CGA:  12    -0.375677374346E+03   -0.23335E-03   -0.23129E-03 10080   0.291E-03 0.633E-04
CGA:  13    -0.375677464079E+03   -0.89733E-04   -0.22010E-03 10080   0.642E-03-0.321E-03
CGA:  14    -0.375677505009E+03   -0.40930E-04   -0.84586E-04 10080   0.135E-03 0.256E-03
CGA:  15    -0.375677515354E+03   -0.10345E-04   -0.23577E-04 10080   0.455E-04 0.786E-04
CGA:  16    -0.375677554623E+03   -0.39268E-04    0.12595E-04 10080   0.133E-04 0.119E-04
CGA:  17    -0.375677551977E+03    0.26458E-05   -0.77641E-06 10080   0.962E-05 0.143E-04
   3 F= -.37567755E+03 E0= -.37567755E+03  d E =-.168273E+01  mag=    12.0000
       N       E                     dE             d eps       ncg     rms          ort
SDA:   1    -0.369332841724E+03    0.63447E+01    0.00000E+00 10080   0.223E+02 0.000E+00
CGA:   2    -0.374565699462E+03   -0.52329E+01   -0.52359E+01 10080   0.495E+01 0.319E-01
CGA:   3    -0.375908059448E+03   -0.13424E+01   -0.13428E+01 10080   0.145E+01-0.319E-01
CGA:   4    -0.376179785962E+03   -0.27173E+00   -0.27073E+00 10080   0.423E+00-0.134E-01
CGA:   5    -0.376258585821E+03   -0.78800E-01   -0.78913E-01 10080   0.117E+00 0.154E-02
CGA:   6    -0.376286575738E+03   -0.27990E-01   -0.28039E-01 10080   0.542E-01 0.321E-02
CGA:   7    -0.376303256845E+03   -0.16681E-01   -0.16789E-01 10080   0.289E-01-0.221E-02
CGA:   8    -0.376311459001E+03   -0.82022E-02   -0.82332E-02 10080   0.120E-01-0.726E-03
CGA:   9    -0.376314439825E+03   -0.29808E-02   -0.29825E-02 10080   0.364E-02 0.562E-03
CGA:  10    -0.376315642477E+03   -0.12027E-02   -0.12231E-02 10080   0.142E-02-0.320E-03
CGA:  11    -0.376315912419E+03   -0.26994E-03   -0.28374E-03 10080   0.436E-03 0.335E-03
CGA:  12    -0.376316033799E+03   -0.12138E-03   -0.12476E-03 10080   0.176E-03 0.128E-03
CGA:  13    -0.376316020383E+03    0.13415E-04   -0.19471E-03 10080   0.760E-03-0.347E-03
CGA:  14    -0.376316093986E+03   -0.73602E-04   -0.11399E-03 10080   0.156E-03 0.296E-03
CGA:  15    -0.376316124115E+03   -0.30129E-04   -0.36966E-04 10080   0.402E-04 0.625E-04
CGA:  16    -0.376316164889E+03   -0.40774E-04    0.23983E-04 10080   0.135E-04-0.318E-05
CGA:  17    -0.376316163879E+03    0.10103E-05   -0.89011E-06 10080   0.938E-05 0.937E-05
   4 F= -.37631616E+03 E0= -.37631616E+03  d E =-.638612E+00  mag=    12.0000
       N       E                     dE             d eps       ncg     rms          ort
SDA:   1    -0.372215526306E+03    0.41006E+01    0.00000E+00 10080   0.136E+02 0.000E+00
CGA:   2    -0.375448075943E+03   -0.32325E+01   -0.32334E+01 10080   0.321E+01 0.213E-01
CGA:   3    -0.376306494958E+03   -0.85842E+00   -0.85850E+00 10080   0.906E+00-0.394E-02
CGA:   4    -0.376473258183E+03   -0.16676E+00   -0.16651E+00 10080   0.257E+00-0.410E-02
CGA:   5    -0.376520841883E+03   -0.47584E-01   -0.47648E-01 10080   0.690E-01 0.885E-03
CGA:   6    -0.376537216323E+03   -0.16374E-01   -0.16397E-01 10080   0.313E-01 0.228E-02
CGA:   7    -0.376546604905E+03   -0.93886E-02   -0.93798E-02 10080   0.162E-01 0.202E-03
CGA:   8    -0.376551467001E+03   -0.48621E-02   -0.48394E-02 10080   0.689E-02 0.463E-03
CGA:   9    -0.376553313505E+03   -0.18465E-02   -0.18416E-02 10080   0.212E-02 0.524E-03
CGA:  10    -0.376554051825E+03   -0.73832E-03   -0.75830E-03 10080   0.849E-03-0.245E-03
CGA:  11    -0.376554213849E+03   -0.16202E-03   -0.16740E-03 10080   0.248E-03 0.167E-03
CGA:  12    -0.376554283247E+03   -0.69398E-04   -0.70385E-04 10080   0.952E-04 0.601E-04
CGA:  13    -0.376554279672E+03    0.35754E-05   -0.97454E-04 10080   0.395E-03-0.177E-03
CGA:  14    -0.376554320956E+03   -0.41284E-04   -0.60088E-04 10080   0.749E-04 0.145E-03
CGA:  15    -0.376554341152E+03   -0.20195E-04   -0.21158E-04 10080   0.167E-04 0.140E-04
CGA:  16    -0.376554364520E+03   -0.23368E-04    0.22973E-05 10080   0.498E-05-0.104E-05
CGA:  17    -0.376554363789E+03    0.73013E-06   -0.18955E-06 10080   0.385E-05 0.398E-05
   5 F= -.37655436E+03 E0= -.37655436E+03  d E =-.238200E+00  mag=    12.0000
       N       E                     dE             d eps       ncg     rms          ort
SDA:   1    -0.371389873158E+03    0.51645E+01    0.00000E+00 10080   0.146E+02 0.000E+00
CGA:   2    -0.375351675794E+03   -0.39618E+01   -0.39612E+01 10080   0.444E+01 0.677E-02
CGA:   3    -0.376389381172E+03   -0.10377E+01   -0.10378E+01 10080   0.127E+01 0.893E-02
CGA:   4    -0.376600860980E+03   -0.21148E+00   -0.21159E+00 10080   0.292E+00-0.159E-03
CGA:   5    -0.376655959426E+03   -0.55098E-01   -0.55132E-01 10080   0.789E-01 0.402E-03
CGA:   6    -0.376672870415E+03   -0.16911E-01   -0.16961E-01 10080   0.284E-01 0.187E-02
CGA:   7    -0.376680924890E+03   -0.80545E-02   -0.80337E-02 10080   0.134E-01 0.586E-03
CGA:   8    -0.376684946952E+03   -0.40221E-02   -0.39986E-02 10080   0.635E-02 0.464E-03
CGA:   9    -0.376686712602E+03   -0.17656E-02   -0.17496E-02 10080   0.210E-02 0.741E-03
CGA:  10    -0.376687458025E+03   -0.74542E-03   -0.74951E-03 10080   0.813E-03-0.555E-04
CGA:  11    -0.376687690746E+03   -0.23272E-03   -0.23170E-03 10080   0.269E-03 0.235E-04
CGA:  12    -0.376687765919E+03   -0.75174E-04   -0.74259E-04 10080   0.881E-04 0.535E-04
CGA:  13    -0.376687808041E+03   -0.42121E-04   -0.47976E-04 10080   0.712E-04-0.291E-04
CGA:  14    -0.376687815554E+03   -0.75129E-05   -0.87382E-05 10080   0.381E-04 0.155E-04
   6 F= -.37668782E+03 E0= -.37668782E+03  d E =-.133452E+00  mag=    12.0000
       N       E                     dE             d eps       ncg     rms          ort
SDA:   1    -0.361498714146E+03    0.15189E+02    0.00000E+00 10080   0.385E+02 0.000E+00
CGA:   2    -0.373111747295E+03   -0.11613E+02   -0.11612E+02 10080   0.135E+02-0.806E-02
CGA:   3    -0.375902455575E+03   -0.27907E+01   -0.27943E+01 10080   0.353E+01 0.421E-01
CGA:   4    -0.376493108171E+03   -0.59065E+00   -0.59081E+00 10080   0.769E+00 0.204E-02
CGA:   5    -0.376636700492E+03   -0.14359E+00   -0.14351E+00 10080   0.216E+00-0.131E-02
CGA:   6    -0.376681843270E+03   -0.45143E-01   -0.45253E-01 10080   0.668E-01 0.290E-02
CGA:   7    -0.376699490218E+03   -0.17647E-01   -0.17642E-01 10080   0.286E-01 0.307E-03
CGA:   8    -0.376707629035E+03   -0.81388E-02   -0.81530E-02 10080   0.134E-01-0.374E-03
CGA:   9    -0.376711220802E+03   -0.35918E-02   -0.35652E-02 10080   0.442E-02 0.118E-02
CGA:  10    -0.376712723412E+03   -0.15026E-02   -0.15052E-02 10080   0.169E-02-0.420E-04
CGA:  11    -0.376713276490E+03   -0.55308E-03   -0.57301E-03 10080   0.761E-03-0.221E-03
CGA:  12    -0.376713418103E+03   -0.14161E-03   -0.14784E-03 10080   0.263E-03 0.188E-03
CGA:  13    -0.376713502797E+03   -0.84694E-04   -0.84553E-04 10080   0.119E-03 0.483E-04
CGA:  14    -0.376713512027E+03   -0.92295E-05   -0.11360E-03 10080   0.425E-03-0.189E-03
CGA:  15    -0.376713550153E+03   -0.38126E-04   -0.61384E-04 10080   0.902E-04 0.168E-03
CGA:  16    -0.376713570915E+03   -0.20762E-04   -0.23265E-04 10080   0.229E-04 0.274E-04
CGA:  17    -0.376713602927E+03   -0.32011E-04    0.41310E-05 10080   0.703E-05-0.237E-05
CGA:  18    -0.376713602055E+03    0.87219E-06   -0.29516E-06 10080   0.530E-05 0.520E-05
   7 F= -.37671360E+03 E0= -.37671360E+03  d E =-.257865E-01  mag=    12.0000
       N       E                     dE             d eps       ncg     rms          ort
SDA:   1    -0.373099977291E+03    0.36136E+01    0.00000E+00 10080   0.896E+01 0.000E+00
CGA:   2    -0.376115385064E+03   -0.30154E+01   -0.30169E+01 10080   0.260E+01-0.185E-01
CGA:   3    -0.376658127788E+03   -0.54274E+00   -0.54355E+00 10080   0.684E+00 0.156E-01
CGA:   4    -0.376775533811E+03   -0.11741E+00   -0.11745E+00 10080   0.153E+00 0.983E-03
CGA:   5    -0.376804888487E+03   -0.29355E-01   -0.29308E-01 10080   0.457E-01-0.846E-03
CGA:   6    -0.376813811230E+03   -0.89227E-02   -0.89721E-02 10080   0.138E-01 0.104E-02
CGA:   7    -0.376817369083E+03   -0.35579E-02   -0.35480E-02 10080   0.512E-02 0.979E-03
CGA:   8    -0.376818796990E+03   -0.14279E-02   -0.14197E-02 10080   0.222E-02 0.483E-03
CGA:   9    -0.376819362672E+03   -0.56568E-03   -0.56990E-03 10080   0.669E-03 0.514E-03
CGA:  10    -0.376819588378E+03   -0.22571E-03   -0.22254E-03 10080   0.249E-03 0.114E-03
CGA:  11    -0.376819685776E+03   -0.97398E-04   -0.10132E-03 10080   0.135E-03-0.378E-04
CGA:  12    -0.376819688890E+03   -0.31143E-05   -0.12795E-04 10080   0.724E-04 0.705E-04
   8 F= -.37681969E+03 E0= -.37681969E+03  d E =-.106087E+00  mag=    12.0000
       N       E                     dE             d eps       ncg     rms          ort
SDA:   1    -0.375960451344E+03    0.85923E+00    0.00000E+00 10080   0.252E+01 0.000E+00
CGA:   2    -0.376651896295E+03   -0.69144E+00   -0.69155E+00 10080   0.790E+00-0.405E-02
CGA:   3    -0.376833884452E+03   -0.18199E+00   -0.18199E+00 10080   0.244E+00-0.319E-03
CGA:   4    -0.376874838749E+03   -0.40954E-01   -0.41014E-01 10080   0.545E-01 0.795E-03
CGA:   5    -0.376885223684E+03   -0.10385E-01   -0.10381E-01 10080   0.163E-01-0.943E-04
CGA:   6    -0.376888858131E+03   -0.36344E-02   -0.36292E-02 10080   0.633E-02-0.642E-03
CGA:   7    -0.376890594401E+03   -0.17363E-02   -0.17599E-02 10080   0.305E-02-0.406E-03
CGA:   8    -0.376891398421E+03   -0.80402E-03   -0.81463E-03 10080   0.138E-02-0.208E-03
CGA:   9    -0.376891777954E+03   -0.37953E-03   -0.39349E-03 10080   0.571E-03-0.204E-03
CGA:  10    -0.376891908651E+03   -0.13070E-03   -0.13114E-03 10080   0.161E-03-0.149E-04
CGA:  11    -0.376891958740E+03   -0.50089E-04   -0.52205E-04 10080   0.635E-04-0.230E-04
CGA:  12    -0.376891975497E+03   -0.16757E-04   -0.16705E-04 10080   0.233E-04 0.838E-06
CGA:  13    -0.376891979255E+03   -0.37572E-05   -0.43978E-05 10080   0.868E-05 0.103E-04
   9 F= -.37689198E+03 E0= -.37689198E+03  d E =-.722904E-01  mag=    12.0000
       N       E                     dE             d eps       ncg     rms          ort
SDA:   1    -0.375716287022E+03    0.11757E+01    0.00000E+00 10080   0.287E+01 0.000E+00
CGA:   2    -0.376707628028E+03   -0.99134E+00   -0.99305E+00 10080   0.810E+00-0.166E-01
CGA:   3    -0.376876718141E+03   -0.16909E+00   -0.16943E+00 10080   0.184E+00 0.900E-02
CGA:   4    -0.376908103802E+03   -0.31386E-01   -0.31380E-01 10080   0.436E-01-0.660E-04
CGA:   5    -0.376916406039E+03   -0.83022E-02   -0.82764E-02 10080   0.125E-01-0.509E-03
CGA:   6    -0.376918800392E+03   -0.23944E-02   -0.24064E-02 10080   0.355E-02 0.279E-03
CGA:   7    -0.376919724678E+03   -0.92429E-03   -0.92340E-03 10080   0.140E-02 0.492E-04
CGA:   8    -0.376920099515E+03   -0.37484E-03   -0.37241E-03 10080   0.599E-03 0.933E-04
CGA:   9    -0.376920229279E+03   -0.12976E-03   -0.13504E-03 10080   0.186E-03 0.196E-03
CGA:  10    -0.376920287556E+03   -0.58277E-04   -0.58305E-04 10080   0.733E-04 0.569E-04
CGA:  11    -0.376920322533E+03   -0.34977E-04   -0.43024E-04 10080   0.764E-04-0.378E-04
CGA:  12    -0.376920324301E+03   -0.17684E-05   -0.77628E-05 10080   0.244E-04 0.410E-04
  10 F= -.37692032E+03 E0= -.37692032E+03  d E =-.283450E-01  mag=    12.0000
       N       E                     dE             d eps       ncg     rms          ort
SDA:   1    -0.366519875602E+03    0.10400E+02    0.00000E+00 10080   0.244E+02 0.000E+00
CGA:   2    -0.375189284528E+03   -0.86694E+01   -0.86778E+01 10080   0.688E+01-0.603E-01
CGA:   3    -0.376582707022E+03   -0.13934E+01   -0.13952E+01 10080   0.153E+01 0.398E-01
CGA:   4    -0.376851135292E+03   -0.26843E+00   -0.26777E+00 10080   0.355E+00-0.774E-02
CGA:   5    -0.376918598529E+03   -0.67463E-01   -0.67366E-01 10080   0.106E+00-0.219E-02
CGA:   6    -0.376938958092E+03   -0.20360E-01   -0.20467E-01 10080   0.294E-01 0.280E-02
CGA:   7    -0.376947048668E+03   -0.80906E-02   -0.81138E-02 10080   0.127E-01-0.605E-03
CGA:   8    -0.376950562393E+03   -0.35137E-02   -0.35365E-02 10080   0.612E-02-0.448E-03
CGA:   9    -0.376951958870E+03   -0.13965E-02   -0.13956E-02 10080   0.171E-02 0.880E-03
CGA:  10    -0.376952551591E+03   -0.59272E-03   -0.59961E-03 10080   0.717E-03-0.972E-04
CGA:  11    -0.376952765373E+03   -0.21378E-03   -0.24875E-03 10080   0.436E-03-0.272E-03
CGA:  12    -0.376952792680E+03   -0.27308E-04   -0.39151E-04 10080   0.220E-03 0.117E-03
CGA:  13    -0.376952812507E+03   -0.19827E-04   -0.33218E-04 10080   0.855E-04 0.110E-03
CGA:  14    -0.376952695629E+03    0.11688E-03   -0.70871E-04 10080   0.836E-03-0.201E-03
CGA:  15    -0.376952782140E+03   -0.86511E-04   -0.14591E-03 10080   0.127E-03 0.235E-03
CGA:  16    -0.376952846130E+03   -0.63990E-04   -0.61495E-04 10080   0.605E-04-0.666E-04
CGA:  17    -0.376952863174E+03   -0.17044E-04   -0.16549E-04 10080   0.355E-05-0.357E-05
CGA:  18    -0.376952862403E+03    0.77134E-06   -0.19930E-06 10080   0.247E-05 0.280E-05
  11 F= -.37695286E+03 E0= -.37695286E+03  d E =-.325381E-01  mag=    12.0000
       N       E                     dE             d eps       ncg     rms          ort
SDA:   1    -0.360774827431E+03    0.16178E+02    0.00000E+00 10080   0.383E+02 0.000E+00
CGA:   2    -0.374178648114E+03   -0.13404E+02   -0.13404E+02 10080   0.109E+02-0.265E-01
CGA:   3    -0.376371771021E+03   -0.21931E+01   -0.22008E+01 10080   0.253E+01 0.261E-01
CGA:   4    -0.376818704936E+03   -0.44693E+00   -0.44521E+00 10080   0.560E+00-0.539E-02
CGA:   5    -0.376925713142E+03   -0.10701E+00   -0.10669E+00 10080   0.172E+00-0.187E-02
CGA:   6    -0.376959401501E+03   -0.33688E-01   -0.34022E-01 10080   0.500E-01 0.221E-02
CGA:   7    -0.376973240628E+03   -0.13839E-01   -0.13772E-01 10080   0.216E-01-0.103E-02
CGA:   8    -0.376979403319E+03   -0.61627E-02   -0.61217E-02 10080   0.107E-01-0.900E-03
CGA:   9    -0.376981973823E+03   -0.25705E-02   -0.26177E-02 10080   0.308E-02 0.627E-03
CGA:  10    -0.376983019178E+03   -0.10454E-02   -0.10422E-02 10080   0.119E-02-0.360E-03
CGA:  11    -0.376983339681E+03   -0.32050E-03   -0.31642E-03 10080   0.409E-03-0.149E-03
CGA:  12    -0.376983413465E+03   -0.73783E-04   -0.82709E-04 10080   0.141E-03 0.933E-04
CGA:  13    -0.376983462272E+03   -0.48807E-04   -0.49489E-04 10080   0.731E-04 0.187E-04
CGA:  14    -0.376983490737E+03   -0.28466E-04   -0.28265E-04 10080   0.411E-04 0.917E-05
CGA:  15    -0.376983490366E+03    0.37126E-06   -0.56341E-05 10080   0.234E-04 0.301E-04
  12 F= -.37698349E+03 E0= -.37698349E+03  d E =-.306280E-01  mag=    12.0000
       N       E                     dE             d eps       ncg     rms          ort
SDA:   1    -0.372743745940E+03    0.42397E+01    0.00000E+00 10080   0.100E+02 0.000E+00
CGA:   2    -0.376117176386E+03   -0.33734E+01   -0.33730E+01 10080   0.343E+01 0.748E-02
CGA:   3    -0.376771877680E+03   -0.65470E+00   -0.65454E+00 10080   0.867E+00-0.215E-02
CGA:   4    -0.376919099336E+03   -0.14722E+00   -0.14678E+00 10080   0.194E+00-0.322E-02
CGA:   5    -0.376954723658E+03   -0.35624E-01   -0.35537E-01 10080   0.556E-01-0.852E-03
CGA:   6    -0.376966236937E+03   -0.11513E-01   -0.11524E-01 10080   0.166E-01 0.119E-03
CGA:   7    -0.376970586019E+03   -0.43491E-02   -0.43307E-02 10080   0.703E-02-0.804E-03
CGA:   8    -0.376972557073E+03   -0.19711E-02   -0.19846E-02 10080   0.348E-02-0.877E-03
CGA:   9    -0.376973433298E+03   -0.87622E-03   -0.87851E-03 10080   0.120E-02-0.340E-03
CGA:  10    -0.376973789411E+03   -0.35611E-03   -0.37958E-03 10080   0.529E-03-0.346E-03
CGA:  11    -0.376973895359E+03   -0.10595E-03   -0.10567E-03 10080   0.161E-03-0.520E-04
CGA:  12    -0.376973946735E+03   -0.51376E-04   -0.54622E-04 10080   0.841E-04-0.362E-04
CGA:  13    -0.376973972115E+03   -0.25380E-04   -0.31171E-04 10080   0.666E-04-0.309E-04
CGA:  14    -0.376973973448E+03   -0.13333E-05   -0.53140E-05 10080   0.373E-04 0.230E-04
  13 F= -.37697397E+03 E0= -.37697397E+03  d E =0.951692E-02  mag=    12.0000
       N       E                     dE             d eps       ncg     rms          ort
SDA:   1    -0.376150507444E+03    0.82346E+00    0.00000E+00 10080   0.202E+01 0.000E+00
CGA:   2    -0.376848827768E+03   -0.69832E+00   -0.69842E+00 10080   0.601E+00-0.166E-02
CGA:   3    -0.376967612808E+03   -0.11879E+00   -0.11890E+00 10080   0.172E+00 0.781E-03
CGA:   4    -0.376998304743E+03   -0.30692E-01   -0.30599E-01 10080   0.380E-01-0.940E-03
CGA:   5    -0.377005254925E+03   -0.69502E-02   -0.69422E-02 10080   0.113E-01-0.879E-04
CGA:   6    -0.377007560693E+03   -0.23058E-02   -0.23268E-02 10080   0.343E-02 0.327E-03
CGA:   7    -0.377008520399E+03   -0.95971E-03   -0.96015E-03 10080   0.151E-02-0.101E-03
CGA:   8    -0.377008958645E+03   -0.43825E-03   -0.44837E-03 10080   0.814E-03-0.262E-03
CGA:   9    -0.377009115352E+03   -0.15671E-03   -0.15745E-03 10080   0.216E-03 0.210E-04
CGA:  10    -0.377009165153E+03   -0.49802E-04   -0.50798E-04 10080   0.665E-04 0.262E-04
CGA:  11    -0.377009189392E+03   -0.24239E-04   -0.26995E-04 10080   0.440E-04-0.287E-04
CGA:  12    -0.377009193332E+03   -0.39399E-05   -0.43314E-05 10080   0.216E-04 0.402E-05
  14 F= -.37700919E+03 E0= -.37700919E+03  d E =-.352199E-01  mag=    12.0000
       N       E                     dE             d eps       ncg     rms          ort
SDA:   1    -0.376621756678E+03    0.38743E+00    0.00000E+00 10080   0.927E+00 0.000E+00
CGA:   2    -0.376951169916E+03   -0.32941E+00   -0.32968E+00 10080   0.260E+00-0.298E-02
CGA:   3    -0.377004056219E+03   -0.52886E-01   -0.52984E-01 10080   0.590E-01 0.152E-02
CGA:   4    -0.377013937521E+03   -0.98813E-02   -0.99149E-02 10080   0.138E-01 0.339E-03
CGA:   5    -0.377016565829E+03   -0.26283E-02   -0.26261E-02 10080   0.387E-02-0.344E-04
CGA:   6    -0.377017319466E+03   -0.75364E-03   -0.75735E-03 10080   0.111E-02 0.629E-04
CGA:   7    -0.377017573415E+03   -0.25395E-03   -0.25689E-03 10080   0.374E-03 0.117E-03
CGA:   8    -0.377017667392E+03   -0.93977E-04   -0.95727E-04 10080   0.149E-03 0.927E-04
CGA:   9    -0.377017702412E+03   -0.35021E-04   -0.38245E-04 10080   0.572E-04 0.723E-04
CGA:  10    -0.377017714950E+03   -0.12538E-04   -0.15208E-04 10080   0.246E-04 0.392E-04
CGA:  11    -0.377017722488E+03   -0.75387E-05   -0.71675E-05 10080   0.121E-04 0.786E-05
  15 F= -.37701772E+03 E0= -.37701772E+03  d E =-.852916E-02  mag=    12.0000
       N       E                     dE             d eps       ncg     rms          ort
SDA:   1    -0.376164369970E+03    0.85334E+00    0.00000E+00 10080   0.203E+01 0.000E+00
CGA:   2    -0.376879851458E+03   -0.71548E+00   -0.71634E+00 10080   0.595E+00-0.785E-02
CGA:   3    -0.376998289952E+03   -0.11844E+00   -0.11864E+00 10080   0.134E+00 0.409E-02
CGA:   4    -0.377020075904E+03   -0.21786E-01   -0.21832E-01 10080   0.320E-01 0.529E-03
CGA:   5    -0.377026289971E+03   -0.62141E-02   -0.62033E-02 10080   0.843E-02-0.235E-03
CGA:   6    -0.377027951445E+03   -0.16615E-02   -0.16652E-02 10080   0.245E-02 0.958E-04
CGA:   7    -0.377028554395E+03   -0.60295E-03   -0.60249E-03 10080   0.895E-03 0.626E-04
CGA:   8    -0.377028796635E+03   -0.24224E-03   -0.23980E-03 10080   0.368E-03 0.971E-04
CGA:   9    -0.377028881767E+03   -0.85132E-04   -0.88036E-04 10080   0.123E-03 0.135E-03
CGA:  10    -0.377028919879E+03   -0.38112E-04   -0.38443E-04 10080   0.482E-04 0.489E-04
CGA:  11    -0.377028943357E+03   -0.23478E-04   -0.23543E-04 10080   0.275E-04-0.579E-06
CGA:  12    -0.377028944226E+03   -0.86917E-06   -0.30909E-05 10080   0.160E-04 0.174E-04
  16 F= -.37702894E+03 E0= -.37702894E+03  d E =-.112217E-01  mag=    12.0000
       N       E                     dE             d eps       ncg     rms          ort
SDA:   1    -0.364926085605E+03    0.12103E+02    0.00000E+00 10080   0.286E+02 0.000E+00
CGA:   2    -0.374677893325E+03   -0.97518E+01   -0.97595E+01 10080   0.922E+01-0.575E-01
CGA:   3    -0.376437778831E+03   -0.17599E+01   -0.17630E+01 10080   0.215E+01 0.401E-01
CGA:   4    -0.376808259756E+03   -0.37048E+00   -0.36997E+00 10080   0.489E+00-0.460E-02
CGA:   5    -0.376900712629E+03   -0.92453E-01   -0.92300E-01 10080   0.146E+00-0.360E-02
CGA:   6    -0.376929650378E+03   -0.28938E-01   -0.28985E-01 10080   0.402E-01 0.166E-02
CGA:   7    -0.376940858202E+03   -0.11208E-01   -0.11288E-01 10080   0.181E-01-0.155E-02
CGA:   8    -0.376945833419E+03   -0.49752E-02   -0.50763E-02 10080   0.903E-02-0.158E-02
CGA:   9    -0.376947934036E+03   -0.21006E-02   -0.20884E-02 10080   0.264E-02 0.564E-03
CGA:  10    -0.376948797662E+03   -0.86363E-03   -0.89127E-03 10080   0.108E-02-0.324E-03
CGA:  11    -0.376949089295E+03   -0.29163E-03   -0.38992E-03 10080   0.830E-03-0.558E-03
CGA:  12    -0.376949193894E+03   -0.10460E-03   -0.12724E-03 10080   0.146E-03 0.244E-03
CGA:  13    -0.376949233882E+03   -0.39987E-04   -0.41125E-04 10080   0.681E-04 0.484E-04
CGA:  14    -0.376949174181E+03    0.59701E-04   -0.93190E-04 10080   0.521E-03-0.195E-03
CGA:  15    -0.376949225346E+03   -0.51165E-04   -0.79673E-04 10080   0.127E-03 0.226E-03
CGA:  16    -0.376949258073E+03   -0.32727E-04   -0.35713E-04 10080   0.284E-04 0.388E-04
CGA:  17    -0.376949297711E+03   -0.39638E-04    0.50848E-05 10080   0.802E-05-0.193E-05
CGA:  18    -0.376949296305E+03    0.14056E-05   -0.21396E-06 10080   0.671E-05 0.673E-05
  17 F= -.37694930E+03 E0= -.37694930E+03  d E =0.796479E-01  mag=    12.0000
       N       E                     dE             d eps       ncg     rms          ort
SDA:   1    -0.374075754065E+03    0.28735E+01    0.00000E+00 10080   0.710E+01 0.000E+00
CGA:   2    -0.376426804946E+03   -0.23511E+01   -0.23495E+01 10080   0.251E+01 0.130E-01
CGA:   3    -0.376897770806E+03   -0.47097E+00   -0.47100E+00 10080   0.608E+00 0.215E-02
CGA:   4    -0.377007468292E+03   -0.10970E+00   -0.10948E+00 10080   0.134E+00-0.367E-02
CGA:   5    -0.377031761606E+03   -0.24293E-01   -0.24240E-01 10080   0.405E-01-0.873E-03
CGA:   6    -0.377039905778E+03   -0.81442E-02   -0.81649E-02 10080   0.111E-01 0.555E-03
CGA:   7    -0.377042953690E+03   -0.30479E-02   -0.30539E-02 10080   0.493E-02-0.177E-03
CGA:   8    -0.377044362402E+03   -0.14087E-02   -0.14546E-02 10080   0.268E-02-0.766E-03
CGA:   9    -0.377045017289E+03   -0.65489E-03   -0.67173E-03 10080   0.939E-03-0.310E-03
CGA:  10    -0.377045258557E+03   -0.24127E-03   -0.24783E-03 10080   0.320E-03-0.124E-03
CGA:  11    -0.377045347267E+03   -0.88710E-04   -0.96979E-04 10080   0.144E-03-0.822E-04
CGA:  12    -0.377045372290E+03   -0.25024E-04   -0.25424E-04 10080   0.519E-04 0.241E-04
CGA:  13    -0.377045390916E+03   -0.18626E-04   -0.18754E-04 10080   0.292E-04-0.229E-05
CGA:  14    -0.377045400954E+03   -0.10038E-04   -0.10816E-04 10080   0.164E-04-0.593E-05
CGA:  15    -0.377045399868E+03    0.10858E-05   -0.85566E-06 10080   0.116E-04 0.989E-05
  18 F= -.37704540E+03 E0= -.37704540E+03  d E =-.961036E-01  mag=    12.0000
       N       E                     dE             d eps       ncg     rms          ort
SDA:   1    -0.376861811896E+03    0.18359E+00    0.00000E+00 10080   0.446E+00 0.000E+00
CGA:   2    -0.376999852934E+03   -0.13804E+00   -0.13781E+00 10080   0.177E+00 0.341E-02
CGA:   3    -0.377033358643E+03   -0.33506E-01   -0.33514E-01 10080   0.472E-01 0.105E-03
CGA:   4    -0.377041519571E+03   -0.81609E-02   -0.81482E-02 10080   0.109E-01-0.187E-03
CGA:   5    -0.377043514007E+03   -0.19944E-02   -0.19869E-02 10080   0.303E-02-0.135E-03
CGA:   6    -0.377044166619E+03   -0.65261E-03   -0.65047E-03 10080   0.990E-03-0.108E-03
CGA:   7    -0.377044392247E+03   -0.22563E-03   -0.22563E-03 10080   0.343E-03 0.509E-04
CGA:   8    -0.377044486662E+03   -0.94415E-04   -0.94079E-04 10080   0.138E-03 0.136E-04
CGA:   9    -0.377044395712E+03    0.90950E-04   -0.13557E-03 10080   0.107E-02-0.319E-03
CGA:  10    -0.377044544672E+03   -0.14896E-03   -0.16292E-03 10080   0.110E-03 0.116E-03
CGA:  11    -0.377044575566E+03   -0.30894E-04   -0.31085E-04 10080   0.269E-04 0.150E-04
CGA:  12    -0.377044586902E+03   -0.11336E-04   -0.15608E-04 10080   0.349E-04-0.175E-04
CGA:  13    -0.377044589099E+03   -0.21964E-05   -0.43474E-05 10080   0.716E-05 0.140E-04
  19 F= -.37704459E+03 E0= -.37704459E+03  d E =0.810769E-03  mag=    12.0000
       N       E                     dE             d eps       ncg     rms          ort
SDA:   1    -0.377018276955E+03    0.26310E-01    0.00000E+00 10080   0.672E-01 0.000E+00
CGA:   2    -0.377041435527E+03   -0.23159E-01   -0.23217E-01 10080   0.224E-01-0.730E-03
CGA:   3    -0.377045631747E+03   -0.41962E-02   -0.42088E-02 10080   0.560E-02 0.155E-03
CGA:   4    -0.377046619779E+03   -0.98803E-03   -0.99013E-03 10080   0.124E-02 0.235E-04
CGA:   5    -0.377046849506E+03   -0.22973E-03   -0.23070E-03 10080   0.364E-03 0.129E-04
CGA:   6    -0.377046921693E+03   -0.72188E-04   -0.73127E-04 10080   0.104E-03 0.164E-04
CGA:   7    -0.377046955304E+03   -0.33611E-04   -0.35033E-04 10080   0.647E-04-0.203E-04
CGA:   8    -0.377046967307E+03   -0.12002E-04   -0.11983E-04 10080   0.239E-04-0.726E-06
CGA:   9    -0.377046969355E+03   -0.20479E-05   -0.33056E-05 10080   0.938E-05 0.109E-04
  20 F= -.37704697E+03 E0= -.37704697E+03  d E =-.238026E-02  mag=    12.0000
       N       E                     dE             d eps       ncg     rms          ort
SDA:   1    -0.376990959776E+03    0.56008E-01    0.00000E+00 10080   0.131E+00 0.000E+00
CGA:   2    -0.377035369697E+03   -0.44410E-01   -0.44287E-01 10080   0.376E-01 0.125E-02
CGA:   3    -0.377043417759E+03   -0.80481E-02   -0.80222E-02 10080   0.101E-01-0.744E-03
CGA:   4    -0.377045061167E+03   -0.16434E-02   -0.16285E-02 10080   0.221E-02-0.189E-03
CGA:   5    -0.377045459388E+03   -0.39822E-03   -0.40063E-03 10080   0.554E-03 0.420E-04
CGA:   6    -0.377045574436E+03   -0.11505E-03   -0.11533E-03 10080   0.170E-03 0.823E-05
CGA:   7    -0.377045627604E+03   -0.53168E-04   -0.62545E-04 10080   0.155E-03-0.743E-04
CGA:   8    -0.377045648169E+03   -0.20565E-04   -0.33400E-04 10080   0.145E-03-0.918E-04
CGA:   9    -0.377045674533E+03   -0.26364E-04   -0.27121E-04 10080   0.341E-04 0.121E-04
CGA:  10    -0.377045682297E+03   -0.77643E-05   -0.79955E-05 10080   0.624E-05 0.760E-05
  21 F= -.37704568E+03 E0= -.37704568E+03  d E =0.128706E-02  mag=    12.0000
       N       E                     dE             d eps       ncg     rms          ort
SDA:   1    -0.374570429464E+03    0.24752E+01    0.00000E+00 10080   0.581E+01 0.000E+00
CGA:   2    -0.376573023254E+03   -0.20026E+01   -0.20025E+01 10080   0.165E+01 0.347E-03
CGA:   3    -0.376908763914E+03   -0.33574E+00   -0.33597E+00 10080   0.409E+00 0.129E-02
CGA:   4    -0.376979375571E+03   -0.70612E-01   -0.70360E-01 10080   0.926E-01-0.262E-02
CGA:   5    -0.376996706596E+03   -0.17331E-01   -0.17304E-01 10080   0.256E-01-0.399E-03
CGA:   6    -0.377001728157E+03   -0.50216E-02   -0.50511E-02 10080   0.716E-02 0.564E-03
CGA:   7    -0.377003759251E+03   -0.20311E-02   -0.20454E-02 10080   0.332E-02-0.447E-03
CGA:   8    -0.377004708107E+03   -0.94886E-03   -0.99563E-03 10080   0.198E-02-0.659E-03
CGA:   9    -0.377005113335E+03   -0.40523E-03   -0.40540E-03 10080   0.604E-03-0.658E-04
CGA:  10    -0.377005280890E+03   -0.16756E-03   -0.16984E-03 10080   0.217E-03-0.600E-04
CGA:  11    -0.377005342303E+03   -0.61412E-04   -0.83136E-04 10080   0.192E-03-0.128E-03
CGA:  12    -0.377005368236E+03   -0.25933E-04   -0.30877E-04 10080   0.300E-04 0.481E-04
CGA:  13    -0.377005382029E+03   -0.13794E-04   -0.15504E-04 10080   0.277E-04-0.111E-04
CGA:  14    -0.377005367223E+03    0.14806E-04   -0.15249E-04 10080   0.115E-03-0.497E-04
CGA:  15    -0.377005378321E+03   -0.11098E-04   -0.18043E-04 10080   0.282E-04 0.498E-04
CGA:  16    -0.377005384195E+03   -0.58745E-05   -0.72608E-05 10080   0.835E-05 0.126E-04
  22 F= -.37700538E+03 E0= -.37700538E+03  d E =0.402981E-01  mag=    12.0000
       N       E                     dE             d eps       ncg     rms          ort
SDA:   1    -0.375487790812E+03    0.15176E+01    0.00000E+00 10080   0.356E+01 0.000E+00
CGA:   2    -0.376754190741E+03   -0.12664E+01   -0.12670E+01 10080   0.108E+01-0.845E-02
CGA:   3    -0.376963885005E+03   -0.20969E+00   -0.21004E+00 10080   0.265E+00 0.407E-02
CGA:   4    -0.377010687701E+03   -0.46803E-01   -0.46836E-01 10080   0.591E-01 0.291E-03
CGA:   5    -0.377021860978E+03   -0.11173E-01   -0.11151E-01 10080   0.185E-01-0.272E-03
CGA:   6    -0.377025511997E+03   -0.36510E-02   -0.36646E-02 10080   0.521E-02 0.182E-03
CGA:   7    -0.377026935407E+03   -0.14234E-02   -0.14234E-02 10080   0.217E-02 0.176E-04
CGA:   8    -0.377027510395E+03   -0.57499E-03   -0.57495E-03 10080   0.933E-03-0.704E-05
CGA:   9    -0.377027738230E+03   -0.22783E-03   -0.23036E-03 10080   0.266E-03 0.119E-03
CGA:  10    -0.377027828638E+03   -0.90409E-04   -0.90748E-04 10080   0.104E-03-0.977E-05
CGA:  11    -0.377027862187E+03   -0.33549E-04   -0.38257E-04 10080   0.648E-04-0.416E-04
CGA:  12    -0.377027865000E+03   -0.28126E-05   -0.52872E-05 10080   0.331E-04 0.178E-04
  23 F= -.37702786E+03 E0= -.37702786E+03  d E =-.224808E-01  mag=    12.0000
       N       E                     dE             d eps       ncg     rms          ort
SDA:   1    -0.375195284304E+03    0.18326E+01    0.00000E+00 10080   0.429E+01 0.000E+00
CGA:   2    -0.376732124780E+03   -0.15368E+01   -0.15377E+01 10080   0.122E+01-0.861E-02
CGA:   3    -0.376970529014E+03   -0.23840E+00   -0.23882E+00 10080   0.298E+00 0.478E-02
CGA:   4    -0.377022199939E+03   -0.51671E-01   -0.51539E-01 10080   0.695E-01-0.132E-02
CGA:   5    -0.377035334274E+03   -0.13134E-01   -0.13079E-01 10080   0.196E-01-0.811E-03
CGA:   6    -0.377039173449E+03   -0.38392E-02   -0.38475E-02 10080   0.552E-02 0.146E-03
CGA:   7    -0.377040677300E+03   -0.15039E-02   -0.15083E-02 10080   0.233E-02-0.224E-03
CGA:   8    -0.377041347991E+03   -0.67069E-03   -0.69116E-03 10080   0.129E-02-0.361E-03
CGA:   9    -0.377041637280E+03   -0.28929E-03   -0.28980E-03 10080   0.403E-03-0.473E-04
CGA:  10    -0.377041761076E+03   -0.12380E-03   -0.13328E-03 10080   0.180E-03-0.108E-03
CGA:  11    -0.377041801037E+03   -0.39961E-04   -0.54614E-04 10080   0.133E-03-0.942E-04
CGA:  12    -0.377041816771E+03   -0.15735E-04   -0.20552E-04 10080   0.253E-04 0.426E-04
CGA:  13    -0.377041821697E+03   -0.49262E-05   -0.59990E-05 10080   0.115E-04 0.130E-04
CGA:  14    -0.377041797159E+03    0.24538E-04   -0.13862E-04 10080   0.189E-03-0.308E-04
CGA:  15    -0.377041811989E+03   -0.14830E-04   -0.29071E-04 10080   0.158E-04 0.449E-04
CGA:  16    -0.377041817466E+03   -0.54771E-05   -0.49932E-05 10080   0.516E-05-0.243E-05
  24 F= -.37704182E+03 E0= -.37704182E+03  d E =-.139525E-01  mag=    12.0000
       N       E                     dE             d eps       ncg     rms          ort
SDA:   1    -0.374565016593E+03    0.24768E+01    0.00000E+00 10080   0.564E+01 0.000E+00
CGA:   2    -0.376577655407E+03   -0.20126E+01   -0.20128E+01 10080   0.174E+01-0.111E-02
CGA:   3    -0.376914483793E+03   -0.33683E+00   -0.33795E+00 10080   0.401E+00 0.597E-03
CGA:   4    -0.376985133333E+03   -0.70650E-01   -0.70152E-01 10080   0.906E-01-0.141E-02
CGA:   5    -0.377002693717E+03   -0.17560E-01   -0.17467E-01 10080   0.276E-01-0.399E-03
CGA:   6    -0.377007999092E+03   -0.53054E-02   -0.53696E-02 10080   0.801E-02 0.292E-03
CGA:   7    -0.377010287167E+03   -0.22881E-02   -0.22611E-02 10080   0.344E-02-0.235E-03
CGA:   8    -0.377011309372E+03   -0.10222E-02   -0.99069E-03 10080   0.179E-02-0.344E-03
CGA:   9    -0.377011766517E+03   -0.45715E-03   -0.44562E-03 10080   0.587E-03-0.108E-03
CGA:  10    -0.377011957925E+03   -0.19141E-03   -0.18576E-03 10080   0.245E-03-0.137E-03
CGA:  11    -0.377012010676E+03   -0.52751E-04   -0.51207E-04 10080   0.748E-04-0.149E-04
CGA:  12    -0.377012036095E+03   -0.25419E-04   -0.25319E-04 10080   0.382E-04-0.942E-05
CGA:  13    -0.377012044871E+03   -0.87755E-05   -0.25729E-04 10080   0.101E-03-0.424E-04
CGA:  14    -0.377012052782E+03   -0.79117E-05   -0.15567E-04 10080   0.159E-04 0.323E-04
  25 F= -.37701205E+03 E0= -.37701205E+03  d E =0.297647E-01  mag=    12.0000
       N       E                     dE             d eps       ncg     rms          ort
SDA:   1    -0.375538633668E+03    0.14734E+01    0.00000E+00 10080   0.346E+01 0.000E+00
CGA:   2    -0.376775195813E+03   -0.12366E+01   -0.12365E+01 10080   0.111E+01-0.569E-02
CGA:   3    -0.376981664739E+03   -0.20647E+00   -0.20682E+00 10080   0.254E+00 0.177E-02
CGA:   4    -0.377025991726E+03   -0.44327E-01   -0.44261E-01 10080   0.592E-01-0.444E-03
CGA:   5    -0.377037106146E+03   -0.11114E-01   -0.11080E-01 10080   0.169E-01-0.226E-03
CGA:   6    -0.377040432748E+03   -0.33266E-02   -0.33581E-02 10080   0.468E-02 0.219E-03
CGA:   7    -0.377041715004E+03   -0.12823E-02   -0.12741E-02 10080   0.197E-02-0.124E-03
CGA:   8    -0.377042282151E+03   -0.56715E-03   -0.56013E-03 10080   0.973E-03-0.178E-03
CGA:   9    -0.377042485335E+03   -0.20318E-03   -0.21174E-03 10080   0.280E-03 0.948E-04
CGA:  10    -0.377042566343E+03   -0.81008E-04   -0.82173E-04 10080   0.920E-04 0.203E-04
CGA:  11    -0.377042595294E+03   -0.28951E-04   -0.57240E-04 10080   0.207E-03-0.110E-03
CGA:  12    -0.377042609945E+03   -0.14652E-04   -0.27769E-04 10080   0.316E-04 0.652E-04
CGA:  13    -0.377042613077E+03   -0.31310E-05   -0.59176E-05 10080   0.114E-04 0.153E-04
  26 F= -.37704261E+03 E0= -.37704261E+03  d E =-.305603E-01  mag=    12.0000
       N       E                     dE             d eps       ncg     rms          ort
SDA:   1    -0.376768998454E+03    0.27361E+00    0.00000E+00 10080   0.607E+00 0.000E+00
CGA:   2    -0.376984731037E+03   -0.21573E+00   -0.21565E+00 10080   0.175E+00 0.243E-02
CGA:   3    -0.377020555846E+03   -0.35825E-01   -0.35767E-01 10080   0.474E-01-0.509E-03
CGA:   4    -0.377028648436E+03   -0.80926E-02   -0.81141E-02 10080   0.108E-01 0.130E-03
CGA:   5    -0.377030708309E+03   -0.20599E-02   -0.20635E-02 10080   0.332E-02 0.274E-04
CGA:   6    -0.377031401589E+03   -0.69328E-03   -0.69751E-03 10080   0.107E-02 0.439E-04
CGA:   7    -0.377031647256E+03   -0.24567E-03   -0.25414E-03 10080   0.369E-03 0.126E-03
CGA:   8    -0.377031742595E+03   -0.95339E-04   -0.99376E-04 10080   0.140E-03 0.713E-04
CGA:   9    -0.377031790481E+03   -0.47887E-04   -0.47977E-04 10080   0.553E-04 0.126E-04
CGA:  10    -0.377031803783E+03   -0.13302E-04   -0.14062E-04 10080   0.153E-04 0.125E-04
CGA:  11    -0.377031806304E+03   -0.25206E-05   -0.33637E-05 10080   0.501E-05 0.753E-05
  27 F= -.37703181E+03 E0= -.37703181E+03  d E =0.108068E-01  mag=    12.0000
       N       E                     dE             d eps       ncg     rms          ort
SDA:   1    -0.376900968073E+03    0.13084E+00    0.00000E+00 10080   0.320E+00 0.000E+00
CGA:   2    -0.377015460208E+03   -0.11449E+00   -0.11461E+00 10080   0.101E+00-0.154E-02
CGA:   3    -0.377034560632E+03   -0.19100E-01   -0.19138E-01 10080   0.261E-01 0.363E-03
CGA:   4    -0.377039242224E+03   -0.46816E-02   -0.46487E-02 10080   0.632E-02-0.328E-03
CGA:   5    -0.377040412920E+03   -0.11707E-02   -0.11646E-02 10080   0.185E-02-0.712E-04
CGA:   6    -0.377040788499E+03   -0.37558E-03   -0.37706E-03 10080   0.576E-03 0.234E-04
CGA:   7    -0.377040969061E+03   -0.18056E-03   -0.18919E-03 10080   0.370E-03-0.148E-03
CGA:   8    -0.377041051477E+03   -0.82416E-04   -0.92620E-04 10080   0.252E-03-0.150E-03
CGA:   9    -0.377041087233E+03   -0.35755E-04   -0.34853E-04 10080   0.852E-04-0.228E-04
CGA:  10    -0.377041102883E+03   -0.15650E-04   -0.16156E-04 10080   0.350E-04 0.815E-05
CGA:  11    -0.377041111281E+03   -0.83982E-05   -0.85989E-05 10080   0.146E-04 0.466E-05
  28 F= -.37704111E+03 E0= -.37704111E+03  d E =-.930498E-02  mag=    12.0000
       N       E                     dE             d eps       ncg     rms          ort
SDA:   1    -0.377009044495E+03    0.32058E-01    0.00000E+00 10080   0.715E-01 0.000E+00
CGA:   2    -0.377034309842E+03   -0.25265E-01   -0.25201E-01 10080   0.201E-01 0.701E-03
CGA:   3    -0.377038667856E+03   -0.43580E-02   -0.43405E-02 10080   0.436E-02-0.336E-03
CGA:   4    -0.377039382425E+03   -0.71457E-03   -0.70217E-03 10080   0.110E-02-0.125E-03
CGA:   5    -0.377039578775E+03   -0.19635E-03   -0.19822E-03 10080   0.262E-03 0.251E-04
CGA:   6    -0.377039628845E+03   -0.50070E-04   -0.51627E-04 10080   0.695E-04 0.247E-04
CGA:   7    -0.377039650225E+03   -0.21380E-04   -0.21532E-04 10080   0.360E-04-0.487E-05
CGA:   8    -0.377039661310E+03   -0.11084E-04   -0.12971E-04 10080   0.321E-04-0.141E-04
CGA:   9    -0.377039665709E+03   -0.43994E-05   -0.88884E-05 10080   0.315E-04-0.231E-04
  29 F= -.37703967E+03 E0= -.37703967E+03  d E =0.144557E-02  mag=    12.0000
       N       E                     dE             d eps       ncg     rms          ort
SDA:   1    -0.359001459140E+03    0.18038E+02    0.00000E+00 10080   0.426E+02 0.000E+00
CGA:   2    -0.373697767195E+03   -0.14696E+02   -0.14698E+02 10080   0.129E+02-0.638E-02
CGA:   3    -0.376317131704E+03   -0.26194E+01   -0.26230E+01 10080   0.261E+01 0.377E-01
CGA:   4    -0.376782905542E+03   -0.46577E+00   -0.46342E+00 10080   0.599E+00-0.223E-01
CGA:   5    -0.376902994103E+03   -0.12009E+00   -0.12001E+00 10080   0.194E+00-0.158E-02
CGA:   6    -0.376940144456E+03   -0.37150E-01   -0.37412E-01 10080   0.565E-01 0.391E-02
CGA:   7    -0.376957134529E+03   -0.16990E-01   -0.17152E-01 10080   0.279E-01-0.378E-02
CGA:   8    -0.376964816697E+03   -0.76822E-02   -0.77785E-02 10080   0.144E-01-0.229E-02
CGA:   9    -0.376968340292E+03   -0.35236E-02   -0.35246E-02 10080   0.433E-02-0.126E-03
CGA:  10    -0.376969758524E+03   -0.14182E-02   -0.15522E-02 10080   0.235E-02-0.131E-02
CGA:  11    -0.376970130231E+03   -0.37171E-03   -0.37427E-03 10080   0.739E-03 0.689E-04
CGA:  12    -0.376970304846E+03   -0.17461E-03   -0.17709E-03 10080   0.337E-03 0.817E-04
CGA:  13    -0.376970437005E+03   -0.13216E-03   -0.17725E-03 10080   0.403E-03-0.213E-03
CGA:  14    -0.376970466404E+03   -0.29399E-04   -0.55134E-04 10080   0.104E-03 0.191E-03
CGA:  15    -0.376970474685E+03   -0.82809E-05   -0.18561E-04 10080   0.348E-04 0.711E-04
CGA:  16    -0.376970495812E+03   -0.21127E-04    0.25559E-04 10080   0.136E-04 0.169E-04
CGA:  17    -0.376970493543E+03    0.22685E-05   -0.12264E-05 10080   0.110E-04 0.177E-04
  30 F= -.37697049E+03 E0= -.37697049E+03  d E =0.691722E-01  mag=    12.0000
       N       E                     dE             d eps       ncg     rms          ort
SDA:   1    -0.373916652121E+03    0.30538E+01    0.00000E+00 10080   0.719E+01 0.000E+00
CGA:   2    -0.376360197319E+03   -0.24435E+01   -0.24431E+01 10080   0.223E+01 0.347E-02
CGA:   3    -0.376826563458E+03   -0.46637E+00   -0.46644E+00 10080   0.500E+00 0.183E-03
CGA:   4    -0.376908804660E+03   -0.82241E-01   -0.81911E-01 10080   0.116E+00-0.410E-02
CGA:   5    -0.376931187940E+03   -0.22383E-01   -0.22363E-01 10080   0.329E-01-0.492E-03
CGA:   6    -0.376937558267E+03   -0.63703E-02   -0.64125E-02 10080   0.965E-02 0.107E-02
CGA:   7    -0.376940228711E+03   -0.26704E-02   -0.26843E-02 10080   0.422E-02-0.380E-03
CGA:   8    -0.376941475840E+03   -0.12471E-02   -0.12913E-02 10080   0.243E-02-0.525E-03
CGA:   9    -0.376942002134E+03   -0.52629E-03   -0.52540E-03 10080   0.735E-03 0.118E-03
CGA:  10    -0.376942243587E+03   -0.24145E-03   -0.25278E-03 10080   0.338E-03-0.128E-03
CGA:  11    -0.376942328738E+03   -0.85151E-04   -0.92519E-04 10080   0.160E-03-0.842E-04
CGA:  12    -0.376942349827E+03   -0.21089E-04   -0.23177E-04 10080   0.662E-04 0.381E-04
CGA:  13    -0.376942363933E+03   -0.14106E-04   -0.15369E-04 10080   0.276E-04 0.217E-04
CGA:  14    -0.376942376623E+03   -0.12690E-04   -0.13583E-04 10080   0.214E-04-0.702E-05
CGA:  15    -0.376942376191E+03    0.43160E-06   -0.12950E-05 10080   0.159E-04 0.103E-04
  31 F= -.37694238E+03 E0= -.37694238E+03  d E =0.281174E-01  mag=    12.0000
       N       E                     dE             d eps       ncg     rms          ort
SDA:   1    -0.374387428899E+03    0.25549E+01    0.00000E+00 10080   0.601E+01 0.000E+00
CGA:   2    -0.376533502364E+03   -0.21461E+01   -0.21480E+01 10080   0.174E+01-0.162E-01
CGA:   3    -0.376894039314E+03   -0.36054E+00   -0.36085E+00 10080   0.363E+00 0.982E-02
CGA:   4    -0.376957452534E+03   -0.63413E-01   -0.63283E-01 10080   0.872E-01-0.217E-02
CGA:   5    -0.376974896345E+03   -0.17444E-01   -0.17421E-01 10080   0.263E-01-0.695E-03
CGA:   6    -0.376979985914E+03   -0.50896E-02   -0.51013E-02 10080   0.816E-02 0.319E-03
CGA:   7    -0.376982365007E+03   -0.23791E-02   -0.24271E-02 10080   0.385E-02-0.753E-03
CGA:   8    -0.376983388572E+03   -0.10236E-02   -0.10538E-02 10080   0.201E-02-0.441E-03
CGA:   9    -0.376983814484E+03   -0.42591E-03   -0.42564E-03 10080   0.540E-03 0.100E-03
CGA:  10    -0.376983995124E+03   -0.18064E-03   -0.19689E-03 10080   0.298E-03-0.147E-03
CGA:  11    -0.376984058729E+03   -0.63605E-04   -0.74008E-04 10080   0.156E-03-0.105E-03
CGA:  12    -0.376984081809E+03   -0.23080E-04   -0.23371E-04 10080   0.698E-04 0.180E-04
CGA:  13    -0.376984100418E+03   -0.18609E-04   -0.18656E-04 10080   0.298E-04 0.669E-05
CGA:  14    -0.376984111798E+03   -0.11380E-04   -0.12492E-04 10080   0.181E-04-0.819E-05
CGA:  15    -0.376984111122E+03    0.67617E-06   -0.97375E-06 10080   0.127E-04 0.922E-05
  32 F= -.37698411E+03 E0= -.37698411E+03  d E =-.417349E-01  mag=    12.0000
       N       E                     dE             d eps       ncg     rms          ort
SDA:   1    -0.376445187625E+03    0.53892E+00    0.00000E+00 10080   0.129E+01 0.000E+00
CGA:   2    -0.376873864822E+03   -0.42868E+00   -0.42870E+00 10080   0.463E+00-0.407E-03
CGA:   3    -0.376958563627E+03   -0.84699E-01   -0.84734E-01 10080   0.114E+00 0.537E-03
CGA:   4    -0.376978476365E+03   -0.19913E-01   -0.19918E-01 10080   0.261E-01 0.507E-04
CGA:   5    -0.376983169087E+03   -0.46927E-02   -0.46995E-02 10080   0.710E-02 0.115E-03
CGA:   6    -0.376984638231E+03   -0.14691E-02   -0.14732E-02 10080   0.206E-02 0.155E-03
CGA:   7    -0.376985154195E+03   -0.51596E-03   -0.51480E-03 10080   0.771E-03 0.882E-04
CGA:   8    -0.376985359672E+03   -0.20548E-03   -0.20401E-03 10080   0.304E-03 0.679E-04
CGA:   9    -0.376985449051E+03   -0.89379E-04   -0.87912E-04 10080   0.100E-03 0.445E-04
CGA:  10    -0.376985479505E+03   -0.30454E-04   -0.29946E-04 10080   0.315E-04 0.197E-04
CGA:  11    -0.376985486834E+03   -0.73283E-05   -0.77383E-05 10080   0.998E-05 0.134E-04
  33 F= -.37698549E+03 E0= -.37698549E+03  d E =-.137571E-02  mag=    12.0000
       N       E                     dE             d eps       ncg     rms          ort
SDA:   1    -0.376334905937E+03    0.65057E+00    0.00000E+00 10080   0.150E+01 0.000E+00
CGA:   2    -0.376869494983E+03   -0.53459E+00   -0.53429E+00 10080   0.419E+00 0.215E-02
CGA:   3    -0.376960087540E+03   -0.90593E-01   -0.90590E-01 10080   0.790E-01-0.315E-03
CGA:   4    -0.376973628972E+03   -0.13541E-01   -0.13451E-01 10080   0.217E-01-0.137E-02
CGA:   5    -0.376977687381E+03   -0.40584E-02   -0.40612E-02 10080   0.546E-02 0.611E-04
CGA:   6    -0.376978714265E+03   -0.10269E-02   -0.10436E-02 10080   0.159E-02 0.410E-03
CGA:   7    -0.376979185395E+03   -0.47113E-03   -0.47650E-03 10080   0.769E-03-0.107E-03
CGA:   8    -0.376979401680E+03   -0.21629E-03   -0.22063E-03 10080   0.408E-03-0.571E-04
CGA:   9    -0.376979489535E+03   -0.87855E-04   -0.87983E-04 10080   0.123E-03 0.531E-04
CGA:  10    -0.376979535913E+03   -0.46378E-04   -0.53409E-04 10080   0.892E-04-0.470E-04
CGA:  11    -0.376979546631E+03   -0.10718E-04   -0.10835E-04 10080   0.403E-04 0.253E-05
CGA:  12    -0.376979551432E+03   -0.48006E-05   -0.59694E-05 10080   0.174E-04 0.121E-04
  34 F= -.37697955E+03 E0= -.37697955E+03  d E =0.593540E-02  mag=    12.0000
       N       E                     dE             d eps       ncg     rms          ort
SDA:   1    -0.373473942798E+03    0.35056E+01    0.00000E+00 10080   0.826E+01 0.000E+00
CGA:   2    -0.376278042817E+03   -0.28041E+01   -0.28036E+01 10080   0.274E+01 0.346E-02
CGA:   3    -0.376815110506E+03   -0.53707E+00   -0.53724E+00 10080   0.631E+00 0.200E-02
CGA:   4    -0.376916917170E+03   -0.10181E+00   -0.10158E+00 10080   0.143E+00-0.317E-02
CGA:   5    -0.376943763236E+03   -0.26846E-01   -0.26804E-01 10080   0.404E-01-0.101E-02
CGA:   6    -0.376951755315E+03   -0.79921E-02   -0.80176E-02 10080   0.112E-01 0.862E-03
CGA:   7    -0.376954594223E+03   -0.28389E-02   -0.28400E-02 10080   0.453E-02-0.542E-04
CGA:   8    -0.376955948047E+03   -0.13538E-02   -0.13889E-02 10080   0.249E-02-0.442E-03
CGA:   9    -0.376956569627E+03   -0.62158E-03   -0.61989E-03 10080   0.848E-03 0.392E-04
CGA:  10    -0.376956843349E+03   -0.27372E-03   -0.28744E-03 10080   0.357E-03-0.139E-03
CGA:  11    -0.376956938802E+03   -0.95453E-04   -0.10450E-03 10080   0.162E-03-0.825E-04
CGA:  12    -0.376956964518E+03   -0.25716E-04   -0.26764E-04 10080   0.603E-04 0.342E-04
CGA:  13    -0.376956979951E+03   -0.15433E-04   -0.15907E-04 10080   0.268E-04 0.179E-04
CGA:  14    -0.376956990738E+03   -0.10787E-04   -0.10556E-04 10080   0.140E-04 0.376E-05
CGA:  15    -0.376956991128E+03   -0.39007E-06   -0.17909E-05 10080   0.850E-05 0.105E-04
  35 F= -.37695699E+03 E0= -.37695699E+03  d E =0.225603E-01  mag=    12.0000
       N       E                     dE             d eps       ncg     rms          ort
SDA:   1    -0.352307504681E+03    0.24649E+02    0.00000E+00 10080   0.547E+02 0.000E+00
CGA:   2    -0.370004724990E+03   -0.17697E+02   -0.17697E+02 10080   0.203E+02 0.433E-02
CGA:   3    -0.373710304940E+03   -0.37056E+01   -0.37195E+01 10080   0.540E+01 0.818E-01
CGA:   4    -0.374758780319E+03   -0.10485E+01   -0.10475E+01 10080   0.139E+01-0.167E-01
CGA:   5    -0.375002328993E+03   -0.24355E+00   -0.24318E+00 10080   0.391E+00-0.495E-02
CGA:   6    -0.375088107208E+03   -0.85778E-01   -0.85846E-01 10080   0.133E+00 0.704E-02
CGA:   7    -0.375123949633E+03   -0.35842E-01   -0.35857E-01 10080   0.564E-01-0.411E-03
CGA:   8    -0.375139065291E+03   -0.15116E-01   -0.15269E-01 10080   0.236E-01-0.374E-02
CGA:   9    -0.375144654829E+03   -0.55895E-02   -0.55638E-02 10080   0.639E-02 0.129E-02
CGA:  10    -0.375146502267E+03   -0.18474E-02   -0.18356E-02 10080   0.200E-02 0.309E-03
CGA:  11    -0.375147186958E+03   -0.68469E-03   -0.78238E-03 10080   0.117E-02-0.710E-03
CGA:  12    -0.375147289243E+03   -0.10228E-03   -0.12150E-03 10080   0.486E-03 0.237E-03
CGA:  13    -0.375147353563E+03   -0.64321E-04   -0.80990E-04 10080   0.179E-03 0.167E-03
CGA:  14    -0.375147423932E+03   -0.70368E-04   -0.92402E-04 10080   0.226E-03-0.146E-03
CGA:  15    -0.375147484425E+03   -0.60493E-04   -0.61033E-04 10080   0.300E-04-0.187E-04
CGA:  16    -0.375147484805E+03   -0.37968E-06   -0.30311E-05 10080   0.162E-04 0.200E-04
  36 F= -.37514748E+03 E0= -.37514748E+03  d E =0.180951E+01  mag=    12.0000
       N       E                     dE             d eps       ncg     rms          ort
SDA:   1    -0.370292835752E+03    0.48546E+01    0.00000E+00 10080   0.147E+02 0.000E+00
CGA:   2    -0.375342932188E+03   -0.50501E+01   -0.50518E+01 10080   0.468E+01-0.143E-01
CGA:   3    -0.376255117993E+03   -0.91219E+00   -0.91251E+00 10080   0.135E+01 0.952E-02
CGA:   4    -0.376508417766E+03   -0.25330E+00   -0.25336E+00 10080   0.327E+00 0.345E-03
CGA:   5    -0.376568001508E+03   -0.59584E-01   -0.59520E-01 10080   0.104E+00-0.137E-02
CGA:   6    -0.376591275381E+03   -0.23274E-01   -0.23275E-01 10080   0.372E-01 0.371E-03
CGA:   7    -0.376601069311E+03   -0.97939E-02   -0.97747E-02 10080   0.150E-01 0.573E-03
CGA:   8    -0.376604994007E+03   -0.39247E-02   -0.39274E-02 10080   0.585E-02-0.102E-03
CGA:   9    -0.376606544080E+03   -0.15501E-02   -0.15462E-02 10080   0.168E-02 0.113E-03
CGA:  10    -0.376607049675E+03   -0.50560E-03   -0.51207E-03 10080   0.552E-03-0.991E-04
CGA:  11    -0.376607216863E+03   -0.16719E-03   -0.19519E-03 10080   0.302E-03-0.201E-03
CGA:  12    -0.376607243511E+03   -0.26648E-04   -0.31838E-04 10080   0.120E-03 0.667E-04
CGA:  13    -0.376607256751E+03   -0.13240E-04   -0.18993E-04 10080   0.433E-04 0.521E-04
CGA:  14    -0.376607267244E+03   -0.10493E-04   -0.11321E-04 10080   0.227E-04 0.158E-04
CGA:  15    -0.376607276869E+03   -0.96242E-05   -0.10941E-04 10080   0.210E-04-0.109E-04
  37 F= -.37660728E+03 E0= -.37660728E+03  d E =-.145979E+01  mag=    12.0000
       N       E                     dE             d eps       ncg     rms          ort
SDA:   1    -0.374558388537E+03    0.20489E+01    0.00000E+00 10080   0.551E+01 0.000E+00
CGA:   2    -0.376425719677E+03   -0.18673E+01   -0.18663E+01 10080   0.176E+01 0.861E-02
CGA:   3    -0.376779614768E+03   -0.35390E+00   -0.35407E+00 10080   0.558E+00 0.403E-02
CGA:   4    -0.376878063397E+03   -0.98449E-01   -0.98590E-01 10080   0.134E+00 0.219E-02
CGA:   5    -0.376902959001E+03   -0.24896E-01   -0.24868E-01 10080   0.392E-01-0.657E-03
CGA:   6    -0.376911887298E+03   -0.89283E-02   -0.89290E-02 10080   0.152E-01-0.512E-03
CGA:   7    -0.376915564888E+03   -0.36776E-02   -0.36637E-02 10080   0.548E-02 0.852E-03
CGA:   8    -0.376917027188E+03   -0.14623E-02   -0.14513E-02 10080   0.200E-02 0.491E-03
CGA:   9    -0.376917666630E+03   -0.63944E-03   -0.64472E-03 10080   0.740E-03-0.806E-04
CGA:  10    -0.376917852007E+03   -0.18538E-03   -0.18432E-03 10080   0.191E-03 0.396E-04
CGA:  11    -0.376917916318E+03   -0.64311E-04   -0.69198E-04 10080   0.805E-04-0.443E-04
CGA:  12    -0.376917929304E+03   -0.12986E-04   -0.13305E-04 10080   0.260E-04 0.131E-04
CGA:  13    -0.376917931537E+03   -0.22325E-05   -0.39216E-05 10080   0.116E-04 0.155E-04
  38 F= -.37691793E+03 E0= -.37691793E+03  d E =-.310655E+00  mag=    12.0000
       N       E                     dE             d eps       ncg     rms          ort
SDA:   1    -0.376757031848E+03    0.16090E+00    0.00000E+00 10080   0.478E+00 0.000E+00
CGA:   2    -0.376900749388E+03   -0.14372E+00   -0.14338E+00 10080   0.180E+00 0.464E-02
CGA:   3    -0.376935901385E+03   -0.35152E-01   -0.35185E-01 10080   0.566E-01 0.770E-03
CGA:   4    -0.376946015427E+03   -0.10114E-01   -0.10172E-01 10080   0.137E-01 0.111E-02
CGA:   5    -0.376948469517E+03   -0.24541E-02   -0.24568E-02 10080   0.354E-02 0.473E-04
CGA:   6    -0.376949322178E+03   -0.85266E-03   -0.85788E-03 10080   0.151E-02-0.334E-03
CGA:   7    -0.376949579230E+03   -0.25705E-03   -0.26532E-03 10080   0.456E-03 0.252E-03
CGA:   8    -0.376949641501E+03   -0.62272E-04   -0.79626E-04 10080   0.177E-03 0.231E-03
CGA:   9    -0.376949692031E+03   -0.50530E-04   -0.48485E-04 10080   0.838E-04 0.382E-04
CGA:  10    -0.376949703818E+03   -0.11787E-04   -0.15837E-04 10080   0.361E-04 0.593E-04
CGA:  11    -0.376949710001E+03   -0.61833E-05   -0.68732E-05 10080   0.200E-04 0.229E-04
  39 F= -.37694971E+03 E0= -.37694971E+03  d E =-.317785E-01  mag=    12.0000
       N       E                     dE             d eps       ncg     rms          ort
SDA:   1    -0.376701541611E+03    0.24816E+00    0.00000E+00 10080   0.682E+00 0.000E+00
CGA:   2    -0.376893986308E+03   -0.19244E+00   -0.19206E+00 10080   0.277E+00 0.583E-02
CGA:   3    -0.376947791929E+03   -0.53806E-01   -0.53830E-01 10080   0.844E-01 0.724E-03
CGA:   4    -0.376962824910E+03   -0.15033E-01   -0.15083E-01 10080   0.212E-01 0.116E-02
CGA:   5    -0.376966618626E+03   -0.37937E-02   -0.38015E-02 10080   0.527E-02 0.175E-03
CGA:   6    -0.376967833994E+03   -0.12154E-02   -0.12198E-02 10080   0.204E-02-0.347E-03
CGA:   7    -0.376968230238E+03   -0.39624E-03   -0.39834E-03 10080   0.639E-03 0.245E-03
CGA:   8    -0.376968338396E+03   -0.10816E-03   -0.12111E-03 10080   0.220E-03 0.270E-03
CGA:   9    -0.376968390259E+03   -0.51864E-04   -0.56010E-04 10080   0.964E-04 0.115E-03
CGA:  10    -0.376968407116E+03   -0.16856E-04   -0.68622E-04 10080   0.404E-03-0.104E-03
CGA:  11    -0.376968439129E+03   -0.32013E-04   -0.45983E-04 10080   0.410E-04 0.113E-03
CGA:  12    -0.376968438703E+03    0.42664E-06   -0.40026E-05 10080   0.156E-04 0.285E-04
  40 F= -.37696844E+03 E0= -.37696844E+03  d E =-.187287E-01  mag=    12.0000
       N       E                     dE             d eps       ncg     rms          ort
SDA:   1    -0.376946569616E+03    0.21870E-01    0.00000E+00 10080   0.640E-01 0.000E+00
CGA:   2    -0.376962597752E+03   -0.16028E-01   -0.15998E-01 10080   0.285E-01 0.887E-03
CGA:   3    -0.376968362835E+03   -0.57651E-02   -0.57678E-02 10080   0.854E-02 0.128E-03
CGA:   4    -0.376969837205E+03   -0.14744E-02   -0.14772E-02 10080   0.213E-02 0.606E-04
CGA:   5    -0.376970222990E+03   -0.38578E-03   -0.38621E-03 10080   0.544E-03 0.115E-04
CGA:   6    -0.376970342217E+03   -0.11923E-03   -0.11934E-03 10080   0.183E-03-0.274E-04
CGA:   7    -0.376970376562E+03   -0.34345E-04   -0.34707E-04 10080   0.545E-04 0.255E-04
CGA:   8    -0.376970384550E+03   -0.79883E-05   -0.95673E-05 10080   0.192E-04 0.267E-04
  41 F= -.37697038E+03 E0= -.37697038E+03  d E =-.194585E-02  mag=    12.0000
       N       E                     dE             d eps       ncg     rms          ort
SDA:   1    -0.376925162517E+03    0.45214E-01    0.00000E+00 10080   0.121E+00 0.000E+00
CGA:   2    -0.376955014504E+03   -0.29852E-01   -0.29803E-01 10080   0.532E-01 0.117E-02
CGA:   3    -0.376965983215E+03   -0.10969E-01   -0.10968E-01 10080   0.164E-01-0.218E-03
CGA:   4    -0.376968766216E+03   -0.27830E-02   -0.27725E-02 10080   0.393E-02-0.276E-03
CGA:   5    -0.376969470231E+03   -0.70402E-03   -0.70256E-03 10080   0.998E-03-0.591E-04
CGA:   6    -0.376969674924E+03   -0.20469E-03   -0.20471E-03 10080   0.295E-03-0.735E-05
CGA:   7    -0.376969744991E+03   -0.70067E-04   -0.70148E-04 10080   0.107E-03-0.241E-05
CGA:   8    -0.376969772161E+03   -0.27170E-04   -0.27208E-04 10080   0.384E-04-0.796E-06
CGA:   9    -0.376969784456E+03   -0.12295E-04   -0.14993E-04 10080   0.286E-04-0.147E-04
CGA:  10    -0.376969788534E+03   -0.40776E-05   -0.40914E-05 10080   0.105E-04-0.107E-05
  42 F= -.37696979E+03 E0= -.37696979E+03  d E =0.596016E-03  mag=    12.0000
       N       E                     dE             d eps       ncg     rms          ort
SDA:   1    -0.376957386800E+03    0.12398E-01    0.00000E+00 10080   0.286E-01 0.000E+00
CGA:   2    -0.376965001972E+03   -0.76152E-02   -0.75853E-02 10080   0.101E-01 0.592E-03
CGA:   3    -0.376967324635E+03   -0.23227E-02   -0.23258E-02 10080   0.350E-02-0.418E-03
CGA:   4    -0.376967919185E+03   -0.59455E-03   -0.57762E-03 10080   0.848E-03-0.364E-03
CGA:   5    -0.376968052856E+03   -0.13367E-03   -0.13256E-03 10080   0.211E-03-0.266E-04
CGA:   6    -0.376968087467E+03   -0.34611E-04   -0.35946E-04 10080   0.540E-04 0.347E-04
CGA:   7    -0.376968105768E+03   -0.18301E-04   -0.26411E-04 10080   0.822E-04-0.391E-04
CGA:   8    -0.376968121849E+03   -0.16081E-04   -0.15568E-04 10080   0.180E-04-0.154E-04
CGA:   9    -0.376968128538E+03   -0.66892E-05    0.43638E-04 10080   0.366E-05 0.128E-05
  43 F= -.37696813E+03 E0= -.37696813E+03  d E =0.166000E-02  mag=    12.0000
       N       E                     dE             d eps       ncg     rms          ort
SDA:   1    -0.376817568285E+03    0.15055E+00    0.00000E+00 10080   0.377E+00 0.000E+00
CGA:   2    -0.376924527207E+03   -0.10696E+00   -0.10678E+00 10080   0.110E+00 0.412E-02
CGA:   3    -0.376953325093E+03   -0.28798E-01   -0.28824E-01 10080   0.216E-01-0.205E-02
CGA:   4    -0.376957142386E+03   -0.38173E-02   -0.37784E-02 10080   0.583E-02-0.581E-03
CGA:   5    -0.376958169574E+03   -0.10272E-02   -0.10262E-02 10080   0.143E-02-0.177E-04
CGA:   6    -0.376958491597E+03   -0.32202E-03   -0.32163E-03 10080   0.555E-03-0.289E-04
CGA:   7    -0.376958654450E+03   -0.16285E-03   -0.17382E-03 10080   0.371E-03-0.136E-03
CGA:   8    -0.376958743078E+03   -0.88628E-04   -0.10017E-03 10080   0.250E-03-0.101E-03
CGA:   9    -0.376958795169E+03   -0.52091E-04   -0.55069E-04 10080   0.105E-03-0.547E-04
CGA:  10    -0.376958816479E+03   -0.21310E-04   -0.21342E-04 10080   0.339E-04-0.328E-05
CGA:  11    -0.376958821170E+03   -0.46907E-05   -0.56976E-05 10080   0.137E-04 0.129E-04
  44 F= -.37695882E+03 E0= -.37695882E+03  d E =0.930737E-02  mag=    12.0000
       N       E                     dE             d eps       ncg     rms          ort
SDA:   1    -0.376729724114E+03    0.22909E+00    0.00000E+00 10080   0.596E+00 0.000E+00
CGA:   2    -0.376887673855E+03   -0.15795E+00   -0.15778E+00 10080   0.174E+00 0.729E-02
CGA:   3    -0.376932585168E+03   -0.44911E-01   -0.44929E-01 10080   0.431E-01-0.153E-02
CGA:   4    -0.376939601526E+03   -0.70164E-02   -0.69918E-02 10080   0.103E-01-0.322E-03
CGA:   5    -0.376941605407E+03   -0.20039E-02   -0.19948E-02 10080   0.284E-02-0.208E-03
CGA:   6    -0.376942209274E+03   -0.60387E-03   -0.60213E-03 10080   0.109E-02-0.827E-04
CGA:   7    -0.376942455964E+03   -0.24669E-03   -0.24706E-03 10080   0.388E-03 0.109E-03
CGA:   8    -0.376942575371E+03   -0.11941E-03   -0.11719E-03 10080   0.187E-03 0.582E-04
CGA:   9    -0.376942652777E+03   -0.77406E-04   -0.92563E-04 10080   0.189E-03-0.790E-04
CGA:  10    -0.376942671488E+03   -0.18712E-04   -0.19230E-04 10080   0.896E-04 0.722E-05
CGA:  11    -0.376942682809E+03   -0.11321E-04   -0.13085E-04 10080   0.355E-04 0.170E-04
CGA:  12    -0.376942692236E+03   -0.94264E-05   -0.93996E-05 10080   0.182E-04-0.165E-05
CGA:  13    -0.376942676397E+03    0.15839E-04   -0.14320E-04 10080   0.132E-03-0.514E-04
CGA:  14    -0.376942690432E+03   -0.14036E-04   -0.19278E-04 10080   0.246E-04 0.432E-04
CGA:  15    -0.376942695895E+03   -0.54631E-05   -0.61094E-05 10080   0.751E-05 0.862E-05
CGA:  16    -0.376942701458E+03   -0.55626E-05    0.20740E-04 10080   0.230E-05-0.577E-06
  45 F= -.37694270E+03 E0= -.37694270E+03  d E =0.161197E-01  mag=    12.0000
       N       E                     dE             d eps       ncg     rms          ort
SDA:   1    -0.376867813116E+03    0.74883E-01    0.00000E+00 10080   0.185E+00 0.000E+00
CGA:   2    -0.376918743743E+03   -0.50931E-01   -0.50882E-01 10080   0.606E-01 0.168E-02
CGA:   3    -0.376933184527E+03   -0.14441E-01   -0.14433E-01 10080   0.167E-01-0.631E-03
CGA:   4    -0.376936062707E+03   -0.28782E-02   -0.28240E-02 10080   0.395E-02-0.697E-03
CGA:   5    -0.376936782004E+03   -0.71930E-03   -0.71566E-03 10080   0.114E-02-0.663E-04
CGA:   6    -0.376936984308E+03   -0.20230E-03   -0.20746E-03 10080   0.327E-03 0.920E-04
CGA:   7    -0.376937092616E+03   -0.10831E-03   -0.11099E-03 10080   0.194E-03-0.356E-04
CGA:   8    -0.376937145219E+03   -0.52603E-04   -0.67795E-04 10080   0.209E-03-0.102E-03
CGA:   9    -0.376937171289E+03   -0.26071E-04   -0.29862E-04 10080   0.308E-04 0.354E-04
CGA:  10    -0.376937178420E+03   -0.71310E-05   -0.75400E-05 10080   0.108E-04 0.115E-04
  46 F= -.37693718E+03 E0= -.37693718E+03  d E =0.552304E-02  mag=    12.0000
       N       E                     dE             d eps       ncg     rms          ort
SDA:   1    -0.376850794687E+03    0.86377E-01    0.00000E+00 10080   0.218E+00 0.000E+00
CGA:   2    -0.376908889147E+03   -0.58094E-01   -0.58053E-01 10080   0.655E-01 0.328E-02
CGA:   3    -0.376925614480E+03   -0.16725E-01   -0.16723E-01 10080   0.168E-01-0.768E-03
CGA:   4    -0.376928304376E+03   -0.26899E-02   -0.26461E-02 10080   0.401E-02-0.466E-03
CGA:   5    -0.376929060948E+03   -0.75657E-03   -0.75231E-03 10080   0.107E-02-0.759E-04
CGA:   6    -0.376929264797E+03   -0.20385E-03   -0.20677E-03 10080   0.347E-03 0.590E-04
CGA:   7    -0.376929362543E+03   -0.97747E-04   -0.97382E-04 10080   0.155E-03 0.173E-04
CGA:   8    -0.376929408999E+03   -0.46456E-04   -0.45843E-04 10080   0.781E-04 0.168E-04
CGA:   9    -0.376929435536E+03   -0.26537E-04   -0.26293E-04 10080   0.335E-04 0.431E-05
CGA:  10    -0.376929444360E+03   -0.88234E-05   -0.21574E-04 10080   0.716E-04-0.354E-04
  47 F= -.37692944E+03 E0= -.37692944E+03  d E =0.773406E-02  mag=    12.0000
       N       E                     dE             d eps       ncg     rms          ort
SDA:   1    -0.376189547611E+03    0.73989E+00    0.00000E+00 10080   0.197E+01 0.000E+00
CGA:   2    -0.376720899483E+03   -0.53135E+00   -0.53126E+00 10080   0.596E+00 0.979E-02
CGA:   3    -0.376871926403E+03   -0.15103E+00   -0.15101E+00 10080   0.129E+00-0.194E-02
CGA:   4    -0.376893534051E+03   -0.21608E-01   -0.21442E-01 10080   0.314E-01-0.179E-02
CGA:   5    -0.376899502995E+03   -0.59689E-02   -0.59500E-02 10080   0.827E-02-0.300E-03
CGA:   6    -0.376901195349E+03   -0.16924E-02   -0.17015E-02 10080   0.296E-02 0.197E-03
CGA:   7    -0.376902028549E+03   -0.83320E-03   -0.83445E-03 10080   0.140E-02-0.522E-04
CGA:   8    -0.376902472482E+03   -0.44393E-03   -0.44645E-03 10080   0.803E-03-0.345E-04
CGA:   9    -0.376902696918E+03   -0.22444E-03   -0.22418E-03 10080   0.288E-03 0.846E-05
CGA:  10    -0.376902796496E+03   -0.99578E-04   -0.10919E-03 10080   0.156E-03-0.822E-04
CGA:  11    -0.376902818686E+03   -0.22191E-04   -0.23216E-04 10080   0.507E-04 0.184E-04
CGA:  12    -0.376902827363E+03   -0.86766E-05   -0.99772E-05 10080   0.195E-04 0.154E-04
  48 F= -.37690283E+03 E0= -.37690283E+03  d E =0.266170E-01  mag=    12.0000
       N       E                     dE             d eps       ncg     rms          ort
SDA:   1    -0.362372296962E+03    0.14531E+02    0.00000E+00 10080   0.394E+02 0.000E+00
CGA:   2    -0.373158922864E+03   -0.10787E+02   -0.10781E+02 10080   0.122E+02 0.159E+00
CGA:   3    -0.376132826793E+03   -0.29739E+01   -0.29742E+01 10080   0.277E+01 0.602E-02
CGA:   4    -0.376596813560E+03   -0.46399E+00   -0.46219E+00 10080   0.620E+00-0.145E-01
CGA:   5    -0.376719576677E+03   -0.12276E+00   -0.12272E+00 10080   0.180E+00-0.117E-02
CGA:   6    -0.376756426113E+03   -0.36849E-01   -0.36957E-01 10080   0.641E-01 0.240E-02
CGA:   7    -0.376774573829E+03   -0.18148E-01   -0.18220E-01 10080   0.298E-01-0.214E-02
CGA:   8    -0.376783502667E+03   -0.89288E-02   -0.89768E-02 10080   0.159E-01-0.757E-03
CGA:   9    -0.376787850159E+03   -0.43475E-02   -0.43438E-02 10080   0.548E-02 0.128E-03
CGA:  10    -0.376789715607E+03   -0.18654E-02   -0.20030E-02 10080   0.285E-02-0.126E-02
CGA:  11    -0.376790218255E+03   -0.50265E-03   -0.50928E-03 10080   0.905E-03 0.251E-03
CGA:  12    -0.376790465965E+03   -0.24771E-03   -0.24829E-03 10080   0.395E-03 0.120E-03
CGA:  13    -0.376790627518E+03   -0.16155E-03   -0.18953E-03 10080   0.354E-03-0.168E-03
CGA:  14    -0.376790629569E+03   -0.20509E-05   -0.19931E-04 10080   0.243E-03 0.107E-03
CGA:  15    -0.376790632946E+03   -0.33768E-05   -0.28652E-04 10080   0.102E-03 0.152E-03
CGA:  16    -0.376790672895E+03   -0.39949E-04   -0.40904E-04 10080   0.164E-04-0.628E-05
CGA:  17    -0.376790671895E+03    0.99951E-06   -0.11685E-05 10080   0.102E-04 0.120E-04
  49 F= -.37679067E+03 E0= -.37679067E+03  d E =0.112155E+00  mag=    12.0000
       N       E                     dE             d eps       ncg     rms          ort
SDA:   1    -0.375373827592E+03    0.14168E+01    0.00000E+00 10080   0.370E+01 0.000E+00
CGA:   2    -0.376415152992E+03   -0.10413E+01   -0.10419E+01 10080   0.144E+01-0.155E-01
CGA:   3    -0.376701885981E+03   -0.28673E+00   -0.28694E+00 10080   0.421E+00 0.260E-02
CGA:   4    -0.376776738435E+03   -0.74852E-01   -0.74889E-01 10080   0.995E-01 0.721E-03
CGA:   5    -0.376794588854E+03   -0.17850E-01   -0.17867E-01 10080   0.269E-01 0.317E-03
CGA:   6    -0.376800254532E+03   -0.56657E-02   -0.56755E-02 10080   0.837E-02 0.436E-03
CGA:   7    -0.376802571670E+03   -0.23171E-02   -0.23257E-02 10080   0.393E-02-0.206E-03
CGA:   8    -0.376803588190E+03   -0.10165E-02   -0.10230E-02 10080   0.163E-02-0.195E-03
CGA:   9    -0.376803964396E+03   -0.37621E-03   -0.37481E-03 10080   0.465E-03 0.194E-03
CGA:  10    -0.376804096421E+03   -0.13202E-03   -0.13079E-03 10080   0.159E-03 0.791E-04
CGA:  11    -0.376804156179E+03   -0.59758E-04   -0.61131E-04 10080   0.817E-04-0.149E-04
CGA:  12    -0.376804168476E+03   -0.12297E-04   -0.13826E-04 10080   0.336E-04 0.281E-04
CGA:  13    -0.376804175319E+03   -0.68429E-05   -0.78661E-05 10080   0.157E-04 0.159E-04
CGA:  14    -0.376804183731E+03   -0.84114E-05   -0.10452E-04 10080   0.212E-04-0.943E-05
  50 F= -.37680418E+03 E0= -.37680418E+03  d E =-.135118E-01  mag=    12.0000
       N       E                     dE             d eps       ncg     rms          ort
SDA:   1    -0.371836146536E+03    0.49680E+01    0.00000E+00 10080   0.130E+02 0.000E+00
CGA:   2    -0.375716403919E+03   -0.38803E+01   -0.38792E+01 10080   0.414E+01-0.600E-03
CGA:   3    -0.376673176576E+03   -0.95677E+00   -0.95695E+00 10080   0.875E+00 0.120E-01
CGA:   4    -0.376817277662E+03   -0.14410E+00   -0.14410E+00 10080   0.209E+00-0.595E-03
CGA:   5    -0.376857687350E+03   -0.40410E-01   -0.40385E-01 10080   0.575E-01-0.590E-03
CGA:   6    -0.376869673982E+03   -0.11987E-01   -0.11987E-01 10080   0.202E-01-0.117E-06
CGA:   7    -0.376875259735E+03   -0.55858E-02   -0.56379E-02 10080   0.948E-02-0.123E-02
CGA:   8    -0.376878050224E+03   -0.27905E-02   -0.28693E-02 10080   0.548E-02-0.937E-03
CGA:   9    -0.376879411942E+03   -0.13617E-02   -0.13679E-02 10080   0.187E-02-0.180E-03
CGA:  10    -0.376879997616E+03   -0.58567E-03   -0.63263E-03 10080   0.876E-03-0.443E-03
CGA:  11    -0.376880176673E+03   -0.17906E-03   -0.17954E-03 10080   0.288E-03-0.255E-04
CGA:  12    -0.376880255424E+03   -0.78751E-04   -0.77889E-04 10080   0.115E-03 0.303E-04
CGA:  13    -0.376880301352E+03   -0.45928E-04   -0.48038E-04 10080   0.683E-04-0.171E-04
CGA:  14    -0.376880305071E+03   -0.37187E-05   -0.77339E-05 10080   0.353E-04 0.320E-04
  51 F= -.37688031E+03 E0= -.37688031E+03  d E =-.761213E-01  mag=    12.0000
       N       E                     dE             d eps       ncg     rms          ort
SDA:   1    -0.376452412614E+03    0.42789E+00    0.00000E+00 10080   0.107E+01 0.000E+00
CGA:   2    -0.376764129977E+03   -0.31172E+00   -0.31141E+00 10080   0.369E+00 0.620E-02
CGA:   3    -0.376846338280E+03   -0.82208E-01   -0.82199E-01 10080   0.953E-01-0.498E-03
CGA:   4    -0.376861446209E+03   -0.15108E-01   -0.15055E-01 10080   0.203E-01-0.644E-03
CGA:   5    -0.376865331912E+03   -0.38857E-02   -0.38772E-02 10080   0.580E-02-0.180E-03
CGA:   6    -0.376866477099E+03   -0.11452E-02   -0.11489E-02 10080   0.177E-02 0.964E-04
CGA:   7    -0.376866907699E+03   -0.43060E-03   -0.43022E-03 10080   0.664E-03 0.145E-03
CGA:   8    -0.376867096678E+03   -0.18898E-03   -0.18681E-03 10080   0.295E-03 0.925E-04
CGA:   9    -0.376867204002E+03   -0.10732E-03   -0.10586E-03 10080   0.136E-03 0.190E-04
CGA:  10    -0.376867251017E+03   -0.47015E-04   -0.47795E-04 10080   0.606E-04-0.876E-05
CGA:  11    -0.376867265152E+03   -0.14135E-04   -0.14114E-04 10080   0.179E-04 0.803E-05
CGA:  12    -0.376867271093E+03   -0.59405E-05   -0.58572E-05 10080   0.763E-05 0.197E-05
  52 F= -.37686727E+03 E0= -.37686727E+03  d E =0.130340E-01  mag=    12.0000
       N       E                     dE             d eps       ncg     rms          ort
SDA:   1    -0.375968852512E+03    0.89841E+00    0.00000E+00 10080   0.226E+01 0.000E+00
CGA:   2    -0.376645549633E+03   -0.67670E+00   -0.67637E+00 10080   0.789E+00 0.532E-02
CGA:   3    -0.376815579918E+03   -0.17003E+00   -0.17000E+00 10080   0.193E+00-0.119E-02
CGA:   4    -0.376845979649E+03   -0.30400E-01   -0.30264E-01 10080   0.416E-01-0.154E-02
CGA:   5    -0.376853819944E+03   -0.78403E-02   -0.78208E-02 10080   0.118E-01-0.356E-03
CGA:   6    -0.376856129911E+03   -0.23100E-02   -0.23200E-02 10080   0.339E-02 0.228E-03
CGA:   7    -0.376857020854E+03   -0.89094E-03   -0.89132E-03 10080   0.146E-02-0.219E-04
CGA:   8    -0.376857453516E+03   -0.43266E-03   -0.43837E-03 10080   0.799E-03-0.936E-04
CGA:   9    -0.376857665473E+03   -0.21196E-03   -0.21068E-03 10080   0.284E-03 0.342E-04
CGA:  10    -0.376857759923E+03   -0.94450E-04   -0.96524E-04 10080   0.118E-03-0.262E-04
CGA:  11    -0.376857795112E+03   -0.35189E-04   -0.37704E-04 10080   0.542E-04-0.246E-04
CGA:  12    -0.376857803717E+03   -0.86052E-05   -0.91378E-05 10080   0.198E-04 0.126E-04
  53 F= -.37685780E+03 E0= -.37685780E+03  d E =0.946738E-02  mag=    12.0000
       N       E                     dE             d eps       ncg     rms          ort
SDA:   1    -0.372777762665E+03    0.40800E+01    0.00000E+00 10080   0.102E+02 0.000E+00
CGA:   2    -0.375896278035E+03   -0.31185E+01   -0.31175E+01 10080   0.342E+01 0.117E-01
CGA:   3    -0.376649640654E+03   -0.75336E+00   -0.75346E+00 10080   0.758E+00-0.536E-03
CGA:   4    -0.376772071667E+03   -0.12243E+00   -0.12186E+00 10080   0.171E+00-0.584E-02
CGA:   5    -0.376805002953E+03   -0.32931E-01   -0.32880E-01 10080   0.477E-01-0.989E-03
CGA:   6    -0.376814392478E+03   -0.93895E-02   -0.94463E-02 10080   0.145E-01 0.125E-02
CGA:   7    -0.376818479607E+03   -0.40871E-02   -0.41093E-02 10080   0.674E-02-0.631E-03
CGA:   8    -0.376820482672E+03   -0.20031E-02   -0.20446E-02 10080   0.389E-02-0.563E-03
CGA:   9    -0.376821447055E+03   -0.96438E-03   -0.96023E-03 10080   0.129E-02 0.187E-03
CGA:  10    -0.376821904750E+03   -0.45770E-03   -0.49704E-03 10080   0.717E-03-0.328E-03
CGA:  11    -0.376822038882E+03   -0.13413E-03   -0.13415E-03 10080   0.248E-03 0.545E-05
CGA:  12    -0.376822091958E+03   -0.53076E-04   -0.54845E-04 10080   0.993E-04 0.508E-04
CGA:  13    -0.376822125369E+03   -0.33412E-04   -0.33202E-04 10080   0.471E-04 0.825E-05
CGA:  14    -0.376822132450E+03   -0.70809E-05   -0.89309E-05 10080   0.229E-04 0.235E-04
  54 F= -.37682213E+03 E0= -.37682213E+03  d E =0.356713E-01  mag=    12.0000
       N       E                     dE             d eps       ncg     rms          ort
SDA:   1    -0.375926068978E+03    0.89606E+00    0.00000E+00 10080   0.234E+01 0.000E+00
CGA:   2    -0.376632403862E+03   -0.70633E+00   -0.70655E+00 10080   0.781E+00-0.527E-02
CGA:   3    -0.376803830417E+03   -0.17143E+00   -0.17150E+00 10080   0.181E+00 0.269E-02
CGA:   4    -0.376832569351E+03   -0.28739E-01   -0.28848E-01 10080   0.405E-01 0.111E-02
CGA:   5    -0.376840431207E+03   -0.78619E-02   -0.78634E-02 10080   0.111E-01 0.195E-04
CGA:   6    -0.376842838440E+03   -0.24072E-02   -0.24006E-02 10080   0.383E-02-0.280E-03
CGA:   7    -0.376843820746E+03   -0.98231E-03   -0.98603E-03 10080   0.165E-02-0.145E-03
CGA:   8    -0.376844298020E+03   -0.47727E-03   -0.48560E-03 10080   0.872E-03-0.124E-03
CGA:   9    -0.376844554976E+03   -0.25696E-03   -0.27082E-03 10080   0.407E-03-0.149E-03
CGA:  10    -0.376844655316E+03   -0.10034E-03   -0.10370E-03 10080   0.143E-03-0.560E-04
CGA:  11    -0.376844695536E+03   -0.40219E-04   -0.42974E-04 10080   0.597E-04-0.284E-04
CGA:  12    -0.376844712177E+03   -0.16641E-04   -0.16908E-04 10080   0.243E-04-0.276E-05
CGA:  13    -0.376844719684E+03   -0.75073E-05   -0.73679E-05 10080   0.803E-05 0.238E-05
  55 F= -.37684472E+03 E0= -.37684472E+03  d E =-.225872E-01  mag=    12.0000
       N       E                     dE             d eps       ncg     rms          ort
SDA:   1    -0.376790352076E+03    0.54360E-01    0.00000E+00 10080   0.152E+00 0.000E+00
CGA:   2    -0.376828733409E+03   -0.38381E-01   -0.38376E-01 10080   0.675E-01-0.837E-03
CGA:   3    -0.376842097511E+03   -0.13364E-01   -0.13378E-01 10080   0.200E-01 0.206E-03
CGA:   4    -0.376845490922E+03   -0.33934E-02   -0.34361E-02 10080   0.468E-02 0.499E-03
CGA:   5    -0.376846321917E+03   -0.83099E-03   -0.84722E-03 10080   0.114E-02 0.215E-03
CGA:   6    -0.376846597036E+03   -0.27512E-03   -0.27397E-03 10080   0.405E-03-0.609E-04
CGA:   7    -0.376846700276E+03   -0.10324E-03   -0.10450E-03 10080   0.189E-03-0.490E-04
CGA:   8    -0.376846729847E+03   -0.29570E-04   -0.31464E-04 10080   0.534E-04 0.321E-04
CGA:   9    -0.376846740900E+03   -0.11053E-04   -0.11988E-04 10080   0.202E-04 0.175E-04
CGA:  10    -0.376846749609E+03   -0.87084E-05   -0.10055E-04 10080   0.201E-04-0.101E-04
  56 F= -.37684675E+03 E0= -.37684675E+03  d E =-.202992E-02  mag=    12.0000
       N       E                     dE             d eps       ncg     rms          ort
SDA:   1    -0.376772946346E+03    0.73795E-01    0.00000E+00 10080   0.181E+00 0.000E+00
CGA:   2    -0.376827094236E+03   -0.54148E-01   -0.54034E-01 10080   0.568E-01 0.211E-02
CGA:   3    -0.376840758876E+03   -0.13665E-01   -0.13656E-01 10080   0.119E-01-0.734E-03
CGA:   4    -0.376842717677E+03   -0.19588E-02   -0.19246E-02 10080   0.313E-02-0.404E-03
CGA:   5    -0.376843275640E+03   -0.55796E-03   -0.55581E-03 10080   0.802E-03-0.358E-04
CGA:   6    -0.376843413442E+03   -0.13780E-03   -0.14286E-03 10080   0.229E-03 0.823E-04
CGA:   7    -0.376843478821E+03   -0.65379E-04   -0.65182E-04 10080   0.102E-03 0.994E-05
CGA:   8    -0.376843509946E+03   -0.31125E-04   -0.30895E-04 10080   0.579E-04 0.448E-05
CGA:   9    -0.376843521707E+03   -0.11762E-04   -0.12457E-04 10080   0.209E-04 0.194E-04
CGA:  10    -0.376843529329E+03   -0.76216E-05   -0.75520E-05 10080   0.106E-04 0.226E-05
CGA:  11    -0.376843514951E+03    0.14378E-04   -0.12798E-04 10080   0.101E-03-0.322E-04
CGA:  12    -0.376843524906E+03   -0.99543E-05   -0.14445E-04 10080   0.169E-04 0.317E-04
  57 F= -.37684352E+03 E0= -.37684352E+03  d E =0.322470E-02  mag=    12.0000
       N       E                     dE             d eps       ncg     rms          ort
SDA:   1    -0.376755535048E+03    0.87980E-01    0.00000E+00 10080   0.229E+00 0.000E+00
CGA:   2    -0.376815620810E+03   -0.60086E-01   -0.60107E-01 10080   0.852E-01 0.226E-02
CGA:   3    -0.376834447416E+03   -0.18827E-01   -0.18799E-01 10080   0.257E-01-0.557E-03
CGA:   4    -0.376838524894E+03   -0.40775E-02   -0.40301E-02 10080   0.527E-02-0.440E-03
CGA:   5    -0.376839492056E+03   -0.96716E-03   -0.95656E-03 10080   0.148E-02-0.138E-03
CGA:   6    -0.376839791692E+03   -0.29964E-03   -0.29922E-03 10080   0.433E-03-0.838E-05
CGA:   7    -0.376839888366E+03   -0.96674E-04   -0.97552E-04 10080   0.157E-03 0.296E-04
CGA:   8    -0.376839931857E+03   -0.43490E-04   -0.43411E-04 10080   0.660E-04 0.173E-04
CGA:   9    -0.376839957774E+03   -0.25918E-04   -0.26518E-04 10080   0.404E-04-0.563E-05
CGA:  10    -0.376839969781E+03   -0.12006E-04   -0.12455E-04 10080   0.190E-04-0.585E-05
CGA:  11    -0.376839974183E+03   -0.44024E-05   -0.44000E-05 10080   0.611E-05 0.400E-06
  58 F= -.37683997E+03 E0= -.37683997E+03  d E =0.355072E-02  mag=    12.0000
       N       E                     dE             d eps       ncg     rms          ort
SDA:   1    -0.376238959677E+03    0.60101E+00    0.00000E+00 10080   0.159E+01 0.000E+00
CGA:   2    -0.376684377722E+03   -0.44542E+00   -0.44532E+00 10080   0.469E+00 0.593E-02
CGA:   3    -0.376806864073E+03   -0.12249E+00   -0.12247E+00 10080   0.733E-01-0.188E-02
CGA:   4    -0.376821561130E+03   -0.14697E-01   -0.14610E-01 10080   0.200E-01-0.131E-02
CGA:   5    -0.376825081069E+03   -0.35199E-02   -0.35277E-02 10080   0.508E-02 0.860E-04
CGA:   6    -0.376826263434E+03   -0.11824E-02   -0.11844E-02 10080   0.202E-02 0.712E-04
CGA:   7    -0.376826839561E+03   -0.57613E-03   -0.58066E-03 10080   0.115E-02-0.187E-03
CGA:   8    -0.376827153518E+03   -0.31396E-03   -0.31270E-03 10080   0.511E-03 0.325E-04
CGA:   9    -0.376827317962E+03   -0.16444E-03   -0.16688E-03 10080   0.227E-03-0.439E-04
CGA:  10    -0.376827386825E+03   -0.68863E-04   -0.90949E-04 10080   0.191E-03-0.128E-03
CGA:  11    -0.376827402809E+03   -0.15984E-04   -0.25146E-04 10080   0.347E-04 0.646E-04
CGA:  12    -0.376827406732E+03   -0.39234E-05   -0.63829E-05 10080   0.144E-04 0.190E-04
  59 F= -.37682741E+03 E0= -.37682741E+03  d E =0.125675E-01  mag=    12.0000
       N       E                     dE             d eps       ncg     rms          ort
SDA:   1    -0.375439041792E+03    0.13884E+01    0.00000E+00 10080   0.383E+01 0.000E+00
CGA:   2    -0.376436417927E+03   -0.99738E+00   -0.99737E+00 10080   0.127E+01 0.119E-01
CGA:   3    -0.376728782212E+03   -0.29236E+00   -0.29230E+00 10080   0.365E+00-0.231E-02
CGA:   4    -0.376786038888E+03   -0.57257E-01   -0.57121E-01 10080   0.760E-01-0.166E-02
CGA:   5    -0.376800337127E+03   -0.14298E-01   -0.14265E-01 10080   0.213E-01-0.542E-03
CGA:   6    -0.376804707987E+03   -0.43709E-02   -0.43717E-02 10080   0.680E-02 0.167E-04
CGA:   7    -0.376806495614E+03   -0.17876E-02   -0.17874E-02 10080   0.307E-02 0.147E-04
CGA:   8    -0.376807408023E+03   -0.91241E-03   -0.91433E-03 10080   0.161E-02-0.408E-04
CGA:   9    -0.376807918999E+03   -0.51098E-03   -0.51661E-03 10080   0.722E-03-0.772E-04
CGA:  10    -0.376808138525E+03   -0.21953E-03   -0.22583E-03 10080   0.291E-03-0.856E-04
CGA:  11    -0.376808215816E+03   -0.77290E-04   -0.78037E-04 10080   0.947E-04-0.164E-04
CGA:  12    -0.376808244254E+03   -0.28439E-04   -0.28271E-04 10080   0.337E-04 0.296E-05
CGA:  13    -0.376808251939E+03   -0.76852E-05   -0.80719E-05 10080   0.119E-04 0.123E-04
  60 F= -.37680825E+03 E0= -.37680825E+03  d E =0.191548E-01  mag=    12.0000
       N       E                     dE             d eps       ncg     rms          ort
SDA:   1    -0.376363092218E+03    0.44515E+00    0.00000E+00 10080   0.106E+01 0.000E+00
CGA:   2    -0.376695439892E+03   -0.33235E+00   -0.33222E+00 10080   0.396E+00 0.194E-02
CGA:   3    -0.376772476454E+03   -0.77037E-01   -0.77111E-01 10080   0.114E+00 0.974E-03
CGA:   4    -0.376791863251E+03   -0.19387E-01   -0.19403E-01 10080   0.246E-01 0.143E-03
CGA:   5    -0.376796389838E+03   -0.45266E-02   -0.45111E-02 10080   0.651E-02-0.227E-03
CGA:   6    -0.376797764240E+03   -0.13744E-02   -0.13739E-02 10080   0.211E-02-0.130E-04
CGA:   7    -0.376798259688E+03   -0.49545E-03   -0.49726E-03 10080   0.733E-03 0.153E-03
CGA:   8    -0.376798470456E+03   -0.21077E-03   -0.20985E-03 10080   0.294E-03 0.475E-04
CGA:   9    -0.376798565254E+03   -0.94799E-04   -0.94762E-04 10080   0.117E-03 0.721E-06
CGA:  10    -0.376798599105E+03   -0.33851E-04   -0.33707E-04 10080   0.372E-04 0.395E-05
CGA:  11    -0.376798532482E+03    0.66623E-04   -0.47756E-04 10080   0.445E-03-0.116E-03
CGA:  12    -0.376798602627E+03   -0.70144E-04   -0.79220E-04 10080   0.471E-04 0.728E-04
CGA:  13    -0.376798620118E+03   -0.17492E-04   -0.17590E-04 10080   0.144E-04-0.399E-05
CGA:  14    -0.376798622961E+03   -0.28429E-05   -0.31218E-05 10080   0.529E-05 0.457E-05
  61 F= -.37679862E+03 E0= -.37679862E+03  d E =0.962898E-02  mag=    12.0000
       N       E                     dE             d eps       ncg     rms          ort
SDA:   1    -0.376080016880E+03    0.71860E+00    0.00000E+00 10080   0.206E+01 0.000E+00
CGA:   2    -0.376615429218E+03   -0.53541E+00   -0.53532E+00 10080   0.696E+00-0.477E-02
CGA:   3    -0.376772984265E+03   -0.15756E+00   -0.15756E+00 10080   0.213E+00-0.118E-03
CGA:   4    -0.376806559179E+03   -0.33575E-01   -0.33655E-01 10080   0.434E-01 0.549E-03
CGA:   5    -0.376814657773E+03   -0.80986E-02   -0.81275E-02 10080   0.118E-01 0.287E-03
CGA:   6    -0.376817165577E+03   -0.25078E-02   -0.25070E-02 10080   0.389E-02-0.129E-04
CGA:   7    -0.376818250775E+03   -0.10852E-02   -0.10861E-02 10080   0.192E-02-0.241E-03
CGA:   8    -0.376818782786E+03   -0.53201E-03   -0.53523E-03 10080   0.995E-03-0.148E-03
CGA:   9    -0.376819052824E+03   -0.27004E-03   -0.27035E-03 10080   0.372E-03-0.178E-04
CGA:  10    -0.376819161712E+03   -0.10889E-03   -0.10897E-03 10080   0.130E-03-0.427E-05
CGA:  11    -0.376819194976E+03   -0.33264E-04   -0.33582E-04 10080   0.391E-04 0.184E-04
CGA:  12    -0.376819210483E+03   -0.15507E-04   -0.15585E-04 10080   0.196E-04-0.112E-05
CGA:  13    -0.376819217651E+03   -0.71676E-05   -0.74005E-05 10080   0.977E-05-0.219E-05
  62 F= -.37681922E+03 E0= -.37681922E+03  d E =-.205947E-01  mag=    12.0000
       N       E                     dE             d eps       ncg     rms          ort
SDA:   1    -0.376771892195E+03    0.47318E-01    0.00000E+00 10080   0.125E+00 0.000E+00
CGA:   2    -0.376802738727E+03   -0.30847E-01   -0.30874E-01 10080   0.461E-01 0.770E-03
CGA:   3    -0.376813063640E+03   -0.10325E-01   -0.10304E-01 10080   0.153E-01-0.399E-03
CGA:   4    -0.376815573908E+03   -0.25103E-02   -0.24720E-02 10080   0.326E-02-0.346E-03
CGA:   5    -0.376816158883E+03   -0.58498E-03   -0.58024E-03 10080   0.889E-03-0.552E-04
CGA:   6    -0.376816336627E+03   -0.17774E-03   -0.17899E-03 10080   0.255E-03 0.206E-04
CGA:   7    -0.376816411764E+03   -0.75138E-04   -0.76377E-04 10080   0.142E-03-0.406E-04
CGA:   8    -0.376816446990E+03   -0.35225E-04   -0.36614E-04 10080   0.790E-04-0.317E-04
CGA:   9    -0.376816464777E+03   -0.17788E-04   -0.18053E-04 10080   0.319E-04-0.923E-05
CGA:  10    -0.376816473693E+03   -0.89153E-05   -0.92422E-05 10080   0.139E-04-0.538E-05
  63 F= -.37681647E+03 E0= -.37681647E+03  d E =0.274396E-02  mag=    12.0000
       N       E                     dE             d eps       ncg     rms          ort
SDA:   1    -0.376805537923E+03    0.10927E-01    0.00000E+00 10080   0.249E-01 0.000E+00
CGA:   2    -0.376813812027E+03   -0.82741E-02   -0.82701E-02 10080   0.964E-02 0.555E-04
CGA:   3    -0.376815506170E+03   -0.16941E-02   -0.17048E-02 10080   0.217E-02 0.111E-03
CGA:   4    -0.376815859107E+03   -0.35294E-03   -0.36262E-03 10080   0.487E-03 0.978E-04
CGA:   5    -0.376815951913E+03   -0.92806E-04   -0.93456E-04 10080   0.133E-03 0.854E-05
CGA:   6    -0.376815989738E+03   -0.37825E-04   -0.39563E-04 10080   0.800E-04-0.454E-04
CGA:   7    -0.376815998226E+03   -0.84887E-05   -0.89342E-05 10080   0.272E-04 0.512E-05
  64 F= -.37681600E+03 E0= -.37681600E+03  d E =0.475466E-03  mag=    12.0000
       N       E                     dE             d eps       ncg     rms          ort
SDA:   1    -0.376808780170E+03    0.72096E-02    0.00000E+00 10080   0.172E-01 0.000E+00
CGA:   2    -0.376813271740E+03   -0.44916E-02   -0.44860E-02 10080   0.741E-02 0.393E-03
CGA:   3    -0.376814755196E+03   -0.14835E-02   -0.14870E-02 10080   0.201E-02 0.655E-04
CGA:   4    -0.376815094050E+03   -0.33885E-03   -0.33973E-03 10080   0.453E-03 0.109E-04
CGA:   5    -0.376815181283E+03   -0.87233E-04   -0.86801E-04 10080   0.125E-03-0.873E-05
CGA:   6    -0.376815210251E+03   -0.28968E-04   -0.28905E-04 10080   0.484E-04-0.194E-04
CGA:   7    -0.376815217115E+03   -0.68643E-05   -0.72452E-05 10080   0.130E-04 0.622E-05
  65 F= -.37681522E+03 E0= -.37681522E+03  d E =0.781111E-03  mag=    12.0000
