       N       E                     dE             d eps       ncg     rms          rms(c)
DAV:   1     0.255454896994E+04    0.25545E+04   -0.12678E+05 40504   0.159E+03
DAV:   2    -0.113962717738E+02   -0.25659E+04   -0.23577E+04 41176   0.436E+02
DAV:   3    -0.304285413260E+03   -0.29289E+03   -0.28774E+03 43032   0.162E+02
DAV:   4    -0.313332455712E+03   -0.90470E+01   -0.89579E+01 50400   0.287E+01
DAV:   5    -0.313688261629E+03   -0.35581E+00   -0.35525E+00 58432   0.447E+00    0.837E+01
DAV:   6    -0.288140591879E+03    0.25548E+02   -0.31488E+02 50704   0.778E+01    0.118E+02
DAV:   7    -0.267886984987E+03    0.20254E+02   -0.17875E+02 41912   0.117E+02    0.357E+01
DAV:   8    -0.261442895486E+03    0.64441E+01   -0.21908E+01 50376   0.218E+01    0.133E+01
DAV:   9    -0.260591905116E+03    0.85099E+00   -0.39348E+00 50960   0.941E+00    0.443E+00
DAV:  10    -0.260681407401E+03   -0.89502E-01   -0.97625E-01 44520   0.377E+00    0.283E+00
DAV:  11    -0.260676241521E+03    0.51659E-02   -0.92498E-02 42640   0.217E+00    0.199E+00
DAV:  12    -0.260672400824E+03    0.38407E-02   -0.46836E-02 51520   0.148E+00    0.114E+00
DAV:  13    -0.260673680180E+03   -0.12794E-02   -0.30317E-02 44320   0.104E+00    0.467E-01
DAV:  14    -0.260672893116E+03    0.78706E-03   -0.63792E-03 46160   0.526E-01    0.244E-01
DAV:  15    -0.260673153575E+03   -0.26046E-03   -0.25499E-03 44104   0.191E-01    0.124E-01
DAV:  16    -0.260673209669E+03   -0.56095E-04   -0.35474E-04 45368   0.131E-01    0.903E-02
DAV:  17    -0.260673228759E+03   -0.19090E-04   -0.13623E-04 48224   0.713E-02    0.306E-02
DAV:  18    -0.260673251527E+03   -0.22768E-04   -0.50754E-05 38304   0.328E-02    0.211E-02
DAV:  19    -0.260673257253E+03   -0.57257E-05   -0.11005E-05 27480   0.211E-02
   1 F= -.26067326E+03 E0= -.26067326E+03  d E =-.260673E+03  mag=    12.0006
