       N       E                     dE             d eps       ncg     rms          ort
DAV:   1     0.265047098348E+04    0.26505E+04   -0.14503E+05  6048   0.161E+03
DAV:   2    -0.154845979437E+03   -0.28053E+04   -0.26269E+04  6048   0.429E+02
DAV:   3    -0.458179589560E+03   -0.30333E+03   -0.29924E+03  6048   0.157E+02
DAV:   4    -0.468055762742E+03   -0.98762E+01   -0.96961E+01  6048   0.274E+01
DAV:   5    -0.468657163445E+03   -0.60140E+00   -0.59950E+00  6048   0.502E+00
SDA:   6    -0.306916367717E+03    0.16174E+03   -0.59950E+00  6048   0.357E+03 0.000E+00
CGA:   7    -0.356143543322E+03   -0.49227E+02   -0.50766E+02  6048   0.515E+02 0.211E+01
CGA:   8    -0.364732814754E+03   -0.85893E+01   -0.85778E+01  6048   0.124E+02 0.563E-01
CGA:   9    -0.367536175118E+03   -0.28034E+01   -0.28028E+01  6048   0.499E+01 0.150E-01
CGA:  10    -0.368583240776E+03   -0.10471E+01   -0.10469E+01  6048   0.197E+01-0.107E-01
CGA:  11    -0.369047950660E+03   -0.46471E+00   -0.46623E+00  6048   0.676E+00-0.417E-01
CGA:  12    -0.369208973078E+03   -0.16102E+00   -0.16190E+00  6048   0.247E+00-0.199E-01
CGA:  13    -0.369267234031E+03   -0.58261E-01   -0.57954E-01  6048   0.660E-01 0.742E-02
CGA:  14    -0.369285001891E+03   -0.17768E-01   -0.17515E-01  6048   0.224E-01 0.467E-02
CGA:  15    -0.369293053788E+03   -0.80519E-02   -0.86446E-02  6048   0.117E-01-0.386E-02
CGA:  16    -0.369295810121E+03   -0.27563E-02   -0.27411E-02  6048   0.428E-02 0.213E-03
CGA:  17    -0.369297134207E+03   -0.13241E-02   -0.13405E-02  6048   0.171E-02-0.185E-03
CGA:  18    -0.369297493074E+03   -0.35887E-03   -0.10550E-02  6048   0.306E-02-0.165E-02
CGA:  19    -0.369297913015E+03   -0.41994E-03   -0.49960E-03  6048   0.494E-03 0.993E-03
CGA:  20    -0.369298033371E+03   -0.12036E-03   -0.12764E-03  6048   0.145E-03 0.164E-03
CGA:  21    -0.369298136596E+03   -0.10322E-03    0.18086E-03  6048   0.569E-04 0.442E-04
CGA:  22    -0.369298140001E+03   -0.34053E-05   -0.90618E-05  6048   0.357E-04 0.492E-04
   1 F= -.36929814E+03 E0= -.36929814E+03  d E =-.369298E+03  mag=    20.0000
       N       E                     dE             d eps       ncg     rms          ort
SDA:   1    -0.369306513919E+03   -0.83773E-02    0.00000E+00  6048   0.247E-02 0.000E+00
CGA:   2    -0.369307039470E+03   -0.52555E-03   -0.52735E-03  6048   0.714E-03 0.199E-03
CGA:   3    -0.369307218410E+03   -0.17894E-03   -0.17892E-03  6048   0.321E-03 0.158E-05
CGA:   4    -0.369307283517E+03   -0.65107E-04   -0.63887E-04  6048   0.974E-04-0.517E-04
CGA:   5    -0.369307301381E+03   -0.17865E-04   -0.17820E-04  6048   0.376E-04-0.148E-04
CGA:   6    -0.369307303624E+03   -0.22432E-05   -0.37670E-05  6048   0.147E-04 0.148E-04
   2 F= -.36930730E+03 E0= -.36930730E+03  d E =-.916362E-02  mag=    20.0000
       N       E                     dE             d eps       ncg     rms          ort
SDA:   1    -0.367686746256E+03    0.16206E+01    0.00000E+00  6048   0.590E+01 0.000E+00
CGA:   2    -0.369063615641E+03   -0.13769E+01   -0.13764E+01  6048   0.190E+01 0.143E-01
CGA:   3    -0.369472187884E+03   -0.40857E+00   -0.40859E+00  6048   0.738E+00-0.665E-02
CGA:   4    -0.369597848690E+03   -0.12566E+00   -0.12551E+00  6048   0.150E+00-0.381E-02
CGA:   5    -0.369628571406E+03   -0.30723E-01   -0.30725E-01  6048   0.452E-01 0.459E-03
CGA:   6    -0.369638430155E+03   -0.98587E-02   -0.98495E-02  6048   0.174E-01 0.110E-02
CGA:   7    -0.369643566980E+03   -0.51368E-02   -0.51240E-02  6048   0.814E-02 0.164E-03
CGA:   8    -0.369646154663E+03   -0.25877E-02   -0.26395E-02  6048   0.427E-02-0.480E-03
CGA:   9    -0.369647307763E+03   -0.11531E-02   -0.11570E-02  6048   0.151E-02-0.555E-04
CGA:  10    -0.369647741115E+03   -0.43335E-03   -0.42593E-03  6048   0.514E-03 0.116E-03
CGA:  11    -0.369647913053E+03   -0.17194E-03   -0.16758E-03  6048   0.210E-03 0.565E-04
CGA:  12    -0.369647993488E+03   -0.80435E-04   -0.77271E-04  6048   0.905E-04 0.309E-04
CGA:  13    -0.369648034613E+03   -0.41125E-04   -0.59666E-04  6048   0.988E-04-0.545E-04
CGA:  14    -0.369648054036E+03   -0.19423E-04   -0.20287E-04  6048   0.107E-04 0.187E-04
CGA:  15    -0.369648057503E+03   -0.34671E-05   -0.34102E-05  6048   0.342E-05 0.293E-05
   3 F= -.36964806E+03 E0= -.36964806E+03  d E =-.340754E+00  mag=    20.0000
       N       E                     dE             d eps       ncg     rms          ort
SDA:   1    -0.366203392251E+03    0.34447E+01    0.00000E+00  6048   0.116E+02 0.000E+00
CGA:   2    -0.368808995531E+03   -0.26056E+01   -0.26066E+01  6048   0.356E+01 0.329E-02
CGA:   3    -0.369576304431E+03   -0.76731E+00   -0.76702E+00  6048   0.137E+01-0.675E-02
CGA:   4    -0.369808256386E+03   -0.23195E+00   -0.23185E+00  6048   0.280E+00-0.190E-02
CGA:   5    -0.369865627572E+03   -0.57371E-01   -0.57386E-01  6048   0.852E-01 0.280E-03
CGA:   6    -0.369884631779E+03   -0.19004E-01   -0.19038E-01  6048   0.351E-01 0.100E-02
CGA:   7    -0.369895111878E+03   -0.10480E-01   -0.10469E-01  6048   0.177E-01 0.283E-03
CGA:   8    -0.369900780295E+03   -0.56684E-02   -0.56921E-02  6048   0.903E-02-0.389E-03
CGA:   9    -0.369903351075E+03   -0.25708E-02   -0.25713E-02  6048   0.318E-02-0.184E-04
CGA:  10    -0.369904288069E+03   -0.93699E-03   -0.93214E-03  6048   0.106E-02 0.156E-03
CGA:  11    -0.369904632525E+03   -0.34446E-03   -0.34066E-03  6048   0.408E-03 0.881E-04
CGA:  12    -0.369904791604E+03   -0.15908E-03   -0.15634E-03  6048   0.175E-03 0.314E-04
CGA:  13    -0.369904869873E+03   -0.78269E-04   -0.94992E-04  6048   0.128E-03-0.714E-04
CGA:  14    -0.369904889093E+03   -0.19221E-04   -0.19288E-04  6048   0.512E-04 0.248E-05
CGA:  15    -0.369904898026E+03   -0.89329E-05   -0.98430E-05  6048   0.177E-04 0.984E-05
   4 F= -.36990490E+03 E0= -.36990490E+03  d E =-.256841E+00  mag=    20.0000
       N       E                     dE             d eps       ncg     rms          ort
SDA:   1    -0.367247211829E+03    0.26577E+01    0.00000E+00  6048   0.832E+01 0.000E+00
CGA:   2    -0.369201572658E+03   -0.19544E+01   -0.19542E+01  6048   0.274E+01-0.963E-02
CGA:   3    -0.369784845211E+03   -0.58327E+00   -0.58324E+00  6048   0.992E+00-0.104E-02
CGA:   4    -0.369948341021E+03   -0.16350E+00   -0.16368E+00  6048   0.197E+00 0.115E-02
CGA:   5    -0.369988652510E+03   -0.40311E-01   -0.40324E-01  6048   0.592E-01 0.165E-03
CGA:   6    -0.370001827418E+03   -0.13175E-01   -0.13189E-01  6048   0.246E-01 0.380E-03
CGA:   7    -0.370009102682E+03   -0.72753E-02   -0.72719E-02  6048   0.127E-01 0.102E-03
CGA:   8    -0.370013223782E+03   -0.41211E-02   -0.41339E-02  6048   0.680E-02-0.208E-03
CGA:   9    -0.370015181666E+03   -0.19579E-02   -0.19564E-02  6048   0.237E-02 0.528E-04
CGA:  10    -0.370015885107E+03   -0.70344E-03   -0.70092E-03  6048   0.765E-03 0.929E-04
CGA:  11    -0.370016137527E+03   -0.25242E-03   -0.25152E-03  6048   0.299E-03 0.186E-04
CGA:  12    -0.370016246761E+03   -0.10923E-03   -0.10831E-03  6048   0.124E-03 0.109E-04
CGA:  13    -0.370016298924E+03   -0.52164E-04   -0.70959E-04  6048   0.114E-03-0.680E-04
CGA:  14    -0.370016321145E+03   -0.22221E-04   -0.23728E-04  6048   0.115E-04 0.192E-04
CGA:  15    -0.370016325130E+03   -0.39853E-05   -0.93322E-05  6048   0.213E-04-0.130E-04
   5 F= -.37001633E+03 E0= -.37001633E+03  d E =-.111427E+00  mag=    20.0000
       N       E                     dE             d eps       ncg     rms          ort
SDA:   1    -0.365140976707E+03    0.48753E+01    0.00000E+00  6048   0.135E+02 0.000E+00
CGA:   2    -0.368655200129E+03   -0.35142E+01   -0.35139E+01  6048   0.545E+01-0.163E-01
CGA:   3    -0.369700712749E+03   -0.10455E+01   -0.10458E+01  6048   0.169E+01 0.135E-02
CGA:   4    -0.369977660603E+03   -0.27695E+00   -0.27740E+00  6048   0.313E+00 0.271E-02
CGA:   5    -0.370040049815E+03   -0.62389E-01   -0.62393E-01  6048   0.930E-01-0.108E-03
CGA:   6    -0.370060204145E+03   -0.20154E-01   -0.20149E-01  6048   0.338E-01-0.101E-03
CGA:   7    -0.370069623677E+03   -0.94195E-02   -0.94196E-02  6048   0.163E-01-0.167E-04
CGA:   8    -0.370074795546E+03   -0.51719E-02   -0.51767E-02  6048   0.883E-02-0.120E-03
CGA:   9    -0.370077507244E+03   -0.27117E-02   -0.27127E-02  6048   0.344E-02-0.316E-04
CGA:  10    -0.370078575847E+03   -0.10686E-02   -0.10696E-02  6048   0.121E-02-0.312E-04
CGA:  11    -0.370078965409E+03   -0.38956E-03   -0.39103E-03  6048   0.478E-03-0.325E-04
CGA:  12    -0.370079130700E+03   -0.16529E-03   -0.16479E-03  6048   0.196E-03 0.705E-05
CGA:  13    -0.370079211738E+03   -0.81038E-04   -0.87011E-04  6048   0.101E-03-0.398E-04
CGA:  14    -0.370079236188E+03   -0.24450E-04   -0.24407E-04  6048   0.284E-04 0.506E-05
CGA:  15    -0.370079245836E+03   -0.96479E-05   -0.97469E-05  6048   0.969E-05-0.309E-05
   6 F= -.37007925E+03 E0= -.37007925E+03  d E =-.629207E-01  mag=    20.0000
       N       E                     dE             d eps       ncg     rms          ort
SDA:   1    -0.368067793840E+03    0.20114E+01    0.00000E+00  6048   0.519E+01 0.000E+00
CGA:   2    -0.369566009969E+03   -0.14982E+01   -0.14982E+01  6048   0.248E+01-0.301E-02
CGA:   3    -0.369983179501E+03   -0.41717E+00   -0.41753E+00  6048   0.625E+00 0.791E-03
CGA:   4    -0.370089081653E+03   -0.10590E+00   -0.10603E+00  6048   0.121E+00 0.809E-03
CGA:   5    -0.370112292435E+03   -0.23211E-01   -0.23192E-01  6048   0.342E-01-0.224E-03
CGA:   6    -0.370119496806E+03   -0.72044E-02   -0.71918E-02  6048   0.104E-01-0.166E-03
CGA:   7    -0.370122147133E+03   -0.26503E-02   -0.26506E-02  6048   0.419E-02 0.509E-05
CGA:   8    -0.370123393687E+03   -0.12466E-02   -0.12463E-02  6048   0.203E-02 0.229E-04
CGA:   9    -0.370124035001E+03   -0.64131E-03   -0.64144E-03  6048   0.820E-03-0.497E-05
CGA:  10    -0.370124301598E+03   -0.26660E-03   -0.26828E-03  6048   0.315E-03-0.427E-04
CGA:  11    -0.370124403745E+03   -0.10215E-03   -0.10406E-03  6048   0.137E-03-0.333E-04
CGA:  12    -0.370124447188E+03   -0.43444E-04   -0.43358E-04  6048   0.577E-04 0.140E-05
CGA:  13    -0.370124471034E+03   -0.23846E-04   -0.24521E-04  6048   0.296E-04-0.546E-05
CGA:  14    -0.370124480513E+03   -0.94790E-05   -0.94568E-05  6048   0.947E-05 0.437E-06
   7 F= -.37012448E+03 E0= -.37012448E+03  d E =-.452347E-01  mag=    20.0000
       N       E                     dE             d eps       ncg     rms          ort
SDA:   1    -0.368102047513E+03    0.20224E+01    0.00000E+00  6048   0.515E+01 0.000E+00
CGA:   2    -0.369602429302E+03   -0.15004E+01   -0.15005E+01  6048   0.257E+01 0.183E-03
CGA:   3    -0.370021677952E+03   -0.41925E+00   -0.41961E+00  6048   0.596E+00 0.756E-03
CGA:   4    -0.370124489514E+03   -0.10281E+00   -0.10285E+00  6048   0.121E+00 0.486E-04
CGA:   5    -0.370147355437E+03   -0.22866E-01   -0.22861E-01  6048   0.329E-01-0.922E-04
CGA:   6    -0.370154090659E+03   -0.67352E-02   -0.67390E-02  6048   0.923E-02 0.298E-04
CGA:   7    -0.370156365481E+03   -0.22748E-02   -0.22766E-02  6048   0.337E-02 0.361E-04
CGA:   8    -0.370157325923E+03   -0.96044E-03   -0.96056E-03  6048   0.147E-02 0.323E-04
CGA:   9    -0.370157782220E+03   -0.45630E-03   -0.45583E-03  6048   0.561E-03 0.245E-04
CGA:  10    -0.370157960774E+03   -0.17855E-03   -0.17887E-03  6048   0.196E-03-0.129E-04
CGA:  11    -0.370158022148E+03   -0.61375E-04   -0.61684E-04  6048   0.725E-04-0.979E-05
CGA:  12    -0.370158046547E+03   -0.24399E-04   -0.24377E-04  6048   0.325E-04 0.320E-06
CGA:  13    -0.370158060978E+03   -0.14431E-04   -0.15058E-04  6048   0.212E-04-0.378E-05
CGA:  14    -0.370158068382E+03   -0.74043E-05   -0.74859E-05  6048   0.877E-05-0.855E-06
   8 F= -.37015807E+03 E0= -.37015807E+03  d E =-.335879E-01  mag=    20.0000
       N       E                     dE             d eps       ncg     rms          ort
SDA:   1    -0.365440222100E+03    0.47178E+01    0.00000E+00  6048   0.119E+02 0.000E+00
CGA:   2    -0.368910700744E+03   -0.34705E+01   -0.34707E+01  6048   0.606E+01 0.253E-03
CGA:   3    -0.369894054701E+03   -0.98335E+00   -0.98431E+00  6048   0.134E+01 0.382E-02
CGA:   4    -0.370125014154E+03   -0.23096E+00   -0.23101E+00  6048   0.270E+00-0.288E-03
CGA:   5    -0.370176126431E+03   -0.51112E-01   -0.51119E-01  6048   0.737E-01-0.688E-04
CGA:   6    -0.370191186933E+03   -0.15061E-01   -0.15078E-01  6048   0.202E-01 0.141E-03
CGA:   7    -0.370196163171E+03   -0.49762E-02   -0.49792E-02  6048   0.742E-02 0.462E-04
CGA:   8    -0.370198286776E+03   -0.21236E-02   -0.21243E-02  6048   0.328E-02 0.574E-04
CGA:   9    -0.370199313358E+03   -0.10266E-02   -0.10260E-02  6048   0.128E-02 0.428E-04
CGA:  10    -0.370199721906E+03   -0.40855E-03   -0.40915E-03  6048   0.450E-03-0.342E-04
CGA:  11    -0.370199859621E+03   -0.13772E-03   -0.13789E-03  6048   0.161E-03-0.104E-04
CGA:  12    -0.370199918474E+03   -0.58853E-04   -0.59446E-04  6048   0.821E-04-0.748E-05
CGA:  13    -0.370199952036E+03   -0.33562E-04   -0.34028E-04  6048   0.465E-04-0.359E-05
CGA:  14    -0.370199968729E+03   -0.16694E-04   -0.16537E-04  6048   0.171E-04 0.248E-05
CGA:  15    -0.370199976213E+03   -0.74841E-05   -0.10408E-04  6048   0.165E-04-0.110E-04
   9 F= -.37019998E+03 E0= -.37019998E+03  d E =-.419078E-01  mag=    20.0000
       N       E                     dE             d eps       ncg     rms          ort
SDA:   1    -0.360010950344E+03    0.10189E+02    0.00000E+00  6048   0.250E+02 0.000E+00
CGA:   2    -0.367640322661E+03   -0.76294E+01   -0.76296E+01  6048   0.121E+02 0.889E-04
CGA:   3    -0.369595522423E+03   -0.19552E+01   -0.19578E+01  6048   0.269E+01 0.156E-01
CGA:   4    -0.370056226565E+03   -0.46070E+00   -0.46096E+00  6048   0.546E+00-0.341E-04
CGA:   5    -0.370162239568E+03   -0.10601E+00   -0.10594E+00  6048   0.155E+00-0.920E-03
CGA:   6    -0.370194043320E+03   -0.31804E-01   -0.31793E-01  6048   0.434E-01-0.188E-03
CGA:   7    -0.370204881160E+03   -0.10838E-01   -0.10847E-01  6048   0.165E-01 0.182E-03
CGA:   8    -0.370209636750E+03   -0.47556E-02   -0.47565E-02  6048   0.726E-02 0.201E-03
CGA:   9    -0.370211938582E+03   -0.23018E-02   -0.23026E-02  6048   0.281E-02-0.383E-04
CGA:  10    -0.370212822994E+03   -0.88441E-03   -0.88886E-03  6048   0.964E-03-0.173E-03
CGA:  11    -0.370213107061E+03   -0.28407E-03   -0.28511E-03  6048   0.336E-03-0.479E-04
CGA:  12    -0.370213226098E+03   -0.11904E-03   -0.12074E-03  6048   0.167E-03-0.204E-04
CGA:  13    -0.370213290319E+03   -0.64221E-04   -0.63767E-04  6048   0.844E-04 0.409E-05
CGA:  14    -0.370213323013E+03   -0.32694E-04   -0.32200E-04  6048   0.319E-04 0.717E-05
CGA:  15    -0.370213338315E+03   -0.15302E-04   -0.17723E-04  6048   0.210E-04-0.119E-04
CGA:  16    -0.370213342768E+03   -0.44533E-05   -0.44825E-05  6048   0.818E-05-0.131E-05
  10 F= -.37021334E+03 E0= -.37021334E+03  d E =-.133666E-01  mag=    20.0000
       N       E                     dE             d eps       ncg     rms          ort
SDA:   1    -0.369407627704E+03    0.80571E+00    0.00000E+00  6048   0.212E+01 0.000E+00
CGA:   2    -0.370043180302E+03   -0.63555E+00   -0.63557E+00  6048   0.872E+00-0.648E-03
CGA:   3    -0.370195601215E+03   -0.15242E+00   -0.15273E+00  6048   0.250E+00 0.166E-02
CGA:   4    -0.370238446636E+03   -0.42845E-01   -0.42888E-01  6048   0.507E-01 0.240E-03
CGA:   5    -0.370248688707E+03   -0.10242E-01   -0.10200E-01  6048   0.152E-01-0.430E-03
CGA:   6    -0.370251918089E+03   -0.32294E-02   -0.32186E-02  6048   0.504E-02-0.133E-03
CGA:   7    -0.370253173868E+03   -0.12558E-02   -0.12607E-02  6048   0.186E-02 0.117E-03
CGA:   8    -0.370253698890E+03   -0.52502E-03   -0.52665E-03  6048   0.774E-03 0.102E-03
CGA:   9    -0.370253954388E+03   -0.25550E-03   -0.25608E-03  6048   0.297E-03-0.260E-04
CGA:  10    -0.370254051859E+03   -0.97471E-04   -0.10030E-03  6048   0.127E-03-0.497E-04
CGA:  11    -0.370254082004E+03   -0.30145E-04   -0.30121E-04  6048   0.413E-04-0.257E-05
CGA:  12    -0.370254095423E+03   -0.13419E-04   -0.13371E-04  6048   0.187E-04 0.132E-05
CGA:  13    -0.370254103049E+03   -0.76265E-05   -0.76288E-05  6048   0.108E-04-0.333E-07
  11 F= -.37025410E+03 E0= -.37025410E+03  d E =-.407603E-01  mag=    20.0000
       N       E                     dE             d eps       ncg     rms          ort
SDA:   1    -0.370147293831E+03    0.10680E+00    0.00000E+00  6048   0.303E+00 0.000E+00
CGA:   2    -0.370226841068E+03   -0.79547E-01   -0.79536E-01  6048   0.156E+00-0.451E-03
CGA:   3    -0.370252702236E+03   -0.25861E-01   -0.25914E-01  6048   0.388E-01 0.275E-03
CGA:   4    -0.370259764762E+03   -0.70625E-02   -0.70835E-02  6048   0.843E-02 0.173E-03
CGA:   5    -0.370261251921E+03   -0.14872E-02   -0.15027E-02  6048   0.207E-02 0.137E-03
CGA:   6    -0.370261686326E+03   -0.43441E-03   -0.44076E-03  6048   0.617E-03 0.860E-04
CGA:   7    -0.370261844998E+03   -0.15867E-03   -0.15911E-03  6048   0.229E-03 0.137E-04
CGA:   8    -0.370261913712E+03   -0.68714E-04   -0.68741E-04  6048   0.104E-03-0.179E-05
CGA:   9    -0.370261945526E+03   -0.31814E-04   -0.31911E-04  6048   0.393E-04-0.329E-05
CGA:  10    -0.370261955004E+03   -0.94777E-05   -0.96195E-05  6048   0.113E-04 0.529E-05
  12 F= -.37026196E+03 E0= -.37026196E+03  d E =-.785195E-02  mag=    20.0000
       N       E                     dE             d eps       ncg     rms          ort
SDA:   1    -0.369662509040E+03    0.59944E+00    0.00000E+00  6048   0.160E+01 0.000E+00
CGA:   2    -0.370091161256E+03   -0.42865E+00   -0.42865E+00  6048   0.853E+00-0.112E-02
CGA:   3    -0.370232979293E+03   -0.14182E+00   -0.14201E+00  6048   0.202E+00 0.127E-02
CGA:   4    -0.370268015704E+03   -0.35036E-01   -0.35097E-01  6048   0.405E-01 0.600E-03
CGA:   5    -0.370275407636E+03   -0.73919E-02   -0.74061E-02  6048   0.105E-01 0.163E-03
CGA:   6    -0.370277619784E+03   -0.22121E-02   -0.22170E-02  6048   0.303E-02 0.991E-04
CGA:   7    -0.370278350481E+03   -0.73070E-03   -0.73132E-03  6048   0.106E-02 0.369E-04
CGA:   8    -0.370278651860E+03   -0.30138E-03   -0.30027E-03  6048   0.455E-03 0.430E-04
CGA:   9    -0.370278796552E+03   -0.14469E-03   -0.14364E-03  6048   0.176E-03 0.224E-04
CGA:  10    -0.370278855245E+03   -0.58693E-04   -0.58606E-04  6048   0.674E-04 0.142E-05
CGA:  11    -0.370278873435E+03   -0.18191E-04   -0.18132E-04  6048   0.219E-04 0.108E-04
CGA:  12    -0.370278883577E+03   -0.10142E-04   -0.10792E-04  6048   0.171E-04-0.397E-05
CGA:  13    -0.370278829063E+03    0.54514E-04   -0.29605E-04  6048   0.238E-03-0.555E-04
CGA:  14    -0.370278877227E+03   -0.48164E-04   -0.53612E-04  6048   0.307E-04 0.203E-04
CGA:  15    -0.370278893272E+03   -0.16045E-04   -0.16055E-04  6048   0.140E-04-0.335E-05
CGA:  16    -0.370278894755E+03   -0.14832E-05   -0.28903E-05  6048   0.617E-05 0.568E-05
  13 F= -.37027889E+03 E0= -.37027889E+03  d E =-.169398E-01  mag=    20.0000
       N       E                     dE             d eps       ncg     rms          ort
SDA:   1    -0.363099609601E+03    0.71793E+01    0.00000E+00  6048   0.191E+02 0.000E+00
CGA:   2    -0.367995033876E+03   -0.48954E+01   -0.49055E+01  6048   0.103E+02 0.905E-03
CGA:   3    -0.369755971073E+03   -0.17609E+01   -0.17642E+01  6048   0.244E+01 0.389E-01
CGA:   4    -0.370179482064E+03   -0.42351E+00   -0.42339E+00  6048   0.489E+00 0.243E-02
CGA:   5    -0.370269339894E+03   -0.89858E-01   -0.89882E-01  6048   0.131E+00-0.246E-04
CGA:   6    -0.370297211415E+03   -0.27872E-01   -0.27909E-01  6048   0.388E-01 0.127E-03
CGA:   7    -0.370306574090E+03   -0.93627E-02   -0.93806E-02  6048   0.139E-01 0.930E-04
CGA:   8    -0.370310555013E+03   -0.39809E-02   -0.40015E-02  6048   0.612E-02 0.193E-03
CGA:   9    -0.370312470574E+03   -0.19156E-02   -0.19176E-02  6048   0.237E-02 0.237E-04
CGA:  10    -0.370313243559E+03   -0.77299E-03   -0.76718E-03  6048   0.900E-03-0.101E-03
CGA:  11    -0.370313501006E+03   -0.25745E-03   -0.25920E-03  6048   0.312E-03 0.225E-04
CGA:  12    -0.370313624908E+03   -0.12390E-03   -0.12416E-03  6048   0.173E-03-0.188E-04
CGA:  13    -0.370313691311E+03   -0.66404E-04   -0.66510E-04  6048   0.901E-04-0.329E-05
CGA:  14    -0.370313718758E+03   -0.27446E-04   -0.28263E-04  6048   0.308E-04 0.142E-04
CGA:  15    -0.370313732974E+03   -0.14216E-04   -0.14354E-04  6048   0.143E-04-0.485E-05
CGA:  16    -0.370313737822E+03   -0.48480E-05   -0.49342E-05  6048   0.592E-05-0.244E-05
  14 F= -.37031374E+03 E0= -.37031374E+03  d E =-.348431E-01  mag=    20.0000
       N       E                     dE             d eps       ncg     rms          ort
SDA:   1    -0.345278488227E+03    0.25035E+02    0.00000E+00  6048   0.559E+02 0.000E+00
CGA:   2    -0.363241142076E+03   -0.17963E+02   -0.18009E+02  6048   0.169E+02-0.916E-01
CGA:   3    -0.366899048747E+03   -0.36579E+01   -0.36771E+01  6048   0.535E+01 0.121E-02
CGA:   4    -0.367826425756E+03   -0.92738E+00   -0.93120E+00  6048   0.155E+01 0.284E-02
CGA:   5    -0.368159254097E+03   -0.33283E+00   -0.33265E+00  6048   0.491E+00 0.277E-02
CGA:   6    -0.368277655558E+03   -0.11840E+00   -0.11857E+00  6048   0.224E+00 0.541E-03
CGA:   7    -0.368333277624E+03   -0.55622E-01   -0.55622E-01  6048   0.777E-01-0.801E-03
CGA:   8    -0.368355683363E+03   -0.22406E-01   -0.22377E-01  6048   0.305E-01-0.365E-03
CGA:   9    -0.368363541524E+03   -0.78582E-02   -0.79174E-02  6048   0.936E-02 0.544E-03
CGA:  10    -0.368366499184E+03   -0.29577E-02   -0.29422E-02  6048   0.312E-02-0.288E-03
CGA:  11    -0.368367445814E+03   -0.94663E-03   -0.94116E-03  6048   0.113E-02-0.112E-03
CGA:  12    -0.368367759276E+03   -0.31346E-03   -0.32167E-03  6048   0.420E-03 0.129E-03
CGA:  13    -0.368367969498E+03   -0.21022E-03   -0.25360E-03  6048   0.532E-03-0.232E-03
CGA:  14    -0.368368033751E+03   -0.64253E-04   -0.91792E-04  6048   0.877E-04 0.144E-03
CGA:  15    -0.368368068343E+03   -0.34592E-04   -0.34532E-04  6048   0.518E-04-0.138E-05
CGA:  16    -0.368367998895E+03    0.69448E-04   -0.73654E-04  6048   0.531E-03-0.131E-03
CGA:  17    -0.368368056212E+03   -0.57317E-04   -0.89558E-04  6048   0.101E-03 0.135E-03
CGA:  18    -0.368368100496E+03   -0.44283E-04   -0.43740E-04  6048   0.365E-04-0.111E-04
CGA:  19    -0.368368138851E+03   -0.38355E-04    0.12697E-04  6048   0.350E-04-0.234E-04
CGA:  20    -0.368368134216E+03    0.46351E-05   -0.26118E-05  6048   0.149E-04 0.228E-04
  15 F= -.36836813E+03 E0= -.36836813E+03  d E =0.194560E+01  mag=    20.0000
       N       E                     dE             d eps       ncg     rms          ort
SDA:   1    -0.366734362659E+03    0.16338E+01    0.00000E+00  6048   0.667E+01 0.000E+00
CGA:   2    -0.368839337305E+03   -0.21050E+01   -0.21043E+01  6048   0.213E+01-0.917E-02
CGA:   3    -0.369354314137E+03   -0.51498E+00   -0.51528E+00  6048   0.492E+00 0.243E-03
CGA:   4    -0.369448320159E+03   -0.94006E-01   -0.94153E-01  6048   0.168E+00 0.439E-03
CGA:   5    -0.369481277603E+03   -0.32957E-01   -0.33038E-01  6048   0.456E-01 0.515E-03
CGA:   6    -0.369493416885E+03   -0.12139E-01   -0.12140E-01  6048   0.222E-01 0.108E-05
CGA:   7    -0.369498800767E+03   -0.53839E-02   -0.53620E-02  6048   0.799E-02-0.245E-03
CGA:   8    -0.369501108006E+03   -0.23072E-02   -0.23081E-02  6048   0.293E-02 0.236E-04
CGA:   9    -0.369501876053E+03   -0.76805E-03   -0.77441E-03  6048   0.894E-03 0.986E-04
CGA:  10    -0.369502157872E+03   -0.28182E-03   -0.28132E-03  6048   0.297E-03-0.252E-04
CGA:  11    -0.369502242749E+03   -0.84877E-04   -0.85365E-04  6048   0.105E-03 0.174E-04
CGA:  12    -0.369502271195E+03   -0.28445E-04   -0.29991E-04  6048   0.423E-04 0.291E-04
CGA:  13    -0.369502270976E+03    0.21893E-06   -0.52940E-04  6048   0.243E-03-0.805E-04
CGA:  14    -0.369502307913E+03   -0.36937E-04   -0.45146E-04  6048   0.274E-04 0.494E-04
CGA:  15    -0.369502316562E+03   -0.86493E-05   -0.88467E-05  6048   0.681E-05 0.261E-05
CGA:  16    -0.369502263072E+03    0.53490E-04   -0.28803E-04  6048   0.198E-03-0.377E-04
CGA:  17    -0.369502291743E+03   -0.28671E-04   -0.45283E-04  6048   0.292E-04 0.423E-04
CGA:  18    -0.369502077253E+03    0.21449E-03   -0.79306E-04  6048   0.854E-03-0.179E-03
CGA:  19    -0.369502214891E+03   -0.13764E-03   -0.21960E-03  6048   0.152E-03 0.192E-03
CGA:  20    -0.369502334471E+03   -0.11958E-03   -0.10665E-03  6048   0.157E-03-0.146E-03
CGA:  21    -0.369502315771E+03    0.18700E-04   -0.20186E-04  6048   0.408E-04 0.736E-04
CGA:  22    -0.369502306455E+03    0.93164E-05   -0.63936E-05  6048   0.154E-04 0.300E-04
CGA:  23    -0.369502333157E+03   -0.26702E-04    0.10683E-04  6048   0.517E-05-0.632E-05
CGA:  24    -0.369502331662E+03    0.14951E-05   -0.82389E-07  6048   0.427E-05 0.273E-05
  16 F= -.36950233E+03 E0= -.36950233E+03  d E =-.113420E+01  mag=    20.0000
       N       E                     dE             d eps       ncg     rms          ort
SDA:   1    -0.368423445835E+03    0.10789E+01    0.00000E+00  6048   0.392E+01 0.000E+00
CGA:   2    -0.369673923598E+03   -0.12505E+01   -0.12526E+01  6048   0.124E+01-0.178E-02
CGA:   3    -0.369976459902E+03   -0.30254E+00   -0.30294E+00  6048   0.287E+00 0.578E-03
CGA:   4    -0.370031745982E+03   -0.55286E-01   -0.55419E-01  6048   0.981E-01 0.912E-04
CGA:   5    -0.370050902530E+03   -0.19157E-01   -0.19220E-01  6048   0.272E-01 0.102E-03
CGA:   6    -0.370058345940E+03   -0.74434E-02   -0.74287E-02  6048   0.133E-01-0.709E-04
CGA:   7    -0.370061521457E+03   -0.31755E-02   -0.31482E-02  6048   0.481E-02-0.114E-03
CGA:   8    -0.370062906338E+03   -0.13849E-02   -0.13937E-02  6048   0.170E-02 0.489E-04
CGA:   9    -0.370063357636E+03   -0.45130E-03   -0.45832E-03  6048   0.539E-03 0.360E-04
CGA:  10    -0.370063530941E+03   -0.17331E-03   -0.16919E-03  6048   0.175E-03-0.290E-04
CGA:  11    -0.370063576438E+03   -0.45496E-04   -0.47532E-04  6048   0.581E-04 0.131E-04
CGA:  12    -0.370063594543E+03   -0.18106E-04   -0.19260E-04  6048   0.256E-04 0.915E-05
CGA:  13    -0.370063598657E+03   -0.41136E-05   -0.29445E-04  6048   0.132E-03-0.448E-04
CGA:  14    -0.370063612271E+03   -0.13614E-04   -0.22922E-04  6048   0.179E-04 0.329E-04
CGA:  15    -0.370063616685E+03   -0.44144E-05   -0.52057E-05  6048   0.475E-05 0.379E-05
  17 F= -.37006362E+03 E0= -.37006362E+03  d E =-.561285E+00  mag=    20.0000
       N       E                     dE             d eps       ncg     rms          ort
SDA:   1    -0.368667485551E+03    0.13961E+01    0.00000E+00  6048   0.402E+01 0.000E+00
CGA:   2    -0.369956246410E+03   -0.12888E+01   -0.12926E+01  6048   0.125E+01 0.677E-02
CGA:   3    -0.370272514236E+03   -0.31627E+00   -0.31656E+00  6048   0.272E+00 0.157E-02
CGA:   4    -0.370327622931E+03   -0.55109E-01   -0.55176E-01  6048   0.955E-01-0.351E-04
CGA:   5    -0.370345701421E+03   -0.18078E-01   -0.18088E-01  6048   0.276E-01-0.110E-03
CGA:   6    -0.370353473525E+03   -0.77721E-02   -0.77527E-02  6048   0.131E-01-0.177E-03
CGA:   7    -0.370356562731E+03   -0.30892E-02   -0.30798E-02  6048   0.493E-02-0.638E-04
CGA:   8    -0.370357943528E+03   -0.13808E-02   -0.13927E-02  6048   0.159E-02 0.118E-03
CGA:   9    -0.370358392222E+03   -0.44869E-03   -0.44947E-03  6048   0.533E-03 0.673E-05
CGA:  10    -0.370358563430E+03   -0.17121E-03   -0.16725E-03  6048   0.174E-03-0.661E-04
CGA:  11    -0.370358605008E+03   -0.41577E-04   -0.42530E-04  6048   0.513E-04 0.105E-04
CGA:  12    -0.370358623617E+03   -0.18609E-04   -0.18611E-04  6048   0.255E-04 0.647E-07
CGA:  13    -0.370358635357E+03   -0.11740E-04   -0.13906E-04  6048   0.272E-04-0.120E-04
CGA:  14    -0.370358635669E+03   -0.31187E-06   -0.18799E-05  6048   0.175E-04 0.646E-05
  18 F= -.37035864E+03 E0= -.37035864E+03  d E =-.295019E+00  mag=    20.0000
       N       E                     dE             d eps       ncg     rms          ort
SDA:   1    -0.370242092005E+03    0.11654E+00    0.00000E+00  6048   0.349E+00 0.000E+00
CGA:   2    -0.370354697406E+03   -0.11261E+00   -0.11265E+00  6048   0.102E+00 0.898E-03
CGA:   3    -0.370380761809E+03   -0.26064E-01   -0.26106E-01  6048   0.256E-01 0.484E-03
CGA:   4    -0.370385333262E+03   -0.45715E-02   -0.45519E-02  6048   0.801E-02-0.141E-03
CGA:   5    -0.370386998564E+03   -0.16653E-02   -0.16361E-02  6048   0.235E-02-0.231E-03
CGA:   6    -0.370387628375E+03   -0.62981E-03   -0.62362E-03  6048   0.115E-02-0.113E-03
CGA:   7    -0.370387866808E+03   -0.23843E-03   -0.24273E-03  6048   0.374E-03 0.411E-04
CGA:   8    -0.370387963213E+03   -0.96405E-04   -0.99696E-04  6048   0.121E-03 0.521E-04
CGA:   9    -0.370388004851E+03   -0.41638E-04   -0.41488E-04  6048   0.536E-04-0.948E-05
CGA:  10    -0.370388021110E+03   -0.16259E-04   -0.16502E-04  6048   0.219E-04-0.138E-04
CGA:  11    -0.370387846597E+03    0.17451E-03   -0.94528E-04  6048   0.894E-03-0.119E-03
CGA:  12    -0.370388004131E+03   -0.15753E-03   -0.17049E-03  6048   0.790E-04 0.331E-04
CGA:  13    -0.370388021790E+03   -0.17659E-04   -0.21969E-04  6048   0.191E-04 0.148E-04
CGA:  14    -0.370388024272E+03   -0.24817E-05   -0.56010E-05  6048   0.847E-05 0.105E-04
  19 F= -.37038802E+03 E0= -.37038802E+03  d E =-.293886E-01  mag=    20.0000
       N       E                     dE             d eps       ncg     rms          ort
SDA:   1    -0.370228318787E+03    0.15970E+00    0.00000E+00  6048   0.408E+00 0.000E+00
CGA:   2    -0.370354535359E+03   -0.12622E+00   -0.12656E+00  6048   0.130E+00 0.425E-03
CGA:   3    -0.370383490569E+03   -0.28955E-01   -0.29066E-01  6048   0.472E-01 0.357E-03
CGA:   4    -0.370391024990E+03   -0.75344E-02   -0.75113E-02  6048   0.100E-01-0.102E-03
CGA:   5    -0.370393239329E+03   -0.22143E-02   -0.21414E-02  6048   0.336E-02-0.277E-03
CGA:   6    -0.370394036425E+03   -0.79710E-03   -0.76142E-03  6048   0.146E-02-0.152E-03
CGA:   7    -0.370394370309E+03   -0.33388E-03   -0.34258E-03  6048   0.477E-03 0.406E-04
CGA:   8    -0.370394482667E+03   -0.11236E-03   -0.12453E-03  6048   0.166E-03 0.624E-04
CGA:   9    -0.370394539201E+03   -0.56534E-04   -0.55714E-04  6048   0.623E-04-0.582E-05
CGA:  10    -0.370394561622E+03   -0.22421E-04   -0.21133E-04  6048   0.287E-04-0.160E-04
CGA:  11    -0.370394531233E+03    0.30390E-04   -0.24016E-04  6048   0.301E-03-0.778E-04
CGA:  12    -0.370394574735E+03   -0.43502E-04   -0.52234E-04  6048   0.268E-04 0.301E-04
CGA:  13    -0.370394576064E+03   -0.13290E-05   -0.52031E-05  6048   0.101E-04 0.143E-04
  20 F= -.37039458E+03 E0= -.37039458E+03  d E =-.655179E-02  mag=    20.0000
       N       E                     dE             d eps       ncg     rms          ort
SDA:   1    -0.370389359968E+03    0.52148E-02    0.00000E+00  6048   0.146E-01 0.000E+00
CGA:   2    -0.370393091453E+03   -0.37315E-02   -0.37659E-02  6048   0.617E-02 0.202E-03
CGA:   3    -0.370394259405E+03   -0.11680E-02   -0.11881E-02  6048   0.197E-02 0.861E-04
CGA:   4    -0.370394616341E+03   -0.35694E-03   -0.34918E-03  6048   0.409E-03-0.348E-04
CGA:   5    -0.370394718584E+03   -0.10224E-03   -0.91653E-04  6048   0.165E-03-0.650E-04
CGA:   6    -0.370394755203E+03   -0.36619E-04   -0.31889E-04  6048   0.675E-04-0.310E-04
CGA:   7    -0.370394762752E+03   -0.75493E-05   -0.98804E-05  6048   0.188E-04 0.119E-04
  21 F= -.37039476E+03 E0= -.37039476E+03  d E =-.186689E-03  mag=    20.0000
       N       E                     dE             d eps       ncg     rms          ort
SDA:   1    -0.369512404902E+03    0.88235E+00    0.00000E+00  6048   0.236E+01 0.000E+00
CGA:   2    -0.370093533177E+03   -0.58113E+00   -0.58170E+00  6048   0.117E+01 0.302E-02
CGA:   3    -0.370304868808E+03   -0.21134E+00   -0.21165E+00  6048   0.328E+00 0.129E-02
CGA:   4    -0.370360866464E+03   -0.55998E-01   -0.55928E-01  6048   0.617E-01-0.478E-03
CGA:   5    -0.370372612165E+03   -0.11746E-01   -0.11664E-01  6048   0.177E-01-0.602E-03
CGA:   6    -0.370376399505E+03   -0.37873E-02   -0.37554E-02  6048   0.552E-02-0.299E-03
CGA:   7    -0.370377717219E+03   -0.13177E-02   -0.13268E-02  6048   0.200E-02 0.120E-03
CGA:   8    -0.370378255217E+03   -0.53800E-03   -0.54594E-03  6048   0.803E-03 0.164E-03
CGA:   9    -0.370378537932E+03   -0.28272E-03   -0.28258E-03  6048   0.352E-03 0.104E-04
CGA:  10    -0.370378663372E+03   -0.12544E-03   -0.12788E-03  6048   0.177E-03-0.543E-04
CGA:  11    -0.370378715914E+03   -0.52542E-04   -0.54025E-04  6048   0.846E-04-0.334E-04
CGA:  12    -0.370378739610E+03   -0.23696E-04   -0.23806E-04  6048   0.370E-04-0.381E-05
CGA:  13    -0.370378744699E+03   -0.50888E-05   -0.70410E-05  6048   0.159E-04 0.163E-04
  22 F= -.37037874E+03 E0= -.37037874E+03  d E =0.160181E-01  mag=    20.0000
       N       E                     dE             d eps       ncg     rms          ort
SDA:   1    -0.370309219513E+03    0.69520E-01    0.00000E+00  6048   0.207E+00 0.000E+00
CGA:   2    -0.370362584206E+03   -0.53365E-01   -0.53332E-01  6048   0.929E-01-0.751E-03
CGA:   3    -0.370379197687E+03   -0.16613E-01   -0.16537E-01  6048   0.300E-01-0.687E-03
CGA:   4    -0.370384834342E+03   -0.56367E-02   -0.56305E-02  6048   0.672E-02-0.691E-04
CGA:   5    -0.370385978777E+03   -0.11444E-02   -0.11818E-02  6048   0.173E-02 0.323E-03
CGA:   6    -0.370386317912E+03   -0.33913E-03   -0.36131E-03  6048   0.561E-03 0.258E-03
CGA:   7    -0.370386497457E+03   -0.17955E-03   -0.17960E-03  6048   0.267E-03 0.176E-04
CGA:   8    -0.370386594041E+03   -0.96584E-04   -0.11658E-03  6048   0.278E-03-0.141E-03
CGA:   9    -0.370386628155E+03   -0.34113E-04   -0.41111E-04  6048   0.374E-04 0.498E-04
CGA:  10    -0.370386633713E+03   -0.55582E-05   -0.75636E-05  6048   0.135E-04 0.182E-04
  23 F= -.37038663E+03 E0= -.37038663E+03  d E =-.788901E-02  mag=    20.0000
       N       E                     dE             d eps       ncg     rms          ort
SDA:   1    -0.370363817102E+03    0.22811E-01    0.00000E+00  6048   0.618E-01 0.000E+00
CGA:   2    -0.370382818310E+03   -0.19001E-01   -0.19006E-01  6048   0.283E-01-0.139E-03
CGA:   3    -0.370387576477E+03   -0.47582E-02   -0.47422E-02  6048   0.733E-02-0.173E-03
CGA:   4    -0.370388843357E+03   -0.12669E-02   -0.12658E-02  6048   0.149E-02-0.139E-04
CGA:   5    -0.370389101213E+03   -0.25786E-03   -0.26674E-03  6048   0.400E-03 0.106E-03
CGA:   6    -0.370389176218E+03   -0.75005E-04   -0.80366E-04  6048   0.116E-03 0.749E-04
CGA:   7    -0.370389218789E+03   -0.42571E-04   -0.43527E-04  6048   0.747E-04-0.157E-04
CGA:   8    -0.370389238511E+03   -0.19722E-04   -0.26780E-04  6048   0.801E-04-0.452E-04
CGA:   9    -0.370389246479E+03   -0.79683E-05   -0.10944E-04  6048   0.148E-04 0.229E-04
  24 F= -.37038925E+03 E0= -.37038925E+03  d E =-.261277E-02  mag=    20.0000
       N       E                     dE             d eps       ncg     rms          ort
SDA:   1    -0.370039820759E+03    0.34942E+00    0.00000E+00  6048   0.862E+00 0.000E+00
CGA:   2    -0.370304219275E+03   -0.26440E+00   -0.26437E+00  6048   0.415E+00 0.214E-03
CGA:   3    -0.370371386301E+03   -0.67167E-01   -0.67181E-01  6048   0.941E-01-0.160E-03
CGA:   4    -0.370387547366E+03   -0.16161E-01   -0.16152E-01  6048   0.185E-01-0.146E-03
CGA:   5    -0.370391024908E+03   -0.34775E-02   -0.34860E-02  6048   0.512E-02 0.137E-03
CGA:   6    -0.370392061698E+03   -0.10368E-02   -0.10423E-02  6048   0.138E-02 0.129E-03
CGA:   7    -0.370392427610E+03   -0.36591E-03   -0.36674E-03  6048   0.558E-03-0.500E-04
CGA:   8    -0.370392590180E+03   -0.16257E-03   -0.16532E-03  6048   0.277E-03-0.432E-04
CGA:   9    -0.370392659874E+03   -0.69694E-04   -0.69232E-04  6048   0.872E-04 0.193E-04
CGA:  10    -0.370392685075E+03   -0.25200E-04   -0.24998E-04  6048   0.272E-04 0.999E-05
CGA:  11    -0.370392693732E+03   -0.86578E-05   -0.85681E-05  6048   0.974E-05 0.264E-05
  25 F= -.37039269E+03 E0= -.37039269E+03  d E =-.344725E-02  mag=    20.0000
       N       E                     dE             d eps       ncg     rms          ort
SDA:   1    -0.365814433629E+03    0.45783E+01    0.00000E+00  6048   0.112E+02 0.000E+00
CGA:   2    -0.369388316167E+03   -0.35739E+01   -0.35736E+01  6048   0.458E+01 0.329E-03
CGA:   3    -0.370165783498E+03   -0.77747E+00   -0.77791E+00  6048   0.114E+01 0.709E-03
CGA:   4    -0.370352921480E+03   -0.18714E+00   -0.18722E+00  6048   0.220E+00 0.315E-03
CGA:   5    -0.370396659852E+03   -0.43738E-01   -0.43753E-01  6048   0.619E-01 0.220E-03
CGA:   6    -0.370409109762E+03   -0.12450E-01   -0.12455E-01  6048   0.177E-01 0.711E-04
CGA:   7    -0.370413699429E+03   -0.45897E-02   -0.45928E-02  6048   0.697E-02-0.241E-03
CGA:   8    -0.370415741346E+03   -0.20419E-02   -0.20455E-02  6048   0.332E-02-0.710E-04
CGA:   9    -0.370416754923E+03   -0.10136E-02   -0.10127E-02  6048   0.123E-02 0.142E-04
CGA:  10    -0.370417150064E+03   -0.39514E-03   -0.40068E-03  6048   0.445E-03-0.773E-04
CGA:  11    -0.370417273597E+03   -0.12353E-03   -0.12301E-03  6048   0.150E-03 0.135E-04
CGA:  12    -0.370417335270E+03   -0.61673E-04   -0.64501E-04  6048   0.959E-04-0.179E-04
CGA:  13    -0.370417372028E+03   -0.36757E-04   -0.39045E-04  6048   0.586E-04-0.117E-04
CGA:  14    -0.370417381954E+03   -0.99263E-05   -0.11109E-04  6048   0.224E-04 0.198E-04
  26 F= -.37041738E+03 E0= -.37041738E+03  d E =-.246882E-01  mag=    20.0000
       N       E                     dE             d eps       ncg     rms          ort
SDA:   1    -0.355817611947E+03    0.14600E+02    0.00000E+00  6048   0.360E+02 0.000E+00
CGA:   2    -0.367195611771E+03   -0.11378E+02   -0.11374E+02  6048   0.138E+02 0.475E-01
CGA:   3    -0.369679627467E+03   -0.24840E+01   -0.24864E+01  6048   0.353E+01 0.687E-02
CGA:   4    -0.370243671715E+03   -0.56404E+00   -0.56443E+00  6048   0.689E+00 0.805E-03
CGA:   5    -0.370385278352E+03   -0.14161E+00   -0.14162E+00  6048   0.198E+00 0.157E-03
CGA:   6    -0.370425366114E+03   -0.40088E-01   -0.40099E-01  6048   0.611E-01 0.622E-04
CGA:   7    -0.370441684007E+03   -0.16318E-01   -0.16324E-01  6048   0.251E-01-0.505E-03
CGA:   8    -0.370449224569E+03   -0.75406E-02   -0.75477E-02  6048   0.123E-01-0.158E-03
CGA:   9    -0.370452935920E+03   -0.37114E-02   -0.37102E-02  6048   0.439E-02 0.191E-04
CGA:  10    -0.370454331414E+03   -0.13955E-02   -0.14099E-02  6048   0.156E-02-0.241E-03
CGA:  11    -0.370454798007E+03   -0.46659E-03   -0.46812E-03  6048   0.598E-03-0.286E-04
CGA:  12    -0.370455030330E+03   -0.23232E-03   -0.23665E-03  6048   0.341E-03-0.317E-04
CGA:  13    -0.370455168029E+03   -0.13770E-03   -0.13928E-03  6048   0.177E-03-0.102E-04
CGA:  14    -0.370455209286E+03   -0.41257E-04   -0.42964E-04  6048   0.564E-04 0.560E-04
CGA:  15    -0.370455225595E+03   -0.16309E-04   -0.17242E-04  6048   0.177E-04 0.198E-04
CGA:  16    -0.370455233158E+03   -0.75623E-05   -0.16633E-04  6048   0.362E-04-0.217E-04
  27 F= -.37045523E+03 E0= -.37045523E+03  d E =-.378512E-01  mag=    20.0000
       N       E                     dE             d eps       ncg     rms          ort
SDA:   1    -0.369362240411E+03    0.10930E+01    0.00000E+00  6048   0.257E+01 0.000E+00
CGA:   2    -0.370182855110E+03   -0.82061E+00   -0.82059E+00  6048   0.117E+01-0.237E-03
CGA:   3    -0.370378236302E+03   -0.19538E+00   -0.19557E+00  6048   0.292E+00 0.798E-03
CGA:   4    -0.370428440627E+03   -0.50204E-01   -0.50257E-01  6048   0.608E-01 0.377E-03
CGA:   5    -0.370440688331E+03   -0.12248E-01   -0.12235E-01  6048   0.185E-01-0.185E-03
CGA:   6    -0.370444607805E+03   -0.39195E-02   -0.39080E-02  6048   0.603E-02-0.183E-03
CGA:   7    -0.370446140788E+03   -0.15330E-02   -0.15341E-02  6048   0.228E-02 0.640E-04
CGA:   8    -0.370446770562E+03   -0.62977E-03   -0.62970E-03  6048   0.915E-03 0.800E-04
CGA:   9    -0.370447062569E+03   -0.29201E-03   -0.29267E-03  6048   0.334E-03-0.184E-04
CGA:  10    -0.370447160205E+03   -0.97636E-04   -0.97723E-04  6048   0.107E-03-0.362E-05
CGA:  11    -0.370447195686E+03   -0.35481E-04   -0.36442E-04  6048   0.473E-04-0.140E-04
CGA:  12    -0.370447212314E+03   -0.16628E-04   -0.19916E-04  6048   0.373E-04-0.160E-04
CGA:  13    -0.370447217028E+03   -0.47132E-05   -0.53631E-05  6048   0.174E-04 0.901E-05
  28 F= -.37044722E+03 E0= -.37044722E+03  d E =0.801613E-02  mag=    20.0000
       N       E                     dE             d eps       ncg     rms          ort
SDA:   1    -0.366671886213E+03    0.37753E+01    0.00000E+00  6048   0.908E+01 0.000E+00
CGA:   2    -0.369664950663E+03   -0.29931E+01   -0.29927E+01  6048   0.340E+01 0.371E-02
CGA:   3    -0.370274031872E+03   -0.60908E+00   -0.60922E+00  6048   0.848E+00-0.951E-03
CGA:   4    -0.370409636253E+03   -0.13560E+00   -0.13555E+00  6048   0.172E+00-0.845E-03
CGA:   5    -0.370444979057E+03   -0.35343E-01   -0.35333E-01  6048   0.480E-01-0.198E-03
CGA:   6    -0.370454618026E+03   -0.96390E-02   -0.96526E-02  6048   0.147E-01 0.178E-03
CGA:   7    -0.370458412874E+03   -0.37948E-02   -0.37963E-02  6048   0.559E-02 0.187E-03
CGA:   8    -0.370460150748E+03   -0.17379E-02   -0.17405E-02  6048   0.282E-02-0.614E-04
CGA:   9    -0.370461019843E+03   -0.86909E-03   -0.87200E-03  6048   0.107E-02-0.638E-04
CGA:  10    -0.370461333773E+03   -0.31393E-03   -0.31400E-03  6048   0.344E-03-0.255E-05
CGA:  11    -0.370461447446E+03   -0.11367E-03   -0.11515E-03  6048   0.148E-03-0.226E-04
CGA:  12    -0.370461493967E+03   -0.46521E-04   -0.45540E-04  6048   0.645E-04 0.176E-04
CGA:  13    -0.370461525753E+03   -0.31786E-04   -0.32856E-04  6048   0.459E-04-0.604E-05
CGA:  14    -0.370461541317E+03   -0.15564E-04   -0.27096E-04  6048   0.515E-04-0.316E-04
CGA:  15    -0.370461550657E+03   -0.93406E-05   -0.10578E-04  6048   0.704E-05 0.126E-04
  29 F= -.37046155E+03 E0= -.37046155E+03  d E =-.143336E-01  mag=    20.0000
       N       E                     dE             d eps       ncg     rms          ort
SDA:   1    -0.370427997184E+03    0.33544E-01    0.00000E+00  6048   0.907E-01 0.000E+00
CGA:   2    -0.370448766939E+03   -0.20770E-01   -0.20775E-01  6048   0.509E-01 0.243E-05
CGA:   3    -0.370457922060E+03   -0.91551E-02   -0.91974E-02  6048   0.128E-01 0.336E-03
CGA:   4    -0.370460149969E+03   -0.22279E-02   -0.22473E-02  6048   0.270E-02 0.164E-03
CGA:   5    -0.370460642908E+03   -0.49294E-03   -0.49739E-03  6048   0.707E-03 0.424E-04
CGA:   6    -0.370460795226E+03   -0.15232E-03   -0.15331E-03  6048   0.221E-03 0.148E-04
CGA:   7    -0.370460845112E+03   -0.49886E-04   -0.51053E-04  6048   0.726E-04 0.234E-04
CGA:   8    -0.370460864983E+03   -0.19870E-04   -0.20138E-04  6048   0.284E-04 0.118E-04
CGA:   9    -0.370460873857E+03   -0.88742E-05   -0.88893E-05  6048   0.109E-04 0.578E-05
  30 F= -.37046087E+03 E0= -.37046087E+03  d E =0.676800E-03  mag=    20.0000
       N       E                     dE             d eps       ncg     rms          ort
SDA:   1    -0.370096326479E+03    0.36454E+00    0.00000E+00  6048   0.910E+00 0.000E+00
CGA:   2    -0.370369667615E+03   -0.27334E+00   -0.27336E+00  6048   0.453E+00-0.947E-03
CGA:   3    -0.370443429684E+03   -0.73762E-01   -0.73885E-01  6048   0.101E+00 0.880E-03
CGA:   4    -0.370460216685E+03   -0.16787E-01   -0.16835E-01  6048   0.193E-01 0.456E-03
CGA:   5    -0.370463956001E+03   -0.37393E-02   -0.37424E-02  6048   0.542E-02 0.413E-04
CGA:   6    -0.370465072567E+03   -0.11166E-02   -0.11137E-02  6048   0.149E-02-0.588E-04
CGA:   7    -0.370465435145E+03   -0.36258E-03   -0.36255E-03  6048   0.552E-03-0.456E-05
CGA:   8    -0.370465588125E+03   -0.15298E-03   -0.15228E-03  6048   0.235E-03 0.293E-04
CGA:   9    -0.370465666439E+03   -0.78314E-04   -0.77498E-04  6048   0.967E-04 0.137E-04
CGA:  10    -0.370465698404E+03   -0.31966E-04   -0.31754E-04  6048   0.354E-04 0.391E-05
CGA:  11    -0.370465712151E+03   -0.13747E-04   -0.15451E-04  6048   0.245E-04-0.107E-04
CGA:  12    -0.370465717677E+03   -0.55256E-05   -0.96648E-05  6048   0.268E-04-0.139E-04
  31 F= -.37046572E+03 E0= -.37046572E+03  d E =-.484382E-02  mag=    20.0000
       N       E                     dE             d eps       ncg     rms          ort
SDA:   1    -0.355898438795E+03    0.14567E+02    0.00000E+00  6048   0.369E+02 0.000E+00
CGA:   2    -0.366672780954E+03   -0.10774E+02   -0.10773E+02  6048   0.167E+02 0.535E-01
CGA:   3    -0.369568166394E+03   -0.28954E+01   -0.28983E+01  6048   0.418E+01 0.117E-01
CGA:   4    -0.370251486064E+03   -0.68332E+00   -0.68349E+00  6048   0.787E+00-0.518E-03
CGA:   5    -0.370407391706E+03   -0.15591E+00   -0.15586E+00  6048   0.229E+00-0.858E-03
CGA:   6    -0.370454080733E+03   -0.46689E-01   -0.46691E-01  6048   0.673E-01-0.118E-03
CGA:   7    -0.370471524075E+03   -0.17443E-01   -0.17444E-01  6048   0.275E-01 0.152E-03
CGA:   8    -0.370479757571E+03   -0.82335E-02   -0.82279E-02  6048   0.132E-01 0.140E-03
CGA:   9    -0.370484033566E+03   -0.42760E-02   -0.42854E-02  6048   0.540E-02-0.158E-03
CGA:  10    -0.370485707072E+03   -0.16735E-02   -0.16818E-02  6048   0.193E-02-0.168E-03
CGA:  11    -0.370486327388E+03   -0.62032E-03   -0.62569E-03  6048   0.814E-03-0.817E-04
CGA:  12    -0.370486645669E+03   -0.31828E-03   -0.33124E-03  6048   0.494E-03-0.847E-04
CGA:  13    -0.370486803581E+03   -0.15791E-03   -0.15382E-03  6048   0.197E-03 0.593E-04
CGA:  14    -0.370486869623E+03   -0.66042E-04   -0.65423E-04  6048   0.635E-04 0.420E-04
CGA:  15    -0.370486897302E+03   -0.27679E-04   -0.27616E-04  6048   0.233E-04 0.816E-06
CGA:  16    -0.370486905657E+03   -0.83548E-05   -0.82559E-05  6048   0.771E-05 0.155E-05
  32 F= -.37048691E+03 E0= -.37048691E+03  d E =-.211880E-01  mag=    20.0000
       N       E                     dE             d eps       ncg     rms          ort
SDA:   1    -0.368575298991E+03    0.19116E+01    0.00000E+00  6048   0.470E+01 0.000E+00
CGA:   2    -0.370060989004E+03   -0.14857E+01   -0.14856E+01  6048   0.189E+01 0.411E-03
CGA:   3    -0.370388334405E+03   -0.32735E+00   -0.32731E+00  6048   0.492E+00-0.223E-02
CGA:   4    -0.370470235659E+03   -0.81901E-01   -0.81834E-01  6048   0.966E-01-0.652E-03
CGA:   5    -0.370489282087E+03   -0.19046E-01   -0.19082E-01  6048   0.272E-01 0.417E-03
CGA:   6    -0.370494780425E+03   -0.54983E-02   -0.55309E-02  6048   0.804E-02 0.436E-03
CGA:   7    -0.370496895722E+03   -0.21153E-02   -0.21150E-02  6048   0.314E-02-0.224E-04
CGA:   8    -0.370497867597E+03   -0.97187E-03   -0.98000E-03  6048   0.163E-02-0.196E-03
CGA:   9    -0.370498310673E+03   -0.44308E-03   -0.44279E-03  6048   0.545E-03 0.168E-04
CGA:  10    -0.370498464240E+03   -0.15357E-03   -0.15340E-03  6048   0.165E-03 0.372E-04
CGA:  11    -0.370498513870E+03   -0.49630E-04   -0.49507E-04  6048   0.592E-04 0.194E-04
CGA:  12    -0.370498533485E+03   -0.19615E-04   -0.19343E-04  6048   0.276E-04 0.154E-04
CGA:  13    -0.370498520206E+03    0.13280E-04   -0.41071E-04  6048   0.197E-03-0.599E-04
CGA:  14    -0.370498563842E+03   -0.43636E-04   -0.45059E-04  6048   0.180E-04 0.153E-04
CGA:  15    -0.370498570554E+03   -0.67119E-05   -0.66704E-05  6048   0.431E-05 0.154E-05
  33 F= -.37049857E+03 E0= -.37049857E+03  d E =-.116649E-01  mag=    20.0000
       N       E                     dE             d eps       ncg     rms          ort
SDA:   1    -0.369335893633E+03    0.11627E+01    0.00000E+00  6048   0.291E+01 0.000E+00
CGA:   2    -0.370195742372E+03   -0.85985E+00   -0.85993E+00  6048   0.125E+01 0.265E-02
CGA:   3    -0.370422088306E+03   -0.22635E+00   -0.22623E+00  6048   0.324E+00-0.165E-02
CGA:   4    -0.370474123756E+03   -0.52035E-01   -0.51945E-01  6048   0.609E-01-0.708E-03
CGA:   5    -0.370486293422E+03   -0.12170E-01   -0.12200E-01  6048   0.172E-01 0.287E-03
CGA:   6    -0.370489697382E+03   -0.34040E-02   -0.34382E-02  6048   0.505E-02 0.345E-03
CGA:   7    -0.370491067075E+03   -0.13697E-02   -0.13705E-02  6048   0.211E-02 0.293E-04
CGA:   8    -0.370491740771E+03   -0.67370E-03   -0.67715E-03  6048   0.117E-02-0.120E-03
CGA:   9    -0.370492075449E+03   -0.33468E-03   -0.33450E-03  6048   0.442E-03 0.148E-04
CGA:  10    -0.370492199624E+03   -0.12418E-03   -0.12470E-03  6048   0.146E-03 0.397E-04
CGA:  11    -0.370492247071E+03   -0.47447E-04   -0.47341E-04  6048   0.610E-04 0.163E-04
CGA:  12    -0.370492269628E+03   -0.22556E-04   -0.22143E-04  6048   0.309E-04 0.118E-04
CGA:  13    -0.370492285185E+03   -0.15557E-04   -0.27178E-04  6048   0.637E-04-0.263E-04
CGA:  14    -0.370492300450E+03   -0.15265E-04   -0.15402E-04  6048   0.596E-05 0.183E-05
CGA:  15    -0.370492302943E+03   -0.24928E-05   -0.25529E-05  6048   0.180E-05-0.577E-06
  34 F= -.37049230E+03 E0= -.37049230E+03  d E =0.626761E-02  mag=    20.0000
       N       E                     dE             d eps       ncg     rms          ort
SDA:   1    -0.370407008373E+03    0.85292E-01    0.00000E+00  6048   0.247E+00 0.000E+00
CGA:   2    -0.370461802344E+03   -0.54794E-01   -0.54807E-01  6048   0.138E+00-0.776E-04
CGA:   3    -0.370487425931E+03   -0.25624E-01   -0.25636E-01  6048   0.354E-01 0.314E-04
CGA:   4    -0.370493486650E+03   -0.60607E-02   -0.60704E-02  6048   0.707E-02 0.615E-04
CGA:   5    -0.370494776873E+03   -0.12902E-02   -0.12926E-02  6048   0.189E-02 0.193E-04
CGA:   6    -0.370495182886E+03   -0.40601E-03   -0.40623E-03  6048   0.570E-03 0.230E-05
CGA:   7    -0.370495320256E+03   -0.13737E-03   -0.13733E-03  6048   0.197E-03-0.127E-05
CGA:   8    -0.370495374200E+03   -0.53943E-04   -0.53953E-04  6048   0.788E-04 0.160E-05
CGA:   9    -0.370495396961E+03   -0.22762E-04   -0.22725E-04  6048   0.276E-04 0.545E-05
CGA:  10    -0.370495405315E+03   -0.83533E-05   -0.83441E-05  6048   0.969E-05 0.323E-05
  35 F= -.37049541E+03 E0= -.37049541E+03  d E =-.310237E-02  mag=    20.0000
       N       E                     dE             d eps       ncg     rms          ort
SDA:   1    -0.370473934979E+03    0.21462E-01    0.00000E+00  6048   0.575E-01 0.000E+00
CGA:   2    -0.370491319387E+03   -0.17384E-01   -0.17386E-01  6048   0.224E-01-0.797E-04
CGA:   3    -0.370495437012E+03   -0.41176E-02   -0.41305E-02  6048   0.624E-02 0.114E-03
CGA:   4    -0.370496455147E+03   -0.10181E-02   -0.10224E-02  6048   0.118E-02 0.347E-04
CGA:   5    -0.370496719076E+03   -0.26393E-03   -0.25945E-03  6048   0.376E-03-0.787E-04
CGA:   6    -0.370496802089E+03   -0.83013E-04   -0.81066E-04  6048   0.145E-03-0.472E-04
CGA:   7    -0.370496828063E+03   -0.25973E-04   -0.26815E-04  6048   0.430E-04 0.141E-04
CGA:   8    -0.370496836946E+03   -0.88835E-05   -0.97021E-05  6048   0.168E-04 0.133E-04
  36 F= -.37049684E+03 E0= -.37049684E+03  d E =-.143163E-02  mag=    20.0000
       N       E                     dE             d eps       ncg     rms          ort
SDA:   1    -0.370454931362E+03    0.41897E-01    0.00000E+00  6048   0.124E+00 0.000E+00
CGA:   2    -0.370483746422E+03   -0.28815E-01   -0.28814E-01  6048   0.658E-01-0.148E-03
CGA:   3    -0.370495664039E+03   -0.11918E-01   -0.11915E-01  6048   0.171E-01-0.669E-04
CGA:   4    -0.370498584518E+03   -0.29205E-02   -0.29245E-02  6048   0.319E-02 0.390E-04
CGA:   5    -0.370499175075E+03   -0.59056E-03   -0.59091E-03  6048   0.867E-03 0.393E-05
CGA:   6    -0.370499360740E+03   -0.18566E-03   -0.18540E-03  6048   0.257E-03-0.705E-05
CGA:   7    -0.370499424553E+03   -0.63813E-04   -0.63804E-04  6048   0.990E-04-0.629E-05
CGA:   8    -0.370499453233E+03   -0.28680E-04   -0.28900E-04  6048   0.478E-04-0.461E-05
CGA:   9    -0.370499467737E+03   -0.14504E-04   -0.14549E-04  6048   0.200E-04-0.702E-06
CGA:  10    -0.370499473754E+03   -0.60169E-05   -0.59807E-05  6048   0.735E-05 0.763E-06
  37 F= -.37049947E+03 E0= -.37049947E+03  d E =-.263681E-02  mag=    20.0000
       N       E                     dE             d eps       ncg     rms          ort
SDA:   1    -0.368868322179E+03    0.16311E+01    0.00000E+00  6048   0.428E+01 0.000E+00
CGA:   2    -0.369983348664E+03   -0.11150E+01   -0.11151E+01  6048   0.236E+01 0.223E-02
CGA:   3    -0.370384026019E+03   -0.40068E+00   -0.40069E+00  6048   0.542E+00-0.104E-02
CGA:   4    -0.370477028998E+03   -0.93003E-01   -0.92940E-01  6048   0.107E+00-0.885E-03
CGA:   5    -0.370496669594E+03   -0.19641E-01   -0.19644E-01  6048   0.286E-01 0.631E-05
CGA:   6    -0.370502623637E+03   -0.59540E-02   -0.59628E-02  6048   0.797E-02 0.190E-03
CGA:   7    -0.370504547770E+03   -0.19241E-02   -0.19243E-02  6048   0.280E-02 0.129E-04
CGA:   8    -0.370505371741E+03   -0.82397E-03   -0.82690E-03  6048   0.128E-02-0.655E-04
CGA:   9    -0.370505766714E+03   -0.39497E-03   -0.39745E-03  6048   0.518E-03-0.381E-04
CGA:  10    -0.370505919052E+03   -0.15234E-03   -0.15230E-03  6048   0.175E-03 0.565E-06
CGA:  11    -0.370505969009E+03   -0.49957E-04   -0.49518E-04  6048   0.581E-04 0.177E-04
CGA:  12    -0.370505993223E+03   -0.24214E-04   -0.24323E-04  6048   0.338E-04-0.912E-06
CGA:  13    -0.370506008327E+03   -0.15103E-04   -0.17537E-04  6048   0.292E-04-0.933E-05
CGA:  14    -0.370506014326E+03   -0.59993E-05   -0.59877E-05  6048   0.122E-04 0.220E-05
  38 F= -.37050601E+03 E0= -.37050601E+03  d E =-.654057E-02  mag=    20.0000
       N       E                     dE             d eps       ncg     rms          ort
SDA:   1    -0.368596786873E+03    0.19092E+01    0.00000E+00  6048   0.468E+01 0.000E+00
CGA:   2    -0.370038283793E+03   -0.14415E+01   -0.14414E+01  6048   0.213E+01 0.151E-03
CGA:   3    -0.370390950490E+03   -0.35267E+00   -0.35267E+00  6048   0.514E+00-0.166E-02
CGA:   4    -0.370477661900E+03   -0.86711E-01   -0.86669E-01  6048   0.984E-01-0.566E-03
CGA:   5    -0.370496634365E+03   -0.18972E-01   -0.18975E-01  6048   0.277E-01 0.124E-05
CGA:   6    -0.370502295008E+03   -0.56606E-02   -0.56654E-02  6048   0.771E-02 0.690E-04
CGA:   7    -0.370504227668E+03   -0.19327E-02   -0.19324E-02  6048   0.292E-02-0.225E-04
CGA:   8    -0.370505092720E+03   -0.86505E-03   -0.86679E-03  6048   0.137E-02-0.470E-04
CGA:   9    -0.370505522490E+03   -0.42977E-03   -0.43192E-03  6048   0.554E-03-0.378E-04
CGA:  10    -0.370505694094E+03   -0.17160E-03   -0.17364E-03  6048   0.195E-03-0.359E-04
CGA:  11    -0.370505745099E+03   -0.51005E-04   -0.50844E-04  6048   0.623E-04 0.152E-04
CGA:  12    -0.370505768511E+03   -0.23412E-04   -0.23085E-04  6048   0.316E-04 0.437E-05
CGA:  13    -0.370505784158E+03   -0.15647E-04   -0.21615E-04  6048   0.438E-04-0.163E-04
CGA:  14    -0.370505791483E+03   -0.73244E-05   -0.84343E-05  6048   0.643E-05 0.113E-04
  39 F= -.37050579E+03 E0= -.37050579E+03  d E =0.222843E-03  mag=    20.0000
       N       E                     dE             d eps       ncg     rms          ort
SDA:   1    -0.368938578555E+03    0.15672E+01    0.00000E+00  6048   0.394E+01 0.000E+00
CGA:   2    -0.370088695806E+03   -0.11501E+01   -0.11501E+01  6048   0.202E+01 0.819E-03
CGA:   3    -0.370415858560E+03   -0.32716E+00   -0.32743E+00  6048   0.453E+00 0.725E-03
CGA:   4    -0.370494175212E+03   -0.78317E-01   -0.78354E-01  6048   0.920E-01 0.259E-03
CGA:   5    -0.370511454151E+03   -0.17279E-01   -0.17300E-01  6048   0.251E-01 0.203E-03
CGA:   6    -0.370516697135E+03   -0.52430E-02   -0.52416E-02  6048   0.719E-02-0.321E-04
CGA:   7    -0.370518488665E+03   -0.17915E-02   -0.17899E-02  6048   0.269E-02-0.888E-04
CGA:   8    -0.370519236860E+03   -0.74820E-03   -0.74731E-03  6048   0.114E-02 0.672E-04
CGA:   9    -0.370519592892E+03   -0.35603E-03   -0.35462E-03  6048   0.426E-03 0.392E-04
CGA:  10    -0.370519737885E+03   -0.14499E-03   -0.14680E-03  6048   0.168E-03-0.287E-04
CGA:  11    -0.370519783736E+03   -0.45851E-04   -0.45763E-04  6048   0.558E-04 0.452E-05
CGA:  12    -0.370519807192E+03   -0.23456E-04   -0.29387E-04  6048   0.573E-04-0.249E-04
CGA:  13    -0.370519814599E+03   -0.74070E-05   -0.76511E-05  6048   0.338E-04 0.540E-05
  40 F= -.37051981E+03 E0= -.37051981E+03  d E =-.140231E-01  mag=    20.0000
       N       E                     dE             d eps       ncg     rms          ort
SDA:   1    -0.369550295360E+03    0.96951E+00    0.00000E+00  6048   0.240E+01 0.000E+00
CGA:   2    -0.370306399584E+03   -0.75610E+00   -0.75610E+00  6048   0.968E+00-0.712E-03
CGA:   3    -0.370474935803E+03   -0.16854E+00   -0.16865E+00  6048   0.244E+00 0.513E-03
CGA:   4    -0.370514563570E+03   -0.39628E-01   -0.39676E-01  6048   0.473E-01 0.320E-03
CGA:   5    -0.370524057778E+03   -0.94942E-02   -0.95041E-02  6048   0.131E-01 0.132E-03
CGA:   6    -0.370526711682E+03   -0.26539E-02   -0.26526E-02  6048   0.383E-02-0.279E-04
CGA:   7    -0.370527719476E+03   -0.10078E-02   -0.10079E-02  6048   0.155E-02-0.837E-04
CGA:   8    -0.370528160755E+03   -0.44128E-03   -0.44077E-03  6048   0.723E-03 0.178E-04
CGA:   9    -0.370528381631E+03   -0.22088E-03   -0.21948E-03  6048   0.266E-03 0.384E-04
CGA:  10    -0.370528472898E+03   -0.91268E-04   -0.91748E-04  6048   0.103E-03-0.787E-05
CGA:  11    -0.370528507930E+03   -0.35032E-04   -0.36236E-04  6048   0.503E-04-0.131E-04
CGA:  12    -0.370528525985E+03   -0.18055E-04   -0.21915E-04  6048   0.421E-04-0.171E-04
CGA:  13    -0.370528533203E+03   -0.72185E-05   -0.73354E-05  6048   0.179E-04 0.574E-05
  41 F= -.37052853E+03 E0= -.37052853E+03  d E =-.871860E-02  mag=    20.0000
       N       E                     dE             d eps       ncg     rms          ort
SDA:   1    -0.369462288425E+03    0.10662E+01    0.00000E+00  6048   0.260E+01 0.000E+00
CGA:   2    -0.370289273872E+03   -0.82699E+00   -0.82696E+00  6048   0.109E+01-0.191E-03
CGA:   3    -0.370471644577E+03   -0.18237E+00   -0.18239E+00  6048   0.269E+00-0.655E-03
CGA:   4    -0.370516590149E+03   -0.44946E-01   -0.44932E-01  6048   0.516E-01-0.195E-03
CGA:   5    -0.370526677839E+03   -0.10088E-01   -0.10083E-01  6048   0.146E-01-0.864E-04
CGA:   6    -0.370529615061E+03   -0.29372E-02   -0.29398E-02  6048   0.404E-02 0.355E-04
CGA:   7    -0.370530617560E+03   -0.10025E-02   -0.10031E-02  6048   0.149E-02 0.366E-04
CGA:   8    -0.370531074148E+03   -0.45659E-03   -0.45805E-03  6048   0.734E-03-0.354E-04
CGA:   9    -0.370531303367E+03   -0.22922E-03   -0.23117E-03  6048   0.296E-03-0.335E-04
CGA:  10    -0.370531389978E+03   -0.86612E-04   -0.87085E-04  6048   0.948E-04-0.117E-04
CGA:  11    -0.370531416142E+03   -0.26164E-04   -0.26082E-04  6048   0.307E-04 0.468E-05
CGA:  12    -0.370531426351E+03   -0.10208E-04   -0.99936E-05  6048   0.137E-04 0.534E-05
CGA:  13    -0.370531433064E+03   -0.67132E-05   -0.12077E-04  6048   0.305E-04-0.112E-04
  42 F= -.37053143E+03 E0= -.37053143E+03  d E =-.289986E-02  mag=    20.0000
       N       E                     dE             d eps       ncg     rms          ort
SDA:   1    -0.368384894193E+03    0.21465E+01    0.00000E+00  6048   0.512E+01 0.000E+00
CGA:   2    -0.370106967704E+03   -0.17221E+01   -0.17220E+01  6048   0.179E+01 0.584E-03
CGA:   3    -0.370431611256E+03   -0.32464E+00   -0.32470E+00  6048   0.449E+00-0.837E-03
CGA:   4    -0.370503108298E+03   -0.71497E-01   -0.71515E-01  6048   0.894E-01 0.878E-04
CGA:   5    -0.370521489734E+03   -0.18381E-01   -0.18380E-01  6048   0.245E-01-0.436E-04
CGA:   6    -0.370526449281E+03   -0.49595E-02   -0.49580E-02  6048   0.734E-02-0.316E-04
CGA:   7    -0.370528306337E+03   -0.18571E-02   -0.18575E-02  6048   0.280E-02 0.190E-04
CGA:   8    -0.370529159323E+03   -0.85299E-03   -0.85340E-03  6048   0.137E-02-0.141E-04
CGA:   9    -0.370529593578E+03   -0.43425E-03   -0.43698E-03  6048   0.546E-03-0.619E-04
CGA:  10    -0.370529756995E+03   -0.16342E-03   -0.16471E-03  6048   0.175E-03-0.336E-04
CGA:  11    -0.370529802950E+03   -0.45954E-04   -0.45947E-04  6048   0.558E-04 0.127E-04
CGA:  12    -0.370529825363E+03   -0.22414E-04   -0.22416E-04  6048   0.317E-04-0.382E-07
CGA:  13    -0.370529839737E+03   -0.14373E-04   -0.21654E-04  6048   0.459E-04-0.183E-04
CGA:  14    -0.370529848794E+03   -0.90570E-05   -0.98369E-05  6048   0.598E-05 0.867E-05
  43 F= -.37052985E+03 E0= -.37052985E+03  d E =0.158427E-02  mag=    20.0000
       N       E                     dE             d eps       ncg     rms          ort
SDA:   1    -0.369832618422E+03    0.69722E+00    0.00000E+00  6048   0.172E+01 0.000E+00
CGA:   2    -0.370378686547E+03   -0.54607E+00   -0.54606E+00  6048   0.714E+00-0.710E-03
CGA:   3    -0.370498918185E+03   -0.12023E+00   -0.12031E+00  6048   0.179E+00 0.514E-04
CGA:   4    -0.370528737268E+03   -0.29819E-01   -0.29860E-01  6048   0.347E-01 0.201E-03
CGA:   5    -0.370535493676E+03   -0.67564E-02   -0.67813E-02  6048   0.965E-02 0.199E-03
CGA:   6    -0.370537468325E+03   -0.19746E-02   -0.19763E-02  6048   0.276E-02 0.116E-04
CGA:   7    -0.370538192036E+03   -0.72371E-03   -0.72063E-03  6048   0.111E-02-0.745E-04
CGA:   8    -0.370538500837E+03   -0.30880E-03   -0.30901E-03  6048   0.494E-03 0.153E-04
CGA:   9    -0.370538648502E+03   -0.14767E-03   -0.14780E-03  6048   0.175E-03 0.297E-04
CGA:  10    -0.370538708494E+03   -0.59992E-04   -0.60073E-04  6048   0.659E-04-0.348E-05
CGA:  11    -0.370538728273E+03   -0.19778E-04   -0.19770E-04  6048   0.242E-04 0.139E-05
CGA:  12    -0.370538738597E+03   -0.10324E-04   -0.14755E-04  6048   0.351E-04-0.150E-04
CGA:  13    -0.370538744254E+03   -0.56567E-05   -0.66559E-05  6048   0.488E-05 0.794E-05
  44 F= -.37053874E+03 E0= -.37053874E+03  d E =-.889546E-02  mag=    20.0000
       N       E                     dE             d eps       ncg     rms          ort
SDA:   1    -0.370368067064E+03    0.17067E+00    0.00000E+00  6048   0.426E+00 0.000E+00
CGA:   2    -0.370502365697E+03   -0.13430E+00   -0.13430E+00  6048   0.179E+00-0.569E-03
CGA:   3    -0.370532571112E+03   -0.30205E-01   -0.30246E-01  6048   0.456E-01 0.186E-03
CGA:   4    -0.370540159220E+03   -0.75881E-02   -0.76174E-02  6048   0.897E-02 0.206E-03
CGA:   5    -0.370541927497E+03   -0.17683E-02   -0.17745E-02  6048   0.250E-02 0.629E-04
CGA:   6    -0.370542461151E+03   -0.53365E-03   -0.53018E-03  6048   0.786E-03-0.466E-04
CGA:   7    -0.370542668979E+03   -0.20783E-03   -0.20727E-03  6048   0.329E-03-0.389E-04
CGA:   8    -0.370542750195E+03   -0.81217E-04   -0.81754E-04  6048   0.128E-03 0.255E-04
CGA:   9    -0.370542788431E+03   -0.38236E-04   -0.38301E-04  6048   0.447E-04 0.179E-04
CGA:  10    -0.370542806596E+03   -0.18165E-04   -0.18715E-04  6048   0.249E-04-0.642E-05
CGA:  11    -0.370542812770E+03   -0.61744E-05   -0.61750E-05  6048   0.976E-05-0.124E-06
  45 F= -.37054281E+03 E0= -.37054281E+03  d E =-.406852E-02  mag=    20.0000
       N       E                     dE             d eps       ncg     rms          ort
SDA:   1    -0.370386588308E+03    0.15622E+00    0.00000E+00  6048   0.382E+00 0.000E+00
CGA:   2    -0.370513767981E+03   -0.12718E+00   -0.12720E+00  6048   0.135E+00-0.588E-03
CGA:   3    -0.370538915607E+03   -0.25148E-01   -0.25157E-01  6048   0.324E-01 0.150E-04
CGA:   4    -0.370543960399E+03   -0.50448E-02   -0.50644E-02  6048   0.668E-02 0.130E-03
CGA:   5    -0.370545356007E+03   -0.13956E-02   -0.13946E-02  6048   0.179E-02-0.142E-04
CGA:   6    -0.370545732123E+03   -0.37612E-03   -0.37203E-03  6048   0.576E-03-0.555E-04
CGA:   7    -0.370545872095E+03   -0.13997E-03   -0.13984E-03  6048   0.212E-03-0.475E-05
CGA:   8    -0.370545930532E+03   -0.58437E-04   -0.58436E-04  6048   0.904E-04 0.158E-04
CGA:   9    -0.370545966096E+03   -0.35564E-04   -0.37791E-04  6048   0.565E-04-0.201E-04
CGA:  10    -0.370545980683E+03   -0.14587E-04   -0.15603E-04  6048   0.245E-04-0.142E-04
CGA:  11    -0.370545983821E+03   -0.31382E-05   -0.35739E-05  6048   0.905E-05 0.474E-05
  46 F= -.37054598E+03 E0= -.37054598E+03  d E =-.317105E-02  mag=    20.0000
       N       E                     dE             d eps       ncg     rms          ort
SDA:   1    -0.369699878473E+03    0.84610E+00    0.00000E+00  6048   0.204E+01 0.000E+00
CGA:   2    -0.370375404678E+03   -0.67553E+00   -0.67558E+00  6048   0.770E+00-0.178E-02
CGA:   3    -0.370512890848E+03   -0.13749E+00   -0.13752E+00  6048   0.182E+00-0.142E-03
CGA:   4    -0.370541593308E+03   -0.28702E-01   -0.28760E-01  6048   0.362E-01 0.428E-03
CGA:   5    -0.370549094216E+03   -0.75009E-02   -0.75094E-02  6048   0.983E-02 0.127E-03
CGA:   6    -0.370551080472E+03   -0.19863E-02   -0.19795E-02  6048   0.288E-02-0.108E-03
CGA:   7    -0.370551815143E+03   -0.73467E-03   -0.73432E-03  6048   0.113E-02-0.640E-04
CGA:   8    -0.370552133897E+03   -0.31875E-03   -0.31806E-03  6048   0.510E-03 0.268E-04
CGA:   9    -0.370552308063E+03   -0.17417E-03   -0.17629E-03  6048   0.225E-03-0.293E-04
CGA:  10    -0.370552379166E+03   -0.71103E-04   -0.73801E-04  6048   0.889E-04-0.338E-04
CGA:  11    -0.370552396494E+03   -0.17328E-04   -0.17851E-04  6048   0.272E-04 0.146E-04
CGA:  12    -0.370552406757E+03   -0.10263E-04   -0.10256E-04  6048   0.161E-04 0.119E-06
CGA:  13    -0.370552404907E+03    0.18498E-05   -0.15951E-04  6048   0.696E-04-0.251E-04
CGA:  14    -0.370552414720E+03   -0.98128E-05   -0.12475E-04  6048   0.105E-04 0.206E-04
  47 F= -.37055241E+03 E0= -.37055241E+03  d E =-.643090E-02  mag=    20.0000
       N       E                     dE             d eps       ncg     rms          ort
SDA:   1    -0.366575445599E+03    0.39770E+01    0.00000E+00  6048   0.955E+01 0.000E+00
CGA:   2    -0.369736572739E+03   -0.31611E+01   -0.31611E+01  6048   0.368E+01-0.344E-02
CGA:   3    -0.370378319362E+03   -0.64175E+00   -0.64207E+00  6048   0.866E+00-0.705E-04
CGA:   4    -0.370515835221E+03   -0.13752E+00   -0.13771E+00  6048   0.173E+00 0.113E-02
CGA:   5    -0.370551570451E+03   -0.35735E-01   -0.35787E-01  6048   0.476E-01 0.584E-03
CGA:   6    -0.370561025396E+03   -0.94549E-02   -0.94454E-02  6048   0.135E-01-0.135E-03
CGA:   7    -0.370564550062E+03   -0.35247E-02   -0.35201E-02  6048   0.537E-02-0.233E-03
CGA:   8    -0.370566095768E+03   -0.15457E-02   -0.15451E-02  6048   0.247E-02 0.431E-04
CGA:   9    -0.370566882752E+03   -0.78698E-03   -0.78665E-03  6048   0.949E-03 0.912E-05
CGA:  10    -0.370567189793E+03   -0.30704E-03   -0.30975E-03  6048   0.338E-03-0.637E-04
CGA:  11    -0.370567281065E+03   -0.91272E-04   -0.91191E-04  6048   0.112E-03 0.179E-04
CGA:  12    -0.370567330686E+03   -0.49622E-04   -0.54606E-04  6048   0.934E-04-0.278E-04
CGA:  13    -0.370567359052E+03   -0.28366E-04   -0.29126E-04  6048   0.551E-04-0.633E-05
CGA:  14    -0.370567373448E+03   -0.14396E-04   -0.14511E-04  6048   0.197E-04 0.673E-05
CGA:  15    -0.370567380217E+03   -0.67689E-05   -0.67668E-05  6048   0.651E-05 0.326E-06
  48 F= -.37056738E+03 E0= -.37056738E+03  d E =-.149655E-01  mag=    20.0000
       N       E                     dE             d eps       ncg     rms          ort
SDA:   1    -0.355847241368E+03    0.14720E+02    0.00000E+00  6048   0.349E+02 0.000E+00
CGA:   2    -0.365932382447E+03   -0.10085E+02   -0.10087E+02  6048   0.142E+02 0.977E-01
CGA:   3    -0.368485200160E+03   -0.25528E+01   -0.25556E+01  6048   0.473E+01 0.140E-01
CGA:   4    -0.369373064248E+03   -0.88786E+00   -0.88877E+00  6048   0.103E+01 0.563E-02
CGA:   5    -0.369576096224E+03   -0.20303E+00   -0.20300E+00  6048   0.329E+00-0.170E-02
CGA:   6    -0.369651459785E+03   -0.75364E-01   -0.75314E-01  6048   0.128E+00-0.125E-02
CGA:   7    -0.369684899811E+03   -0.33440E-01   -0.33450E-01  6048   0.487E-01 0.621E-03
CGA:   8    -0.369698192074E+03   -0.13292E-01   -0.13297E-01  6048   0.185E-01 0.756E-03
CGA:   9    -0.369703557988E+03   -0.53659E-02   -0.53673E-02  6048   0.554E-02-0.172E-03
CGA:  10    -0.369705222712E+03   -0.16647E-02   -0.16735E-02  6048   0.175E-02-0.324E-03
CGA:  11    -0.369705727367E+03   -0.50465E-03   -0.50883E-03  6048   0.555E-03-0.144E-03
CGA:  12    -0.369705912418E+03   -0.18505E-03   -0.19115E-03  6048   0.247E-03-0.645E-04
CGA:  13    -0.369705974644E+03   -0.62226E-04   -0.62231E-04  6048   0.878E-04 0.497E-04
CGA:  14    -0.369705999800E+03   -0.25156E-04   -0.26334E-04  6048   0.375E-04 0.331E-04
CGA:  15    -0.369706015308E+03   -0.15508E-04   -0.15328E-04  6048   0.201E-04 0.135E-04
CGA:  16    -0.369706026914E+03   -0.11606E-04   -0.11572E-04  6048   0.145E-04 0.212E-06
CGA:  17    -0.369705946745E+03    0.80169E-04   -0.43179E-04  6048   0.264E-03-0.677E-04
CGA:  18    -0.369706011415E+03   -0.64670E-04   -0.66709E-04  6048   0.515E-04 0.730E-05
CGA:  19    -0.369706024543E+03   -0.13128E-04   -0.15427E-04  6048   0.198E-04 0.102E-04
CGA:  20    -0.369706032698E+03   -0.81551E-05   -0.91586E-05  6048   0.914E-05 0.845E-05
CGA:  21    -0.369706046726E+03   -0.14028E-04    0.43004E-04  6048   0.102E-04-0.136E-05
CGA:  22    -0.369706047036E+03   -0.30985E-06   -0.13680E-05  6048   0.451E-05 0.309E-05
  49 F= -.36970605E+03 E0= -.36970605E+03  d E =0.861333E+00  mag=    20.0000
       N       E                     dE             d eps       ncg     rms          ort
SDA:   1    -0.368516146969E+03    0.11899E+01    0.00000E+00  6048   0.434E+01 0.000E+00
CGA:   2    -0.369907792998E+03   -0.13916E+01   -0.13901E+01  6048   0.127E+01-0.329E-02
CGA:   3    -0.370217558565E+03   -0.30977E+00   -0.30991E+00  6048   0.361E+00-0.139E-02
CGA:   4    -0.370279767664E+03   -0.62209E-01   -0.62298E-01  6048   0.106E+00 0.544E-03
CGA:   5    -0.370301642767E+03   -0.21875E-01   -0.22057E-01  6048   0.294E-01 0.889E-03
CGA:   6    -0.370308909193E+03   -0.72664E-02   -0.73252E-02  6048   0.139E-01 0.329E-03
CGA:   7    -0.370312445757E+03   -0.35366E-02   -0.35068E-02  6048   0.496E-02-0.190E-03
CGA:   8    -0.370313936497E+03   -0.14907E-02   -0.14773E-02  6048   0.197E-02-0.134E-03
CGA:   9    -0.370314393135E+03   -0.45664E-03   -0.47180E-03  6048   0.531E-03 0.995E-04
CGA:  10    -0.370314542841E+03   -0.14971E-03   -0.15409E-03  6048   0.154E-03 0.382E-04
CGA:  11    -0.370314589594E+03   -0.46752E-04   -0.47846E-04  6048   0.549E-04 0.115E-04
CGA:  12    -0.370314601232E+03   -0.11638E-04   -0.14185E-04  6048   0.211E-04 0.182E-04
CGA:  13    -0.370314614255E+03   -0.13024E-04   -0.15164E-04  6048   0.329E-04-0.128E-04
CGA:  14    -0.370314626283E+03   -0.12028E-04   -0.11654E-04  6048   0.139E-04-0.138E-04
CGA:  15    -0.370314625775E+03    0.50782E-06   -0.97788E-06  6048   0.802E-05 0.573E-05
  50 F= -.37031463E+03 E0= -.37031463E+03  d E =-.608579E+00  mag=    20.0000
       N       E                     dE             d eps       ncg     rms          ort
SDA:   1    -0.369874800934E+03    0.43983E+00    0.00000E+00  6048   0.149E+01 0.000E+00
CGA:   2    -0.370347246447E+03   -0.47245E+00   -0.47234E+00  6048   0.430E+00-0.221E-02
CGA:   3    -0.370448808640E+03   -0.10156E+00   -0.10152E+00  6048   0.143E+00-0.711E-03
CGA:   4    -0.370472315271E+03   -0.23507E-01   -0.23560E-01  6048   0.352E-01 0.263E-03
CGA:   5    -0.370479713297E+03   -0.73980E-02   -0.74827E-02  6048   0.103E-01 0.684E-03
CGA:   6    -0.370482160235E+03   -0.24469E-02   -0.24747E-02  6048   0.457E-02 0.290E-03
CGA:   7    -0.370483417836E+03   -0.12576E-02   -0.12497E-02  6048   0.177E-02-0.132E-03
CGA:   8    -0.370483951738E+03   -0.53390E-03   -0.53229E-03  6048   0.754E-03-0.117E-03
CGA:   9    -0.370484110152E+03   -0.15841E-03   -0.16331E-03  6048   0.188E-03 0.541E-04
CGA:  10    -0.370484154605E+03   -0.44453E-04   -0.47640E-04  6048   0.555E-04 0.390E-04
CGA:  11    -0.370484168553E+03   -0.13948E-04   -0.15316E-04  6048   0.197E-04 0.160E-04
CGA:  12    -0.370484172940E+03   -0.43870E-05   -0.53713E-05  6048   0.877E-05 0.100E-04
CGA:  13    -0.370484143284E+03    0.29657E-04   -0.16285E-04  6048   0.195E-03-0.281E-04
CGA:  14    -0.370484189181E+03   -0.45897E-04   -0.44800E-04  6048   0.103E-04-0.344E-05
CGA:  15    -0.370484187789E+03    0.13921E-05   -0.12114E-05  6048   0.405E-05 0.619E-05
  51 F= -.37048419E+03 E0= -.37048419E+03  d E =-.169562E+00  mag=    20.0000
       N       E                     dE             d eps       ncg     rms          ort
SDA:   1    -0.369900576036E+03    0.58361E+00    0.00000E+00  6048   0.165E+01 0.000E+00
CGA:   2    -0.370411463330E+03   -0.51089E+00   -0.51037E+00  6048   0.469E+00-0.109E-02
CGA:   3    -0.370517676951E+03   -0.10621E+00   -0.10610E+00  6048   0.183E+00-0.788E-03
CGA:   4    -0.370547610867E+03   -0.29934E-01   -0.30008E-01  6048   0.373E-01 0.228E-03
CGA:   5    -0.370555356758E+03   -0.77459E-02   -0.78926E-02  6048   0.119E-01 0.597E-03
CGA:   6    -0.370558037701E+03   -0.26809E-02   -0.27394E-02  6048   0.479E-02 0.261E-03
CGA:   7    -0.370559403898E+03   -0.13662E-02   -0.13465E-02  6048   0.197E-02-0.123E-03
CGA:   8    -0.370559984805E+03   -0.58091E-03   -0.56853E-03  6048   0.805E-03-0.944E-04
CGA:   9    -0.370560167464E+03   -0.18266E-03   -0.18820E-03  6048   0.200E-03 0.314E-04
CGA:  10    -0.370560214521E+03   -0.47057E-04   -0.51744E-04  6048   0.531E-04 0.286E-04
CGA:  11    -0.370560223853E+03   -0.93320E-05   -0.12899E-04  6048   0.173E-04 0.185E-04
  52 F= -.37056022E+03 E0= -.37056022E+03  d E =-.760361E-01  mag=    20.0000
       N       E                     dE             d eps       ncg     rms          ort
SDA:   1    -0.370478153707E+03    0.82061E-01    0.00000E+00  6048   0.245E+00 0.000E+00
CGA:   2    -0.370552043275E+03   -0.73890E-01   -0.73830E-01  6048   0.735E-01-0.639E-03
CGA:   3    -0.370567613177E+03   -0.15570E-01   -0.15521E-01  6048   0.306E-01-0.327E-03
CGA:   4    -0.370572780308E+03   -0.51671E-02   -0.51865E-02  6048   0.568E-02 0.811E-04
CGA:   5    -0.370573864584E+03   -0.10843E-02   -0.11286E-02  6048   0.174E-02 0.267E-03
CGA:   6    -0.370574247358E+03   -0.38277E-03   -0.40068E-03  6048   0.644E-03 0.132E-03
CGA:   7    -0.370574460639E+03   -0.21328E-03   -0.21115E-03  6048   0.335E-03-0.491E-04
CGA:   8    -0.370574555333E+03   -0.94694E-04   -0.92985E-04  6048   0.146E-03-0.374E-04
CGA:   9    -0.370574584739E+03   -0.29406E-04   -0.30203E-04  6048   0.364E-04 0.720E-05
CGA:  10    -0.370574591334E+03   -0.65951E-05   -0.78664E-05  6048   0.113E-04 0.960E-05
  53 F= -.37057459E+03 E0= -.37057459E+03  d E =-.143675E-01  mag=    20.0000
       N       E                     dE             d eps       ncg     rms          ort
SDA:   1    -0.370450113013E+03    0.12447E+00    0.00000E+00  6048   0.336E+00 0.000E+00
CGA:   2    -0.370549165417E+03   -0.99052E-01   -0.99030E-01  6048   0.113E+00-0.770E-03
CGA:   3    -0.370571387162E+03   -0.22222E-01   -0.22170E-01  6048   0.445E-01-0.485E-03
CGA:   4    -0.370579308808E+03   -0.79216E-02   -0.79371E-02  6048   0.866E-02 0.973E-04
CGA:   5    -0.370580922559E+03   -0.16138E-02   -0.16510E-02  6048   0.264E-02 0.313E-03
CGA:   6    -0.370581510917E+03   -0.58836E-03   -0.60181E-03  6048   0.951E-03 0.164E-03
CGA:   7    -0.370581805707E+03   -0.29479E-03   -0.29452E-03  6048   0.454E-03-0.416E-04
CGA:   8    -0.370581938266E+03   -0.13256E-03   -0.13302E-03  6048   0.208E-03-0.533E-04
CGA:   9    -0.370581985380E+03   -0.47114E-04   -0.46977E-04  6048   0.545E-04-0.326E-05
CGA:  10    -0.370581995581E+03   -0.10201E-04   -0.11270E-04  6048   0.152E-04 0.125E-04
CGA:  11    -0.370581996848E+03   -0.12675E-05   -0.26721E-05  6048   0.623E-05 0.944E-05
  54 F= -.37058200E+03 E0= -.37058200E+03  d E =-.740551E-02  mag=    20.0000
       N       E                     dE             d eps       ncg     rms          ort
SDA:   1    -0.370581281052E+03    0.71453E-03    0.00000E+00  6048   0.259E-02 0.000E+00
CGA:   2    -0.370581821958E+03   -0.54091E-03   -0.54168E-03  6048   0.139E-02 0.893E-05
CGA:   3    -0.370582091089E+03   -0.26913E-03   -0.26837E-03  6048   0.380E-03-0.999E-05
CGA:   4    -0.370582156607E+03   -0.65519E-04   -0.65851E-04  6048   0.836E-04 0.333E-05
CGA:   5    -0.370582174044E+03   -0.17436E-04   -0.16980E-04  6048   0.263E-04-0.708E-05
CGA:   6    -0.370582155340E+03    0.18703E-04   -0.19338E-04  6048   0.283E-03-0.706E-04
CGA:   7    -0.370582184321E+03   -0.28981E-04   -0.33496E-04  6048   0.269E-04 0.262E-04
CGA:   8    -0.370582186158E+03   -0.18369E-05   -0.38035E-05  6048   0.813E-05 0.129E-04
  55 F= -.37058219E+03 E0= -.37058219E+03  d E =-.189310E-03  mag=    20.0000
       N       E                     dE             d eps       ncg     rms          ort
SDA:   1    -0.370561180089E+03    0.21004E-01    0.00000E+00  6048   0.647E-01 0.000E+00
CGA:   2    -0.370573851982E+03   -0.12672E-01   -0.12682E-01  6048   0.330E-01 0.875E-04
CGA:   3    -0.370580444451E+03   -0.65925E-02   -0.65821E-02  6048   0.958E-02-0.184E-03
CGA:   4    -0.370582128477E+03   -0.16840E-02   -0.16798E-02  6048   0.212E-02-0.549E-04
CGA:   5    -0.370582504796E+03   -0.37632E-03   -0.37812E-03  6048   0.528E-03 0.232E-04
CGA:   6    -0.370582625487E+03   -0.12069E-03   -0.12009E-03  6048   0.179E-03-0.236E-04
CGA:   7    -0.370582669907E+03   -0.44420E-04   -0.44644E-04  6048   0.708E-04-0.194E-04
CGA:   8    -0.370582683424E+03   -0.13517E-04   -0.13778E-04  6048   0.214E-04 0.812E-05
CGA:   9    -0.370582689721E+03   -0.62976E-05   -0.62651E-05  6048   0.772E-05 0.223E-05
CGA:  10    -0.370582650800E+03    0.38922E-04   -0.20990E-04  6048   0.223E-03-0.398E-04
CGA:  11    -0.370582685382E+03   -0.34582E-04   -0.39490E-04  6048   0.254E-04 0.176E-04
CGA:  12    -0.370582692877E+03   -0.74952E-05   -0.79211E-05  6048   0.568E-05 0.280E-05
  56 F= -.37058269E+03 E0= -.37058269E+03  d E =-.506718E-03  mag=    20.0000
       N       E                     dE             d eps       ncg     rms          ort
SDA:   1    -0.370577743526E+03    0.49419E-02    0.00000E+00  6048   0.148E-01 0.000E+00
CGA:   2    -0.370580755200E+03   -0.30117E-02   -0.30233E-02  6048   0.793E-02 0.362E-04
CGA:   3    -0.370582316000E+03   -0.15608E-02   -0.15502E-02  6048   0.207E-02-0.502E-04
CGA:   4    -0.370582674748E+03   -0.35875E-03   -0.35338E-03  6048   0.462E-03-0.227E-04
CGA:   5    -0.370582755804E+03   -0.81056E-04   -0.81607E-04  6048   0.116E-03 0.230E-05
CGA:   6    -0.370582783097E+03   -0.27293E-04   -0.26202E-04  6048   0.369E-04-0.659E-05
CGA:   7    -0.370582792655E+03   -0.95579E-05   -0.89918E-05  6048   0.143E-04-0.454E-05
  57 F= -.37058279E+03 E0= -.37058279E+03  d E =-.997786E-04  mag=    20.0000
       N       E                     dE             d eps       ncg     rms          ort
SDA:   1    -0.370236778935E+03    0.34600E+00    0.00000E+00  6048   0.107E+01 0.000E+00
CGA:   2    -0.370434506923E+03   -0.19773E+00   -0.19815E+00  6048   0.535E+00 0.103E-02
CGA:   3    -0.370545170878E+03   -0.11066E+00   -0.11059E+00  6048   0.159E+00-0.827E-03
CGA:   4    -0.370572248522E+03   -0.27078E-01   -0.26966E-01  6048   0.326E-01-0.661E-03
CGA:   5    -0.370578093724E+03   -0.58452E-02   -0.58496E-02  6048   0.833E-02 0.165E-04
CGA:   6    -0.370579848512E+03   -0.17548E-02   -0.17590E-02  6048   0.242E-02 0.300E-04
CGA:   7    -0.370580420097E+03   -0.57159E-03   -0.56895E-03  6048   0.755E-03-0.296E-04
CGA:   8    -0.370580612875E+03   -0.19278E-03   -0.19326E-03  6048   0.268E-03 0.704E-05
CGA:   9    -0.370580693843E+03   -0.80968E-04   -0.80877E-04  6048   0.963E-04-0.441E-05
CGA:  10    -0.370580726115E+03   -0.32272E-04   -0.32616E-04  6048   0.425E-04-0.136E-04
CGA:  11    -0.370580733253E+03   -0.71381E-05   -0.80143E-05  6048   0.128E-04 0.872E-05
  58 F= -.37058073E+03 E0= -.37058073E+03  d E =0.205940E-02  mag=    20.0000
       N       E                     dE             d eps       ncg     rms          ort
SDA:   1    -0.370561583124E+03    0.19143E-01    0.00000E+00  6048   0.527E-01 0.000E+00
CGA:   2    -0.370573104224E+03   -0.11521E-01   -0.11534E-01  6048   0.276E-01 0.966E-04
CGA:   3    -0.370578158217E+03   -0.50540E-02   -0.50782E-02  6048   0.775E-02 0.185E-03
CGA:   4    -0.370579552769E+03   -0.13946E-02   -0.13965E-02  6048   0.177E-02 0.140E-04
CGA:   5    -0.370579899305E+03   -0.34654E-03   -0.34185E-03  6048   0.522E-03-0.478E-04
CGA:   6    -0.370580008169E+03   -0.10886E-03   -0.10830E-03  6048   0.162E-03-0.781E-05
CGA:   7    -0.370580041878E+03   -0.33708E-04   -0.34947E-04  6048   0.518E-04 0.193E-04
CGA:   8    -0.370580055260E+03   -0.13383E-04   -0.13788E-04  6048   0.187E-04 0.959E-05
[...]
CGA:   2    -0.369929125063E+03   -0.14627E+01   -0.14627E+01  6048   0.265E+01 0.820E-02
CGA:   3    -0.370387311940E+03   -0.45819E+00   -0.45835E+00  6048   0.639E+00 0.252E-03
CGA:   4    -0.370493321745E+03   -0.10601E+00   -0.10580E+00  6048   0.116E+00-0.215E-02
CGA:   5    -0.370515789942E+03   -0.22468E-01   -0.22418E-01  6048   0.337E-01-0.694E-03
CGA:   6    -0.370522404906E+03   -0.66150E-02   -0.66386E-02  6048   0.869E-02 0.337E-03
CGA:   7    -0.370524555677E+03   -0.21508E-02   -0.21552E-02  6048   0.330E-02 0.266E-03
CGA:   8    -0.370525564384E+03   -0.10087E-02   -0.10088E-02  6048   0.163E-02-0.321E-05
CGA:   9    -0.370526102162E+03   -0.53778E-03   -0.53828E-03  6048   0.727E-03-0.755E-05
CGA:  10    -0.370526326588E+03   -0.22443E-03   -0.22437E-03  6048   0.267E-03 0.935E-06
CGA:  11    -0.370526414936E+03   -0.88348E-04   -0.88983E-04  6048   0.114E-03-0.989E-05
CGA:  12    -0.370526451676E+03   -0.36741E-04   -0.35988E-04  6048   0.503E-04 0.132E-04
CGA:  13    -0.370526474338E+03   -0.22662E-04   -0.22347E-04  6048   0.279E-04 0.251E-05
CGA:  14    -0.370526486492E+03   -0.12154E-04   -0.12572E-04  6048   0.130E-04-0.283E-05
CGA:  15    -0.370526489945E+03   -0.34528E-05   -0.34461E-05  6048   0.346E-05 0.103E-05
  68 F= -.37052649E+03 E0= -.37052649E+03  d E =0.282412E-01  mag=    20.0000
       N       E                     dE             d eps       ncg     rms          ort
SDA:   1    -0.370445004214E+03    0.81482E-01    0.00000E+00  6048   0.207E+00 0.000E+00
CGA:   2    -0.370499065502E+03   -0.54061E-01   -0.54113E-01  6048   0.100E+00 0.750E-03
CGA:   3    -0.370516983892E+03   -0.17918E-01   -0.17893E-01  6048   0.272E-01-0.250E-03
CGA:   4    -0.370521731550E+03   -0.47477E-02   -0.47239E-02  6048   0.549E-02-0.180E-03
CGA:   5    -0.370522762892E+03   -0.10313E-02   -0.10395E-02  6048   0.157E-02 0.698E-04
CGA:   6    -0.370523086371E+03   -0.32348E-03   -0.32850E-03  6048   0.472E-03 0.532E-04
CGA:   7    -0.370523217049E+03   -0.13068E-03   -0.13073E-03  6048   0.198E-03 0.177E-05
CGA:   8    -0.370523271884E+03   -0.54835E-04   -0.54920E-04  6048   0.817E-04 0.476E-05
CGA:   9    -0.370523296016E+03   -0.24132E-04   -0.24151E-04  6048   0.279E-04 0.507E-05
CGA:  10    -0.370523303124E+03   -0.71073E-05   -0.73603E-05  6048   0.878E-05 0.571E-05
  69 F= -.37052330E+03 E0= -.37052330E+03  d E =0.318682E-02  mag=    20.0000
       N       E                     dE             d eps       ncg     rms          ort
SDA:   1    -0.370393544352E+03    0.12975E+00    0.00000E+00  6048   0.312E+00 0.000E+00
CGA:   2    -0.370485460126E+03   -0.91916E-01   -0.91905E-01  6048   0.142E+00 0.113E-02
CGA:   3    -0.370510008656E+03   -0.24549E-01   -0.24577E-01  6048   0.345E-01 0.166E-03
CGA:   4    -0.370515694959E+03   -0.56863E-02   -0.56506E-02  6048   0.649E-02-0.316E-03
CGA:   5    -0.370517017236E+03   -0.13223E-02   -0.13085E-02  6048   0.193E-02-0.195E-03
CGA:   6    -0.370517369172E+03   -0.35194E-03   -0.35486E-03  6048   0.485E-03 0.348E-04
CGA:   7    -0.370517477378E+03   -0.10821E-03   -0.11083E-03  6048   0.165E-03 0.617E-04
CGA:   8    -0.370517534004E+03   -0.56626E-04   -0.56440E-04  6048   0.931E-04 0.485E-05
CGA:   9    -0.370517564856E+03   -0.30852E-04   -0.30714E-04  6048   0.449E-04 0.254E-05
CGA:  10    -0.370517578216E+03   -0.13360E-04   -0.13336E-04  6048   0.167E-04 0.120E-05
CGA:  11    -0.370517570124E+03    0.80918E-05   -0.16317E-04  6048   0.104E-03-0.358E-04
CGA:  12    -0.370517584835E+03   -0.14711E-04   -0.17726E-04  6048   0.118E-04 0.224E-04
CGA:  13    -0.370517587607E+03   -0.27715E-05   -0.30864E-05  6048   0.352E-05 0.378E-05
  70 F= -.37051759E+03 E0= -.37051759E+03  d E =0.571552E-02  mag=    20.0000
       N       E                     dE             d eps       ncg     rms          ort
SDA:   1    -0.370064052028E+03    0.45353E+00    0.00000E+00  6048   0.111E+01 0.000E+00
CGA:   2    -0.370397454391E+03   -0.33340E+00   -0.33337E+00  6048   0.442E+00 0.299E-02
CGA:   3    -0.370481258450E+03   -0.83804E-01   -0.83816E-01  6048   0.109E+00-0.725E-04
CGA:   4    -0.370498140724E+03   -0.16882E-01   -0.16794E-01  6048   0.209E-01-0.710E-03
CGA:   5    -0.370502534596E+03   -0.43939E-02   -0.43677E-02  6048   0.574E-02-0.370E-03
CGA:   6    -0.370503600476E+03   -0.10659E-02   -0.10749E-02  6048   0.159E-02 0.100E-03
CGA:   7    -0.370503991027E+03   -0.39055E-03   -0.39379E-03  6048   0.576E-03 0.109E-03
CGA:   8    -0.370504186329E+03   -0.19530E-03   -0.19540E-03  6048   0.339E-03-0.234E-05
CGA:   9    -0.370504290113E+03   -0.10378E-03   -0.10314E-03  6048   0.140E-03 0.206E-04
CGA:  10    -0.370504339426E+03   -0.49312E-04   -0.50055E-04  6048   0.630E-04-0.121E-04
CGA:  11    -0.370504358453E+03   -0.19027E-04   -0.31507E-04  6048   0.865E-04-0.464E-04
CGA:  12    -0.370504367832E+03   -0.93795E-05   -0.13186E-04  6048   0.148E-04 0.271E-04
  71 F= -.37050437E+03 E0= -.37050437E+03  d E =0.132198E-01  mag=    20.0000
       N       E                     dE             d eps       ncg     rms          ort
SDA:   1    -0.360069377880E+03    0.10435E+02    0.00000E+00  6048   0.267E+02 0.000E+00
CGA:   2    -0.366751602268E+03   -0.66822E+01   -0.66842E+01  6048   0.144E+02 0.315E-01
CGA:   3    -0.369254160355E+03   -0.25026E+01   -0.25049E+01  6048   0.361E+01 0.438E-02
CGA:   4    -0.369911485843E+03   -0.65733E+00   -0.65693E+00  6048   0.810E+00-0.527E-02
CGA:   5    -0.370060028093E+03   -0.14854E+00   -0.14886E+00  6048   0.219E+00 0.341E-02
CGA:   6    -0.370108149136E+03   -0.48121E-01   -0.48256E-01  6048   0.739E-01 0.297E-02
CGA:   7    -0.370127189957E+03   -0.19041E-01   -0.19039E-01  6048   0.282E-01-0.227E-03
CGA:   8    -0.370135194615E+03   -0.80047E-02   -0.80247E-02  6048   0.118E-01-0.822E-03
CGA:   9    -0.370138454129E+03   -0.32595E-02   -0.32576E-02  6048   0.368E-02 0.857E-04
CGA:  10    -0.370139451354E+03   -0.99723E-03   -0.99572E-03  6048   0.109E-02 0.290E-03
CGA:  11    -0.370139760511E+03   -0.30916E-03   -0.30916E-03  6048   0.341E-03 0.172E-03
CGA:  12    -0.370139890650E+03   -0.13014E-03   -0.12758E-03  6048   0.166E-03 0.430E-04
CGA:  13    -0.370139974622E+03   -0.83972E-04   -0.93542E-04  6048   0.149E-03-0.412E-04
CGA:  14    -0.370140003025E+03   -0.28403E-04   -0.28846E-04  6048   0.750E-04 0.205E-04
CGA:  15    -0.370140021857E+03   -0.18832E-04   -0.19453E-04  6048   0.302E-04 0.126E-04
CGA:  16    -0.370140026137E+03   -0.42792E-05   -0.25530E-04  6048   0.792E-04-0.474E-04
CGA:  17    -0.370140036243E+03   -0.10106E-04   -0.14012E-04  6048   0.165E-04 0.324E-04
CGA:  18    -0.370140042050E+03   -0.58072E-05   -0.58610E-05  6048   0.373E-05 0.139E-05
  72 F= -.37014004E+03 E0= -.37014004E+03  d E =0.364326E+00  mag=    20.0000
       N       E                     dE             d eps       ncg     rms          ort
SDA:   1    -0.368999940687E+03    0.11401E+01    0.00000E+00  6048   0.344E+01 0.000E+00
CGA:   2    -0.370097497121E+03   -0.10976E+01   -0.10973E+01  6048   0.107E+01 0.593E-02
CGA:   3    -0.370343541484E+03   -0.24604E+00   -0.24626E+00  6048   0.346E+00 0.310E-02
CGA:   4    -0.370400976046E+03   -0.57435E-01   -0.57381E-01  6048   0.867E-01-0.688E-03
CGA:   5    -0.370420277384E+03   -0.19301E-01   -0.19223E-01  6048   0.274E-01-0.134E-02
CGA:   6    -0.370426612698E+03   -0.63353E-02   -0.63189E-02  6048   0.122E-01-0.381E-03
CGA:   7    -0.370429588981E+03   -0.29763E-02   -0.29801E-02  6048   0.410E-02 0.125E-03
CGA:   8    -0.370430728568E+03   -0.11396E-02   -0.11396E-02  6048   0.154E-02 0.220E-03
CGA:   9    -0.370431175816E+03   -0.44725E-03   -0.44725E-03  6048   0.504E-03-0.403E-06
CGA:  10    -0.370431351804E+03   -0.17599E-03   -0.18794E-03  6048   0.237E-03-0.122E-03
CGA:  11    -0.370431411043E+03   -0.59239E-04   -0.63617E-04  6048   0.110E-03-0.597E-04
CGA:  12    -0.370431434137E+03   -0.23094E-04   -0.23103E-04  6048   0.397E-04 0.452E-05
CGA:  13    -0.370431439693E+03   -0.55567E-05   -0.74918E-05  6048   0.186E-04 0.189E-04
  73 F= -.37043144E+03 E0= -.37043144E+03  d E =-.291398E+00  mag=    20.0000
       N       E                     dE             d eps       ncg     rms          ort
SDA:   1    -0.370218687929E+03    0.21275E+00    0.00000E+00  6048   0.633E+00 0.000E+00
CGA:   2    -0.370411983329E+03   -0.19330E+00   -0.19324E+00  6048   0.213E+00 0.129E-02
CGA:   3    -0.370455848800E+03   -0.43865E-01   -0.43997E-01  6048   0.784E-01 0.183E-02
CGA:   4    -0.370469239309E+03   -0.13391E-01   -0.13381E-01  6048   0.164E-01-0.144E-03
CGA:   5    -0.370472953495E+03   -0.37142E-02   -0.36736E-02  6048   0.619E-02-0.101E-02
CGA:   6    -0.370474288666E+03   -0.13352E-02   -0.13202E-02  6048   0.251E-02-0.423E-03
CGA:   7    -0.370474833038E+03   -0.54437E-03   -0.54823E-03  6048   0.779E-03 0.143E-03
CGA:   8    -0.370475006971E+03   -0.17393E-03   -0.18102E-03  6048   0.264E-03 0.179E-03
CGA:   9    -0.370475097484E+03   -0.90514E-04   -0.90079E-04  6048   0.107E-03 0.223E-04
CGA:  10    -0.370475127333E+03   -0.29848E-04   -0.67598E-04  6048   0.223E-03-0.116E-03
CGA:  11    -0.370475164710E+03   -0.37377E-04   -0.38855E-04  6048   0.239E-04 0.146E-04
CGA:  12    -0.370475174238E+03   -0.95278E-05   -0.10324E-04  6048   0.111E-04-0.591E-05
  74 F= -.37047517E+03 E0= -.37047517E+03  d E =-.437345E-01  mag=    20.0000
       N       E                     dE             d eps       ncg     rms          ort
SDA:   1    -0.370317598404E+03    0.15757E+00    0.00000E+00  6048   0.445E+00 0.000E+00
CGA:   2    -0.370443083606E+03   -0.12549E+00   -0.12548E+00  6048   0.172E+00 0.733E-03
CGA:   3    -0.370473926676E+03   -0.30843E-01   -0.31019E-01  6048   0.607E-01 0.170E-02
CGA:   4    -0.370485432440E+03   -0.11506E-01   -0.11530E-01  6048   0.128E-01 0.263E-03
CGA:   5    -0.370488125652E+03   -0.26932E-02   -0.26331E-02  6048   0.461E-02-0.962E-03
CGA:   6    -0.370489195349E+03   -0.10697E-02   -0.10587E-02  6048   0.208E-02-0.676E-03
CGA:   7    -0.370489574499E+03   -0.37915E-03   -0.38496E-03  6048   0.620E-03 0.122E-03
CGA:   8    -0.370489672250E+03   -0.97751E-04   -0.11627E-03  6048   0.207E-03 0.219E-03
CGA:   9    -0.370489718193E+03   -0.45943E-04   -0.52228E-04  6048   0.821E-04 0.883E-04
CGA:  10    -0.370489758608E+03   -0.40415E-04   -0.49019E-04  6048   0.882E-04-0.521E-04
CGA:  11    -0.370489778645E+03   -0.20038E-04   -0.19983E-04  6048   0.126E-04-0.156E-05
CGA:  12    -0.370489799530E+03   -0.20885E-04    0.72229E-06  6048   0.286E-05 0.201E-05
CGA:  13    -0.370489799544E+03   -0.14090E-07   -0.38500E-06  6048   0.192E-05 0.257E-05
  75 F= -.37048980E+03 E0= -.37048980E+03  d E =-.146253E-01  mag=    20.0000
       N       E                     dE             d eps       ncg     rms          ort
SDA:   1    -0.370443847968E+03    0.45952E-01    0.00000E+00  6048   0.143E+00 0.000E+00
CGA:   2    -0.370478330758E+03   -0.34483E-01   -0.34483E-01  6048   0.679E-01 0.706E-04
CGA:   3    -0.370489839879E+03   -0.11509E-01   -0.11587E-01  6048   0.196E-01 0.105E-02
CGA:   4    -0.370493706463E+03   -0.38666E-02   -0.38845E-02  6048   0.483E-02 0.412E-03
CGA:   5    -0.370494708426E+03   -0.10020E-02   -0.98463E-03  6048   0.156E-02-0.476E-03
CGA:   6    -0.370495083202E+03   -0.37478E-03   -0.40168E-03  6048   0.103E-02-0.525E-03
CGA:   7    -0.370495213570E+03   -0.13037E-03   -0.13115E-03  6048   0.324E-03 0.169E-04
CGA:   8    -0.370495237749E+03   -0.24179E-04   -0.40147E-04  6048   0.132E-03 0.141E-03
CGA:   9    -0.370495244306E+03   -0.65575E-05   -0.19004E-04  6048   0.577E-04 0.963E-04
CGA:  10    -0.370495261040E+03   -0.16733E-04   -0.15921E-04  6048   0.208E-04 0.152E-04
CGA:  11    -0.370495265982E+03   -0.49425E-05   -0.52534E-05  6048   0.710E-05 0.121E-04
  76 F= -.37049527E+03 E0= -.37049527E+03  d E =-.546644E-02  mag=    20.0000
       N       E                     dE             d eps       ncg     rms          ort
SDA:   1    -0.370482615934E+03    0.12645E-01    0.00000E+00  6048   0.480E-01 0.000E+00
CGA:   2    -0.370491781851E+03   -0.91659E-02   -0.91580E-02  6048   0.232E-01-0.287E-03
CGA:   3    -0.370496210201E+03   -0.44284E-02   -0.44401E-02  6048   0.705E-02 0.385E-03
CGA:   4    -0.370497469277E+03   -0.12591E-02   -0.12722E-02  6048   0.161E-02 0.298E-03
CGA:   5    -0.370497794660E+03   -0.32538E-03   -0.32429E-03  6048   0.460E-03-0.428E-04
CGA:   6    -0.370497910305E+03   -0.11564E-03   -0.12336E-03  6048   0.264E-03-0.133E-03
CGA:   7    -0.370497947982E+03   -0.37677E-04   -0.37663E-04  6048   0.855E-04-0.836E-06
CGA:   8    -0.370497955560E+03   -0.75783E-05   -0.10949E-04  6048   0.340E-04 0.371E-04
  77 F= -.37049796E+03 E0= -.37049796E+03  d E =-.268958E-02  mag=    20.0000
       N       E                     dE             d eps       ncg     rms          ort
SDA:   1    -0.370487112709E+03    0.10835E-01    0.00000E+00  6048   0.462E-01 0.000E+00
CGA:   2    -0.370494559836E+03   -0.74471E-02   -0.74334E-02  6048   0.183E-01-0.340E-03
CGA:   3    -0.370498479130E+03   -0.39193E-02   -0.39177E-02  6048   0.696E-02 0.180E-03
CGA:   4    -0.370499695569E+03   -0.12164E-02   -0.12255E-02  6048   0.152E-02 0.273E-03
CGA:   5    -0.370499968365E+03   -0.27280E-03   -0.27511E-03  6048   0.361E-03 0.738E-04
CGA:   6    -0.370500050063E+03   -0.81699E-04   -0.81613E-04  6048   0.115E-03 0.710E-05
CGA:   7    -0.370500077928E+03   -0.27864E-04   -0.27749E-04  6048   0.389E-04 0.358E-05
CGA:   8    -0.370500086875E+03   -0.89470E-05   -0.88317E-05  6048   0.130E-04 0.808E-05
  78 F= -.37050009E+03 E0= -.37050009E+03  d E =-.213131E-02  mag=    20.0000
       N       E                     dE             d eps       ncg     rms          ort
SDA:   1    -0.370414362694E+03    0.85715E-01    0.00000E+00  6048   0.332E+00 0.000E+00
CGA:   2    -0.370465746213E+03   -0.51384E-01   -0.51385E-01  6048   0.123E+00-0.416E-03
CGA:   3    -0.370493031669E+03   -0.27285E-01   -0.27280E-01  6048   0.503E-01 0.254E-03
CGA:   4    -0.370502165636E+03   -0.91340E-02   -0.91471E-02  6048   0.113E-01 0.499E-03
CGA:   5    -0.370504124899E+03   -0.19593E-02   -0.19670E-02  6048   0.258E-02 0.229E-03
CGA:   6    -0.370504661093E+03   -0.53619E-03   -0.53624E-03  6048   0.746E-03 0.112E-03
CGA:   7    -0.370504843325E+03   -0.18223E-03   -0.18139E-03  6048   0.240E-03 0.280E-04
CGA:   8    -0.370504912390E+03   -0.69065E-04   -0.69567E-04  6048   0.102E-03-0.691E-05
CGA:   9    -0.370504942683E+03   -0.30293E-04   -0.30627E-04  6048   0.419E-04-0.346E-05
CGA:  10    -0.370504952946E+03   -0.10263E-04   -0.10016E-04  6048   0.143E-04 0.741E-05
CGA:  11    -0.370504956197E+03   -0.32514E-05   -0.33598E-05  6048   0.603E-05 0.686E-05
  79 F= -.37050496E+03 E0= -.37050496E+03  d E =-.486932E-02  mag=    20.0000
       N       E                     dE             d eps       ncg     rms          ort
SDA:   1    -0.370431833252E+03    0.73120E-01    0.00000E+00  6048   0.269E+00 0.000E+00
CGA:   2    -0.370476364752E+03   -0.44532E-01   -0.44527E-01  6048   0.110E+00-0.422E-03
CGA:   3    -0.370499638118E+03   -0.23273E-01   -0.23273E-01  6048   0.402E-01 0.282E-03
CGA:   4    -0.370506877225E+03   -0.72391E-02   -0.72514E-02  6048   0.895E-02 0.373E-03
CGA:   5    -0.370508453223E+03   -0.15760E-02   -0.15788E-02  6048   0.211E-02 0.769E-04
CGA:   6    -0.370508901936E+03   -0.44871E-03   -0.44866E-03  6048   0.649E-03 0.317E-04
CGA:   7    -0.370509057642E+03   -0.15571E-03   -0.15536E-03  6048   0.215E-03 0.122E-04
CGA:   8    -0.370509117828E+03   -0.60186E-04   -0.60168E-04  6048   0.898E-04 0.130E-06
CGA:   9    -0.370509146300E+03   -0.28472E-04   -0.28758E-04  6048   0.395E-04-0.276E-05
CGA:  10    -0.370509158442E+03   -0.12142E-04   -0.12176E-04  6048   0.170E-04-0.366E-06
CGA:  11    -0.370509163191E+03   -0.47483E-05   -0.45991E-05  6048   0.587E-05 0.299E-05
  80 F= -.37050916E+03 E0= -.37050916E+03  d E =-.420699E-02  mag=    20.0000
       N       E                     dE             d eps       ncg     rms          ort
SDA:   1    -0.370213801497E+03    0.29536E+00    0.00000E+00  6048   0.102E+01 0.000E+00
CGA:   2    -0.370390251972E+03   -0.17645E+00   -0.17655E+00  6048   0.439E+00 0.150E-03
CGA:   3    -0.370480675340E+03   -0.90423E-01   -0.90437E-01  6048   0.149E+00 0.235E-03
CGA:   4    -0.370507821082E+03   -0.27146E-01   -0.27151E-01  6048   0.338E-01 0.665E-04
CGA:   5    -0.370513765993E+03   -0.59449E-02   -0.59462E-02  6048   0.817E-02 0.129E-04
CGA:   6    -0.370515477099E+03   -0.17111E-02   -0.17137E-02  6048   0.248E-02 0.138E-03
CGA:   7    -0.370516069952E+03   -0.59285E-03   -0.59245E-03  6048   0.818E-03 0.470E-04
CGA:   8    -0.370516307199E+03   -0.23725E-03   -0.23932E-03  6048   0.366E-03-0.353E-04
CGA:   9    -0.370516415276E+03   -0.10808E-03   -0.10947E-03  6048   0.151E-03-0.172E-04
CGA:  10    -0.370516456185E+03   -0.40909E-04   -0.40362E-04  6048   0.550E-04 0.117E-04
CGA:  11    -0.370516471705E+03   -0.15520E-04   -0.15237E-04  6048   0.203E-04 0.142E-04
CGA:  12    -0.370516480521E+03   -0.88161E-05   -0.86902E-05  6048   0.115E-04 0.121E-05
  81 F= -.37051648E+03 E0= -.37051648E+03  d E =-.731733E-02  mag=    20.0000
       N       E                     dE             d eps       ncg     rms          ort
SDA:   1    -0.370502238423E+03    0.14233E-01    0.00000E+00  6048   0.454E-01 0.000E+00
CGA:   2    -0.370510496417E+03   -0.82580E-02   -0.82738E-02  6048   0.213E-01 0.134E-03
CGA:   3    -0.370514939488E+03   -0.44431E-02   -0.44331E-02  6048   0.724E-02-0.191E-03
CGA:   4    -0.370516227004E+03   -0.12875E-02   -0.12797E-02  6048   0.162E-02-0.975E-04
CGA:   5    -0.370516490252E+03   -0.26325E-03   -0.27010E-03  6048   0.372E-03 0.782E-04
CGA:   6    -0.370516554751E+03   -0.64499E-04   -0.69734E-04  6048   0.103E-03 0.712E-04
CGA:   7    -0.370516581759E+03   -0.27007E-04   -0.27404E-04  6048   0.379E-04 0.163E-04
CGA:   8    -0.370516593950E+03   -0.12192E-04   -0.22744E-04  6048   0.806E-04-0.391E-04
CGA:   9    -0.370516603608E+03   -0.96578E-05   -0.11350E-04  6048   0.102E-04 0.141E-04
  82 F= -.37051660E+03 E0= -.37051660E+03  d E =-.123087E-03  mag=    20.0000
       N       E                     dE             d eps       ncg     rms          ort
SDA:   1    -0.370508430393E+03    0.81636E-02    0.00000E+00  6048   0.271E-01 0.000E+00
CGA:   2    -0.370512699811E+03   -0.42694E-02   -0.42959E-02  6048   0.104E-01 0.262E-03
CGA:   3    -0.370514999002E+03   -0.22992E-02   -0.23006E-02  6048   0.402E-02 0.471E-04
CGA:   4    -0.370515757813E+03   -0.75881E-03   -0.75501E-03  6048   0.968E-03-0.689E-04
CGA:   5    -0.370515935097E+03   -0.17728E-03   -0.17436E-03  6048   0.251E-03-0.514E-04
CGA:   6    -0.370515994600E+03   -0.59504E-04   -0.60536E-04  6048   0.118E-03-0.605E-04
CGA:   7    -0.370516014200E+03   -0.19599E-04   -0.19414E-04  6048   0.357E-04-0.868E-05
CGA:   8    -0.370516017648E+03   -0.34484E-05   -0.47224E-05  6048   0.121E-04 0.135E-04
  83 F= -.37051602E+03 E0= -.37051602E+03  d E =0.585960E-03  mag=    20.0000
       N       E                     dE             d eps       ncg     rms          ort
SDA:   1    -0.370501173364E+03    0.14841E-01    0.00000E+00  6048   0.517E-01 0.000E+00
CGA:   2    -0.370509517477E+03   -0.83441E-02   -0.83629E-02  6048   0.212E-01 0.230E-03
CGA:   3    -0.370514250029E+03   -0.47326E-02   -0.47325E-02  6048   0.800E-02-0.212E-04
CGA:   4    -0.370515668584E+03   -0.14186E-02   -0.14159E-02  6048   0.176E-02-0.604E-04
CGA:   5    -0.370515985475E+03   -0.31689E-03   -0.31500E-03  6048   0.444E-03-0.476E-04
CGA:   6    -0.370516088369E+03   -0.10289E-03   -0.10463E-03  6048   0.175E-03-0.731E-04
CGA:   7    -0.370516121763E+03   -0.33394E-04   -0.33557E-04  6048   0.547E-04-0.174E-04
CGA:   8    -0.370516129054E+03   -0.72906E-05   -0.81302E-05  6048   0.154E-04 0.152E-04
  84 F= -.37051613E+03 E0= -.37051613E+03  d E =-.111405E-03  mag=    20.0000
