       N       E                     dE             d eps       ncg     rms          rms(c)
DAV:   1     0.290453701199E+04    0.29045E+04   -0.13853E+05 31140   0.150E+03
DAV:   2     0.929198776904E+01   -0.28952E+04   -0.27088E+04 32580   0.426E+02
DAV:   3    -0.312565330529E+03   -0.32186E+03   -0.31735E+03 35412   0.152E+02
DAV:   4    -0.324142018323E+03   -0.11577E+02   -0.11397E+02 42792   0.277E+01
DAV:   5    -0.324847823446E+03   -0.70581E+00   -0.70452E+00 50484   0.496E+00    0.697E+01
DAV:   6    -0.284663978041E+03    0.40184E+02   -0.28065E+02 40896   0.489E+01    0.540E+01
DAV:   7    -0.284344793196E+03    0.31918E+00   -0.44075E+01 38484   0.388E+01    0.306E+01
DAV:   8    -0.285059058855E+03   -0.71427E+00   -0.91376E+00 37932   0.666E+00    0.220E+01
DAV:   9    -0.285522486709E+03   -0.46343E+00   -0.24493E+01 38748   0.126E+01    0.244E+01
DAV:  10    -0.285031577966E+03    0.49091E+00   -0.13213E+00 40296   0.644E+00    0.121E+01
DAV:  11    -0.284648484963E+03    0.38309E+00   -0.19953E+00 43188   0.534E+00    0.464E+00
DAV:  12    -0.284711020278E+03   -0.62535E-01   -0.91509E-01 39264   0.321E+00    0.679E+00
DAV:  13    -0.284674766728E+03    0.36254E-01   -0.31289E-01 38928   0.168E+00    0.296E+00
DAV:  14    -0.284691447979E+03   -0.16681E-01   -0.30814E-01 38400   0.107E+00    0.406E+00
DAV:  15    -0.284680315213E+03    0.11133E-01   -0.73929E-02 37068   0.855E-01    0.969E-01
DAV:  16    -0.284687330202E+03   -0.70150E-02   -0.57240E-02 42300   0.349E-01    0.171E+00
DAV:  17    -0.284685774716E+03    0.15555E-02   -0.75299E-03 35052   0.336E-01    0.916E-01
DAV:  18    -0.284685832909E+03   -0.58193E-04   -0.51519E-03 41520   0.156E-01    0.440E-01
DAV:  19    -0.284686473074E+03   -0.64017E-03   -0.62553E-03 37656   0.120E-01    0.518E-01
DAV:  20    -0.284686524837E+03   -0.51764E-04   -0.24341E-04 33636   0.836E-02    0.468E-01
DAV:  21    -0.284686347229E+03    0.17761E-03   -0.87719E-04 41172   0.542E-02    0.136E-01
DAV:  22    -0.284686426997E+03   -0.79768E-04   -0.34264E-04 30996   0.244E-02    0.634E-02
DAV:  23    -0.284686447346E+03   -0.20350E-04   -0.12083E-05 23460   0.160E-02    0.752E-02
DAV:  24    -0.284686444422E+03    0.29244E-05   -0.70544E-06 20772   0.776E-03
   1 F= -.28468644E+03 E0= -.28468433E+03  d E =-.284686E+03  mag=    17.9995
       N       E                     dE             d eps       ncg     rms          rms(c)
DAV:   1    -0.284687734327E+03   -0.12870E-02   -0.42705E-04 33492   0.803E-02    0.194E-02
DAV:   2    -0.284687750830E+03   -0.16503E-04   -0.18541E-04 30120   0.284E-02    0.145E-01
DAV:   3    -0.284687733949E+03    0.16880E-04   -0.50990E-05 21396   0.248E-02    0.519E-02
DAV:   4    -0.284687735988E+03   -0.20385E-05   -0.28902E-05 18804   0.638E-03
   2 F= -.28468774E+03 E0= -.28468561E+03  d E =-.129157E-02  mag=    17.9999
       N       E                     dE             d eps       ncg     rms          rms(c)
DAV:   1    -0.284733847089E+03   -0.46113E-01   -0.68666E-01 31956   0.325E+00    0.440E-01
DAV:   2    -0.284738740842E+03   -0.48938E-02   -0.57108E-02 35268   0.693E-01    0.145E+00
DAV:   3    -0.284737138141E+03    0.16027E-02   -0.16406E-02 38424   0.386E-01    0.257E-01
DAV:   4    -0.284737568396E+03   -0.43026E-03   -0.13858E-03 39528   0.113E-01    0.420E-01
DAV:   5    -0.284737380535E+03    0.18786E-03   -0.17062E-03 40332   0.105E-01    0.209E-01
DAV:   6    -0.284737464444E+03   -0.83909E-04   -0.13701E-03 41088   0.749E-02    0.334E-01
DAV:   7    -0.284737391340E+03    0.73103E-04   -0.14129E-04 33744   0.588E-02    0.238E-01
DAV:   8    -0.284737357322E+03    0.34019E-04   -0.46870E-04 30624   0.374E-02    0.858E-02
DAV:   9    -0.284737382619E+03   -0.25297E-04   -0.11844E-04 26088   0.251E-02    0.857E-02
DAV:  10    -0.284737379932E+03    0.26866E-05   -0.13389E-05 19284   0.128E-02
   3 F= -.28473738E+03 E0= -.28473525E+03  d E =-.496439E-01  mag=    18.0000
       N       E                     dE             d eps       ncg     rms          rms(c)
DAV:   1    -0.284829001664E+03   -0.91619E-01   -0.55854E+00 31560   0.933E+00    0.121E+00
DAV:   2    -0.284869525887E+03   -0.40524E-01   -0.47191E-01 35112   0.200E+00    0.382E+00
DAV:   3    -0.284857425875E+03    0.12100E-01   -0.11639E-01 39108   0.108E+00    0.655E-01
DAV:   4    -0.284860088964E+03   -0.26631E-02   -0.10725E-02 40404   0.307E-01    0.110E+00
DAV:   5    -0.284859133114E+03    0.95585E-03   -0.12676E-02 39564   0.268E-01    0.832E-01
DAV:   6    -0.284859257679E+03   -0.12457E-03   -0.11005E-02 42468   0.224E-01    0.823E-01
DAV:   7    -0.284858784699E+03    0.47298E-03   -0.17973E-03 38748   0.167E-01    0.534E-01
DAV:   8    -0.284858649420E+03    0.13528E-03   -0.19844E-03 42060   0.901E-02    0.168E-01
DAV:   9    -0.284858773277E+03   -0.12386E-03   -0.73117E-04 39036   0.521E-02    0.178E-01
DAV:  10    -0.284858778514E+03   -0.52363E-05   -0.63561E-05 26616   0.313E-02
   4 F= -.28485878E+03 E0= -.28485665E+03  d E =-.121399E+00  mag=    18.0000
       N       E                     dE             d eps       ncg     rms          rms(c)
DAV:   1    -0.284925962044E+03   -0.67189E-01   -0.10977E+01 31632   0.134E+01    0.153E+00
DAV:   2    -0.285007977891E+03   -0.82016E-01   -0.94183E-01 34704   0.280E+00    0.485E+00
DAV:   3    -0.284988839651E+03    0.19138E-01   -0.18988E-01 40356   0.138E+00    0.915E-01
DAV:   4    -0.284994164556E+03   -0.53249E-02   -0.35434E-02 43320   0.488E-01    0.205E+00
DAV:   5    -0.284991217502E+03    0.29471E-02   -0.16657E-02 37968   0.372E-01    0.119E+00
DAV:   6    -0.284991336194E+03   -0.11869E-03   -0.36684E-02 45696   0.350E-01    0.118E+00
DAV:   7    -0.284991095485E+03    0.24071E-03   -0.40554E-03 37440   0.256E-01    0.107E+00
DAV:   8    -0.284990153469E+03    0.94202E-03   -0.46323E-03 42600   0.153E-01    0.401E-01
DAV:   9    -0.284990488365E+03   -0.33490E-03   -0.34250E-03 42132   0.913E-02    0.293E-01
DAV:  10    -0.284990606698E+03   -0.11833E-03   -0.25100E-04 32616   0.545E-02    0.370E-01
DAV:  11    -0.284990498006E+03    0.10869E-03   -0.22790E-04 35580   0.380E-02    0.204E-01
DAV:  12    -0.284990499954E+03   -0.19478E-05   -0.33416E-04 25848   0.253E-02    0.177E-02
DAV:  13    -0.284990526161E+03   -0.26207E-04   -0.38587E-05 22296   0.177E-02    0.646E-02
DAV:  14    -0.284990527146E+03   -0.98507E-06   -0.11426E-05 18648   0.877E-03
   5 F= -.28499053E+03 E0= -.28498847E+03  d E =-.131749E+00  mag=    18.0000
       N       E                     dE             d eps       ncg     rms          rms(c)
DAV:   1    -0.284978827245E+03    0.11699E-01   -0.18079E+01 31476   0.176E+01    0.178E+00
DAV:   2    -0.285103736961E+03   -0.12491E+00   -0.13788E+00 31740   0.343E+00    0.277E+00
DAV:   3    -0.285109811256E+03   -0.60743E-02   -0.26160E-01 42504   0.133E+00    0.362E+00
DAV:   4    -0.285098896651E+03    0.10915E-01   -0.50685E-02 43440   0.823E-01    0.129E+00
DAV:   5    -0.285100152647E+03   -0.12560E-02   -0.33111E-02 39516   0.392E-01    0.125E+00
DAV:   6    -0.285100461551E+03   -0.30890E-03   -0.20809E-02 41028   0.372E-01    0.155E+00
DAV:   7    -0.285098369610E+03    0.20919E-02   -0.11798E-02 39132   0.278E-01    0.497E-01
DAV:   8    -0.285098882040E+03   -0.51243E-03   -0.52532E-03 43236   0.146E-01    0.309E-01
DAV:   9    -0.285098971890E+03   -0.89849E-04   -0.49739E-04 35760   0.102E-01    0.184E-01
DAV:  10    -0.285098961345E+03    0.10545E-04   -0.44100E-04 40344   0.444E-02    0.124E-01
DAV:  11    -0.285098963090E+03   -0.17454E-05   -0.10151E-04 24528   0.294E-02    0.659E-02
DAV:  12    -0.285098963234E+03   -0.14341E-06   -0.53141E-05 22248   0.196E-02
   6 F= -.28509896E+03 E0= -.28509693E+03  d E =-.108436E+00  mag=    18.0000
       N       E                     dE             d eps       ncg     rms          rms(c)
DAV:   1    -0.284874792521E+03    0.22417E+00   -0.39720E+01 31248   0.269E+01    0.273E+00
DAV:   2    -0.285203236544E+03   -0.32844E+00   -0.35436E+00 30432   0.553E+00    0.731E+00
DAV:   3    -0.285161493622E+03    0.41743E-01   -0.50997E-01 41496   0.237E+00    0.192E+00
DAV:   4    -0.285170604551E+03   -0.91109E-02   -0.50089E-02 41676   0.794E-01    0.242E+00
DAV:   5    -0.285166299765E+03    0.43048E-02   -0.48603E-02 39624   0.567E-01    0.163E+00
DAV:   6    -0.285168039131E+03   -0.17394E-02   -0.85539E-02 44016   0.592E-01    0.231E+00
DAV:   7    -0.285163749373E+03    0.42898E-02   -0.12422E-02 38508   0.460E-01    0.136E+00
DAV:   8    -0.285163031100E+03    0.71827E-03   -0.18125E-02 44040   0.232E-01    0.268E-01
DAV:   9    -0.285164063282E+03   -0.10322E-02   -0.21281E-03 34608   0.127E-01    0.506E-01
DAV:  10    -0.285163893135E+03    0.17015E-03   -0.38027E-04 39492   0.693E-02    0.359E-01
DAV:  11    -0.285163825867E+03    0.67268E-04   -0.88871E-04 43032   0.511E-02    0.336E-02
DAV:  12    -0.285163898003E+03   -0.72136E-04   -0.20936E-04 26016   0.239E-02    0.138E-01
DAV:  13    -0.285163883509E+03    0.14495E-04   -0.56837E-05 23568   0.253E-02    0.563E-02
DAV:  14    -0.285163886149E+03   -0.26401E-05   -0.24651E-05 19260   0.925E-03
   7 F= -.28516389E+03 E0= -.28516185E+03  d E =-.649229E-01  mag=    18.0000
       N       E                     dE             d eps       ncg     rms          rms(c)
DAV:   1    -0.285029350489E+03    0.13453E+00   -0.26796E+01 32196   0.207E+01    0.275E+00
DAV:   2    -0.285262153558E+03   -0.23280E+00   -0.26258E+00 33288   0.461E+00    0.969E+00
DAV:   3    -0.285167869921E+03    0.94284E-01   -0.51942E-01 35904   0.270E+00    0.190E+00
DAV:   4    -0.285193181835E+03   -0.25312E-01   -0.26994E-01 44112   0.946E-01    0.463E+00
DAV:   5    -0.285184511490E+03    0.86703E-02   -0.89570E-02 35412   0.868E-01    0.349E+00
DAV:   6    -0.285175594321E+03    0.89172E-02   -0.83938E-02 40032   0.576E-01    0.823E-01
DAV:   7    -0.285181048016E+03   -0.54537E-02   -0.39781E-02 38304   0.377E-01    0.167E+00
DAV:   8    -0.285179548479E+03    0.14995E-02   -0.54734E-03 36156   0.291E-01    0.122E+00
DAV:   9    -0.285178779113E+03    0.76937E-03   -0.61142E-03 43416   0.145E-01    0.545E-01
DAV:  10    -0.285179138152E+03   -0.35904E-03   -0.21753E-03 37416   0.781E-02    0.307E-01
DAV:  11    -0.285179208521E+03   -0.70369E-04   -0.59170E-04 36876   0.541E-02    0.183E-01
DAV:  12    -0.285179218095E+03   -0.95745E-05   -0.35943E-04 34524   0.368E-02    0.111E-01
DAV:  13    -0.285179219821E+03   -0.17261E-05   -0.67090E-05 23388   0.260E-02
   8 F= -.28517922E+03 E0= -.28517714E+03  d E =-.153337E-01  mag=    18.0000
       N       E                     dE             d eps       ncg     rms          rms(c)
DAV:   1    -0.285165569619E+03    0.13648E-01   -0.49596E+00 30780   0.849E+00    0.119E+00
DAV:   2    -0.285208276104E+03   -0.42706E-01   -0.48192E-01 36180   0.188E+00    0.501E+00
DAV:   3    -0.285187187703E+03    0.21088E-01   -0.11963E-01 35856   0.116E+00    0.858E-01
DAV:   4    -0.285193446587E+03   -0.62589E-02   -0.50258E-02 40284   0.376E-01    0.187E+00
DAV:   5    -0.285192899056E+03    0.54753E-03   -0.15509E-02 34764   0.351E-01    0.176E+00
DAV:   6    -0.285190156965E+03    0.27421E-02   -0.15115E-02 39000   0.268E-01    0.387E-01
DAV:   7    -0.285191630245E+03   -0.14733E-02   -0.15234E-02 39960   0.209E-01    0.105E+00
DAV:   8    -0.285191302304E+03    0.32794E-03   -0.12468E-03 35292   0.151E-01    0.968E-01
DAV:   9    -0.285190750952E+03    0.55135E-03   -0.18462E-03 42468   0.814E-02    0.579E-01
DAV:  10    -0.285190755186E+03   -0.42344E-05   -0.19316E-03 42480   0.651E-02    0.165E-01
DAV:  11    -0.285190908363E+03   -0.15318E-03   -0.47083E-04 32592   0.378E-02    0.154E-01
DAV:  12    -0.285190906711E+03    0.16520E-05   -0.92406E-05 25644   0.296E-02
   9 F= -.28519091E+03 E0= -.28518881E+03  d E =-.116869E-01  mag=    18.0000
       N       E                     dE             d eps       ncg     rms          rms(c)
DAV:   1    -0.285185790262E+03    0.51181E-02   -0.12381E+00 31200   0.499E+00    0.673E-01
DAV:   2    -0.285200396166E+03   -0.14606E-01   -0.16123E-01 34848   0.110E+00    0.284E+00
DAV:   3    -0.285194016332E+03    0.63798E-02   -0.42277E-02 36168   0.657E-01    0.383E-01
DAV:   4    -0.285196391162E+03   -0.23748E-02   -0.14753E-02 42600   0.220E-01    0.110E+00
DAV:   5    -0.285196023919E+03    0.36724E-03   -0.44890E-03 35040   0.196E-01    0.926E-01
DAV:   6    -0.285195334878E+03    0.68904E-03   -0.39569E-03 38664   0.133E-01    0.246E-01
DAV:   7    -0.285195695784E+03   -0.36091E-03   -0.37904E-03 40524   0.104E-01    0.481E-01
DAV:   8    -0.285195667762E+03    0.28022E-04   -0.51217E-04 35904   0.779E-02    0.480E-01
DAV:   9    -0.285195504493E+03    0.16327E-03   -0.67269E-04 38808   0.513E-02    0.235E-01
DAV:  10    -0.285195536864E+03   -0.32370E-04   -0.33764E-04 30312   0.278E-02    0.102E-01
DAV:  11    -0.285195557247E+03   -0.20383E-04   -0.83922E-05 21792   0.178E-02    0.714E-02
DAV:  12    -0.285195557528E+03   -0.28092E-06   -0.45994E-05 19896   0.149E-02
  10 F= -.28519556E+03 E0= -.28519347E+03  d E =-.465082E-02  mag=    18.0000
       N       E                     dE             d eps       ncg     rms          rms(c)
DAV:   1    -0.285160307035E+03    0.35250E-01   -0.54532E+00 31044   0.974E+00    0.134E+00
DAV:   2    -0.285230230281E+03   -0.69923E-01   -0.77926E-01 34800   0.235E+00    0.680E+00
DAV:   3    -0.285189058823E+03    0.41171E-01   -0.19478E-01 35676   0.155E+00    0.157E+00
DAV:   4    -0.285198090141E+03   -0.90313E-02   -0.76825E-02 40908   0.448E-01    0.187E+00
DAV:   5    -0.285199506594E+03   -0.14165E-02   -0.20310E-02 34188   0.385E-01    0.196E+00
DAV:   6    -0.285196299298E+03    0.32073E-02   -0.10502E-02 36888   0.252E-01    0.804E-01
DAV:   7    -0.285197065481E+03   -0.76618E-03   -0.15471E-02 41736   0.194E-01    0.714E-01
DAV:   8    -0.285197793440E+03   -0.72796E-03   -0.35820E-03 35532   0.140E-01    0.110E+00
DAV:   9    -0.285196992398E+03    0.80104E-03   -0.14677E-03 41784   0.103E-01    0.778E-01
DAV:  10    -0.285196807635E+03    0.18476E-03   -0.16271E-03 42276   0.644E-02    0.364E-01
DAV:  11    -0.285196931314E+03   -0.12368E-03   -0.89505E-04 34812   0.402E-02    0.108E-01
DAV:  12    -0.285197000119E+03   -0.68805E-04   -0.17766E-04 24624   0.289E-02    0.726E-02
DAV:  13    -0.285197004683E+03   -0.45645E-05   -0.15968E-05 21324   0.158E-02
  11 F= -.28519700E+03 E0= -.28519489E+03  d E =-.144716E-02  mag=    18.0000
       N       E                     dE             d eps       ncg     rms          rms(c)
DAV:   1    -0.285005371708E+03    0.19163E+00   -0.29443E+01 31452   0.222E+01    0.358E+00
DAV:   2    -0.285383647156E+03   -0.37828E+00   -0.44766E+00 35520   0.586E+00    0.133E+01
DAV:   3    -0.285180979782E+03    0.20267E+00   -0.85675E-01 35040   0.377E+00    0.412E+00
DAV:   4    -0.285193334111E+03   -0.12354E-01   -0.31287E-01 41076   0.115E+00    0.324E+00
DAV:   5    -0.285201485084E+03   -0.81510E-02   -0.12479E-01 36816   0.877E-01    0.346E+00
DAV:   6    -0.285189633089E+03    0.11852E-01   -0.74335E-02 37560   0.689E-01    0.927E-01
DAV:   7    -0.285194398032E+03   -0.47649E-02   -0.55681E-02 41340   0.433E-01    0.199E+00
DAV:   8    -0.285191825927E+03    0.25721E-02   -0.71704E-03 37092   0.351E-01    0.134E+00
DAV:   9    -0.285190960474E+03    0.86545E-03   -0.96744E-03 43224   0.172E-01    0.401E-01
DAV:  10    -0.285191634325E+03   -0.67385E-03   -0.24188E-03 34416   0.882E-02    0.289E-01
DAV:  11    -0.285191706485E+03   -0.72160E-04   -0.30049E-04 38316   0.518E-02    0.285E-01
DAV:  12    -0.285191640566E+03    0.65919E-04   -0.50752E-04 38316   0.466E-02    0.697E-02
DAV:  13    -0.285191669138E+03   -0.28572E-04   -0.90630E-05 22524   0.213E-02    0.650E-02
DAV:  14    -0.285191668953E+03    0.18534E-06   -0.43697E-05 20952   0.183E-02
  12 F= -.28519167E+03 E0= -.28518947E+03  d E =0.533573E-02  mag=    18.0000
       N       E                     dE             d eps       ncg     rms          rms(c)
DAV:   1    -0.285036783686E+03    0.15489E+00   -0.27195E+01 31452   0.222E+01    0.334E+00
DAV:   2    -0.285381542409E+03   -0.34476E+00   -0.39823E+00 35112   0.558E+00    0.125E+01
DAV:   3    -0.285214537206E+03    0.16701E+00   -0.77398E-01 35436   0.339E+00    0.382E+00
DAV:   4    -0.285231360415E+03   -0.16823E-01   -0.32279E-01 42096   0.119E+00    0.359E+00
DAV:   5    -0.285234451763E+03   -0.30913E-02   -0.10718E-01 37884   0.904E-01    0.316E+00
DAV:   6    -0.285224524095E+03    0.99277E-02   -0.77706E-02 38604   0.677E-01    0.844E-01
DAV:   7    -0.285229517385E+03   -0.49933E-02   -0.51492E-02 40896   0.435E-01    0.214E+00
DAV:   8    -0.285225990773E+03    0.35266E-02   -0.85631E-03 37932   0.361E-01    0.125E+00
DAV:   9    -0.285225682449E+03    0.30832E-03   -0.73593E-03 43680   0.153E-01    0.494E-01
DAV:  10    -0.285226214133E+03   -0.53168E-03   -0.32081E-03 39048   0.988E-02    0.319E-01
DAV:  11    -0.285226291066E+03   -0.76933E-04   -0.51019E-04 36228   0.615E-02    0.281E-01
DAV:  12    -0.285226233349E+03    0.57718E-04   -0.56789E-04 41268   0.490E-02    0.770E-02
DAV:  13    -0.285226260142E+03   -0.26794E-04   -0.80429E-05 25584   0.224E-02    0.607E-02
DAV:  14    -0.285226260800E+03   -0.65730E-06   -0.26344E-05 20304   0.142E-02
  13 F= -.28522626E+03 E0= -.28522399E+03  d E =-.345918E-01  mag=    18.0000
       N       E                     dE             d eps       ncg     rms          rms(c)
DAV:   1    -0.285177212949E+03    0.49047E-01   -0.86252E+00 31404   0.132E+01    0.190E+00
DAV:   2    -0.285302070179E+03   -0.12486E+00   -0.13876E+00 33864   0.321E+00    0.866E+00
DAV:   3    -0.285234451638E+03    0.67619E-01   -0.32893E-01 35484   0.199E+00    0.193E+00
DAV:   4    -0.285251769159E+03   -0.17318E-01   -0.15627E-01 42636   0.694E-01    0.294E+00
DAV:   5    -0.285251482119E+03    0.28704E-03   -0.48050E-02 35280   0.610E-01    0.261E+00
DAV:   6    -0.285245766823E+03    0.57153E-02   -0.25793E-02 38184   0.385E-01    0.992E-01
DAV:   7    -0.285247721350E+03   -0.19545E-02   -0.32836E-02 43440   0.294E-01    0.117E+00
DAV:   8    -0.285248143439E+03   -0.42209E-03   -0.36664E-03 35472   0.205E-01    0.134E+00
DAV:   9    -0.285246839792E+03    0.13036E-02   -0.39976E-03 44088   0.139E-01    0.734E-01
DAV:  10    -0.285246947202E+03   -0.10741E-03   -0.33376E-03 42000   0.835E-02    0.272E-01
DAV:  11    -0.285247173349E+03   -0.22615E-03   -0.71147E-04 34752   0.493E-02    0.235E-01
DAV:  12    -0.285247155595E+03    0.17754E-04   -0.30544E-04 34716   0.420E-02    0.893E-02
DAV:  13    -0.285247167349E+03   -0.11754E-04   -0.52053E-05 21648   0.182E-02    0.426E-02
DAV:  14    -0.285247169324E+03   -0.19745E-05   -0.22414E-05 19104   0.105E-02
  14 F= -.28524717E+03 E0= -.28524485E+03  d E =-.209085E-01  mag=    18.0000
       N       E                     dE             d eps       ncg     rms          rms(c)
DAV:   1    -0.285240871372E+03    0.62960E-02   -0.15810E+00 31248   0.510E+00    0.812E-01
DAV:   2    -0.285260954823E+03   -0.20083E-01   -0.22616E-01 35388   0.126E+00    0.424E+00
DAV:   3    -0.285246479694E+03    0.14475E-01   -0.67335E-02 35544   0.844E-01    0.887E-01
DAV:   4    -0.285250914345E+03   -0.44347E-02   -0.37085E-02 43944   0.255E-01    0.134E+00
DAV:   5    -0.285251096572E+03   -0.18223E-03   -0.64423E-03 34044   0.259E-01    0.138E+00
DAV:   6    -0.285249699232E+03    0.13973E-02   -0.35892E-03 39060   0.155E-01    0.663E-01
DAV:   7    -0.285250033575E+03   -0.33434E-03   -0.93723E-03 42276   0.140E-01    0.541E-01
DAV:   8    -0.285250395052E+03   -0.36148E-03   -0.16875E-03 34992   0.995E-02    0.743E-01
DAV:   9    -0.285249972649E+03    0.42240E-03   -0.97237E-04 39180   0.783E-02    0.424E-01
DAV:  10    -0.285249977533E+03   -0.48832E-05   -0.65502E-04 37116   0.390E-02    0.143E-01
DAV:  11    -0.285250046289E+03   -0.68757E-04   -0.30663E-04 22020   0.213E-02    0.808E-02
DAV:  12    -0.285250059407E+03   -0.13117E-04   -0.24897E-05 22008   0.185E-02    0.765E-02
DAV:  13    -0.285250055997E+03    0.34096E-05   -0.91681E-06 18204   0.865E-03
  15 F= -.28525006E+03 E0= -.28524775E+03  d E =-.288667E-02  mag=    18.0000
       N       E                     dE             d eps       ncg     rms          rms(c)
DAV:   1    -0.285251216657E+03   -0.11572E-02   -0.63002E-01 31308   0.344E+00    0.585E-01
DAV:   2    -0.285263998378E+03   -0.12782E-01   -0.14843E-01 36108   0.959E-01    0.361E+00
DAV:   3    -0.285253156722E+03    0.10842E-01   -0.46057E-02 34836   0.693E-01    0.874E-01
DAV:   4    -0.285255725153E+03   -0.25684E-02   -0.17894E-02 39852   0.182E-01    0.727E-01
DAV:   5    -0.285256467145E+03   -0.74199E-03   -0.39930E-03 34464   0.155E-01    0.941E-01
DAV:   6    -0.285255691129E+03    0.77602E-03   -0.17379E-03 36300   0.115E-01    0.457E-01
DAV:   7    -0.285255775416E+03   -0.84287E-04   -0.36757E-03 40608   0.894E-02    0.295E-01
DAV:   8    -0.285256016627E+03   -0.24121E-03   -0.10965E-03 37236   0.623E-02    0.532E-01
DAV:   9    -0.285255849074E+03    0.16755E-03   -0.26751E-04 31968   0.482E-02    0.411E-01
DAV:  10    -0.285255788961E+03    0.60113E-04   -0.27279E-04 30072   0.282E-02    0.239E-01
DAV:  11    -0.285255799157E+03   -0.10196E-04   -0.20892E-04 21300   0.192E-02    0.788E-02
DAV:  12    -0.285255821732E+03   -0.22576E-04   -0.62876E-05 20808   0.126E-02    0.138E-02
DAV:  13    -0.285255827934E+03   -0.62018E-05   -0.13119E-05 18180   0.647E-03
  16 F= -.28525583E+03 E0= -.28525351E+03  d E =-.577194E-02  mag=    18.0000
       N       E                     dE             d eps       ncg     rms          rms(c)
DAV:   1    -0.285152851335E+03    0.10297E+00   -0.20525E+01 32280   0.190E+01    0.329E+00
DAV:   2    -0.285477504754E+03   -0.32465E+00   -0.39673E+00 36732   0.534E+00    0.137E+01
DAV:   3    -0.285266690169E+03    0.21081E+00   -0.81151E-01 35160   0.359E+00    0.489E+00
DAV:   4    -0.285273334498E+03   -0.66443E-02   -0.22998E-01 41244   0.102E+00    0.192E+00
DAV:   5    -0.285285037889E+03   -0.11703E-01   -0.84282E-02 37992   0.636E-01    0.232E+00
DAV:   6    -0.285279203261E+03    0.58346E-02   -0.35824E-02 37464   0.577E-01    0.603E-01
DAV:   7    -0.285281346569E+03   -0.21433E-02   -0.29975E-02 42792   0.317E-01    0.154E+00
DAV:   8    -0.285279877101E+03    0.14695E-02   -0.41862E-03 37344   0.273E-01    0.105E+00
DAV:   9    -0.285279494477E+03    0.38262E-03   -0.39531E-03 43764   0.131E-01    0.527E-01
DAV:  10    -0.285279660921E+03   -0.16644E-03   -0.17604E-03 40872   0.833E-02    0.126E-01
DAV:  11    -0.285279806454E+03   -0.14553E-03   -0.60881E-04 34200   0.381E-02    0.199E-01
DAV:  12    -0.285279780519E+03    0.25935E-04   -0.10783E-04 27936   0.354E-02    0.101E-01
DAV:  13    -0.285279779311E+03    0.12077E-05   -0.10447E-04 22764   0.187E-02    0.948E-03
DAV:  14    -0.285279785820E+03   -0.65094E-05   -0.14264E-05 19116   0.990E-03
  17 F= -.28527979E+03 E0= -.28527745E+03  d E =-.239579E-01  mag=    18.0000
       N       E                     dE             d eps       ncg     rms          rms(c)
DAV:   1    -0.284719882255E+03    0.55990E+00   -0.41637E+01 32328   0.196E+01    0.574E+00
DAV:   2    -0.285019854792E+03   -0.29997E+00   -0.37998E+00 37704   0.534E+00    0.111E+01
DAV:   3    -0.284868164369E+03    0.15169E+00   -0.11938E+00 36648   0.387E+00    0.367E+00
DAV:   4    -0.284910683880E+03   -0.42520E-01   -0.64239E-01 37944   0.192E+00    0.795E+00
DAV:   5    -0.284844539787E+03    0.66144E-01   -0.26177E-01 37836   0.164E+00    0.171E+00
DAV:   6    -0.284868643872E+03   -0.24104E-01   -0.29269E-01 40284   0.848E-01    0.449E+00
DAV:   7    -0.284852692227E+03    0.15952E-01   -0.35762E-02 36960   0.768E-01    0.250E+00
DAV:   8    -0.284850569796E+03    0.21224E-02   -0.36027E-02 43560   0.310E-01    0.519E-01
DAV:   9    -0.284853629419E+03   -0.30596E-02   -0.11083E-02 38556   0.172E-01    0.718E-01
DAV:  10    -0.284853615397E+03    0.14023E-04   -0.11593E-03 38604   0.136E-01    0.613E-01
DAV:  11    -0.284853320642E+03    0.29476E-03   -0.26759E-03 42324   0.102E-01    0.906E-02
DAV:  12    -0.284853537719E+03   -0.21708E-03   -0.10285E-03 35076   0.472E-02    0.307E-01
DAV:  13    -0.284853459776E+03    0.77943E-04   -0.25669E-04 32952   0.544E-02    0.125E-01
DAV:  14    -0.284853470257E+03   -0.10481E-04   -0.18983E-04 27792   0.221E-02    0.297E-02
DAV:  15    -0.284853482759E+03   -0.12501E-04   -0.27701E-05 19584   0.116E-02    0.710E-02
DAV:  16    -0.284853478634E+03    0.41248E-05   -0.14573E-05 18672   0.109E-02
  18 F= -.28485348E+03 E0= -.28485110E+03  d E =0.426307E+00  mag=    18.0000
       N       E                     dE             d eps       ncg     rms          rms(c)
DAV:   1    -0.285166902420E+03   -0.31342E+00   -0.69402E+00 32724   0.714E+00    0.240E+00
DAV:   2    -0.285216852029E+03   -0.49950E-01   -0.64377E-01 36852   0.204E+00    0.617E+00
DAV:   3    -0.285181536978E+03    0.35315E-01   -0.30836E-01 37884   0.159E+00    0.141E+00
DAV:   4    -0.285188261874E+03   -0.67249E-02   -0.39533E-02 35796   0.540E-01    0.248E+00
DAV:   5    -0.285184375082E+03    0.38868E-02   -0.44771E-02 38532   0.534E-01    0.202E+00
DAV:   6    -0.285182416023E+03    0.19591E-02   -0.49592E-02 41304   0.471E-01    0.113E+00
DAV:   7    -0.285183045399E+03   -0.62938E-03   -0.87060E-03 39060   0.284E-01    0.991E-01
DAV:   8    -0.285182460423E+03    0.58498E-03   -0.24506E-03 38352   0.147E-01    0.526E-01
DAV:   9    -0.285182492501E+03   -0.32078E-04   -0.22460E-03 41952   0.803E-02    0.212E-01
DAV:  10    -0.285182615086E+03   -0.12259E-03   -0.73144E-04 36540   0.544E-02    0.201E-01
DAV:  11    -0.285182605983E+03    0.91025E-05   -0.15020E-04 31044   0.363E-02    0.148E-01
DAV:  12    -0.285182601761E+03    0.42225E-05   -0.12308E-04 28932   0.226E-02    0.105E-01
DAV:  13    -0.285182600371E+03    0.13899E-05   -0.79683E-05 20100   0.164E-02
  19 F= -.28518260E+03 E0= -.28518027E+03  d E =-.329122E+00  mag=    18.0000
       N       E                     dE             d eps       ncg     rms          rms(c)
DAV:   1    -0.285266380159E+03   -0.83778E-01   -0.18323E+00 32616   0.363E+00    0.127E+00
DAV:   2    -0.285284135493E+03   -0.17755E-01   -0.22684E-01 36828   0.115E+00    0.430E+00
DAV:   3    -0.285267625504E+03    0.16510E-01   -0.11180E-01 37308   0.944E-01    0.423E-01
DAV:   4    -0.285272715658E+03   -0.50902E-02   -0.25678E-02 35400   0.266E-01    0.165E+00
DAV:   5    -0.285271186327E+03    0.15293E-02   -0.11456E-02 36564   0.303E-01    0.143E+00
DAV:   6    -0.285269646178E+03    0.15401E-02   -0.11251E-02 41352   0.229E-01    0.201E-01
DAV:   7    -0.285270520776E+03   -0.87460E-03   -0.45790E-03 40284   0.123E-01    0.571E-01
DAV:   8    -0.285270420173E+03    0.10060E-03   -0.37101E-04 35472   0.893E-02    0.499E-01
DAV:   9    -0.285270270807E+03    0.14937E-03   -0.69115E-04 38352   0.471E-02    0.277E-01
DAV:  10    -0.285270287841E+03   -0.17033E-04   -0.79663E-04 38952   0.461E-02    0.925E-02
DAV:  11    -0.285270336405E+03   -0.48565E-04   -0.13399E-04 24312   0.236E-02    0.154E-01
DAV:  12    -0.285270317700E+03    0.18705E-04   -0.46876E-05 21492   0.203E-02    0.893E-02
DAV:  13    -0.285270316605E+03    0.10951E-05   -0.54698E-05 19764   0.123E-02
  20 F= -.28527032E+03 E0= -.28526800E+03  d E =-.877162E-01  mag=    18.0000
       N       E                     dE             d eps       ncg     rms          rms(c)
DAV:   1    -0.285302410135E+03   -0.32092E-01   -0.24153E+00 32520   0.414E+00    0.160E+00
DAV:   2    -0.285337302860E+03   -0.34893E-01   -0.44804E-01 37368   0.156E+00    0.627E+00
DAV:   3    -0.285300160263E+03    0.37143E-01   -0.19904E-01 36672   0.132E+00    0.619E-01
DAV:   4    -0.285312308432E+03   -0.12148E-01   -0.76186E-02 37968   0.415E-01    0.250E+00
DAV:   5    -0.285310390259E+03    0.19182E-02   -0.20042E-02 35628   0.405E-01    0.230E+00
DAV:   6    -0.285305590324E+03    0.47999E-02   -0.20318E-02 39912   0.326E-01    0.702E-01
DAV:   7    -0.285307210588E+03   -0.16203E-02   -0.14575E-02 41556   0.191E-01    0.697E-01
DAV:   8    -0.285307598025E+03   -0.38744E-03   -0.13653E-03 34824   0.126E-01    0.821E-01
DAV:   9    -0.285307179366E+03    0.41866E-03   -0.10273E-03 39348   0.699E-02    0.571E-01
DAV:  10    -0.285307048275E+03    0.13109E-03   -0.19834E-03 42168   0.749E-02    0.122E-01
DAV:  11    -0.285307214305E+03   -0.16603E-03   -0.65362E-04 32880   0.364E-02    0.203E-01
DAV:  12    -0.285307205480E+03    0.88249E-05   -0.32494E-05 23124   0.247E-02
  21 F= -.28530721E+03 E0= -.28530493E+03  d E =-.368889E-01  mag=    18.0000
       N       E                     dE             d eps       ncg     rms          rms(c)
DAV:   1    -0.285308782474E+03   -0.15682E-02   -0.78176E-02 31656   0.867E-01    0.419E-01
DAV:   2    -0.285313595666E+03   -0.48132E-02   -0.60113E-02 40092   0.493E-01    0.274E+00
DAV:   3    -0.285307288861E+03    0.63068E-02   -0.23948E-02 36336   0.463E-01    0.665E-01
DAV:   4    -0.285308813193E+03   -0.15243E-02   -0.10671E-02 39996   0.122E-01    0.522E-01
DAV:   5    -0.285309362105E+03   -0.54891E-03   -0.21801E-03 35256   0.104E-01    0.796E-01
DAV:   6    -0.285308833965E+03    0.52814E-03   -0.83027E-04 32316   0.864E-02    0.457E-01
DAV:   7    -0.285308810278E+03    0.23687E-04   -0.10089E-03 37908   0.443E-02    0.162E-01
DAV:   8    -0.285308899441E+03   -0.89162E-04   -0.48344E-04 28140   0.315E-02    0.141E-01
DAV:   9    -0.285308918031E+03   -0.18590E-04   -0.71121E-05 22164   0.197E-02    0.164E-01
DAV:  10    -0.285308903460E+03    0.14571E-04   -0.20052E-05 19488   0.140E-02    0.123E-01
DAV:  11    -0.285308895953E+03    0.75072E-05   -0.58707E-05 19008   0.117E-02
  22 F= -.28530890E+03 E0= -.28530660E+03  d E =-.169047E-02  mag=    18.0000
       N       E                     dE             d eps       ncg     rms          rms(c)
DAV:   1    -0.285310240625E+03   -0.13372E-02   -0.26303E-01 30792   0.168E+00    0.539E-01
DAV:   2    -0.285316988304E+03   -0.67477E-02   -0.84435E-02 40092   0.640E-01    0.316E+00
DAV:   3    -0.285308731850E+03    0.82565E-02   -0.34680E-02 36420   0.563E-01    0.683E-01
DAV:   4    -0.285311158839E+03   -0.24270E-02   -0.17952E-02 41040   0.163E-01    0.832E-01
DAV:   5    -0.285311513365E+03   -0.35453E-03   -0.28130E-03 34140   0.156E-01    0.985E-01
DAV:   6    -0.285310756171E+03    0.75719E-03   -0.15255E-03 35688   0.105E-01    0.516E-01
DAV:   7    -0.285310793397E+03   -0.37225E-04   -0.23994E-03 40188   0.685E-02    0.186E-01
DAV:   8    -0.285310989031E+03   -0.19563E-03   -0.90724E-04 35412   0.488E-02    0.332E-01
DAV:   9    -0.285310949681E+03    0.39350E-04   -0.11433E-04 25224   0.331E-02    0.297E-01
DAV:  10    -0.285310902530E+03    0.47150E-04   -0.13338E-04 25608   0.245E-02    0.170E-01
DAV:  11    -0.285310904417E+03   -0.18871E-05   -0.17950E-04 20772   0.179E-02    0.212E-02
DAV:  12    -0.285310921150E+03   -0.16733E-04   -0.39712E-05 20124   0.104E-02    0.468E-02
DAV:  13    -0.285310923061E+03   -0.19106E-05   -0.53128E-06 18144   0.532E-03
  23 F= -.28531092E+03 E0= -.28530864E+03  d E =-.202711E-02  mag=    18.0000
       N       E                     dE             d eps       ncg     rms          rms(c)
DAV:   1    -0.285311076127E+03   -0.15498E-03   -0.10063E-02 32244   0.430E-01    0.136E-01
DAV:   2    -0.285311866448E+03   -0.79032E-03   -0.93782E-03 41976   0.197E-01    0.109E+00
DAV:   3    -0.285310909557E+03    0.95689E-03   -0.30770E-03 36204   0.177E-01    0.346E-01
DAV:   4    -0.285311069385E+03   -0.15983E-03   -0.11065E-03 32232   0.351E-02    0.408E-02
DAV:   5    -0.285311153203E+03   -0.83818E-04   -0.90580E-05 24132   0.277E-02    0.111E-01
DAV:   6    -0.285311148975E+03    0.42281E-05   -0.12550E-05 19644   0.135E-02
  24 F= -.28531115E+03 E0= -.28530887E+03  d E =-.225914E-03  mag=    18.0000
       N       E                     dE             d eps       ncg     rms          rms(c)
DAV:   1    -0.285308989407E+03    0.21638E-02   -0.52701E-01 31416   0.304E+00    0.741E-01
DAV:   2    -0.285330849567E+03   -0.21860E-01   -0.26036E-01 41532   0.110E+00    0.540E+00
DAV:   3    -0.285306754834E+03    0.24095E-01   -0.83238E-02 35760   0.935E-01    0.158E+00
DAV:   4    -0.285311105084E+03   -0.43503E-02   -0.30341E-02 38268   0.199E-01    0.544E-01
DAV:   5    -0.285313274066E+03   -0.21690E-02   -0.55877E-03 33456   0.163E-01    0.982E-01
DAV:   6    -0.285312474481E+03    0.79958E-03   -0.11984E-03 35988   0.121E-01    0.582E-01
DAV:   7    -0.285312354966E+03    0.11952E-03   -0.21567E-03 40116   0.716E-02    0.171E-01
DAV:   8    -0.285312601135E+03   -0.24617E-03   -0.17401E-03 40596   0.606E-02    0.391E-01
DAV:   9    -0.285312643452E+03   -0.42317E-04   -0.28062E-04 31272   0.385E-02    0.497E-01
DAV:  10    -0.285312525969E+03    0.11748E-03   -0.64305E-05 24456   0.282E-02    0.409E-01
DAV:  11    -0.285312456266E+03    0.69703E-04   -0.28913E-04 24012   0.246E-02    0.210E-01
DAV:  12    -0.285312483262E+03   -0.26995E-04   -0.16847E-04 22152   0.147E-02    0.624E-02
DAV:  13    -0.285312504198E+03   -0.20936E-04   -0.50870E-05 20064   0.818E-03    0.187E-02
DAV:  14    -0.285312508367E+03   -0.41685E-05   -0.33085E-06 18120   0.568E-03
  25 F= -.28531251E+03 E0= -.28531023E+03  d E =-.135939E-02  mag=    18.0000
       N       E                     dE             d eps       ncg     rms          rms(c)
DAV:   1    -0.285306639802E+03    0.58644E-02   -0.12422E+00 32136   0.441E+00    0.686E-01
DAV:   2    -0.285327176390E+03   -0.20537E-01   -0.23729E-01 38208   0.116E+00    0.478E+00
DAV:   3    -0.285309117949E+03    0.18058E-01   -0.69687E-02 35112   0.864E-01    0.137E+00
DAV:   4    -0.285312751133E+03   -0.36332E-02   -0.30362E-02 39576   0.210E-01    0.706E-01
DAV:   5    -0.285314327794E+03   -0.15767E-02   -0.49132E-03 33564   0.189E-01    0.999E-01
DAV:   6    -0.285313433024E+03    0.89477E-03   -0.18644E-03 37716   0.133E-01    0.504E-01
DAV:   7    -0.285313441671E+03   -0.86471E-05   -0.34496E-03 41532   0.912E-02    0.242E-01
DAV:   8    -0.285313735401E+03   -0.29373E-03   -0.16046E-03 39948   0.688E-02    0.537E-01
DAV:   9    -0.285313625752E+03    0.10965E-03   -0.30654E-04 33492   0.507E-02    0.512E-01
DAV:  10    -0.285313496124E+03    0.12963E-03   -0.26007E-04 32964   0.357E-02    0.330E-01
DAV:  11    -0.285313482315E+03    0.13809E-04   -0.39701E-04 23472   0.258E-02    0.930E-02
DAV:  12    -0.285313529879E+03   -0.47564E-04   -0.16836E-04 22548   0.160E-02    0.555E-02
DAV:  13    -0.285313540360E+03   -0.10481E-04   -0.13808E-05 20172   0.924E-03    0.876E-02
DAV:  14    -0.285313534195E+03    0.61642E-05   -0.10478E-05 18072   0.812E-03
  26 F= -.28531353E+03 E0= -.28531127E+03  d E =-.102583E-02  mag=    18.0000
       N       E                     dE             d eps       ncg     rms          rms(c)
DAV:   1    -0.285170801646E+03    0.14274E+00   -0.31349E+01 32256   0.210E+01    0.430E+00
DAV:   2    -0.285663130900E+03   -0.49233E+00   -0.62523E+00 39432   0.644E+00    0.180E+01
DAV:   3    -0.285284549338E+03    0.37858E+00   -0.13344E+00 35316   0.471E+00    0.591E+00
DAV:   4    -0.285298314747E+03   -0.13765E-01   -0.33756E-01 39312   0.114E+00    0.207E+00
DAV:   5    -0.285317341422E+03   -0.19027E-01   -0.10352E-01 37320   0.752E-01    0.264E+00
DAV:   6    -0.285309107952E+03    0.82335E-02   -0.35141E-02 37836   0.600E-01    0.724E-01
DAV:   7    -0.285311117850E+03   -0.20099E-02   -0.35884E-02 41316   0.341E-01    0.152E+00
DAV:   8    -0.285310277743E+03    0.84011E-03   -0.28085E-03 36600   0.260E-01    0.132E+00
DAV:   9    -0.285309211090E+03    0.10667E-02   -0.59190E-03 43344   0.162E-01    0.652E-01
DAV:  10    -0.285309432473E+03   -0.22138E-03   -0.22446E-03 40500   0.961E-02    0.138E-01
DAV:  11    -0.285309650544E+03   -0.21807E-03   -0.85400E-04 35472   0.422E-02    0.202E-01
DAV:  12    -0.285309630819E+03    0.19725E-04   -0.98476E-05 28380   0.396E-02    0.106E-01
DAV:  13    -0.285309628596E+03    0.22224E-05   -0.72718E-05 23076   0.169E-02
  27 F= -.28530963E+03 E0= -.28530760E+03  d E =0.390560E-02  mag=    18.0000
       N       E                     dE             d eps       ncg     rms          rms(c)
DAV:   1    -0.284763432008E+03    0.54620E+00   -0.38960E+01 34104   0.194E+01    0.858E+00
DAV:   2    -0.285510870489E+03   -0.74744E+00   -0.10711E+01 40260   0.893E+00    0.201E+01
DAV:   3    -0.284871669931E+03    0.63920E+00   -0.17759E+00 36720   0.686E+00    0.479E+00
DAV:   4    -0.284955797021E+03   -0.84127E-01   -0.17569E+00 41784   0.238E+00    0.894E+00
DAV:   5    -0.284878733004E+03    0.77064E-01   -0.46772E-01 36468   0.221E+00    0.488E+00
DAV:   6    -0.284866609150E+03    0.12124E-01   -0.15816E-01 38760   0.108E+00    0.878E-01
DAV:   7    -0.284876896303E+03   -0.10287E-01   -0.68047E-02 40032   0.567E-01    0.255E+00
DAV:   8    -0.284871071951E+03    0.58244E-02   -0.27677E-02 39168   0.553E-01    0.105E+00
DAV:   9    -0.284871859496E+03   -0.78755E-03   -0.18015E-02 42048   0.270E-01    0.608E-01
DAV:  10    -0.284872056410E+03   -0.19691E-03   -0.19064E-03 38724   0.166E-01    0.312E-01
DAV:  11    -0.284872054251E+03    0.21590E-05   -0.11882E-03 43068   0.840E-02    0.202E-01
DAV:  12    -0.284872061273E+03   -0.70225E-05   -0.30313E-04 38808   0.599E-02    0.149E-01
DAV:  13    -0.284872052912E+03    0.83611E-05   -0.26984E-04 34212   0.360E-02    0.549E-02
DAV:  14    -0.284872062936E+03   -0.10024E-04   -0.33857E-05 22032   0.190E-02    0.444E-02
DAV:  15    -0.284872062343E+03    0.59348E-06   -0.10063E-05 18780   0.101E-02
  28 F= -.28487206E+03 E0= -.28486916E+03  d E =0.437566E+00  mag=    18.0000
       N       E                     dE             d eps       ncg     rms          rms(c)
DAV:   1    -0.285175394307E+03   -0.30333E+00   -0.76422E+00 31752   0.863E+00    0.342E+00
DAV:   2    -0.285342340010E+03   -0.16695E+00   -0.21234E+00 39048   0.364E+00    0.122E+01
DAV:   3    -0.285177229968E+03    0.16511E+00   -0.77118E-01 37020   0.298E+00    0.222E+00
DAV:   4    -0.285215461044E+03   -0.38231E-01   -0.33138E-01 39432   0.110E+00    0.473E+00
DAV:   5    -0.285207019869E+03    0.84412E-02   -0.88998E-02 36216   0.934E-01    0.399E+00
DAV:   6    -0.285193055316E+03    0.13965E-01   -0.73400E-02 38448   0.660E-01    0.109E+00
DAV:   7    -0.285199808909E+03   -0.67536E-02   -0.59832E-02 41520   0.387E-01    0.186E+00
DAV:   8    -0.285198476782E+03    0.13321E-02   -0.46153E-03 36480   0.298E-01    0.146E+00
DAV:   9    -0.285197154977E+03    0.13218E-02   -0.76344E-03 42300   0.174E-01    0.644E-01
DAV:  10    -0.285197585060E+03   -0.43008E-03   -0.43322E-03 40968   0.975E-02    0.218E-01
DAV:  11    -0.285197884126E+03   -0.29907E-03   -0.88712E-04 35808   0.538E-02    0.390E-01
DAV:  12    -0.285197785989E+03    0.98137E-04   -0.18056E-04 34296   0.446E-02    0.280E-01
DAV:  13    -0.285197746775E+03    0.39213E-04   -0.30376E-04 28440   0.294E-02    0.854E-02
DAV:  14    -0.285197775195E+03   -0.28420E-04   -0.10194E-04 21912   0.166E-02    0.246E-02
DAV:  15    -0.285197782784E+03   -0.75885E-05   -0.16274E-05 19308   0.101E-02
  29 F= -.28519778E+03 E0= -.28519507E+03  d E =-.325720E+00  mag=    18.0000
       N       E                     dE             d eps       ncg     rms          rms(c)
DAV:   1    -0.285288212726E+03   -0.90438E-01   -0.27521E+00 30744   0.511E+00    0.237E+00
DAV:   2    -0.285385172697E+03   -0.96960E-01   -0.12253E+00 40236   0.257E+00    0.104E+01
DAV:   3    -0.285275520791E+03    0.10965E+00   -0.50291E-01 37248   0.225E+00    0.181E+00
DAV:   4    -0.285301485233E+03   -0.25964E-01   -0.16387E-01 38676   0.700E-01    0.301E+00
DAV:   5    -0.285302063344E+03   -0.57811E-03   -0.35901E-02 35472   0.576E-01    0.305E+00
DAV:   6    -0.285293677161E+03    0.83862E-02   -0.24977E-02 38232   0.418E-01    0.127E+00
DAV:   7    -0.285295149313E+03   -0.14722E-02   -0.23701E-02 41280   0.226E-01    0.544E-01
DAV:   8    -0.285296304931E+03   -0.11556E-02   -0.20883E-03 35424   0.140E-01    0.807E-01
DAV:   9    -0.285295807832E+03    0.49710E-03   -0.12634E-03 41256   0.102E-01    0.524E-01
DAV:  10    -0.285295718843E+03    0.88989E-04   -0.15651E-03 43380   0.655E-02    0.130E-01
DAV:  11    -0.285295845276E+03   -0.12643E-03   -0.47518E-04 32700   0.350E-02    0.152E-01
DAV:  12    -0.285295862821E+03   -0.17545E-04   -0.52562E-05 22560   0.225E-02    0.201E-01
DAV:  13    -0.285295827578E+03    0.35243E-04   -0.94706E-05 23052   0.229E-02    0.900E-02
DAV:  14    -0.285295834045E+03   -0.64672E-05   -0.50031E-05 19680   0.117E-02
  30 F= -.28529583E+03 E0= -.28529338E+03  d E =-.980513E-01  mag=    18.0000
       N       E                     dE             d eps       ncg     rms          rms(c)
DAV:   1    -0.285319518065E+03   -0.23690E-01   -0.14805E+00 30876   0.369E+00    0.192E+00
DAV:   2    -0.285389384523E+03   -0.69866E-01   -0.88430E-01 40788   0.207E+00    0.941E+00
DAV:   3    -0.285304949993E+03    0.84435E-01   -0.38580E-01 37092   0.191E+00    0.150E+00
DAV:   4    -0.285326651531E+03   -0.21702E-01   -0.11492E-01 38976   0.536E-01    0.247E+00
DAV:   5    -0.285328408887E+03   -0.17574E-02   -0.24321E-02 34968   0.445E-01    0.268E+00
DAV:   6    -0.285321918343E+03    0.64905E-02   -0.15725E-02 37788   0.330E-01    0.128E+00
DAV:   7    -0.285322406962E+03   -0.48862E-03   -0.13671E-02 41532   0.174E-01    0.134E-01
DAV:   8    -0.285323536562E+03   -0.11296E-02   -0.23543E-03 35040   0.881E-02    0.546E-01
DAV:   9    -0.285323386522E+03    0.15004E-03   -0.47355E-04 38844   0.716E-02    0.462E-01
DAV:  10    -0.285323241903E+03    0.14462E-03   -0.78854E-04 41088   0.542E-02    0.146E-01
DAV:  11    -0.285323308252E+03   -0.66349E-04   -0.36870E-04 25548   0.249E-02    0.826E-02
DAV:  12    -0.285323328265E+03   -0.20014E-04   -0.30362E-05 21720   0.175E-02    0.120E-01
DAV:  13    -0.285323317555E+03    0.10710E-04   -0.15476E-05 19152   0.126E-02    0.811E-02
DAV:  14    -0.285323315500E+03    0.20557E-05   -0.26060E-05 18144   0.896E-03
  31 F= -.28532332E+03 E0= -.28532114E+03  d E =-.274815E-01  mag=    18.0000
       N       E                     dE             d eps       ncg     rms          rms(c)
DAV:   1    -0.285324998784E+03   -0.16812E-02   -0.10328E-01 33120   0.105E+00    0.510E-01
DAV:   2    -0.285330561840E+03   -0.55631E-02   -0.68308E-02 40368   0.558E-01    0.294E+00
DAV:   3    -0.285323255673E+03    0.73062E-02   -0.35227E-02 36516   0.537E-01    0.416E-01
DAV:   4    -0.285325692500E+03   -0.24368E-02   -0.12180E-02 38520   0.122E-01    0.838E-01
DAV:   5    -0.285325386202E+03    0.30630E-03   -0.82062E-04 34104   0.136E-01    0.577E-01
DAV:   6    -0.285325278790E+03    0.10741E-03   -0.34649E-04 35388   0.402E-02    0.417E-01
DAV:   7    -0.285325216988E+03    0.61802E-04   -0.87954E-04 36852   0.508E-02    0.780E-02
DAV:   8    -0.285325309755E+03   -0.92766E-04   -0.36560E-04 29940   0.283E-02    0.144E-01
DAV:   9    -0.285325313537E+03   -0.37827E-05   -0.13347E-05 22296   0.201E-02
  32 F= -.28532531E+03 E0= -.28532317E+03  d E =-.199804E-02  mag=    18.0000
       N       E                     dE             d eps       ncg     rms          rms(c)
DAV:   1    -0.285325795415E+03   -0.48566E-03   -0.56239E-02 33228   0.924E-01    0.174E-01
DAV:   2    -0.285326212483E+03   -0.41707E-03   -0.45213E-03 35904   0.201E-01    0.426E-01
DAV:   3    -0.285326118333E+03    0.94150E-04   -0.22947E-03 36324   0.129E-01    0.219E-01
DAV:   4    -0.285326105882E+03    0.12451E-04   -0.13234E-04 32436   0.574E-02    0.953E-02
DAV:   5    -0.285326109572E+03   -0.36907E-05   -0.31300E-04 30360   0.339E-02    0.127E-01
DAV:   6    -0.285326112626E+03   -0.30532E-05   -0.11682E-04 23556   0.288E-02    0.144E-01
DAV:   7    -0.285326095144E+03    0.17482E-04   -0.56700E-05 20688   0.210E-02    0.579E-02
DAV:   8    -0.285326098129E+03   -0.29857E-05   -0.40075E-05 20316   0.107E-02
  33 F= -.28532610E+03 E0= -.28532401E+03  d E =-.784592E-03  mag=    18.0000
       N       E                     dE             d eps       ncg     rms          rms(c)
DAV:   1    -0.285326379651E+03   -0.28451E-03   -0.19587E-02 32940   0.546E-01    0.646E-02
DAV:   2    -0.285326518838E+03   -0.13919E-03   -0.14750E-03 35256   0.109E-01    0.246E-01
DAV:   3    -0.285326473606E+03    0.45232E-04   -0.29926E-04 33324   0.546E-02    0.374E-02
DAV:   4    -0.285326488128E+03   -0.14523E-04   -0.92853E-05 20544   0.168E-02    0.736E-02
DAV:   5    -0.285326486474E+03    0.16539E-05   -0.37303E-05 20220   0.188E-02
  34 F= -.28532649E+03 E0= -.28532440E+03  d E =-.388345E-03  mag=    18.0000
       N       E                     dE             d eps       ncg     rms          rms(c)
DAV:   1    -0.285326422004E+03    0.66125E-04   -0.31278E-01 30744   0.201E+00    0.199E-01
DAV:   2    -0.285328244596E+03   -0.18226E-02   -0.19562E-02 34440   0.397E-01    0.868E-01
DAV:   3    -0.285327697843E+03    0.54675E-03   -0.34861E-03 35928   0.190E-01    0.162E-01
DAV:   4    -0.285327848438E+03   -0.15059E-03   -0.10877E-03 39120   0.587E-02    0.211E-01
DAV:   5    -0.285327850858E+03   -0.24203E-05   -0.39358E-04 33480   0.573E-02    0.219E-01
DAV:   6    -0.285327800668E+03    0.50190E-04   -0.31547E-04 27396   0.431E-02    0.462E-02
DAV:   7    -0.285327826992E+03   -0.26324E-04   -0.27962E-04 32628   0.314E-02    0.170E-01
DAV:   8    -0.285327808589E+03    0.18402E-04   -0.60528E-05 22836   0.268E-02    0.120E-01
DAV:   9    -0.285327801020E+03    0.75695E-05   -0.59314E-05 19416   0.146E-02
  35 F= -.28532780E+03 E0= -.28532568E+03  d E =-.131455E-02  mag=    18.0000
       N       E                     dE             d eps       ncg     rms          rms(c)
DAV:   1    -0.285327988346E+03   -0.17976E-03   -0.56242E-01 30816   0.241E+00    0.242E-01
DAV:   2    -0.285330319514E+03   -0.23312E-02   -0.25813E-02 33912   0.467E-01    0.909E-01
DAV:   3    -0.285329704831E+03    0.61468E-03   -0.56330E-03 36708   0.232E-01    0.102E-01
DAV:   4    -0.285329866562E+03   -0.16173E-03   -0.61105E-04 35484   0.562E-02    0.207E-01
DAV:   5    -0.285329823791E+03    0.42771E-04   -0.41709E-04 36084   0.561E-02    0.163E-01
DAV:   6    -0.285329813503E+03    0.10287E-04   -0.34853E-04 27552   0.409E-02    0.105E-01
DAV:   7    -0.285329817088E+03   -0.35852E-05   -0.71421E-05 30876   0.291E-02
  36 F= -.28532982E+03 E0= -.28532773E+03  d E =-.201607E-02  mag=    18.0000
       N       E                     dE             d eps       ncg     rms          rms(c)
DAV:   1    -0.285323012535E+03    0.68010E-02   -0.35057E+00 30744   0.608E+00    0.518E-01
DAV:   2    -0.285337195623E+03   -0.14183E-01   -0.15317E-01 32496   0.113E+00    0.206E+00
DAV:   3    -0.285334212904E+03    0.29827E-02   -0.26645E-02 37056   0.497E-01    0.253E-01
DAV:   4    -0.285335071535E+03   -0.85863E-03   -0.35525E-03 39204   0.142E-01    0.495E-01
DAV:   5    -0.285334920714E+03    0.15082E-03   -0.19920E-03 39528   0.127E-01    0.454E-01
DAV:   6    -0.285334732501E+03    0.18821E-03   -0.23025E-03 40356   0.106E-01    0.211E-01
DAV:   7    -0.285334798051E+03   -0.65549E-04   -0.73058E-04 35376   0.716E-02    0.374E-01
DAV:   8    -0.285334688266E+03    0.10979E-03   -0.37581E-04 38196   0.545E-02    0.204E-01
DAV:   9    -0.285334690264E+03   -0.19983E-05   -0.26854E-04 26376   0.270E-02    0.660E-02
DAV:  10    -0.285334708115E+03   -0.17851E-04   -0.72027E-05 20628   0.176E-02    0.570E-02
DAV:  11    -0.285334707007E+03    0.11074E-05   -0.99521E-06 19068   0.116E-02
  37 F= -.28533471E+03 E0= -.28533266E+03  d E =-.488992E-02  mag=    18.0000
       N       E                     dE             d eps       ncg     rms          rms(c)
DAV:   1    -0.285176702091E+03    0.15801E+00   -0.25715E+01 31224   0.173E+01    0.400E+00
DAV:   2    -0.285437208848E+03   -0.26051E+00   -0.32973E+00 38292   0.482E+00    0.141E+01
DAV:   3    -0.285239226030E+03    0.19798E+00   -0.11690E+00 35508   0.358E+00    0.208E+00
DAV:   4    -0.285296168976E+03   -0.56943E-01   -0.42966E-01 37500   0.144E+00    0.551E+00
DAV:   5    -0.285273147520E+03    0.23021E-01   -0.15135E-01 38052   0.117E+00    0.253E+00
DAV:   6    -0.285268259013E+03    0.48885E-02   -0.60238E-02 39288   0.646E-01    0.101E+00
DAV:   7    -0.285270304456E+03   -0.20454E-02   -0.37369E-02 41820   0.387E-01    0.130E+00
DAV:   8    -0.285269451399E+03    0.85306E-03   -0.49930E-03 38160   0.274E-01    0.767E-01
DAV:   9    -0.285269182795E+03    0.26860E-03   -0.43203E-03 43416   0.128E-01    0.212E-01
DAV:  10    -0.285269473662E+03   -0.29087E-03   -0.16984E-03 38628   0.725E-02    0.352E-01
DAV:  11    -0.285269393363E+03    0.80299E-04   -0.29175E-04 36228   0.561E-02    0.229E-01
DAV:  12    -0.285269363373E+03    0.29990E-04   -0.44658E-04 36096   0.388E-02    0.846E-02
DAV:  13    -0.285269377931E+03   -0.14558E-04   -0.46427E-05 22680   0.235E-02    0.246E-02
DAV:  14    -0.285269381922E+03   -0.39913E-05   -0.31533E-05 18804   0.117E-02
  38 F= -.28526938E+03 E0= -.28526755E+03  d E =0.653251E-01  mag=    18.0000
       N       E                     dE             d eps       ncg     rms          rms(c)
DAV:   1    -0.285325552578E+03   -0.56175E-01   -0.43380E+00 30588   0.590E+00    0.210E+00
DAV:   2    -0.285372336156E+03   -0.46784E-01   -0.61911E-01 38976   0.213E+00    0.607E+00
DAV:   3    -0.285332278603E+03    0.40058E-01   -0.25692E-01 36816   0.171E+00    0.165E+00
DAV:   4    -0.285341143077E+03   -0.88645E-02   -0.12165E-01 38328   0.795E-01    0.288E+00
DAV:   5    -0.285334727221E+03    0.64159E-02   -0.26080E-02 38736   0.589E-01    0.127E+00
DAV:   6    -0.285334598869E+03    0.12835E-03   -0.32011E-02 40896   0.325E-01    0.700E-01
DAV:   7    -0.285335062494E+03   -0.46362E-03   -0.37928E-03 37284   0.216E-01    0.680E-01
DAV:   8    -0.285334621471E+03    0.44102E-03   -0.22264E-03 41604   0.128E-01    0.193E-01
DAV:   9    -0.285334750763E+03   -0.12929E-03   -0.63764E-04 39948   0.515E-02    0.169E-01
DAV:  10    -0.285334740466E+03    0.10297E-04   -0.17767E-04 29112   0.383E-02    0.628E-02
DAV:  11    -0.285334745945E+03   -0.54792E-05   -0.74280E-05 30180   0.208E-02
  39 F= -.28533475E+03 E0= -.28533279E+03  d E =-.653640E-01  mag=    18.0000
       N       E                     dE             d eps       ncg     rms          rms(c)
DAV:   1    -0.285336615846E+03   -0.18754E-02   -0.34313E-02 33660   0.630E-01    0.181E-01
DAV:   2    -0.285337054127E+03   -0.43828E-03   -0.55453E-03 37356   0.189E-01    0.685E-01
DAV:   3    -0.285336619473E+03    0.43465E-03   -0.25411E-03 35784   0.156E-01    0.828E-02
DAV:   4    -0.285336775906E+03   -0.15643E-03   -0.11056E-03 33912   0.625E-02    0.307E-01
DAV:   5    -0.285336726999E+03    0.48907E-04   -0.34398E-04 30876   0.550E-02    0.209E-01
DAV:   6    -0.285336694791E+03    0.32208E-04   -0.22456E-04 25428   0.320E-02    0.655E-02
DAV:   7    -0.285336708083E+03   -0.13292E-04   -0.12405E-04 21864   0.199E-02    0.602E-02
DAV:   8    -0.285336711139E+03   -0.30561E-05   -0.16883E-05 19248   0.144E-02
  40 F= -.28533671E+03 E0= -.28533478E+03  d E =-.196519E-02  mag=    18.0000
       N       E                     dE             d eps       ncg     rms          rms(c)
DAV:   1    -0.285340176586E+03   -0.34685E-02   -0.98655E-01 32280   0.341E+00    0.995E-01
DAV:   2    -0.285354308078E+03   -0.14131E-01   -0.17345E-01 38940   0.106E+00    0.386E+00
DAV:   3    -0.285340222305E+03    0.14086E-01   -0.74582E-02 36168   0.885E-01    0.609E-01
DAV:   4    -0.285344859755E+03   -0.46375E-02   -0.36080E-02 40248   0.373E-01    0.170E+00
DAV:   5    -0.285343570572E+03    0.12892E-02   -0.12440E-02 37188   0.325E-01    0.124E+00
DAV:   6    -0.285342493235E+03    0.10773E-02   -0.76714E-03 39540   0.182E-01    0.390E-01
DAV:   7    -0.285342958163E+03   -0.46493E-03   -0.40270E-03 41424   0.113E-01    0.336E-01
DAV:   8    -0.285343057773E+03   -0.99610E-04   -0.34242E-04 36168   0.682E-02    0.369E-01
DAV:   9    -0.285342946785E+03    0.11099E-03   -0.35775E-04 33576   0.422E-02    0.175E-01
DAV:  10    -0.285342969228E+03   -0.22443E-04   -0.43337E-04 27888   0.306E-02    0.118E-01
DAV:  11    -0.285342983498E+03   -0.14269E-04   -0.57058E-05 23052   0.203E-02    0.131E-01
DAV:  12    -0.285342968931E+03    0.14566E-04   -0.65508E-05 19992   0.174E-02    0.549E-02
DAV:  13    -0.285342972392E+03   -0.34607E-05   -0.11668E-05 18648   0.966E-03
  41 F= -.28534297E+03 E0= -.28534100E+03  d E =-.626125E-02  mag=    18.0000
       N       E                     dE             d eps       ncg     rms          rms(c)
DAV:   1    -0.285342688131E+03    0.28080E-03   -0.17708E-02 33084   0.438E-01    0.111E-01
DAV:   2    -0.285342823674E+03   -0.13554E-03   -0.16549E-03 37812   0.106E-01    0.361E-01
DAV:   3    -0.285342714745E+03    0.10893E-03   -0.72045E-04 35280   0.788E-02    0.330E-02
DAV:   4    -0.285342755009E+03   -0.40265E-04   -0.21484E-04 29124   0.252E-02    0.143E-01
DAV:   5    -0.285342745051E+03    0.99578E-05   -0.78463E-05 22788   0.273E-02
  42 F= -.28534275E+03 E0= -.28534080E+03  d E =0.227341E-03  mag=    18.0000
       N       E                     dE             d eps       ncg     rms          rms(c)
DAV:   1    -0.285343009699E+03   -0.25469E-03   -0.33184E-02 32544   0.696E-01    0.173E-01
DAV:   2    -0.285343527235E+03   -0.51754E-03   -0.61807E-03 38316   0.205E-01    0.738E-01
DAV:   3    -0.285343048134E+03    0.47910E-03   -0.27667E-03 35604   0.163E-01    0.960E-02
DAV:   4    -0.285343214325E+03   -0.16619E-03   -0.10675E-03 33180   0.623E-02    0.286E-01
DAV:   5    -0.285343179829E+03    0.34495E-04   -0.31387E-04 29832   0.534E-02    0.209E-01
DAV:   6    -0.285343146746E+03    0.33083E-04   -0.17427E-04 24120   0.291E-02    0.793E-02
DAV:   7    -0.285343156681E+03   -0.99352E-05   -0.13232E-04 21792   0.199E-02    0.561E-02
DAV:   8    -0.285343161657E+03   -0.49759E-05   -0.21702E-05 19632   0.144E-02
  43 F= -.28534316E+03 E0= -.28534121E+03  d E =-.416606E-03  mag=    18.0000
       N       E                     dE             d eps       ncg     rms          rms(c)
DAV:   1    -0.285341684207E+03    0.14725E-02   -0.29109E-01 31980   0.244E+00    0.424E-01
DAV:   2    -0.285346438628E+03   -0.47544E-02   -0.52013E-02 36348   0.591E-01    0.195E+00
DAV:   3    -0.285343302486E+03    0.31361E-02   -0.16913E-02 35448   0.416E-01    0.296E-01
DAV:   4    -0.285344296355E+03   -0.99387E-03   -0.56499E-03 37776   0.101E-01    0.560E-01
DAV:   5    -0.285344101593E+03    0.19476E-03   -0.85250E-04 35748   0.113E-01    0.272E-01
DAV:   6    -0.285344091219E+03    0.10374E-04   -0.42383E-04 33240   0.406E-02    0.110E-01
DAV:   7    -0.285344147064E+03   -0.55846E-04   -0.75756E-04 37668   0.499E-02    0.239E-01
DAV:   8    -0.285344126752E+03    0.20312E-04   -0.61968E-05 29544   0.337E-02    0.206E-01
DAV:   9    -0.285344096929E+03    0.29823E-04   -0.10747E-04 21336   0.204E-02    0.881E-02
DAV:  10    -0.285344105768E+03   -0.88395E-05   -0.80751E-05 21792   0.117E-02
  44 F= -.28534411E+03 E0= -.28534213E+03  d E =-.944111E-03  mag=    18.0000
       N       E                     dE             d eps       ncg     rms          rms(c)
DAV:   1    -0.285344240079E+03   -0.14315E-03   -0.18402E-01 31560   0.187E+00    0.221E-01
DAV:   2    -0.285345673845E+03   -0.14338E-02   -0.14455E-02 35064   0.352E-01    0.215E-01
DAV:   3    -0.285345879226E+03   -0.20538E-03   -0.36613E-03 38820   0.148E-01    0.564E-01
DAV:   4    -0.285345619572E+03    0.25965E-03   -0.98768E-04 36504   0.104E-01    0.148E-01
DAV:   5    -0.285345675102E+03   -0.55529E-04   -0.60647E-04 33216   0.393E-02    0.153E-01
DAV:   6    -0.285345696291E+03   -0.21189E-04   -0.20506E-04 26904   0.346E-02    0.209E-01
DAV:   7    -0.285345654346E+03    0.41945E-04   -0.12299E-04 24708   0.308E-02    0.819E-02
DAV:   8    -0.285345662463E+03   -0.81169E-05   -0.11524E-04 20916   0.168E-02    0.440E-02
DAV:   9    -0.285345666476E+03   -0.40137E-05   -0.11348E-05 18804   0.130E-02
  45 F= -.28534567E+03 E0= -.28534368E+03  d E =-.156071E-02  mag=    18.0000
       N       E                     dE             d eps       ncg     rms          rms(c)
DAV:   1    -0.285346498783E+03   -0.83632E-03   -0.19024E-01 30756   0.161E+00    0.227E-01
DAV:   2    -0.285348237808E+03   -0.17390E-02   -0.19695E-02 34668   0.384E-01    0.118E+00
DAV:   3    -0.285347094692E+03    0.11431E-02   -0.61126E-03 35772   0.251E-01    0.203E-01
DAV:   4    -0.285347421179E+03   -0.32649E-03   -0.19928E-03 36636   0.684E-02    0.290E-01
DAV:   5    -0.285347446107E+03   -0.24928E-04   -0.39958E-04 33096   0.596E-02    0.325E-01
DAV:   6    -0.285347354306E+03    0.91800E-04   -0.24345E-04 27036   0.388E-02    0.139E-01
DAV:   7    -0.285347381779E+03   -0.27473E-04   -0.60005E-04 34536   0.375E-02    0.152E-01
DAV:   8    -0.285347396331E+03   -0.14552E-04   -0.85402E-05 22884   0.261E-02    0.187E-01
DAV:   9    -0.285347367233E+03    0.29098E-04   -0.63923E-05 20520   0.205E-02    0.981E-02
DAV:  10    -0.285347368895E+03   -0.16614E-05   -0.61178E-05 20748   0.109E-02
  46 F= -.28534737E+03 E0= -.28534539E+03  d E =-.170242E-02  mag=    18.0000
       N       E                     dE             d eps       ncg     rms          rms(c)
DAV:   1    -0.285348073440E+03   -0.70621E-03   -0.39525E-02 30864   0.672E-01    0.932E-02
DAV:   2    -0.285348411270E+03   -0.33783E-03   -0.39179E-03 33780   0.168E-01    0.567E-01
DAV:   3    -0.285348149850E+03    0.26142E-03   -0.11911E-03 35856   0.112E-01    0.129E-01
DAV:   4    -0.285348210997E+03   -0.61147E-04   -0.41563E-04 26292   0.298E-02    0.101E-01
DAV:   5    -0.285348227539E+03   -0.16542E-04   -0.89160E-05 22248   0.255E-02    0.142E-01
DAV:   6    -0.285348209637E+03    0.17903E-04   -0.36807E-05 20040   0.178E-02    0.708E-02
DAV:   7    -0.285348211517E+03   -0.18803E-05   -0.11248E-04 21744   0.160E-02    0.571E-02
DAV:   8    -0.285348216567E+03   -0.50506E-05   -0.21972E-05 19056   0.121E-02
  47 F= -.28534822E+03 E0= -.28534626E+03  d E =-.847673E-03  mag=    18.0000
       N       E                     dE             d eps       ncg     rms          rms(c)
DAV:   1    -0.285349339727E+03   -0.11282E-02   -0.45720E-01 30768   0.224E+00    0.186E-01
DAV:   2    -0.285351112216E+03   -0.17725E-02   -0.19280E-02 31944   0.416E-01    0.571E-01
DAV:   3    -0.285350903215E+03    0.20900E-03   -0.29353E-03 37164   0.169E-01    0.120E-01
DAV:   4    -0.285350939259E+03   -0.36043E-04   -0.23619E-04 35652   0.540E-02    0.145E-01
DAV:   5    -0.285350921543E+03    0.17715E-04   -0.24756E-04 30192   0.408E-02    0.123E-01
DAV:   6    -0.285350911883E+03    0.96604E-05   -0.34236E-04 31056   0.442E-02    0.129E-01
DAV:   7    -0.285350900398E+03    0.11485E-04   -0.70868E-05 31308   0.317E-02    0.849E-02
DAV:   8    -0.285350896123E+03    0.42749E-05   -0.45855E-05 18852   0.148E-02
  48 F= -.28535090E+03 E0= -.28534893E+03  d E =-.267956E-02  mag=    18.0000
       N       E                     dE             d eps       ncg     rms          rms(c)
DAV:   1    -0.285337805001E+03    0.13095E-01   -0.55914E+00 31764   0.824E+00    0.146E+00
DAV:   2    -0.285404813435E+03   -0.67008E-01   -0.81110E-01 35916   0.233E+00    0.716E+00
DAV:   3    -0.285351369134E+03    0.53444E-01   -0.20761E-01 35208   0.168E+00    0.188E+00
DAV:   4    -0.285358294128E+03   -0.69250E-02   -0.78624E-02 40920   0.377E-01    0.146E+00
DAV:   5    -0.285360964032E+03   -0.26699E-02   -0.12380E-02 33684   0.320E-01    0.174E+00
DAV:   6    -0.285357974760E+03    0.29893E-02   -0.86476E-03 38472   0.242E-01    0.643E-01
DAV:   7    -0.285358605902E+03   -0.63114E-03   -0.11112E-02 42360   0.169E-01    0.568E-01
DAV:   8    -0.285359080770E+03   -0.47487E-03   -0.26360E-03 36012   0.119E-01    0.824E-01
DAV:   9    -0.285358676504E+03    0.40427E-03   -0.40363E-04 40212   0.733E-02    0.640E-01
DAV:  10    -0.285358467311E+03    0.20919E-03   -0.11457E-03 43272   0.538E-02    0.255E-01
DAV:  11    -0.285358573581E+03   -0.10627E-03   -0.63157E-04 27588   0.293E-02    0.401E-02
DAV:  12    -0.285358621053E+03   -0.47472E-04   -0.37223E-05 23148   0.199E-02    0.843E-02
DAV:  13    -0.285358617184E+03    0.38686E-05   -0.68601E-06 19164   0.100E-02
  49 F= -.28535862E+03 E0= -.28535663E+03  d E =-.772106E-02  mag=    18.0000
       N       E                     dE             d eps       ncg     rms          rms(c)
DAV:   1    -0.285207758704E+03    0.15086E+00   -0.13953E+01 30744   0.116E+01    0.446E+00
DAV:   2    -0.285476003827E+03   -0.26825E+00   -0.35719E+00 40104   0.477E+00    0.153E+01
DAV:   3    -0.285220210440E+03    0.25579E+00   -0.14401E+00 36828   0.399E+00    0.297E+00
DAV:   4    -0.285267156155E+03   -0.46946E-01   -0.37234E-01 38328   0.133E+00    0.398E+00
DAV:   5    -0.285254668497E+03    0.12488E-01   -0.46162E-02 35292   0.891E-01    0.230E+00
DAV:   6    -0.285249699055E+03    0.49694E-02   -0.71799E-02 41064   0.557E-01    0.794E-01
DAV:   7    -0.285252320636E+03   -0.26216E-02   -0.14278E-02 37464   0.323E-01    0.130E+00
DAV:   8    -0.285250598430E+03    0.17222E-02   -0.70097E-03 41076   0.240E-01    0.434E-01
DAV:   9    -0.285250916677E+03   -0.31825E-03   -0.21761E-03 42192   0.909E-02    0.124E-01
DAV:  10    -0.285251057894E+03   -0.14122E-03   -0.65762E-04 34080   0.476E-02    0.254E-01
DAV:  11    -0.285251006121E+03    0.51773E-04   -0.10585E-04 32436   0.369E-02    0.169E-01
DAV:  12    -0.285250989345E+03    0.16776E-04   -0.31637E-04 28620   0.312E-02    0.332E-02
DAV:  13    -0.285251002759E+03   -0.13414E-04   -0.23446E-05 23124   0.222E-02    0.110E-02
DAV:  14    -0.285251003024E+03   -0.26525E-06   -0.33561E-06 18312   0.627E-03
  50 F= -.28525100E+03 E0= -.28524974E+03  d E =0.107614E+00  mag=    18.0000
       N       E                     dE             d eps       ncg     rms          rms(c)
DAV:   1    -0.285326054905E+03   -0.75052E-01   -0.19079E+00 31260   0.380E+00    0.227E+00
DAV:   2    -0.285399490270E+03   -0.73435E-01   -0.98252E-01 40176   0.240E+00    0.786E+00
DAV:   3    -0.285322046500E+03    0.77444E-01   -0.29749E-01 37992   0.209E+00    0.154E+00
DAV:   4    -0.285334034190E+03   -0.11988E-01   -0.12622E-01 41412   0.574E-01    0.268E+00
DAV:   5    -0.285334575721E+03   -0.54153E-03   -0.25875E-02 35148   0.479E-01    0.285E+00
DAV:   6    -0.285326859679E+03    0.77160E-02   -0.39097E-02 38376   0.411E-01    0.509E-01
DAV:   7    -0.285329755675E+03   -0.28960E-02   -0.97365E-03 38988   0.178E-01    0.528E-01
DAV:   8    -0.285329995683E+03   -0.24001E-03   -0.75061E-04 35136   0.114E-01    0.575E-01
DAV:   9    -0.285329810203E+03    0.18548E-03   -0.46331E-04 40104   0.549E-02    0.451E-01
DAV:  10    -0.285329689163E+03    0.12104E-03   -0.87645E-04 41628   0.568E-02    0.122E-01
DAV:  11    -0.285329781991E+03   -0.92828E-04   -0.59547E-04 31692   0.308E-02    0.162E-01
DAV:  12    -0.285329779345E+03    0.26457E-05   -0.23281E-05 23076   0.245E-02
  51 F= -.28532978E+03 E0= -.28532814E+03  d E =-.787763E-01  mag=    18.0000
       N       E                     dE             d eps       ncg     rms          rms(c)
DAV:   1    -0.285349573182E+03   -0.19791E-01   -0.41291E-01 31368   0.178E+00    0.118E+00
DAV:   2    -0.285376478110E+03   -0.26905E-01   -0.33543E-01 40644   0.129E+00    0.547E+00
DAV:   3    -0.285344656293E+03    0.31822E-01   -0.12717E-01 37716   0.120E+00    0.101E+00
DAV:   4    -0.285351435273E+03   -0.67790E-02   -0.50581E-02 41004   0.280E-01    0.162E+00
DAV:   5    -0.285352002983E+03   -0.56771E-03   -0.64821E-03 33756   0.256E-01    0.178E+00
DAV:   6    -0.285349377701E+03    0.26253E-02   -0.71623E-03 38448   0.194E-01    0.764E-01
DAV:   7    -0.285349872973E+03   -0.49527E-03   -0.43106E-03 41352   0.927E-02    0.206E-01
DAV:   8    -0.285350240512E+03   -0.36754E-03   -0.12608E-03 33648   0.616E-02    0.306E-01
DAV:   9    -0.285350266369E+03   -0.25857E-04   -0.17545E-04 26232   0.350E-02    0.358E-01
DAV:  10    -0.285350165764E+03    0.10061E-03   -0.22921E-04 31080   0.372E-02    0.189E-01
DAV:  11    -0.285350171296E+03   -0.55328E-05   -0.28145E-04 23868   0.223E-02    0.104E-02
DAV:  12    -0.285350192748E+03   -0.21451E-04   -0.27368E-05 20760   0.123E-02    0.513E-02
DAV:  13    -0.285350192552E+03    0.19567E-06   -0.17104E-06 19152   0.599E-03
  52 F= -.28535019E+03 E0= -.28534843E+03  d E =-.204132E-01  mag=    18.0000
       N       E                     dE             d eps       ncg     rms          rms(c)
DAV:   1    -0.285360263041E+03   -0.10070E-01   -0.12459E+00 31332   0.313E+00    0.203E+00
DAV:   2    -0.285433371955E+03   -0.73109E-01   -0.94295E-01 40548   0.221E+00    0.828E+00
DAV:   3    -0.285351803391E+03    0.81569E-01   -0.28827E-01 37908   0.199E+00    0.176E+00
DAV:   4    -0.285364737944E+03   -0.12935E-01   -0.12506E-01 41280   0.503E-01    0.241E+00
DAV:   5    -0.285367929206E+03   -0.31913E-02   -0.23756E-02 34908   0.412E-01    0.295E+00
DAV:   6    -0.285359770214E+03    0.81590E-02   -0.25139E-02 38004   0.363E-01    0.107E+00
DAV:   7    -0.285361559980E+03   -0.17898E-02   -0.12482E-02 40992   0.155E-01    0.296E-01
DAV:   8    -0.285362460383E+03   -0.90040E-03   -0.20350E-03 33276   0.100E-01    0.566E-01
DAV:   9    -0.285362376105E+03    0.84277E-04   -0.26709E-04 33756   0.542E-02    0.567E-01
DAV:  10    -0.285362134881E+03    0.24122E-03   -0.82111E-04 40140   0.596E-02    0.235E-01
DAV:  11    -0.285362205928E+03   -0.71047E-04   -0.80847E-04 32940   0.348E-02    0.992E-02
DAV:  12    -0.285362242319E+03   -0.36392E-04   -0.29021E-05 22848   0.229E-02    0.122E-01
DAV:  13    -0.285362231864E+03    0.10455E-04   -0.15651E-05 19560   0.121E-02    0.824E-02
DAV:  14    -0.285362229657E+03    0.22077E-05   -0.21585E-05 18588   0.664E-03
  53 F= -.28536223E+03 E0= -.28536028E+03  d E =-.120371E-01  mag=    18.0000
       N       E                     dE             d eps       ncg     rms          rms(c)
DAV:   1    -0.285362561503E+03   -0.32964E-03   -0.12990E-02 32544   0.406E-01    0.112E-01
DAV:   2    -0.285362876359E+03   -0.31486E-03   -0.37271E-03 39624   0.141E-01    0.641E-01
DAV:   3    -0.285362527450E+03    0.34891E-03   -0.14956E-03 36180   0.120E-01    0.132E-01
DAV:   4    -0.285362624699E+03   -0.97249E-04   -0.66725E-04 29556   0.359E-02    0.163E-01
DAV:   5    -0.285362644890E+03   -0.20191E-04   -0.12952E-04 24816   0.312E-02    0.212E-01
DAV:   6    -0.285362608200E+03    0.36689E-04   -0.70671E-05 21072   0.224E-02    0.111E-01
DAV:   7    -0.285362609642E+03   -0.14416E-05   -0.12138E-04 22944   0.153E-02    0.329E-02
DAV:   8    -0.285362618939E+03   -0.92971E-05   -0.33412E-05 19248   0.115E-02
  54 F= -.28536262E+03 E0= -.28536070E+03  d E =-.389283E-03  mag=    18.0000
       N       E                     dE             d eps       ncg     rms          rms(c)
DAV:   1    -0.285363010106E+03   -0.40046E-03   -0.10103E-01 31032   0.111E+00    0.310E-01
DAV:   2    -0.285364972460E+03   -0.19624E-02   -0.23254E-02 39060   0.365E-01    0.158E+00
DAV:   3    -0.285362863390E+03    0.21091E-02   -0.11414E-02 36576   0.313E-01    0.182E-01
DAV:   4    -0.285363590594E+03   -0.72720E-03   -0.34867E-03 35232   0.843E-02    0.482E-01
DAV:   5    -0.285363573876E+03    0.16718E-04   -0.63878E-04 33804   0.792E-02    0.507E-01
DAV:   6    -0.285363376409E+03    0.19747E-03   -0.46599E-04 28608   0.507E-02    0.248E-01
DAV:   7    -0.285363413497E+03   -0.37088E-04   -0.98685E-04 39012   0.450E-02    0.137E-01
DAV:   8    -0.285363458155E+03   -0.44658E-04   -0.13812E-04 26940   0.301E-02    0.197E-01
DAV:   9    -0.285363426111E+03    0.32043E-04   -0.62077E-05 22380   0.218E-02    0.113E-01
DAV:  10    -0.285363425205E+03    0.90679E-06   -0.67886E-05 19836   0.122E-02
  55 F= -.28536343E+03 E0= -.28536153E+03  d E =-.806265E-03  mag=    18.0000
       N       E                     dE             d eps       ncg     rms          rms(c)
DAV:   1    -0.285363610787E+03   -0.18468E-03   -0.71807E-03 32052   0.274E-01    0.717E-02
DAV:   2    -0.285363707982E+03   -0.97195E-04   -0.11364E-03 38064   0.813E-02    0.343E-01
DAV:   3    -0.285363609711E+03    0.98271E-04   -0.56822E-04 32568   0.706E-02    0.321E-02
DAV:   4    -0.285363644649E+03   -0.34939E-04   -0.16202E-04 21252   0.200E-02    0.113E-01
DAV:   5    -0.285363642001E+03    0.26484E-05   -0.36052E-05 20592   0.193E-02
  56 F= -.28536364E+03 E0= -.28536172E+03  d E =-.216796E-03  mag=    18.0000
       N       E                     dE             d eps       ncg     rms          rms(c)
DAV:   1    -0.285363902968E+03   -0.25832E-03   -0.33648E-02 32064   0.657E-01    0.179E-01
DAV:   2    -0.285365083307E+03   -0.11803E-02   -0.13717E-02 39936   0.249E-01    0.129E+00
DAV:   3    -0.285363706017E+03    0.13773E-02   -0.46641E-03 36024   0.218E-01    0.374E-01
DAV:   4    -0.285363957470E+03   -0.25145E-03   -0.18765E-03 34680   0.472E-02    0.127E-01
DAV:   5    -0.285364050366E+03   -0.92896E-04   -0.86070E-05 27672   0.411E-02    0.150E-01
DAV:   6    -0.285364039337E+03    0.11029E-04   -0.21835E-05 19860   0.160E-02    0.130E-01
DAV:   7    -0.285364025563E+03    0.13774E-04   -0.74767E-05 20412   0.174E-02    0.338E-02
DAV:   8    -0.285364034625E+03   -0.90622E-05   -0.72952E-05 20844   0.118E-02
  57 F= -.28536403E+03 E0= -.28536214E+03  d E =-.392624E-03  mag=    18.0000
       N       E                     dE             d eps       ncg     rms          rms(c)
DAV:   1    -0.285364412384E+03   -0.38682E-03   -0.88993E-02 30744   0.100E+00    0.997E-02
DAV:   2    -0.285364898188E+03   -0.48580E-03   -0.52204E-03 34452   0.200E-01    0.499E-01
DAV:   3    -0.285364706079E+03    0.19211E-03   -0.10573E-03 36720   0.103E-01    0.934E-02
DAV:   4    -0.285364760612E+03   -0.54533E-04   -0.36699E-04 27348   0.312E-02    0.126E-01
DAV:   5    -0.285364763677E+03   -0.30654E-05   -0.87775E-05 23436   0.296E-02
  58 F= -.28536476E+03 E0= -.28536289E+03  d E =-.729053E-03  mag=    18.0000
       N       E                     dE             d eps       ncg     rms          rms(c)
DAV:   1    -0.285364361705E+03    0.39891E-03   -0.10037E+00 30744   0.310E+00    0.369E-01
DAV:   2    -0.285369440272E+03   -0.50786E-02   -0.58318E-02 34128   0.670E-01    0.189E+00
DAV:   3    -0.285366572289E+03    0.28680E-02   -0.17369E-02 36108   0.416E-01    0.274E-01
DAV:   4    -0.285367363530E+03   -0.79124E-03   -0.40332E-03 38124   0.114E-01    0.421E-01
DAV:   5    -0.285367355821E+03    0.77090E-05   -0.10560E-03 35808   0.984E-02    0.435E-01
DAV:   6    -0.285367158176E+03    0.19764E-03   -0.87354E-04 34344   0.701E-02    0.104E-01
DAV:   7    -0.285367279794E+03   -0.12162E-03   -0.15207E-03 40224   0.639E-02    0.348E-01
DAV:   8    -0.285367225962E+03    0.53832E-04   -0.15379E-04 34416   0.484E-02    0.289E-01
DAV:   9    -0.285367168882E+03    0.57079E-04   -0.25511E-04 29028   0.308E-02    0.114E-01
DAV:  10    -0.285367188175E+03   -0.19293E-04   -0.11867E-04 21600   0.157E-02    0.201E-02
DAV:  11    -0.285367197276E+03   -0.91009E-05   -0.16137E-05 19200   0.792E-03
  59 F= -.28536720E+03 E0= -.28536530E+03  d E =-.243360E-02  mag=    18.0000
       N       E                     dE             d eps       ncg     rms          rms(c)
DAV:   1    -0.285350915949E+03    0.16272E-01   -0.57197E+00 31728   0.827E+00    0.976E-01
DAV:   2    -0.285392779564E+03   -0.41864E-01   -0.47465E-01 34260   0.184E+00    0.527E+00
DAV:   3    -0.285368882815E+03    0.23897E-01   -0.10668E-01 35520   0.113E+00    0.138E+00
DAV:   4    -0.285373121097E+03   -0.42383E-02   -0.46842E-02 43116   0.292E-01    0.109E+00
DAV:   5    -0.285373451374E+03   -0.33028E-03   -0.58420E-03 35136   0.296E-01    0.698E-01
DAV:   6    -0.285373034099E+03    0.41727E-03   -0.30343E-03 37764   0.150E-01    0.210E-01
DAV:   7    -0.285373195442E+03   -0.16134E-03   -0.36371E-03 42192   0.120E-01    0.493E-01
DAV:   8    -0.285373227578E+03   -0.32137E-04   -0.12475E-03 37272   0.940E-02    0.576E-01
DAV:   9    -0.285372979272E+03    0.24831E-03   -0.55599E-04 40560   0.623E-02    0.314E-01
DAV:  10    -0.285372987237E+03   -0.79652E-05   -0.59320E-04 35856   0.334E-02    0.428E-02
DAV:  11    -0.285373048334E+03   -0.61097E-04   -0.20310E-04 21672   0.182E-02    0.125E-01
DAV:  12    -0.285373039931E+03    0.84033E-05   -0.15532E-05 21612   0.192E-02
  60 F= -.28537304E+03 E0= -.28537120E+03  d E =-.584266E-02  mag=    18.0000
       N       E                     dE             d eps       ncg     rms          rms(c)
DAV:   1    -0.285370974003E+03    0.20743E-02   -0.97347E-01 31248   0.388E+00    0.774E-01
DAV:   2    -0.285391984194E+03   -0.21010E-01   -0.24357E-01 38640   0.118E+00    0.466E+00
DAV:   3    -0.285372562901E+03    0.19421E-01   -0.72809E-02 35112   0.899E-01    0.127E+00
DAV:   4    -0.285376114384E+03   -0.35515E-02   -0.33608E-02 40308   0.230E-01    0.840E-01
DAV:   5    -0.285377151215E+03   -0.10368E-02   -0.31764E-03 33372   0.208E-01    0.941E-01
DAV:   6    -0.285376439701E+03    0.71151E-03   -0.14525E-03 38220   0.106E-01    0.520E-01
DAV:   7    -0.285376412958E+03    0.26743E-04   -0.36776E-03 42132   0.978E-02    0.217E-01
DAV:   8    -0.285376711588E+03   -0.29863E-03   -0.13589E-03 37512   0.659E-02    0.512E-01
DAV:   9    -0.285376573224E+03    0.13836E-03   -0.11579E-04 31740   0.450E-02    0.440E-01
DAV:  10    -0.285376473316E+03    0.99908E-04   -0.29716E-04 29904   0.324E-02    0.247E-01
DAV:  11    -0.285376485069E+03   -0.11753E-04   -0.32487E-04 23292   0.217E-02    0.386E-02
DAV:  12    -0.285376518619E+03   -0.33550E-04   -0.72192E-05 21228   0.120E-02    0.537E-02
DAV:  13    -0.285376520030E+03   -0.14110E-05   -0.23978E-06 19356   0.892E-03
  61 F= -.28537652E+03 E0= -.28537466E+03  d E =-.348010E-02  mag=    18.0000
       N       E                     dE             d eps       ncg     rms          rms(c)
DAV:   1    -0.285376983844E+03   -0.46522E-03   -0.44611E-01 31224   0.237E+00    0.664E-01
DAV:   2    -0.285390790680E+03   -0.13807E-01   -0.16524E-01 39144   0.921E-01    0.418E+00
DAV:   3    -0.285375095855E+03    0.15695E-01   -0.60000E-02 35916   0.782E-01    0.100E+00
DAV:   4    -0.285378260485E+03   -0.31646E-02   -0.19924E-02 39216   0.168E-01    0.599E-01
DAV:   5    -0.285379162081E+03   -0.90160E-03   -0.19657E-03 33636   0.137E-01    0.827E-01
DAV:   6    -0.285378643752E+03    0.51833E-03   -0.67630E-04 32112   0.785E-02    0.535E-01
DAV:   7    -0.285378536074E+03    0.10768E-03   -0.19333E-03 40728   0.684E-02    0.112E-01
DAV:   8    -0.285378718122E+03   -0.18205E-03   -0.88150E-04 34380   0.459E-02    0.274E-01
DAV:   9    -0.285378718728E+03   -0.60627E-06   -0.60361E-05 24636   0.277E-02
  62 F= -.28537872E+03 E0= -.28537688E+03  d E =-.219870E-02  mag=    18.0000
       N       E                     dE             d eps       ncg     rms          rms(c)
DAV:   1    -0.285364889883E+03    0.13828E-01   -0.52833E+00 30756   0.778E+00    0.803E-01
DAV:   2    -0.285393987267E+03   -0.29097E-01   -0.32120E-01 32412   0.162E+00    0.391E+00
DAV:   3    -0.285382083146E+03    0.11904E-01   -0.75649E-02 36144   0.885E-01    0.581E-01
DAV:   4    -0.285385410217E+03   -0.33271E-02   -0.17802E-02 40356   0.238E-01    0.868E-01
DAV:   5    -0.285385305081E+03    0.10514E-03   -0.38794E-03 36072   0.207E-01    0.840E-01
DAV:   6    -0.285384577563E+03    0.72752E-03   -0.37915E-03 39600   0.135E-01    0.157E-01
DAV:   7    -0.285385085719E+03   -0.50816E-03   -0.57609E-03 40344   0.129E-01    0.744E-01
DAV:   8    -0.285384826488E+03    0.25923E-03   -0.64686E-04 34956   0.996E-02    0.622E-01
DAV:   9    -0.285384587597E+03    0.23889E-03   -0.98803E-04 40248   0.579E-02    0.280E-01
DAV:  10    -0.285384654196E+03   -0.66598E-04   -0.51036E-04 33072   0.347E-02    0.411E-02
DAV:  11    -0.285384700381E+03   -0.46185E-04   -0.10196E-04 21288   0.155E-02    0.774E-02
DAV:  12    -0.285384696701E+03    0.36804E-05   -0.24751E-05 20052   0.172E-02
  63 F= -.28538470E+03 E0= -.28538289E+03  d E =-.597797E-02  mag=    18.0000
       N       E                     dE             d eps       ncg     rms          rms(c)
DAV:   1    -0.285296761268E+03    0.87939E-01   -0.18361E+01 30744   0.135E+01    0.342E+00
DAV:   2    -0.285510918263E+03   -0.21416E+00   -0.27808E+00 39192   0.431E+00    0.121E+01
DAV:   3    -0.285331383856E+03    0.17953E+00   -0.69133E-01 36192   0.326E+00    0.243E+00
DAV:   4    -0.285362213300E+03   -0.30829E-01   -0.35244E-01 41136   0.925E-01    0.416E+00
DAV:   5    -0.285360691066E+03    0.15222E-02   -0.75630E-02 35652   0.812E-01    0.369E+00
DAV:   6    -0.285345283078E+03    0.15408E-01   -0.65856E-02 39240   0.639E-01    0.933E-01
DAV:   7    -0.285349844602E+03   -0.45615E-02   -0.39866E-02 42216   0.353E-01    0.123E+00
DAV:   8    -0.285350288027E+03   -0.44343E-03   -0.37421E-03 35424   0.241E-01    0.130E+00
DAV:   9    -0.285349161566E+03    0.11265E-02   -0.24130E-03 42972   0.121E-01    0.816E-01
DAV:  10    -0.285349016500E+03    0.14507E-03   -0.50991E-03 43452   0.112E-01    0.756E-02
DAV:  11    -0.285349473759E+03   -0.45726E-03   -0.14425E-03 33636   0.508E-02    0.418E-01
DAV:  12    -0.285349340363E+03    0.13340E-03   -0.17448E-04 33300   0.509E-02    0.280E-01
DAV:  13    -0.285349299201E+03    0.41162E-04   -0.44182E-04 34788   0.331E-02    0.439E-02
DAV:  14    -0.285349332285E+03   -0.33084E-04   -0.31175E-05 21276   0.155E-02    0.624E-03
DAV:  15    -0.285349335592E+03   -0.33078E-05   -0.31916E-06 19140   0.609E-03
  64 F= -.28534934E+03 E0= -.28534756E+03  d E =0.353611E-01  mag=    18.0000
       N       E                     dE             d eps       ncg     rms          rms(c)
DAV:   1    -0.285375294269E+03   -0.25962E-01   -0.11024E+00 30744   0.306E+00    0.137E+00
DAV:   2    -0.285406283509E+03   -0.30989E-01   -0.40513E-01 40440   0.146E+00    0.578E+00
DAV:   3    -0.285371103349E+03    0.35180E-01   -0.15615E-01 36912   0.129E+00    0.840E-01
DAV:   4    -0.285380646729E+03   -0.95434E-02   -0.70924E-02 40524   0.343E-01    0.222E+00
DAV:   5    -0.285378836675E+03    0.18101E-02   -0.84949E-03 34620   0.350E-01    0.188E+00
DAV:   6    -0.285376182539E+03    0.26541E-02   -0.11141E-02 40824   0.219E-01    0.648E-01
DAV:   7    -0.285377184319E+03   -0.10018E-02   -0.77875E-03 41364   0.125E-01    0.376E-01
DAV:   8    -0.285377589956E+03   -0.40564E-03   -0.10295E-03 33528   0.874E-02    0.565E-01
DAV:   9    -0.285377376739E+03    0.21322E-03   -0.28476E-04 38316   0.539E-02    0.419E-01
DAV:  10    -0.285377277593E+03    0.99146E-04   -0.10742E-03 41580   0.539E-02    0.473E-02
DAV:  11    -0.285377380277E+03   -0.10268E-03   -0.40287E-04 26808   0.244E-02    0.184E-01
DAV:  12    -0.285377361458E+03    0.18819E-04   -0.26372E-05 22380   0.240E-02    0.135E-01
DAV:  13    -0.285377351014E+03    0.10444E-04   -0.63046E-05 20040   0.137E-02    0.480E-02
DAV:  14    -0.285377356145E+03   -0.51306E-05   -0.22551E-05 19152   0.731E-03
  65 F= -.28537736E+03 E0= -.28537561E+03  d E =-.280206E-01  mag=    18.0000
       N       E                     dE             d eps       ncg     rms          rms(c)
DAV:   1    -0.285382452470E+03   -0.51015E-02   -0.17441E-01 31704   0.125E+00    0.503E-01
DAV:   2    -0.285386794882E+03   -0.43424E-02   -0.55805E-02 40116   0.530E-01    0.245E+00
DAV:   3    -0.285381421812E+03    0.53731E-02   -0.27622E-02 36276   0.484E-01    0.293E-01
DAV:   4    -0.285383188370E+03   -0.17666E-02   -0.94322E-03 40236   0.122E-01    0.801E-01
DAV:   5    -0.285382897237E+03    0.29113E-03   -0.10973E-03 35004   0.132E-01    0.626E-01
DAV:   6    -0.285382673277E+03    0.22396E-03   -0.72241E-04 36636   0.559E-02    0.320E-01
[...]
DAV:   1    -0.285376348659E+03    0.37955E-01   -0.75059E+00 30984   0.941E+00    0.164E+00
DAV:   2    -0.285427243050E+03   -0.50894E-01   -0.62492E-01 36336   0.223E+00    0.595E+00
DAV:   3    -0.285401378453E+03    0.25865E-01   -0.28224E-01 35112   0.152E+00    0.730E-01
DAV:   4    -0.285409208010E+03   -0.78296E-02   -0.29975E-02 38088   0.498E-01    0.133E+00
DAV:   5    -0.285407543469E+03    0.16645E-02   -0.14867E-02 39384   0.394E-01    0.671E-01
DAV:   6    -0.285406852468E+03    0.69100E-03   -0.76467E-03 41460   0.237E-01    0.277E-01
DAV:   7    -0.285407042939E+03   -0.19047E-03   -0.27313E-03 41784   0.143E-01    0.415E-01
DAV:   8    -0.285406875926E+03    0.16701E-03   -0.79021E-04 39600   0.951E-02    0.230E-01
DAV:   9    -0.285406844615E+03    0.31312E-04   -0.46279E-04 42552   0.477E-02    0.575E-02
DAV:  10    -0.285406860467E+03   -0.15852E-04   -0.11242E-04 23832   0.218E-02    0.503E-02
DAV:  11    -0.285406858234E+03    0.22328E-05   -0.28084E-05 22656   0.190E-02
 107 F= -.28540686E+03 E0= -.28540643E+03  d E =0.744803E-02  mag=    18.0000
       N       E                     dE             d eps       ncg     rms          rms(c)
DAV:   1    -0.285366689675E+03    0.40171E-01   -0.12886E+01 31440   0.124E+01    0.187E+00
DAV:   2    -0.285445129461E+03   -0.78440E-01   -0.96316E-01 35868   0.292E+00    0.477E+00
DAV:   3    -0.285418341243E+03    0.26788E-01   -0.17041E-01 35184   0.175E+00    0.996E-01
DAV:   4    -0.285419630088E+03   -0.12888E-02   -0.43465E-02 41124   0.448E-01    0.111E+00
DAV:   5    -0.285418801419E+03    0.82867E-03   -0.14544E-02 36276   0.417E-01    0.654E-01
DAV:   6    -0.285418430100E+03    0.37132E-03   -0.89403E-03 41124   0.249E-01    0.510E-01
DAV:   7    -0.285417993692E+03    0.43641E-03   -0.28909E-03 37248   0.192E-01    0.145E-01
DAV:   8    -0.285418049356E+03   -0.55664E-04   -0.65423E-04 36684   0.770E-02    0.661E-02
DAV:   9    -0.285418052612E+03   -0.32562E-05   -0.73099E-05 32100   0.320E-02
 108 F= -.28541805E+03 E0= -.28541744E+03  d E =-.111944E-01  mag=    18.0000
       N       E                     dE             d eps       ncg     rms          rms(c)
DAV:   1    -0.285415935118E+03    0.21142E-02   -0.64544E-01 30744   0.271E+00    0.477E-01
DAV:   2    -0.285418578589E+03   -0.26435E-02   -0.31447E-02 36600   0.539E-01    0.600E-01
DAV:   3    -0.285418568448E+03    0.10141E-04   -0.98905E-03 37176   0.312E-01    0.521E-01
DAV:   4    -0.285418238080E+03    0.33037E-03   -0.18491E-03 39864   0.167E-01    0.164E-01
DAV:   5    -0.285418253900E+03   -0.15820E-04   -0.92734E-04 42636   0.832E-02    0.178E-01
DAV:   6    -0.285418222383E+03    0.31517E-04   -0.36253E-04 40992   0.637E-02    0.102E-01
DAV:   7    -0.285418214567E+03    0.78154E-05   -0.13464E-04 33000   0.353E-02    0.277E-02
DAV:   8    -0.285418216305E+03   -0.17372E-05   -0.23788E-05 20484   0.175E-02
 109 F= -.28541822E+03 E0= -.28541761E+03  d E =-.163692E-03  mag=    18.0000
       N       E                     dE             d eps       ncg     rms          rms(c)
DAV:   1    -0.285418859440E+03   -0.64487E-03   -0.10420E-01 30804   0.993E-01    0.283E-01
DAV:   2    -0.285419433179E+03   -0.57374E-03   -0.85191E-03 37404   0.276E-01    0.637E-01
DAV:   3    -0.285419088174E+03    0.34500E-03   -0.48722E-03 36612   0.219E-01    0.173E-01
DAV:   4    -0.285419121783E+03   -0.33609E-04   -0.37406E-04 35448   0.722E-02    0.171E-01
DAV:   5    -0.285419091486E+03    0.30297E-04   -0.32364E-04 34884   0.561E-02    0.795E-02
DAV:   6    -0.285419090764E+03    0.72252E-06   -0.17113E-04 28620   0.335E-02    0.714E-02
DAV:   7    -0.285419086368E+03    0.43956E-05   -0.34368E-05 22620   0.223E-02
 110 F= -.28541909E+03 E0= -.28541848E+03  d E =-.870064E-03  mag=    18.0000
       N       E                     dE             d eps       ncg     rms          rms(c)
DAV:   1    -0.285419252092E+03   -0.16133E-03   -0.61191E-02 31092   0.894E-01    0.136E-01
DAV:   2    -0.285419711472E+03   -0.45938E-03   -0.55266E-03 35184   0.220E-01    0.519E-01
DAV:   3    -0.285419474381E+03    0.23709E-03   -0.18962E-03 35268   0.143E-01    0.516E-02
DAV:   4    -0.285419524814E+03   -0.50433E-04   -0.19112E-04 31812   0.264E-02    0.766E-02
DAV:   5    -0.285419516844E+03    0.79701E-05   -0.52949E-05 20484   0.263E-02
 111 F= -.28541952E+03 E0= -.28541893E+03  d E =-.430475E-03  mag=    18.0000
       N       E                     dE             d eps       ncg     rms          rms(c)
DAV:   1    -0.285309867336E+03    0.10966E+00   -0.26694E+01 31464   0.182E+01    0.226E+00
DAV:   2    -0.285455703543E+03   -0.14584E+00   -0.16899E+00 34032   0.384E+00    0.834E+00
DAV:   3    -0.285414319421E+03    0.41384E-01   -0.66125E-01 35088   0.230E+00    0.119E+00
DAV:   4    -0.285426771160E+03   -0.12452E-01   -0.23239E-02 35532   0.552E-01    0.111E+00
DAV:   5    -0.285425028619E+03    0.17425E-02   -0.13748E-02 40968   0.369E-01    0.863E-01
DAV:   6    -0.285423327075E+03    0.17015E-02   -0.10997E-02 41028   0.317E-01    0.346E-01
DAV:   7    -0.285423568700E+03   -0.24163E-03   -0.48462E-03 36744   0.193E-01    0.594E-01
DAV:   8    -0.285423146528E+03    0.42217E-03   -0.26136E-03 39744   0.154E-01    0.290E-01
DAV:   9    -0.285423121020E+03    0.25508E-04   -0.80929E-04 42456   0.760E-02    0.756E-02
DAV:  10    -0.285423139350E+03   -0.18330E-04   -0.10307E-04 32040   0.264E-02    0.260E-02
DAV:  11    -0.285423139937E+03   -0.58752E-06   -0.21193E-05 22572   0.172E-02
 112 F= -.28542314E+03 E0= -.28542273E+03  d E =-.362309E-02  mag=    18.0000
       N       E                     dE             d eps       ncg     rms          rms(c)
DAV:   1    -0.283897495729E+03    0.15256E+01   -0.12660E+02 30744   0.335E+01    0.139E+01
DAV:   2    -0.284990297095E+03   -0.10928E+01   -0.19555E+01 38712   0.138E+01    0.201E+01
DAV:   3    -0.284399700455E+03    0.59060E+00   -0.25611E+00 36276   0.884E+00    0.825E+00
DAV:   4    -0.284274591273E+03    0.12511E+00   -0.16680E+00 41112   0.430E+00    0.839E+00
DAV:   5    -0.284280655026E+03   -0.60638E-02   -0.12515E+00 40284   0.277E+00    0.801E+00
DAV:   6    -0.284236962141E+03    0.43693E-01   -0.16259E+00 38100   0.294E+00    0.549E+00
DAV:   7    -0.284206466620E+03    0.30496E-01   -0.21122E-01 38196   0.170E+00    0.144E+00
DAV:   8    -0.284209932131E+03   -0.34655E-02   -0.48122E-02 38724   0.513E-01    0.663E-01
DAV:   9    -0.284210284139E+03   -0.35201E-03   -0.56496E-03 37404   0.335E-01    0.254E-01
DAV:  10    -0.284210384892E+03   -0.10075E-03   -0.18660E-03 39324   0.128E-01    0.316E-01
DAV:  11    -0.284210331908E+03    0.52984E-04   -0.37099E-04 36036   0.615E-02    0.279E-01
DAV:  12    -0.284210278274E+03    0.53634E-04   -0.10641E-03 41244   0.708E-02    0.678E-02
DAV:  13    -0.284210322787E+03   -0.44513E-04   -0.81925E-05 29892   0.241E-02    0.127E-01
DAV:  14    -0.284210306666E+03    0.16121E-04   -0.58546E-05 24384   0.201E-02    0.505E-02
DAV:  15    -0.284210313215E+03   -0.65492E-05   -0.82962E-05 21936   0.150E-02
 113 F= -.28421031E+03 E0= -.28420966E+03  d E =0.121283E+01  mag=    18.0000
       N       E                     dE             d eps       ncg     rms          rms(c)
DAV:   1    -0.285035260505E+03   -0.82495E+00   -0.24085E+01 30288   0.132E+01    0.507E+00
DAV:   2    -0.285287385471E+03   -0.25212E+00   -0.34398E+00 38436   0.482E+00    0.143E+01
DAV:   3    -0.285073604240E+03    0.21378E+00   -0.15573E+00 36432   0.387E+00    0.241E+00
DAV:   4    -0.285110048258E+03   -0.36444E-01   -0.17016E-01 36516   0.119E+00    0.444E+00
DAV:   5    -0.285093239853E+03    0.16808E-01   -0.14287E-01 37164   0.106E+00    0.203E+00
DAV:   6    -0.285093590842E+03   -0.35099E-03   -0.11150E-01 40404   0.782E-01    0.195E+00
DAV:   7    -0.285090599828E+03    0.29910E-02   -0.17070E-02 40344   0.544E-01    0.867E-01
DAV:   8    -0.285090519959E+03    0.79868E-04   -0.62453E-03 40428   0.192E-01    0.291E-01
DAV:   9    -0.285090759476E+03   -0.23952E-03   -0.22599E-03 39744   0.102E-01    0.222E-01
DAV:  10    -0.285090755858E+03    0.36181E-05   -0.30208E-04 37644   0.569E-02    0.161E-01
DAV:  11    -0.285090729052E+03    0.26807E-04   -0.19309E-04 39024   0.385E-02    0.501E-02
DAV:  12    -0.285090735952E+03   -0.69006E-05   -0.33986E-05 23196   0.142E-02
 114 F= -.28509074E+03 E0= -.28509010E+03  d E =-.880423E+00  mag=    18.0000
       N       E                     dE             d eps       ncg     rms          rms(c)
DAV:   1    -0.285332325788E+03   -0.24160E+00   -0.10245E+01 30408   0.889E+00    0.325E+00
DAV:   2    -0.285435630741E+03   -0.10330E+00   -0.14177E+00 38544   0.313E+00    0.111E+01
DAV:   3    -0.285338152903E+03    0.97478E-01   -0.99927E-01 36252   0.265E+00    0.173E+00
DAV:   4    -0.285370700220E+03   -0.32547E-01   -0.14564E-01 37560   0.103E+00    0.420E+00
DAV:   5    -0.285355256610E+03    0.15444E-01   -0.87757E-02 37236   0.863E-01    0.145E+00
DAV:   6    -0.285355375088E+03   -0.11848E-03   -0.36484E-02 40080   0.463E-01    0.713E-01
DAV:   7    -0.285355831124E+03   -0.45604E-03   -0.10157E-02 40356   0.295E-01    0.680E-01
DAV:   8    -0.285355465660E+03    0.36546E-03   -0.20223E-03 39936   0.159E-01    0.365E-01
DAV:   9    -0.285355402924E+03    0.62736E-04   -0.15045E-03 43104   0.850E-02    0.100E-01
DAV:  10    -0.285355461202E+03   -0.58278E-04   -0.29525E-04 33996   0.374E-02    0.124E-01
DAV:  11    -0.285355449360E+03    0.11842E-04   -0.62931E-05 29532   0.259E-02    0.926E-02
DAV:  12    -0.285355441828E+03    0.75321E-05   -0.57997E-05 21828   0.184E-02
 115 F= -.28535544E+03 E0= -.28535482E+03  d E =-.264706E+00  mag=    18.0000
       N       E                     dE             d eps       ncg     rms          rms(c)
DAV:   1    -0.285407650180E+03   -0.52201E-01   -0.43788E+00 30528   0.606E+00    0.212E+00
DAV:   2    -0.285441418007E+03   -0.33768E-01   -0.49088E-01 38184   0.199E+00    0.614E+00
DAV:   3    -0.285413961672E+03    0.27456E-01   -0.38751E-01 35880   0.169E+00    0.118E+00
DAV:   4    -0.285422562056E+03   -0.86004E-02   -0.47138E-02 38484   0.634E-01    0.232E+00
DAV:   5    -0.285417439223E+03    0.51228E-02   -0.29513E-02 37776   0.515E-01    0.713E-01
DAV:   6    -0.285417723771E+03   -0.28455E-03   -0.12666E-02 41844   0.270E-01    0.483E-01
DAV:   7    -0.285417728499E+03   -0.47282E-05   -0.29713E-03 38868   0.171E-01    0.354E-01
DAV:   8    -0.285417622285E+03    0.10621E-03   -0.67857E-04 40692   0.889E-02    0.188E-01
DAV:   9    -0.285417604150E+03    0.18136E-04   -0.49705E-04 42780   0.519E-02    0.416E-02
DAV:  10    -0.285417618595E+03   -0.14446E-04   -0.53954E-05 25728   0.196E-02    0.572E-02
DAV:  11    -0.285417615120E+03    0.34748E-05   -0.22916E-05 20652   0.154E-02
 116 F= -.28541762E+03 E0= -.28541704E+03  d E =-.621733E-01  mag=    18.0000
       N       E                     dE             d eps       ncg     rms          rms(c)
DAV:   1    -0.285423315548E+03   -0.56970E-02   -0.74157E-01 31800   0.279E+00    0.848E-01
DAV:   2    -0.285427934791E+03   -0.46192E-02   -0.69425E-02 37380   0.790E-01    0.184E+00
DAV:   3    -0.285425300986E+03    0.26338E-02   -0.41832E-02 35256   0.653E-01    0.444E-01
DAV:   4    -0.285425451506E+03   -0.15052E-03   -0.12825E-03 35592   0.171E-01    0.213E-01
DAV:   5    -0.285425348278E+03    0.10323E-03   -0.12945E-03 40092   0.972E-02    0.113E-01
DAV:   6    -0.285425358386E+03   -0.10109E-04   -0.21832E-04 36900   0.507E-02    0.135E-01
DAV:   7    -0.285425345517E+03    0.12870E-04   -0.12919E-04 31620   0.359E-02    0.815E-02
DAV:   8    -0.285425339864E+03    0.56525E-05   -0.59948E-05 22296   0.225E-02
 117 F= -.28542534E+03 E0= -.28542479E+03  d E =-.772474E-02  mag=    18.0000
       N       E                     dE             d eps       ncg     rms          rms(c)
DAV:   1    -0.285426688109E+03   -0.13426E-02   -0.43311E-01 32016   0.242E+00    0.556E-01
DAV:   2    -0.285429178200E+03   -0.24901E-02   -0.32130E-02 36480   0.535E-01    0.834E-01
DAV:   3    -0.285428803955E+03    0.37425E-03   -0.13532E-02 35292   0.379E-01    0.413E-01
DAV:   4    -0.285428614029E+03    0.18993E-03   -0.10249E-03 36396   0.146E-01    0.116E-01
DAV:   5    -0.285428612968E+03    0.10613E-05   -0.81387E-04 41772   0.734E-02    0.180E-01
DAV:   6    -0.285428596291E+03    0.16677E-04   -0.38493E-04 34944   0.590E-02    0.128E-01
DAV:   7    -0.285428581068E+03    0.15224E-04   -0.10229E-04 30876   0.367E-02    0.413E-02
DAV:   8    -0.285428582585E+03   -0.15176E-05   -0.38587E-05 19164   0.159E-02
 118 F= -.28542858E+03 E0= -.28542805E+03  d E =-.324272E-02  mag=    18.0000
       N       E                     dE             d eps       ncg     rms          rms(c)
DAV:   1    -0.285428831396E+03   -0.25033E-03   -0.30272E-02 34032   0.750E-01    0.131E-01
DAV:   2    -0.285429097818E+03   -0.26642E-03   -0.27882E-03 35688   0.150E-01    0.152E-01
DAV:   3    -0.285429106233E+03   -0.84149E-05   -0.76239E-04 35988   0.846E-02    0.168E-01
DAV:   4    -0.285429076879E+03    0.29354E-04   -0.13617E-04 31128   0.459E-02    0.416E-02
DAV:   5    -0.285429080158E+03   -0.32795E-05   -0.10727E-04 23472   0.269E-02    0.693E-02
DAV:   6    -0.285429077171E+03    0.29871E-05   -0.33558E-05 20652   0.212E-02
 119 F= -.28542908E+03 E0= -.28542854E+03  d E =-.494586E-03  mag=    18.0000
       N       E                     dE             d eps       ncg     rms          rms(c)
DAV:   1    -0.285427822766E+03    0.12574E-02   -0.13722E-01 32760   0.177E+00    0.239E-01
DAV:   2    -0.285429285321E+03   -0.14626E-02   -0.15331E-02 35304   0.351E-01    0.436E-01
DAV:   3    -0.285429199146E+03    0.86175E-04   -0.30834E-03 35988   0.184E-01    0.192E-01
DAV:   4    -0.285429195419E+03    0.37263E-05   -0.31299E-04 36552   0.700E-02    0.103E-01
DAV:   5    -0.285429182627E+03    0.12792E-04   -0.23250E-04 31188   0.476E-02    0.794E-02
DAV:   6    -0.285429176592E+03    0.60354E-05   -0.10975E-04 31704   0.326E-02    0.758E-02
DAV:   7    -0.285429169058E+03    0.75334E-05   -0.52442E-05 21132   0.251E-02
 120 F= -.28542917E+03 E0= -.28542865E+03  d E =-.918870E-04  mag=    18.0000
       N       E                     dE             d eps       ncg     rms          rms(c)
DAV:   1    -0.285428530616E+03    0.64598E-03   -0.78542E-02 32328   0.133E+00    0.228E-01
DAV:   2    -0.285429532910E+03   -0.10023E-02   -0.11499E-02 35808   0.312E-01    0.598E-01
DAV:   3    -0.285429270162E+03    0.26275E-03   -0.35430E-03 35160   0.203E-01    0.109E-01
DAV:   4    -0.285429326630E+03   -0.56468E-04   -0.31694E-04 34380   0.600E-02    0.121E-01
DAV:   5    -0.285429309444E+03    0.17186E-04   -0.15690E-04 28812   0.441E-02    0.486E-02
DAV:   6    -0.285429306662E+03    0.27817E-05   -0.75590E-05 21060   0.249E-02
 121 F= -.28542931E+03 E0= -.28542880E+03  d E =-.137604E-03  mag=    18.0000
       N       E                     dE             d eps       ncg     rms          rms(c)
DAV:   1    -0.285428701407E+03    0.60804E-03   -0.56916E-02 31824   0.117E+00    0.147E-01
DAV:   2    -0.285429354482E+03   -0.65308E-03   -0.64584E-03 33612   0.228E-01    0.206E-01
DAV:   3    -0.285429361081E+03   -0.65988E-05   -0.11345E-03 37068   0.107E-01    0.172E-01
DAV:   4    -0.285429341979E+03    0.19102E-04   -0.13921E-04 30996   0.486E-02    0.482E-02
DAV:   5    -0.285429341812E+03    0.16691E-06   -0.75408E-05 21696   0.237E-02
 122 F= -.28542934E+03 E0= -.28542883E+03  d E =-.351501E-04  mag=    18.0000
       N       E                     dE             d eps       ncg     rms          rms(c)
DAV:   1    -0.285429286897E+03    0.55082E-04   -0.46166E-02 31848   0.819E-01    0.104E-01
DAV:   2    -0.285429558670E+03   -0.27177E-03   -0.27933E-03 35568   0.152E-01    0.694E-02
DAV:   3    -0.285429568150E+03   -0.94799E-05   -0.23427E-04 35460   0.517E-02    0.102E-01
DAV:   4    -0.285429555572E+03    0.12578E-04   -0.99874E-05 24300   0.337E-02    0.302E-02
DAV:   5    -0.285429554535E+03    0.10372E-05   -0.33129E-05 19176   0.190E-02
 123 F= -.28542955E+03 E0= -.28542903E+03  d E =-.212722E-03  mag=    18.0000
       N       E                     dE             d eps       ncg     rms          rms(c)
DAV:   1    -0.285429547138E+03    0.84339E-05   -0.51867E-02 31584   0.788E-01    0.111E-01
DAV:   2    -0.285429789544E+03   -0.24241E-03   -0.27583E-03 36276   0.156E-01    0.204E-01
DAV:   3    -0.285429768807E+03    0.20737E-04   -0.65026E-04 36240   0.832E-02    0.936E-02
DAV:   4    -0.285429760630E+03    0.81774E-05   -0.55353E-05 26268   0.327E-02
 124 F= -.28542976E+03 E0= -.28542925E+03  d E =-.206095E-03  mag=    18.0000
       N       E                     dE             d eps       ncg     rms          rms(c)
DAV:   1    -0.285429731468E+03    0.37339E-04   -0.10677E-01 30768   0.109E+00    0.109E-01
DAV:   2    -0.285430171044E+03   -0.43958E-03   -0.47855E-03 35268   0.204E-01    0.263E-01
DAV:   3    -0.285430123650E+03    0.47393E-04   -0.74751E-04 36084   0.927E-02    0.634E-02
DAV:   4    -0.285430122510E+03    0.11398E-05   -0.40335E-05 30060   0.272E-02
 125 F= -.28543012E+03 E0= -.28542960E+03  d E =-.361881E-03  mag=    18.0000
       N       E                     dE             d eps       ncg     rms          rms(c)
DAV:   1    -0.285429151276E+03    0.97237E-03   -0.39332E-01 30756   0.215E+00    0.193E-01
DAV:   2    -0.285430835091E+03   -0.16838E-02   -0.17677E-02 34200   0.388E-01    0.359E-01
DAV:   3    -0.285430777735E+03    0.57356E-04   -0.20416E-03 36744   0.155E-01    0.149E-01
DAV:   4    -0.285430755082E+03    0.22653E-04   -0.24910E-04 36396   0.613E-02    0.906E-02
DAV:   5    -0.285430742900E+03    0.12182E-04   -0.18947E-04 32004   0.430E-02    0.820E-02
DAV:   6    -0.285430726279E+03    0.16621E-04   -0.98981E-05 31164   0.363E-02    0.620E-02
DAV:   7    -0.285430722435E+03    0.38448E-05   -0.54905E-05 23484   0.248E-02
 126 F= -.28543072E+03 E0= -.28543020E+03  d E =-.599924E-03  mag=    18.0000
       N       E                     dE             d eps       ncg     rms          rms(c)
DAV:   1    -0.285429424189E+03    0.13021E-02   -0.29999E-01 31200   0.204E+00    0.319E-01
DAV:   2    -0.285431167222E+03   -0.17430E-02   -0.19812E-02 34860   0.424E-01    0.528E-01
DAV:   3    -0.285431058981E+03    0.10824E-03   -0.48818E-03 35292   0.243E-01    0.214E-01
DAV:   4    -0.285431010117E+03    0.48864E-04   -0.32391E-04 35220   0.816E-02    0.725E-02
DAV:   5    -0.285431005476E+03    0.46414E-05   -0.26741E-04 34596   0.454E-02    0.129E-01
DAV:   6    -0.285430986920E+03    0.18556E-04   -0.16677E-04 28596   0.405E-02    0.563E-02
DAV:   7    -0.285430985022E+03    0.18981E-05   -0.45265E-05 25152   0.248E-02
 127 F= -.28543099E+03 E0= -.28543048E+03  d E =-.262587E-03  mag=    18.0000
       N       E                     dE             d eps       ncg     rms          rms(c)
DAV:   1    -0.285430684518E+03    0.30240E-03   -0.76046E-02 32280   0.971E-01    0.143E-01
DAV:   2    -0.285431042116E+03   -0.35760E-03   -0.38905E-03 35124   0.185E-01    0.175E-01
DAV:   3    -0.285431044045E+03   -0.19289E-05   -0.83963E-04 36456   0.938E-02    0.158E-01
DAV:   4    -0.285431015135E+03    0.28910E-04   -0.21055E-04 32100   0.520E-02    0.606E-02
DAV:   5    -0.285431012918E+03    0.22174E-05   -0.69147E-05 20820   0.269E-02
 128 F= -.28543101E+03 E0= -.28543051E+03  d E =-.278959E-04  mag=    18.0000
       N       E                     dE             d eps       ncg     rms          rms(c)
DAV:   1    -0.285431008418E+03    0.67169E-05   -0.72526E-03 33168   0.320E-01    0.608E-02
DAV:   2    -0.285431050576E+03   -0.42158E-04   -0.45347E-04 35292   0.614E-02    0.359E-02
DAV:   3    -0.285431051823E+03   -0.12463E-05   -0.66208E-05 24300   0.268E-02    0.686E-02
DAV:   4    -0.285431046888E+03    0.49350E-05   -0.44285E-05 20112   0.221E-02
 129 F= -.28543105E+03 E0= -.28543054E+03  d E =-.339700E-04  mag=    18.0000
