       N       E                     dE             d eps       ncg     rms          ort
DAV:   1     0.252950487600E+04    0.25295E+04   -0.14374E+05  6804   0.160E+03
DAV:   2    -0.184028111441E+03   -0.27135E+04   -0.25825E+04  6804   0.425E+02
DAV:   3    -0.454144032609E+03   -0.27012E+03   -0.26621E+03  6804   0.149E+02
DAV:   4    -0.464001897776E+03   -0.98579E+01   -0.96575E+01  6804   0.255E+01
DAV:   5    -0.464525552972E+03   -0.52366E+00   -0.52157E+00  6804   0.484E+00
SDA:   6    -0.285568113486E+03    0.17896E+03   -0.52157E+00  6804   0.613E+03 0.000E+00
CGA:   7    -0.347317962164E+03   -0.61750E+02   -0.75700E+02  6804   0.661E+02 0.123E+02
CGA:   8    -0.359246775332E+03   -0.11929E+02   -0.11920E+02  6804   0.158E+02 0.176E-01
CGA:   9    -0.362690184722E+03   -0.34434E+01   -0.34399E+01  6804   0.567E+01 0.982E-01
CGA:  10    -0.363919571216E+03   -0.12294E+01   -0.12287E+01  6804   0.225E+01 0.147E-02
CGA:  11    -0.364455838046E+03   -0.53627E+00   -0.53718E+00  6804   0.774E+00-0.267E-01
CGA:  12    -0.364644545645E+03   -0.18871E+00   -0.18908E+00  6804   0.282E+00-0.852E-02
CGA:  13    -0.364718277354E+03   -0.73732E-01   -0.73280E-01  6804   0.887E-01 0.731E-02
CGA:  14    -0.364744978558E+03   -0.26701E-01   -0.26363E-01  6804   0.359E-01 0.402E-02
CGA:  15    -0.364757810470E+03   -0.12832E-01   -0.12954E-01  6804   0.166E-01-0.890E-03
CGA:  16    -0.364762998542E+03   -0.51881E-02   -0.51139E-02  6804   0.647E-02 0.743E-03
CGA:  17    -0.364765342493E+03   -0.23440E-02   -0.23804E-02  6804   0.282E-02-0.279E-03
CGA:  18    -0.364766132537E+03   -0.79004E-03   -0.75670E-03  6804   0.101E-02 0.623E-03
CGA:  19    -0.364766502476E+03   -0.36994E-03   -0.35304E-03  6804   0.485E-03 0.301E-03
CGA:  20    -0.364766727866E+03   -0.22539E-03   -0.21061E-03  6804   0.299E-03 0.144E-03
CGA:  21    -0.364766761504E+03   -0.33638E-04   -0.57188E-04  6804   0.188E-03 0.260E-03
CGA:  22    -0.364766774450E+03   -0.12946E-04   -0.26117E-04  6804   0.119E-03 0.139E-03
CGA:  23    -0.364766787492E+03   -0.13041E-04   -0.19540E-04  6804   0.939E-04 0.997E-04
CGA:  24    -0.364766790777E+03   -0.32855E-05   -0.11863E-04  6804   0.868E-04 0.864E-04
   1 F= -.36476679E+03 E0= -.36476679E+03  d E =-.364767E+03  mag=    16.0000
       N       E                     dE             d eps       ncg     rms          ort
SDA:   1    -0.364782409097E+03   -0.15622E-01    0.00000E+00  6804   0.253E-02 0.000E+00
CGA:   2    -0.364783010255E+03   -0.60116E-03   -0.59813E-03  6804   0.675E-03 0.142E-03
CGA:   3    -0.364783205250E+03   -0.19500E-03   -0.19375E-03  6804   0.228E-03 0.221E-04
CGA:   4    -0.364783244222E+03   -0.38972E-04   -0.41219E-04  6804   0.817E-04 0.513E-04
CGA:   5    -0.364783247194E+03   -0.29720E-05   -0.10562E-04  6804   0.533E-04 0.683E-04
   2 F= -.36478325E+03 E0= -.36478325E+03  d E =-.164564E-01  mag=    16.0000
       N       E                     dE             d eps       ncg     rms          ort
SDA:   1    -0.364164986229E+03    0.61826E+00    0.00000E+00  6804   0.341E+01 0.000E+00
CGA:   2    -0.365013879611E+03   -0.84889E+00   -0.84901E+00  6804   0.921E+00-0.164E-02
CGA:   3    -0.365248132785E+03   -0.23425E+00   -0.23444E+00  6804   0.240E+00-0.417E-02
CGA:   4    -0.365293388094E+03   -0.45255E-01   -0.45252E-01  6804   0.634E-01-0.210E-03
CGA:   5    -0.365305727617E+03   -0.12340E-01   -0.12341E-01  6804   0.185E-01 0.136E-03
CGA:   6    -0.365310503270E+03   -0.47757E-02   -0.47687E-02  6804   0.867E-02 0.143E-03
CGA:   7    -0.365313001914E+03   -0.24986E-02   -0.24864E-02  6804   0.449E-02 0.163E-03
CGA:   8    -0.365314403170E+03   -0.14013E-02   -0.13814E-02  6804   0.198E-02 0.224E-03
CGA:   9    -0.365314993328E+03   -0.59016E-03   -0.57421E-03  6804   0.722E-03 0.276E-03
CGA:  10    -0.365315209573E+03   -0.21625E-03   -0.20902E-03  6804   0.273E-03 0.219E-03
CGA:  11    -0.365315273233E+03   -0.63660E-04   -0.68868E-04  6804   0.136E-03 0.178E-03
CGA:  12    -0.365315287843E+03   -0.14610E-04   -0.20936E-04  6804   0.838E-04 0.948E-04
CGA:  13    -0.365315291071E+03   -0.32279E-05   -0.10298E-04  6804   0.718E-04 0.745E-04
   3 F= -.36531529E+03 E0= -.36531529E+03  d E =-.532044E+00  mag=    16.0000
       N       E                     dE             d eps       ncg     rms          ort
SDA:   1    -0.361192579496E+03    0.41227E+01    0.00000E+00  6804   0.144E+02 0.000E+00
CGA:   2    -0.364778337041E+03   -0.35858E+01   -0.35877E+01  6804   0.387E+01-0.436E-01
CGA:   3    -0.365727663287E+03   -0.94933E+00   -0.94971E+00  6804   0.107E+01-0.130E-01
CGA:   4    -0.365922993621E+03   -0.19533E+00   -0.19532E+00  6804   0.278E+00-0.625E-03
CGA:   5    -0.365978040045E+03   -0.55046E-01   -0.55048E-01  6804   0.817E-01 0.197E-03
CGA:   6    -0.365999266232E+03   -0.21226E-01   -0.21223E-01  6804   0.398E-01 0.464E-04
CGA:   7    -0.366010608250E+03   -0.11342E-01   -0.11329E-01  6804   0.203E-01 0.166E-03
CGA:   8    -0.366017002206E+03   -0.63940E-02   -0.63604E-02  6804   0.917E-02 0.350E-03
CGA:   9    -0.366019747421E+03   -0.27452E-02   -0.27124E-02  6804   0.340E-02 0.466E-03
CGA:  10    -0.366020874818E+03   -0.11274E-02   -0.11046E-02  6804   0.133E-02 0.269E-03
CGA:  11    -0.366021341060E+03   -0.46624E-03   -0.44531E-03  6804   0.576E-03 0.252E-03
CGA:  12    -0.366021545794E+03   -0.20473E-03   -0.19392E-03  6804   0.235E-03 0.213E-03
CGA:  13    -0.366021623901E+03   -0.78107E-04   -0.77392E-04  6804   0.971E-04 0.133E-03
CGA:  14    -0.366021638568E+03   -0.14667E-04   -0.17721E-04  6804   0.490E-04 0.583E-04
CGA:  15    -0.366021640104E+03   -0.15352E-05   -0.61411E-05  6804   0.412E-04 0.431E-04
   4 F= -.36602164E+03 E0= -.36602164E+03  d E =-.706349E+00  mag=    16.0000
       N       E                     dE             d eps       ncg     rms          ort
SDA:   1    -0.361828950849E+03    0.41927E+01    0.00000E+00  6804   0.135E+02 0.000E+00
CGA:   2    -0.365162761940E+03   -0.33338E+01   -0.33345E+01  6804   0.389E+01-0.223E-01
CGA:   3    -0.366066918872E+03   -0.90416E+00   -0.90434E+00  6804   0.119E+01-0.180E-01
CGA:   4    -0.366271269611E+03   -0.20435E+00   -0.20429E+00  6804   0.269E+00-0.178E-02
CGA:   5    -0.366324804714E+03   -0.53535E-01   -0.53569E-01  6804   0.764E-01 0.165E-02
CGA:   6    -0.366343566855E+03   -0.18762E-01   -0.18742E-01  6804   0.347E-01 0.817E-03
CGA:   7    -0.366353724473E+03   -0.10158E-01   -0.10180E-01  6804   0.183E-01-0.316E-03
CGA:   8    -0.366359752805E+03   -0.60283E-02   -0.61112E-02  6804   0.981E-02-0.721E-03
CGA:   9    -0.366362545611E+03   -0.27928E-02   -0.27932E-02  6804   0.365E-02-0.212E-05
CGA:  10    -0.366363672140E+03   -0.11265E-02   -0.11149E-02  6804   0.134E-02 0.161E-03
CGA:  11    -0.366364136362E+03   -0.46422E-03   -0.45207E-03  6804   0.587E-03 0.140E-03
CGA:  12    -0.366364356985E+03   -0.22062E-03   -0.21096E-03  6804   0.243E-03 0.115E-03
CGA:  13    -0.366364469065E+03   -0.11208E-03   -0.11186E-03  6804   0.109E-03 0.164E-05
CGA:  14    -0.366364497464E+03   -0.28399E-04   -0.28240E-04  6804   0.339E-04 0.308E-04
CGA:  15    -0.366364503000E+03   -0.55358E-05   -0.72849E-05  6804   0.137E-04 0.207E-04
   5 F= -.36636450E+03 E0= -.36636450E+03  d E =-.342863E+00  mag=    16.0000
       N       E                     dE             d eps       ncg     rms          ort
SDA:   1    -0.361148167504E+03    0.52163E+01    0.00000E+00  6804   0.152E+02 0.000E+00
CGA:   2    -0.365082326289E+03   -0.39342E+01   -0.39345E+01  6804   0.518E+01-0.224E-01
CGA:   3    -0.366186184156E+03   -0.11039E+01   -0.11034E+01  6804   0.159E+01-0.136E-01
CGA:   4    -0.366455484407E+03   -0.26930E+00   -0.26924E+00  6804   0.322E+00-0.160E-02
CGA:   5    -0.366519524088E+03   -0.64040E-01   -0.64102E-01  6804   0.936E-01 0.151E-02
CGA:   6    -0.366541281358E+03   -0.21757E-01   -0.21763E-01  6804   0.377E-01 0.795E-03
CGA:   7    -0.366552034972E+03   -0.10754E-01   -0.10769E-01  6804   0.185E-01-0.359E-03
CGA:   8    -0.366558104379E+03   -0.60694E-02   -0.61426E-02  6804   0.103E-01-0.785E-03
CGA:   9    -0.366561058679E+03   -0.29543E-02   -0.29568E-02  6804   0.386E-02-0.459E-04
CGA:  10    -0.366562249872E+03   -0.11912E-02   -0.11840E-02  6804   0.144E-02 0.120E-03
CGA:  11    -0.366562769250E+03   -0.51938E-03   -0.51562E-03  6804   0.693E-03 0.396E-04
CGA:  12    -0.366563026406E+03   -0.25716E-03   -0.25046E-03  6804   0.303E-03 0.700E-04
CGA:  13    -0.366563167557E+03   -0.14115E-03   -0.16818E-03  6804   0.228E-03-0.112E-03
CGA:  14    -0.366563214969E+03   -0.47412E-04   -0.50260E-04  6804   0.908E-04-0.381E-04
CGA:  15    -0.366563237093E+03   -0.22124E-04   -0.39796E-04  6804   0.102E-03-0.716E-04
CGA:  16    -0.366563274193E+03   -0.37100E-04   -0.43248E-04  6804   0.499E-04-0.466E-04
CGA:  17    -0.366563293530E+03   -0.19338E-04    0.20186E-04  6804   0.182E-04 0.102E-04
CGA:  18    -0.366563130512E+03    0.16302E-03   -0.87809E-04  6804   0.765E-03-0.130E-03
CGA:  19    -0.366563350229E+03   -0.21972E-03   -0.21460E-03  6804   0.207E-04-0.198E-04
CGA:  20    -0.366563351491E+03   -0.12620E-05   -0.38964E-05  6804   0.512E-05 0.788E-05
   6 F= -.36656335E+03 E0= -.36656335E+03  d E =-.198848E+00  mag=    16.0000
       N       E                     dE             d eps       ncg     rms          ort
SDA:   1    -0.358791946739E+03    0.77714E+01    0.00000E+00  6804   0.209E+02 0.000E+00
CGA:   2    -0.364519085230E+03   -0.57271E+01   -0.57297E+01  6804   0.872E+01 0.274E-01
CGA:   3    -0.366162433486E+03   -0.16433E+01   -0.16441E+01  6804   0.229E+01 0.233E-01
CGA:   4    -0.366558903312E+03   -0.39647E+00   -0.39668E+00  6804   0.454E+00 0.131E-02
CGA:   5    -0.366647649718E+03   -0.88746E-01   -0.88843E-01  6804   0.133E+00 0.421E-03
CGA:   6    -0.366677134860E+03   -0.29485E-01   -0.29507E-01  6804   0.464E-01 0.105E-03
CGA:   7    -0.366689588192E+03   -0.12453E-01   -0.12421E-01  6804   0.205E-01-0.203E-03
CGA:   8    -0.366696115096E+03   -0.65269E-02   -0.64943E-02  6804   0.107E-01-0.287E-03
CGA:   9    -0.366699392234E+03   -0.32771E-02   -0.32729E-02  6804   0.419E-02-0.376E-04
CGA:  10    -0.366700722084E+03   -0.13299E-02   -0.13299E-02  6804   0.160E-02 0.300E-06
CGA:  11    -0.366701301713E+03   -0.57963E-03   -0.57589E-03  6804   0.800E-03-0.664E-04
CGA:  12    -0.366701592723E+03   -0.29101E-03   -0.29150E-03  6804   0.389E-03 0.137E-04
CGA:  13    -0.366701772477E+03   -0.17975E-03   -0.18412E-03  6804   0.228E-03-0.826E-04
CGA:  14    -0.366701846263E+03   -0.73787E-04   -0.73505E-04  6804   0.854E-04-0.471E-04
CGA:  15    -0.366700859226E+03    0.98704E-03   -0.53453E-03  6804   0.395E-02-0.521E-03
CGA:  16    -0.366701813399E+03   -0.95417E-03   -0.10215E-02  6804   0.341E-03 0.134E-03
CGA:  17    -0.366702018157E+03   -0.20476E-03   -0.16704E-03  6804   0.262E-03-0.146E-03
CGA:  18    -0.366702005347E+03    0.12810E-04   -0.22923E-04  6804   0.135E-03 0.633E-04
CGA:  19    -0.366701990861E+03    0.14486E-04   -0.21065E-04  6804   0.531E-04 0.631E-04
CGA:  20    -0.366701995146E+03   -0.42851E-05   -0.14184E-04  6804   0.291E-04 0.207E-04
CGA:  21    -0.366701950452E+03    0.44694E-04   -0.49384E-04  6804   0.566E-03-0.161E-03
CGA:  22    -0.366701982690E+03   -0.32238E-04   -0.10636E-03  6804   0.893E-04 0.155E-03
CGA:  23    -0.366702006320E+03   -0.23630E-04   -0.29498E-04  6804   0.148E-04 0.153E-04
CGA:  24    -0.366702066095E+03   -0.59775E-04    0.30792E-05  6804   0.510E-04-0.270E-04
CGA:  25    -0.366702053717E+03    0.12378E-04   -0.42426E-05  6804   0.189E-04 0.307E-04
CGA:  26    -0.366702047678E+03    0.60391E-05   -0.12425E-05  6804   0.100E-04 0.137E-04
   7 F= -.36670205E+03 E0= -.36670205E+03  d E =-.138696E+00  mag=    16.0000
       N       E                     dE             d eps       ncg     rms          ort
SDA:   1    -0.352143113323E+03    0.14559E+02    0.00000E+00  6804   0.378E+02 0.000E+00
CGA:   2    -0.362777651296E+03   -0.10635E+02   -0.10665E+02  6804   0.172E+02 0.728E-01
CGA:   3    -0.365844960678E+03   -0.30673E+01   -0.30758E+01  6804   0.393E+01 0.149E+00
CGA:   4    -0.366540259997E+03   -0.69530E+00   -0.69546E+00  6804   0.817E+00 0.797E-02
CGA:   5    -0.366698501710E+03   -0.15824E+00   -0.15821E+00  6804   0.237E+00 0.123E-03
CGA:   6    -0.366750341001E+03   -0.51839E-01   -0.51831E-01  6804   0.779E-01-0.974E-04
CGA:   7    -0.366770692302E+03   -0.20351E-01   -0.20315E-01  6804   0.329E-01-0.224E-03
CGA:   8    -0.366780927857E+03   -0.10236E-01   -0.10188E-01  6804   0.162E-01-0.338E-03
CGA:   9    -0.366785921066E+03   -0.49932E-02   -0.49719E-02  6804   0.622E-02-0.158E-03
CGA:  10    -0.366787890455E+03   -0.19694E-02   -0.19523E-02  6804   0.227E-02-0.137E-03
CGA:  11    -0.366788698644E+03   -0.80819E-03   -0.79570E-03  6804   0.112E-02-0.162E-03
CGA:  12    -0.366789131381E+03   -0.43274E-03   -0.43135E-03  6804   0.642E-03-0.766E-04
CGA:  13    -0.366789426720E+03   -0.29534E-03   -0.31397E-03  6804   0.471E-03-0.204E-03
CGA:  14    -0.366789549083E+03   -0.12236E-03   -0.11766E-03  6804   0.169E-03-0.678E-04
CGA:  15    -0.366789358264E+03    0.19082E-03   -0.17875E-03  6804   0.149E-02-0.463E-03
CGA:  16    -0.366789650457E+03   -0.29219E-03   -0.34057E-03  6804   0.144E-03 0.197E-03
CGA:  17    -0.366789659583E+03   -0.91254E-05   -0.14556E-03  6804   0.873E-03-0.317E-03
CGA:  18    -0.366789720208E+03   -0.60626E-04   -0.13704E-03  6804   0.123E-03 0.234E-03
CGA:  19    -0.366789738628E+03   -0.18420E-04   -0.29651E-04  6804   0.300E-04 0.407E-04
CGA:  20    -0.366789785003E+03   -0.46375E-04    0.32426E-04  6804   0.448E-04-0.370E-04
CGA:  21    -0.366789779074E+03    0.59292E-05   -0.41841E-05  6804   0.185E-04 0.281E-04
   8 F= -.36678978E+03 E0= -.36678978E+03  d E =-.877314E-01  mag=    16.0000
       N       E                     dE             d eps       ncg     rms          ort
SDA:   1    -0.364330193090E+03    0.24596E+01    0.00000E+00  6804   0.673E+01 0.000E+00
CGA:   2    -0.366101965164E+03   -0.17718E+01   -0.17717E+01  6804   0.313E+01-0.832E-03
CGA:   3    -0.366664471655E+03   -0.56251E+00   -0.56258E+00  6804   0.766E+00 0.187E-02
CGA:   4    -0.366797677314E+03   -0.13321E+00   -0.13325E+00  6804   0.160E+00 0.283E-03
CGA:   5    -0.366827786962E+03   -0.30110E-01   -0.30120E-01  6804   0.432E-01 0.293E-04
CGA:   6    -0.366836919297E+03   -0.91323E-02   -0.91273E-02  6804   0.131E-01-0.328E-04
CGA:   7    -0.366840273660E+03   -0.33544E-02   -0.33483E-02  6804   0.530E-02-0.552E-04
CGA:   8    -0.366841896681E+03   -0.16230E-02   -0.16181E-02  6804   0.259E-02-0.882E-04
CGA:   9    -0.366842714906E+03   -0.81823E-03   -0.81592E-03  6804   0.108E-02-0.585E-04
CGA:  10    -0.366843047193E+03   -0.33229E-03   -0.33156E-03  6804   0.387E-03-0.171E-04
CGA:  11    -0.366843189689E+03   -0.14250E-03   -0.14376E-03  6804   0.209E-03-0.619E-04
CGA:  12    -0.366843267761E+03   -0.78072E-04   -0.90051E-04  6804   0.184E-03-0.776E-04
CGA:  13    -0.366843302616E+03   -0.34855E-04   -0.79727E-04  6804   0.247E-03-0.140E-03
CGA:  14    -0.366843373406E+03   -0.70790E-04   -0.68777E-04  6804   0.543E-04-0.196E-04
CGA:  15    -0.366843383504E+03   -0.10098E-04   -0.12000E-04  6804   0.143E-04 0.139E-04
CGA:  16    -0.366843231897E+03    0.15161E-03   -0.81597E-04  6804   0.724E-03-0.992E-04
CGA:  17    -0.366843367967E+03   -0.13607E-03   -0.16185E-03  6804   0.560E-04 0.570E-04
CGA:  18    -0.366841482115E+03    0.18859E-02   -0.10285E-02  6804   0.760E-02-0.597E-03
CGA:  19    -0.366842708499E+03   -0.12264E-02   -0.16408E-02  6804   0.137E-02 0.398E-03
CGA:  20    -0.366843308983E+03   -0.60048E-03   -0.50944E-03  6804   0.273E-03-0.116E-03
CGA:  21    -0.366843379577E+03   -0.70594E-04   -0.86627E-04  6804   0.537E-04 0.190E-04
CGA:  22    -0.366843258084E+03    0.12149E-03   -0.11255E-04  6804   0.499E-03 0.516E-04
CGA:  23    -0.366841212344E+03    0.20457E-02   -0.91814E-04  6804   0.658E-02 0.498E-03
CGA:  24    -0.366840990567E+03    0.22178E-03   -0.27820E-02  6804   0.483E-02 0.213E-02
CGA:  25    -0.366840498620E+03    0.49195E-03   -0.19084E-02  6804   0.384E-02 0.237E-02
CGA:  26    -0.366825534375E+03    0.14964E-01   -0.55836E-03  6804   0.353E-01 0.147E-01
CGA:  27    -0.366821813290E+03    0.37211E-02   -0.11454E-01  6804   0.317E-01 0.151E-01
CGA:  28    -0.366811489331E+03    0.10324E-01   -0.11444E-01  6804   0.968E-01 0.553E-01
CGA:  29    -0.366827337284E+03   -0.15848E-01   -0.44895E-01  6804   0.256E-01 0.124E-01
CGA:  30    -0.366822644808E+03    0.46925E-02   -0.86803E-02  6804   0.389E-01 0.253E-01
CGA:  31    -0.366837166842E+03   -0.14522E-01   -0.19203E-01  6804   0.776E-02 0.945E-02
CGA:  32    -0.366840755687E+03   -0.35888E-02   -0.39163E-02  6804   0.491E-02 0.483E-02
CGA:  33    -0.366842450449E+03   -0.16948E-02   -0.23728E-02  6804   0.121E-02 0.140E-02
CGA:  34    -0.366843297582E+03   -0.84713E-03   -0.88472E-03  6804   0.291E-03 0.271E-04
CGA:  35    -0.366843355323E+03   -0.57741E-04   -0.88387E-04  6804   0.111E-03-0.214E-04
CGA:  36    -0.366843388191E+03   -0.32868E-04   -0.26196E-04  6804   0.675E-04 0.202E-04
CGA:  37    -0.366843391734E+03   -0.35429E-05   -0.18171E-04  6804   0.209E-04 0.122E-04
CGA:  38    -0.366843401731E+03   -0.99968E-05   -0.10466E-04  6804   0.117E-04-0.669E-05
   9 F= -.36684340E+03 E0= -.36684340E+03  d E =-.536227E-01  mag=    16.0000
       N       E                     dE             d eps       ncg     rms          ort
SDA:   1    -0.365781690289E+03    0.10617E+01    0.00000E+00  6804   0.306E+01 0.000E+00
CGA:   2    -0.366561165597E+03   -0.77948E+00   -0.77940E+00  6804   0.125E+01-0.108E-02
CGA:   3    -0.366799354525E+03   -0.23819E+00   -0.23847E+00  6804   0.350E+00 0.135E-02
CGA:   4    -0.366858617491E+03   -0.59263E-01   -0.59525E-01  6804   0.696E-01 0.671E-03
CGA:   5    -0.366871900029E+03   -0.13283E-01   -0.13278E-01  6804   0.190E-01-0.215E-04
CGA:   6    -0.366876023091E+03   -0.41231E-02   -0.40745E-02  6804   0.629E-02-0.139E-03
CGA:   7    -0.366877680068E+03   -0.16570E-02   -0.16500E-02  6804   0.283E-02-0.261E-04
CGA:   8    -0.366878582034E+03   -0.90197E-03   -0.90277E-03  6804   0.152E-02 0.236E-05
CGA:   9    -0.366879088187E+03   -0.50615E-03   -0.50216E-03  6804   0.685E-03-0.219E-04
CGA:  10    -0.366879307161E+03   -0.21897E-03   -0.21687E-03  6804   0.257E-03-0.114E-04
CGA:  11    -0.366879402254E+03   -0.95093E-04   -0.91139E-04  6804   0.124E-03-0.281E-04
CGA:  12    -0.366879451091E+03   -0.48836E-04   -0.47292E-04  6804   0.725E-04-0.233E-04
CGA:  13    -0.366879479797E+03   -0.28706E-04   -0.28560E-04  6804   0.422E-04-0.229E-04
CGA:  14    -0.366879493555E+03   -0.13759E-04   -0.13297E-04  6804   0.203E-04-0.155E-04
CGA:  15    -0.366879499818E+03   -0.62626E-05   -0.62576E-05  6804   0.122E-04-0.815E-05
  10 F= -.36687950E+03 E0= -.36687950E+03  d E =-.360981E-01  mag=    16.0000
       N       E                     dE             d eps       ncg     rms          ort
SDA:   1    -0.364686874715E+03    0.21926E+01    0.00000E+00  6804   0.577E+01 0.000E+00
CGA:   2    -0.366288773478E+03   -0.16019E+01   -0.16021E+01  6804   0.266E+01 0.479E-03
CGA:   3    -0.366760131405E+03   -0.47136E+00   -0.47148E+00  6804   0.632E+00 0.250E-02
CGA:   4    -0.366868040801E+03   -0.10791E+00   -0.10803E+00  6804   0.126E+00 0.569E-03
CGA:   5    -0.366892026358E+03   -0.23986E-01   -0.23939E-01  6804   0.344E-01-0.199E-03
CGA:   6    -0.366899259869E+03   -0.72335E-02   -0.71628E-02  6804   0.101E-01-0.310E-03
CGA:   7    -0.366901807262E+03   -0.25474E-02   -0.25297E-02  6804   0.404E-02-0.103E-03
CGA:   8    -0.366903046583E+03   -0.12393E-02   -0.12304E-02  6804   0.202E-02-0.809E-04
CGA:   9    -0.366903718866E+03   -0.67228E-03   -0.66397E-03  6804   0.917E-03-0.106E-03
CGA:  10    -0.366904019369E+03   -0.30050E-03   -0.29405E-03  6804   0.360E-03-0.901E-04
CGA:  11    -0.366904153498E+03   -0.13413E-03   -0.13510E-03  6804   0.232E-03-0.111E-03
CGA:  12    -0.366904224020E+03   -0.70522E-04   -0.74268E-04  6804   0.160E-03-0.692E-04
CGA:  13    -0.366904198799E+03    0.25221E-04   -0.11486E-03  6804   0.617E-03-0.229E-03
CGA:  14    -0.366904312684E+03   -0.11388E-03   -0.13045E-03  6804   0.615E-04 0.722E-04
CGA:  15    -0.366904342890E+03   -0.30207E-04   -0.45445E-04  6804   0.128E-03-0.656E-04
CGA:  16    -0.366904346422E+03   -0.35317E-05   -0.18509E-04  6804   0.263E-04 0.506E-04
  11 F= -.36690435E+03 E0= -.36690435E+03  d E =-.248466E-01  mag=    16.0000
       N       E                     dE             d eps       ncg     rms          ort
SDA:   1    -0.346795002059E+03    0.20109E+02    0.00000E+00  6804   0.524E+02 0.000E+00
CGA:   2    -0.361385206586E+03   -0.14590E+02   -0.14609E+02  6804   0.239E+02 0.389E-01
CGA:   3    -0.365603249739E+03   -0.42180E+01   -0.42308E+01  6804   0.548E+01 0.967E-01
CGA:   4    -0.366553636040E+03   -0.95039E+00   -0.95048E+00  6804   0.114E+01 0.704E-02
CGA:   5    -0.366772587034E+03   -0.21895E+00   -0.21878E+00  6804   0.325E+00-0.102E-02
CGA:   6    -0.366841151252E+03   -0.68564E-01   -0.68449E-01  6804   0.990E-01-0.896E-03
CGA:   7    -0.366866267013E+03   -0.25116E-01   -0.25092E-01  6804   0.400E-01-0.292E-03
CGA:   8    -0.366878483750E+03   -0.12217E-01   -0.12194E-01  6804   0.191E-01-0.446E-03
CGA:   9    -0.366884453819E+03   -0.59701E-02   -0.59505E-02  6804   0.762E-02-0.483E-03
CGA:  10    -0.366886828545E+03   -0.23747E-02   -0.23615E-02  6804   0.265E-02-0.366E-03
CGA:  11    -0.366887694543E+03   -0.86600E-03   -0.86350E-03  6804   0.117E-02-0.230E-03
CGA:  12    -0.366888121568E+03   -0.42702E-03   -0.43297E-03  6804   0.664E-03-0.111E-03
CGA:  13    -0.366888414140E+03   -0.29257E-03   -0.34457E-03  6804   0.594E-03-0.239E-03
CGA:  14    -0.366888543683E+03   -0.12954E-03   -0.12840E-03  6804   0.229E-03-0.407E-04
CGA:  15    -0.366888628467E+03   -0.84784E-04   -0.94351E-04  6804   0.160E-03-0.123E-03
CGA:  16    -0.366888664581E+03   -0.36114E-04   -0.38957E-04  6804   0.234E-04 0.228E-04
CGA:  17    -0.366888686983E+03   -0.22402E-04    0.30427E-04  6804   0.128E-04 0.803E-05
CGA:  18    -0.366888692406E+03   -0.54229E-05   -0.56348E-05  6804   0.542E-05 0.627E-05
  12 F= -.36688869E+03 E0= -.36688869E+03  d E =0.156540E-01  mag=    16.0000
       N       E                     dE             d eps       ncg     rms          ort
SDA:   1    -0.363520282098E+03    0.33684E+01    0.00000E+00  6804   0.876E+01 0.000E+00
CGA:   2    -0.365941380254E+03   -0.24211E+01   -0.24214E+01  6804   0.403E+01 0.345E-02
CGA:   3    -0.366677246536E+03   -0.73587E+00   -0.73555E+00  6804   0.100E+01-0.518E-03
CGA:   4    -0.366855163650E+03   -0.17792E+00   -0.17777E+00  6804   0.217E+00-0.718E-04
CGA:   5    -0.366896439643E+03   -0.41276E-01   -0.41314E-01  6804   0.627E-01 0.234E-03
CGA:   6    -0.366909956990E+03   -0.13517E-01   -0.13532E-01  6804   0.209E-01 0.965E-04
CGA:   7    -0.366915357663E+03   -0.54007E-02   -0.53943E-02  6804   0.842E-02-0.737E-04
CGA:   8    -0.366917830645E+03   -0.24730E-02   -0.24710E-02  6804   0.380E-02-0.420E-04
CGA:   9    -0.366918950992E+03   -0.11203E-02   -0.11228E-02  6804   0.137E-02 0.528E-04
CGA:  10    -0.366919364707E+03   -0.41371E-03   -0.41511E-03  6804   0.467E-03 0.342E-04
CGA:  11    -0.366919522231E+03   -0.15752E-03   -0.15750E-03  6804   0.209E-03-0.257E-05
CGA:  12    -0.366919601771E+03   -0.79540E-04   -0.79588E-04  6804   0.113E-03-0.117E-05
CGA:  13    -0.366919654586E+03   -0.52815E-04   -0.57191E-04  6804   0.837E-04-0.260E-04
CGA:  14    -0.366919670646E+03   -0.16060E-04   -0.17147E-04  6804   0.315E-04 0.131E-04
CGA:  15    -0.366919682987E+03   -0.12340E-04   -0.12295E-04  6804   0.156E-04-0.622E-05
CGA:  16    -0.366919681085E+03    0.19015E-05   -0.11191E-04  6804   0.479E-04-0.237E-04
CGA:  17    -0.366919692109E+03   -0.11024E-04   -0.11891E-04  6804   0.610E-05 0.702E-05
CGA:  18    -0.366919701977E+03   -0.98683E-05    0.13688E-05  6804   0.148E-05 0.353E-06
  13 F= -.36691970E+03 E0= -.36691970E+03  d E =-.310096E-01  mag=    16.0000
       N       E                     dE             d eps       ncg     rms          ort
SDA:   1    -0.364086369531E+03    0.28333E+01    0.00000E+00  6804   0.740E+01 0.000E+00
CGA:   2    -0.366136225387E+03   -0.20499E+01   -0.20504E+01  6804   0.358E+01 0.434E-03
CGA:   3    -0.366761787293E+03   -0.62556E+00   -0.62600E+00  6804   0.824E+00 0.180E-02
CGA:   4    -0.366903243012E+03   -0.14146E+00   -0.14142E+00  6804   0.170E+00-0.464E-03
CGA:   5    -0.366935589439E+03   -0.32346E-01   -0.32331E-01  6804   0.477E-01-0.135E-03
CGA:   6    -0.366945418587E+03   -0.98291E-02   -0.98569E-02  6804   0.142E-01 0.234E-03
CGA:   7    -0.366948964386E+03   -0.35458E-02   -0.35566E-02  6804   0.565E-02 0.160E-03
CGA:   8    -0.366950668390E+03   -0.17040E-02   -0.17054E-02  6804   0.267E-02 0.986E-04
CGA:   9    -0.366951532334E+03   -0.86394E-03   -0.86396E-03  6804   0.112E-02-0.315E-05
CGA:  10    -0.366951875966E+03   -0.34363E-03   -0.34365E-03  6804   0.393E-03 0.338E-05
CGA:  11    -0.366951977089E+03   -0.10112E-03   -0.10427E-03  6804   0.136E-03 0.664E-04
CGA:  12    -0.366952024055E+03   -0.46966E-04   -0.47398E-04  6804   0.687E-04 0.350E-04
CGA:  13    -0.366952042845E+03   -0.18790E-04   -0.21234E-04  6804   0.369E-04 0.386E-04
CGA:  14    -0.366952050172E+03   -0.73265E-05   -0.86362E-05  6804   0.171E-04 0.183E-04
  14 F= -.36695205E+03 E0= -.36695205E+03  d E =-.323482E-01  mag=    16.0000
       N       E                     dE             d eps       ncg     rms          ort
SDA:   1    -0.366614202107E+03    0.33784E+00    0.00000E+00  6804   0.918E+00 0.000E+00
CGA:   2    -0.366852970898E+03   -0.23877E+00   -0.23883E+00  6804   0.409E+00 0.148E-02
CGA:   3    -0.366927666401E+03   -0.74696E-01   -0.74780E-01  6804   0.109E+00 0.651E-03
CGA:   4    -0.366947286312E+03   -0.19620E-01   -0.19604E-01  6804   0.246E-01-0.140E-03
CGA:   5    -0.366951898538E+03   -0.46122E-02   -0.45959E-02  6804   0.687E-02-0.170E-03
CGA:   6    -0.366953371750E+03   -0.14732E-02   -0.14698E-02  6804   0.232E-02-0.524E-04
CGA:   7    -0.366953944624E+03   -0.57287E-03   -0.57474E-03  6804   0.903E-03 0.669E-04
CGA:   8    -0.366954190477E+03   -0.24585E-03   -0.24691E-03  6804   0.362E-03 0.105E-03
CGA:   9    -0.366954307104E+03   -0.11663E-03   -0.11605E-03  6804   0.142E-03 0.502E-04
CGA:  10    -0.366954357486E+03   -0.50381E-04   -0.50040E-04  6804   0.605E-04 0.102E-04
CGA:  11    -0.366954371482E+03   -0.13997E-04   -0.14917E-04  6804   0.217E-04 0.195E-04
CGA:  12    -0.366954375716E+03   -0.42341E-05   -0.54110E-05  6804   0.109E-04 0.136E-04
  15 F= -.36695438E+03 E0= -.36695438E+03  d E =-.232554E-02  mag=    16.0000
       N       E                     dE             d eps       ncg     rms          ort
SDA:   1    -0.366192390209E+03    0.76198E+00    0.00000E+00  6804   0.197E+01 0.000E+00
CGA:   2    -0.366766480387E+03   -0.57409E+00   -0.57404E+00  6804   0.869E+00 0.181E-02
CGA:   3    -0.366920975093E+03   -0.15449E+00   -0.15446E+00  6804   0.206E+00-0.587E-03
CGA:   4    -0.366956856526E+03   -0.35881E-01   -0.35839E-01  6804   0.423E-01-0.443E-03
CGA:   5    -0.366964880247E+03   -0.80237E-02   -0.80035E-02  6804   0.120E-01-0.291E-03
CGA:   6    -0.366967357172E+03   -0.24769E-02   -0.24737E-02  6804   0.360E-02-0.691E-04
CGA:   7    -0.366968216414E+03   -0.85924E-03   -0.86102E-03  6804   0.134E-02 0.123E-03
CGA:   8    -0.366968614613E+03   -0.39820E-03   -0.39493E-03  6804   0.605E-03 0.103E-03
CGA:   9    -0.366968814459E+03   -0.19985E-03   -0.19727E-03  6804   0.251E-03 0.542E-04
CGA:  10    -0.366968894070E+03   -0.79612E-04   -0.78586E-04  6804   0.890E-04 0.343E-04
CGA:  11    -0.366968921530E+03   -0.27460E-04   -0.27263E-04  6804   0.337E-04 0.197E-04
CGA:  12    -0.366968929757E+03   -0.82269E-05   -0.90007E-05  6804   0.164E-04 0.188E-04
  16 F= -.36696893E+03 E0= -.36696893E+03  d E =-.145540E-01  mag=    16.0000
       N       E                     dE             d eps       ncg     rms          ort
SDA:   1    -0.347034569182E+03    0.19934E+02    0.00000E+00  6804   0.489E+02 0.000E+00
CGA:   2    -0.361952021038E+03   -0.14917E+02   -0.14915E+02  6804   0.188E+02 0.174E-01
CGA:   3    -0.365365168168E+03   -0.34131E+01   -0.34174E+01  6804   0.507E+01 0.170E-01
CGA:   4    -0.366266311874E+03   -0.90114E+00   -0.90113E+00  6804   0.109E+01-0.105E-02
CGA:   5    -0.366479418547E+03   -0.21311E+00   -0.21305E+00  6804   0.323E+00-0.839E-03
CGA:   6    -0.366549121897E+03   -0.69703E-01   -0.69736E-01  6804   0.111E+00 0.909E-03
CGA:   7    -0.366577531506E+03   -0.28410E-01   -0.28405E-01  6804   0.447E-01 0.514E-03
CGA:   8    -0.366590871604E+03   -0.13340E-01   -0.13337E-01  6804   0.201E-01 0.535E-04
CGA:   9    -0.366596727128E+03   -0.58555E-02   -0.58480E-02  6804   0.688E-02 0.181E-03
CGA:  10    -0.366598840104E+03   -0.21130E-02   -0.21148E-02  6804   0.237E-02-0.354E-04
CGA:  11    -0.366599577172E+03   -0.73707E-03   -0.73354E-03  6804   0.941E-03 0.616E-04
CGA:  12    -0.366599935525E+03   -0.35835E-03   -0.35641E-03  6804   0.481E-03 0.172E-04
CGA:  13    -0.366600102204E+03   -0.16668E-03   -0.16025E-03  6804   0.200E-03 0.100E-03
CGA:  14    -0.366600182509E+03   -0.80305E-04   -0.77753E-04  6804   0.855E-04 0.464E-04
CGA:  15    -0.366600216936E+03   -0.34427E-04   -0.33261E-04  6804   0.353E-04 0.247E-04
CGA:  16    -0.366600224888E+03   -0.79514E-05   -0.94315E-05  6804   0.164E-04 0.231E-04
  17 F= -.36660022E+03 E0= -.36660022E+03  d E =0.368705E+00  mag=    16.0000
       N       E                     dE             d eps       ncg     rms          ort
SDA:   1    -0.361431009065E+03    0.51692E+01    0.00000E+00  6804   0.135E+02 0.000E+00
CGA:   2    -0.365625774257E+03   -0.41948E+01   -0.41979E+01  6804   0.427E+01-0.584E-01
CGA:   3    -0.366599104661E+03   -0.97333E+00   -0.97369E+00  6804   0.116E+01 0.349E-02
CGA:   4    -0.366808987189E+03   -0.20988E+00   -0.21015E+00  6804   0.330E+00 0.237E-02
CGA:   5    -0.366875928332E+03   -0.66941E-01   -0.66944E-01  6804   0.989E-01 0.190E-03
CGA:   6    -0.366899591274E+03   -0.23663E-01   -0.23649E-01  6804   0.432E-01-0.636E-03
CGA:   7    -0.366910566805E+03   -0.10976E-01   -0.10974E-01  6804   0.171E-01-0.354E-03
CGA:   8    -0.366915436216E+03   -0.48694E-02   -0.48678E-02  6804   0.674E-02 0.562E-04
CGA:   9    -0.366917315078E+03   -0.18789E-02   -0.18776E-02  6804   0.216E-02 0.758E-04
CGA:  10    -0.366917950491E+03   -0.63541E-03   -0.63538E-03  6804   0.694E-03 0.576E-06
CGA:  11    -0.366918169137E+03   -0.21865E-03   -0.21874E-03  6804   0.270E-03-0.204E-05
CGA:  12    -0.366918261759E+03   -0.92622E-04   -0.92422E-04  6804   0.128E-03 0.238E-05
CGA:  13    -0.366918307058E+03   -0.45299E-04   -0.44300E-04  6804   0.566E-04 0.133E-04
CGA:  14    -0.366918318423E+03   -0.11365E-04   -0.13189E-04  6804   0.246E-04 0.290E-04
CGA:  15    -0.366918321008E+03   -0.25844E-05   -0.41533E-05  6804   0.123E-04 0.154E-04
  18 F= -.36691832E+03 E0= -.36691832E+03  d E =-.318096E+00  mag=    16.0000
       N       E                     dE             d eps       ncg     rms          ort
SDA:   1    -0.366768500667E+03    0.14982E+00    0.00000E+00  6804   0.530E+00 0.000E+00
CGA:   2    -0.366934998702E+03   -0.16650E+00   -0.16655E+00  6804   0.171E+00-0.111E-02
CGA:   3    -0.366975124417E+03   -0.40126E-01   -0.40140E-01  6804   0.407E-01 0.508E-03
CGA:   4    -0.366983085644E+03   -0.79612E-02   -0.79486E-02  6804   0.128E-01-0.194E-03
CGA:   5    -0.366985627793E+03   -0.25421E-02   -0.25292E-02  6804   0.386E-02-0.222E-03
CGA:   6    -0.366986515757E+03   -0.88796E-03   -0.88976E-03  6804   0.155E-02 0.880E-04
CGA:   7    -0.366986880810E+03   -0.36505E-03   -0.36808E-03  6804   0.550E-03 0.140E-03
CGA:   8    -0.366987049039E+03   -0.16823E-03   -0.16685E-03  6804   0.219E-03 0.542E-04
CGA:   9    -0.366987116709E+03   -0.67670E-04   -0.67254E-04  6804   0.785E-04 0.161E-04
CGA:  10    -0.366987141666E+03   -0.24957E-04   -0.25012E-04  6804   0.277E-04-0.136E-05
CGA:  11    -0.366987145659E+03   -0.39934E-05   -0.48751E-05  6804   0.936E-05 0.113E-04
  19 F= -.36698715E+03 E0= -.36698715E+03  d E =-.688247E-01  mag=    16.0000
       N       E                     dE             d eps       ncg     rms          ort
SDA:   1    -0.366437416026E+03    0.54973E+00    0.00000E+00  6804   0.144E+01 0.000E+00
CGA:   2    -0.366868599752E+03   -0.43118E+00   -0.43111E+00  6804   0.482E+00 0.335E-03
CGA:   3    -0.366972480684E+03   -0.10388E+00   -0.10392E+00  6804   0.149E+00 0.974E-03
CGA:   4    -0.366998699314E+03   -0.26219E-01   -0.26229E-01  6804   0.368E-01 0.125E-03
CGA:   5    -0.367006317464E+03   -0.76181E-02   -0.75964E-02  6804   0.115E-01-0.587E-03
CGA:   6    -0.367008859476E+03   -0.25420E-02   -0.25407E-02  6804   0.447E-02-0.819E-04
CGA:   7    -0.367009928590E+03   -0.10691E-02   -0.10692E-02  6804   0.159E-02 0.290E-03
CGA:   8    -0.367010397088E+03   -0.46850E-03   -0.46394E-03  6804   0.639E-03 0.136E-03
CGA:   9    -0.367010603637E+03   -0.20655E-03   -0.20647E-03  6804   0.242E-03 0.129E-05
CGA:  10    -0.367010672435E+03   -0.68797E-04   -0.68607E-04  6804   0.755E-04 0.508E-05
CGA:  11    -0.367010695095E+03   -0.22660E-04   -0.22519E-04  6804   0.272E-04 0.312E-05
CGA:  12    -0.367010697303E+03   -0.22079E-05   -0.40247E-05  6804   0.135E-04 0.169E-04
  20 F= -.36701070E+03 E0= -.36701070E+03  d E =-.235516E-01  mag=    16.0000
       N       E                     dE             d eps       ncg     rms          ort
SDA:   1    -0.366982068088E+03    0.28627E-01    0.00000E+00  6804   0.941E-01 0.000E+00
CGA:   2    -0.367008982352E+03   -0.26914E-01   -0.26919E-01  6804   0.390E-01-0.105E-03
CGA:   3    -0.367016504749E+03   -0.75224E-02   -0.75385E-02  6804   0.111E-01 0.324E-03
CGA:   4    -0.367018434583E+03   -0.19298E-02   -0.19471E-02  6804   0.256E-02 0.257E-03
CGA:   5    -0.367018965582E+03   -0.53100E-03   -0.53182E-03  6804   0.799E-03 0.243E-04
CGA:   6    -0.367019161315E+03   -0.19573E-03   -0.19635E-03  6804   0.364E-03-0.762E-04
CGA:   7    -0.367019248753E+03   -0.87438E-04   -0.88498E-04  6804   0.151E-03-0.321E-04
CGA:   8    -0.367019279316E+03   -0.30563E-04   -0.30822E-04  6804   0.483E-04 0.198E-04
CGA:   9    -0.367019291958E+03   -0.12642E-04   -0.12695E-04  6804   0.168E-04 0.113E-04
CGA:  10    -0.367019298000E+03   -0.60418E-05   -0.60120E-05  6804   0.809E-05 0.545E-06
  21 F= -.36701930E+03 E0= -.36701930E+03  d E =-.860070E-02  mag=    16.0000
       N       E                     dE             d eps       ncg     rms          ort
SDA:   1    -0.366980681439E+03    0.38611E-01    0.00000E+00  6804   0.113E+00 0.000E+00
CGA:   2    -0.367009362151E+03   -0.28681E-01   -0.28685E-01  6804   0.542E-01-0.287E-03
CGA:   3    -0.367019403380E+03   -0.10041E-01   -0.10056E-01  6804   0.141E-01 0.255E-03
CGA:   4    -0.367021807779E+03   -0.24044E-02   -0.24244E-02  6804   0.304E-02 0.300E-03
CGA:   5    -0.367022387852E+03   -0.58007E-03   -0.58301E-03  6804   0.847E-03 0.619E-04
CGA:   6    -0.367022594207E+03   -0.20635E-03   -0.20674E-03  6804   0.348E-03-0.590E-04
CGA:   7    -0.367022679286E+03   -0.85078E-04   -0.85809E-04  6804   0.148E-03-0.230E-04
CGA:   8    -0.367022710912E+03   -0.31627E-04   -0.31733E-04  6804   0.511E-04 0.232E-04
CGA:   9    -0.367022724264E+03   -0.13351E-04   -0.13458E-04  6804   0.192E-04 0.156E-04
CGA:  10    -0.367022731111E+03   -0.68472E-05   -0.67054E-05  6804   0.944E-05 0.414E-05
  22 F= -.36702273E+03 E0= -.36702273E+03  d E =-.343311E-02  mag=    16.0000
       N       E                     dE             d eps       ncg     rms          ort
SDA:   1    -0.366961262924E+03    0.61461E-01    0.00000E+00  6804   0.178E+00 0.000E+00
CGA:   2    -0.367004852710E+03   -0.43590E-01   -0.43596E-01  6804   0.864E-01-0.621E-03
CGA:   3    -0.367020783896E+03   -0.15931E-01   -0.15941E-01  6804   0.218E-01 0.186E-03
CGA:   4    -0.367024488059E+03   -0.37042E-02   -0.37253E-02  6804   0.452E-02 0.341E-03
CGA:   5    -0.367025313598E+03   -0.82554E-03   -0.82957E-03  6804   0.118E-02 0.810E-04
CGA:   6    -0.367025585977E+03   -0.27238E-03   -0.27232E-03  6804   0.422E-03-0.336E-04
CGA:   7    -0.367025686118E+03   -0.10014E-03   -0.99976E-04  6804   0.163E-03 0.100E-04
CGA:   8    -0.367025725943E+03   -0.39825E-04   -0.39484E-04  6804   0.646E-04 0.383E-04
CGA:   9    -0.367025745182E+03   -0.19239E-04   -0.19009E-04  6804   0.289E-04 0.247E-04
CGA:  10    -0.367025754024E+03   -0.88412E-05   -0.89299E-05  6804   0.139E-04 0.150E-04
  23 F= -.36702575E+03 E0= -.36702575E+03  d E =-.302291E-02  mag=    16.0000
       N       E                     dE             d eps       ncg     rms          ort
SDA:   1    -0.366283529684E+03    0.74222E+00    0.00000E+00  6804   0.202E+01 0.000E+00
CGA:   2    -0.366802849574E+03   -0.51932E+00   -0.51937E+00  6804   0.984E+00-0.211E-02
CGA:   3    -0.366980950688E+03   -0.17810E+00   -0.17813E+00  6804   0.236E+00 0.457E-03
CGA:   4    -0.367021402455E+03   -0.40452E-01   -0.40513E-01  6804   0.483E-01 0.116E-02
CGA:   5    -0.367030263732E+03   -0.88613E-02   -0.88730E-02  6804   0.129E-01 0.281E-03
CGA:   6    -0.367033065189E+03   -0.28015E-02   -0.28012E-02  6804   0.411E-02-0.479E-04
CGA:   7    -0.367034062379E+03   -0.99719E-03   -0.99521E-03  6804   0.157E-02 0.903E-04
CGA:   8    -0.367034521655E+03   -0.45928E-03   -0.45001E-03  6804   0.720E-03 0.161E-03
CGA:   9    -0.367034761099E+03   -0.23944E-03   -0.23202E-03  6804   0.304E-03 0.110E-03
CGA:  10    -0.367034856099E+03   -0.95000E-04   -0.92072E-04  6804   0.117E-03 0.856E-04
CGA:  11    -0.367034892704E+03   -0.36605E-04   -0.36084E-04  6804   0.499E-04 0.500E-04
CGA:  12    -0.367034912539E+03   -0.19835E-04   -0.18969E-04  6804   0.278E-04 0.244E-04
CGA:  13    -0.367034921345E+03   -0.88059E-05   -0.90785E-05  6804   0.150E-04 0.200E-04
  24 F= -.36703492E+03 E0= -.36703492E+03  d E =-.916732E-02  mag=    16.0000
       N       E                     dE             d eps       ncg     rms          ort
SDA:   1    -0.361633745257E+03    0.54012E+01    0.00000E+00  6804   0.140E+02 0.000E+00
CGA:   2    -0.365530389978E+03   -0.38966E+01   -0.38962E+01  6804   0.660E+01 0.249E-02
CGA:   3    -0.366692958285E+03   -0.11626E+01   -0.11629E+01  6804   0.152E+01 0.295E-02
CGA:   4    -0.366953888525E+03   -0.26093E+00   -0.26109E+00  6804   0.312E+00 0.300E-02
CGA:   5    -0.367012289856E+03   -0.58401E-01   -0.58422E-01  6804   0.871E-01 0.472E-03
CGA:   6    -0.367030845774E+03   -0.18556E-01   -0.18553E-01  6804   0.271E-01-0.290E-03
CGA:   7    -0.367037538101E+03   -0.66923E-02   -0.66890E-02  6804   0.108E-01 0.135E-03
CGA:   8    -0.367040793695E+03   -0.32556E-02   -0.32273E-02  6804   0.521E-02 0.386E-03
CGA:   9    -0.367042462703E+03   -0.16690E-02   -0.16468E-02  6804   0.212E-02 0.288E-03
CGA:  10    -0.367043131858E+03   -0.66916E-03   -0.65479E-03  6804   0.757E-03 0.239E-03
CGA:  11    -0.367043394912E+03   -0.26305E-03   -0.25704E-03  6804   0.323E-03 0.863E-04
CGA:  12    -0.367043527108E+03   -0.13220E-03   -0.12696E-03  6804   0.171E-03 0.459E-04
CGA:  13    -0.367043584122E+03   -0.57014E-04   -0.54584E-04  6804   0.774E-04 0.711E-04
CGA:  14    -0.367043611117E+03   -0.26996E-04   -0.26996E-04  6804   0.343E-04 0.442E-04
CGA:  15    -0.367043623507E+03   -0.12389E-04   -0.11572E-04  6804   0.164E-04 0.897E-05
CGA:  16    -0.367043625737E+03   -0.22301E-05   -0.34946E-05  6804   0.111E-04 0.154E-04
  25 F= -.36704363E+03 E0= -.36704363E+03  d E =-.870439E-02  mag=    16.0000
       N       E                     dE             d eps       ncg     rms          ort
SDA:   1    -0.366885811026E+03    0.15781E+00    0.00000E+00  6804   0.472E+00 0.000E+00
CGA:   2    -0.366997111048E+03   -0.11130E+00   -0.11130E+00  6804   0.224E+00-0.394E-03
CGA:   3    -0.367040471017E+03   -0.43360E-01   -0.43355E-01  6804   0.629E-01-0.993E-04
CGA:   4    -0.367051701758E+03   -0.11231E-01   -0.11226E-01  6804   0.147E-01-0.686E-04
CGA:   5    -0.367054485822E+03   -0.27841E-02   -0.27813E-02  6804   0.422E-02-0.576E-04
CGA:   6    -0.367055382520E+03   -0.89670E-03   -0.89804E-03  6804   0.143E-02 0.613E-04
CGA:   7    -0.367055732890E+03   -0.35037E-03   -0.34960E-03  6804   0.523E-03 0.116E-03
CGA:   8    -0.367055878990E+03   -0.14610E-03   -0.14453E-03  6804   0.207E-03 0.751E-04
CGA:   9    -0.367055949988E+03   -0.70997E-04   -0.69692E-04  6804   0.884E-04 0.221E-04
CGA:  10    -0.367055979785E+03   -0.29797E-04   -0.29384E-04  6804   0.378E-04 0.662E-05
CGA:  11    -0.367055991621E+03   -0.11836E-04   -0.11601E-04  6804   0.148E-04 0.536E-05
CGA:  12    -0.367055995336E+03   -0.37144E-05   -0.38336E-05  6804   0.657E-05 0.678E-05
  26 F= -.36705600E+03 E0= -.36705600E+03  d E =-.123696E-01  mag=    16.0000
       N       E                     dE             d eps       ncg     rms          ort
SDA:   1    -0.366997892292E+03    0.58099E-01    0.00000E+00  6804   0.163E+00 0.000E+00
CGA:   2    -0.367041475392E+03   -0.43583E-01   -0.43604E-01  6804   0.843E-01-0.729E-03
CGA:   3    -0.367056202442E+03   -0.14727E-01   -0.14757E-01  6804   0.180E-01 0.477E-03
CGA:   4    -0.367059283461E+03   -0.30810E-02   -0.31059E-02  6804   0.391E-02 0.379E-03
CGA:   5    -0.367060011233E+03   -0.72777E-03   -0.73251E-03  6804   0.104E-02 0.927E-04
CGA:   6    -0.367060237825E+03   -0.22659E-03   -0.22676E-03  6804   0.338E-03 0.904E-05
CGA:   7    -0.367060317729E+03   -0.79904E-04   -0.79835E-04  6804   0.122E-03 0.221E-04
CGA:   8    -0.367060348860E+03   -0.31130E-04   -0.30938E-04  6804   0.477E-04 0.296E-04
CGA:   9    -0.367060360593E+03   -0.11733E-04   -0.12292E-04  6804   0.200E-04 0.234E-04
CGA:  10    -0.367060364569E+03   -0.39758E-05   -0.49467E-05  6804   0.959E-05 0.152E-04
  27 F= -.36706036E+03 E0= -.36706036E+03  d E =-.436923E-02  mag=    16.0000
       N       E                     dE             d eps       ncg     rms          ort
SDA:   1    -0.364880619667E+03    0.21797E+01    0.00000E+00  6804   0.555E+01 0.000E+00
CGA:   2    -0.366484285697E+03   -0.16037E+01   -0.16038E+01  6804   0.268E+01-0.427E-02
CGA:   3    -0.366944021062E+03   -0.45974E+00   -0.45997E+00  6804   0.565E+00 0.333E-02
CGA:   4    -0.367041888710E+03   -0.97868E-01   -0.97997E-01  6804   0.119E+00 0.234E-02
CGA:   5    -0.367064202342E+03   -0.22314E-01   -0.22328E-01  6804   0.330E-01 0.314E-03
CGA:   6    -0.367071126373E+03   -0.69240E-02   -0.69228E-02  6804   0.989E-02-0.772E-04
CGA:   7    -0.367073495710E+03   -0.23693E-02   -0.23668E-02  6804   0.374E-02 0.179E-03
CGA:   8    -0.367074601079E+03   -0.11054E-02   -0.10898E-02  6804   0.170E-02 0.262E-03
CGA:   9    -0.367075142623E+03   -0.54154E-03   -0.52897E-03  6804   0.656E-03 0.203E-03
CGA:  10    -0.367075344155E+03   -0.20153E-03   -0.19660E-03  6804   0.224E-03 0.141E-03
CGA:  11    -0.367075427579E+03   -0.83424E-04   -0.81417E-04  6804   0.962E-04 0.310E-04
CGA:  12    -0.367075466321E+03   -0.38742E-04   -0.37107E-04  6804   0.485E-04 0.162E-04
CGA:  13    -0.367075480695E+03   -0.14374E-04   -0.14188E-04  6804   0.230E-04 0.234E-04
CGA:  14    -0.367075488602E+03   -0.79067E-05   -0.80191E-05  6804   0.110E-04 0.140E-04
  28 F= -.36707549E+03 E0= -.36707549E+03  d E =-.151240E-01  mag=    16.0000
       N       E                     dE             d eps       ncg     rms          ort
SDA:   1    -0.338109402628E+03    0.28966E+02    0.00000E+00  6804   0.661E+02 0.000E+00
CGA:   2    -0.358285138688E+03   -0.20176E+02   -0.20165E+02  6804   0.243E+02 0.757E-01
CGA:   3    -0.363139278740E+03   -0.48541E+01   -0.48576E+01  6804   0.665E+01 0.135E-01
CGA:   4    -0.364320043958E+03   -0.11808E+01   -0.11818E+01  6804   0.172E+01 0.564E-02
CGA:   5    -0.364673233773E+03   -0.35319E+00   -0.35324E+00  6804   0.551E+00 0.124E-02
CGA:   6    -0.364797718214E+03   -0.12448E+00   -0.12446E+00  6804   0.225E+00-0.137E-02
CGA:   7    -0.364855593365E+03   -0.57875E-01   -0.57894E-01  6804   0.895E-01-0.142E-02
CGA:   8    -0.364881537344E+03   -0.25944E-01   -0.25941E-01  6804   0.376E-01 0.270E-04
CGA:   9    -0.364892312303E+03   -0.10775E-01   -0.10798E-01  6804   0.135E-01-0.560E-03
CGA:  10    -0.364896405422E+03   -0.40931E-02   -0.41397E-02  6804   0.498E-02-0.737E-03
CGA:  11    -0.364898006214E+03   -0.16008E-02   -0.16493E-02  6804   0.228E-02-0.491E-03
CGA:  12    -0.364898824774E+03   -0.81856E-03   -0.10203E-02  6804   0.206E-02-0.841E-03
CGA:  13    -0.364899254137E+03   -0.42936E-03   -0.44600E-03  6804   0.100E-02-0.224E-03
CGA:  14    -0.364899548937E+03   -0.29480E-03   -0.30624E-03  6804   0.507E-03-0.160E-03
CGA:  15    -0.364899702404E+03   -0.15347E-03   -0.18417E-03  6804   0.357E-03-0.196E-03
CGA:  16    -0.364899752514E+03   -0.50110E-04   -0.50933E-04  6804   0.166E-03 0.166E-04
CGA:  17    -0.364899804260E+03   -0.51747E-04   -0.52245E-04  6804   0.884E-04-0.258E-04
CGA:  18    -0.364899853331E+03   -0.49070E-04    0.64162E-04  6804   0.553E-04-0.661E-05
CGA:  19    -0.364899530043E+03    0.32329E-03   -0.17406E-03  6804   0.127E-02-0.267E-03
CGA:  20    -0.364899818090E+03   -0.28805E-03   -0.31105E-03  6804   0.212E-03 0.845E-04
CGA:  21    -0.364899867981E+03   -0.49890E-04   -0.54454E-04  6804   0.612E-04 0.183E-04
CGA:  22    -0.364899894264E+03   -0.26283E-04   -0.26320E-04  6804   0.213E-04 0.441E-06
CGA:  23    -0.364899892368E+03    0.18956E-05   -0.28263E-05  6804   0.104E-04 0.134E-04
  29 F= -.36489989E+03 E0= -.36489989E+03  d E =0.217560E+01  mag=    16.0000
       N       E                     dE             d eps       ncg     rms          ort
SDA:   1    -0.354844988018E+03    0.10055E+02    0.00000E+00  6804   0.290E+02 0.000E+00
CGA:   2    -0.364129209814E+03   -0.92842E+01   -0.92815E+01  6804   0.877E+01-0.307E-01
CGA:   3    -0.366206897404E+03   -0.20777E+01   -0.20994E+01  6804   0.191E+01-0.125E-01
CGA:   4    -0.366603047962E+03   -0.39615E+00   -0.39630E+00  6804   0.659E+00 0.123E-03
CGA:   5    -0.366733284800E+03   -0.13024E+00   -0.13035E+00  6804   0.212E+00 0.161E-02
CGA:   6    -0.366785907790E+03   -0.52623E-01   -0.52842E-01  6804   0.919E-01 0.125E-02
CGA:   7    -0.366808734923E+03   -0.22827E-01   -0.22879E-01  6804   0.364E-01 0.131E-03
CGA:   8    -0.366818927779E+03   -0.10193E-01   -0.10225E-01  6804   0.136E-01 0.267E-03
CGA:   9    -0.366822563202E+03   -0.36354E-02   -0.37019E-02  6804   0.430E-02 0.557E-03
CGA:  10    -0.366823855445E+03   -0.12922E-02   -0.12990E-02  6804   0.147E-02 0.710E-04
CGA:  11    -0.366824217084E+03   -0.36164E-03   -0.39346E-03  6804   0.499E-03 0.277E-03
CGA:  12    -0.366824338679E+03   -0.12159E-03   -0.14664E-03  6804   0.224E-03 0.199E-03
CGA:  13    -0.366824424518E+03   -0.85839E-04   -0.91948E-04  6804   0.121E-03 0.835E-04
CGA:  14    -0.366824438570E+03   -0.14051E-04   -0.30860E-04  6804   0.648E-04 0.947E-04
CGA:  15    -0.366824442728E+03   -0.41585E-05   -0.11486E-04  6804   0.334E-04 0.415E-04
  30 F= -.36682444E+03 E0= -.36682444E+03  d E =-.192455E+01  mag=    16.0000
       N       E                     dE             d eps       ncg     rms          ort
SDA:   1    -0.366291017499E+03    0.53342E+00    0.00000E+00  6804   0.174E+01 0.000E+00
CGA:   2    -0.366839816907E+03   -0.54880E+00   -0.54889E+00  6804   0.599E+00 0.139E-03
CGA:   3    -0.366973637368E+03   -0.13382E+00   -0.13389E+00  6804   0.153E+00 0.550E-03
CGA:   4    -0.367001720226E+03   -0.28083E-01   -0.28118E-01  6804   0.452E-01 0.204E-03
CGA:   5    -0.367010938614E+03   -0.92184E-02   -0.92211E-02  6804   0.137E-01 0.618E-05
CGA:   6    -0.367014103308E+03   -0.31647E-02   -0.31895E-02  6804   0.585E-02 0.281E-03
CGA:   7    -0.367015565113E+03   -0.14618E-02   -0.14770E-02  6804   0.223E-02 0.220E-03
CGA:   8    -0.367016236923E+03   -0.67181E-03   -0.67327E-03  6804   0.924E-03 0.649E-04
CGA:   9    -0.367016465150E+03   -0.22823E-03   -0.23655E-03  6804   0.282E-03 0.132E-03
CGA:  10    -0.367016546683E+03   -0.81533E-04   -0.83925E-04  6804   0.974E-04 0.495E-04
CGA:  11    -0.367016571586E+03   -0.24903E-04   -0.27241E-04  6804   0.382E-04 0.343E-04
CGA:  12    -0.367016573227E+03   -0.16413E-05   -0.70900E-05  6804   0.218E-04 0.329E-04
  31 F= -.36701657E+03 E0= -.36701657E+03  d E =-.192130E+00  mag=    16.0000
       N       E                     dE             d eps       ncg     rms          ort
SDA:   1    -0.366551633453E+03    0.46494E+00    0.00000E+00  6804   0.130E+01 0.000E+00
CGA:   2    -0.366946996557E+03   -0.39536E+00   -0.39532E+00  6804   0.487E+00 0.355E-03
CGA:   3    -0.367049510958E+03   -0.10251E+00   -0.10259E+00  6804   0.142E+00 0.823E-03
CGA:   4    -0.367074214217E+03   -0.24703E-01   -0.24782E-01  6804   0.353E-01 0.706E-03
CGA:   5    -0.367081547023E+03   -0.73328E-02   -0.73253E-02  6804   0.113E-01-0.117E-03
CGA:   6    -0.367084052443E+03   -0.25054E-02   -0.25059E-02  6804   0.453E-02 0.523E-05
CGA:   7    -0.367085192152E+03   -0.11397E-02   -0.11429E-02  6804   0.171E-02 0.160E-03
CGA:   8    -0.367085699738E+03   -0.50759E-03   -0.50711E-03  6804   0.721E-03 0.309E-04
CGA:   9    -0.367085901676E+03   -0.20194E-03   -0.20184E-03  6804   0.235E-03 0.338E-04
CGA:  10    -0.367085971268E+03   -0.69593E-04   -0.69451E-04  6804   0.786E-04 0.144E-04
CGA:  11    -0.367086001126E+03   -0.29858E-04   -0.31491E-04  6804   0.472E-04-0.158E-04
CGA:  12    -0.367086004331E+03   -0.32047E-05   -0.57261E-05  6804   0.235E-04 0.199E-04
  32 F= -.36708600E+03 E0= -.36708600E+03  d E =-.694311E-01  mag=    16.0000
       N       E                     dE             d eps       ncg     rms          ort
SDA:   1    -0.366982234331E+03    0.10377E+00    0.00000E+00  6804   0.298E+00 0.000E+00
CGA:   2    -0.367069817248E+03   -0.87583E-01   -0.87589E-01  6804   0.120E+00-0.366E-03
CGA:   3    -0.367092860372E+03   -0.23043E-01   -0.23071E-01  6804   0.365E-01 0.360E-03
CGA:   4    -0.367099278946E+03   -0.64186E-02   -0.64682E-02  6804   0.799E-02 0.575E-03
CGA:   5    -0.367100874654E+03   -0.15957E-02   -0.15953E-02  6804   0.261E-02-0.801E-05
CGA:   6    -0.367101492076E+03   -0.61742E-03   -0.61435E-03  6804   0.110E-02-0.154E-03
CGA:   7    -0.367101763733E+03   -0.27166E-03   -0.27204E-03  6804   0.444E-03-0.474E-04
CGA:   8    -0.367101881289E+03   -0.11756E-03   -0.11767E-03  6804   0.169E-03-0.513E-05
CGA:   9    -0.367101934643E+03   -0.53354E-04   -0.55536E-04  6804   0.734E-04-0.285E-04
CGA:  10    -0.367101952969E+03   -0.18326E-04   -0.18685E-04  6804   0.250E-04-0.770E-05
CGA:  11    -0.367101967228E+03   -0.14259E-04    0.13589E-04  6804   0.788E-05 0.163E-05
CGA:  12    -0.367101972343E+03   -0.51158E-05    0.67196E-05  6804   0.325E-05 0.211E-05
  33 F= -.36710197E+03 E0= -.36710197E+03  d E =-.159680E-01  mag=    16.0000
       N       E                     dE             d eps       ncg     rms          ort
SDA:   1    -0.366966631117E+03    0.13534E+00    0.00000E+00  6804   0.365E+00 0.000E+00
CGA:   2    -0.367067630797E+03   -0.10100E+00   -0.10099E+00  6804   0.161E+00-0.396E-03
CGA:   3    -0.367096924995E+03   -0.29294E-01   -0.29338E-01  6804   0.456E-01 0.145E-03
CGA:   4    -0.367104957452E+03   -0.80325E-02   -0.81394E-02  6804   0.106E-01 0.394E-03
CGA:   5    -0.367106877649E+03   -0.19202E-02   -0.19310E-02  6804   0.308E-02 0.380E-04
CGA:   6    -0.367107616632E+03   -0.73898E-03   -0.71844E-03  6804   0.113E-02-0.106E-03
CGA:   7    -0.367107917396E+03   -0.30076E-03   -0.29370E-03  6804   0.471E-03-0.480E-04
CGA:   8    -0.367108048124E+03   -0.13073E-03   -0.12941E-03  6804   0.191E-03-0.108E-04
CGA:   9    -0.367108106038E+03   -0.57915E-04   -0.56787E-04  6804   0.693E-04-0.114E-04
CGA:  10    -0.367108127069E+03   -0.21030E-04   -0.20554E-04  6804   0.250E-04-0.575E-05
CGA:  11    -0.367108145650E+03   -0.18581E-04    0.17473E-03  6804   0.147E-04-0.664E-05
CGA:  12    -0.367108149613E+03   -0.39629E-05   -0.75062E-05  6804   0.261E-04-0.119E-04
  34 F= -.36710815E+03 E0= -.36710815E+03  d E =-.617727E-02  mag=    16.0000
       N       E                     dE             d eps       ncg     rms          ort
SDA:   1    -0.366957385542E+03    0.15076E+00    0.00000E+00  6804   0.407E+00 0.000E+00
CGA:   2    -0.367067042907E+03   -0.10966E+00   -0.10959E+00  6804   0.190E+00-0.578E-03
CGA:   3    -0.367101074341E+03   -0.34031E-01   -0.34043E-01  6804   0.471E-01 0.515E-04
CGA:   4    -0.367109347873E+03   -0.82735E-02   -0.83622E-02  6804   0.101E-01 0.419E-03
CGA:   5    -0.367111236153E+03   -0.18883E-02   -0.19012E-02  6804   0.270E-02 0.649E-04
CGA:   6    -0.367111861332E+03   -0.62518E-03   -0.61483E-03  6804   0.968E-03-0.725E-04
CGA:   7    -0.367112099323E+03   -0.23799E-03   -0.23603E-03  6804   0.405E-03-0.177E-04
CGA:   8    -0.367112212858E+03   -0.11354E-03   -0.11393E-03  6804   0.182E-03 0.552E-05
CGA:   9    -0.367112267462E+03   -0.54604E-04   -0.55077E-04  6804   0.696E-04 0.862E-05
CGA:  10    -0.367112287280E+03   -0.19818E-04   -0.20481E-04  6804   0.249E-04 0.952E-05
CGA:  11    -0.367112298903E+03   -0.11623E-04   -0.17483E-04  6804   0.511E-04-0.216E-04
CGA:  12    -0.367112306773E+03   -0.78709E-05   -0.93136E-05  6804   0.618E-05 0.808E-05
  35 F= -.36711231E+03 E0= -.36711231E+03  d E =-.415716E-02  mag=    16.0000
       N       E                     dE             d eps       ncg     rms          ort
SDA:   1    -0.366823351294E+03    0.28895E+00    0.00000E+00  6804   0.731E+00 0.000E+00
CGA:   2    -0.367037127516E+03   -0.21378E+00   -0.21369E+00  6804   0.316E+00-0.137E-02
CGA:   3    -0.367093538872E+03   -0.56411E-01   -0.56461E-01  6804   0.784E-01 0.292E-03
CGA:   4    -0.367107098387E+03   -0.13560E-01   -0.13670E-01  6804   0.164E-01 0.636E-03
CGA:   5    -0.367110173113E+03   -0.30747E-02   -0.31075E-02  6804   0.458E-02 0.219E-03
CGA:   6    -0.367111179014E+03   -0.10059E-02   -0.10040E-02  6804   0.156E-02-0.177E-04
CGA:   7    -0.367111589535E+03   -0.41052E-03   -0.40731E-03  6804   0.676E-03-0.533E-04
CGA:   8    -0.367111789142E+03   -0.19961E-03   -0.19936E-03  6804   0.335E-03-0.175E-04
CGA:   9    -0.367111872959E+03   -0.83817E-04   -0.86166E-04  6804   0.111E-03 0.427E-04
CGA:  10    -0.367111903526E+03   -0.30568E-04   -0.32048E-04  6804   0.399E-04 0.250E-04
CGA:  11    -0.367111922692E+03   -0.19166E-04   -0.20009E-04  6804   0.330E-04-0.882E-05
CGA:  12    -0.367111932481E+03   -0.97884E-05   -0.10721E-04  6804   0.245E-04-0.940E-05
CGA:  13    -0.367111914271E+03    0.18209E-04   -0.18920E-04  6804   0.127E-03-0.491E-04
CGA:  14    -0.367111942503E+03   -0.28232E-04   -0.29650E-04  6804   0.139E-04 0.111E-04
CGA:  15    -0.367111949159E+03   -0.66557E-05   -0.66696E-05  6804   0.836E-05-0.166E-06
  36 F= -.36711195E+03 E0= -.36711195E+03  d E =0.357615E-03  mag=    16.0000
       N       E                     dE             d eps       ncg     rms          ort
SDA:   1    -0.366236354987E+03    0.87559E+00    0.00000E+00  6804   0.213E+01 0.000E+00
CGA:   2    -0.366902461839E+03   -0.66611E+00   -0.66596E+00  6804   0.812E+00-0.394E-02
CGA:   3    -0.367056171973E+03   -0.15371E+00   -0.15383E+00  6804   0.209E+00 0.689E-03
CGA:   4    -0.367091726083E+03   -0.35554E-01   -0.35670E-01  6804   0.459E-01 0.628E-03
CGA:   5    -0.367100917487E+03   -0.91914E-02   -0.92029E-02  6804   0.138E-01 0.877E-04
CGA:   6    -0.367103912408E+03   -0.29949E-02   -0.29954E-02  6804   0.493E-02 0.308E-05
CGA:   7    -0.367105137487E+03   -0.12251E-02   -0.12315E-02  6804   0.193E-02 0.925E-04
CGA:   8    -0.367105712745E+03   -0.57526E-03   -0.57684E-03  6804   0.867E-03 0.739E-04
CGA:   9    -0.367105950571E+03   -0.23783E-03   -0.24231E-03  6804   0.294E-03 0.100E-03
CGA:  10    -0.367106032475E+03   -0.81904E-04   -0.85274E-04  6804   0.101E-03 0.656E-04
CGA:  11    -0.367106064420E+03   -0.31944E-04   -0.33111E-04  6804   0.448E-04 0.279E-04
CGA:  12    -0.367106074334E+03   -0.99144E-05   -0.12370E-04  6804   0.237E-04 0.271E-04
  37 F= -.36710607E+03 E0= -.36710607E+03  d E =0.587482E-02  mag=    16.0000
       N       E                     dE             d eps       ncg     rms          ort
SDA:   1    -0.367008771414E+03    0.97293E-01    0.00000E+00  6804   0.287E+00 0.000E+00
CGA:   2    -0.367092792086E+03   -0.84021E-01   -0.84021E-01  6804   0.114E+00-0.151E-03
CGA:   3    -0.367115268343E+03   -0.22476E-01   -0.22547E-01  6804   0.334E-01 0.687E-03
CGA:   4    -0.367121106718E+03   -0.58384E-02   -0.58688E-02  6804   0.784E-02 0.252E-03
CGA:   5    -0.367122706116E+03   -0.15994E-02   -0.15954E-02  6804   0.248E-02-0.484E-04
CGA:   6    -0.367123295973E+03   -0.58986E-03   -0.58206E-03  6804   0.108E-02-0.166E-03
CGA:   7    -0.367123570238E+03   -0.27427E-03   -0.27312E-03  6804   0.460E-03-0.106E-03
CGA:   8    -0.367123675747E+03   -0.10551E-03   -0.10582E-03  6804   0.157E-03 0.121E-04
CGA:   9    -0.367123726246E+03   -0.50499E-04   -0.51181E-04  6804   0.659E-04-0.182E-04
CGA:  10    -0.367123745070E+03   -0.18824E-04   -0.29537E-04  6804   0.790E-04-0.475E-04
CGA:  11    -0.367123760168E+03   -0.15098E-04   -0.15304E-04  6804   0.106E-04 0.208E-05
CGA:  12    -0.367123768099E+03   -0.79314E-05    0.57810E-05  6804   0.286E-05 0.178E-05
  38 F= -.36712377E+03 E0= -.36712377E+03  d E =-.176938E-01  mag=    16.0000
       N       E                     dE             d eps       ncg     rms          ort
SDA:   1    -0.367048062472E+03    0.75698E-01    0.00000E+00  6804   0.200E+00 0.000E+00
CGA:   2    -0.367108177393E+03   -0.60115E-01   -0.60130E-01  6804   0.849E-01-0.113E-02
CGA:   3    -0.367123390897E+03   -0.15214E-01   -0.15284E-01  6804   0.204E-01 0.648E-03
CGA:   4    -0.367126767280E+03   -0.33764E-02   -0.34187E-02  6804   0.425E-02 0.361E-03
CGA:   5    -0.367127606892E+03   -0.83961E-03   -0.84199E-03  6804   0.124E-02 0.282E-04
CGA:   6    -0.367127894928E+03   -0.28804E-03   -0.28433E-03  6804   0.468E-03-0.823E-04
CGA:   7    -0.367128011481E+03   -0.11655E-03   -0.11637E-03  6804   0.209E-03-0.409E-04
CGA:   8    -0.367128063107E+03   -0.51626E-04   -0.51622E-04  6804   0.823E-04 0.101E-04
CGA:   9    -0.367128088851E+03   -0.25744E-04   -0.25664E-04  6804   0.319E-04 0.291E-05
CGA:  10    -0.367128099861E+03   -0.11010E-04   -0.11174E-04  6804   0.142E-04-0.247E-05
CGA:  11    -0.367128103049E+03   -0.31877E-05   -0.85055E-05  6804   0.327E-04-0.143E-04
  39 F= -.36712810E+03 E0= -.36712810E+03  d E =-.433495E-02  mag=    16.0000
       N       E                     dE             d eps       ncg     rms          ort
SDA:   1    -0.365816073798E+03    0.13120E+01    0.00000E+00  6804   0.324E+01 0.000E+00
CGA:   2    -0.366836811496E+03   -0.10207E+01   -0.10208E+01  6804   0.129E+01-0.321E-02
CGA:   3    -0.367068350052E+03   -0.23154E+00   -0.23178E+00  6804   0.294E+00 0.200E-02
CGA:   4    -0.367117229312E+03   -0.48879E-01   -0.49039E-01  6804   0.606E-01 0.144E-02
CGA:   5    -0.367129088179E+03   -0.11859E-01   -0.11875E-01  6804   0.172E-01 0.182E-03
CGA:   6    -0.367132686268E+03   -0.35981E-02   -0.35846E-02  6804   0.532E-02-0.199E-03
CGA:   7    -0.367134014636E+03   -0.13284E-02   -0.13266E-02  6804   0.220E-02-0.847E-04
CGA:   8    -0.367134675966E+03   -0.66133E-03   -0.65979E-03  6804   0.107E-02 0.462E-04
CGA:   9    -0.367135001111E+03   -0.32515E-03   -0.32335E-03  6804   0.408E-03 0.798E-04
CGA:  10    -0.367135132160E+03   -0.13105E-03   -0.13016E-03  6804   0.142E-03 0.399E-04
CGA:  11    -0.367135186620E+03   -0.54460E-04   -0.55096E-04  6804   0.748E-04-0.820E-05
CGA:  12    -0.367135213111E+03   -0.26492E-04   -0.26530E-04  6804   0.394E-04-0.441E-06
CGA:  13    -0.367135228191E+03   -0.15080E-04   -0.14798E-04  6804   0.186E-04 0.300E-05
CGA:  14    -0.367135233943E+03   -0.57520E-05   -0.57576E-05  6804   0.640E-05 0.500E-05
  40 F= -.36713523E+03 E0= -.36713523E+03  d E =-.713089E-02  mag=    16.0000
       N       E                     dE             d eps       ncg     rms          ort
SDA:   1    -0.305302429743E+03    0.61833E+02    0.00000E+00  6804   0.128E+03 0.000E+00
CGA:   2    -0.343870171480E+03   -0.38568E+02   -0.38508E+02  6804   0.486E+02 0.263E+01
CGA:   3    -0.354348701328E+03   -0.10479E+02   -0.10561E+02  6804   0.142E+02 0.326E+00
CGA:   4    -0.357061873484E+03   -0.27132E+01   -0.27175E+01  6804   0.419E+01 0.298E-01
CGA:   5    -0.357942753873E+03   -0.88088E+00   -0.88163E+00  6804   0.147E+01 0.732E-02
CGA:   6    -0.358278443614E+03   -0.33569E+00   -0.33612E+00  6804   0.601E+00 0.519E-02
CGA:   7    -0.358429590756E+03   -0.15115E+00   -0.15120E+00  6804   0.213E+00 0.139E-02
CGA:   8    -0.358487855859E+03   -0.58265E-01   -0.58265E-01  6804   0.840E-01-0.372E-03
CGA:   9    -0.358511307498E+03   -0.23452E-01   -0.23448E-01  6804   0.278E-01 0.639E-03
CGA:  10    -0.358519779698E+03   -0.84722E-02   -0.84803E-02  6804   0.101E-01-0.296E-03
CGA:  11    -0.358522748231E+03   -0.29685E-02   -0.29671E-02  6804   0.351E-02 0.635E-04
CGA:  12    -0.358523868602E+03   -0.11204E-02   -0.11141E-02  6804   0.142E-02 0.161E-03
CGA:  13    -0.358524330019E+03   -0.46142E-03   -0.45516E-03  6804   0.628E-03 0.226E-03
CGA:  14    -0.358524617961E+03   -0.28794E-03   -0.29693E-03  6804   0.452E-03-0.699E-04
CGA:  15    -0.358524668356E+03   -0.50396E-04   -0.69662E-04  6804   0.204E-03 0.170E-03
CGA:  16    -0.358524708343E+03   -0.39987E-04   -0.49626E-04  6804   0.874E-04 0.921E-04
CGA:  17    -0.358524746896E+03   -0.38553E-04   -0.65053E-04  6804   0.231E-03-0.112E-03
CGA:  18    -0.358524754996E+03   -0.80996E-05   -0.25715E-04  6804   0.584E-04 0.100E-03
  41 F= -.35852475E+03 E0= -.35852475E+03  d E =0.861048E+01  mag=    16.0000
       N       E                     dE             d eps       ncg     rms          ort
SDA:   1    -0.293918337560E+03    0.64606E+02    0.00000E+00  6804   0.535E+03 0.000E+00
CGA:   2    -0.337648928480E+03   -0.43731E+02   -0.86857E+02  6804   0.643E+02 0.545E+02
CGA:   3    -0.356455417955E+03   -0.18806E+02   -0.18816E+02  6804   0.408E+02-0.573E+01
CGA:   4    -0.362493490823E+03   -0.60381E+01   -0.64985E+01  6804   0.656E+01 0.110E+01
CGA:   5    -0.364009300576E+03   -0.15158E+01   -0.15145E+01  6804   0.374E+01-0.420E-01
CGA:   6    -0.364917664681E+03   -0.90836E+00   -0.90859E+00  6804   0.143E+01 0.967E-02
CGA:   7    -0.365285647654E+03   -0.36798E+00   -0.36802E+00  6804   0.633E+00 0.160E-01
CGA:   8    -0.365444110532E+03   -0.15846E+00   -0.15842E+00  6804   0.217E+00-0.541E-02
CGA:   9    -0.365502171707E+03   -0.58061E-01   -0.58087E-01  6804   0.739E-01-0.199E-02
CGA:  10    -0.365520390951E+03   -0.18219E-01   -0.18248E-01  6804   0.228E-01 0.326E-02
CGA:  11    -0.365527203717E+03   -0.68128E-02   -0.68012E-02  6804   0.817E-02 0.411E-03
CGA:  12    -0.365530018618E+03   -0.28149E-02   -0.28653E-02  6804   0.362E-02-0.587E-03
CGA:  13    -0.365530986362E+03   -0.96774E-03   -0.95935E-03  6804   0.143E-02 0.370E-03
CGA:  14    -0.365531538966E+03   -0.55260E-03   -0.57400E-03  6804   0.780E-03-0.213E-03
CGA:  15    -0.365531798894E+03   -0.25993E-03   -0.31130E-03  6804   0.578E-03-0.258E-03
CGA:  16    -0.365531838779E+03   -0.39885E-04   -0.60365E-04  6804   0.319E-03 0.166E-03
CGA:  17    -0.365531879867E+03   -0.41088E-04   -0.59695E-04  6804   0.123E-03 0.146E-03
CGA:  18    -0.365531938913E+03   -0.59046E-04   -0.73762E-04  6804   0.146E-03-0.101E-03
CGA:  19    -0.365531104302E+03    0.83461E-03   -0.44931E-03  6804   0.414E-02-0.720E-03
CGA:  20    -0.365531921611E+03   -0.81731E-03   -0.91664E-03  6804   0.273E-03 0.358E-03
CGA:  21    -0.365532052276E+03   -0.13067E-03   -0.11899E-03  6804   0.947E-04-0.137E-03
CGA:  22    -0.365532053603E+03   -0.13265E-05   -0.13549E-04  6804   0.167E-04 0.361E-04
  42 F= -.36553205E+03 E0= -.36553205E+03  d E =-.700730E+01  mag=    16.0000
       N       E                     dE             d eps       ncg     rms          ort
SDA:   1    -0.365420690324E+03    0.11136E+00    0.00000E+00  6804   0.134E+01 0.000E+00
CGA:   2    -0.365857239856E+03   -0.43655E+00   -0.43661E+00  6804   0.433E+00-0.558E-03
CGA:   3    -0.365957485944E+03   -0.10025E+00   -0.10032E+00  6804   0.113E+00 0.330E-03
CGA:   4    -0.365978383933E+03   -0.20898E-01   -0.20946E-01  6804   0.334E-01 0.355E-04
CGA:   5    -0.365985099693E+03   -0.67158E-02   -0.67188E-02  6804   0.108E-01-0.535E-05
CGA:   6    -0.365987740832E+03   -0.26411E-02   -0.26279E-02  6804   0.490E-02-0.821E-04
CGA:   7    -0.365988944863E+03   -0.12040E-02   -0.11995E-02  6804   0.187E-02-0.297E-04
CGA:   8    -0.365989451859E+03   -0.50700E-03   -0.51569E-03  6804   0.707E-03 0.756E-04
CGA:   9    -0.365989646794E+03   -0.19493E-03   -0.19923E-03  6804   0.248E-03 0.373E-04
CGA:  10    -0.365989717269E+03   -0.70475E-04   -0.72756E-04  6804   0.826E-04 0.225E-04
CGA:  11    -0.365989735805E+03   -0.18536E-04   -0.21709E-04  6804   0.288E-04 0.237E-04
CGA:  12    -0.365989739737E+03   -0.39327E-05   -0.71607E-05  6804   0.146E-04 0.185E-04
  43 F= -.36598974E+03 E0= -.36598974E+03  d E =-.457686E+00  mag=    16.0000
       N       E                     dE             d eps       ncg     rms          ort
SDA:   1    -0.358958566528E+03    0.70312E+01    0.00000E+00  6804   0.185E+02 0.000E+00
CGA:   2    -0.364824391022E+03   -0.58658E+01   -0.58748E+01  6804   0.623E+01 0.939E-01
CGA:   3    -0.366292867117E+03   -0.14685E+01   -0.14708E+01  6804   0.168E+01 0.101E-01
CGA:   4    -0.366600471946E+03   -0.30760E+00   -0.30814E+00  6804   0.499E+00 0.209E-02
CGA:   5    -0.366703262911E+03   -0.10279E+00   -0.10300E+00  6804   0.164E+00 0.509E-03
CGA:   6    -0.366743380713E+03   -0.40118E-01   -0.40120E-01  6804   0.759E-01-0.103E-03
CGA:   7    -0.366762303565E+03   -0.18923E-01   -0.18918E-01  6804   0.285E-01-0.518E-04
CGA:   8    -0.366770245154E+03   -0.79416E-02   -0.79604E-02  6804   0.106E-01 0.416E-03
CGA:   9    -0.366773189473E+03   -0.29443E-02   -0.29498E-02  6804   0.354E-02 0.110E-03
CGA:  10    -0.366774304386E+03   -0.11149E-02   -0.11138E-02  6804   0.122E-02-0.157E-03
CGA:  11    -0.366774671526E+03   -0.36714E-03   -0.36705E-03  6804   0.465E-03-0.266E-04
CGA:  12    -0.366774840093E+03   -0.16857E-03   -0.16938E-03  6804   0.240E-03-0.159E-04
CGA:  13    -0.366774940392E+03   -0.10030E-03   -0.10516E-03  6804   0.144E-03-0.374E-04
CGA:  14    -0.366774980646E+03   -0.40254E-04   -0.40220E-04  6804   0.578E-04 0.856E-05
CGA:  15    -0.366774516917E+03    0.46373E-03   -0.24955E-03  6804   0.227E-02-0.339E-03
CGA:  16    -0.366774932328E+03   -0.41541E-03   -0.46304E-03  6804   0.343E-03 0.121E-03
CGA:  17    -0.366775028198E+03   -0.95870E-04   -0.91875E-04  6804   0.764E-04-0.125E-04
CGA:  18    -0.366775066669E+03   -0.38471E-04   -0.37294E-04  6804   0.493E-04-0.216E-04
CGA:  19    -0.366775061353E+03    0.53166E-05   -0.43424E-05  6804   0.266E-04 0.221E-04
  44 F= -.36677506E+03 E0= -.36677506E+03  d E =-.785322E+00  mag=    16.0000
       N       E                     dE             d eps       ncg     rms          ort
SDA:   1    -0.366481687625E+03    0.29338E+00    0.00000E+00  6804   0.111E+01 0.000E+00
CGA:   2    -0.366834230580E+03   -0.35254E+00   -0.35305E+00  6804   0.345E+00-0.871E-03
CGA:   3    -0.366919487269E+03   -0.85257E-01   -0.85299E-01  6804   0.741E-01 0.319E-03
CGA:   4    -0.366935088892E+03   -0.15602E-01   -0.15543E-01  6804   0.229E-01-0.254E-03
CGA:   5    -0.366939483463E+03   -0.43946E-02   -0.43759E-02  6804   0.751E-02-0.751E-04
CGA:   6    -0.366941349238E+03   -0.18658E-02   -0.18736E-02  6804   0.311E-02 0.358E-04
CGA:   7    -0.366942107431E+03   -0.75819E-03   -0.76651E-03  6804   0.129E-02 0.398E-04
CGA:   8    -0.366942459354E+03   -0.35192E-03   -0.35976E-03  6804   0.457E-03 0.461E-04
CGA:   9    -0.366942590347E+03   -0.13099E-03   -0.13365E-03  6804   0.155E-03 0.173E-04
CGA:  10    -0.366942636096E+03   -0.45749E-04   -0.45787E-04  6804   0.508E-04 0.235E-06
CGA:  11    -0.366942640948E+03   -0.48513E-05   -0.95341E-05  6804   0.171E-04 0.201E-04
  45 F= -.36694264E+03 E0= -.36694264E+03  d E =-.167580E+00  mag=    16.0000
       N       E                     dE             d eps       ncg     rms          ort
SDA:   1    -0.365496068813E+03    0.14466E+01    0.00000E+00  6804   0.399E+01 0.000E+00
CGA:   2    -0.366701659746E+03   -0.12056E+01   -0.12103E+01  6804   0.131E+01 0.937E-02
CGA:   3    -0.367022312529E+03   -0.32065E+00   -0.32114E+00  6804   0.329E+00 0.285E-02
CGA:   4    -0.367084637410E+03   -0.62325E-01   -0.62319E-01  6804   0.951E-01-0.184E-03
CGA:   5    -0.367103527146E+03   -0.18890E-01   -0.18851E-01  6804   0.293E-01-0.401E-03
CGA:   6    -0.367110895728E+03   -0.73686E-02   -0.73627E-02  6804   0.131E-01-0.707E-04
CGA:   7    -0.367114081388E+03   -0.31857E-02   -0.32030E-02  6804   0.513E-02 0.154E-03
CGA:   8    -0.367115507173E+03   -0.14258E-02   -0.14395E-02  6804   0.184E-02 0.177E-03
CGA:   9    -0.367116049550E+03   -0.54238E-03   -0.54182E-03  6804   0.594E-03-0.949E-05
CGA:  10    -0.367116229117E+03   -0.17957E-03   -0.17743E-03  6804   0.183E-03-0.462E-04
CGA:  11    -0.367116271050E+03   -0.41933E-04   -0.43660E-04  6804   0.497E-04 0.200E-04
CGA:  12    -0.367116283549E+03   -0.12499E-04   -0.13772E-04  6804   0.197E-04 0.141E-04
CGA:  13    -0.367116286743E+03   -0.31944E-05   -0.49584E-05  6804   0.102E-04 0.126E-04
  46 F= -.36711629E+03 E0= -.36711629E+03  d E =-.173646E+00  mag=    16.0000
       N       E                     dE             d eps       ncg     rms          ort
SDA:   1    -0.366821301739E+03    0.29498E+00    0.00000E+00  6804   0.791E+00 0.000E+00
CGA:   2    -0.367057689187E+03   -0.23639E+00   -0.23642E+00  6804   0.256E+00-0.455E-03
CGA:   3    -0.367116924267E+03   -0.59235E-01   -0.59369E-01  6804   0.797E-01 0.154E-02
CGA:   4    -0.367130710581E+03   -0.13786E-01   -0.13795E-01  6804   0.185E-01 0.424E-04
CGA:   5    -0.367134526279E+03   -0.38157E-02   -0.37733E-02  6804   0.595E-02-0.416E-03
CGA:   6    -0.367135913468E+03   -0.13872E-02   -0.13721E-02  6804   0.254E-02-0.224E-03
CGA:   7    -0.367136491737E+03   -0.57827E-03   -0.58346E-03  6804   0.901E-03 0.842E-04
CGA:   8    -0.367136728568E+03   -0.23683E-03   -0.24081E-03  6804   0.322E-03 0.103E-03
CGA:   9    -0.367136846209E+03   -0.11764E-03   -0.11940E-03  6804   0.153E-03-0.473E-04
CGA:  10    -0.367136887460E+03   -0.41252E-04   -0.42177E-04  6804   0.619E-04-0.347E-04
CGA:  11    -0.367136903729E+03   -0.16269E-04   -0.19308E-04  6804   0.427E-04-0.290E-04
CGA:  12    -0.367136911046E+03   -0.73171E-05   -0.74742E-05  6804   0.200E-04-0.631E-05
  47 F= -.36713691E+03 E0= -.36713691E+03  d E =-.206243E-01  mag=    16.0000
       N       E                     dE             d eps       ncg     rms          ort
SDA:   1    -0.366903066645E+03    0.23384E+00    0.00000E+00  6804   0.639E+00 0.000E+00
CGA:   2    -0.367083336555E+03   -0.18027E+00   -0.18027E+00  6804   0.249E+00-0.868E-03
CGA:   3    -0.367132967711E+03   -0.49631E-01   -0.49740E-01  6804   0.807E-01 0.110E-02
CGA:   4    -0.367147278312E+03   -0.14311E-01   -0.14351E-01  6804   0.171E-01 0.346E-03
CGA:   5    -0.367150616879E+03   -0.33386E-02   -0.33094E-02  6804   0.548E-02-0.317E-03
CGA:   6    -0.367151911091E+03   -0.12942E-02   -0.12775E-02  6804   0.231E-02-0.379E-03
CGA:   7    -0.367152439984E+03   -0.52889E-03   -0.52869E-03  6804   0.841E-03-0.628E-05
CGA:   8    -0.367152637351E+03   -0.19737E-03   -0.20179E-03  6804   0.275E-03 0.118E-03
CGA:   9    -0.367152739693E+03   -0.10234E-03   -0.10405E-03  6804   0.135E-03-0.309E-04
CGA:  10    -0.367152777252E+03   -0.37559E-04   -0.57182E-04  6804   0.164E-03-0.987E-04
CGA:  11    -0.367152807224E+03   -0.29972E-04   -0.30490E-04  6804   0.233E-04 0.498E-05
CGA:  12    -0.367152816053E+03   -0.88296E-05   -0.90385E-05  6804   0.837E-05-0.227E-05
  48 F= -.36715282E+03 E0= -.36715282E+03  d E =-.159050E-01  mag=    16.0000
       N       E                     dE             d eps       ncg     rms          ort
SDA:   1    -0.367015327489E+03    0.13748E+00    0.00000E+00  6804   0.392E+00 0.000E+00
CGA:   2    -0.367113614615E+03   -0.98287E-01   -0.98265E-01  6804   0.188E+00-0.753E-03
CGA:   3    -0.367149179301E+03   -0.35565E-01   -0.35595E-01  6804   0.513E-01 0.280E-03
CGA:   4    -0.367158183387E+03   -0.90041E-02   -0.90110E-02  6804   0.111E-01 0.745E-04
CGA:   5    -0.367160250689E+03   -0.20673E-02   -0.20598E-02  6804   0.314E-02-0.841E-04
CGA:   6    -0.367160967517E+03   -0.71683E-03   -0.71096E-03  6804   0.117E-02-0.135E-03
CGA:   7    -0.367161247783E+03   -0.28027E-03   -0.28010E-03  6804   0.455E-03-0.848E-05
CGA:   8    -0.367161361222E+03   -0.11344E-03   -0.11427E-03  6804   0.162E-03 0.534E-04
CGA:   9    -0.367161417017E+03   -0.55795E-04   -0.55612E-04  6804   0.702E-04 0.467E-05
CGA:  10    -0.367161443633E+03   -0.26616E-04   -0.30905E-04  6804   0.592E-04-0.272E-04
CGA:  11    -0.367161450245E+03   -0.66128E-05   -0.71187E-05  6804   0.273E-04 0.621E-05
  49 F= -.36716145E+03 E0= -.36716145E+03  d E =-.863419E-02  mag=    16.0000
       N       E                     dE             d eps       ncg     rms          ort
SDA:   1    -0.366983582371E+03    0.17786E+00    0.00000E+00  6804   0.477E+00 0.000E+00
CGA:   2    -0.367107363131E+03   -0.12378E+00   -0.12377E+00  6804   0.231E+00-0.148E-02
CGA:   3    -0.367150521443E+03   -0.43158E-01   -0.43188E-01  6804   0.586E-01 0.347E-03
CGA:   4    -0.367160468285E+03   -0.99468E-02   -0.99706E-02  6804   0.120E-01 0.255E-03
CGA:   5    -0.367162694142E+03   -0.22259E-02   -0.22365E-02  6804   0.331E-02 0.145E-03
CGA:   6    -0.367163421669E+03   -0.72753E-03   -0.72861E-03  6804   0.113E-02 0.281E-04
CGA:   7    -0.367163715653E+03   -0.29398E-03   -0.29404E-03  6804   0.481E-03-0.123E-04
CGA:   8    -0.367163856063E+03   -0.14041E-03   -0.14009E-03  6804   0.220E-03 0.774E-05
CGA:   9    -0.367163918504E+03   -0.62441E-04   -0.61913E-04  6804   0.797E-04 0.246E-04
CGA:  10    -0.367163944662E+03   -0.26157E-04   -0.25793E-04  6804   0.317E-04 0.105E-04
CGA:  11    -0.367163954904E+03   -0.10242E-04   -0.10069E-04  6804   0.140E-04 0.774E-05
CGA:  12    -0.367163961249E+03   -0.63449E-05   -0.61171E-05  6804   0.846E-05 0.245E-05
  50 F= -.36716396E+03 E0= -.36716396E+03  d E =-.251100E-02  mag=    16.0000
       N       E                     dE             d eps       ncg     rms          ort
SDA:   1    -0.366220235888E+03    0.94372E+00    0.00000E+00  6804   0.237E+01 0.000E+00
CGA:   2    -0.366915192541E+03   -0.69496E+00   -0.69504E+00  6804   0.973E+00-0.443E-02
CGA:   3    -0.367098301444E+03   -0.18311E+00   -0.18320E+00  6804   0.250E+00 0.990E-03
CGA:   4    -0.367140702960E+03   -0.42402E-01   -0.42438E-01  6804   0.529E-01 0.339E-03
CGA:   5    -0.367150959226E+03   -0.10256E-01   -0.10269E-01  6804   0.157E-01 0.175E-03
CGA:   6    -0.367154317063E+03   -0.33578E-02   -0.33622E-02  6804   0.532E-02 0.881E-04
CGA:   7    -0.367155671965E+03   -0.13549E-02   -0.13554E-02  6804   0.216E-02 0.833E-04
CGA:   8    -0.367156322798E+03   -0.65083E-03   -0.64854E-03  6804   0.993E-03 0.604E-04
CGA:   9    -0.367156610637E+03   -0.28784E-03   -0.28596E-03  6804   0.354E-03 0.945E-04
CGA:  10    -0.367156712269E+03   -0.10163E-03   -0.10158E-03  6804   0.122E-03 0.737E-04
CGA:  11    -0.367156750066E+03   -0.37797E-04   -0.37976E-04  6804   0.532E-04 0.394E-04
CGA:  12    -0.367156765686E+03   -0.15620E-04   -0.16453E-04  6804   0.293E-04 0.306E-04
CGA:  13    -0.367156772782E+03   -0.70958E-05   -0.72669E-05  6804   0.154E-04 0.141E-04
  51 F= -.36715677E+03 E0= -.36715677E+03  d E =0.718847E-02  mag=    16.0000
       N       E                     dE             d eps       ncg     rms          ort
SDA:   1    -0.366914635512E+03    0.24213E+00    0.00000E+00  6804   0.655E+00 0.000E+00
CGA:   2    -0.367104395605E+03   -0.18976E+00   -0.18980E+00  6804   0.294E+00-0.147E-02
CGA:   3    -0.367156104056E+03   -0.51708E-01   -0.51794E-01  6804   0.736E-01 0.102E-02
CGA:   4    -0.367169190444E+03   -0.13086E-01   -0.13175E-01  6804   0.169E-01 0.115E-02
CGA:   5    -0.367172437829E+03   -0.32474E-02   -0.32545E-02  6804   0.485E-02 0.110E-03
CGA:   6    -0.367173566986E+03   -0.11292E-02   -0.11253E-02  6804   0.189E-02-0.218E-03
CGA:   7    -0.367174028357E+03   -0.46137E-03   -0.46205E-03  6804   0.753E-03-0.770E-04
CGA:   8    -0.367174215748E+03   -0.18739E-03   -0.18694E-03  6804   0.268E-03 0.421E-04
CGA:   9    -0.367174300617E+03   -0.84870E-04   -0.84932E-04  6804   0.990E-04-0.129E-05
CGA:  10    -0.367174331237E+03   -0.30619E-04   -0.31057E-04  6804   0.380E-04-0.687E-05
CGA:  11    -0.367174350392E+03   -0.19155E-04    0.68898E-04  6804   0.118E-04 0.432E-05
CGA:  12    -0.367174359104E+03   -0.87119E-05    0.54823E-05  6804   0.479E-05 0.328E-05
  52 F= -.36717436E+03 E0= -.36717436E+03  d E =-.175863E-01  mag=    16.0000
       N       E                     dE             d eps       ncg     rms          ort
SDA:   1    -0.366577861235E+03    0.59649E+00    0.00000E+00  6804   0.149E+01 0.000E+00
CGA:   2    -0.367025637725E+03   -0.44778E+00   -0.44791E+00  6804   0.683E+00-0.302E-02
CGA:   3    -0.367142382039E+03   -0.11674E+00   -0.11684E+00  6804   0.152E+00 0.110E-02
CGA:   4    -0.367168962353E+03   -0.26580E-01   -0.26698E-01  6804   0.349E-01 0.152E-02
CGA:   5    -0.367175541945E+03   -0.65796E-02   -0.65998E-02  6804   0.951E-02 0.322E-03
CGA:   6    -0.367177620903E+03   -0.20790E-02   -0.20750E-02  6804   0.323E-02-0.136E-03
CGA:   7    -0.367178445291E+03   -0.82439E-03   -0.82604E-03  6804   0.133E-02-0.110E-03
CGA:   8    -0.367178817419E+03   -0.37213E-03   -0.37268E-03  6804   0.582E-03-0.129E-04
CGA:   9    -0.367178984961E+03   -0.16754E-03   -0.16670E-03  6804   0.198E-03 0.199E-04
CGA:  10    -0.367179043001E+03   -0.58039E-04   -0.57562E-04  6804   0.624E-04 0.149E-04
CGA:  11    -0.367178770806E+03    0.27219E-03   -0.14687E-03  6804   0.145E-02-0.273E-03
CGA:  12    -0.367179046616E+03   -0.27581E-03   -0.29420E-03  6804   0.154E-03 0.721E-04
CGA:  13    -0.367179113088E+03   -0.66473E-04   -0.64595E-04  6804   0.620E-04-0.422E-04
CGA:  14    -0.367179113511E+03   -0.42222E-06   -0.69817E-05  6804   0.258E-04 0.228E-04
  53 F= -.36717911E+03 E0= -.36717911E+03  d E =-.475441E-02  mag=    16.0000
       N       E                     dE             d eps       ncg     rms          ort
SDA:   1    -0.362803612170E+03    0.43755E+01    0.00000E+00  6804   0.105E+02 0.000E+00
CGA:   2    -0.366202379440E+03   -0.33988E+01   -0.33994E+01  6804   0.439E+01-0.381E-02
CGA:   3    -0.366951878002E+03   -0.74950E+00   -0.75048E+00  6804   0.943E+00 0.412E-02
CGA:   4    -0.367113673930E+03   -0.16180E+00   -0.16221E+00  6804   0.209E+00 0.237E-02
CGA:   5    -0.367153822915E+03   -0.40149E-01   -0.40268E-01  6804   0.584E-01 0.575E-03
CGA:   6    -0.367166007890E+03   -0.12185E-01   -0.12181E-01  6804   0.178E-01-0.416E-04
CGA:   7    -0.367170466845E+03   -0.44590E-02   -0.44503E-02  6804   0.716E-02-0.776E-04
CGA:   8    -0.367172588358E+03   -0.21215E-02   -0.21270E-02  6804   0.336E-02 0.833E-04
CGA:   9    -0.367173575187E+03   -0.98683E-03   -0.99903E-03  6804   0.122E-02 0.186E-03
CGA:  10    -0.367173945247E+03   -0.37006E-03   -0.37549E-03  6804   0.404E-03 0.845E-04
CGA:  11    -0.367174086405E+03   -0.14116E-03   -0.14109E-03  6804   0.177E-03-0.272E-05
CGA:  12    -0.367174145875E+03   -0.59470E-04   -0.59674E-04  6804   0.843E-04 0.171E-04
CGA:  13    -0.367174181824E+03   -0.35950E-04   -0.35586E-04  6804   0.462E-04 0.105E-04
CGA:  14    -0.367174200140E+03   -0.18316E-04   -0.18316E-04  6804   0.198E-04 0.794E-05
CGA:  15    -0.367174210497E+03   -0.10357E-04   -0.10897E-04  6804   0.126E-04-0.461E-05
CGA:  16    -0.367174211353E+03   -0.85600E-06   -0.17121E-05  6804   0.635E-05 0.470E-05
[...]
CGA:   3    -0.367312640183E+03   -0.31329E-02   -0.31200E-02  6804   0.414E-02-0.118E-03
CGA:   4    -0.367313319945E+03   -0.67976E-03   -0.67468E-03  6804   0.858E-03-0.415E-04
CGA:   5    -0.367313471361E+03   -0.15142E-03   -0.15523E-03  6804   0.222E-03 0.375E-04
CGA:   6    -0.367313511865E+03   -0.40504E-04   -0.43101E-04  6804   0.600E-04 0.279E-04
CGA:   7    -0.367313532638E+03   -0.20772E-04   -0.21160E-04  6804   0.397E-04-0.100E-04
CGA:   8    -0.367313533903E+03   -0.12655E-05   -0.22735E-04  6804   0.134E-03-0.523E-04
CGA:   9    -0.367313550511E+03   -0.16608E-04   -0.19767E-04  6804   0.184E-04 0.212E-04
CGA:  10    -0.367313554363E+03   -0.38523E-05   -0.44183E-05  6804   0.601E-05 0.688E-05
 153 F= -.36731355E+03 E0= -.36731355E+03  d E =-.176989E-03  mag=    16.0000
       N       E                     dE             d eps       ncg     rms          ort
SDA:   1    -0.362819315389E+03    0.44942E+01    0.00000E+00  6804   0.116E+02 0.000E+00
CGA:   2    -0.366083281288E+03   -0.32640E+01   -0.32641E+01  6804   0.535E+01 0.580E-02
CGA:   3    -0.367024754202E+03   -0.94147E+00   -0.94200E+00  6804   0.128E+01-0.968E-05
CGA:   4    -0.367237035412E+03   -0.21228E+00   -0.21234E+00  6804   0.252E+00 0.226E-03
CGA:   5    -0.367284445784E+03   -0.47410E-01   -0.47443E-01  6804   0.705E-01 0.318E-03
CGA:   6    -0.367298962541E+03   -0.14517E-01   -0.14524E-01  6804   0.207E-01 0.897E-04
CGA:   7    -0.367304247463E+03   -0.52849E-02   -0.52796E-02  6804   0.887E-02-0.313E-03
CGA:   8    -0.367307064830E+03   -0.28174E-02   -0.28455E-02  6804   0.505E-02-0.523E-03
CGA:   9    -0.367308611980E+03   -0.15472E-02   -0.15566E-02  6804   0.225E-02-0.179E-03
CGA:  10    -0.367309302788E+03   -0.69081E-03   -0.69550E-03  6804   0.844E-03-0.108E-03
CGA:  11    -0.367309582258E+03   -0.27947E-03   -0.28669E-03  6804   0.421E-03-0.933E-04
CGA:  12    -0.367309736530E+03   -0.15427E-03   -0.16955E-03  6804   0.299E-03-0.904E-04
CGA:  13    -0.367309808777E+03   -0.72247E-04   -0.16761E-03  6804   0.440E-03-0.226E-03
CGA:  14    -0.367309894048E+03   -0.85271E-04   -0.92435E-04  6804   0.514E-04 0.698E-04
CGA:  15    -0.367309557237E+03    0.33681E-03   -0.18145E-03  6804   0.132E-02-0.268E-03
CGA:  16    -0.367309824907E+03   -0.26767E-03   -0.33124E-03  6804   0.162E-03 0.205E-03
CGA:  17    -0.367309601305E+03    0.22360E-03   -0.23760E-03  6804   0.249E-02-0.640E-03
CGA:  18    -0.367309792050E+03   -0.19075E-03   -0.41132E-03  6804   0.334E-03 0.528E-03
CGA:  19    -0.367309864059E+03   -0.72009E-04   -0.97465E-04  6804   0.766E-04 0.795E-04
CGA:  20    -0.367309986418E+03   -0.12236E-03    0.13932E-03  6804   0.211E-03-0.138E-03
CGA:  21    -0.367309961347E+03    0.25071E-04   -0.21341E-04  6804   0.554E-04 0.105E-03
CGA:  22    -0.367309945412E+03    0.15936E-04   -0.55805E-05  6804   0.214E-04 0.473E-04
CGA:  23    -0.367309941564E+03    0.38474E-05   -0.21868E-05  6804   0.109E-04 0.152E-04
 154 F= -.36730994E+03 E0= -.36730994E+03  d E =0.361280E-02  mag=    16.0000
       N       E                     dE             d eps       ncg     rms          ort
SDA:   1    -0.346736638490E+03    0.20573E+02    0.00000E+00  6804   0.492E+02 0.000E+00
CGA:   2    -0.359422951443E+03   -0.12686E+02   -0.12749E+02  6804   0.240E+02-0.872E-02
CGA:   3    -0.363876447942E+03   -0.44535E+01   -0.44590E+01  6804   0.626E+01 0.345E+00
CGA:   4    -0.365046765413E+03   -0.11703E+01   -0.11710E+01  6804   0.164E+01 0.292E-01
CGA:   5    -0.365366057132E+03   -0.31929E+00   -0.31977E+00  6804   0.519E+00 0.100E-02
CGA:   6    -0.365480923054E+03   -0.11487E+00   -0.11479E+00  6804   0.190E+00-0.655E-03
CGA:   7    -0.365530899920E+03   -0.49977E-01   -0.49962E-01  6804   0.789E-01-0.173E-03
CGA:   8    -0.365551868136E+03   -0.20968E-01   -0.21094E-01  6804   0.300E-01 0.931E-03
CGA:   9    -0.365560741108E+03   -0.88730E-02   -0.89095E-02  6804   0.105E-01 0.359E-03
CGA:  10    -0.365563981888E+03   -0.32408E-02   -0.32283E-02  6804   0.398E-02-0.159E-03
CGA:  11    -0.365565163738E+03   -0.11818E-02   -0.11900E-02  6804   0.157E-02 0.975E-04
CGA:  12    -0.365565806267E+03   -0.64253E-03   -0.64678E-03  6804   0.988E-03-0.176E-03
CGA:  13    -0.365566031382E+03   -0.22512E-03   -0.24727E-03  6804   0.422E-03 0.224E-03
CGA:  14    -0.365566201570E+03   -0.17019E-03   -0.17140E-03  6804   0.226E-03 0.258E-04
CGA:  15    -0.365566293137E+03   -0.91566E-04   -0.91490E-04  6804   0.130E-03 0.652E-05
CGA:  16    -0.365566326436E+03   -0.33300E-04   -0.36819E-04  6804   0.578E-04 0.357E-04
CGA:  17    -0.365566237782E+03    0.88655E-04   -0.97600E-04  6804   0.670E-03-0.197E-03
CGA:  18    -0.365566386413E+03   -0.14863E-03   -0.16163E-03  6804   0.703E-04 0.744E-04
CGA:  19    -0.365565311423E+03    0.10750E-02   -0.58116E-03  6804   0.482E-02-0.583E-03
CGA:  20    -0.365566088527E+03   -0.77710E-03   -0.10191E-02  6804   0.700E-03 0.439E-03
CGA:  21    -0.365566534503E+03   -0.44598E-03   -0.34657E-03  6804   0.318E-03-0.380E-03
CGA:  22    -0.365566494909E+03    0.39594E-04   -0.40843E-04  6804   0.732E-04 0.137E-03
CGA:  23    -0.365566475772E+03    0.19137E-04   -0.11014E-04  6804   0.269E-04 0.521E-04
CGA:  24    -0.365444962269E+03    0.12151E+00   -0.75599E-04  6804   0.381E+00-0.207E-01
CGA:  25    -0.365536112833E+03   -0.91151E-01   -0.14407E+00  6804   0.167E+00-0.790E-01
CGA:  26    -0.365565384373E+03   -0.29272E-01   -0.28606E-01  6804   0.230E-02 0.225E-02
CGA:  27    -0.365566278674E+03   -0.89430E-03   -0.80383E-03  6804   0.492E-03-0.243E-03
CGA:  28    -0.365566342256E+03   -0.63583E-04   -0.10415E-03  6804   0.876E-04 0.896E-04
CGA:  29    -0.365566385594E+03   -0.43338E-04   -0.38297E-04  6804   0.412E-04-0.167E-04
CGA:  30    -0.365566478551E+03   -0.92957E-04    0.95791E-05  6804   0.647E-04-0.410E-04
CGA:  31    -0.365566469077E+03    0.94741E-05   -0.79764E-05  6804   0.187E-04 0.329E-04
 155 F= -.36556647E+03 E0= -.36556647E+03  d E =0.174347E+01  mag=    16.0000
       N       E                     dE             d eps       ncg     rms          ort
SDA:   1    -0.361731219192E+03    0.38353E+01    0.00000E+00  6804   0.124E+02 0.000E+00
CGA:   2    -0.365835102872E+03   -0.41039E+01   -0.41002E+01  6804   0.386E+01 0.924E-02
CGA:   3    -0.366714233686E+03   -0.87913E+00   -0.88126E+00  6804   0.971E+00-0.331E-02
CGA:   4    -0.366892358945E+03   -0.17813E+00   -0.17820E+00  6804   0.305E+00 0.111E-02
CGA:   5    -0.366953452841E+03   -0.61094E-01   -0.61252E-01  6804   0.952E-01 0.707E-03
CGA:   6    -0.366975971214E+03   -0.22518E-01   -0.22669E-01  6804   0.419E-01 0.513E-03
CGA:   7    -0.366986692209E+03   -0.10721E-01   -0.10725E-01  6804   0.166E-01-0.148E-05
CGA:   8    -0.366991544606E+03   -0.48524E-02   -0.48100E-02  6804   0.684E-02-0.203E-03
CGA:   9    -0.366993390700E+03   -0.18461E-02   -0.18705E-02  6804   0.228E-02 0.109E-03
CGA:  10    -0.366994055602E+03   -0.66490E-03   -0.67129E-03  6804   0.827E-03 0.315E-04
CGA:  11    -0.366994301046E+03   -0.24544E-03   -0.25624E-03  6804   0.338E-03 0.631E-04
CGA:  12    -0.366994417017E+03   -0.11597E-03   -0.12171E-03  6804   0.175E-03 0.429E-04
CGA:  13    -0.366994520395E+03   -0.10338E-03   -0.11148E-03  6804   0.211E-03-0.775E-04
CGA:  14    -0.366994529649E+03   -0.92545E-05   -0.19368E-04  6804   0.132E-03 0.331E-04
CGA:  15    -0.366994544009E+03   -0.14359E-04   -0.24139E-04  6804   0.511E-04 0.333E-04
CGA:  16    -0.366994571711E+03   -0.27703E-04   -0.32755E-04  6804   0.112E-03-0.664E-04
CGA:  17    -0.366994587810E+03   -0.16098E-04   -0.22590E-04  6804   0.145E-04 0.273E-04
CGA:  18    -0.366994610771E+03   -0.22961E-04    0.77355E-05  6804   0.134E-04-0.765E-05
CGA:  19    -0.366994609320E+03    0.14514E-05   -0.13231E-05  6804   0.575E-05 0.845E-05
 156 F= -.36699461E+03 E0= -.36699461E+03  d E =-.142814E+01  mag=    16.0000
       N       E                     dE             d eps       ncg     rms          ort
SDA:   1    -0.364516733485E+03    0.24779E+01    0.00000E+00  6804   0.657E+01 0.000E+00
CGA:   2    -0.366643129100E+03   -0.21264E+01   -0.21263E+01  6804   0.224E+01-0.190E-02
CGA:   3    -0.367113854843E+03   -0.47073E+00   -0.47075E+00  6804   0.639E+00-0.884E-03
CGA:   4    -0.367225377172E+03   -0.11152E+00   -0.11159E+00  6804   0.175E+00 0.345E-03
CGA:   5    -0.367261398114E+03   -0.36021E-01   -0.36082E-01  6804   0.562E-01 0.390E-03
CGA:   6    -0.367274119051E+03   -0.12721E-01   -0.12783E-01  6804   0.236E-01 0.437E-03
CGA:   7    -0.367280329232E+03   -0.62102E-02   -0.62129E-02  6804   0.939E-02 0.224E-04
CGA:   8    -0.367283110349E+03   -0.27811E-02   -0.27615E-02  6804   0.407E-02-0.321E-03
CGA:   9    -0.367284201137E+03   -0.10908E-02   -0.10895E-02  6804   0.132E-02-0.193E-04
CGA:  10    -0.367284595526E+03   -0.39439E-03   -0.39250E-03  6804   0.470E-03-0.394E-04
CGA:  11    -0.367284749240E+03   -0.15371E-03   -0.15340E-03  6804   0.209E-03-0.322E-04
CGA:  12    -0.367284829357E+03   -0.80117E-04   -0.84659E-04  6804   0.146E-03-0.509E-04
CGA:  13    -0.367284915308E+03   -0.85951E-04    0.16674E-03  6804   0.620E-04-0.569E-05
CGA:  14    -0.367284938428E+03   -0.23120E-04   -0.35704E-04  6804   0.984E-04-0.506E-04
CGA:  15    -0.367283357039E+03    0.15814E-02   -0.86119E-03  6804   0.938E-02-0.908E-03
CGA:  16    -0.367284787876E+03   -0.14308E-02   -0.16808E-02  6804   0.650E-03 0.520E-03
CGA:  17    -0.367285015029E+03   -0.22715E-03   -0.17609E-03  6804   0.900E-04-0.134E-03
CGA:  18    -0.367285024361E+03   -0.93321E-05   -0.14867E-04  6804   0.126E-04 0.135E-04
 157 F= -.36728502E+03 E0= -.36728502E+03  d E =-.290415E+00  mag=    16.0000
       N       E                     dE             d eps       ncg     rms          ort
SDA:   1    -0.367243038018E+03    0.41977E-01    0.00000E+00  6804   0.149E+00 0.000E+00
CGA:   2    -0.367283752397E+03   -0.40714E-01   -0.40714E-01  6804   0.654E-01-0.499E-04
CGA:   3    -0.367295919388E+03   -0.12167E-01   -0.12113E-01  6804   0.194E-01-0.152E-03
CGA:   4    -0.367299496993E+03   -0.35776E-02   -0.35781E-02  6804   0.473E-02 0.417E-05
CGA:   5    -0.367300370023E+03   -0.87303E-03   -0.88591E-03  6804   0.139E-02 0.375E-04
CGA:   6    -0.367300669196E+03   -0.29917E-03   -0.30831E-03  6804   0.512E-03 0.318E-04
CGA:   7    -0.367300811828E+03   -0.14263E-03   -0.14073E-03  6804   0.221E-03-0.851E-05
CGA:   8    -0.367300889478E+03   -0.77650E-04   -0.71079E-04  6804   0.121E-03-0.429E-04
CGA:   9    -0.367300919695E+03   -0.30217E-04   -0.27657E-04  6804   0.392E-04-0.135E-04
CGA:  10    -0.367300925878E+03   -0.61827E-05   -0.76600E-05  6804   0.115E-04 0.605E-05
 158 F= -.36730093E+03 E0= -.36730093E+03  d E =-.159015E-01  mag=    16.0000
       N       E                     dE             d eps       ncg     rms          ort
SDA:   1    -0.367180125380E+03    0.12079E+00    0.00000E+00  6804   0.352E+00 0.000E+00
CGA:   2    -0.367269841664E+03   -0.89716E-01   -0.89746E-01  6804   0.161E+00 0.303E-04
CGA:   3    -0.367299867784E+03   -0.30026E-01   -0.29968E-01  6804   0.464E-01-0.268E-03
CGA:   4    -0.367308537446E+03   -0.86697E-02   -0.86675E-02  6804   0.115E-01 0.445E-05
CGA:   5    -0.367310661396E+03   -0.21240E-02   -0.21336E-02  6804   0.327E-02 0.415E-04
CGA:   6    -0.367311381593E+03   -0.72020E-03   -0.72660E-03  6804   0.119E-02 0.362E-04
CGA:   7    -0.367311700260E+03   -0.31867E-03   -0.31741E-03  6804   0.494E-03-0.101E-04
CGA:   8    -0.367311852817E+03   -0.15256E-03   -0.14858E-03  6804   0.231E-03-0.507E-04
CGA:   9    -0.367311914892E+03   -0.62075E-04   -0.60561E-04  6804   0.765E-04-0.177E-04
CGA:  10    -0.367311928693E+03   -0.13801E-04   -0.15826E-04  6804   0.208E-04 0.135E-04
CGA:  11    -0.367311933336E+03   -0.46425E-05   -0.54871E-05  6804   0.757E-05 0.594E-05
 159 F= -.36731193E+03 E0= -.36731193E+03  d E =-.110075E-01  mag=    16.0000
       N       E                     dE             d eps       ncg     rms          ort
SDA:   1    -0.367300941374E+03    0.10987E-01    0.00000E+00  6804   0.401E-01 0.000E+00
CGA:   2    -0.367308687521E+03   -0.77461E-02   -0.77606E-02  6804   0.171E-01 0.854E-04
CGA:   3    -0.367312208984E+03   -0.35215E-02   -0.35148E-02  6804   0.543E-02-0.518E-04
CGA:   4    -0.367313213387E+03   -0.10044E-02   -0.10024E-02  6804   0.137E-02-0.976E-05
CGA:   5    -0.367313466109E+03   -0.25272E-03   -0.25069E-03  6804   0.362E-03-0.133E-04
CGA:   6    -0.367313543387E+03   -0.77278E-04   -0.76792E-04  6804   0.125E-03-0.437E-05
CGA:   7    -0.367313571740E+03   -0.28352E-04   -0.28925E-04  6804   0.437E-04 0.674E-05
CGA:   8    -0.367313584404E+03   -0.12664E-04   -0.12708E-04  6804   0.175E-04 0.110E-05
CGA:   9    -0.367313591017E+03   -0.66129E-05   -0.70699E-05  6804   0.120E-04-0.565E-05
 160 F= -.36731359E+03 E0= -.36731359E+03  d E =-.165768E-02  mag=    16.0000
       N       E                     dE             d eps       ncg     rms          ort
SDA:   1    -0.367223579029E+03    0.90005E-01    0.00000E+00  6804   0.353E+00 0.000E+00
CGA:   2    -0.367279124343E+03   -0.55545E-01   -0.55619E-01  6804   0.114E+00 0.422E-03
CGA:   3    -0.367304759906E+03   -0.25636E-01   -0.25631E-01  6804   0.459E-01-0.128E-03
CGA:   4    -0.367313406201E+03   -0.86463E-02   -0.86321E-02  6804   0.118E-01-0.939E-04
CGA:   5    -0.367315518196E+03   -0.21120E-02   -0.21035E-02  6804   0.298E-02-0.682E-04
CGA:   6    -0.367316149005E+03   -0.63081E-03   -0.62879E-03  6804   0.956E-03-0.269E-04
CGA:   7    -0.367316368387E+03   -0.21938E-03   -0.22105E-03  6804   0.316E-03 0.344E-04
CGA:   8    -0.367316447051E+03   -0.78664E-04   -0.79833E-04  6804   0.104E-03 0.328E-04
CGA:   9    -0.367316477867E+03   -0.30816E-04   -0.30919E-04  6804   0.382E-04 0.143E-04
CGA:  10    -0.367316486697E+03   -0.88295E-05   -0.96282E-05  6804   0.145E-04 0.143E-04
 161 F= -.36731649E+03 E0= -.36731649E+03  d E =-.289568E-02  mag=    16.0000
       N       E                     dE             d eps       ncg     rms          ort
SDA:   1    -0.367299402555E+03    0.17075E-01    0.00000E+00  6804   0.732E-01 0.000E+00
CGA:   2    -0.367310172741E+03   -0.10770E-01   -0.10794E-01  6804   0.208E-01 0.194E-03
CGA:   3    -0.367314954255E+03   -0.47815E-02   -0.47800E-02  6804   0.933E-02-0.592E-04
CGA:   4    -0.367316756320E+03   -0.18021E-02   -0.17956E-02  6804   0.254E-02-0.887E-04
CGA:   5    -0.367317206580E+03   -0.45026E-03   -0.44629E-03  6804   0.633E-03-0.481E-04
CGA:   6    -0.367317337893E+03   -0.13131E-03   -0.13105E-03  6804   0.199E-03-0.616E-05
CGA:   7    -0.367317378939E+03   -0.41046E-04   -0.41969E-04  6804   0.592E-04 0.239E-04
CGA:   8    -0.367317392264E+03   -0.13325E-04   -0.13960E-04  6804   0.194E-04 0.164E-04
CGA:   9    -0.367317397171E+03   -0.49075E-05   -0.52104E-05  6804   0.822E-05 0.825E-05
 162 F= -.36731740E+03 E0= -.36731740E+03  d E =-.910475E-03  mag=    16.0000
       N       E                     dE             d eps       ncg     rms          ort
SDA:   1    -0.367284257821E+03    0.33134E-01    0.00000E+00  6804   0.140E+00 0.000E+00
CGA:   2    -0.367304471351E+03   -0.20214E-01   -0.20247E-01  6804   0.382E-01 0.328E-03
CGA:   3    -0.367313225098E+03   -0.87537E-02   -0.87534E-02  6804   0.176E-01-0.688E-04
CGA:   4    -0.367316652613E+03   -0.34275E-02   -0.34220E-02  6804   0.478E-02-0.125E-03
CGA:   5    -0.367317491192E+03   -0.83858E-03   -0.83511E-03  6804   0.117E-02-0.572E-04
CGA:   6    -0.367317735413E+03   -0.24422E-03   -0.24386E-03  6804   0.368E-03-0.179E-04
CGA:   7    -0.367317819179E+03   -0.83766E-04   -0.83757E-04  6804   0.119E-03 0.106E-04
CGA:   8    -0.367317850946E+03   -0.31767E-04   -0.31654E-04  6804   0.417E-04 0.398E-05
CGA:   9    -0.367317863541E+03   -0.12595E-04   -0.12494E-04  6804   0.163E-04 0.171E-05
CGA:  10    -0.367317867829E+03   -0.42876E-05   -0.42290E-05  6804   0.610E-05 0.406E-05
 163 F= -.36731787E+03 E0= -.36731787E+03  d E =-.470657E-03  mag=    16.0000
       N       E                     dE             d eps       ncg     rms          ort
SDA:   1    -0.367306055075E+03    0.11808E-01    0.00000E+00  6804   0.481E-01 0.000E+00
CGA:   2    -0.367313075645E+03   -0.70206E-02   -0.70423E-02  6804   0.145E-01 0.237E-03
CGA:   3    -0.367316388033E+03   -0.33124E-02   -0.33122E-02  6804   0.635E-02-0.113E-03
CGA:   4    -0.367317579134E+03   -0.11911E-02   -0.11856E-02  6804   0.161E-02-0.135E-03
CGA:   5    -0.367317858334E+03   -0.27920E-03   -0.27689E-03  6804   0.410E-03-0.455E-04
CGA:   6    -0.367317946523E+03   -0.88188E-04   -0.88120E-04  6804   0.140E-03-0.204E-04
CGA:   7    -0.367317979860E+03   -0.33337E-04   -0.33705E-04  6804   0.543E-04-0.128E-04
CGA:   8    -0.367317994460E+03   -0.14600E-04   -0.19624E-04  6804   0.515E-04-0.292E-04
CGA:   9    -0.367318002683E+03   -0.82237E-05   -0.84193E-05  6804   0.788E-05 0.274E-05
 164 F= -.36731800E+03 E0= -.36731800E+03  d E =-.134855E-03  mag=    16.0000
       N       E                     dE             d eps       ncg     rms          ort
SDA:   1    -0.367219256094E+03    0.98738E-01    0.00000E+00  6804   0.401E+00 0.000E+00
CGA:   2    -0.367277489146E+03   -0.58233E-01   -0.58340E-01  6804   0.122E+00 0.976E-03
CGA:   3    -0.367304945301E+03   -0.27456E-01   -0.27455E-01  6804   0.517E-01-0.330E-03
CGA:   4    -0.367314543942E+03   -0.95986E-02   -0.95754E-02  6804   0.125E-01-0.529E-03
CGA:   5    -0.367316721559E+03   -0.21776E-02   -0.21671E-02  6804   0.317E-02-0.201E-03
CGA:   6    -0.367317407952E+03   -0.68639E-03   -0.68576E-03  6804   0.106E-02-0.112E-03
CGA:   7    -0.367317660367E+03   -0.25241E-03   -0.25450E-03  6804   0.396E-03-0.877E-04
CGA:   8    -0.367317768510E+03   -0.10814E-03   -0.11980E-03  6804   0.225E-03-0.113E-03
CGA:   9    -0.367317816201E+03   -0.47691E-04   -0.56451E-04  6804   0.124E-03-0.736E-04
CGA:  10    -0.367317842430E+03   -0.26229E-04   -0.32189E-04  6804   0.707E-04-0.404E-04
CGA:  11    -0.367317858334E+03   -0.15904E-04   -0.18213E-04  6804   0.339E-04-0.169E-04
CGA:  12    -0.367317865777E+03   -0.74425E-05   -0.73754E-05  6804   0.122E-04 0.195E-05
 165 F= -.36731787E+03 E0= -.36731787E+03  d E =0.136907E-03  mag=    16.0000
       N       E                     dE             d eps       ncg     rms          ort
SDA:   1    -0.367309673035E+03    0.81853E-02    0.00000E+00  6804   0.315E-01 0.000E+00
CGA:   2    -0.367314824490E+03   -0.51515E-02   -0.51323E-02  6804   0.110E-01-0.196E-03
CGA:   3    -0.367317165172E+03   -0.23407E-02   -0.23435E-02  6804   0.410E-02 0.628E-04
CGA:   4    -0.367317904531E+03   -0.73936E-03   -0.74595E-03  6804   0.100E-02 0.912E-04
CGA:   5    -0.367318083571E+03   -0.17904E-03   -0.18045E-03  6804   0.251E-03 0.191E-04
CGA:   6    -0.367318141611E+03   -0.58040E-04   -0.57762E-04  6804   0.912E-04-0.126E-04
CGA:   7    -0.367318162766E+03   -0.21155E-04   -0.21146E-04  6804   0.323E-04-0.399E-05
CGA:   8    -0.367318167645E+03   -0.48785E-05   -0.55186E-05  6804   0.944E-05 0.946E-05
 166 F= -.36731817E+03 E0= -.36731817E+03  d E =-.301868E-03  mag=    16.0000
       N       E                     dE             d eps       ncg     rms          ort
SDA:   1    -0.367312033626E+03    0.61291E-02    0.00000E+00  6804   0.268E-01 0.000E+00
CGA:   2    -0.367315858123E+03   -0.38245E-02   -0.38113E-02  6804   0.707E-02-0.142E-03
CGA:   3    -0.367317409017E+03   -0.15509E-02   -0.15521E-02  6804   0.314E-02 0.945E-04
CGA:   4    -0.367318018135E+03   -0.60912E-03   -0.61273E-03  6804   0.838E-03 0.918E-04
CGA:   5    -0.367318169683E+03   -0.15155E-03   -0.15276E-03  6804   0.202E-03 0.231E-04
CGA:   6    -0.367318214650E+03   -0.44967E-04   -0.44959E-04  6804   0.657E-04-0.645E-06
CGA:   7    -0.367318230419E+03   -0.15769E-04   -0.15774E-04  6804   0.229E-04-0.394E-06
CGA:   8    -0.367318234239E+03   -0.38203E-05   -0.41485E-05  6804   0.676E-05 0.711E-05
 167 F= -.36731823E+03 E0= -.36731823E+03  d E =-.665947E-04  mag=    16.0000
