       N       E                     dE             d eps       ncg     rms          ort
DAV:   1     0.266763554961E+04    0.26676E+04   -0.13922E+05 10584   0.161E+03
DAV:   2     0.515092031785E+02   -0.26161E+04   -0.24045E+04 10584   0.415E+02
DAV:   3    -0.257252571585E+03   -0.30876E+03   -0.30388E+03 10584   0.162E+02
DAV:   4    -0.268336815297E+03   -0.11084E+02   -0.10790E+02 10584   0.307E+01
DAV:   5    -0.268800901811E+03   -0.46409E+00   -0.45966E+00 10584   0.492E+00
SDA:   6    -0.127532996087E+03    0.14127E+03   -0.45966E+00 10584   0.777E+03 0.000E+00
CGA:   7    -0.184160901155E+03   -0.56628E+02   -0.87441E+02 10584   0.436E+03 0.243E+02
CGA:   8    -0.205403478541E+03   -0.21243E+02   -0.12261E+02 10584   0.521E+03 0.216E+02
CGA:   9    -0.202246514774E+03    0.31570E+01   -0.30831E+02 10584   0.124E+03-0.123E+03
CGA:  10    -0.208022748096E+03   -0.57762E+01   -0.27525E+01 10584   0.160E+03 0.150E+03
CGA:  11    -0.217597089584E+03   -0.95743E+01   -0.55352E+01 10584   0.158E+03 0.816E+02
CGA:  12    -0.205846407952E+03    0.11751E+02   -0.93982E+01 10584   0.660E+03-0.158E+03
CGA:  13    -0.216068094101E+03   -0.10222E+02   -0.35217E+02 10584   0.149E+03-0.800E+00
CGA:  14    -0.203174702901E+03    0.12893E+02   -0.83096E+01 10584   0.625E+03-0.133E+03
CGA:  15    -0.220426209361E+03   -0.17252E+02   -0.28168E+02 10584   0.552E+02-0.444E+02
CGA:  16    -0.221060054271E+03   -0.63384E+00   -0.15383E+01 10584   0.142E+03-0.764E+02
CGA:  17    -0.211868784559E+03    0.91913E+01   -0.62263E+01 10584   0.111E+04-0.254E+03
CGA:  18    -0.218319665331E+03   -0.64509E+01   -0.72449E+02 10584   0.877E+02-0.419E+02
CGA:  19    -0.217806776582E+03    0.51289E+00   -0.30550E+01 10584   0.210E+03-0.717E+02
CGA:  20    -0.203930484063E+03    0.13876E+02   -0.10803E+02 10584   0.307E+03-0.218E+02
CGA:  21    -0.219598422585E+03   -0.15668E+02   -0.67283E+01 10584   0.480E+03-0.160E+03
CGA:  22    -0.223659324666E+03   -0.40609E+01   -0.28174E+02 10584   0.644E+02-0.142E+02
CGA:  23    -0.222892586379E+03    0.76674E+00   -0.15525E+01 10584   0.271E+03-0.673E+02
CGA:  24    -0.215601396269E+03    0.72912E+01   -0.13160E+02 10584   0.399E+03-0.570E+02
CGA:  25    -0.222300860876E+03   -0.66995E+01   -0.18497E+02 10584   0.157E+03 0.141E+01
CGA:  26    -0.222144822134E+03    0.15604E+00   -0.70714E+01 10584   0.827E+02-0.459E+02
CGA:  27    -0.225192866717E+03   -0.30480E+01   -0.11344E+01 10584   0.115E+03 0.124E+03
CGA:  28    -0.222960575139E+03    0.22323E+01   -0.29118E+01 10584   0.343E+03-0.251E+03
CGA:  29    -0.220380603695E+03    0.25800E+01   -0.14074E+02 10584   0.929E+02-0.665E+02
CGA:  30    -0.227498481446E+03   -0.71179E+01   -0.21266E+01 10584   0.212E+02 0.259E+02
CGA:  31    -0.227555098629E+03   -0.56617E-01   -0.24293E+00 10584   0.370E+02-0.285E+02
CGA:  32    -0.227699610534E+03   -0.14451E+00   -0.70129E+00 10584   0.419E+02-0.331E+02
CGA:  33    -0.227943814273E+03   -0.24420E+00   -0.56462E+00 10584   0.224E+02-0.319E+02
CGA:  34    -0.227972570994E+03   -0.28757E-01   -0.35018E+00 10584   0.202E+02-0.189E+02
CGA:  35    -0.228134216826E+03   -0.16165E+00   -0.20909E+00 10584   0.275E+01-0.588E+01
CGA:  36    -0.228178814524E+03   -0.44598E-01   -0.47146E-01 10584   0.179E+01-0.831E-01
CGA:  37    -0.228249049616E+03   -0.70235E-01   -0.69267E-01 10584   0.398E+01-0.755E-03
CGA:  38    -0.228543497179E+03   -0.29445E+00   -0.28861E+00 10584   0.486E+01 0.643E+00
CGA:  39    -0.228625326909E+03   -0.81830E-01   -0.15597E+00 10584   0.440E+01-0.165E+01
CGA:  40    -0.228711705851E+03   -0.86379E-01   -0.10723E+00 10584   0.220E+00-0.105E+00
CGA:  41    -0.228744217735E+03   -0.32512E-01   -0.32429E-01 10584   0.559E+00 0.184E-02
CGA:  42    -0.228774258028E+03   -0.30040E-01   -0.30858E-01 10584   0.215E+00 0.177E-01
CGA:  43    -0.228782304237E+03   -0.80462E-02   -0.84985E-02 10584   0.743E-01-0.361E-02
CGA:  44    -0.228797449507E+03   -0.15145E-01   -0.16987E-01 10584   0.308E+00-0.163E-01
CGA:  45    -0.228807117483E+03   -0.96680E-02   -0.10754E-01 10584   0.104E+00-0.219E-02
CGA:  46    -0.228811661694E+03   -0.45442E-02   -0.48717E-02 10584   0.120E+00-0.418E-03
CGA:  47    -0.228822866609E+03   -0.11205E-01   -0.16868E-01 10584   0.227E+00-0.899E-01
CGA:  48    -0.228828658505E+03   -0.57919E-02   -0.60230E-02 10584   0.340E-01-0.655E-02
CGA:  49    -0.228833466879E+03   -0.48084E-02   -0.48980E-02 10584   0.550E-01-0.128E-02
CGA:  50    -0.228837629328E+03   -0.41624E-02   -0.41614E-02 10584   0.363E-01 0.223E-03
CGA:  51    -0.228839592640E+03   -0.19633E-02   -0.19222E-02 10584   0.171E-01-0.104E-03
CGA:  52    -0.228841894606E+03   -0.23020E-02   -0.22273E-02 10584   0.307E-01 0.122E-02
CGA:  53    -0.228843475589E+03   -0.15810E-02   -0.14856E-02 10584   0.843E-02 0.691E-03
CGA:  54    -0.228844427696E+03   -0.95211E-03   -0.92729E-03 10584   0.134E-01 0.621E-03
CGA:  55    -0.228845682662E+03   -0.12550E-02   -0.13155E-02 10584   0.334E-01-0.297E-02
CGA:  56    -0.228846804471E+03   -0.11218E-02   -0.99979E-03 10584   0.366E-01 0.233E-02
CGA:  57    -0.228847611824E+03   -0.80735E-03   -0.86928E-03 10584   0.407E-02-0.152E-02
CGA:  58    -0.228847794210E+03   -0.18239E-03   -0.18448E-03 10584   0.698E-02 0.708E-06
CGA:  59    -0.228848397724E+03   -0.60351E-03   -0.62114E-03 10584   0.900E-02-0.763E-03
CGA:  60    -0.228848668326E+03   -0.27060E-03   -0.25484E-03 10584   0.591E-02 0.337E-03
CGA:  61    -0.228848864233E+03   -0.19591E-03   -0.19773E-03 10584   0.306E-02-0.132E-04
CGA:  62    -0.228848952567E+03   -0.88334E-04   -0.87913E-04 10584   0.209E-02 0.212E-04
CGA:  63    -0.228849128990E+03   -0.17642E-03   -0.17954E-03 10584   0.930E-02-0.122E-03
CGA:  64    -0.228849455524E+03   -0.32653E-03   -0.28327E-03 10584   0.117E-01 0.943E-03
CGA:  65    -0.228849681415E+03   -0.22589E-03   -0.23172E-03 10584   0.357E-02-0.276E-04
CGA:  66    -0.228849744531E+03   -0.63116E-04   -0.67647E-04 10584   0.207E-02-0.165E-03
CGA:  67    -0.228849821809E+03   -0.77278E-04   -0.78722E-04 10584   0.366E-02 0.512E-05
CGA:  68    -0.228849957986E+03   -0.13618E-03   -0.12936E-03 10584   0.442E-02 0.742E-04
CGA:  69    -0.228850071070E+03   -0.11308E-03   -0.10525E-03 10584   0.332E-02 0.239E-03
CGA:  70    -0.228850144281E+03   -0.73210E-04   -0.74446E-04 10584   0.245E-02-0.358E-04
CGA:  71    -0.228850209703E+03   -0.65422E-04   -0.68110E-04 10584   0.261E-02-0.492E-04
CGA:  72    -0.228850271804E+03   -0.62101E-04   -0.61610E-04 10584   0.183E-02 0.372E-05
CGA:  73    -0.228850323649E+03   -0.51845E-04   -0.50170E-04 10584   0.232E-02 0.168E-04
CGA:  74    -0.228850404203E+03   -0.80555E-04   -0.78879E-04 10584   0.330E-02-0.132E-04
CGA:  75    -0.228850477485E+03   -0.73281E-04   -0.76067E-04 10584   0.233E-02-0.976E-04
CGA:  76    -0.228850526330E+03   -0.48845E-04   -0.50729E-04 10584   0.147E-02-0.724E-04
CGA:  77    -0.228850560876E+03   -0.34547E-04   -0.34077E-04 10584   0.122E-02-0.570E-05
SDA:  78    -0.228850604741E+03   -0.43865E-04   -0.43341E-04 10584   0.197E-02-0.195E-04
CGA:  79    -0.228850645990E+03   -0.41249E-04   -0.41202E-04 10584   0.466E-03 0.239E-05
CGA:  80    -0.228850829116E+03   -0.18313E-03   -0.46983E-04 10584   0.147E-02 0.153E-03
CGA:  81    -0.228850903806E+03   -0.74690E-04   -0.74867E-04 10584   0.623E-03-0.184E-05
CGA:  82    -0.228850956333E+03   -0.52527E-04   -0.52540E-04 10584   0.662E-03-0.220E-05
CGA:  83    -0.228850996939E+03   -0.40606E-04   -0.40635E-04 10584   0.449E-03-0.974E-06
CGA:  84    -0.228851023812E+03   -0.26873E-04   -0.26679E-04 10584   0.314E-03-0.349E-05
CGA:  85    -0.228851039961E+03   -0.16149E-04   -0.16099E-04 10584   0.230E-03-0.172E-05
CGA:  86    -0.228851051706E+03   -0.11745E-04   -0.11562E-04 10584   0.188E-03-0.172E-05
CGA:  87    -0.228851061641E+03   -0.99343E-05   -0.98793E-05 10584   0.107E-03-0.164E-05
   1 F= -.22885106E+03 E0= -.22884637E+03  d E =-.228851E+03  mag=    18.0000
