 vasp.6.1.2 22Jul20 (build Dec 05 2020 14:50:36) complex                        
  
 executed on         CrayXC-Intel date 2021.06.18  16:26:43
 running on   24 total cores
 distrk:  each k-point on   24 cores,    1 groups
 distr:  one band on NCORE=   4 cores,    6 groups


--------------------------------------------------------------------------------------------------------


 INCAR:
 POTCAR:    PAW_PBE Ca_sv 06Sep2000               
 POTCAR:    PAW_PBE V_pv 07Sep2000                
 POTCAR:    PAW_PBE Si 05Jan2001                  
 POTCAR:    PAW_PBE O 08Apr2002                   
 POTCAR:    PAW_PBE Ca_sv 06Sep2000               
   VRHFIN =Ca: 3s3p4s                                                                               
   LEXCH  = PE                                                                                      
   EATOM  =  1006.0909 eV,   73.9456 Ry                                                             
                                                                                                    
   TITEL  = PAW_PBE Ca_sv 06Sep2000                                                                 
   LULTRA =        F    use ultrasoft PP ?                                                          
   IUNSCR =        1    unscreen: 0-lin 1-nonlin 2-no                                               
   RPACOR =    2.000    partial core radius                                                         
   POMASS =   40.078; ZVAL   =   10.000    mass and valenz                                          
   RCORE  =    2.300    outmost cutoff radius                                                       
   RWIGS  =    2.500; RWIGS  =    1.323    wigner-seitz radius (au A)                               
   ENMAX  =  266.622; ENMIN  =  199.967 eV                                                          
   RCLOC  =    1.808    cutoff for local pot                                                        
   LCOR   =        T    correct aug charges                                                         
   LPAW   =        T    paw PP                                                                      
   EAUG   =  420.852                                                                                
   RMAX   =    2.359    core radius for proj-oper                                                   
   RAUG   =    1.300    factor for augmentation sphere                                              
   RDEP   =    2.392    radius for radial grids                                                     
   RDEPT  =    1.987    core radius for aug-charge                                                  
                                                                                                    
   Atomic configuration                                                                             
    7 entries                                                                                       
     n  l   j            E        occ.                                                              
     1  0  0.50     -3949.1705   2.0000                                                             
     2  0  0.50      -414.3434   2.0000                                                             
     2  1  1.50      -334.7047   6.0000                                                             
     3  0  0.50       -47.0896   2.0000                                                             
     4  0  0.50        -3.7663   2.0000                                                             
     3  1  1.50       -28.0061   6.0000                                                             
     3  2  1.50        -4.0817   0.0000                                                             
   Description                                                                                      
     l       E           TYP  RCUT    TYP  RCUT                                                     
     0    -47.0896403     23  2.300                                                                 
     0     -3.7663320     23  2.300                                                                 
     1    -28.0060855     23  2.300                                                                 
     1      6.8029130     23  2.300                                                                 
     2     -4.0817478     23  2.300                                                                 
     2      0.4464412     23  2.300                                                                 
  local pseudopotential read in
  partial core-charges read in
  partial kinetic energy density read in
  atomic valenz-charges read in
  non local Contribution for L=           0  read in
    real space projection operators read in
  non local Contribution for L=           0  read in
    real space projection operators read in
  non local Contribution for L=           1  read in
    real space projection operators read in
  non local Contribution for L=           1  read in
    real space projection operators read in
  non local Contribution for L=           2  read in
    real space projection operators read in
  non local Contribution for L=           2  read in
    real space projection operators read in
    PAW grid and wavefunctions read in
 
   number of l-projection  operators is LMAX  =           6
   number of lm-projection operators is LMMAX =          18
 
 POTCAR:    PAW_PBE V_pv 07Sep2000                
   VRHFIN =V: p6 d4 s1                                                                              
   LEXCH  = PE                                                                                      
   EATOM  =  1321.6206 eV,   97.1364 Ry                                                             
                                                                                                    
   TITEL  = PAW_PBE V_pv 07Sep2000                                                                  
   LULTRA =        F    use ultrasoft PP ?                                                          
   IUNSCR =        1    unscreen: 0-lin 1-nonlin 2-no                                               
   RPACOR =    1.700    partial core radius                                                         
   POMASS =   50.941; ZVAL   =   11.000    mass and valenz                                          
   RCORE  =    2.300    outmost cutoff radius                                                       
   RWIGS  =    2.300; RWIGS  =    1.217    wigner-seitz radius (au A)                               
   ENMAX  =  263.673; ENMIN  =  197.755 eV                                                          
   RCLOC  =    1.779    cutoff for local pot                                                        
   LCOR   =        T    correct aug charges                                                         
   LPAW   =        T    paw PP                                                                      
   EAUG   =  598.473                                                                                
   DEXC   =    0.000                                                                                
   RMAX   =    2.359    core radius for proj-oper                                                   
   RAUG   =    1.300    factor for augmentation sphere                                              
   RDEP   =    2.430    radius for radial grids                                                     
   RDEPT  =    1.700    core radius for aug-charge                                                  
                                                                                                    
   Atomic configuration                                                                             
    8 entries                                                                                       
     n  l   j            E        occ.                                                              
     1  0  0.50     -5360.7193   2.0000                                                             
     2  0  0.50      -598.4546   2.0000                                                             
     2  1  1.50      -499.0155   6.0000                                                             
     3  0  0.50       -66.5711   2.0000                                                             
     3  1  1.50       -40.5282   6.0000                                                             
     3  2  2.50        -2.4291   4.0000                                                             
     4  0  0.50        -3.8743   1.0000                                                             
     4  3  2.50        -1.3606   0.0000                                                             
   Description                                                                                      
     l       E           TYP  RCUT    TYP  RCUT                                                     
     1    -40.5282431     23  2.000                                                                 
     1      5.4423304     23  2.000                                                                 
     2     -2.4290905     23  2.300                                                                 
     2     -1.0472488     23  2.300                                                                 
     0     -3.8742754     23  2.300                                                                 
     0     27.2116520     23  2.300                                                                 
  local pseudopotential read in
  partial core-charges read in
  partial kinetic energy density read in
  atomic valenz-charges read in
  non local Contribution for L=           1  read in
    real space projection operators read in
  non local Contribution for L=           1  read in
    real space projection operators read in
  non local Contribution for L=           2  read in
    real space projection operators read in
  non local Contribution for L=           2  read in
    real space projection operators read in
  non local Contribution for L=           0  read in
    real space projection operators read in
  non local Contribution for L=           0  read in
    real space projection operators read in
    PAW grid and wavefunctions read in
 
   number of l-projection  operators is LMAX  =           6
   number of lm-projection operators is LMMAX =          18
 
 POTCAR:    PAW_PBE Si 05Jan2001                  
   VRHFIN =Si: s2p2                                                                                 
   LEXCH  = PE                                                                                      
   EATOM  =   103.0669 eV,    7.5752 Ry                                                             
                                                                                                    
   TITEL  = PAW_PBE Si 05Jan2001                                                                    
   LULTRA =        F    use ultrasoft PP ?                                                          
   IUNSCR =        1    unscreen: 0-lin 1-nonlin 2-no                                               
   RPACOR =    1.500    partial core radius                                                         
   POMASS =   28.085; ZVAL   =    4.000    mass and valenz                                          
   RCORE  =    1.900    outmost cutoff radius                                                       
   RWIGS  =    2.480; RWIGS  =    1.312    wigner-seitz radius (au A)                               
   ENMAX  =  245.345; ENMIN  =  184.009 eV                                                          
   ICORE  =        2    local potential                                                             
   LCOR   =        T    correct aug charges                                                         
   LPAW   =        T    paw PP                                                                      
   EAUG   =  322.069                                                                                
   DEXC   =    0.000                                                                                
   RMAX   =    1.950    core radius for proj-oper                                                   
   RAUG   =    1.300    factor for augmentation sphere                                              
   RDEP   =    1.993    radius for radial grids                                                     
   RDEPT  =    1.837    core radius for aug-charge                                                  
                                                                                                    
   Atomic configuration                                                                             
    6 entries                                                                                       
     n  l   j            E        occ.                                                              
     1  0  0.50     -1785.8828   2.0000                                                             
     2  0  0.50      -139.4969   2.0000                                                             
     2  1  1.50       -95.5546   6.0000                                                             
     3  0  0.50       -10.8127   2.0000                                                             
     3  1  0.50        -4.0811   2.0000                                                             
     3  2  1.50        -4.0817   0.0000                                                             
   Description                                                                                      
     l       E           TYP  RCUT    TYP  RCUT                                                     
     0    -10.8127223     23  1.900                                                                 
     0     -7.6451159     23  1.900                                                                 
     1     -4.0811372     23  1.900                                                                 
     1      2.4879257     23  1.900                                                                 
     2     -4.0817478      7  1.900                                                                 
  local pseudopotential read in
  partial core-charges read in
  partial kinetic energy density read in
  atomic valenz-charges read in
  non local Contribution for L=           0  read in
    real space projection operators read in
  non local Contribution for L=           0  read in
    real space projection operators read in
  non local Contribution for L=           1  read in
    real space projection operators read in
  non local Contribution for L=           1  read in
    real space projection operators read in
    PAW grid and wavefunctions read in
 
   number of l-projection  operators is LMAX  =           4
   number of lm-projection operators is LMMAX =           8
 
 POTCAR:    PAW_PBE O 08Apr2002                   
   VRHFIN =O: s2p4                                                                                  
   LEXCH  = PE                                                                                      
   EATOM  =   432.3788 eV,   31.7789 Ry                                                             
                                                                                                    
   TITEL  = PAW_PBE O 08Apr2002                                                                     
   LULTRA =        F    use ultrasoft PP ?                                                          
   IUNSCR =        1    unscreen: 0-lin 1-nonlin 2-no                                               
   RPACOR =    1.200    partial core radius                                                         
   POMASS =   16.000; ZVAL   =    6.000    mass and valenz                                          
   RCORE  =    1.520    outmost cutoff radius                                                       
   RWIGS  =    1.550; RWIGS  =    0.820    wigner-seitz radius (au A)                               
   ENMAX  =  400.000; ENMIN  =  300.000 eV                                                          
   ICORE  =        2    local potential                                                             
   LCOR   =        T    correct aug charges                                                         
   LPAW   =        T    paw PP                                                                      
   EAUG   =  605.392                                                                                
   DEXC   =    0.000                                                                                
   RMAX   =    1.553    core radius for proj-oper                                                   
   RAUG   =    1.300    factor for augmentation sphere                                              
   RDEP   =    1.550    radius for radial grids                                                     
   RDEPT  =    1.329    core radius for aug-charge                                                  
                                                                                                    
   Atomic configuration                                                                             
    4 entries                                                                                       
     n  l   j            E        occ.                                                              
     1  0  0.50      -514.6923   2.0000                                                             
     2  0  0.50       -23.9615   2.0000                                                             
     2  1  0.50        -9.0305   4.0000                                                             
     3  2  1.50        -9.5241   0.0000                                                             
   Description                                                                                      
     l       E           TYP  RCUT    TYP  RCUT                                                     
     0    -23.9615318     23  1.200                                                                 
     0     -9.5240782     23  1.200                                                                 
     1     -9.0304911     23  1.520                                                                 
     1      8.1634956     23  1.520                                                                 
     2     -9.5240782      7  1.500                                                                 
  local pseudopotential read in
  partial core-charges read in
  partial kinetic energy density read in
  kinetic energy density of atom read in
  atomic valenz-charges read in
  non local Contribution for L=           0  read in
    real space projection operators read in
  non local Contribution for L=           0  read in
    real space projection operators read in
  non local Contribution for L=           1  read in
    real space projection operators read in
  non local Contribution for L=           1  read in
    real space projection operators read in
    PAW grid and wavefunctions read in
 
   number of l-projection  operators is LMAX  =           4
   number of lm-projection operators is LMMAX =           8
 
 Optimization of the real space projectors (new method)

 maximal supplied QI-value         = 16.25
 optimisation between [QCUT,QGAM] = [ 11.54, 23.24] = [ 37.28,151.24] Ry 
 Optimized for a Real-space Cutoff    1.58 Angstroem

   l    n(q)    QCUT    max X(q) W(low)/X(q) W(high)/X(q)  e(spline) 
   0     11    11.539    11.817    0.25E-04    0.22E-05    0.26E-07
   0     11    11.539     8.461    0.39E-04    0.49E-05    0.55E-07
   1     11    11.539     3.957    0.21E-05    0.44E-05    0.32E-07
   1     11    11.539     4.314    0.56E-04    0.44E-04    0.19E-06
   2     10    11.539    14.565    0.25E-03    0.21E-04    0.75E-06
   2     10    11.539    14.552    0.23E-03    0.22E-04    0.72E-06
 Optimization of the real space projectors (new method)

 maximal supplied QI-value         = 16.25
 optimisation between [QCUT,QGAM] = [ 11.54, 23.24] = [ 37.28,151.24] Ry 
 Optimized for a Real-space Cutoff    1.53 Angstroem

   l    n(q)    QCUT    max X(q) W(low)/X(q) W(high)/X(q)  e(spline) 
   1     10    11.539     3.206    0.43E-05    0.46E-05    0.52E-07
   1     10    11.539     4.597    0.39E-04    0.25E-04    0.17E-06
   2     10    11.539    89.000    0.10E-03    0.13E-03    0.24E-06
   2     10    11.539    82.410    0.10E-03    0.13E-03    0.23E-06
   0     11    11.539    36.565    0.42E-04    0.19E-04    0.30E-06
   0     11    11.539    13.729    0.20E-04    0.13E-04    0.22E-06
 Optimization of the real space projectors (new method)

 maximal supplied QI-value         = 19.84
 optimisation between [QCUT,QGAM] = [ 11.51, 23.22] = [ 37.09,150.92] Ry 
 Optimized for a Real-space Cutoff    1.21 Angstroem

   l    n(q)    QCUT    max X(q) W(low)/X(q) W(high)/X(q)  e(spline) 
   0      8    11.508   159.560    0.71E-04    0.15E-03    0.51E-07
   0      8    11.508   115.863    0.70E-04    0.15E-03    0.51E-07
   1      8    11.508    88.339    0.16E-03    0.38E-04    0.82E-07
   1      8    11.508    48.592    0.15E-03    0.36E-04    0.79E-07
 Optimization of the real space projectors (new method)

 maximal supplied QI-value         = 24.76
 optimisation between [QCUT,QGAM] = [ 11.64, 23.27] = [ 37.91,151.63] Ry 
 Optimized for a Real-space Cutoff    1.14 Angstroem

   l    n(q)    QCUT    max X(q) W(low)/X(q) W(high)/X(q)  e(spline) 
   0      8    11.635    20.381    0.10E-03    0.33E-03    0.24E-06
   0      8    11.635    15.268    0.11E-03    0.35E-03    0.26E-06
   1      7    11.635     5.964    0.24E-03    0.31E-03    0.30E-06
   1      7    11.635     5.382    0.22E-03    0.25E-03    0.26E-06
  PAW_PBE Ca_sv 06Sep2000               :
 energy of atom  1       EATOM=-1006.0909
 kinetic energy error for atom=    0.0022 (will be added to EATOM!!)
  PAW_PBE V_pv 07Sep2000                :
 energy of atom  2       EATOM=-1321.6206
 kinetic energy error for atom=    0.0054 (will be added to EATOM!!)
  PAW_PBE Si 05Jan2001                  :
 energy of atom  3       EATOM= -103.0669
 kinetic energy error for atom=    0.0005 (will be added to EATOM!!)
  PAW_PBE O 08Apr2002                   :
 energy of atom  4       EATOM= -432.3788
 kinetic energy error for atom=    0.0208 (will be added to EATOM!!)
 
 
 POSCAR: Ca12 V8 Si12 O48
  positions in direct lattice
  velocities in cartesian coordinates

 METAGGA = SCAN     LMAXTAU =  6    LMIXTAU =  F

 exchange correlation table for  LEXCH =        8
   RHO(1)=    0.500       N(1)  =     2000
   RHO(2)=  100.500       N(2)  =     4000
 


--------------------------------------------------------------------------------------------------------


 ion  position               nearest neighbor table
   1  0.750  0.625  0.374-  62 2.37  46 2.37  45 2.37  61 2.38  65 2.48  49 2.49  68 2.51  52 2.52
                            21 3.02  28 3.03
   2  0.249  0.875  0.125-  64 2.35  48 2.37  47 2.38  63 2.38  51 2.50  50 2.50  67 2.50  66 2.54
                            22 3.02  27 3.03
   3  0.125  0.750  0.375-  58 2.35  49 2.36  57 2.38  50 2.38  64 2.49  53 2.49  56 2.51  61 2.53
                            23 3.02  30 3.02
   4  0.376  0.250  0.125-  52 2.35  51 2.37  60 2.37  59 2.38  55 2.50  63 2.50  62 2.51  54 2.53
                            29 3.01  24 3.03
   5  0.375  0.625  0.250-  65 2.35  53 2.35  54 2.37  66 2.38  60 2.51  57 2.51  48 2.52  45 2.52
                            32 3.01  25 3.01
   6  0.126  0.874  0.750-  55 2.35  67 2.35  68 2.37  56 2.38  58 2.47  46 2.51  47 2.52  59 2.55
                            31 3.01  26 3.02
   7  0.250  0.375  0.626-  74 2.37  34 2.37  33 2.37  73 2.38  77 2.48  37 2.49  80 2.51  40 2.51
                            27 3.02  22 3.03
   8  0.751  0.125  0.875-  76 2.35  36 2.38  35 2.38  75 2.38  39 2.50  38 2.50  79 2.50  78 2.54
                            28 3.02  21 3.03
   9  0.875  0.250  0.625-  70 2.35  37 2.36  69 2.38  38 2.38  76 2.49  41 2.49  44 2.51  73 2.53
                            29 3.02  24 3.02
  10  0.624  0.750  0.875-  40 2.35  39 2.37  72 2.37  71 2.38  43 2.50  75 2.50  74 2.51  42 2.53
                            23 3.01  30 3.03
  11  0.625  0.375  0.750-  77 2.35  41 2.35  42 2.37  78 2.38  72 2.51  69 2.51  36 2.52  33 2.52
                            26 3.01  31 3.01
  12  0.874  0.126  0.250-  43 2.35  79 2.35  80 2.37  44 2.38  70 2.47  34 2.51  35 2.52  71 2.55
                            25 3.01  32 3.02
  13  1.000  1.000  0.500-  44 2.00  56 2.00  34 2.02  46 2.02  49 2.06  37 2.06
  14  0.500  0.500  0.500-  54 2.01  42 2.01  45 2.02  33 2.02  40 2.07  52 2.07
  15  1.000  0.500  0.000-  50 2.00  38 2.00  36 2.02  48 2.02  41 2.06  53 2.06
  16  0.500  1.000  0.000-  47 2.00  35 2.00  51 2.01  39 2.01  55 2.07  43 2.07
  17  1.000  0.500  0.500-  68 2.01  80 2.01  61 2.01  73 2.02  70 2.06  58 2.06
  18  0.500  1.000  0.500-  69 2.01  57 2.01  66 2.01  78 2.01  76 2.07  64 2.07
  19  0.500  0.500  0.000-  60 2.01  72 2.02  74 2.02  62 2.02  65 2.05  77 2.05
  20  1.000  0.000  0.000-  71 2.01  59 2.01  63 2.01  75 2.01  79 2.07  67 2.07
  21  0.749  0.374  0.124-  62 1.64  61 1.64  35 1.64  36 1.64   1 3.02   8 3.03
  22  0.249  0.125  0.374-  64 1.63  34 1.65  33 1.65  63 1.65   2 3.02   7 3.03
  23  0.376  0.752  0.626-  40 1.64  58 1.64  57 1.65  39 1.65  10 3.01   3 3.02
  24  0.125  0.252  0.877-  37 1.63  59 1.65  38 1.65  60 1.65   9 3.02   4 3.03
  25  0.627  0.875  0.251-  43 1.64  65 1.64  44 1.65  66 1.65   5 3.01  12 3.01
  26  0.875  0.623  0.748-  41 1.64  67 1.64  68 1.65  42 1.65  11 3.01   6 3.02
  27  0.251  0.626  0.876-  74 1.64  73 1.64  47 1.64  48 1.64   7 3.02   2 3.03
  28  0.751  0.875  0.626-  76 1.63  46 1.65  45 1.65  75 1.65   8 3.02   1 3.03
  29  0.624  0.248  0.374-  52 1.64  70 1.64  69 1.65  51 1.65   4 3.01   9 3.02
  30  0.875  0.748  0.123-  49 1.63  71 1.65  50 1.65  72 1.65   3 3.02  10 3.03
  31  0.373  0.125  0.749-  55 1.64  77 1.64  56 1.65  78 1.65  11 3.01   6 3.01
  32  0.125  0.377  0.252-  53 1.64  79 1.64  80 1.65  54 1.65   5 3.01  12 3.02
  33  0.392  0.305  0.507-  22 1.65  14 2.02   7 2.37  11 2.52
  34  0.106  0.116  0.411-  22 1.65  13 2.02   7 2.37  12 2.51
  35  0.701  0.194  0.087-  21 1.64  16 2.00   8 2.38  12 2.52
  36  0.797  0.384  0.992-  21 1.64  15 2.02   8 2.38  11 2.52
  37  0.089  0.208  0.698-  24 1.63  13 2.06   9 2.36   7 2.49
  38  0.993  0.299  0.887-  24 1.65  15 2.00   9 2.38   8 2.50
  39  0.510  0.896  0.807-  23 1.65  16 2.01  10 2.37   8 2.50
  40  0.411  0.610  0.619-  23 1.64  14 2.07  10 2.35   7 2.51
  41  0.881  0.488  0.791-  26 1.64  15 2.06  11 2.35   9 2.49
  42  0.694  0.587  0.701-  26 1.65  14 2.01  11 2.37  10 2.53
  43  0.618  0.911  0.109-  25 1.64  16 2.07  12 2.35  10 2.50
  44  0.807  0.008  0.395-  25 1.65  13 2.00  12 2.38   9 2.51
  45  0.608  0.695  0.493-  28 1.65  14 2.02   1 2.37   5 2.52
  46  0.894  0.884  0.588-  28 1.65  13 2.02   1 2.37   6 2.51
  47  0.299  0.806  0.913-  27 1.64  16 2.00   2 2.38   6 2.52
  48  0.203  0.616  0.008-  27 1.64  15 2.02   2 2.37   5 2.52
  49  0.911  0.792  0.302-  30 1.63  13 2.06   3 2.36   1 2.49
  50  0.007  0.701  0.113-  30 1.65  15 2.00   3 2.38   2 2.50
  51  0.490  0.104  0.193-  29 1.65  16 2.01   4 2.37   2 2.50
  52  0.589  0.390  0.381-  29 1.64  14 2.07   4 2.35   1 2.52
  53  0.119  0.512  0.209-  32 1.64  15 2.06   5 2.35   3 2.49
  54  0.306  0.413  0.299-  32 1.65  14 2.01   5 2.37   4 2.53
  55  0.382  0.089  0.891-  31 1.64  16 2.07   6 2.35   4 2.50
  56  0.193  0.992  0.605-  31 1.65  13 2.00   6 2.38   3 2.51
  57  0.387  0.798  0.493-  23 1.65  18 2.01   3 2.38   5 2.51
  58  0.197  0.709  0.590-  23 1.64  17 2.06   3 2.35   6 2.47
  59  0.114  0.109  0.913-  24 1.65  20 2.01   4 2.38   6 2.55
  60  0.306  0.394  0.010-  24 1.65  19 2.01   4 2.37   5 2.51
  61  0.892  0.506  0.305-  21 1.64  17 2.01   1 2.38   3 2.53
  62  0.607  0.413  0.115-  21 1.64  19 2.02   1 2.37   4 2.51
  63  0.203  0.089  0.194-  22 1.65  20 2.01   2 2.38   4 2.50
  64  0.291  0.990  0.381-  22 1.63  18 2.07   2 2.35   3 2.49
  65  0.589  0.696  0.208-  25 1.64  19 2.05   5 2.35   1 2.48
  66  0.493  0.886  0.299-  25 1.65  18 2.01   5 2.38   2 2.54
  67  0.009  0.801  0.890-  26 1.64  20 2.07   6 2.35   2 2.50
  68  0.912  0.614  0.604-  26 1.65  17 2.01   6 2.37   1 2.51
  69  0.613  0.202  0.507-  29 1.65  18 2.01   9 2.38  11 2.51
  70  0.803  0.291  0.410-  29 1.64  17 2.06   9 2.35  12 2.47
  71  0.886  0.891  0.087-  30 1.65  20 2.01  10 2.38  12 2.55
  72  0.694  0.606  0.990-  30 1.65  19 2.02  10 2.37  11 2.51
  73  0.108  0.494  0.695-  27 1.64  17 2.02   7 2.38   9 2.53
  74  0.393  0.587  0.885-  27 1.64  19 2.02   7 2.37  10 2.51
  75  0.797  0.911  0.806-  28 1.65  20 2.01   8 2.38  10 2.50
  76  0.709  0.010  0.619-  28 1.63  18 2.07   8 2.35   9 2.49
  77  0.411  0.304  0.793-  31 1.64  19 2.05  11 2.35   7 2.48
  78  0.507  0.114  0.702-  31 1.65  18 2.01  11 2.38   8 2.54
  79  0.991  0.199  0.110-  32 1.64  20 2.07  12 2.35   8 2.50
  80  0.088  0.386  0.396-  32 1.65  17 2.01  12 2.37   7 2.51
 

IMPORTANT INFORMATION: All symmetrisations will be switched off!
NOSYMM: (Re-)initialisation of all symmetry stuff for point group C_1.


----------------------------------------------------------------------------------------

                                     Primitive cell                                     

  volume of cell :     881.3903

  direct lattice vectors                    reciprocal lattice vectors
     6.011973734  6.044792649  6.044832281     0.083014339  0.082806976  0.000061040
     6.045307982 -6.055974868 -6.066185892     0.082791447  0.000188523 -0.082529930
    -6.023479112  6.043007002 -6.028761981    -0.000069757  0.082838013 -0.082768092

  length of vectors
    10.450997257 10.489003360 10.447306124     0.117253483  0.116900165  0.117101231

  position of ions in fractional coordinates (direct lattice)
     0.749766302  0.625373000  0.374005626
     0.248548361  0.874954956  0.124851500
     0.125318496  0.750492305  0.375169696
     0.376038785  0.249660878  0.125183987
     0.375021438  0.625222118  0.250374021
     0.125697957  0.874085482  0.749615999
     0.250222227  0.374627290  0.625994210
     0.751448101  0.125037000  0.875145071
     0.874700450  0.249533616  0.624844888
     0.623962254  0.750336372  0.874804330
     0.624943566  0.374773762  0.749601695
     0.874294135  0.125924012  0.250375644
     0.999987643  0.999999162  0.499994110
     0.499986917  0.499996902  0.499989457
     0.999978723  0.500000140  0.000003921
     0.499991582  0.999992156  0.000001429
     0.999985695  0.500007782  0.499996116
     0.499999812  0.999999366  0.500004355
     0.499988453  0.499995609  0.000001211
     0.999999804  0.000002712  0.000007619
     0.748988951  0.374112996  0.124471380
     0.248626359  0.124675583  0.373781354
     0.375821769  0.752053825  0.626323458
     0.125350674  0.251629844  0.876520674
     0.626661626  0.874567648  0.251443278
     0.874503285  0.622971928  0.747627530
     0.251042206  0.625901383  0.875554598
     0.751356615  0.875324097  0.626208861
     0.624172772  0.247935418  0.373665529
     0.874644962  0.748371945  0.123471786
     0.373338343  0.125419743  0.748554876
     0.125493434  0.377020645  0.252379418
     0.391881515  0.304739571  0.507016945
     0.105925650  0.116286691  0.411498259
     0.700990587  0.194276637  0.086568041
     0.796610696  0.384032870  0.991539767
     0.089253958  0.207741141  0.698472849
     0.992736603  0.299204234  0.887200952
     0.510470451  0.895580948  0.806664656
     0.410887034  0.609759284  0.618765870
     0.881199489  0.488377714  0.791228492
     0.693972458  0.587039431  0.701370750
     0.618485995  0.910615027  0.109021040
     0.807156992  0.008287539  0.394963275
     0.608103740  0.695252640  0.492966198
     0.894059321  0.883706878  0.588493406
     0.299059638  0.805758834  0.913460844
     0.203437782  0.615996048  0.008490441
     0.910734549  0.792262441  0.301519248
     0.007260539  0.700793458  0.112797920
     0.489528391  0.104401627  0.193316019
     0.589100132  0.390228752  0.381226642
     0.118784498  0.511610341  0.208781713
     0.306040334  0.412972176  0.298631193
     0.381504737  0.089362249  0.890977861
     0.192854629  0.991703466  0.605032497
     0.386808822  0.798404499  0.492714931
     0.197432260  0.709404715  0.590254968
     0.114402840  0.108524378  0.913427586
     0.306256634  0.393590465  0.010377303
     0.891616521  0.506079806  0.304586008
     0.607306826  0.412733076  0.114706711
     0.202844333  0.088724893  0.193875195
     0.291267667  0.990148067  0.381298445
     0.588924455  0.696188134  0.207500017
     0.493051432  0.885708747  0.298506513
     0.009023858  0.801297843  0.890178931
     0.911632659  0.614428385  0.604399456
     0.613180903  0.201581259  0.507275328
     0.802565329  0.290600069  0.409758068
     0.885603265  0.891479998  0.086563857
     0.693751364  0.606412160  0.989615344
     0.108412210  0.493948043  0.695456220
     0.392714866  0.587258382  0.885297659
     0.797158638  0.911287569  0.806121446
     0.708727935  0.009861450  0.618685464
     0.411070072  0.303798864  0.792506474
     0.506968868  0.114308319  0.701509704
     0.990986555  0.198693890  0.109811221
     0.088370274  0.385547318  0.395600641

  ion indices of the primitive-cell ions
   primitive index   ion index
                 1           1
                 2           2
                 3           3
                 4           4
                 5           5
                 6           6
                 7           7
                 8           8
                 9           9
                10          10
                11          11
                12          12
                13          13
                14          14
                15          15
                16          16
                17          17
                18          18
                19          19
                20          20
                21          21
                22          22
                23          23
                24          24
                25          25
                26          26
                27          27
                28          28
                29          29
                30          30
                31          31
                32          32
                33          33
                34          34
                35          35
                36          36
                37          37
                38          38
                39          39
                40          40
                41          41
                42          42
                43          43
                44          44
                45          45
                46          46
                47          47
                48          48
                49          49
                50          50
                51          51
                52          52
                53          53
                54          54
                55          55
                56          56
                57          57
                58          58
                59          59
                60          60
                61          61
                62          62
                63          63
                64          64
                65          65
                66          66
                67          67
                68          68
                69          69
                70          70
                71          71
                72          72
                73          73
                74          74
                75          75
                76          76
                77          77
                78          78
                79          79
                80          80

----------------------------------------------------------------------------------------

 
 
 KPOINTS: K-points file                           

Automatic generation of k-mesh.
Space group operators:
 irot       det(A)        alpha          n_x          n_y          n_z        tau_x        tau_y        tau_z
    1     1.000000     0.000000     1.000000     0.000000     0.000000     0.000000     0.000000     0.000000
 
 Subroutine IBZKPT returns following result:
 ===========================================
 
 Found     36 irreducible k-points:
 
 Following reciprocal coordinates:
            Coordinates               Weight
  0.000000  0.000000  0.000000      1.000000
  0.250000 -0.000000  0.000000      2.000000
  0.500000 -0.000000  0.000000      1.000000
  0.000000  0.250000 -0.000000      2.000000
  0.250000  0.250000 -0.000000      2.000000
  0.500000  0.250000  0.000000      2.000000
 -0.250000  0.250000 -0.000000      2.000000
  0.000000  0.500000  0.000000      1.000000
  0.250000  0.500000 -0.000000      2.000000
  0.500000  0.500000 -0.000000      1.000000
  0.000000 -0.000000  0.250000      2.000000
  0.250000 -0.000000  0.250000      2.000000
  0.500000  0.000000  0.250000      2.000000
 -0.250000 -0.000000  0.250000      2.000000
  0.000000  0.250000  0.250000      2.000000
  0.250000  0.250000  0.250000      2.000000
  0.500000  0.250000  0.250000      2.000000
 -0.250000  0.250000  0.250000      2.000000
  0.000000  0.500000  0.250000      2.000000
  0.250000  0.500000  0.250000      2.000000
  0.500000  0.500000  0.250000      2.000000
 -0.250000  0.500000  0.250000      2.000000
 -0.000000 -0.250000  0.250000      2.000000
  0.250000 -0.250000  0.250000      2.000000
  0.500000 -0.250000  0.250000      2.000000
 -0.250000 -0.250000  0.250000      2.000000
  0.000000 -0.000000  0.500000      1.000000
  0.250000 -0.000000  0.500000      2.000000
  0.500000 -0.000000  0.500000      1.000000
  0.000000  0.250000  0.500000      2.000000
  0.250000  0.250000  0.500000      2.000000
  0.500000  0.250000  0.500000      2.000000
 -0.250000  0.250000  0.500000      2.000000
  0.000000  0.500000  0.500000      1.000000
  0.250000  0.500000  0.500000      2.000000
  0.500000  0.500000  0.500000      1.000000
 
 Following cartesian coordinates:
            Coordinates               Weight
  0.000000  0.000000  0.000000      1.000000
  0.020754  0.020702  0.000015      2.000000
  0.041507  0.041403  0.000031      1.000000
  0.020698  0.000047 -0.020632      2.000000
  0.041451  0.020749 -0.020617      2.000000
  0.062205  0.041451 -0.020602      2.000000
 -0.000056 -0.020655 -0.020648      2.000000
  0.041396  0.000094 -0.041265      1.000000
  0.062149  0.020796 -0.041250      2.000000
  0.082903  0.041498 -0.041234      1.000000
 -0.000017  0.020710 -0.020692      2.000000
  0.020736  0.041411 -0.020677      2.000000
  0.041490  0.062113 -0.020662      2.000000
 -0.020771  0.000008 -0.020707      2.000000
  0.020680  0.020757 -0.041325      2.000000
  0.041434  0.041458 -0.041309      2.000000
  0.062188  0.062160 -0.041294      2.000000
 -0.000073  0.000055 -0.041340      2.000000
  0.041378  0.020804 -0.061957      2.000000
  0.062132  0.041506 -0.061942      2.000000
  0.082885  0.062207 -0.061926      2.000000
  0.020625  0.000102 -0.061972      2.000000
 -0.020715  0.020662 -0.000060      2.000000
  0.000038  0.041364 -0.000044      2.000000
  0.020792  0.062066 -0.000029      2.000000
 -0.041469 -0.000039 -0.000075      2.000000
 -0.000035  0.041419 -0.041384      1.000000
  0.020719  0.062121 -0.041369      2.000000
  0.041472  0.082822 -0.041354      1.000000
  0.020663  0.041466 -0.062017      2.000000
  0.041417  0.062168 -0.062001      2.000000
  0.062170  0.082870 -0.061986      2.000000
 -0.000091  0.020764 -0.062032      2.000000
  0.041361  0.041513 -0.082649      1.000000
  0.062114  0.062215 -0.082634      2.000000
  0.082868  0.082917 -0.082618      1.000000
 


--------------------------------------------------------------------------------------------------------




 Dimension of arrays:
   k-points           NKPTS =     36   k-points in BZ     NKDIM =     36   number of bands    NBANDS=    336
   number of dos      NEDOS =    301   number of ions     NIONS =     80
   non local maximal  LDIM  =      6   non local SUM 2l+1 LMDIM =     18
   total plane-waves  NPLWV = 512000
   max r-space proj   IRMAX =   9644   max aug-charges    IRDMAX=  27912
   dimension x,y,z NGX =    80 NGY =   80 NGZ =   80
   dimension x,y,z NGXF=   160 NGYF=  160 NGZF=  160
   support grid    NGXF=   160 NGYF=  160 NGZF=  160
   ions per type =              12   8  12  48
   NGX,Y,Z   is equivalent  to a cutoff of  12.73, 12.68, 12.73 a.u.
   NGXF,Y,Z  is equivalent  to a cutoff of  25.45, 25.36, 25.46 a.u.

 SYSTEM =  unknown system                          
 POSCAR =  Ca12 V8 Si12 O48                        

 Startparameter for this run:
   NWRITE =      2    write-flag & timer
   PREC   = accura    normal or accurate (medium, high low for compatibility)
   ISTART =      0    job   : 0-new  1-cont  2-samecut
   ICHARG =      1    charge: 1-file 2-atom 10-const
   ISPIN  =      2    spin polarized calculation?
   LNONCOLLINEAR =      F non collinear calculations
   LSORBIT =      F    spin-orbit coupling
   INIWAV =      1    electr: 0-lowe 1-rand  2-diag
   LASPH  =      T    aspherical Exc in radial PAW
   METAGGA=      F    non-selfconsistent MetaGGA calc.

 Electronic Relaxation 1
   ENCUT  =  520.0 eV  38.22 Ry    6.18 a.u.  19.43 19.50 19.43*2*pi/ulx,y,z
   ENINI  =  520.0     initial cutoff
   ENAUG  =  605.4 eV  augmentation charge cutoff
   NELM   =    100;   NELMIN=  6; NELMDL= -5     # of ELM steps 
   EDIFF  = 0.1E-04   stopping-criterion for ELM
   LREAL  =      T    real-space projection
   NLSPLINE    = F    spline interpolate recip. space projectors
   LCOMPAT=      F    compatible to vasp.4.4
   GGA_COMPAT  = T    GGA compatible to vasp.4.4-vasp.4.6
   LMAXPAW     = -100 max onsite density
   LMAXMIX     =    4 max onsite mixed and CHGCAR
   VOSKOWN=      0    Vosko Wilk Nusair interpolation
   ROPT   =   -0.00025  -0.00025  -0.00025  -0.00025
 Ionic relaxation
   EDIFFG = -.3E-01   stopping-criterion for IOM
   NSW    =     99    number of steps for IOM
   NBLOCK =      1;   KBLOCK =     99    inner block; outer block 
   IBRION =      2    ionic relax: 0-MD 1-quasi-New 2-CG
   NFREE  =      1    steps in history (QN), initial steepest desc. (CG)
   ISIF   =      3    stress and relaxation
   IWAVPR =     11    prediction:  0-non 1-charg 2-wave 3-comb
   ISYM   =      0    0-nonsym 1-usesym 2-fastsym
   LCORR  =      T    Harris-Foulkes like correction to forces

   POTIM  = 0.5000    time-step for ionic-motion
   TEIN   =    0.0    initial temperature
   TEBEG  =    0.0;   TEEND  =   0.0 temperature during run
   SMASS  =  -3.00    Nose mass-parameter (am)
   estimated Nose-frequenzy (Omega)   =  0.10E-29 period in steps = 0.13E+47 mass=  -0.250E-26a.u.
   SCALEE = 1.0000    scale energy and forces
   NPACO  =    256;   APACO  = 16.0  distance and # of slots for P.C.
   PSTRESS=    0.0 pullay stress

  Mass of Ions in am
   POMASS =  40.08 50.94 28.09 16.00
  Ionic Valenz
   ZVAL   =  10.00 11.00  4.00  6.00
  Atomic Wigner-Seitz radii
   RWIGS  =  -1.00 -1.00 -1.00 -1.00
  virtual crystal weights 
   VCA    =   1.00  1.00  1.00  1.00
   NELECT =     544.0000    total number of electrons
   NUPDOWN=      -1.0000    fix difference up-down

 DOS related values:
   EMIN   =  10.00;   EMAX   =-10.00  energy-range for DOS
   EFERMI =   0.00
   ISMEAR =     0;   SIGMA  =   0.05  broadening in eV -4-tet -1-fermi 0-gaus

 Electronic relaxation 2 (details)
   IALGO  =     38    algorithm
   LDIAG  =      T    sub-space diagonalisation (order eigenvalues)
   LSUBROT=      F    optimize rotation matrix (better conditioning)
   TURBO    =      0    0=normal 1=particle mesh
   IRESTART =      0    0=no restart 2=restart with 2 vectors
   NREBOOT  =      0    no. of reboots
   NMIN     =      0    reboot dimension
   EREF     =   0.00    reference energy to select bands
   IMIX   =      4    mixing-type and parameters
     AMIX     =   0.40;   BMIX     =  1.00
     AMIX_MAG =   1.60;   BMIX_MAG =  1.00
     AMIN     =   0.10
     WC   =   100.;   INIMIX=   1;  MIXPRE=   1;  MAXMIX= -45

 Intra band minimization:
   WEIMIN = 0.0010     energy-eigenvalue tresh-hold
   EBREAK =  0.74E-08  absolut break condition
   DEPER  =   0.30     relativ break condition  

   TIME   =   0.40     timestep for ELM

  volume/ion in A,a.u.               =      11.02        74.35
  Fermi-wavevector in a.u.,A,eV,Ry     =   1.393857  2.634009 26.433925  1.942839
  Thomas-Fermi vector in A             =   2.517463
 
 Write flags
   LWAVE        =      F    write WAVECAR
   LDOWNSAMPLE  =      F    k-point downsampling of WAVECAR
   LCHARG       =      T    write CHGCAR
   LVTOT        =      F    write LOCPOT, total local potential
   LVHAR        =      F    write LOCPOT, Hartree potential only
   LELF         =      F    write electronic localiz. function (ELF)
   LORBIT       =     11    0 simple, 1 ext, 2 COOP (PROOUT), +10 PAW based schemes


 Dipole corrections
   LMONO  =      F    monopole corrections only (constant potential shift)
   LDIPOL =      F    correct potential (dipole corrections)
   IDIPOL =      0    1-x, 2-y, 3-z, 4-all directions 
   EPSILON=  1.0000000 bulk dielectric constant

 LDA+U is selected, type is set to LDAUTYPE =  2
   angular momentum for each species LDAUL =    -1    2   -1   -1
   U (eV)           for each species LDAUU =   0.0  1.0  0.0  0.0
   J (eV)           for each species LDAUJ =   0.0  0.0  0.0  0.0
 Exchange correlation treatment:
   GGA     =    --    GGA type
   LEXCH   =     8    internal setting for exchange type
   VOSKOWN=      0    Vosko Wilk Nusair interpolation
   LHFCALC =     F    Hartree Fock is set to
   LHFONE  =     F    Hartree Fock one center treatment
   AEXX    =    0.0000 exact exchange contribution

 Linear response parameters
   LEPSILON=     F    determine dielectric tensor
   LRPA    =     F    only Hartree local field effects (RPA)
   LNABLA  =     F    use nabla operator in PAW spheres
   LVEL    =     F    velocity operator in full k-point grid
   LINTERFAST=   F  fast interpolation
   KINTER  =     0    interpolate to denser k-point grid
   CSHIFT  =0.1000    complex shift for real part using Kramers Kronig
   OMEGAMAX=  -1.0    maximum frequency
   DEG_THRESHOLD= 0.2000000E-02 threshold for treating states as degnerate
   RTIME   =   -0.100 relaxation time in fs
  (WPLASMAI=    0.000 imaginary part of plasma frequency in eV, 0.658/RTIME)
   DFIELD  = 0.0000000 0.0000000 0.0000000 field for delta impulse in time
 
 Orbital magnetization related:
   ORBITALMAG=     F  switch on orbital magnetization
   LCHIMAG   =     F  perturbation theory with respect to B field
   DQ        =  0.001000  dq finite difference perturbation B field
   LLRAUG    =     F  two centre corrections for induced B field



--------------------------------------------------------------------------------------------------------


 conjugate gradient relaxation of ions
 charge density and potential will be updated during run
 spin polarized calculation
 Variant of blocked Davidson
 Davidson routine will perform the subspace rotation
 perform sub-space diagonalisation
    after iterative eigenvector-optimisation
 modified Broyden-mixing scheme, WC =      100.0
 initial mixing is a Kerker type mixing with AMIX =  0.4000 and BMIX =      1.0000
 Hartree-type preconditioning will be used
 using additional bands           64
 real space projection scheme for non local part
 use partial core corrections
 calculate Harris-corrections to forces 
   (improved forces if not selfconsistent)
 use gradient corrections 
 use of overlap-Matrix (Vanderbilt PP)
 Gauss-broadening in eV      SIGMA  =   0.05


--------------------------------------------------------------------------------------------------------


  energy-cutoff  :      520.00
  volume of cell :      881.39
      direct lattice vectors                 reciprocal lattice vectors
     6.011973734  6.044792649  6.044832281     0.083014339  0.082806976  0.000061040
     6.045307982 -6.055974868 -6.066185892     0.082791447  0.000188523 -0.082529930
    -6.023479112  6.043007002 -6.028761981    -0.000069757  0.082838013 -0.082768092

  length of vectors
    10.450997257 10.489003360 10.447306124     0.117253483  0.116900165  0.117101231


 
 k-points in units of 2pi/SCALE and weight: K-points file                           
   0.00000000  0.00000000  0.00000000       0.016
   0.02075358  0.02070174  0.00001526       0.031
   0.04150717  0.04140349  0.00003052       0.016
   0.02069786  0.00004713 -0.02063248       0.031
   0.04145145  0.02074887 -0.02061722       0.031
   0.06220503  0.04145062 -0.02060196       0.031
  -0.00005572 -0.02065461 -0.02064774       0.031
   0.04139572  0.00009426 -0.04126496       0.016
   0.06214931  0.02079601 -0.04124970       0.031
   0.08290289  0.04149775 -0.04123444       0.016
  -0.00001744  0.02070950 -0.02069202       0.031
   0.02073615  0.04141125 -0.02067676       0.031
   0.04148973  0.06211299 -0.02066150       0.031
  -0.02077102  0.00000776 -0.02070728       0.031
   0.02068042  0.02075663 -0.04132451       0.031
   0.04143401  0.04145838 -0.04130925       0.031
   0.06218759  0.06216012 -0.04129399       0.031
  -0.00007316  0.00005489 -0.04133977       0.031
   0.04137828  0.02080376 -0.06195699       0.031
   0.06213187  0.04150551 -0.06194173       0.031
   0.08288545  0.06220725 -0.06192647       0.031
   0.02062470  0.00010202 -0.06197225       0.031
  -0.02071530  0.02066237 -0.00005954       0.031
   0.00003828  0.04136412 -0.00004428       0.031
   0.02079187  0.06206586 -0.00002902       0.031
  -0.04146889 -0.00003937 -0.00007480       0.031
  -0.00003488  0.04141901 -0.04138405       0.016
   0.02071871  0.06212075 -0.04136879       0.031
   0.04147229  0.08282249 -0.04135353       0.016
   0.02066298  0.04146614 -0.06201653       0.031
   0.04141657  0.06216788 -0.06200127       0.031
   0.06217015  0.08286963 -0.06198601       0.031
  -0.00009060  0.02076439 -0.06203179       0.031
   0.04136084  0.04151327 -0.08264901       0.016
   0.06211443  0.06221501 -0.08263375       0.031
   0.08286801  0.08291676 -0.08261849       0.016
 
 k-points in reciprocal lattice and weights: K-points file                           
   0.00000000  0.00000000  0.00000000       0.016
   0.25000000 -0.00000000  0.00000000       0.031
   0.50000000 -0.00000000  0.00000000       0.016
   0.00000000  0.25000000 -0.00000000       0.031
   0.25000000  0.25000000 -0.00000000       0.031
   0.50000000  0.25000000  0.00000000       0.031
  -0.25000000  0.25000000 -0.00000000       0.031
   0.00000000  0.50000000  0.00000000       0.016
   0.25000000  0.50000000 -0.00000000       0.031
   0.50000000  0.50000000 -0.00000000       0.016
   0.00000000 -0.00000000  0.25000000       0.031
   0.25000000 -0.00000000  0.25000000       0.031
   0.50000000  0.00000000  0.25000000       0.031
  -0.25000000 -0.00000000  0.25000000       0.031
   0.00000000  0.25000000  0.25000000       0.031
   0.25000000  0.25000000  0.25000000       0.031
   0.50000000  0.25000000  0.25000000       0.031
  -0.25000000  0.25000000  0.25000000       0.031
   0.00000000  0.50000000  0.25000000       0.031
   0.25000000  0.50000000  0.25000000       0.031
   0.50000000  0.50000000  0.25000000       0.031
  -0.25000000  0.50000000  0.25000000       0.031
  -0.00000000 -0.25000000  0.25000000       0.031
   0.25000000 -0.25000000  0.25000000       0.031
   0.50000000 -0.25000000  0.25000000       0.031
  -0.25000000 -0.25000000  0.25000000       0.031
   0.00000000 -0.00000000  0.50000000       0.016
   0.25000000 -0.00000000  0.50000000       0.031
   0.50000000 -0.00000000  0.50000000       0.016
   0.00000000  0.25000000  0.50000000       0.031
   0.25000000  0.25000000  0.50000000       0.031
   0.50000000  0.25000000  0.50000000       0.031
  -0.25000000  0.25000000  0.50000000       0.031
   0.00000000  0.50000000  0.50000000       0.016
   0.25000000  0.50000000  0.50000000       0.031
   0.50000000  0.50000000  0.50000000       0.016
 
 position of ions in fractional coordinates (direct lattice) 
   0.74976630  0.62537300  0.37400563
   0.24854836  0.87495496  0.12485150
   0.12531850  0.75049230  0.37516970
   0.37603878  0.24966088  0.12518399
   0.37502144  0.62522212  0.25037402
   0.12569796  0.87408548  0.74961600
   0.25022223  0.37462729  0.62599421
   0.75144810  0.12503700  0.87514507
   0.87470045  0.24953362  0.62484489
   0.62396225  0.75033637  0.87480433
   0.62494357  0.37477376  0.74960170
   0.87429414  0.12592401  0.25037564
   0.99998764  0.99999916  0.49999411
   0.49998692  0.49999690  0.49998946
   0.99997872  0.50000014  0.00000392
   0.49999158  0.99999216  0.00000143
   0.99998570  0.50000778  0.49999612
   0.49999981  0.99999937  0.50000436
   0.49998845  0.49999561  0.00000121
   0.99999980  0.00000271  0.00000762
   0.74898895  0.37411300  0.12447138
   0.24862636  0.12467558  0.37378135
   0.37582177  0.75205383  0.62632346
   0.12535067  0.25162984  0.87652067
   0.62666163  0.87456765  0.25144328
   0.87450328  0.62297193  0.74762753
   0.25104221  0.62590138  0.87555460
   0.75135661  0.87532410  0.62620886
   0.62417277  0.24793542  0.37366553
   0.87464496  0.74837195  0.12347179
   0.37333834  0.12541974  0.74855488
   0.12549343  0.37702064  0.25237942
   0.39188152  0.30473957  0.50701695
   0.10592565  0.11628669  0.41149826
   0.70099059  0.19427664  0.08656804
   0.79661070  0.38403287  0.99153977
   0.08925396  0.20774114  0.69847285
   0.99273660  0.29920423  0.88720095
   0.51047045  0.89558095  0.80666466
   0.41088703  0.60975928  0.61876587
   0.88119949  0.48837771  0.79122849
   0.69397246  0.58703943  0.70137075
   0.61848599  0.91061503  0.10902104
   0.80715699  0.00828754  0.39496328
   0.60810374  0.69525264  0.49296620
   0.89405932  0.88370688  0.58849341
   0.29905964  0.80575883  0.91346084
   0.20343778  0.61599605  0.00849044
   0.91073455  0.79226244  0.30151925
   0.00726054  0.70079346  0.11279792
   0.48952839  0.10440163  0.19331602
   0.58910013  0.39022875  0.38122664
   0.11878450  0.51161034  0.20878171
   0.30604033  0.41297218  0.29863119
   0.38150474  0.08936225  0.89097786
   0.19285463  0.99170347  0.60503250
   0.38680882  0.79840450  0.49271493
   0.19743226  0.70940471  0.59025497
   0.11440284  0.10852438  0.91342759
   0.30625663  0.39359047  0.01037730
   0.89161652  0.50607981  0.30458601
   0.60730683  0.41273308  0.11470671
   0.20284433  0.08872489  0.19387520
   0.29126767  0.99014807  0.38129844
   0.58892445  0.69618813  0.20750002
   0.49305143  0.88570875  0.29850651
   0.00902386  0.80129784  0.89017893
   0.91163266  0.61442839  0.60439946
   0.61318090  0.20158126  0.50727533
   0.80256533  0.29060007  0.40975807
   0.88560327  0.89148000  0.08656386
   0.69375136  0.60641216  0.98961534
   0.10841221  0.49394804  0.69545622
   0.39271487  0.58725838  0.88529766
   0.79715864  0.91128757  0.80612145
   0.70872794  0.00986145  0.61868546
   0.41107007  0.30379886  0.79250647
   0.50696887  0.11430832  0.70150970
   0.99098655  0.19869389  0.10981122
   0.08837027  0.38554732  0.39560064
 
 position of ions in cartesian coordinates  (Angst):
   6.03533263  3.00505728 -1.51620823
   6.03159800 -3.04180343 -4.55790622
   3.03054180 -1.52028511 -6.05690534
   3.01596906  1.51762419  0.00389763
   4.52615661 -0.00639064 -3.03521728
   1.52451245 -0.00368689 -9.06179838
  -0.00159624  3.02669542 -4.53397748
   0.00215536  9.07363482 -1.49216128
   3.00344355  7.55215558  0.00665911
   3.01789353  4.51415293 -6.05391982
   1.50755697  6.03788208 -3.01493847
   4.50935035  6.03535588  3.01162778
   9.04549829  3.01021607 -3.03576870
   3.01686742  3.01578836 -3.02505453
   9.03447703  3.01669945  3.01158623
   9.05118821 -3.03357329 -3.04378166
   6.02287261  6.03815164 -0.00275192
   6.03952410 -0.01204602 -6.05817429
   6.02853760 -0.00562700 -0.01072727
   6.01194306  6.04482109  6.04476871
   6.01477942  3.01404542  1.50766528
  -0.00302674  3.00662592 -1.50683944
   3.03318133  1.50222264 -6.06627379
  -3.00491911  4.53067539 -6.05304412
   7.53994068  0.01115339 -3.03311718
   4.52022914  6.03140708 -3.00010626
   0.01914094  3.01803760 -7.55783638
   6.03678399  3.02503874 -4.54331815
   3.00058976  4.52956773  0.01625686
   9.03875171  1.50106661  0.00293676
  -1.50620337  6.02073641 -3.01691099
   1.51346698  0.00048483 -3.05002600
   1.14421996  3.58725427 -2.53643333
  -1.13884008  2.42275617 -2.54593896
   4.86735831  3.58393960  2.53695422
   1.13828048  8.48153483 -3.49199397
  -2.41478499  3.50232285 -4.93159773
   2.43305173  9.55027516 -1.16282560
   3.62406989  2.53675249 -7.21024146
   2.42930144  2.53024651 -4.94556211
   3.48419358  7.15046435 -2.40601513
   3.49628628  4.87821192 -3.59454051
   8.56658389 -1.11722721 -2.44257783
   2.52365432  7.21567337  2.44771532
   4.88954845  2.44442669 -3.51362251
   7.17256366  3.60896634 -3.50417822
   1.16678668  2.44814853 -8.58715553
   4.89580643 -2.44940958 -2.55818611
   8.44858775  2.52936300 -1.11856142
   3.60072654 -3.51846050 -4.88728646
   2.40973681  3.49505405  1.16034108
   3.60439680  3.50152789 -1.10451334
   2.54937907 -1.11860235 -3.64418632
   2.53765168  1.15363163 -2.45557988
  -2.53296776  7.14912695 -3.60744932
   3.51018924 -1.18374941 -8.49768060
   4.18422747  0.48054132 -5.47553670
   1.92013907  0.46421486 -6.66844269
  -4.15816183  5.55416984 -5.47362057
   4.15807495 -0.46960601 -0.59888523
   6.58511594  4.16544578  0.48342160
   5.45527777  1.86471616  0.47581289
   0.58806091  1.86042537 -0.48088913
   5.44010036 -1.93146999 -6.54451561
   6.49939802  0.59775243 -1.91422529
   6.52054667 -0.57955929 -4.19208541
  -0.46363075  0.58126526-10.17295086
   5.55453292  5.44205768 -1.86035074
   1.84948594  5.55124874 -0.57449588
   4.11359943  5.56764516  0.61820491
  10.19207914  0.47761364 -0.57643307
   1.87583590  6.50141880 -5.45115361
  -0.55122661  1.86663920 -6.53378704
   0.57857728  4.16731788 -6.52577188
   5.44585511  4.17132160 -5.56926385
   0.59383027  7.96311331  0.49441270
  -0.46574602  5.43415724 -4.13588364
  -0.48661653  6.61150143 -1.85810876
   6.49750530  5.45061302  4.12300773
   0.47913985  0.58993256 -4.18960032
 


--------------------------------------------------------------------------------------------------------


 k-point   1 :   0.0000 0.0000 0.0000  plane waves:   23771
 k-point   2 :   0.2500-0.0000 0.0000  plane waves:   23769
 k-point   3 :   0.5000-0.0000 0.0000  plane waves:   23732
 k-point   4 :   0.0000 0.2500-0.0000  plane waves:   23769
 k-point   5 :   0.2500 0.2500-0.0000  plane waves:   23717
 k-point   6 :   0.5000 0.2500 0.0000  plane waves:   23707
 k-point   7 :  -0.2500 0.2500-0.0000  plane waves:   23761
 k-point   8 :   0.0000 0.5000 0.0000  plane waves:   23734
 k-point   9 :   0.2500 0.5000-0.0000  plane waves:   23700
 k-point  10 :   0.5000 0.5000-0.0000  plane waves:   23726
 k-point  11 :   0.0000-0.0000 0.2500  plane waves:   23763
 k-point  12 :   0.2500-0.0000 0.2500  plane waves:   23718
 k-point  13 :   0.5000 0.0000 0.2500  plane waves:   23732
 k-point  14 :  -0.2500-0.0000 0.2500  plane waves:   23763
 k-point  15 :   0.0000 0.2500 0.2500  plane waves:   23718
 k-point  16 :   0.2500 0.2500 0.2500  plane waves:   23688
 k-point  17 :   0.5000 0.2500 0.2500  plane waves:   23718
 k-point  18 :  -0.2500 0.2500 0.2500  plane waves:   23745
 k-point  19 :   0.0000 0.5000 0.2500  plane waves:   23717
 k-point  20 :   0.2500 0.5000 0.2500  plane waves:   23706
 k-point  21 :   0.5000 0.5000 0.2500  plane waves:   23711
 k-point  22 :  -0.2500 0.5000 0.2500  plane waves:   23719
 k-point  23 :  -0.0000-0.2500 0.2500  plane waves:   23769
 k-point  24 :   0.2500-0.2500 0.2500  plane waves:   23748
 k-point  25 :   0.5000-0.2500 0.2500  plane waves:   23727
 k-point  26 :  -0.2500-0.2500 0.2500  plane waves:   23730
 k-point  27 :   0.0000-0.0000 0.5000  plane waves:   23730
 k-point  28 :   0.2500-0.0000 0.5000  plane waves:   23718
 k-point  29 :   0.5000-0.0000 0.5000  plane waves:   23726
 k-point  30 :   0.0000 0.2500 0.5000  plane waves:   23714
 k-point  31 :   0.2500 0.2500 0.5000  plane waves:   23720
 k-point  32 :   0.5000 0.2500 0.5000  plane waves:   23734
 k-point  33 :  -0.2500 0.2500 0.5000  plane waves:   23728
 k-point  34 :   0.0000 0.5000 0.5000  plane waves:   23732
 k-point  35 :   0.2500 0.5000 0.5000  plane waves:   23713
 k-point  36 :   0.5000 0.5000 0.5000  plane waves:   23680

 maximum and minimum number of plane-waves per node :      6002     5894

 maximum number of plane-waves:     23771
 maximum index in each direction: 
   IXMAX=   19   IYMAX=   19   IZMAX=   19
   IXMIN=  -19   IYMIN=  -20   IZMIN=  -19


 real space projection operators:
  total allocation   :      39065.70 KBytes
  max/ min on nodes  :       9809.27       9750.91


 parallel 3D FFT for wavefunctions:
    minimum data exchange during FFTs selected (reduces bandwidth)
 parallel 3D FFT for charge:
    minimum data exchange during FFTs selected (reduces bandwidth)


 total amount of memory used by VASP MPI-rank0   501956. kBytes
=======================================================================

   base      :      30000. kBytes
   nonlr-proj:      25225. kBytes
   fftplans  :       9819. kBytes
   grid      :      38768. kBytes
   one-center:        622. kBytes
   wavefun   :     397522. kBytes
 
     INWAV:  cpu time    0.0000: real time    0.0000
 Broyden mixing: mesh for mixing (old mesh)
   NGX = 39   NGY = 39   NGZ = 39
  (NGX  =160   NGY  =160   NGZ  =160)
  gives a total of  59319 points

 initial charge density was supplied:
 number of electron     543.9999998 magnetization      16.0000007
 keeping initial charge density in first step


--------------------------------------------------------------------------------------------------------


 Maximum index for non-local projection operator         2363
 Maximum index for augmentation-charges         1292 (set IRDMAX)


--------------------------------------------------------------------------------------------------------


 First call to EWALD:  gamma=   0.185
 Maximum number of real-space cells 3x 3x 3
 Maximum number of reciprocal cells 3x 3x 3

    FEWALD:  cpu time    0.0037: real time    0.0037


--------------------------------------- Iteration      1(   1)  ---------------------------------------


    POTLOK:  cpu time    0.5032: real time    0.5088
    SETDIJ:  cpu time    2.6552: real time    2.6553
atom =  13  type =  2  l = 2
 
 onsite density matrix
 
spin component  1
 
  0.3595 -0.3148 -0.1602 -0.0287 -0.0657
 -0.3148  0.6493  0.1150 -0.1370  0.0177
 -0.1602  0.1150  0.4187  0.2864 -0.0625
 -0.0287 -0.1370  0.2864  0.7025 -0.1135
 -0.0657  0.0177 -0.0625 -0.1135  0.2120
 
spin component  2
 
  0.0886  0.0257  0.0075 -0.0150 -0.0499
  0.0257  0.0770 -0.0353  0.0163 -0.0329
  0.0075 -0.0353  0.1211 -0.0431  0.0040
 -0.0150  0.0163 -0.0431  0.0726  0.0207
 -0.0499 -0.0329  0.0040  0.0207  0.1409
 
 occupancies and eigenvectors
 
  o =  0.0399  v =  0.0000  0.0000  0.0000  0.0000  0.0000  0.3750 -0.6587  0.0222  0.6320 -0.1597      0.0000  0.0000  0.0000  0.0000  0.0000  0.0000  0.0000  0.0000  0.0000  0.0000
  o =  0.0448  v =  0.0000  0.0000  0.0000  0.0000  0.0000 -0.3633  0.4164  0.5655  0.5806 -0.1945      0.0000  0.0000  0.0000  0.0000  0.0000  0.0000  0.0000  0.0000  0.0000  0.0000
  o =  0.0623  v =  0.0000  0.0000  0.0000  0.0000  0.0000  0.6893  0.3925  0.2083  0.1334  0.5565      0.0000  0.0000  0.0000  0.0000  0.0000  0.0000  0.0000  0.0000  0.0000  0.0000
  o =  0.0912  v =  0.7070  0.3610  0.2288  0.1095  0.5526  0.0000  0.0000  0.0000  0.0000  0.0000      0.0000  0.0000  0.0000  0.0000  0.0000  0.0000  0.0000  0.0000  0.0000  0.0000
  o =  0.1631  v =  0.0000  0.0000  0.0000  0.0000  0.0000  0.1311 -0.3362  0.7910 -0.4827 -0.1057      0.0000  0.0000  0.0000  0.0000  0.0000  0.0000  0.0000  0.0000  0.0000  0.0000
  o =  0.1786  v = -0.0396  0.3160 -0.7867  0.5248  0.0659  0.0000  0.0000  0.0000  0.0000  0.0000      0.0000  0.0000  0.0000  0.0000  0.0000  0.0000  0.0000  0.0000  0.0000  0.0000
  o =  0.1900  v =  0.0000  0.0000  0.0000  0.0000  0.0000 -0.4848 -0.3544  0.1035  0.1129  0.7848      0.0000  0.0000  0.0000  0.0000  0.0000  0.0000  0.0000  0.0000  0.0000  0.0000
  o =  0.2325  v = -0.4594 -0.3570 -0.0071  0.0679  0.8105  0.0000  0.0000  0.0000  0.0000  0.0000      0.0000  0.0000  0.0000  0.0000  0.0000  0.0000  0.0000  0.0000  0.0000  0.0000
  o =  0.9169  v =  0.3443 -0.6853  0.1036  0.6136 -0.1572  0.0000  0.0000  0.0000  0.0000  0.0000      0.0000  0.0000  0.0000  0.0000  0.0000  0.0000  0.0000  0.0000  0.0000  0.0000
  o =  0.9229  v = -0.4111  0.4156  0.5640  0.5758 -0.0932  0.0000  0.0000  0.0000  0.0000  0.0000      0.0000  0.0000  0.0000  0.0000  0.0000  0.0000  0.0000  0.0000  0.0000  0.0000
atom =  14  type =  2  l = 2
 
 onsite density matrix
 
spin component  1
 
  0.3643  0.3264 -0.1448  0.0080 -0.0695
  0.3264  0.6403 -0.1135 -0.1195 -0.0133
 -0.1448 -0.1135  0.4173 -0.2946 -0.0581
  0.0080 -0.1195 -0.2946  0.7108  0.1008
 -0.0695 -0.0133 -0.0581  0.1008  0.2077
 
spin component  2
 
  0.0864 -0.0248  0.0066  0.0158 -0.0487
 -0.0248  0.0758  0.0355  0.0154  0.0314
  0.0066  0.0355  0.1218  0.0430  0.0034
  0.0158  0.0154  0.0430  0.0736 -0.0223
 -0.0487  0.0314  0.0034 -0.0223  0.1419
 
 occupancies and eigenvectors
 
  o =  0.0401  v =  0.0000  0.0000  0.0000  0.0000  0.0000 -0.4286 -0.6848  0.0245  0.5741  0.1313      0.0000  0.0000  0.0000  0.0000  0.0000  0.0000  0.0000  0.0000  0.0000  0.0000
  o =  0.0450  v =  0.0000  0.0000  0.0000  0.0000  0.0000  0.2993  0.3697 -0.5664  0.6431  0.1986      0.0000  0.0000  0.0000  0.0000  0.0000  0.0000  0.0000  0.0000  0.0000  0.0000
  o =  0.0621  v =  0.0000  0.0000  0.0000  0.0000  0.0000  0.6992 -0.4019  0.1961 -0.0916  0.5503      0.0000  0.0000  0.0000  0.0000  0.0000  0.0000  0.0000  0.0000  0.0000  0.0000
  o =  0.0912  v =  0.7099 -0.3766  0.2234 -0.0647  0.5478  0.0000  0.0000  0.0000  0.0000  0.0000      0.0000  0.0000  0.0000  0.0000  0.0000  0.0000  0.0000  0.0000  0.0000  0.0000
  o =  0.1637  v =  0.0000  0.0000  0.0000  0.0000  0.0000  0.0976  0.3526  0.7968  0.4756 -0.0711      0.0000  0.0000  0.0000  0.0000  0.0000  0.0000  0.0000  0.0000  0.0000  0.0000
  o =  0.1794  v = -0.0107 -0.3201 -0.7899 -0.5200  0.0545  0.0000  0.0000  0.0000  0.0000  0.0000      0.0000  0.0000  0.0000  0.0000  0.0000  0.0000  0.0000  0.0000  0.0000  0.0000
  o =  0.1886  v =  0.0000  0.0000  0.0000  0.0000  0.0000 -0.4779  0.3296  0.0728 -0.1491  0.7971      0.0000  0.0000  0.0000  0.0000  0.0000  0.0000  0.0000  0.0000  0.0000  0.0000
  o =  0.2305  v = -0.4468  0.3505 -0.0206 -0.0896  0.8179  0.0000  0.0000  0.0000  0.0000  0.0000      0.0000  0.0000  0.0000  0.0000  0.0000  0.0000  0.0000  0.0000  0.0000  0.0000
  o =  0.9160  v = -0.4087 -0.7050 -0.0672  0.5589  0.1384  0.0000  0.0000  0.0000  0.0000  0.0000      0.0000  0.0000  0.0000  0.0000  0.0000  0.0000  0.0000  0.0000  0.0000  0.0000
  o =  0.9234  v =  0.3594  0.3685 -0.5667  0.6364  0.0938  0.0000  0.0000  0.0000  0.0000  0.0000      0.0000  0.0000  0.0000  0.0000  0.0000  0.0000  0.0000  0.0000  0.0000  0.0000
atom =  15  type =  2  l = 2
 
 onsite density matrix
 
spin component  1
 
  0.6202 -0.0618 -0.0416 -0.3409 -0.1256
 -0.0618  0.7171 -0.1914  0.0701 -0.2512
 -0.0416 -0.1914  0.2671 -0.0420  0.1139
 -0.3409  0.0701 -0.0420  0.3805  0.1248
 -0.1256 -0.2512  0.1139  0.1248  0.3545
 
spin component  2
 
  0.0749  0.0142 -0.0088  0.0240  0.0461
  0.0142  0.0775  0.0419 -0.0197  0.0282
 -0.0088  0.0419  0.1362 -0.0458 -0.0085
  0.0240 -0.0197 -0.0458  0.0864  0.0170
  0.0461  0.0282 -0.0085  0.0170  0.1269
 
 occupancies and eigenvectors
 
  o =  0.0404  v =  0.0000  0.0000  0.0000  0.0000  0.0000 -0.7242  0.4417 -0.0026  0.5104  0.1413      0.0000  0.0000  0.0000  0.0000  0.0000  0.0000  0.0000  0.0000  0.0000  0.0000
  o =  0.0457  v =  0.0000  0.0000  0.0000  0.0000  0.0000 -0.3064 -0.7347  0.3924  0.0772  0.4543      0.0000  0.0000  0.0000  0.0000  0.0000  0.0000  0.0000  0.0000  0.0000  0.0000
  o =  0.0617  v =  0.0000  0.0000  0.0000  0.0000  0.0000  0.3840 -0.0620  0.4700  0.7024 -0.3666      0.0000  0.0000  0.0000  0.0000  0.0000  0.0000  0.0000  0.0000  0.0000  0.0000
  o =  0.0897  v = -0.3817  0.0676 -0.4421 -0.7009  0.4037  0.0000  0.0000  0.0000  0.0000  0.0000      0.0000  0.0000  0.0000  0.0000  0.0000  0.0000  0.0000  0.0000  0.0000  0.0000
  o =  0.1660  v =  0.0000  0.0000  0.0000  0.0000  0.0000  0.4093  0.4465  0.3074 -0.0071  0.7338      0.0000  0.0000  0.0000  0.0000  0.0000  0.0000  0.0000  0.0000  0.0000  0.0000
  o =  0.1833  v =  0.3407  0.4979  0.3639  0.0410  0.7084  0.0000  0.0000  0.0000  0.0000  0.0000      0.0000  0.0000  0.0000  0.0000  0.0000  0.0000  0.0000  0.0000  0.0000  0.0000
  o =  0.1882  v =  0.0000  0.0000  0.0000  0.0000  0.0000 -0.2581  0.2489  0.7284 -0.4900 -0.3174      0.0000  0.0000  0.0000  0.0000  0.0000  0.0000  0.0000  0.0000  0.0000  0.0000
  o =  0.2264  v =  0.3647 -0.1574 -0.7531  0.4323  0.2971  0.0000  0.0000  0.0000  0.0000  0.0000      0.0000  0.0000  0.0000  0.0000  0.0000  0.0000  0.0000  0.0000  0.0000  0.0000
  o =  0.9167  v = -0.6860  0.4954 -0.1319  0.5159  0.0196  0.0000  0.0000  0.0000  0.0000  0.0000      0.0000  0.0000  0.0000  0.0000  0.0000  0.0000  0.0000  0.0000  0.0000  0.0000
  o =  0.9233  v =  0.3668  0.6909 -0.2961 -0.2324 -0.4965  0.0000  0.0000  0.0000  0.0000  0.0000      0.0000  0.0000  0.0000  0.0000  0.0000  0.0000  0.0000  0.0000  0.0000  0.0000
atom =  16  type =  2  l = 2
 
 onsite density matrix
 
spin component  1
 
  0.6578  0.1151 -0.0415  0.3141 -0.1234
  0.1151  0.7142  0.2335 -0.0039  0.2049
 -0.0415  0.2335  0.3073  0.0025  0.1185
  0.3141 -0.0039  0.0025  0.3395 -0.1574
 -0.1234  0.2049  0.1185 -0.1574  0.3229
 
spin component  2
 
  0.0749 -0.0150 -0.0095 -0.0249  0.0459
 -0.0150  0.0740 -0.0405 -0.0170 -0.0271
 -0.0095 -0.0405  0.1347  0.0473 -0.0098
 -0.0249 -0.0170  0.0473  0.0896 -0.0185
  0.0459 -0.0271 -0.0098 -0.0185  0.1286
 
 occupancies and eigenvectors
 
  o =  0.0404  v =  0.0000  0.0000  0.0000  0.0000  0.0000 -0.7029 -0.5495 -0.0789 -0.4340  0.0972      0.0000  0.0000  0.0000  0.0000  0.0000  0.0000  0.0000  0.0000  0.0000  0.0000
  o =  0.0451  v =  0.0000  0.0000  0.0000  0.0000  0.0000 -0.3669  0.6682  0.4343 -0.2374  0.4169      0.0000  0.0000  0.0000  0.0000  0.0000  0.0000  0.0000  0.0000  0.0000  0.0000
  o =  0.0623  v =  0.0000  0.0000  0.0000  0.0000  0.0000  0.3765 -0.0574  0.4222 -0.7077 -0.4193      0.0000  0.0000  0.0000  0.0000  0.0000  0.0000  0.0000  0.0000  0.0000  0.0000
  o =  0.0906  v =  0.3465 -0.0693  0.3925 -0.7233 -0.4449  0.0000  0.0000  0.0000  0.0000  0.0000      0.0000  0.0000  0.0000  0.0000  0.0000  0.0000  0.0000  0.0000  0.0000  0.0000
  o =  0.1639  v =  0.0000  0.0000  0.0000  0.0000  0.0000  0.3703 -0.4663  0.4082  0.0706  0.6883      0.0000  0.0000  0.0000  0.0000  0.0000  0.0000  0.0000  0.0000  0.0000  0.0000
  o =  0.1794  v =  0.3309 -0.5094  0.4029  0.0049  0.6846  0.0000  0.0000  0.0000  0.0000  0.0000      0.0000  0.0000  0.0000  0.0000  0.0000  0.0000  0.0000  0.0000  0.0000  0.0000
  o =  0.1901  v =  0.0000  0.0000  0.0000  0.0000  0.0000 -0.3040 -0.1754  0.6784  0.4994 -0.4089      0.0000  0.0000  0.0000  0.0000  0.0000  0.0000  0.0000  0.0000  0.0000  0.0000
  o =  0.2331  v = -0.3412 -0.1173  0.7288  0.4614 -0.3546  0.0000  0.0000  0.0000  0.0000  0.0000      0.0000  0.0000  0.0000  0.0000  0.0000  0.0000  0.0000  0.0000  0.0000  0.0000
  o =  0.9162  v = -0.7093 -0.5634 -0.1648 -0.3895  0.0234  0.0000  0.0000  0.0000  0.0000  0.0000      0.0000  0.0000  0.0000  0.0000  0.0000  0.0000  0.0000  0.0000  0.0000  0.0000
  o =  0.9225  v =  0.3885 -0.6360 -0.3539  0.3349 -0.4551  0.0000  0.0000  0.0000  0.0000  0.0000      0.0000  0.0000  0.0000  0.0000  0.0000  0.0000  0.0000  0.0000  0.0000  0.0000
atom =  17  type =  2  l = 2
 
 onsite density matrix
 
spin component  1
 
  0.6246 -0.3415  0.0522  0.0899 -0.1039
 -0.3415  0.3801  0.0130 -0.0343  0.1358
  0.0522  0.0130  0.2823 -0.2046 -0.1219
  0.0899 -0.0343 -0.2046  0.7169  0.2404
 -0.1039  0.1358 -0.1219  0.2404  0.3358
 
spin component  2
 
  0.0735  0.0241  0.0086 -0.0148  0.0450
  0.0241  0.0886  0.0472  0.0186  0.0175
  0.0086  0.0472  0.1349  0.0411  0.0085
 -0.0148  0.0186  0.0411  0.0759 -0.0285
  0.0450  0.0175  0.0085 -0.0285  0.1274
 
 occupancies and eigenvectors
 
  o =  0.0401  v =  0.0000  0.0000  0.0000  0.0000  0.0000  0.7187 -0.4742 -0.0342  0.4954 -0.1101      0.0000  0.0000  0.0000  0.0000  0.0000  0.0000  0.0000  0.0000  0.0000  0.0000
  o =  0.0452  v =  0.0000  0.0000  0.0000  0.0000  0.0000 -0.3346  0.1589 -0.4162  0.7060  0.4373      0.0000  0.0000  0.0000  0.0000  0.0000  0.0000  0.0000  0.0000  0.0000  0.0000
  o =  0.0616  v =  0.0000  0.0000  0.0000  0.0000  0.0000  0.3834  0.7035 -0.4527 -0.0011 -0.3913      0.0000  0.0000  0.0000  0.0000  0.0000  0.0000  0.0000  0.0000  0.0000  0.0000
  o =  0.0906  v =  0.3976  0.6917 -0.4197  0.0097 -0.4326  0.0000  0.0000  0.0000  0.0000  0.0000      0.0000  0.0000  0.0000  0.0000  0.0000  0.0000  0.0000  0.0000  0.0000  0.0000
  o =  0.1652  v =  0.0000  0.0000  0.0000  0.0000  0.0000  0.3952 -0.0197 -0.3257 -0.4524  0.7298      0.0000  0.0000  0.0000  0.0000  0.0000  0.0000  0.0000  0.0000  0.0000  0.0000
  o =  0.1815  v = -0.3378 -0.0350  0.3603  0.5086 -0.7044  0.0000  0.0000  0.0000  0.0000  0.0000      0.0000  0.0000  0.0000  0.0000  0.0000  0.0000  0.0000  0.0000  0.0000  0.0000
  o =  0.1882  v =  0.0000  0.0000  0.0000  0.0000  0.0000 -0.2615 -0.5046 -0.7174 -0.2270 -0.3329      0.0000  0.0000  0.0000  0.0000  0.0000  0.0000  0.0000  0.0000  0.0000  0.0000
  o =  0.2274  v = -0.3371 -0.4520 -0.7562 -0.1375 -0.3020  0.0000  0.0000  0.0000  0.0000  0.0000      0.0000  0.0000  0.0000  0.0000  0.0000  0.0000  0.0000  0.0000  0.0000  0.0000
  o =  0.9170  v = -0.7313  0.5076  0.0846 -0.4451  0.0474  0.0000  0.0000  0.0000  0.0000  0.0000      0.0000  0.0000  0.0000  0.0000  0.0000  0.0000  0.0000  0.0000  0.0000  0.0000
  o =  0.9232  v =  0.2817 -0.2414  0.3391 -0.7241 -0.4724  0.0000  0.0000  0.0000  0.0000  0.0000      0.0000  0.0000  0.0000  0.0000  0.0000  0.0000  0.0000  0.0000  0.0000  0.0000
atom =  18  type =  2  l = 2
 
 onsite density matrix
 
spin component  1
 
  0.7024 -0.1192  0.0446  0.0108  0.3130
 -0.1192  0.6650  0.1002  0.3035  0.0958
  0.0446  0.1002  0.2204  0.1416  0.0595
  0.0108  0.3035  0.1416  0.3264  0.0784
  0.3130  0.0958  0.0595  0.0784  0.4287
 
spin component  2
 
  0.0757  0.0144 -0.0014  0.0172 -0.0494
  0.0144  0.0744 -0.0448 -0.0251 -0.0142
 -0.0014 -0.0448  0.1391  0.0389 -0.0088
  0.0172 -0.0251  0.0389  0.0885 -0.0314
 -0.0494 -0.0142 -0.0088 -0.0314  0.1239
 
 occupancies and eigenvectors
 
  o =  0.0402  v =  0.0000  0.0000  0.0000  0.0000  0.0000  0.4553 -0.7493 -0.1591 -0.4515 -0.0444      0.0000  0.0000  0.0000  0.0000  0.0000  0.0000  0.0000  0.0000  0.0000  0.0000
  o =  0.0451  v =  0.0000  0.0000  0.0000  0.0000  0.0000  0.7271  0.2678  0.1152  0.1901  0.5918      0.0000  0.0000  0.0000  0.0000  0.0000  0.0000  0.0000  0.0000  0.0000  0.0000
  o =  0.0627  v =  0.0000  0.0000  0.0000  0.0000  0.0000 -0.0768 -0.3678 -0.5675  0.7192  0.1401      0.0000  0.0000  0.0000  0.0000  0.0000  0.0000  0.0000  0.0000  0.0000  0.0000
  o =  0.0917  v = -0.0883 -0.3257 -0.5757  0.7374  0.1046  0.0000  0.0000  0.0000  0.0000  0.0000      0.0000  0.0000  0.0000  0.0000  0.0000  0.0000  0.0000  0.0000  0.0000  0.0000
  o =  0.1627  v =  0.0000  0.0000  0.0000  0.0000  0.0000  0.4664  0.3807 -0.4132  0.0512 -0.6813      0.0000  0.0000  0.0000  0.0000  0.0000  0.0000  0.0000  0.0000  0.0000  0.0000
  o =  0.1776  v = -0.5165 -0.3397  0.3925 -0.0020  0.6810  0.0000  0.0000  0.0000  0.0000  0.0000      0.0000  0.0000  0.0000  0.0000  0.0000  0.0000  0.0000  0.0000  0.0000  0.0000
  o =  0.1910  v =  0.0000  0.0000  0.0000  0.0000  0.0000 -0.2014  0.2943 -0.6846 -0.4901  0.4049      0.0000  0.0000  0.0000  0.0000  0.0000  0.0000  0.0000  0.0000  0.0000  0.0000
  o =  0.2351  v =  0.1400 -0.3401  0.6736  0.4563 -0.4504  0.0000  0.0000  0.0000  0.0000  0.0000      0.0000  0.0000  0.0000  0.0000  0.0000  0.0000  0.0000  0.0000  0.0000  0.0000
  o =  0.9155  v =  0.4755 -0.7589 -0.1564 -0.4104  0.0711  0.0000  0.0000  0.0000  0.0000  0.0000      0.0000  0.0000  0.0000  0.0000  0.0000  0.0000  0.0000  0.0000  0.0000  0.0000
  o =  0.9229  v = -0.6926 -0.2949 -0.1906 -0.2820 -0.5634  0.0000  0.0000  0.0000  0.0000  0.0000      0.0000  0.0000  0.0000  0.0000  0.0000  0.0000  0.0000  0.0000  0.0000  0.0000
atom =  19  type =  2  l = 2
 
 onsite density matrix
 
spin component  1
 
  0.4771  0.0299 -0.1315 -0.3683  0.0387
  0.0299  0.7036  0.3164 -0.0976  0.0442
 -0.1315  0.3164  0.4337  0.0733  0.0480
 -0.3683 -0.0976  0.0733  0.5389  0.0399
  0.0387  0.0442  0.0480  0.0399  0.1837
 
spin component  2
 
  0.0829 -0.0178  0.0081  0.0238  0.0477
 -0.0178  0.0763 -0.0453  0.0160 -0.0212
  0.0081 -0.0453  0.1237 -0.0362 -0.0026
  0.0238  0.0160 -0.0362  0.0784  0.0306
  0.0477 -0.0212 -0.0026  0.0306  0.1396
 
 occupancies and eigenvectors
 
  o =  0.0406  v =  0.0000  0.0000  0.0000  0.0000  0.0000  0.5324  0.5450 -0.0339 -0.6443  0.0581      0.0000  0.0000  0.0000  0.0000  0.0000  0.0000  0.0000  0.0000  0.0000  0.0000
  o =  0.0459  v =  0.0000  0.0000  0.0000  0.0000  0.0000 -0.2741  0.6680  0.5763  0.3263  0.2004      0.0000  0.0000  0.0000  0.0000  0.0000  0.0000  0.0000  0.0000  0.0000  0.0000
  o =  0.0608  v =  0.0000  0.0000  0.0000  0.0000  0.0000  0.6382  0.0255  0.1934  0.4881 -0.5625      0.0000  0.0000  0.0000  0.0000  0.0000  0.0000  0.0000  0.0000  0.0000  0.0000
  o =  0.0874  v =  0.6143 -0.0257  0.2268  0.5081 -0.5588  0.0000  0.0000  0.0000  0.0000  0.0000      0.0000  0.0000  0.0000  0.0000  0.0000  0.0000  0.0000  0.0000  0.0000  0.0000
  o =  0.1685  v =  0.0000  0.0000  0.0000  0.0000  0.0000  0.0855 -0.4755  0.7927 -0.3709  0.0262      0.0000  0.0000  0.0000  0.0000  0.0000  0.0000  0.0000  0.0000  0.0000  0.0000
  o =  0.1850  v =  0.0000  0.0000  0.0000  0.0000  0.0000 -0.4762  0.1735  0.0319 -0.3205 -0.7996      0.0000  0.0000  0.0000  0.0000  0.0000  0.0000  0.0000  0.0000  0.0000  0.0000
  o =  0.1870  v = -0.0098 -0.5391  0.7762 -0.3252  0.0334  0.0000  0.0000  0.0000  0.0000  0.0000      0.0000  0.0000  0.0000  0.0000  0.0000  0.0000  0.0000  0.0000  0.0000  0.0000
  o =  0.2209  v =  0.4288 -0.0743  0.0670  0.3549  0.8247  0.0000  0.0000  0.0000  0.0000  0.0000      0.0000  0.0000  0.0000  0.0000  0.0000  0.0000  0.0000  0.0000  0.0000  0.0000
  o =  0.9177  v = -0.5437 -0.5300 -0.1048  0.6414 -0.0326  0.0000  0.0000  0.0000  0.0000  0.0000      0.0000  0.0000  0.0000  0.0000  0.0000  0.0000  0.0000  0.0000  0.0000  0.0000
  o =  0.9240  v =  0.3782 -0.6498 -0.5750 -0.3141 -0.0733  0.0000  0.0000  0.0000  0.0000  0.0000      0.0000  0.0000  0.0000  0.0000  0.0000  0.0000  0.0000  0.0000  0.0000  0.0000
atom =  20  type =  2  l = 2
 
 onsite density matrix
 
spin component  1
 
  0.3403  0.0007  0.1293  0.3170 -0.0803
  0.0007  0.7159 -0.2959  0.1084 -0.0985
  0.1293 -0.2959  0.4170  0.1260  0.0531
[...]
   -.269E+02 0.479E+02 0.408E+02   0.159E+02 -.358E+02 -.523E+02   0.111E+02 -.120E+02 0.115E+02   0.111E-02 0.475E-03 0.420E-03
   -.292E+02 -.608E+02 -.408E+02   0.188E+02 0.505E+02 0.525E+02   0.104E+02 0.103E+02 -.117E+02   0.103E-02 -.345E-03 -.371E-03
   0.583E+02 -.309E+02 -.443E+02   -.481E+02 0.205E+02 0.555E+02   -.101E+02 0.104E+02 -.112E+02   0.260E-03 0.114E-02 -.244E-03
   -.484E+02 -.256E+02 0.379E+02   0.367E+02 0.143E+02 -.495E+02   0.117E+02 0.113E+02 0.116E+02   -.276E-03 0.126E-02 0.409E-03
   -.591E+02 0.291E+02 -.431E+02   0.485E+02 -.187E+02 0.548E+02   0.106E+02 -.104E+02 -.117E+02   -.333E-03 -.105E-02 -.349E-03
   0.598E+02 0.270E+02 0.424E+02   -.493E+02 -.161E+02 -.537E+02   -.105E+02 -.109E+02 0.114E+02   0.345E-03 -.105E-02 0.354E-03
   -.413E+02 0.573E+02 -.294E+02   0.528E+02 -.463E+02 0.186E+02   -.115E+02 -.110E+02 0.108E+02   -.432E-03 0.281E-03 0.110E-02
   0.408E+02 -.559E+02 -.308E+02   -.517E+02 0.451E+02 0.198E+02   0.109E+02 0.108E+02 0.110E+02   0.393E-03 -.319E-03 0.101E-02
   -.431E+02 -.571E+02 0.293E+02   0.543E+02 0.469E+02 -.188E+02   -.112E+02 0.102E+02 -.105E+02   -.318E-03 -.369E-03 -.118E-02
   0.380E+02 0.467E+02 0.254E+02   -.497E+02 -.346E+02 -.142E+02   0.117E+02 -.121E+02 -.112E+02   0.406E-03 0.344E-03 -.114E-02
   -.266E+02 -.379E+02 0.501E+02   0.154E+02 0.494E+02 -.385E+02   0.111E+02 -.115E+02 -.116E+02   0.106E-02 -.374E-03 0.375E-03
   -.283E+02 0.443E+02 -.598E+02   0.183E+02 -.559E+02 0.494E+02   0.100E+02 0.116E+02 0.105E+02   0.108E-02 0.331E-03 -.238E-03
   0.262E+02 -.383E+02 -.457E+02   -.153E+02 0.497E+02 0.338E+02   -.110E+02 -.114E+02 0.120E+02   -.114E-02 -.472E-03 -.381E-03
   0.300E+02 0.443E+02 0.597E+02   -.193E+02 -.556E+02 -.496E+02   -.107E+02 0.113E+02 -.101E+02   -.111E-02 0.338E-03 0.331E-03
   -.583E+02 0.309E+02 0.443E+02   0.482E+02 -.205E+02 -.555E+02   0.101E+02 -.104E+02 0.112E+02   -.260E-03 -.113E-02 0.265E-03
   0.484E+02 0.255E+02 -.380E+02   -.367E+02 -.142E+02 0.495E+02   -.117E+02 -.113E+02 -.116E+02   0.252E-03 -.126E-02 -.405E-03
   0.592E+02 -.291E+02 0.431E+02   -.486E+02 0.187E+02 -.548E+02   -.106E+02 0.104E+02 0.118E+02   0.329E-03 0.107E-02 0.343E-03
   -.597E+02 -.269E+02 -.424E+02   0.492E+02 0.161E+02 0.537E+02   0.105E+02 0.109E+02 -.114E+02   -.336E-03 0.105E-02 -.342E-03
   0.413E+02 -.572E+02 0.293E+02   -.528E+02 0.462E+02 -.186E+02   0.115E+02 0.111E+02 -.108E+02   0.451E-03 -.271E-03 -.109E-02
   -.409E+02 0.560E+02 0.307E+02   0.518E+02 -.452E+02 -.198E+02   -.109E+02 -.108E+02 -.110E+02   -.417E-03 0.329E-03 -.100E-02
   0.431E+02 0.571E+02 -.294E+02   -.543E+02 -.469E+02 0.189E+02   0.112E+02 -.102E+02 0.105E+02   0.332E-03 0.345E-03 0.118E-02
   -.380E+02 -.467E+02 -.254E+02   0.497E+02 0.346E+02 0.142E+02   -.117E+02 0.121E+02 0.112E+02   -.398E-03 -.352E-03 0.116E-02
   0.266E+02 0.379E+02 -.501E+02   -.154E+02 -.494E+02 0.385E+02   -.111E+02 0.115E+02 0.116E+02   -.107E-02 0.355E-03 -.390E-03
   0.283E+02 -.443E+02 0.599E+02   -.183E+02 0.559E+02 -.494E+02   -.100E+02 -.116E+02 -.105E+02   -.110E-02 -.321E-03 0.232E-03
   -.263E+02 0.383E+02 0.457E+02   0.153E+02 -.497E+02 -.338E+02   0.110E+02 0.114E+02 -.120E+02   0.116E-02 0.482E-03 0.364E-03
   -.299E+02 -.443E+02 -.596E+02   0.192E+02 0.556E+02 0.494E+02   0.107E+02 -.113E+02 0.102E+02   0.111E-02 -.331E-03 -.325E-03
 -----------------------------------------------------------------------------------------------
   -.987E-02 0.604E-01 0.152E-01   0.227E-12 -.206E-12 -.924E-13   0.116E-01 -.593E-01 -.103E-01   -.182E-03 0.325E-03 0.334E-03
 
 
 POSITION                                       TOTAL-FORCE (eV/Angst)
 -----------------------------------------------------------------------------------
      6.03533      3.00506     -1.51621        -0.008692      0.005866     -0.000847
      6.03160     -3.04180     -4.55791        -0.001256     -0.006525     -0.004043
      3.03054     -1.52029     -6.05691         0.004364     -0.004969      0.000240
      3.01597      1.51762      0.00390         0.005282     -0.001663     -0.002224
      4.52616     -0.00639     -3.03522         0.002843      0.016178     -0.018529
      1.52451     -0.00369     -9.06180         0.004668     -0.002231      0.002689
     -0.00160      3.02670     -4.53398         0.008705     -0.006333      0.000841
      0.00216      9.07363     -1.49216         0.001292      0.006569      0.003565
      3.00344      7.55216      0.00666        -0.004778      0.004783     -0.000791
      3.01789      4.51415     -6.05392        -0.005439      0.001499      0.001999
      1.50756      6.03788     -3.01494        -0.002550     -0.016120      0.018453
      4.50935      6.03536      3.01163        -0.005149      0.002419     -0.002582
      9.04550      3.01022     -3.03577        -0.000132     -0.000174      0.000433
      3.01687      3.01579     -3.02505        -0.000252     -0.000295      0.000463
      9.03448      3.01670      3.01159        -0.000037      0.000437      0.000202
      9.05119     -3.03357     -3.04378         0.000046     -0.000535      0.000428
      6.02287      6.03815     -0.00275         0.000714      0.000621      0.000892
      6.03952     -0.01205     -6.05817         0.000591     -0.000785      0.000487
      6.02854     -0.00563     -0.01073         0.001015      0.000590     -0.000284
      6.01194      6.04482      6.04477        -0.000032      0.000534      0.000626
      6.01478      3.01405      1.50767         0.001238     -0.019764      0.000606
     -0.00303      3.00663     -1.50684         0.000447      0.011770     -0.013100
      3.03318      1.50222     -6.06627        -0.005797     -0.016820     -0.008805
     -3.00492      4.53068     -6.05304         0.001789      0.004320     -0.006250
      7.53994      0.01115     -3.03312        -0.004553      0.003989     -0.001181
      4.52023      6.03141     -3.00011        -0.006766     -0.019768      0.000420
      0.01914      3.01804     -7.55784        -0.001267      0.020955     -0.000983
      6.03678      3.02504     -4.54332        -0.000073     -0.011295      0.013670
      3.00059      4.52957      0.01626         0.004739      0.016547      0.007342
      9.03875      1.50107      0.00294        -0.003061     -0.004089      0.006103
     -1.50620      6.02074     -3.01691         0.004292     -0.003174      0.000693
      1.51347      0.00048     -3.05003         0.008267      0.019844     -0.000286
      1.14422      3.58725     -2.53643        -0.014183     -0.012534      0.000319
     -1.13884      2.42276     -2.54594        -0.004730     -0.004432      0.002702
      4.86736      3.58394      2.53695        -0.010879      0.010829      0.010730
      1.13828      8.48153     -3.49199        -0.006564      0.006624      0.002520
     -2.41478      3.50232     -4.93160         0.006679      0.001995     -0.001518
      2.43305      9.55028     -1.16283        -0.001985     -0.001036      0.004379
      3.62407      2.53675     -7.21024         0.005206      0.005582      0.001958
      2.42930      2.53025     -4.94556         0.002628      0.005050      0.004437
      3.48419      7.15046     -2.40602        -0.000492      0.003120      0.010017
      3.49629      4.87821     -3.59454         0.004370      0.012550      0.002403
      8.56658     -1.11723     -2.44258        -0.002259      0.006433     -0.001541
      2.52365      7.21567      2.44772        -0.014179     -0.004010      0.002673
      4.88955      2.44443     -3.51362         0.014952      0.013106     -0.002263
      7.17256      3.60897     -3.50418         0.003490      0.004098     -0.002542
      1.16679      2.44815     -8.58716         0.010169     -0.010386     -0.010580
      4.89581     -2.44941     -2.55819         0.008105     -0.006785     -0.001729
      8.44859      2.52936     -1.11856        -0.005815     -0.001785      0.001581
      3.60073     -3.51846     -4.88729         0.002328      0.000698     -0.005133
      2.40974      3.49505      1.16034        -0.004334     -0.005493     -0.001365
      3.60440      3.50153     -1.10451        -0.002812     -0.004745     -0.003373
      2.54938     -1.11860     -3.64419        -0.000227     -0.002371     -0.010563
      2.53765      1.15363     -2.45558        -0.004642     -0.012176     -0.003218
     -2.53297      7.14913     -3.60745         0.002199     -0.006395      0.001913
      3.51019     -1.18375     -8.49768         0.014529      0.003772     -0.002663
      4.18423      0.48054     -5.47554        -0.004230      0.003954      0.000331
      1.92014      0.46421     -6.66844         0.017606      0.005924      0.001966
     -4.15816      5.55417     -5.47362         0.004942     -0.000405      0.002538
      4.15807     -0.46961     -0.59889         0.007864      0.009275     -0.007411
      6.58512      4.16545      0.48342         0.001930      0.012747     -0.000142
      5.45528      1.86472      0.47581         0.000980      0.010959      0.010740
      0.58806      1.86043     -0.48089        -0.004000     -0.009560      0.014310
      5.44010     -1.93147     -6.54452         0.003072     -0.003732      0.009726
      6.49940      0.59775     -1.91423         0.001711      0.001142     -0.006109
      6.52055     -0.57956     -4.19209         0.004270      0.002990      0.007730
     -0.46363      0.58127    -10.17295         0.000528      0.003050      0.006047
      5.55453      5.44206     -1.86035        -0.005598     -0.005629      0.001043
      1.84949      5.55125     -0.57450         0.003872     -0.003655     -0.000273
      4.11360      5.56765      0.61820        -0.018235     -0.006076     -0.001412
     10.19208      0.47761     -0.57643        -0.003602     -0.000181     -0.002317
      1.87584      6.50142     -5.45115        -0.008026     -0.009571      0.007818
     -0.55123      1.86664     -6.53379        -0.002180     -0.013989      0.000897
      0.57858      4.16732     -6.52577        -0.000669     -0.011049     -0.011180
      5.44586      4.17132     -5.56926         0.003229      0.008337     -0.013677
      0.59383      7.96311      0.49441        -0.003622      0.003914     -0.009096
     -0.46575      5.43416     -4.13588        -0.001892     -0.001500      0.005849
     -0.48662      6.61150     -1.85811        -0.004765     -0.003100     -0.007633
      6.49751      5.45061      4.12301        -0.000821     -0.002663     -0.007303
      0.47914      0.58993     -4.18960         0.005623      0.004727     -0.001832
 -----------------------------------------------------------------------------------
    total drift:                                0.001528      0.001419      0.005261


--------------------------------------------------------------------------------------------------------



  FREE ENERGIE OF THE ION-ELECTRON SYSTEM (eV)
  ---------------------------------------------------
  free  energy   TOTEN  =      -923.84293165 eV

  energy  without entropy=     -923.84293165  energy(sigma->0) =     -923.84293165
 


--------------------------------------------------------------------------------------------------------


    POTLOK:  cpu time    3.1478: real time    3.1480


--------------------------------------------------------------------------------------------------------




--------------------------------------------------------------------------------------------------------


  
 reached required accuracy - stopping structural energy minimisation
     LOOP+:  cpu time19381.7536: real time19383.3106
    4ORBIT:  cpu time    0.0000: real time    0.0000
 


 total charge     
 
# of ion       s       p       d       tot
------------------------------------------
    1        2.025   5.879   0.247   8.151
    2        2.025   5.878   0.247   8.150
    3        2.025   5.878   0.247   8.150
    4        2.025   5.879   0.248   8.152
    5        2.025   5.879   0.249   8.153
    6        2.026   5.879   0.249   8.153
    7        2.025   5.879   0.247   8.151
    8        2.025   5.878   0.247   8.150
    9        2.025   5.878   0.247   8.150
   10        2.025   5.879   0.248   8.152
   11        2.025   5.879   0.249   8.153
   12        2.026   5.879   0.249   8.153
   13        0.247   6.242   2.817   9.307
   14        0.246   6.241   2.815   9.302
   15        0.247   6.243   2.816   9.307
   16        0.247   6.243   2.819   9.309
   17        0.247   6.242   2.815   9.304
   18        0.247   6.243   2.820   9.310
   19        0.247   6.242   2.813   9.302
   20        0.247   6.242   2.817   9.306
   21        0.650   0.989   0.000   1.639
   22        0.649   0.988   0.000   1.637
   23        0.650   0.990   0.000   1.640
   24        0.650   0.989   0.000   1.640
   25        0.650   0.990   0.000   1.640
   26        0.650   0.990   0.000   1.640
   27        0.650   0.989   0.000   1.639
   28        0.649   0.988   0.000   1.637
   29        0.650   0.990   0.000   1.640
   30        0.650   0.989   0.000   1.640
   31        0.650   0.990   0.000   1.640
   32        0.650   0.989   0.000   1.640
   33        1.563   3.620   0.000   5.183
   34        1.563   3.621   0.000   5.184
   35        1.564   3.623   0.000   5.187
   36        1.563   3.620   0.000   5.184
   37        1.562   3.624   0.000   5.187
   38        1.564   3.623   0.000   5.187
   39        1.563   3.621   0.000   5.184
   40        1.562   3.621   0.000   5.184
   41        1.562   3.624   0.000   5.186
   42        1.564   3.617   0.000   5.180
   43        1.562   3.622   0.000   5.185
   44        1.564   3.621   0.000   5.185
   45        1.563   3.620   0.000   5.183
   46        1.563   3.621   0.000   5.184
   47        1.564   3.623   0.000   5.187
   48        1.563   3.620   0.000   5.184
   49        1.562   3.624   0.000   5.187
   50        1.564   3.623   0.000   5.187
   51        1.563   3.621   0.000   5.184
   52        1.562   3.621   0.000   5.183
   53        1.562   3.624   0.000   5.186
   54        1.564   3.617   0.000   5.180
   55        1.562   3.622   0.000   5.185
   56        1.564   3.621   0.000   5.185
   57        1.563   3.622   0.000   5.185
   58        1.562   3.624   0.000   5.187
   59        1.564   3.618   0.000   5.182
   60        1.564   3.620   0.000   5.183
   61        1.564   3.620   0.000   5.184
   62        1.563   3.624   0.000   5.187
   63        1.563   3.622   0.000   5.186
   64        1.562   3.623   0.000   5.185
   65        1.563   3.626   0.000   5.188
   66        1.563   3.616   0.000   5.179
   67        1.562   3.621   0.000   5.183
   68        1.564   3.623   0.000   5.186
   69        1.563   3.622   0.000   5.185
   70        1.562   3.624   0.000   5.187
   71        1.564   3.618   0.000   5.182
   72        1.564   3.620   0.000   5.183
   73        1.564   3.620   0.000   5.184
   74        1.563   3.624   0.000   5.187
   75        1.563   3.622   0.000   5.186
   76        1.562   3.623   0.000   5.185
   77        1.563   3.626   0.000   5.188
   78        1.563   3.616   0.000   5.179
   79        1.562   3.621   0.000   5.183
   80        1.564   3.623   0.000   5.186
--------------------------------------------------
tot        109.109 306.188  25.504 440.801
 


 magnetization (x)
 
# of ion       s       p       d       tot
------------------------------------------
    1        0.000  -0.000   0.000   0.000
    2        0.000  -0.000   0.000  -0.000
    3        0.000  -0.000   0.000   0.000
    4        0.000  -0.000   0.000  -0.000
    5        0.000  -0.000   0.000  -0.000
    6        0.000  -0.000   0.000   0.000
    7        0.000  -0.000   0.000   0.000
    8        0.000  -0.000   0.000  -0.000
    9        0.000  -0.000   0.000   0.000
   10        0.000  -0.000   0.000  -0.000
   11        0.000  -0.000   0.000  -0.000
   12        0.000  -0.000   0.000   0.000
   13        0.007   0.012   1.838   1.857
   14        0.007   0.012   1.837   1.856
   15        0.007   0.012   1.833   1.853
   16        0.007   0.012   1.836   1.855
   17        0.007   0.012   1.836   1.855
   18        0.007   0.012   1.837   1.857
   19        0.006   0.012   1.832   1.851
   20        0.007   0.012   1.836   1.855
   21        0.003   0.005   0.000   0.008
   22        0.002   0.003   0.000   0.005
   23        0.002   0.003   0.000   0.005
   24        0.003   0.005   0.000   0.008
   25        0.003   0.005   0.000   0.008
   26        0.003   0.004   0.000   0.007
   27        0.003   0.005   0.000   0.008
   28        0.002   0.003   0.000   0.005
   29        0.002   0.003   0.000   0.005
   30        0.003   0.005   0.000   0.008
   31        0.003   0.005   0.000   0.008
   32        0.003   0.004   0.000   0.007
   33       -0.000  -0.003   0.000  -0.003
   34       -0.000  -0.003   0.000  -0.004
   35       -0.000  -0.007   0.000  -0.007
   36       -0.000  -0.005   0.000  -0.006
   37        0.000   0.012   0.000   0.012
   38       -0.000  -0.003   0.000  -0.004
   39       -0.000  -0.003   0.000  -0.003
   40        0.000   0.012   0.000   0.012
   41        0.000   0.011   0.000   0.011
   42       -0.000  -0.007   0.000  -0.007
   43        0.000   0.012   0.000   0.012
   44       -0.000  -0.007   0.000  -0.007
   45       -0.000  -0.003   0.000  -0.003
   46       -0.000  -0.003   0.000  -0.004
   47       -0.000  -0.007   0.000  -0.007
   48       -0.000  -0.005   0.000  -0.005
   49        0.000   0.012   0.000   0.012
   50       -0.000  -0.003   0.000  -0.004
   51       -0.000  -0.003   0.000  -0.004
   52        0.000   0.012   0.000   0.012
   53        0.000   0.011   0.000   0.011
   54       -0.000  -0.007   0.000  -0.007
   55        0.000   0.012   0.000   0.012
   56       -0.000  -0.007   0.000  -0.007
   57       -0.000  -0.002   0.000  -0.002
   58        0.000   0.012   0.000   0.012
   59       -0.000  -0.007   0.000  -0.007
   60       -0.000  -0.006   0.000  -0.006
   61       -0.000  -0.006   0.000  -0.007
   62       -0.000  -0.002   0.000  -0.002
   63       -0.000  -0.003   0.000  -0.004
   64        0.000   0.012   0.000   0.012
   65        0.000   0.011   0.000   0.011
   66       -0.000  -0.007   0.000  -0.008
   67        0.000   0.012   0.000   0.012
   68       -0.000  -0.002   0.000  -0.003
   69       -0.000  -0.002   0.000  -0.002
   70        0.000   0.012   0.000   0.012
   71       -0.000  -0.007   0.000  -0.007
   72       -0.000  -0.005   0.000  -0.006
   73       -0.000  -0.006   0.000  -0.007
   74       -0.000  -0.002   0.000  -0.002
   75       -0.000  -0.003   0.000  -0.004
   76        0.000   0.012   0.000   0.012
   77        0.000   0.011   0.000   0.012
   78       -0.000  -0.007   0.000  -0.008
   79        0.000   0.012   0.000   0.012
   80       -0.000  -0.002   0.000  -0.003
--------------------------------------------------
tot          0.083   0.184  14.688  14.954
 

 total amount of memory used by VASP MPI-rank0   501956. kBytes
=======================================================================

   base      :      30000. kBytes
   nonlr-proj:      25225. kBytes
   fftplans  :       9819. kBytes
   grid      :      38768. kBytes
   one-center:        622. kBytes
   wavefun   :     397522. kBytes
 
  
  
 General timing and accounting informations for this job:
 ========================================================
  
                  Total CPU time used (sec):    19461.299
                            User time (sec):    19424.456
                          System time (sec):       36.842
                         Elapsed time (sec):    19463.790
  
                   Maximum memory used (kb):      668616.
                   Average memory used (kb):           0.
  
                          Minor page faults:       430110
                          Major page faults:           14
                 Voluntary context switches:         1049
