       N       E                     dE             d eps       ncg     rms          ort
DAV:   1     0.266788774884E+04    0.26679E+04   -0.13893E+05  8568   0.161E+03
DAV:   2     0.505333405276E+02   -0.26174E+04   -0.24081E+04  8568   0.414E+02
DAV:   3    -0.256719291672E+03   -0.30725E+03   -0.30253E+03  8568   0.162E+02
DAV:   4    -0.267739263795E+03   -0.11020E+02   -0.10743E+02  8568   0.303E+01
DAV:   5    -0.268194467476E+03   -0.45520E+00   -0.45128E+00  8568   0.483E+00
SDA:   6    -0.125117137222E+03    0.14308E+03   -0.45128E+00  8568   0.760E+03 0.000E+00
CGA:   7    -0.184966230675E+03   -0.59849E+02   -0.87146E+02  8568   0.459E+03 0.207E+02
CGA:   8    -0.205533484971E+03   -0.20567E+02   -0.12973E+02  8568   0.455E+03-0.196E+02
CGA:   9    -0.203449636480E+03    0.20838E+01   -0.25369E+02  8568   0.181E+03-0.792E+02
CGA:  10    -0.211374586893E+03   -0.79250E+01   -0.42553E+01  8568   0.169E+03 0.149E+03
CGA:  11    -0.210120018272E+03    0.12546E+01   -0.11609E+02  8568   0.366E+03-0.866E+02
CGA:  12    -0.213698621313E+03   -0.35786E+01   -0.20615E+02  8568   0.137E+03-0.874E+02
CGA:  13    -0.219309319398E+03   -0.56107E+01   -0.25649E+01  8568   0.541E+02 0.714E+02
CGA:  14    -0.223539301815E+03   -0.42300E+01   -0.16678E+01  8568   0.164E+02-0.221E+02
CGA:  15    -0.223504918786E+03    0.34383E-01   -0.21947E+00  8568   0.461E+02-0.106E+02
CGA:  16    -0.222324360545E+03    0.11806E+01   -0.23803E+01  8568   0.954E+02-0.349E+02
CGA:  17    -0.221650236845E+03    0.67412E+00   -0.34898E+01  8568   0.183E+03-0.148E+03
CGA:  18    -0.218956476654E+03    0.26938E+01   -0.89267E+01  8568   0.228E+03-0.114E+03
CGA:  19    -0.220916760376E+03   -0.19603E+01   -0.10707E+02  8568   0.136E+03-0.142E+03
CGA:  20    -0.222887189382E+03   -0.19704E+01   -0.55138E+01  8568   0.812E+02-0.587E+02
CGA:  21    -0.222132998332E+03    0.75419E+00   -0.17198E+01  8568   0.282E+03-0.243E+02
CGA:  22    -0.213781787113E+03    0.83512E+01   -0.53998E+01  8568   0.286E+03-0.165E+03
CGA:  23    -0.219466012966E+03   -0.56842E+01   -0.16813E+02  8568   0.177E+03 0.976E+01
CGA:  24    -0.219396754632E+03    0.69258E-01   -0.10138E+02  8568   0.167E+03 0.224E+02
CGA:  25    -0.219608923619E+03   -0.21217E+00   -0.83518E+01  8568   0.177E+03-0.115E+03
CGA:  26    -0.226189118693E+03   -0.65802E+01   -0.71526E+01  8568   0.431E+02-0.862E+02
CGA:  27    -0.226770351783E+03   -0.58123E+00   -0.61325E+00  8568   0.212E+02-0.791E+01
CGA:  28    -0.226927314639E+03   -0.15696E+00   -0.50564E+00  8568   0.162E+02-0.904E+01
CGA:  29    -0.227139142148E+03   -0.21183E+00   -0.29747E+00  8568   0.918E+01-0.279E+01
CGA:  30    -0.227330294520E+03   -0.19115E+00   -0.15787E+00  8568   0.404E+01 0.143E+01
CGA:  31    -0.227418010899E+03   -0.87716E-01   -0.58984E-01  8568   0.162E+01 0.212E+01
CGA:  32    -0.227465897141E+03   -0.47886E-01   -0.47920E-01  8568   0.983E+00-0.147E-01
CGA:  33    -0.227543055620E+03   -0.77158E-01   -0.76441E-01  8568   0.305E+01-0.169E+00
CGA:  34    -0.227740284618E+03   -0.19723E+00   -0.19778E+00  8568   0.673E+01 0.130E+00
CGA:  35    -0.227873574210E+03   -0.13329E+00   -0.17397E+00  8568   0.453E+00-0.106E+01
CGA:  36    -0.227884450477E+03   -0.10876E-01   -0.11503E-01  8568   0.295E+00-0.142E-01
CGA:  37    -0.227936822815E+03   -0.52372E-01   -0.51626E-01  8568   0.409E+00 0.703E-02
CGA:  38    -0.227951531874E+03   -0.14709E-01   -0.14867E-01  8568   0.690E-01-0.245E-02
CGA:  39    -0.227958788540E+03   -0.72567E-02   -0.72472E-02  8568   0.256E+00 0.300E-03
CGA:  40    -0.227976667823E+03   -0.17879E-01   -0.17596E-01  8568   0.187E+00-0.747E-02
CGA:  41    -0.227982985512E+03   -0.63177E-02   -0.62280E-02  8568   0.514E-01 0.255E-02
CGA:  42    -0.227989394493E+03   -0.64090E-02   -0.60940E-02  8568   0.234E+00 0.677E-02
CGA:  43    -0.227999596604E+03   -0.10202E-01   -0.64231E-02  8568   0.361E-01 0.137E+00
CGA:  44    -0.228000921288E+03   -0.13247E-02   -0.13125E-02  8568   0.364E-01 0.147E-03
CGA:  45    -0.228006561551E+03   -0.56403E-02   -0.54920E-02  8568   0.101E+00 0.182E-02
CGA:  46    -0.228011230279E+03   -0.46687E-02   -0.45729E-02  8568   0.962E-02 0.865E-03
CGA:  47    -0.228012306290E+03   -0.10760E-02   -0.10571E-02  8568   0.405E-01 0.460E-03
CGA:  48    -0.228015696286E+03   -0.33900E-02   -0.34371E-02  8568   0.537E-01-0.804E-02
CGA:  49    -0.228017368577E+03   -0.16723E-02   -0.16265E-02  8568   0.206E-01 0.139E-02
CGA:  50    -0.228017928404E+03   -0.55983E-03   -0.61352E-03  8568   0.162E-01-0.126E-02
CGA:  51    -0.228019772934E+03   -0.18445E-02   -0.21855E-02  8568   0.484E-01-0.522E-02
CGA:  52    -0.228020563850E+03   -0.79092E-03   -0.68924E-03  8568   0.303E-01 0.392E-02
CGA:  53    -0.228021074764E+03   -0.51091E-03   -0.54519E-03  8568   0.603E-02-0.169E-02
CGA:  54    -0.228021241694E+03   -0.16693E-03   -0.17143E-03  8568   0.810E-02-0.845E-04
CGA:  55    -0.228021907407E+03   -0.66571E-03   -0.66517E-03  8568   0.236E-01 0.266E-04
CGA:  56    -0.228022536098E+03   -0.62869E-03   -0.48950E-03  8568   0.157E-01 0.561E-02
CGA:  57    -0.228022942656E+03   -0.40656E-03   -0.36013E-03  8568   0.880E-02 0.214E-02
CGA:  58    -0.228023142506E+03   -0.19985E-03   -0.20299E-03  8568   0.726E-02-0.850E-04
CGA:  59    -0.228023412836E+03   -0.27033E-03   -0.28526E-03  8568   0.199E-01-0.271E-04
CGA:  60    -0.228024428172E+03   -0.10153E-02   -0.88294E-03  8568   0.176E-01 0.108E-04
CGA:  61    -0.228024663665E+03   -0.23549E-03   -0.18088E-03  8568   0.101E-01 0.486E-02
CGA:  62    -0.228024848527E+03   -0.18486E-03   -0.17054E-03  8568   0.745E-02 0.990E-03
CGA:  63    -0.228024985317E+03   -0.13679E-03   -0.13970E-03  8568   0.984E-02-0.869E-04
CGA:  64    -0.228025187942E+03   -0.20263E-03   -0.22734E-03  8568   0.207E-01-0.578E-03
CGA:  65    -0.228025745525E+03   -0.55758E-03   -0.56130E-03  8568   0.208E-01 0.744E-03
CGA:  66    -0.228025957696E+03   -0.21217E-03   -0.15814E-03  8568   0.863E-02 0.695E-02
CGA:  67    -0.228026075667E+03   -0.11797E-03   -0.10568E-03  8568   0.469E-02 0.121E-02
CGA:  68    -0.228026160067E+03   -0.84400E-04   -0.79696E-04  8568   0.755E-02 0.243E-03
CGA:  69    -0.228026284630E+03   -0.12456E-03   -0.11667E-03  8568   0.139E-01 0.413E-03
CGA:  70    -0.228026481956E+03   -0.19733E-03   -0.19074E-03  8568   0.216E-01 0.527E-03
CGA:  71    -0.228026775034E+03   -0.29308E-03   -0.27652E-03  8568   0.277E-01 0.187E-02
CGA:  72    -0.228027119601E+03   -0.34457E-03   -0.25739E-03  8568   0.236E-01 0.100E-01
CGA:  73    -0.228027464408E+03   -0.34481E-03   -0.27651E-03  8568   0.133E-01 0.748E-02
SDA:  74    -0.228027643947E+03   -0.17954E-03   -0.17786E-03  8568   0.677E-02 0.201E-03
CGA:  75    -0.228027915429E+03   -0.27148E-03   -0.27152E-03  8568   0.110E-01-0.992E-05
CGA:  76    -0.228030643996E+03   -0.27286E-02   -0.14876E-03  8568   0.274E-01-0.133E-03
CGA:  77    -0.228031532127E+03   -0.88813E-03   -0.93239E-03  8568   0.655E-02-0.612E-03
CGA:  78    -0.228031878195E+03   -0.34607E-03   -0.34593E-03  8568   0.762E-02-0.486E-05
CGA:  79    -0.228033087782E+03   -0.12096E-02   -0.12273E-02  8568   0.702E-02-0.328E-03
CGA:  80    -0.228033278982E+03   -0.19120E-03   -0.20158E-03  8568   0.358E-02-0.208E-03
CGA:  81    -0.228033642809E+03   -0.36383E-03   -0.39359E-03  8568   0.148E-01-0.604E-03
CGA:  82    -0.228034174799E+03   -0.53199E-03   -0.47839E-03  8568   0.121E-01 0.887E-03
CGA:  83    -0.228034415135E+03   -0.24034E-03   -0.27884E-03  8568   0.338E-02-0.125E-02
CGA:  84    -0.228034528898E+03   -0.11376E-03   -0.11199E-03  8568   0.284E-02 0.186E-04
CGA:  85    -0.228034766113E+03   -0.23721E-03   -0.25558E-03  8568   0.132E-01-0.577E-03
CGA:  86    -0.228035001874E+03   -0.23576E-03   -0.20890E-03  8568   0.150E-01 0.112E-02
CGA:  87    -0.228035232324E+03   -0.23045E-03   -0.36120E-03  8568   0.328E-02-0.394E-02
CGA:  88    -0.228035288889E+03   -0.56565E-04   -0.56486E-04  8568   0.202E-02 0.145E-05
CGA:  89    -0.228035426711E+03   -0.13782E-03   -0.14090E-03  8568   0.824E-02-0.198E-03
CGA:  90    -0.228035642610E+03   -0.21590E-03   -0.16970E-03  8568   0.119E-01 0.155E-02
CGA:  91    -0.228035887873E+03   -0.24526E-03   -0.23422E-03  8568   0.574E-02 0.906E-03
CGA:  92    -0.228035982231E+03   -0.94358E-04   -0.11501E-03  8568   0.315E-02-0.801E-03
CGA:  93    -0.228036069684E+03   -0.87454E-04   -0.88193E-04  8568   0.388E-02 0.516E-05
CGA:  94    -0.228036187263E+03   -0.11758E-03   -0.10215E-03  8568   0.478E-02 0.324E-03
CGA:  95    -0.228036331838E+03   -0.14458E-03   -0.12754E-03  8568   0.706E-02 0.425E-03
CGA:  96    -0.228036486524E+03   -0.15469E-03   -0.15749E-03  8568   0.741E-02 0.655E-04
CGA:  97    -0.228036626307E+03   -0.13978E-03   -0.16720E-03  8568   0.406E-02-0.496E-03
CGA:  98    -0.228036693216E+03   -0.66909E-04   -0.62908E-04  8568   0.212E-02 0.207E-03
CGA:  99    -0.228036769522E+03   -0.76306E-04   -0.73735E-04  8568   0.469E-02-0.145E-04
CGA: 100    -0.228036884757E+03   -0.11524E-03   -0.10125E-03  8568   0.716E-02 0.401E-03
CGA: 101    -0.228036996212E+03   -0.11145E-03   -0.10619E-03  8568   0.521E-02 0.424E-03
CGA: 102    -0.228037067245E+03   -0.71033E-04   -0.82897E-04  8568   0.327E-02-0.528E-03
CGA: 103    -0.228037119266E+03   -0.52020E-04   -0.55983E-04  8568   0.280E-02-0.105E-03
CGA: 104    -0.228037176423E+03   -0.57157E-04   -0.55515E-04  8568   0.292E-02 0.455E-04
SDA: 105    -0.228037259693E+03   -0.83270E-04   -0.79306E-04  8568   0.530E-02-0.493E-05
CGA: 106    -0.228037379849E+03   -0.12016E-03   -0.12010E-03  8568   0.269E-02-0.256E-05
CGA: 107    -0.228037835064E+03   -0.45521E-03   -0.45196E-03  8568   0.113E-01 0.382E-04
CGA: 108    -0.228038578477E+03   -0.74341E-03   -0.72776E-03  8568   0.566E-02 0.651E-03
CGA: 109    -0.228038720068E+03   -0.14159E-03   -0.14221E-03  8568   0.759E-03-0.198E-04
CGA: 110    -0.228038829779E+03   -0.10971E-03   -0.10817E-03  8568   0.218E-02 0.173E-04
CGA: 111    -0.228038912694E+03   -0.82915E-04   -0.82873E-04  8568   0.635E-03 0.479E-06
CGA: 112    -0.228038933686E+03   -0.20993E-04   -0.21043E-04  8568   0.242E-03 0.301E-06
CGA: 113    -0.228038946114E+03   -0.12428E-04   -0.12430E-04  8568   0.412E-03-0.950E-06
CGA: 114    -0.228038991378E+03   -0.45264E-04   -0.44226E-04  8568   0.356E-03 0.169E-04
CGA: 115    -0.228039002764E+03   -0.11386E-04   -0.11376E-04  8568   0.135E-03 0.454E-06
CGA: 116    -0.228039013595E+03   -0.10831E-04   -0.10849E-04  8568   0.243E-03-0.110E-05
CGA: 117    -0.228039043205E+03   -0.29610E-04   -0.30374E-04  8568   0.400E-03-0.140E-04
CGA: 118    -0.228039052834E+03   -0.96292E-05   -0.92254E-05  8568   0.611E-04 0.941E-05
   1 F= -.22803905E+03 E0= -.22803043E+03  d E =-.228039E+03  mag=    18.0000
