       N       E                     dE             d eps       ncg     rms          ort
DAV:   1     0.333493646996E+04    0.33349E+04   -0.14849E+05  6480   0.180E+03
DAV:   2     0.225458953969E+02   -0.33124E+04   -0.30401E+04  6480   0.483E+02
DAV:   3    -0.493321062626E+03   -0.51587E+03   -0.50110E+03  6480   0.205E+02
DAV:   4    -0.525275823449E+03   -0.31955E+02   -0.31015E+02  6480   0.471E+01
DAV:   5    -0.527505918606E+03   -0.22301E+01   -0.21888E+01  6480   0.887E+00
SDA:   6    -0.207277863363E+03    0.32023E+03   -0.21888E+01  6480   0.304E+04 0.000E+00
CGA:   7    -0.357256721239E+03   -0.14998E+03   -0.30236E+03  6480   0.317E+04-0.427E+03
CGA:   8    -0.354741591170E+03    0.25151E+01   -0.17993E+03  6480   0.492E+03-0.447E+03
CGA:   9    -0.373693053545E+03   -0.18951E+02   -0.28844E+02  6480   0.482E+03-0.549E+02
CGA:  10    -0.400699764061E+03   -0.27007E+02   -0.25475E+02  6480   0.546E+02 0.585E+02
CGA:  11    -0.403320254832E+03   -0.26205E+01   -0.18454E+01  6480   0.542E+02-0.123E+01
CGA:  12    -0.404551629116E+03   -0.12314E+01   -0.82352E+00  6480   0.621E+02 0.267E+02
CGA:  13    -0.405099506040E+03   -0.54788E+00   -0.22522E+01  6480   0.100E+03-0.800E+02
CGA:  14    -0.406592177403E+03   -0.14927E+01   -0.72809E+01  6480   0.223E+02-0.192E+02
CGA:  15    -0.407056666897E+03   -0.46449E+00   -0.23303E+00  6480   0.193E+02 0.178E+02
CGA:  16    -0.407441945872E+03   -0.38528E+00   -0.19601E+00  6480   0.159E+02 0.184E+02
CGA:  17    -0.407832396626E+03   -0.39045E+00   -0.20302E+00  6480   0.118E+02 0.145E+02
CGA:  18    -0.408239052206E+03   -0.40666E+00   -0.22356E+00  6480   0.675E+01 0.932E+01
CGA:  19    -0.408626411440E+03   -0.38736E+00   -0.25053E+00  6480   0.277E+01 0.322E+01
CGA:  20    -0.409004215638E+03   -0.37780E+00   -0.36057E+00  6480   0.988E+01-0.939E-01
CGA:  21    -0.409484900624E+03   -0.48068E+00   -0.60797E+00  6480   0.169E+02 0.123E+01
CGA:  22    -0.409915021383E+03   -0.43012E+00   -0.53574E+00  6480   0.391E+01-0.479E+01
CGA:  23    -0.410010875626E+03   -0.95854E-01   -0.13716E+00  6480   0.382E+01-0.497E+00
CGA:  24    -0.410323123905E+03   -0.31225E+00   -0.26558E+00  6480   0.255E+01-0.414E+00
CGA:  25    -0.410435188758E+03   -0.11206E+00   -0.12172E+00  6480   0.285E+01-0.576E-01
CGA:  26    -0.410589343244E+03   -0.15415E+00   -0.15706E+00  6480   0.191E+01 0.802E-02
CGA:  27    -0.410690812798E+03   -0.10147E+00   -0.10906E+00  6480   0.170E+01-0.405E-01
CGA:  28    -0.410830471221E+03   -0.13966E+00   -0.13853E+00  6480   0.162E+01-0.221E-01
CGA:  29    -0.410921418020E+03   -0.90947E-01   -0.94193E-01  6480   0.116E+01-0.148E-02
CGA:  30    -0.411026483426E+03   -0.10507E+00   -0.10499E+00  6480   0.189E+01-0.570E-02
CGA:  31    -0.411188883422E+03   -0.16240E+00   -0.16153E+00  6480   0.197E+01-0.345E-01
CGA:  32    -0.411274111268E+03   -0.85228E-01   -0.91241E-01  6480   0.930E+00-0.830E-01
CGA:  33    -0.411332377165E+03   -0.58266E-01   -0.61154E-01  6480   0.824E+00 0.150E-01
CGA:  34    -0.411423549934E+03   -0.91173E-01   -0.99152E-01  6480   0.687E+00-0.328E+00
CGA:  35    -0.411439594935E+03   -0.16045E-01   -0.16277E-01  6480   0.963E+00-0.898E-02
CGA:  36    -0.411487401089E+03   -0.47806E-01   -0.36885E-01  6480   0.651E+00 0.237E+00
CGA:  37    -0.411513725391E+03   -0.26324E-01   -0.24410E-01  6480   0.653E+00 0.114E-01
CGA:  38    -0.411538019918E+03   -0.24295E-01   -0.27719E-01  6480   0.115E+01-0.502E-01
CGA:  39    -0.411569137711E+03   -0.31118E-01   -0.31142E-01  6480   0.815E+00 0.304E-01
CGA:  40    -0.411587192281E+03   -0.18055E-01   -0.15086E-01  6480   0.417E+00 0.124E+00
CGA:  41    -0.411597828477E+03   -0.10636E-01   -0.10024E-01  6480   0.414E+00 0.144E-01
CGA:  42    -0.411608519082E+03   -0.10691E-01   -0.10857E-01  6480   0.737E+00-0.141E-01
CGA:  43    -0.411623534135E+03   -0.15015E-01   -0.18803E-01  6480   0.119E+01-0.121E+00
CGA:  44    -0.411639953458E+03   -0.16419E-01   -0.14648E-01  6480   0.100E+01 0.107E+00
CGA:  45    -0.411654612678E+03   -0.14659E-01   -0.15837E-01  6480   0.619E+00-0.158E+00
CGA:  46    -0.411661534478E+03   -0.69218E-02   -0.86555E-02  6480   0.662E+00-0.106E+00
CGA:  47    -0.411669234646E+03   -0.77002E-02   -0.64557E-02  6480   0.591E+00 0.667E-01
CGA:  48    -0.411676479980E+03   -0.72453E-02   -0.69205E-02  6480   0.432E+00-0.704E-02
SDA:  49    -0.411680494922E+03   -0.40149E-02   -0.47519E-02  6480   0.407E+00-0.718E-01
CGA:  50    -0.411709026014E+03   -0.28531E-01   -0.29010E-01  6480   0.276E+00-0.199E-01
CGA:  51    -0.411755969011E+03   -0.46943E-01   -0.47551E-01  6480   0.302E+00-0.516E-02
CGA:  52    -0.411775996431E+03   -0.20027E-01   -0.20092E-01  6480   0.109E+00-0.665E-02
CGA:  53    -0.411794074340E+03   -0.18078E-01   -0.17525E-01  6480   0.848E-01 0.488E-02
CGA:  54    -0.411800709889E+03   -0.66355E-02   -0.65891E-02  6480   0.420E-01 0.393E-02
CGA:  55    -0.411813213045E+03   -0.12503E-01   -0.12030E-01  6480   0.633E-01 0.346E-02
CGA:  56    -0.411818339141E+03   -0.51261E-02   -0.50929E-02  6480   0.290E-01-0.472E-02
CGA:  57    -0.411825231488E+03   -0.68923E-02   -0.65493E-02  6480   0.638E-01 0.194E-02
CGA:  58    -0.411832227296E+03   -0.69958E-02   -0.69452E-02  6480   0.206E-01 0.186E-02
CGA:  59    -0.411835821480E+03   -0.35942E-02   -0.40022E-02  6480   0.488E-01-0.434E-02
CGA:  60    -0.411840591103E+03   -0.47696E-02   -0.47958E-02  6480   0.437E-01-0.123E-02
CGA:  61    -0.411843392930E+03   -0.28018E-02   -0.27910E-02  6480   0.215E-01-0.160E-02
CGA:  62    -0.411846940697E+03   -0.35478E-02   -0.40572E-02  6480   0.715E-01-0.482E-02
CGA:  63    -0.411851337578E+03   -0.43969E-02   -0.42964E-02  6480   0.450E-01-0.327E-02
CGA:  64    -0.411853470806E+03   -0.21332E-02   -0.21683E-02  6480   0.323E-01-0.106E-02
CGA:  65    -0.411857848713E+03   -0.43779E-02   -0.43645E-02  6480   0.703E-01 0.601E-03
CGA:  66    -0.411862233408E+03   -0.43847E-02   -0.44873E-02  6480   0.400E-01 0.165E-02
CGA:  67    -0.411865519246E+03   -0.32858E-02   -0.33167E-02  6480   0.484E-01 0.126E-02
CGA:  68    -0.411872255263E+03   -0.67360E-02   -0.66872E-02  6480   0.761E-01 0.737E-03
CGA:  69    -0.411877338458E+03   -0.50832E-02   -0.49442E-02  6480   0.284E-01-0.114E-02
CGA:  70    -0.411879964486E+03   -0.26260E-02   -0.26248E-02  6480   0.567E-01-0.112E-02
CGA:  71    -0.411885666543E+03   -0.57021E-02   -0.57399E-02  6480   0.799E-01-0.178E-02
CGA:  72    -0.411889544667E+03   -0.38781E-02   -0.41916E-02  6480   0.366E-01-0.215E-02
CGA:  73    -0.411892047139E+03   -0.25025E-02   -0.25147E-02  6480   0.283E-01-0.438E-03
CGA:  74    -0.411895860000E+03   -0.38129E-02   -0.38582E-02  6480   0.599E-01-0.111E-02
CGA:  75    -0.411900079843E+03   -0.42198E-02   -0.40944E-02  6480   0.319E-01-0.208E-02
CGA:  76    -0.411901815272E+03   -0.17354E-02   -0.17069E-02  6480   0.254E-01-0.394E-03
CGA:  77    -0.411904419889E+03   -0.26046E-02   -0.26224E-02  6480   0.435E-01-0.515E-03
CGA:  78    -0.411906907944E+03   -0.24881E-02   -0.22916E-02  6480   0.446E-01 0.329E-02
CGA:  79    -0.411908884594E+03   -0.19766E-02   -0.18515E-02  6480   0.349E-01 0.449E-02
SDA:  80    -0.411910104580E+03   -0.12200E-02   -0.13042E-02  6480   0.207E-01 0.409E-04
CGA:  81    -0.411912611394E+03   -0.25068E-02   -0.24994E-02  6480   0.344E-01 0.193E-03
CGA:  82    -0.411916123235E+03   -0.35118E-02   -0.35191E-02  6480   0.361E-01 0.217E-03
CGA:  83    -0.411920335366E+03   -0.42121E-02   -0.42024E-02  6480   0.190E-01 0.495E-03
CGA:  84    -0.411923655917E+03   -0.33206E-02   -0.32479E-02  6480   0.382E-01 0.926E-03
CGA:  85    -0.411925348063E+03   -0.16921E-02   -0.14899E-02  6480   0.683E-02 0.453E-02
CGA:  86    -0.411926013735E+03   -0.66567E-03   -0.66644E-03  6480   0.126E-01 0.424E-03
CGA:  87    -0.411926977538E+03   -0.96380E-03   -0.97635E-03  6480   0.126E-01 0.702E-03
CGA:  88    -0.411927832164E+03   -0.85463E-03   -0.86580E-03  6480   0.789E-02 0.611E-03
CGA:  89    -0.411928161620E+03   -0.32946E-03   -0.33318E-03  6480   0.501E-02 0.431E-03
CGA:  90    -0.411928903215E+03   -0.74160E-03   -0.76192E-03  6480   0.203E-01-0.314E-03
CGA:  91    -0.411929622233E+03   -0.71902E-03   -0.62830E-03  6480   0.173E-01 0.262E-02
CGA:  92    -0.411930131528E+03   -0.50930E-03   -0.54983E-03  6480   0.846E-02-0.600E-03
CGA:  93    -0.411930404687E+03   -0.27316E-03   -0.27151E-03  6480   0.631E-02 0.380E-03
CGA:  94    -0.411930630438E+03   -0.22575E-03   -0.22472E-03  6480   0.684E-02 0.387E-03
CGA:  95    -0.411931033026E+03   -0.40259E-03   -0.40779E-03  6480   0.159E-01 0.478E-03
CGA:  96    -0.411931620509E+03   -0.58748E-03   -0.60841E-03  6480   0.120E-01 0.133E-02
CGA:  97    -0.411931857949E+03   -0.23744E-03   -0.27075E-03  6480   0.433E-02 0.499E-03
CGA:  98    -0.411932011516E+03   -0.15357E-03   -0.17015E-03  6480   0.753E-02 0.488E-03
CGA:  99    -0.411932678509E+03   -0.66699E-03   -0.65324E-03  6480   0.212E-01 0.185E-02
CGA: 100    -0.411933605029E+03   -0.92652E-03   -0.96606E-03  6480   0.921E-02 0.295E-02
CGA: 101    -0.411933926516E+03   -0.32149E-03   -0.34863E-03  6480   0.651E-02 0.907E-03
CGA: 102    -0.411934213219E+03   -0.28670E-03   -0.31003E-03  6480   0.754E-02 0.884E-03
CGA: 103    -0.411934682453E+03   -0.46923E-03   -0.48574E-03  6480   0.119E-01 0.154E-02
CGA: 104    -0.411935369459E+03   -0.68701E-03   -0.71871E-03  6480   0.551E-02 0.171E-02
CGA: 105    -0.411935632435E+03   -0.26298E-03   -0.27369E-03  6480   0.563E-02 0.458E-03
CGA: 106    -0.411936217180E+03   -0.58474E-03   -0.54427E-03  6480   0.852E-02 0.147E-02
CGA: 107    -0.411936670573E+03   -0.45339E-03   -0.48742E-03  6480   0.354E-02 0.112E-02
CGA: 108    -0.411937020276E+03   -0.34970E-03   -0.33604E-03  6480   0.266E-02 0.657E-03
CGA: 109    -0.411937489486E+03   -0.46921E-03   -0.43472E-03  6480   0.648E-02 0.448E-03
CGA: 110    -0.411938059455E+03   -0.56997E-03   -0.56233E-03  6480   0.344E-02 0.103E-02
SDA: 111    -0.411938526143E+03   -0.46669E-03   -0.45608E-03  6480   0.447E-02 0.204E-03
CGA: 112    -0.411938807700E+03   -0.28156E-03   -0.28136E-03  6480   0.246E-02-0.104E-04
CGA: 113    -0.411939350143E+03   -0.54244E-03   -0.53477E-03  6480   0.638E-02 0.589E-04
CGA: 114    -0.411939695425E+03   -0.34528E-03   -0.33387E-03  6480   0.164E-02-0.247E-03
CGA: 115    -0.411940455140E+03   -0.75972E-03   -0.39416E-04  6480   0.674E-02-0.800E-05
CGA: 116    -0.411940727378E+03   -0.27224E-03   -0.21050E-03  6480   0.189E-02 0.126E-02
CGA: 117    -0.411940924899E+03   -0.19752E-03   -0.18602E-03  6480   0.416E-02-0.148E-03
CGA: 118    -0.411941205018E+03   -0.28012E-03   -0.26758E-03  6480   0.799E-02-0.313E-03
CGA: 119    -0.411941719113E+03   -0.51410E-03   -0.48645E-03  6480   0.818E-02-0.705E-03
CGA: 120    -0.411941941145E+03   -0.22203E-03   -0.15741E-03  6480   0.299E-02 0.129E-02
CGA: 121    -0.411942063732E+03   -0.12259E-03   -0.10343E-03  6480   0.320E-02 0.463E-04
CGA: 122    -0.411942275235E+03   -0.21150E-03   -0.19743E-03  6480   0.949E-02-0.741E-04
CGA: 123    -0.411942592556E+03   -0.31732E-03   -0.31206E-03  6480   0.107E-01 0.612E-04
CGA: 124    -0.411942836493E+03   -0.24394E-03   -0.29532E-03  6480   0.677E-02-0.125E-02
CGA: 125    -0.411943011916E+03   -0.17542E-03   -0.19247E-03  6480   0.619E-02-0.325E-03
CGA: 126    -0.411943250435E+03   -0.23852E-03   -0.22239E-03  6480   0.783E-02 0.807E-04
CGA: 127    -0.411943691852E+03   -0.44142E-03   -0.38834E-03  6480   0.150E-01 0.227E-03
CGA: 128    -0.411944179914E+03   -0.48806E-03   -0.42638E-03  6480   0.123E-01 0.163E-02
CGA: 129    -0.411944451755E+03   -0.27184E-03   -0.31221E-03  6480   0.345E-02-0.126E-02
CGA: 130    -0.411944536267E+03   -0.84512E-04   -0.95550E-04  6480   0.379E-02-0.144E-04
CGA: 131    -0.411944867290E+03   -0.33102E-03   -0.32988E-03  6480   0.958E-02 0.796E-03
CGA: 132    -0.411945235800E+03   -0.36851E-03   -0.37004E-03  6480   0.161E-02 0.178E-02
CGA: 133    -0.411945307121E+03   -0.71321E-04   -0.80828E-04  6480   0.173E-02 0.259E-03
CGA: 134    -0.411945468998E+03   -0.16188E-03   -0.16227E-03  6480   0.303E-02 0.480E-03
CGA: 135    -0.411945697860E+03   -0.22886E-03   -0.24106E-03  6480   0.329E-02 0.554E-03
CGA: 136    -0.411945881942E+03   -0.18408E-03   -0.19735E-03  6480   0.179E-02 0.556E-03
CGA: 137    -0.411946017658E+03   -0.13572E-03   -0.14044E-03  6480   0.367E-02 0.439E-03
CGA: 138    -0.411946517367E+03   -0.49971E-03   -0.47030E-03  6480   0.520E-02 0.118E-02
CGA: 139    -0.411946801980E+03   -0.28461E-03   -0.31538E-03  6480   0.341E-02 0.581E-03
CGA: 140    -0.411947351232E+03   -0.54925E-03   -0.47230E-03  6480   0.372E-02 0.162E-02
CGA: 141    -0.411947669679E+03   -0.31845E-03   -0.33658E-03  6480   0.410E-02 0.112E-02
SDA: 142    -0.411948019881E+03   -0.35020E-03   -0.36424E-03  6480   0.282E-02 0.132E-02
CGA: 143    -0.411948250136E+03   -0.23025E-03   -0.23040E-03  6480   0.344E-02-0.658E-04
CGA: 144    -0.411948681181E+03   -0.43105E-03   -0.42142E-03  6480   0.525E-02 0.194E-03
CGA: 145    -0.411949055717E+03   -0.37454E-03   -0.37381E-03  6480   0.110E-02-0.100E-03
CGA: 146    -0.411949254998E+03   -0.19928E-03   -0.17533E-03  6480   0.137E-02 0.291E-03
CGA: 147    -0.411949396671E+03   -0.14167E-03   -0.14186E-03  6480   0.152E-02 0.679E-04
CGA: 148    -0.411949514214E+03   -0.11754E-03   -0.11960E-03  6480   0.832E-03 0.232E-03
CGA: 149    -0.411949647038E+03   -0.13282E-03   -0.12669E-03  6480   0.110E-02 0.128E-03
CGA: 150    -0.411949946690E+03   -0.29965E-03   -0.28194E-03  6480   0.154E-02 0.129E-03
CGA: 151    -0.411950071414E+03   -0.12472E-03   -0.12845E-03  6480   0.142E-02 0.213E-03
CGA: 152    -0.411950199856E+03   -0.12844E-03   -0.12971E-03  6480   0.163E-02 0.116E-03
CGA: 153    -0.411950448454E+03   -0.24860E-03   -0.23213E-03  6480   0.738E-03 0.415E-03
CGA: 154    -0.411950579197E+03   -0.13074E-03   -0.12174E-03  6480   0.169E-02 0.237E-03
CGA: 155    -0.411950823864E+03   -0.24467E-03   -0.24255E-03  6480   0.297E-02 0.186E-03
CGA: 156    -0.411951063237E+03   -0.23937E-03   -0.24791E-03  6480   0.932E-03 0.432E-03
CGA: 157    -0.411951247316E+03   -0.18408E-03   -0.16320E-03  6480   0.236E-02 0.362E-03
CGA: 158    -0.411951523025E+03   -0.27571E-03   -0.28048E-03  6480   0.218E-02 0.370E-03
CGA: 159    -0.411951671271E+03   -0.14825E-03   -0.15980E-03  6480   0.501E-03 0.345E-03
CGA: 160    -0.411951779082E+03   -0.10781E-03   -0.96721E-04  6480   0.996E-03 0.157E-03
CGA: 161    -0.411951937300E+03   -0.15822E-03   -0.15285E-03  6480   0.134E-02 0.297E-03
CGA: 162    -0.411952061753E+03   -0.12445E-03   -0.12799E-03  6480   0.108E-02 0.142E-03
CGA: 163    -0.411952251289E+03   -0.18954E-03   -0.17282E-03  6480   0.909E-03 0.342E-03
CGA: 164    -0.411952392738E+03   -0.14145E-03   -0.13952E-03  6480   0.216E-02 0.126E-03
CGA: 165    -0.411952689785E+03   -0.29705E-03   -0.28749E-03  6480   0.154E-02 0.503E-03
CGA: 166    -0.411952835079E+03   -0.14529E-03   -0.15017E-03  6480   0.108E-02 0.159E-03
CGA: 167    -0.411953115581E+03   -0.28050E-03   -0.25704E-03  6480   0.406E-02 0.149E-03
CGA: 168    -0.411953463664E+03   -0.34808E-03   -0.36361E-03  6480   0.225E-02-0.172E-04
CGA: 169    -0.411953671535E+03   -0.20787E-03   -0.20483E-03  6480   0.202E-02-0.219E-03
CGA: 170    -0.411954155927E+03   -0.48439E-03   -0.78380E-03  6480   0.766E-02-0.916E-03
CGA: 171    -0.411954251657E+03   -0.95730E-04   -0.54293E-04  6480   0.411E-02 0.124E-02
CGA: 172    -0.411954361034E+03   -0.10938E-03   -0.86764E-04  6480   0.269E-02 0.361E-03
SDA: 173    -0.411954481302E+03   -0.12027E-03   -0.10417E-03  6480   0.532E-02-0.125E-04
CGA: 174    -0.411954672817E+03   -0.19151E-03   -0.19175E-03  6480   0.211E-02 0.200E-05
CGA: 175    -0.411955095290E+03   -0.42247E-03   -0.41743E-03  6480   0.407E-02 0.515E-04
CGA: 176    -0.411955429727E+03   -0.33444E-03   -0.33686E-03  6480   0.130E-02 0.845E-04
CGA: 177    -0.411955855996E+03   -0.42627E-03   -0.49845E-03  6480   0.388E-02-0.265E-03
CGA: 178    -0.411956007315E+03   -0.15132E-03   -0.14964E-03  6480   0.140E-02-0.665E-04
CGA: 179    -0.411956123643E+03   -0.11633E-03   -0.11949E-03  6480   0.227E-02 0.108E-03
CGA: 180    -0.411956402271E+03   -0.27863E-03   -0.27901E-03  6480   0.101E-02 0.341E-03
CGA: 181    -0.411956469557E+03   -0.67287E-04   -0.69298E-04  6480   0.102E-02 0.324E-04
CGA: 182    -0.411956655208E+03   -0.18565E-03   -0.18591E-03  6480   0.249E-02-0.347E-05
CGA: 183    -0.411956786029E+03   -0.13082E-03   -0.12737E-03  6480   0.546E-03-0.162E-04
CGA: 184    -0.411956864090E+03   -0.78061E-04   -0.77702E-04  6480   0.192E-02 0.123E-04
CGA: 185    -0.411957084931E+03   -0.22084E-03   -0.22104E-03  6480   0.181E-02 0.133E-03
CGA: 186    -0.411957178251E+03   -0.93320E-04   -0.98236E-04  6480   0.737E-03 0.647E-04
CGA: 187    -0.411957417105E+03   -0.23885E-03   -0.24472E-03  6480   0.448E-02-0.115E-04
CGA: 188    -0.411957653827E+03   -0.23672E-03   -0.22565E-03  6480   0.143E-02 0.234E-03
CGA: 189    -0.411957733189E+03   -0.79362E-04   -0.80600E-04  6480   0.111E-02 0.494E-04
CGA: 190    -0.411957852382E+03   -0.11919E-03   -0.12091E-03  6480   0.266E-02 0.189E-03
CGA: 191    -0.411958069415E+03   -0.21703E-03   -0.23760E-03  6480   0.749E-03 0.454E-03
CGA: 192    -0.411958132598E+03   -0.63183E-04   -0.65904E-04  6480   0.120E-02 0.718E-04
CGA: 193    -0.411958316477E+03   -0.18388E-03   -0.18327E-03  6480   0.281E-02 0.207E-04
CGA: 194    -0.411958484001E+03   -0.16752E-03   -0.17522E-03  6480   0.114E-02-0.281E-05
CGA: 195    -0.411958547802E+03   -0.63801E-04   -0.69524E-04  6480   0.161E-02 0.788E-04
CGA: 196    -0.411958783806E+03   -0.23600E-03   -0.22668E-03  6480   0.153E-02 0.273E-03
CGA: 197    -0.411958896400E+03   -0.11259E-03   -0.10823E-03  6480   0.123E-02-0.696E-04
CGA: 198    -0.411959056410E+03   -0.16001E-03   -0.16874E-03  6480   0.471E-02-0.267E-03
CGA: 199    -0.411959356366E+03   -0.29996E-03   -0.27271E-03  6480   0.360E-02-0.727E-03
CGA: 200    -0.411959464643E+03   -0.10828E-03   -0.92647E-04  6480   0.145E-02-0.283E-03
   1 F= -.41195946E+03 E0= -.41195509E+03  d E =-.411959E+03  mag=    14.0000
       N       E                     dE             d eps       ncg     rms          ort
SDA:   1    -0.411920336581E+03    0.39020E-01    0.00000E+00  6480   0.119E+01 0.000E+00
CGA:   2    -0.411956970124E+03   -0.36634E-01   -0.39949E-01  6480   0.945E-01-0.818E-01
CGA:   3    -0.411959410610E+03   -0.24405E-02   -0.23690E-02  6480   0.544E-02 0.276E-02
CGA:   4    -0.411959897687E+03   -0.48708E-03   -0.48749E-03  6480   0.781E-02 0.653E-04
CGA:   5    -0.411960273349E+03   -0.37566E-03   -0.38199E-03  6480   0.254E-02 0.112E-03
CGA:   6    -0.411960420655E+03   -0.14731E-03   -0.15083E-03  6480   0.133E-02 0.126E-03
CGA:   7    -0.411960534683E+03   -0.11403E-03   -0.11421E-03  6480   0.184E-02 0.245E-04
CGA:   8    -0.411960628570E+03   -0.93887E-04   -0.93326E-04  6480   0.368E-03-0.168E-04
CGA:   9    -0.411960664949E+03   -0.36379E-04   -0.36159E-04  6480   0.723E-03 0.173E-04
CGA:  10    -0.411960719917E+03   -0.54967E-04   -0.55104E-04  6480   0.552E-03 0.103E-04
CGA:  11    -0.411960764459E+03   -0.44543E-04   -0.44339E-04  6480   0.418E-03-0.257E-04
CGA:  12    -0.411960833258E+03   -0.68799E-04   -0.66475E-04  6480   0.108E-02 0.306E-04
CGA:  13    -0.411960897912E+03   -0.64654E-04   -0.65778E-04  6480   0.598E-03 0.417E-04
CGA:  14    -0.411960979396E+03   -0.81484E-04   -0.79944E-04  6480   0.818E-03 0.453E-04
CGA:  15    -0.411961109139E+03   -0.12974E-03   -0.12458E-03  6480   0.590E-03 0.107E-03
CGA:  16    -0.411961193551E+03   -0.84412E-04   -0.82245E-04  6480   0.831E-03 0.763E-04
CGA:  17    -0.411961273560E+03   -0.80009E-04   -0.80634E-04  6480   0.935E-03 0.670E-04
CGA:  18    -0.411961336292E+03   -0.62732E-04   -0.63633E-04  6480   0.411E-03 0.282E-04
CGA:  19    -0.411961401283E+03   -0.64990E-04   -0.62857E-04  6480   0.464E-03 0.370E-04
CGA:  20    -0.411961468898E+03   -0.67615E-04   -0.68210E-04  6480   0.453E-03-0.180E-04
CGA:  21    -0.411961517871E+03   -0.48973E-04   -0.49020E-04  6480   0.416E-03-0.421E-05
CGA:  22    -0.411961551610E+03   -0.33739E-04   -0.33461E-04  6480   0.568E-03-0.163E-04
CGA:  23    -0.411961605137E+03   -0.53527E-04   -0.53549E-04  6480   0.448E-03-0.262E-04
CGA:  24    -0.411961645469E+03   -0.40332E-04   -0.40245E-04  6480   0.289E-03-0.236E-04
CGA:  25    -0.411961692441E+03   -0.46972E-04   -0.48513E-04  6480   0.384E-03-0.153E-04
CGA:  26    -0.411961730056E+03   -0.37615E-04   -0.37701E-04  6480   0.263E-03-0.311E-04
CGA:  27    -0.411961754504E+03   -0.24448E-04   -0.24447E-04  6480   0.391E-03-0.134E-05
CGA:  28    -0.411961783888E+03   -0.29384E-04   -0.29093E-04  6480   0.304E-03-0.611E-05
CGA:  29    -0.411961816324E+03   -0.32436E-04   -0.32563E-04  6480   0.226E-03-0.807E-05
CGA:  30    -0.411961842034E+03   -0.25710E-04   -0.25366E-04  6480   0.187E-03 0.264E-04
CGA:  31    -0.411961860637E+03   -0.18603E-04   -0.18886E-04  6480   0.250E-03 0.295E-04
SDA:  32    -0.411961884106E+03   -0.23469E-04   -0.24040E-04  6480   0.186E-03 0.365E-04
CGA:  33    -0.411961891031E+03   -0.69247E-05   -0.73505E-05  6480   0.753E-04 0.663E-05
CGA:  34    -0.411961902998E+03   -0.11967E-04   -0.11637E-04  6480   0.208E-03 0.626E-05
CGA:  35    -0.411961925916E+03   -0.22918E-04   -0.22908E-04  6480   0.417E-04 0.518E-05
CGA:  36    -0.411961943312E+03   -0.17396E-04   -0.18231E-04  6480   0.274E-03-0.234E-05
CGA:  37    -0.411961963796E+03   -0.20484E-04   -0.20774E-04  6480   0.839E-04 0.109E-04
CGA:  38    -0.411961969709E+03   -0.59131E-05   -0.60159E-05  6480   0.121E-03 0.236E-05
CGA:  39    -0.411961994237E+03   -0.24528E-04   -0.23552E-04  6480   0.909E-04 0.134E-04
CGA:  40    -0.411962000441E+03   -0.62034E-05   -0.63491E-05  6480   0.578E-04 0.283E-05
CGA:  41    -0.411962013171E+03   -0.12730E-04   -0.10961E-04  6480   0.425E-04 0.252E-04
CGA:  42    -0.411962016530E+03   -0.33597E-05   -0.38890E-05  6480   0.358E-04 0.999E-05
   2 F= -.41196202E+03 E0= -.41195759E+03  d E =-.255189E-02  mag=    14.0000
       N       E                     dE             d eps       ncg     rms          ort
SDA:   1    -0.411958365426E+03    0.36477E-02    0.00000E+00  6480   0.137E+00 0.000E+00
CGA:   2    -0.411961876669E+03   -0.35112E-02   -0.33856E-02  6480   0.381E-02 0.460E-02
CGA:   3    -0.411962011232E+03   -0.13456E-03   -0.14020E-03  6480   0.199E-03 0.267E-04
CGA:   4    -0.411962026563E+03   -0.15331E-04   -0.15900E-04  6480   0.237E-03 0.198E-04
CGA:   5    -0.411962039193E+03   -0.12631E-04   -0.13499E-04  6480   0.405E-04 0.156E-04
CGA:   6    -0.411962044401E+03   -0.52077E-05   -0.49996E-05  6480   0.225E-04 0.170E-04
   3 F= -.41196204E+03 E0= -.41195762E+03  d E =-.278706E-04  mag=    14.0000
       N       E                     dE             d eps       ncg     rms          ort
SDA:   1    -0.411960459276E+03    0.15799E-02    0.00000E+00  6480   0.237E-01 0.000E+00
CGA:   2    -0.411961144974E+03   -0.68570E-03   -0.67214E-03  6480   0.322E-02 0.218E-03
CGA:   3    -0.411961499373E+03   -0.35440E-03   -0.35452E-03  6480   0.473E-02-0.247E-04
CGA:   4    -0.411961906046E+03   -0.40667E-03   -0.40702E-03  6480   0.758E-03 0.313E-04
CGA:   5    -0.411962003746E+03   -0.97700E-04   -0.97008E-04  6480   0.840E-03 0.251E-04
CGA:   6    -0.411962041823E+03   -0.38077E-04   -0.38294E-04  6480   0.220E-03 0.155E-05
CGA:   7    -0.411962057856E+03   -0.16032E-04   -0.15693E-04  6480   0.164E-03-0.124E-04
CGA:   8    -0.411962071020E+03   -0.13164E-04   -0.13222E-04  6480   0.254E-04 0.482E-05
CGA:   9    -0.411962074661E+03   -0.36408E-05   -0.37928E-05  6480   0.667E-04-0.313E-05
   4 F= -.41196207E+03 E0= -.41195765E+03  d E =-.302595E-04  mag=    14.0000
       N       E                     dE             d eps       ncg     rms          ort
SDA:   1    -0.411961763711E+03    0.30731E-03    0.00000E+00  6480   0.502E-02 0.000E+00
CGA:   2    -0.411961924240E+03   -0.16053E-03   -0.15952E-03  6480   0.670E-03 0.462E-04
CGA:   3    -0.411961969575E+03   -0.45335E-04   -0.45965E-04  6480   0.699E-03 0.236E-04
CGA:   4    -0.411962053381E+03   -0.83805E-04   -0.83275E-04  6480   0.156E-03 0.227E-04
CGA:   5    -0.411962076179E+03   -0.22798E-04   -0.23427E-04  6480   0.160E-03-0.121E-04
CGA:   6    -0.411962083270E+03   -0.70902E-05   -0.74427E-05  6480   0.313E-04 0.769E-05
   5 F= -.41196208E+03 E0= -.41195765E+03  d E =-.860887E-05  mag=    14.0000
       N       E                     dE             d eps       ncg     rms          ort
SDA:   1    -0.411961069112E+03    0.10071E-02    0.00000E+00  6480   0.367E-01 0.000E+00
CGA:   2    -0.411962018918E+03   -0.94981E-03   -0.93652E-03  6480   0.121E-02 0.560E-03
CGA:   3    -0.411962060776E+03   -0.41858E-04   -0.44038E-04  6480   0.131E-03 0.393E-04
CGA:   4    -0.411962080329E+03   -0.19552E-04   -0.17751E-04  6480   0.112E-03 0.395E-04
CGA:   5    -0.411962087681E+03   -0.73522E-05   -0.76409E-05  6480   0.703E-04 0.783E-05
   6 F= -.41196209E+03 E0= -.41195766E+03  d E =-.441139E-05  mag=    14.0000
