       N       E                     dE             d eps       ncg     rms          rms(c)
DAV:   1     0.272731183376E+04    0.27273E+04   -0.13272E+05 25888   0.149E+03
DAV:   2     0.260624349834E+02   -0.27012E+04   -0.25218E+04 27118   0.411E+02
DAV:   3    -0.263845151379E+03   -0.28991E+03   -0.28617E+03 28034   0.150E+02
DAV:   4    -0.273442351688E+03   -0.95972E+01   -0.94818E+01 33120   0.261E+01
DAV:   5    -0.274018523297E+03   -0.57617E+00   -0.57505E+00 39000   0.510E+00    0.116E+02
DAV:   6    -0.238069757506E+03    0.35949E+02   -0.16948E+02 28416   0.355E+01    0.674E+01
DAV:   7    -0.240368256691E+03   -0.22985E+01   -0.20541E+01 27552   0.130E+01    0.232E+01
DAV:   8    -0.240895346594E+03   -0.52709E+00   -0.14557E+00 28512   0.401E+00    0.889E+00
DAV:   9    -0.241014974052E+03   -0.11963E+00   -0.19803E-01 33056   0.168E+00    0.297E+00
DAV:  10    -0.241024735968E+03   -0.97619E-02   -0.45894E-02 28536   0.713E-01    0.142E+00
DAV:  11    -0.241032371641E+03   -0.76357E-02   -0.16686E-02 28664   0.476E-01    0.460E-01
DAV:  12    -0.241033417340E+03   -0.10457E-02   -0.18033E-03 29272   0.163E-01    0.139E-01
DAV:  13    -0.241033666807E+03   -0.24947E-03   -0.47978E-04 30240   0.644E-02    0.823E-02
DAV:  14    -0.241033813501E+03   -0.14669E-03   -0.96456E-05 27736   0.350E-02    0.422E-02
DAV:  15    -0.241033863868E+03   -0.50367E-04   -0.72312E-05 26400   0.313E-02    0.195E-02
DAV:  16    -0.241033866444E+03   -0.25751E-05   -0.15680E-05 19520   0.129E-02
   1 F= -.24103387E+03 E0= -.24103387E+03  d E =-.241034E+03  mag=    19.9988
       N       E                     dE             d eps       ncg     rms          rms(c)
DAV:   1    -0.241068570132E+03   -0.34706E-01   -0.26354E-02 27568   0.531E-01    0.104E-01
DAV:   2    -0.241068666037E+03   -0.95905E-04   -0.13570E-03 28128   0.103E-01    0.498E-02
DAV:   3    -0.241068658627E+03    0.74107E-05   -0.73339E-05 31440   0.264E-02    0.263E-02
DAV:   4    -0.241068657101E+03    0.15256E-05   -0.11578E-05 21640   0.111E-02
   2 F= -.24106866E+03 E0= -.24106866E+03  d E =-.347907E-01  mag=    20.0000
       N       E                     dE             d eps       ncg     rms          rms(c)
DAV:   1    -0.241836915573E+03   -0.76826E+00   -0.31461E+01 26128   0.185E+01    0.365E+00
DAV:   2    -0.241974835360E+03   -0.13792E+00   -0.17851E+00 27712   0.363E+00    0.172E+00
DAV:   3    -0.241966812936E+03    0.80224E-02   -0.91666E-02 34672   0.913E-01    0.894E-01
DAV:   4    -0.241965100224E+03    0.17127E-02   -0.12589E-02 31576   0.367E-01    0.533E-01
DAV:   5    -0.241964777115E+03    0.32311E-03   -0.15911E-03 32304   0.147E-01    0.223E-01
DAV:   6    -0.241964735427E+03    0.41688E-04   -0.58697E-04 31592   0.909E-02    0.688E-02
DAV:   7    -0.241964733908E+03    0.15195E-05   -0.12545E-04 28592   0.402E-02    0.445E-02
DAV:   8    -0.241964728448E+03    0.54596E-05   -0.35058E-05 26912   0.187E-02
   3 F= -.24196473E+03 E0= -.24196473E+03  d E =-.896071E+00  mag=    20.0000
       N       E                     dE             d eps       ncg     rms          rms(c)
DAV:   1    -0.242195108328E+03   -0.23037E+00   -0.59705E+01 26144   0.281E+01    0.358E+00
DAV:   2    -0.242570307408E+03   -0.37520E+00   -0.43709E+00 27098   0.549E+00    0.194E+00
DAV:   3    -0.242565698160E+03    0.46092E-02   -0.16037E-01 36544   0.114E+00    0.108E+00
DAV:   4    -0.242560253621E+03    0.54445E-02   -0.23775E-02 32192   0.509E-01    0.576E-01
DAV:   5    -0.242559828700E+03    0.42492E-03   -0.37712E-03 32536   0.212E-01    0.224E-01
DAV:   6    -0.242559838653E+03   -0.99527E-05   -0.15590E-03 31840   0.129E-01    0.909E-02
DAV:   7    -0.242559829730E+03    0.89233E-05   -0.17228E-04 29008   0.461E-02    0.512E-02
DAV:   8    -0.242559822697E+03    0.70326E-05   -0.73887E-05 29512   0.274E-02
   4 F= -.24255982E+03 E0= -.24255982E+03  d E =-.595094E+00  mag=    20.0000
       N       E                     dE             d eps       ncg     rms          rms(c)
DAV:   1    -0.242531684205E+03    0.28146E-01   -0.31564E+01 26432   0.222E+01    0.267E+00
DAV:   2    -0.242751847828E+03   -0.22016E+00   -0.24498E+00 26052   0.423E+00    0.145E+00
DAV:   3    -0.242751048654E+03    0.79917E-03   -0.72415E-02 35536   0.794E-01    0.904E-01
DAV:   4    -0.242747739493E+03    0.33092E-02   -0.11783E-02 32194   0.370E-01    0.504E-01
DAV:   5    -0.242747495813E+03    0.24368E-03   -0.26399E-03 33296   0.169E-01    0.143E-01
DAV:   6    -0.242747466326E+03    0.29488E-04   -0.85229E-04 30730   0.102E-01    0.715E-02
DAV:   7    -0.242747468468E+03   -0.21423E-05   -0.11434E-04 29640   0.334E-02    0.362E-02
DAV:   8    -0.242747462045E+03    0.64224E-05   -0.33195E-05 25240   0.222E-02
   5 F= -.24274746E+03 E0= -.24274746E+03  d E =-.187639E+00  mag=    20.0000
       N       E                     dE             d eps       ncg     rms          rms(c)
DAV:   1    -0.242429476633E+03    0.31799E+00   -0.41284E+01 26184   0.295E+01    0.393E+00
DAV:   2    -0.242809339309E+03   -0.37986E+00   -0.39744E+00 26494   0.570E+00    0.183E+00
DAV:   3    -0.242816023562E+03   -0.66843E-02   -0.12717E-01 33712   0.111E+00    0.101E+00
DAV:   4    -0.242812431734E+03    0.35918E-02   -0.14661E-02 32232   0.420E-01    0.563E-01
DAV:   5    -0.242811732892E+03    0.69884E-03   -0.29627E-03 31816   0.214E-01    0.194E-01
DAV:   6    -0.242811736915E+03   -0.40234E-05   -0.96181E-04 30032   0.112E-01    0.884E-02
DAV:   7    -0.242811737799E+03   -0.88340E-06   -0.16621E-04 29616   0.419E-02    0.455E-02
DAV:   8    -0.242811731241E+03    0.65581E-05   -0.28616E-05 24664   0.242E-02
   6 F= -.24281173E+03 E0= -.24281173E+03  d E =-.642692E-01  mag=    20.0000
       N       E                     dE             d eps       ncg     rms          rms(c)
DAV:   1    -0.241817255860E+03    0.99448E+00   -0.94776E+01 26192   0.456E+01    0.687E+00
DAV:   2    -0.242726355738E+03   -0.90910E+00   -0.92673E+00 26886   0.875E+00    0.325E+00
DAV:   3    -0.242743848736E+03   -0.17493E-01   -0.30859E-01 30744   0.174E+00    0.184E+00
DAV:   4    -0.242733753971E+03    0.10095E-01   -0.32058E-02 32822   0.633E-01    0.116E+00
DAV:   5    -0.242730646196E+03    0.31078E-02   -0.80067E-03 30224   0.386E-01    0.376E-01
DAV:   6    -0.242730866652E+03   -0.22046E-03   -0.35689E-03 32830   0.211E-01    0.152E-01
DAV:   7    -0.242730859279E+03    0.73727E-05   -0.48109E-04 29840   0.720E-02    0.791E-02
DAV:   8    -0.242730837677E+03    0.21603E-04   -0.95315E-05 30104   0.383E-02    0.487E-02
DAV:   9    -0.242730836811E+03    0.86568E-06   -0.34756E-05 26496   0.212E-02
   7 F= -.24273084E+03 E0= -.24273084E+03  d E =0.808944E-01  mag=    20.0000
       N       E                     dE             d eps       ncg     rms          rms(c)
DAV:   1    -0.242816246788E+03   -0.85409E-01   -0.16424E+01 25272   0.137E+01    0.444E+00
DAV:   2    -0.242899733932E+03   -0.83487E-01   -0.10227E+00 27470   0.287E+00    0.188E+00
DAV:   3    -0.242891495071E+03    0.82389E-02   -0.35204E-02 30696   0.631E-01    0.112E+00
DAV:   4    -0.242888103805E+03    0.33913E-02   -0.70888E-03 31336   0.332E-01    0.766E-01
DAV:   5    -0.242887485874E+03    0.61793E-03   -0.25787E-03 29568   0.196E-01    0.204E-01
DAV:   6    -0.242887541669E+03   -0.55796E-04   -0.11121E-03 31712   0.121E-01    0.993E-02
DAV:   7    -0.242887533119E+03    0.85504E-05   -0.14643E-04 29656   0.417E-02    0.440E-02
DAV:   8    -0.242887526338E+03    0.67809E-05   -0.42428E-05 27248   0.221E-02
   8 F= -.24288753E+03 E0= -.24288753E+03  d E =-.156690E+00  mag=    20.0000
       N       E                     dE             d eps       ncg     rms          rms(c)
DAV:   1    -0.242913528902E+03   -0.25996E-01   -0.28035E+00 25664   0.619E+00    0.133E+00
DAV:   2    -0.242927794735E+03   -0.14266E-01   -0.16766E-01 27192   0.119E+00    0.514E-01
DAV:   3    -0.242926740841E+03    0.10539E-02   -0.63256E-03 31784   0.281E-01    0.260E-01
DAV:   4    -0.242926499948E+03    0.24089E-03   -0.10635E-03 31384   0.124E-01    0.148E-01
DAV:   5    -0.242926427152E+03    0.72795E-04   -0.19800E-04 30872   0.569E-02    0.505E-02
DAV:   6    -0.242926420763E+03    0.63898E-05   -0.72000E-05 30416   0.297E-02
   9 F= -.24292642E+03 E0= -.24292642E+03  d E =-.388944E-01  mag=    20.0000
       N       E                     dE             d eps       ncg     rms          rms(c)
DAV:   1    -0.242892400656E+03    0.34026E-01   -0.89267E+00 26584   0.129E+01    0.155E+00
DAV:   2    -0.242950564435E+03   -0.58164E-01   -0.58590E-01 26756   0.229E+00    0.627E-01
DAV:   3    -0.242951648059E+03   -0.10836E-02   -0.20295E-02 33016   0.443E-01    0.309E-01
DAV:   4    -0.242951063010E+03    0.58505E-03   -0.20923E-03 32200   0.166E-01    0.186E-01
DAV:   5    -0.242950924988E+03    0.13802E-03   -0.43341E-04 31000   0.898E-02    0.672E-02
DAV:   6    -0.242950926028E+03   -0.10394E-05   -0.15178E-04 29784   0.438E-02    0.381E-02
DAV:   7    -0.242950923902E+03    0.21254E-05   -0.14275E-05 21176   0.152E-02
  10 F= -.24295092E+03 E0= -.24295092E+03  d E =-.245031E-01  mag=    20.0000
       N       E                     dE             d eps       ncg     rms          rms(c)
DAV:   1    -0.242740819076E+03    0.21011E+00   -0.38772E+01 26048   0.259E+01    0.262E+00
DAV:   2    -0.242972484618E+03   -0.23167E+00   -0.22973E+00 26412   0.455E+00    0.118E+00
DAV:   3    -0.242977956399E+03   -0.54718E-02   -0.71779E-02 31440   0.824E-01    0.582E-01
DAV:   4    -0.242975884108E+03    0.20723E-02   -0.74358E-03 31832   0.310E-01    0.362E-01
DAV:   5    -0.242975224459E+03    0.65965E-03   -0.14720E-03 30584   0.183E-01    0.137E-01
DAV:   6    -0.242975245333E+03   -0.20874E-04   -0.74467E-04 29616   0.951E-02    0.584E-02
DAV:   7    -0.242975248204E+03   -0.28717E-05   -0.67174E-05 29128   0.303E-02
  11 F= -.24297525E+03 E0= -.24297525E+03  d E =-.243243E-01  mag=    20.0000
       N       E                     dE             d eps       ncg     rms          rms(c)
DAV:   1    -0.238874971017E+03    0.41003E+01   -0.29371E+02 27264   0.577E+01    0.264E+01
DAV:   2    -0.240210268958E+03   -0.13353E+01   -0.17579E+01 29504   0.129E+01    0.813E+00
DAV:   3    -0.240010202256E+03    0.20007E+00   -0.75779E-01 29728   0.303E+00    0.526E+00
DAV:   4    -0.239926157950E+03    0.84044E-01   -0.10930E-01 31880   0.143E+00    0.388E+00
DAV:   5    -0.239888541487E+03    0.37616E-01   -0.81374E-02 30056   0.131E+00    0.101E+00
DAV:   6    -0.239891265508E+03   -0.27240E-02   -0.49429E-02 31272   0.796E-01    0.571E-01
DAV:   7    -0.239891109674E+03    0.15583E-03   -0.32170E-03 30904   0.187E-01    0.260E-01
DAV:   8    -0.239890889161E+03    0.22051E-03   -0.13842E-03 30216   0.127E-01    0.155E-01
DAV:   9    -0.239890941195E+03   -0.52034E-04   -0.38969E-04 28984   0.642E-02    0.576E-02
DAV:  10    -0.239890963042E+03   -0.21848E-04   -0.13439E-04 33512   0.432E-02    0.320E-02
DAV:  11    -0.239890970738E+03   -0.76953E-05   -0.45550E-05 26832   0.202E-02
  12 F= -.23989097E+03 E0= -.23989097E+03  d E =0.308428E+01  mag=    20.0000
       N       E                     dE             d eps       ncg     rms          rms(c)
DAV:   1    -0.242308387182E+03   -0.24174E+01   -0.79188E+01 24664   0.250E+01    0.147E+01
DAV:   2    -0.242615417263E+03   -0.30703E+00   -0.47144E+00 31480   0.624E+00    0.743E+00
DAV:   3    -0.242557154426E+03    0.58263E-01   -0.17017E-01 29264   0.131E+00    0.658E+00
DAV:   4    -0.242511438164E+03    0.45716E-01   -0.35672E-02 31496   0.931E-01    0.376E+00
DAV:   5    -0.242497747562E+03    0.13691E-01   -0.53100E-02 30304   0.982E-01    0.973E-01
DAV:   6    -0.242498853809E+03   -0.11062E-02   -0.26887E-02 31824   0.606E-01    0.607E-01
DAV:   7    -0.242498712436E+03    0.14137E-03   -0.15329E-03 30672   0.130E-01    0.403E-01
DAV:   8    -0.242498615970E+03    0.96467E-04   -0.59279E-04 29920   0.781E-02    0.186E-01
DAV:   9    -0.242498629719E+03   -0.13749E-04   -0.17648E-04 28608   0.465E-02    0.455E-02
DAV:  10    -0.242498637161E+03   -0.74428E-05   -0.94889E-05 31992   0.355E-02
  13 F= -.24249864E+03 E0= -.24249864E+03  d E =-.260767E+01  mag=    20.0000
       N       E                     dE             d eps       ncg     rms          rms(c)
DAV:   1    -0.242915531679E+03   -0.41690E+00   -0.25332E+01 26192   0.140E+01    0.662E+00
DAV:   2    -0.243001925606E+03   -0.86394E-01   -0.13585E+00 31048   0.352E+00    0.249E+00
DAV:   3    -0.242979012733E+03    0.22913E-01   -0.57885E-02 29048   0.818E-01    0.152E+00
DAV:   4    -0.242971577899E+03    0.74348E-02   -0.93621E-03 29992   0.381E-01    0.997E-01
DAV:   5    -0.242968548192E+03    0.30297E-02   -0.58427E-03 29816   0.354E-01    0.213E-01
DAV:   6    -0.242968785055E+03   -0.23686E-03   -0.39809E-03 31824   0.211E-01    0.166E-01
DAV:   7    -0.242968773940E+03    0.11115E-04   -0.30380E-04 31752   0.591E-02    0.757E-02
DAV:   8    -0.242968760425E+03    0.13515E-04   -0.11105E-04 30216   0.368E-02    0.378E-02
DAV:   9    -0.242968766575E+03   -0.61499E-05   -0.28526E-05 22296   0.177E-02
  14 F= -.24296877E+03 E0= -.24296877E+03  d E =-.470129E+00  mag=    20.0000
       N       E                     dE             d eps       ncg     rms          rms(c)
DAV:   1    -0.242996843834E+03   -0.28083E-01   -0.20467E+00 25254   0.398E+00    0.179E+00
DAV:   2    -0.243005071465E+03   -0.82276E-02   -0.10786E-01 29128   0.884E-01    0.681E-01
DAV:   3    -0.243003395260E+03    0.16762E-02   -0.46139E-03 30394   0.237E-01    0.314E-01
DAV:   4    -0.243003203262E+03    0.19200E-03   -0.97832E-04 30040   0.919E-02    0.165E-01
DAV:   5    -0.243003135459E+03    0.67803E-04   -0.17952E-04 31054   0.496E-02    0.582E-02
DAV:   6    -0.243003131598E+03    0.38607E-05   -0.65145E-05 29392   0.253E-02
  15 F= -.24300313E+03 E0= -.24300313E+03  d E =-.343650E-01  mag=    20.0000
       N       E                     dE             d eps       ncg     rms          rms(c)
DAV:   1    -0.243017341311E+03   -0.14206E-01   -0.91917E-01 25668   0.313E+00    0.102E+00
DAV:   2    -0.243020657497E+03   -0.33162E-02   -0.44935E-02 29072   0.656E-01    0.464E-01
DAV:   3    -0.243020158062E+03    0.49944E-03   -0.22990E-03 30184   0.169E-01    0.253E-01
DAV:   4    -0.243020072380E+03    0.85682E-04   -0.46285E-04 30248   0.677E-02    0.136E-01
DAV:   5    -0.243020044597E+03    0.27783E-04   -0.69100E-05 28568   0.359E-02    0.356E-02
DAV:   6    -0.243020041667E+03    0.29301E-05   -0.34853E-05 26144   0.205E-02
  16 F= -.24302004E+03 E0= -.24302004E+03  d E =-.169101E-01  mag=    20.0000
       N       E                     dE             d eps       ncg     rms          rms(c)
DAV:   1    -0.243026186368E+03   -0.61418E-02   -0.44922E-01 25744   0.239E+00    0.609E-01
DAV:   2    -0.243028006714E+03   -0.18203E-02   -0.24183E-02 28720   0.484E-01    0.308E-01
DAV:   3    -0.243027824758E+03    0.18196E-03   -0.11904E-03 30160   0.120E-01    0.178E-01
DAV:   4    -0.243027767498E+03    0.57260E-04   -0.20831E-04 30472   0.500E-02    0.993E-02
DAV:   5    -0.243027751149E+03    0.16349E-04   -0.39121E-05 26688   0.278E-02    0.225E-02
DAV:   6    -0.243027750040E+03    0.11090E-05   -0.22766E-05 20848   0.171E-02
  17 F= -.24302775E+03 E0= -.24302775E+03  d E =-.770837E-02  mag=    20.0000
       N       E                     dE             d eps       ncg     rms          rms(c)
DAV:   1    -0.243029896136E+03   -0.21450E-02   -0.69821E-01 25644   0.317E+00    0.554E-01
DAV:   2    -0.243033027389E+03   -0.31313E-02   -0.36956E-02 28184   0.589E-01    0.319E-01
DAV:   3    -0.243032945139E+03    0.82250E-04   -0.16292E-03 30360   0.136E-01    0.180E-01
DAV:   4    -0.243032899003E+03    0.46136E-04   -0.30805E-04 30864   0.567E-02    0.942E-02
DAV:   5    -0.243032892059E+03    0.69440E-05   -0.38197E-05 27072   0.245E-02
  18 F= -.24303289E+03 E0= -.24303289E+03  d E =-.514202E-02  mag=    20.0000
       N       E                     dE             d eps       ncg     rms          rms(c)
DAV:   1    -0.243029151168E+03    0.37478E-02   -0.23420E+00 25712   0.599E+00    0.614E-01
DAV:   2    -0.243040808639E+03   -0.11657E-01   -0.12150E-01 26920   0.105E+00    0.298E-01
DAV:   3    -0.243040957533E+03   -0.14889E-03   -0.38663E-03 32056   0.192E-01    0.167E-01
DAV:   4    -0.243040808047E+03    0.14949E-03   -0.51092E-04 32088   0.821E-02    0.944E-02
DAV:   5    -0.243040787461E+03    0.20587E-04   -0.11619E-04 30168   0.446E-02    0.287E-02
DAV:   6    -0.243040787231E+03    0.23017E-06   -0.45986E-05 27920   0.236E-02
  19 F= -.24304079E+03 E0= -.24304079E+03  d E =-.789517E-02  mag=    20.0000
       N       E                     dE             d eps       ncg     rms          rms(c)
DAV:   1    -0.242953061094E+03    0.87726E-01   -0.21041E+01 25632   0.170E+01    0.182E+00
DAV:   2    -0.243044786616E+03   -0.91726E-01   -0.94741E-01 26382   0.293E+00    0.771E-01
DAV:   3    -0.243045069474E+03   -0.28286E-03   -0.26283E-02 30712   0.527E-01    0.400E-01
DAV:   4    -0.243043969501E+03    0.11000E-02   -0.36887E-03 30848   0.227E-01    0.228E-01
DAV:   5    -0.243043772667E+03    0.19683E-03   -0.70749E-04 30072   0.110E-01    0.829E-02
DAV:   6    -0.243043781981E+03   -0.93140E-05   -0.27856E-04 30648   0.579E-02    0.388E-02
DAV:   7    -0.243043782338E+03   -0.35651E-06   -0.22304E-05 22672   0.180E-02
  20 F= -.24304378E+03 E0= -.24304378E+03  d E =-.299511E-02  mag=    20.0000
       N       E                     dE             d eps       ncg     rms          rms(c)
DAV:   1    -0.242228043074E+03    0.81574E+00   -0.20149E+02 25688   0.509E+01    0.493E+00
DAV:   2    -0.243071983985E+03   -0.84394E+00   -0.86367E+00 25918   0.881E+00    0.211E+00
DAV:   3    -0.243071681003E+03    0.30298E-03   -0.21681E-01 30880   0.153E+00    0.111E+00
DAV:   4    -0.243061985226E+03    0.96958E-02   -0.32505E-02 31408   0.652E-01    0.684E-01
DAV:   5    -0.243059887458E+03    0.20978E-02   -0.62156E-03 30480   0.324E-01    0.271E-01
DAV:   6    -0.243059937077E+03   -0.49620E-04   -0.24623E-03 29896   0.170E-01    0.115E-01
DAV:   7    -0.243059958657E+03   -0.21580E-04   -0.20290E-04 31872   0.556E-02    0.548E-02
DAV:   8    -0.243059953589E+03    0.50688E-05   -0.69516E-05 29280   0.326E-02
  21 F= -.24305995E+03 E0= -.24305995E+03  d E =-.161713E-01  mag=    20.0000
       N       E                     dE             d eps       ncg     rms          rms(c)
DAV:   1    -0.242032283657E+03    0.10277E+01   -0.13988E+02 25632   0.398E+01    0.104E+01
DAV:   2    -0.242627579227E+03   -0.59530E+00   -0.66306E+00 28312   0.748E+00    0.313E+00
DAV:   3    -0.242593228054E+03    0.34351E-01   -0.20008E-01 30224   0.157E+00    0.165E+00
DAV:   4    -0.242581509946E+03    0.11718E-01   -0.35424E-02 31008   0.704E-01    0.109E+00
DAV:   5    -0.242578639975E+03    0.28700E-02   -0.77106E-03 29944   0.348E-01    0.405E-01
DAV:   6    -0.242578733738E+03   -0.93763E-04   -0.35251E-03 32568   0.217E-01    0.202E-01
DAV:   7    -0.242578713350E+03    0.20389E-04   -0.46517E-04 30168   0.793E-02    0.731E-02
DAV:   8    -0.242578711069E+03    0.22802E-05   -0.14948E-04 29944   0.398E-02    0.370E-02
DAV:   9    -0.242578711538E+03   -0.46848E-06   -0.19196E-05 20248   0.176E-02
  22 F= -.24257871E+03 E0= -.24257871E+03  d E =0.481242E+00  mag=    20.0000
       N       E                     dE             d eps       ncg     rms          rms(c)
DAV:   1    -0.242563761376E+03    0.14950E-01   -0.13458E+02 26208   0.403E+01    0.929E+00
DAV:   2    -0.243140527114E+03   -0.57677E+00   -0.63165E+00 28432   0.736E+00    0.406E+00
DAV:   3    -0.243123366638E+03    0.17160E-01   -0.17038E-01 30384   0.136E+00    0.319E+00
DAV:   4    -0.243108418201E+03    0.14948E-01   -0.27839E-02 30520   0.634E-01    0.215E+00
DAV:   5    -0.243104041997E+03    0.43762E-02   -0.14314E-02 30392   0.480E-01    0.340E-01
DAV:   6    -0.243104456149E+03   -0.41415E-03   -0.59539E-03 31048   0.295E-01    0.234E-01
DAV:   7    -0.243104464837E+03   -0.86881E-05   -0.69194E-04 29272   0.858E-02    0.162E-01
DAV:   8    -0.243104425161E+03    0.39676E-04   -0.12612E-04 30728   0.418E-02    0.835E-02
DAV:   9    -0.243104419797E+03    0.53640E-05   -0.46674E-05 27208   0.238E-02
  23 F= -.24310442E+03 E0= -.24310442E+03  d E =-.525708E+00  mag=    20.0000
       N       E                     dE             d eps       ncg     rms          rms(c)
DAV:   1    -0.243088622960E+03    0.15802E-01   -0.68324E+00 25616   0.862E+00    0.164E+00
DAV:   2    -0.243113237481E+03   -0.24615E-01   -0.26989E-01 27856   0.153E+00    0.608E-01
DAV:   3    -0.243111902092E+03    0.13354E-02   -0.78279E-03 30656   0.312E-01    0.307E-01
DAV:   4    -0.243111503650E+03    0.39844E-03   -0.14408E-03 30744   0.147E-01    0.182E-01
DAV:   5    -0.243111450184E+03    0.53466E-04   -0.31263E-04 29496   0.648E-02    0.628E-02
DAV:   6    -0.243111451696E+03   -0.15126E-05   -0.88985E-05 30536   0.332E-02
  24 F= -.24311145E+03 E0= -.24311145E+03  d E =-.703190E-02  mag=    20.0000
       N       E                     dE             d eps       ncg     rms          rms(c)
DAV:   1    -0.243031158563E+03    0.80292E-01   -0.30571E+01 25496   0.183E+01    0.178E+00
DAV:   2    -0.243134576711E+03   -0.10342E+00   -0.10907E+00 26316   0.310E+00    0.814E-01
DAV:   3    -0.243133599162E+03    0.97755E-03   -0.26453E-02 30864   0.536E-01    0.469E-01
DAV:   4    -0.243132184649E+03    0.14145E-02   -0.41711E-03 31032   0.237E-01    0.294E-01
DAV:   5    -0.243131901963E+03    0.28269E-03   -0.10211E-03 29832   0.127E-01    0.961E-02
DAV:   6    -0.243131917887E+03   -0.15924E-04   -0.42077E-04 30488   0.735E-02    0.467E-02
DAV:   7    -0.243131920765E+03   -0.28779E-05   -0.43753E-05 27312   0.231E-02
  25 F= -.24313192E+03 E0= -.24313192E+03  d E =-.204691E-01  mag=    20.0000
       N       E                     dE             d eps       ncg     rms          rms(c)
DAV:   1    -0.242571687054E+03    0.56023E+00   -0.10420E+02 25456   0.338E+01    0.607E+00
DAV:   2    -0.242974730958E+03   -0.40304E+00   -0.45481E+00 28112   0.625E+00    0.270E+00
DAV:   3    -0.242957416766E+03    0.17314E-01   -0.13845E-01 30176   0.131E+00    0.159E+00
DAV:   4    -0.242950163298E+03    0.72535E-02   -0.24576E-02 30792   0.572E-01    0.102E+00
DAV:   5    -0.242948639215E+03    0.15241E-02   -0.51060E-03 30160   0.287E-01    0.313E-01
DAV:   6    -0.242948692830E+03   -0.53615E-04   -0.25976E-03 31240   0.192E-01    0.129E-01
DAV:   7    -0.242948690967E+03    0.18633E-05   -0.34715E-04 29056   0.659E-02    0.621E-02
DAV:   8    -0.242948676234E+03    0.14733E-04   -0.10414E-04 29392   0.352E-02    0.345E-02
DAV:   9    -0.242948677839E+03   -0.16049E-05   -0.19503E-05 20504   0.158E-02
  26 F= -.24294868E+03 E0= -.24294868E+03  d E =0.183243E+00  mag=    20.0000
       N       E                     dE             d eps       ncg     rms          rms(c)
DAV:   1    -0.243006871788E+03   -0.58196E-01   -0.43858E+01 25552   0.215E+01    0.520E+00
DAV:   2    -0.243164709233E+03   -0.15784E+00   -0.18393E+00 28936   0.404E+00    0.186E+00
DAV:   3    -0.243151987837E+03    0.12721E-01   -0.61362E-02 29880   0.888E-01    0.100E+00
DAV:   4    -0.243149058673E+03    0.29292E-02   -0.10008E-02 30872   0.371E-01    0.626E-01
DAV:   5    -0.243147977070E+03    0.10816E-02   -0.22512E-03 29784   0.197E-01    0.224E-01
DAV:   6    -0.243147971102E+03    0.59687E-05   -0.12191E-03 30456   0.126E-01    0.112E-01
DAV:   7    -0.243147969457E+03    0.16444E-05   -0.17844E-04 29592   0.502E-02    0.515E-02
DAV:   8    -0.243147968091E+03    0.13656E-05   -0.45638E-05 27568   0.227E-02
  27 F= -.24314797E+03 E0= -.24314797E+03  d E =-.199290E+00  mag=    20.0000
       N       E                     dE             d eps       ncg     rms          rms(c)
DAV:   1    -0.243135310177E+03    0.12659E-01   -0.38647E+00 25632   0.682E+00    0.171E+00
DAV:   2    -0.243149520738E+03   -0.14211E-01   -0.17331E-01 28672   0.127E+00    0.815E-01
DAV:   3    -0.243148246391E+03    0.12743E-02   -0.97709E-03 30912   0.370E-01    0.374E-01
DAV:   4    -0.243148166685E+03    0.79706E-04   -0.20476E-03 31432   0.152E-01    0.213E-01
DAV:   5    -0.243148148879E+03    0.17806E-04   -0.17725E-04 30624   0.492E-02    0.892E-02
DAV:   6    -0.243148138530E+03    0.10350E-04   -0.55191E-05 29120   0.276E-02    0.364E-02
DAV:   7    -0.243148136651E+03    0.18782E-05   -0.11994E-05 19064   0.129E-02
  28 F= -.24314814E+03 E0= -.24314814E+03  d E =-.168560E-03  mag=    20.0000
       N       E                     dE             d eps       ncg     rms          rms(c)
DAV:   1    -0.243151831783E+03   -0.36933E-02   -0.13113E+00 25504   0.381E+00    0.784E-01
DAV:   2    -0.243156695163E+03   -0.48634E-02   -0.55881E-02 28216   0.698E-01    0.341E-01
DAV:   3    -0.243156386619E+03    0.30854E-03   -0.20205E-03 29888   0.164E-01    0.176E-01
DAV:   4    -0.243156324244E+03    0.62376E-04   -0.39110E-04 30808   0.732E-02    0.113E-01
DAV:   5    -0.243156312078E+03    0.12166E-04   -0.56791E-05 28880   0.312E-02    0.378E-02
DAV:   6    -0.243156312206E+03   -0.12796E-06   -0.25679E-05 22144   0.190E-02
  29 F= -.24315631E+03 E0= -.24315631E+03  d E =-.817555E-02  mag=    20.0000
       N       E                     dE             d eps       ncg     rms          rms(c)
DAV:   1    -0.243156219346E+03    0.92731E-04   -0.10114E+00 25624   0.370E+00    0.387E-01
DAV:   2    -0.243160875900E+03   -0.46566E-02   -0.48155E-02 26530   0.640E-01    0.179E-01
DAV:   3    -0.243160901591E+03   -0.25691E-04   -0.12401E-03 30800   0.113E-01    0.999E-02
DAV:   4    -0.243160850491E+03    0.51099E-04   -0.17055E-04 31584   0.488E-02    0.587E-02
DAV:   5    -0.243160842604E+03    0.78872E-05   -0.37640E-05 26456   0.249E-02
  30 F= -.24316084E+03 E0= -.24316084E+03  d E =-.453040E-02  mag=    20.0000
       N       E                     dE             d eps       ncg     rms          rms(c)
DAV:   1    -0.242141052076E+03    0.10198E+01   -0.15986E+02 25672   0.471E+01    0.689E+00
DAV:   2    -0.243024058258E+03   -0.88301E+00   -0.91498E+00 26656   0.861E+00    0.273E+00
DAV:   3    -0.243021846744E+03    0.22115E-02   -0.24247E-01 30568   0.160E+00    0.141E+00
DAV:   4    -0.243012988295E+03    0.88584E-02   -0.37626E-02 31384   0.696E-01    0.849E-01
DAV:   5    -0.243010723344E+03    0.22650E-02   -0.58542E-03 29904   0.327E-01    0.363E-01
DAV:   6    -0.243010791849E+03   -0.68504E-04   -0.30446E-03 31112   0.195E-01    0.173E-01
DAV:   7    -0.243010805033E+03   -0.13184E-04   -0.36629E-04 30936   0.722E-02    0.672E-02
DAV:   8    -0.243010797737E+03    0.72962E-05   -0.12113E-04 29448   0.387E-02    0.391E-02
DAV:   9    -0.243010799064E+03   -0.13274E-05   -0.20747E-05 22920   0.172E-02
  31 F= -.24301080E+03 E0= -.24301080E+03  d E =0.150044E+00  mag=    20.0000
       N       E                     dE             d eps       ncg     rms          rms(c)
DAV:   1    -0.243046800266E+03   -0.36003E-01   -0.32399E+01 26736   0.192E+01    0.542E+00
DAV:   2    -0.243197904131E+03   -0.15110E+00   -0.17475E+00 28480   0.377E+00    0.262E+00
DAV:   3    -0.243185007904E+03    0.12896E-01   -0.53968E-02 29608   0.805E-01    0.164E+00
DAV:   4    -0.243178435531E+03    0.65724E-02   -0.13494E-02 30488   0.457E-01    0.103E+00
DAV:   5    -0.243177879464E+03    0.55607E-03   -0.41897E-03 29232   0.239E-01    0.244E-01
DAV:   6    -0.243177976901E+03   -0.97437E-04   -0.15026E-03 32752   0.144E-01    0.113E-01
DAV:   7    -0.243177959494E+03    0.17407E-04   -0.18381E-04 29656   0.486E-02    0.589E-02
DAV:   8    -0.243177950432E+03    0.90613E-05   -0.67868E-05 28896   0.267E-02
  32 F= -.24317795E+03 E0= -.24317795E+03  d E =-.167151E+00  mag=    20.0000
       N       E                     dE             d eps       ncg     rms          rms(c)
DAV:   1    -0.243122934473E+03    0.55025E-01   -0.17723E+01 25640   0.154E+01    0.288E+00
DAV:   2    -0.243207159005E+03   -0.84225E-01   -0.91060E-01 27608   0.283E+00    0.115E+00
DAV:   3    -0.243204092020E+03    0.30670E-02   -0.29906E-02 29744   0.592E-01    0.662E-01
DAV:   4    -0.243202825165E+03    0.12669E-02   -0.37569E-03 31800   0.247E-01    0.353E-01
DAV:   5    -0.243202389959E+03    0.43521E-03   -0.10454E-03 30008   0.147E-01    0.926E-02
DAV:   6    -0.243202418345E+03   -0.28387E-04   -0.54960E-04 31632   0.800E-02    0.670E-02
DAV:   7    -0.243202410942E+03    0.74032E-05   -0.46874E-05 28968   0.268E-02
  33 F= -.24320241E+03 E0= -.24320241E+03  d E =-.244605E-01  mag=    20.0000
       N       E                     dE             d eps       ncg     rms          rms(c)
DAV:   1    -0.243199196392E+03    0.32220E-02   -0.32363E+00 25400   0.581E+00    0.108E+00
DAV:   2    -0.243210236702E+03   -0.11040E-01   -0.12384E-01 28408   0.103E+00    0.428E-01
DAV:   3    -0.243209576131E+03    0.66057E-03   -0.39806E-03 29520   0.221E-01    0.247E-01
DAV:   4    -0.243209418639E+03    0.15749E-03   -0.64970E-04 31256   0.929E-02    0.140E-01
DAV:   5    -0.243209366730E+03    0.51909E-04   -0.11780E-04 29520   0.483E-02    0.443E-02
DAV:   6    -0.243209367942E+03   -0.12126E-05   -0.69589E-05 29128   0.283E-02
  34 F= -.24320937E+03 E0= -.24320937E+03  d E =-.695700E-02  mag=    20.0000
       N       E                     dE             d eps       ncg     rms          rms(c)
DAV:   1    -0.243203254548E+03    0.61122E-02   -0.20890E+00 25624   0.488E+00    0.926E-01
DAV:   2    -0.243211289604E+03   -0.80351E-02   -0.89277E-02 28488   0.888E-01    0.357E-01
DAV:   3    -0.243210905921E+03    0.38368E-03   -0.32632E-03 29760   0.195E-01    0.214E-01
DAV:   4    -0.243210775768E+03    0.13015E-03   -0.42637E-04 31368   0.789E-02    0.105E-01
DAV:   5    -0.243210715574E+03    0.60194E-04   -0.10139E-04 29880   0.486E-02    0.318E-02
DAV:   6    -0.243210715730E+03   -0.15651E-06   -0.74111E-05 29360   0.299E-02
  35 F= -.24321072E+03 E0= -.24321072E+03  d E =-.134779E-02  mag=    20.0000
       N       E                     dE             d eps       ncg     rms          rms(c)
DAV:   1    -0.243205662875E+03    0.50527E-02   -0.14826E+00 25608   0.428E+00    0.661E-01
DAV:   2    -0.243211737685E+03   -0.60748E-02   -0.63891E-02 28520   0.744E-01    0.272E-01
DAV:   3    -0.243211621131E+03    0.11655E-03   -0.20595E-03 29944   0.155E-01    0.158E-01
DAV:   4    -0.243211531994E+03    0.89137E-04   -0.29763E-04 31472   0.679E-02    0.941E-02
DAV:   5    -0.243211508649E+03    0.23345E-04   -0.73416E-05 29304   0.370E-02    0.276E-02
DAV:   6    -0.243211509726E+03   -0.10766E-05   -0.32919E-05 23856   0.211E-02
  36 F= -.24321151E+03 E0= -.24321151E+03  d E =-.793995E-03  mag=    20.0000
       N       E                     dE             d eps       ncg     rms          rms(c)
DAV:   1    -0.243145916562E+03    0.65592E-01   -0.15402E+01 25632   0.139E+01    0.144E+00
DAV:   2    -0.243210178412E+03   -0.64262E-01   -0.65389E-01 27748   0.236E+00    0.718E-01
DAV:   3    -0.243210497616E+03   -0.31920E-03   -0.18227E-02 30224   0.430E-01    0.423E-01
DAV:   4    -0.243209635463E+03    0.86215E-03   -0.27051E-03 31000   0.195E-01    0.255E-01
DAV:   5    -0.243209480151E+03    0.15531E-03   -0.70011E-04 30312   0.109E-01    0.858E-02
DAV:   6    -0.243209488171E+03   -0.80199E-05   -0.25876E-04 30120   0.563E-02    0.384E-02
DAV:   7    -0.243209488525E+03   -0.35419E-06   -0.26061E-05 22840   0.176E-02
  37 F= -.24320949E+03 E0= -.24320949E+03  d E =0.202120E-02  mag=    20.0000
       N       E                     dE             d eps       ncg     rms          rms(c)
DAV:   1    -0.242957291147E+03    0.25220E+00   -0.68400E+01 25568   0.273E+01    0.354E+00
DAV:   2    -0.243190097503E+03   -0.23281E+00   -0.24490E+00 27344   0.459E+00    0.134E+00
DAV:   3    -0.243184582243E+03    0.55153E-02   -0.64692E-02 30272   0.880E-01    0.727E-01
DAV:   4    -0.243181277972E+03    0.33043E-02   -0.11664E-02 30880   0.420E-01    0.420E-01
DAV:   5    -0.243180725145E+03    0.55283E-03   -0.24012E-03 29448   0.192E-01    0.143E-01
DAV:   6    -0.243180691567E+03    0.33578E-04   -0.85138E-04 30456   0.104E-01    0.887E-02
DAV:   7    -0.243180687226E+03    0.43415E-05   -0.88935E-05 29224   0.379E-02
  38 F= -.24318069E+03 E0= -.24318069E+03  d E =0.288013E-01  mag=    20.0000
       N       E                     dE             d eps       ncg     rms          rms(c)
DAV:   1    -0.243127863283E+03    0.52828E-01   -0.21454E+01 25840   0.177E+01    0.283E+00
DAV:   2    -0.243247533871E+03   -0.11967E+00   -0.12818E+00 26634   0.327E+00    0.111E+00
DAV:   3    -0.243246171123E+03    0.13627E-02   -0.36428E-02 30392   0.634E-01    0.598E-01
DAV:   4    -0.243244840699E+03    0.13304E-02   -0.47534E-03 31272   0.267E-01    0.337E-01
DAV:   5    -0.243244441398E+03    0.39930E-03   -0.96154E-04 30088   0.136E-01    0.113E-01
DAV:   6    -0.243244459146E+03   -0.17749E-04   -0.50061E-04 31912   0.782E-02    0.619E-02
DAV:   7    -0.243244455896E+03    0.32501E-05   -0.53893E-05 28512   0.274E-02
  39 F= -.24324446E+03 E0= -.24324446E+03  d E =-.637687E-01  mag=    20.0000
       N       E                     dE             d eps       ncg     rms          rms(c)
DAV:   1    -0.243186317534E+03    0.58142E-01   -0.17505E+01 25120   0.133E+01    0.182E+00
DAV:   2    -0.243241507640E+03   -0.55190E-01   -0.60353E-01 27416   0.228E+00    0.771E-01
DAV:   3    -0.243239861717E+03    0.16459E-02   -0.16128E-02 29784   0.430E-01    0.453E-01
DAV:   4    -0.243238997236E+03    0.86448E-03   -0.28392E-03 30968   0.201E-01    0.276E-01
DAV:   5    -0.243238846087E+03    0.15115E-03   -0.61095E-04 29800   0.101E-01    0.797E-02
DAV:   6    -0.243238850864E+03   -0.47778E-05   -0.29178E-04 30280   0.628E-02    0.427E-02
DAV:   7    -0.243238849732E+03    0.11321E-05   -0.33676E-05 24608   0.214E-02
  40 F= -.24323885E+03 E0= -.24323885E+03  d E =0.560616E-02  mag=    20.0000
       N       E                     dE             d eps       ncg     rms          rms(c)
DAV:   1    -0.243232794904E+03    0.60560E-02   -0.19116E+00 25640   0.491E+00    0.126E+00
DAV:   2    -0.243240750094E+03   -0.79552E-02   -0.95762E-02 29560   0.951E-01    0.543E-01
DAV:   3    -0.243240000984E+03    0.74911E-03   -0.48733E-03 29784   0.257E-01    0.297E-01
DAV:   4    -0.243239864450E+03    0.13653E-03   -0.83490E-04 31000   0.108E-01    0.152E-01
DAV:   5    -0.243239822400E+03    0.42050E-04   -0.11739E-04 29392   0.465E-02    0.509E-02
DAV:   6    -0.243239817627E+03    0.47732E-05   -0.60053E-05 27216   0.286E-02
  41 F= -.24323982E+03 E0= -.24323982E+03  d E =-.967894E-03  mag=    20.0000
       N       E                     dE             d eps       ncg     rms          rms(c)
DAV:   1    -0.243240667846E+03   -0.84545E-03   -0.25481E+00 25032   0.494E+00    0.748E-01
DAV:   2    -0.243247931251E+03   -0.72634E-02   -0.83432E-02 28384   0.847E-01    0.404E-01
DAV:   3    -0.243247603968E+03    0.32728E-03   -0.28945E-03 30536   0.186E-01    0.239E-01
DAV:   4    -0.243247512741E+03    0.91227E-04   -0.73037E-04 30520   0.900E-02    0.139E-01
DAV:   5    -0.243247512904E+03   -0.16270E-06   -0.89063E-05 28912   0.344E-02
  42 F= -.24324751E+03 E0= -.24324751E+03  d E =-.769528E-02  mag=    20.0000
       N       E                     dE             d eps       ncg     rms          rms(c)
DAV:   1    -0.243243109676E+03    0.44031E-02   -0.13076E+00 25280   0.361E+00    0.341E-01
DAV:   2    -0.243247008339E+03   -0.38987E-02   -0.41196E-02 27544   0.583E-01    0.189E-01
DAV:   3    -0.243246951559E+03    0.56780E-04   -0.95526E-04 30558   0.102E-01    0.110E-01
DAV:   4    -0.243246889302E+03    0.62257E-04   -0.25075E-04 30544   0.590E-02    0.558E-02
DAV:   5    -0.243246889715E+03   -0.41345E-06   -0.54669E-05 27184   0.252E-02
  43 F= -.24324689E+03 E0= -.24324689E+03  d E =0.623189E-03  mag=    20.0000
       N       E                     dE             d eps       ncg     rms          rms(c)
DAV:   1    -0.242851448991E+03    0.39544E+00   -0.76971E+01 25664   0.338E+01    0.364E+00
DAV:   2    -0.243250481258E+03   -0.39903E+00   -0.40812E+00 27212   0.600E+00    0.180E+00
DAV:   3    -0.243252546908E+03   -0.20657E-02   -0.97556E-02 29960   0.104E+00    0.104E+00
DAV:   4    -0.243248046362E+03    0.45005E-02   -0.15639E-02 31008   0.475E-01    0.673E-01
DAV:   5    -0.243247091978E+03    0.95438E-03   -0.36878E-03 30496   0.269E-01    0.227E-01
DAV:   6    -0.243247143537E+03   -0.51559E-04   -0.16237E-03 30208   0.145E-01    0.945E-02
DAV:   7    -0.243247141215E+03    0.23226E-05   -0.16385E-04 29072   0.470E-02    0.465E-02
DAV:   8    -0.243247129419E+03    0.11796E-04   -0.36468E-05 26904   0.253E-02    0.280E-02
DAV:   9    -0.243247127774E+03    0.16446E-05   -0.11021E-05 16408   0.128E-02
  44 F= -.24324713E+03 E0= -.24324713E+03  d E =-.238059E-03  mag=    20.0000
       N       E                     dE             d eps       ncg     rms          rms(c)
DAV:   1    -0.243038985959E+03    0.20814E+00   -0.59474E+01 25744   0.265E+01    0.367E+00
DAV:   2    -0.243275715020E+03   -0.23673E+00   -0.25399E+00 27088   0.463E+00    0.142E+00
DAV:   3    -0.243271702045E+03    0.40130E-02   -0.61518E-02 29864   0.834E-01    0.807E-01
DAV:   4    -0.243269051441E+03    0.26506E-02   -0.11176E-02 31200   0.376E-01    0.503E-01
DAV:   5    -0.243268530230E+03    0.52121E-03   -0.18436E-03 29792   0.171E-01    0.176E-01
DAV:   6    -0.243268582109E+03   -0.51879E-04   -0.88425E-04 31344   0.106E-01    0.773E-02
DAV:   7    -0.243268586686E+03   -0.45770E-05   -0.10141E-04 29688   0.381E-02    0.343E-02
DAV:   8    -0.243268584035E+03    0.26514E-05   -0.38656E-05 25280   0.219E-02
  45 F= -.24326858E+03 E0= -.24326858E+03  d E =-.214563E-01  mag=    20.0000
       N       E                     dE             d eps       ncg     rms          rms(c)
DAV:   1    -0.242935315014E+03    0.33327E+00   -0.65194E+01 25632   0.297E+01    0.530E+00
DAV:   2    -0.243234211790E+03   -0.29890E+00   -0.31868E+00 27408   0.539E+00    0.208E+00
DAV:   3    -0.243226505083E+03    0.77067E-02   -0.10632E-01 30248   0.114E+00    0.107E+00
DAV:   4    -0.243223397939E+03    0.31071E-02   -0.18540E-02 31336   0.511E-01    0.561E-01
DAV:   5    -0.243222808360E+03    0.58958E-03   -0.27185E-03 29704   0.205E-01    0.214E-01
DAV:   6    -0.243222773952E+03    0.34407E-04   -0.10574E-03 30792   0.116E-01    0.111E-01
DAV:   7    -0.243222768743E+03    0.52092E-05   -0.12346E-04 30088   0.460E-02    0.481E-02
DAV:   8    -0.243222765124E+03    0.36194E-05   -0.49445E-05 27192   0.271E-02
  46 F= -.24322277E+03 E0= -.24322277E+03  d E =0.458189E-01  mag=    20.0000
       N       E                     dE             d eps       ncg     rms          rms(c)
DAV:   1    -0.243145476475E+03    0.77292E-01   -0.28147E+01 26040   0.172E+01    0.381E+00
DAV:   2    -0.243246637685E+03   -0.10116E+00   -0.11721E+00 28120   0.317E+00    0.176E+00
DAV:   3    -0.243238804796E+03    0.78329E-02   -0.36471E-02 30024   0.656E-01    0.101E+00
DAV:   4    -0.243235732493E+03    0.30723E-02   -0.64741E-03 30856   0.326E-01    0.649E-01
DAV:   5    -0.243235155096E+03    0.57740E-03   -0.21523E-03 29264   0.178E-01    0.175E-01
DAV:   6    -0.243235203376E+03   -0.48280E-04   -0.83430E-04 31600   0.105E-01    0.780E-02
DAV:   7    -0.243235197001E+03    0.63742E-05   -0.10437E-04 28592   0.356E-02    0.354E-02
DAV:   8    -0.243235193215E+03    0.37862E-05   -0.29152E-05 25336   0.192E-02
  47 F= -.24323519E+03 E0= -.24323519E+03  d E =-.124281E-01  mag=    20.0000
       N       E                     dE             d eps       ncg     rms          rms(c)
DAV:   1    -0.243147798161E+03    0.87399E-01   -0.31101E+01 25632   0.205E+01    0.271E+00
DAV:   2    -0.243286587813E+03   -0.13879E+00   -0.14682E+00 27630   0.363E+00    0.123E+00
DAV:   3    -0.243285464896E+03    0.11229E-02   -0.40760E-02 30520   0.683E-01    0.763E-01
DAV:   4    -0.243283497470E+03    0.19674E-02   -0.74199E-03 31000   0.326E-01    0.449E-01
DAV:   5    -0.243283238800E+03    0.25867E-03   -0.15021E-03 30472   0.159E-01    0.140E-01
DAV:   6    -0.243283251139E+03   -0.12339E-04   -0.62924E-04 31392   0.880E-02    0.601E-02
DAV:   7    -0.243283248400E+03    0.27384E-05   -0.68640E-05 29232   0.295E-02
  48 F= -.24328325E+03 E0= -.24328325E+03  d E =-.480552E-01  mag=    20.0000
       N       E                     dE             d eps       ncg     rms          rms(c)
DAV:   1    -0.243256006693E+03    0.27244E-01   -0.28482E+00 25768   0.537E+00    0.181E+00
DAV:   2    -0.243267385562E+03   -0.11379E-01   -0.15007E-01 29312   0.114E+00    0.797E-01
DAV:   3    -0.243265520567E+03    0.18650E-02   -0.72274E-03 29592   0.303E-01    0.414E-01
DAV:   4    -0.243265216272E+03    0.30429E-03   -0.14291E-03 30128   0.127E-01    0.253E-01
DAV:   5    -0.243265138259E+03    0.78013E-04   -0.23207E-04 29384   0.606E-02    0.918E-02
DAV:   6    -0.243265134283E+03    0.39762E-05   -0.13726E-04 29304   0.406E-02    0.366E-02
DAV:   7    -0.243265134142E+03    0.14128E-06   -0.20491E-05 21368   0.172E-02
  49 F= -.24326513E+03 E0= -.24326513E+03  d E =0.181143E-01  mag=    20.0000
       N       E                     dE             d eps       ncg     rms          rms(c)
DAV:   1    -0.243267364048E+03   -0.22298E-02   -0.37789E+00 25448   0.677E+00    0.149E+00
DAV:   2    -0.243283389234E+03   -0.16025E-01   -0.18825E-01 27928   0.131E+00    0.682E-01
DAV:   3    -0.243282329902E+03    0.10593E-02   -0.67338E-03 29792   0.294E-01    0.375E-01
DAV:   4    -0.243282050420E+03    0.27948E-03   -0.12119E-03 30624   0.130E-01    0.202E-01
DAV:   5    -0.243281971319E+03    0.79101E-04   -0.19165E-04 29376   0.614E-02    0.573E-02
DAV:   6    -0.243281974471E+03   -0.31527E-05   -0.13342E-04 31032   0.409E-02    0.309E-02
DAV:   7    -0.243281974234E+03    0.23772E-06   -0.13757E-05 19576   0.145E-02
  50 F= -.24328197E+03 E0= -.24328197E+03  d E =-.168401E-01  mag=    20.0000
       N       E                     dE             d eps       ncg     rms          rms(c)
DAV:   1    -0.243280244810E+03    0.17297E-02   -0.11799E-01 26600   0.131E+00    0.152E-01
DAV:   2    -0.243280842410E+03   -0.59760E-03   -0.60464E-03 27288   0.225E-01    0.806E-02
DAV:   3    -0.243280850450E+03   -0.80395E-05   -0.17728E-04 30504   0.414E-02    0.441E-02
DAV:   4    -0.243280843980E+03    0.64694E-05   -0.23027E-05 24400   0.179E-02
  51 F= -.24328084E+03 E0= -.24328084E+03  d E =0.113025E-02  mag=    20.0000
