       N       E                     dE             d eps       ncg     rms          ort
DAV:   1     0.253928539695E+04    0.25393E+04   -0.14406E+05  8262   0.160E+03
DAV:   2    -0.180696011065E+03   -0.27200E+04   -0.25875E+04  8262   0.426E+02
DAV:   3    -0.451151482056E+03   -0.27046E+03   -0.26637E+03  8262   0.149E+02
DAV:   4    -0.461786675705E+03   -0.10635E+02   -0.10428E+02  8262   0.257E+01
DAV:   5    -0.462234980722E+03   -0.44831E+00   -0.44702E+00  8262   0.430E+00
SDA:   6    -0.266733171749E+03    0.19550E+03   -0.44702E+00  8262   0.710E+03 0.000E+00
CGA:   7    -0.340339762037E+03   -0.73607E+02   -0.85795E+02  8262   0.881E+02-0.136E+02
CGA:   8    -0.354654135189E+03   -0.14314E+02   -0.13379E+02  8262   0.149E+02 0.642E+01
CGA:   9    -0.358401963419E+03   -0.37478E+01   -0.37533E+01  8262   0.642E+01-0.978E-01
CGA:  10    -0.359781792970E+03   -0.13798E+01   -0.13726E+01  8262   0.226E+01 0.202E+00
CGA:  11    -0.360345911500E+03   -0.56412E+00   -0.56417E+00  8262   0.822E+00-0.708E-02
CGA:  12    -0.360554975816E+03   -0.20906E+00   -0.21053E+00  8262   0.304E+00-0.255E-01
CGA:  13    -0.360633897391E+03   -0.78922E-01   -0.78842E-01  8262   0.988E-01 0.117E-02
CGA:  14    -0.360661478404E+03   -0.27581E-01   -0.27053E-01  8262   0.374E-01 0.789E-02
CGA:  15    -0.360674501434E+03   -0.13023E-01   -0.12912E-01  8262   0.172E-01 0.101E-02
CGA:  16    -0.360680411756E+03   -0.59103E-02   -0.58446E-02  8262   0.722E-02 0.573E-03
CGA:  17    -0.360683230796E+03   -0.28190E-02   -0.30457E-02  8262   0.400E-02-0.121E-02
CGA:  18    -0.360684354289E+03   -0.11235E-02   -0.11617E-02  8262   0.186E-02-0.324E-03
CGA:  19    -0.360684685392E+03   -0.33110E-03   -0.34994E-03  8262   0.795E-03 0.608E-03
CGA:  20    -0.360684884626E+03   -0.19923E-03   -0.21168E-03  8262   0.401E-03 0.373E-03
CGA:  21    -0.360685090465E+03   -0.20584E-03   -0.20667E-03  8262   0.341E-03-0.859E-05
CGA:  22    -0.360685117947E+03   -0.27482E-04   -0.46216E-04  8262   0.251E-03 0.187E-03
CGA:  23    -0.360685143244E+03   -0.25297E-04   -0.37840E-04  8262   0.111E-03 0.152E-03
CGA:  24    -0.360685165685E+03   -0.22441E-04   -0.23664E-04  8262   0.636E-04 0.753E-04
CGA:  25    -0.360685169283E+03   -0.35983E-05   -0.87491E-05  8262   0.561E-04 0.568E-04
   1 F= -.36068517E+03 E0= -.36068517E+03  d E =-.360685E+03  mag=    16.0000
       N       E                     dE             d eps       ncg     rms          ort
SDA:   1    -0.360784581084E+03   -0.99415E-01    0.00000E+00  8262   0.184E-01 0.000E+00
CGA:   2    -0.360788675670E+03   -0.40946E-02   -0.40927E-02  8262   0.412E-02 0.345E-03
CGA:   3    -0.360789843656E+03   -0.11680E-02   -0.11714E-02  8262   0.124E-02-0.561E-04
CGA:   4    -0.360790086314E+03   -0.24266E-03   -0.24392E-03  8262   0.357E-03 0.597E-04
CGA:   5    -0.360790151372E+03   -0.65059E-04   -0.67928E-04  8262   0.106E-03 0.746E-04
CGA:   6    -0.360790169774E+03   -0.18401E-04   -0.21586E-04  8262   0.603E-04 0.651E-04
CGA:   7    -0.360790173996E+03   -0.42218E-05   -0.79340E-05  8262   0.417E-04 0.443E-04
   2 F= -.36079017E+03 E0= -.36079017E+03  d E =-.105005E+00  mag=    16.0000
       N       E                     dE             d eps       ncg     rms          ort
SDA:   1    -0.356225410099E+03    0.45648E+01    0.00000E+00  8262   0.232E+02 0.000E+00
CGA:   2    -0.361670458164E+03   -0.54450E+01   -0.54484E+01  8262   0.530E+01-0.107E+00
CGA:   3    -0.363082468071E+03   -0.14120E+01   -0.14131E+01  8262   0.146E+01-0.258E-01
CGA:   4    -0.363396811820E+03   -0.31434E+00   -0.31437E+00  8262   0.467E+00-0.521E-02
CGA:   5    -0.363494230184E+03   -0.97418E-01   -0.97417E-01  8262   0.148E+00-0.133E-02
CGA:   6    -0.363536946754E+03   -0.42717E-01   -0.42713E-01  8262   0.743E-01 0.299E-04
CGA:   7    -0.363558502832E+03   -0.21556E-01   -0.21527E-01  8262   0.338E-01 0.347E-03
CGA:   8    -0.363568142179E+03   -0.96393E-02   -0.96141E-02  8262   0.117E-01 0.385E-03
CGA:   9    -0.363571781916E+03   -0.36397E-02   -0.36338E-02  8262   0.450E-02 0.708E-04
CGA:  10    -0.363573304000E+03   -0.15221E-02   -0.15056E-02  8262   0.191E-02 0.154E-03
CGA:  11    -0.363573995656E+03   -0.69166E-03   -0.66047E-03  8262   0.781E-03 0.302E-03
CGA:  12    -0.363574317876E+03   -0.32222E-03   -0.30944E-03  8262   0.314E-03 0.119E-03
CGA:  13    -0.363574395868E+03   -0.77992E-04   -0.80843E-04  8262   0.116E-03 0.158E-03
CGA:  14    -0.363574421692E+03   -0.25825E-04   -0.26470E-04  8262   0.480E-04 0.568E-04
CGA:  15    -0.363574421210E+03    0.48212E-06   -0.73657E-05  8262   0.397E-04 0.574E-04
   3 F= -.36357442E+03 E0= -.36357442E+03  d E =-.278425E+01  mag=    16.0000
       N       E                     dE             d eps       ncg     rms          ort
SDA:   1    -0.353450936981E+03    0.10123E+02    0.00000E+00  8262   0.389E+02 0.000E+00
CGA:   2    -0.362293298008E+03   -0.88424E+01   -0.88424E+01  8262   0.894E+01-0.644E-01
CGA:   3    -0.364591318358E+03   -0.22980E+01   -0.22989E+01  8262   0.275E+01-0.392E-01
CGA:   4    -0.365112127368E+03   -0.52081E+00   -0.52058E+00  8262   0.778E+00-0.757E-02
CGA:   5    -0.365277547648E+03   -0.16542E+00   -0.16539E+00  8262   0.225E+00-0.222E-02
CGA:   6    -0.365339417874E+03   -0.61870E-01   -0.61881E-01  8262   0.114E+00-0.255E-03
CGA:   7    -0.365372530395E+03   -0.33113E-01   -0.33096E-01  8262   0.532E-01 0.196E-03
CGA:   8    -0.365388536270E+03   -0.16006E-01   -0.15982E-01  8262   0.203E-01 0.345E-03
CGA:   9    -0.365394702571E+03   -0.61663E-02   -0.61410E-02  8262   0.749E-02 0.380E-03
CGA:  10    -0.365397312119E+03   -0.26095E-02   -0.26027E-02  8262   0.328E-02 0.652E-04
CGA:  11    -0.365398535905E+03   -0.12238E-02   -0.11892E-02  8262   0.147E-02 0.296E-03
CGA:  12    -0.365399149543E+03   -0.61364E-03   -0.60030E-03  8262   0.605E-03 0.105E-03
CGA:  13    -0.365399380079E+03   -0.23054E-03   -0.22617E-03  8262   0.199E-03 0.459E-04
CGA:  14    -0.365399433265E+03   -0.53187E-04   -0.53799E-04  8262   0.613E-04 0.715E-04
CGA:  15    -0.365399456905E+03   -0.23639E-04   -0.23224E-04  8262   0.259E-04 0.213E-04
CGA:  16    -0.365399466883E+03   -0.99789E-05   -0.97055E-05  8262   0.141E-04 0.148E-04
   4 F= -.36539947E+03 E0= -.36539947E+03  d E =-.182505E+01  mag=    16.0000
       N       E                     dE             d eps       ncg     rms          ort
SDA:   1    -0.357118489769E+03    0.82810E+01    0.00000E+00  8262   0.300E+02 0.000E+00
CGA:   2    -0.363694079021E+03   -0.65756E+01   -0.65792E+01  8262   0.715E+01 0.136E-01
CGA:   3    -0.365502634035E+03   -0.18086E+01   -0.18085E+01  8262   0.236E+01-0.259E-01
CGA:   4    -0.365919738502E+03   -0.41710E+00   -0.41688E+00  8262   0.567E+00-0.431E-02
CGA:   5    -0.366040471239E+03   -0.12073E+00   -0.12078E+00  8262   0.158E+00 0.111E-02
CGA:   6    -0.366080845053E+03   -0.40374E-01   -0.40369E-01  8262   0.751E-01 0.894E-03
CGA:   7    -0.366103677814E+03   -0.22833E-01   -0.22857E-01  8262   0.391E-01-0.458E-03
CGA:   8    -0.366116272637E+03   -0.12595E-01   -0.12653E-01  8262   0.180E-01-0.786E-03
CGA:   9    -0.366121619223E+03   -0.53466E-02   -0.53433E-02  8262   0.652E-02 0.714E-04
CGA:  10    -0.366123791889E+03   -0.21727E-02   -0.21716E-02  8262   0.261E-02 0.150E-04
CGA:  11    -0.366124728581E+03   -0.93669E-03   -0.92501E-03  8262   0.115E-02 0.128E-03
CGA:  12    -0.366125192556E+03   -0.46397E-03   -0.46057E-03  8262   0.480E-03 0.294E-04
CGA:  13    -0.366125394499E+03   -0.20194E-03   -0.23266E-03  8262   0.272E-03-0.154E-03
CGA:  14    -0.366125435800E+03   -0.41301E-04   -0.43272E-04  8262   0.954E-04 0.404E-04
CGA:  15    -0.366125464551E+03   -0.28751E-04   -0.28667E-04  8262   0.337E-04-0.485E-05
CGA:  16    -0.366125493833E+03   -0.29282E-04    0.69751E-05  8262   0.156E-04 0.626E-05
CGA:  17    -0.366125507516E+03   -0.13683E-04    0.78892E-05  8262   0.720E-05 0.286E-05
CGA:  18    -0.366125521797E+03   -0.14280E-04    0.59415E-06  8262   0.393E-05 0.250E-05
CGA:  19    -0.366125539311E+03   -0.17515E-04    0.15026E-06  8262   0.226E-05 0.152E-05
CGA:  20    -0.366125548934E+03   -0.96226E-05    0.97418E-07  8262   0.155E-05 0.118E-05
   5 F= -.36612555E+03 E0= -.36612555E+03  d E =-.726082E+00  mag=    16.0000
       N       E                     dE             d eps       ncg     rms          ort
SDA:   1    -0.356876319914E+03    0.92492E+01    0.00000E+00  8262   0.303E+02 0.000E+00
CGA:   2    -0.363735652039E+03   -0.68593E+01   -0.68650E+01  8262   0.854E+01 0.202E-01
CGA:   3    -0.365771223603E+03   -0.20356E+01   -0.20349E+01  8262   0.283E+01-0.161E-01
CGA:   4    -0.366253324572E+03   -0.48210E+00   -0.48201E+00  8262   0.589E+00-0.187E-02
CGA:   5    -0.366378668373E+03   -0.12534E+00   -0.12542E+00  8262   0.168E+00 0.126E-02
CGA:   6    -0.366419188177E+03   -0.40520E-01   -0.40539E-01  8262   0.734E-01 0.787E-03
CGA:   7    -0.366441374035E+03   -0.22186E-01   -0.22203E-01  8262   0.384E-01-0.489E-03
CGA:   8    -0.366453999746E+03   -0.12626E-01   -0.12687E-01  8262   0.190E-01-0.943E-03
CGA:   9    -0.366459682944E+03   -0.56832E-02   -0.56827E-02  8262   0.692E-02 0.129E-04
CGA:  10    -0.366461937998E+03   -0.22551E-02   -0.22526E-02  8262   0.268E-02 0.460E-04
CGA:  11    -0.366462910068E+03   -0.97207E-03   -0.97019E-03  8262   0.123E-02 0.212E-04
CGA:  12    -0.366463394647E+03   -0.48458E-03   -0.48688E-03  8262   0.542E-03-0.215E-04
CGA:  13    -0.366463612949E+03   -0.21830E-03   -0.26620E-03  8262   0.351E-03-0.224E-03
CGA:  14    -0.366463672776E+03   -0.59827E-04   -0.59777E-04  8262   0.121E-03-0.110E-04
CGA:  15    -0.366463711158E+03   -0.38382E-04   -0.56523E-04  8262   0.136E-03-0.974E-04
CGA:  16    -0.366463758995E+03   -0.47837E-04   -0.51570E-04  8262   0.466E-04-0.508E-04
CGA:  17    -0.366463780487E+03   -0.21493E-04    0.23499E-04  8262   0.126E-04 0.103E-04
CGA:  18    -0.366463796791E+03   -0.16303E-04    0.32954E-05  8262   0.424E-05 0.230E-06
CGA:  19    -0.366463808407E+03   -0.11617E-04    0.19762E-06  8262   0.233E-05 0.195E-05
CGA:  20    -0.366463822381E+03   -0.13974E-04    0.92466E-07  8262   0.128E-05 0.125E-05
CGA:  21    -0.366463829410E+03   -0.70289E-05    0.24917E-07  8262   0.644E-06 0.524E-06
   6 F= -.36646383E+03 E0= -.36646383E+03  d E =-.338280E+00  mag=    16.0000
       N       E                     dE             d eps       ncg     rms          ort
SDA:   1    -0.353654316166E+03    0.12810E+02    0.00000E+00  8262   0.366E+02 0.000E+00
CGA:   2    -0.362899245280E+03   -0.92449E+01   -0.92473E+01  8262   0.139E+02-0.496E-02
CGA:   3    -0.365723167863E+03   -0.28239E+01   -0.28247E+01  8262   0.390E+01 0.307E-02
CGA:   4    -0.366391008458E+03   -0.66784E+00   -0.66828E+00  8262   0.755E+00 0.228E-02
CGA:   5    -0.366548409731E+03   -0.15740E+00   -0.15749E+00  8262   0.220E+00 0.740E-03
CGA:   6    -0.366597358161E+03   -0.48948E-01   -0.48951E-01  8262   0.783E-01-0.113E-04
CGA:   7    -0.366619715832E+03   -0.22358E-01   -0.22357E-01  8262   0.371E-01-0.432E-03
CGA:   8    -0.366631640591E+03   -0.11925E-01   -0.11945E-01  8262   0.186E-01-0.555E-03
CGA:   9    -0.366637440980E+03   -0.58004E-02   -0.58025E-02  8262   0.720E-02-0.757E-04
CGA:  10    -0.366639775338E+03   -0.23344E-02   -0.23359E-02  8262   0.275E-02-0.450E-04
CGA:  11    -0.366640783247E+03   -0.10079E-02   -0.10200E-02  8262   0.139E-02-0.149E-03
CGA:  12    -0.366641304458E+03   -0.52121E-03   -0.52759E-03  8262   0.685E-03-0.613E-04
CGA:  13    -0.366641582525E+03   -0.27807E-03   -0.30643E-03  8262   0.369E-03-0.171E-03
CGA:  14    -0.366641680179E+03   -0.97654E-04   -0.99576E-04  8262   0.110E-03-0.384E-04
CGA:  15    -0.366641558110E+03    0.12207E-03   -0.11696E-03  8262   0.834E-03-0.274E-03
CGA:  16    -0.366641744023E+03   -0.18591E-03   -0.19773E-03  8262   0.729E-04 0.994E-04
CGA:  17    -0.366640922812E+03    0.82121E-03   -0.44357E-03  8262   0.392E-02-0.520E-03
CGA:  18    -0.366641609646E+03   -0.68683E-03   -0.80186E-03  8262   0.517E-03 0.267E-03
CGA:  19    -0.366641797981E+03   -0.18834E-03   -0.17646E-03  8262   0.435E-04-0.401E-04
CGA:  20    -0.366641816150E+03   -0.18169E-04   -0.38775E-04  8262   0.114E-03-0.566E-04
CGA:  21    -0.366641814169E+03    0.19813E-05   -0.18659E-04  8262   0.218E-04 0.453E-04
   7 F= -.36664181E+03 E0= -.36664181E+03  d E =-.177985E+00  mag=    16.0000
       N       E                     dE             d eps       ncg     rms          ort
SDA:   1    -0.345281154509E+03    0.21361E+02    0.00000E+00  8262   0.562E+02 0.000E+00
CGA:   2    -0.360679831966E+03   -0.15399E+02   -0.15490E+02  8262   0.254E+02 0.242E+00
CGA:   3    -0.365375492732E+03   -0.46957E+01   -0.47242E+01  8262   0.568E+01 0.362E+00
CGA:   4    -0.366403557586E+03   -0.10281E+01   -0.10288E+01  8262   0.117E+01 0.238E-01
CGA:   5    -0.366642898793E+03   -0.23934E+00   -0.23941E+00  8262   0.349E+00 0.561E-03
CGA:   6    -0.366720239243E+03   -0.77340E-01   -0.77386E-01  8262   0.117E+00-0.145E-03
CGA:   7    -0.366752433847E+03   -0.32195E-01   -0.32120E-01  8262   0.505E-01-0.510E-03
CGA:   8    -0.366767937323E+03   -0.15503E-01   -0.15404E-01  8262   0.225E-01-0.622E-03
CGA:   9    -0.366774895875E+03   -0.69586E-02   -0.69026E-02  8262   0.802E-02-0.362E-03
CGA:  10    -0.366777461044E+03   -0.25652E-02   -0.25254E-02  8262   0.289E-02-0.280E-03
CGA:  11    -0.366778519584E+03   -0.10585E-02   -0.10387E-02  8262   0.148E-02-0.235E-03
CGA:  12    -0.366779187030E+03   -0.66745E-03   -0.68765E-03  8262   0.120E-02-0.392E-03
CGA:  13    -0.366779582845E+03   -0.39582E-03   -0.39322E-03  8262   0.614E-03-0.255E-03
CGA:  14    -0.366779812398E+03   -0.22955E-03   -0.24829E-03  8262   0.471E-03-0.330E-03
CGA:  15    -0.366779902073E+03   -0.89674E-04   -0.10461E-03  8262   0.886E-04 0.629E-04
CGA:  16    -0.366779773643E+03    0.12843E-03   -0.14015E-03  8262   0.134E-02-0.284E-03
CGA:  17    -0.366779949980E+03   -0.17634E-03   -0.23592E-03  8262   0.157E-03 0.186E-03
CGA:  18    -0.366780006094E+03   -0.56114E-04   -0.54572E-04  8262   0.233E-04-0.896E-05
CGA:  19    -0.366780033385E+03   -0.27291E-04    0.15920E-04  8262   0.185E-04-0.821E-05
CGA:  20    -0.366780031845E+03    0.15405E-05   -0.10901E-05  8262   0.102E-04 0.693E-05
   8 F= -.36678003E+03 E0= -.36678003E+03  d E =-.138218E+00  mag=    16.0000
       N       E                     dE             d eps       ncg     rms          ort
SDA:   1    -0.363472659149E+03    0.33074E+01    0.00000E+00  8262   0.954E+01 0.000E+00
CGA:   2    -0.365863912035E+03   -0.23913E+01   -0.23914E+01  8262   0.394E+01-0.344E-03
CGA:   3    -0.366634117555E+03   -0.77021E+00   -0.77022E+00  8262   0.107E+01 0.124E-02
CGA:   4    -0.366823740993E+03   -0.18962E+00   -0.18966E+00  8262   0.220E+00-0.333E-03
CGA:   5    -0.366868435492E+03   -0.44694E-01   -0.44658E-01  8262   0.637E-01-0.234E-03
CGA:   6    -0.366882366779E+03   -0.13931E-01   -0.13916E-01  8262   0.218E-01-0.928E-04
CGA:   7    -0.366888412362E+03   -0.60456E-02   -0.60392E-02  8262   0.978E-02-0.674E-04
CGA:   8    -0.366891439527E+03   -0.30272E-02   -0.30223E-02  8262   0.458E-02-0.782E-04
CGA:   9    -0.366892893583E+03   -0.14541E-02   -0.14505E-02  8262   0.183E-02-0.703E-04
CGA:  10    -0.366893503672E+03   -0.61009E-03   -0.60683E-03  8262   0.744E-03-0.103E-03
CGA:  11    -0.366893754659E+03   -0.25099E-03   -0.25062E-03  8262   0.351E-03-0.341E-04
CGA:  12    -0.366893896075E+03   -0.14142E-03   -0.14429E-03  8262   0.203E-03-0.464E-04
CGA:  13    -0.366893964334E+03   -0.68259E-04   -0.68483E-04  8262   0.780E-04-0.133E-04
CGA:  14    -0.366893941432E+03    0.22902E-04   -0.75098E-04  8262   0.384E-03-0.149E-03
CGA:  15    -0.366894006768E+03   -0.65336E-04   -0.79068E-04  8262   0.398E-04 0.691E-04
CGA:  16    -0.366893976751E+03    0.30018E-04   -0.49951E-04  8262   0.359E-03-0.120E-03
CGA:  17    -0.366894014184E+03   -0.37433E-04   -0.62572E-04  8262   0.538E-04 0.990E-04
CGA:  18    -0.366894035366E+03   -0.21182E-04   -0.20086E-04  8262   0.813E-05-0.895E-05
CGA:  19    -0.366894051610E+03   -0.16244E-04    0.71915E-06  8262   0.655E-05-0.350E-05
CGA:  20    -0.366894050713E+03    0.89745E-06   -0.17645E-06  8262   0.503E-05 0.297E-05
   9 F= -.36689405E+03 E0= -.36689405E+03  d E =-.114019E+00  mag=    16.0000
       N       E                     dE             d eps       ncg     rms          ort
SDA:   1    -0.365205123730E+03    0.16889E+01    0.00000E+00  8262   0.505E+01 0.000E+00
CGA:   2    -0.366431453826E+03   -0.12263E+01   -0.12265E+01  8262   0.192E+01-0.278E-02
CGA:   3    -0.366837200374E+03   -0.40575E+00   -0.40597E+00  8262   0.574E+00 0.117E-02
CGA:   4    -0.366934607834E+03   -0.97407E-01   -0.97661E-01  8262   0.112E+00 0.101E-02
CGA:   5    -0.366958061847E+03   -0.23454E-01   -0.23422E-01  8262   0.335E-01-0.249E-03
CGA:   6    -0.366965727638E+03   -0.76658E-02   -0.76106E-02  8262   0.131E-01-0.480E-03
CGA:   7    -0.366969449334E+03   -0.37217E-02   -0.37160E-02  8262   0.649E-02-0.120E-03
CGA:   8    -0.366971454551E+03   -0.20052E-02   -0.20075E-02  8262   0.304E-02 0.100E-03
CGA:   9    -0.366972457181E+03   -0.10026E-02   -0.10024E-02  8262   0.126E-02-0.255E-04
CGA:  10    -0.366972880266E+03   -0.42309E-03   -0.42341E-03  8262   0.524E-03-0.579E-04
CGA:  11    -0.366973064327E+03   -0.18406E-03   -0.18589E-03  8262   0.259E-03-0.470E-04
CGA:  12    -0.366973150600E+03   -0.86273E-04   -0.86398E-04  8262   0.105E-03-0.408E-05
CGA:  13    -0.366973186165E+03   -0.35565E-04   -0.35547E-04  8262   0.330E-04 0.297E-05
CGA:  14    -0.366973199201E+03   -0.13036E-04   -0.13234E-04  8262   0.124E-04-0.377E-05
CGA:  15    -0.366973203455E+03   -0.42536E-05   -0.43303E-05  8262   0.452E-05-0.145E-05
  10 F= -.36697320E+03 E0= -.36697320E+03  d E =-.791527E-01  mag=    16.0000
       N       E                     dE             d eps       ncg     rms          ort
SDA:   1    -0.364523921007E+03    0.24493E+01    0.00000E+00  8262   0.676E+01 0.000E+00
CGA:   2    -0.366256755568E+03   -0.17328E+01   -0.17331E+01  8262   0.303E+01 0.581E-03
CGA:   3    -0.366830603848E+03   -0.57385E+00   -0.57370E+00  8262   0.765E+00-0.113E-02
CGA:   4    -0.366962992598E+03   -0.13239E+00   -0.13238E+00  8262   0.144E+00-0.285E-03
CGA:   5    -0.366991693577E+03   -0.28701E-01   -0.28633E-01  8262   0.400E-01-0.579E-03
CGA:   6    -0.367000298143E+03   -0.86046E-02   -0.85530E-02  8262   0.126E-01-0.515E-03
CGA:   7    -0.367003664796E+03   -0.33667E-02   -0.33615E-02  8262   0.552E-02-0.127E-03
CGA:   8    -0.367005408152E+03   -0.17434E-02   -0.17440E-02  8262   0.281E-02-0.635E-04
CGA:   9    -0.367006366704E+03   -0.95855E-03   -0.96404E-03  8262   0.129E-02-0.147E-03
CGA:  10    -0.367006789897E+03   -0.42319E-03   -0.42855E-03  8262   0.536E-03-0.138E-03
CGA:  11    -0.367006968651E+03   -0.17875E-03   -0.18607E-03  8262   0.282E-03-0.977E-04
CGA:  12    -0.367007049346E+03   -0.80695E-04   -0.80625E-04  8262   0.116E-03 0.200E-05
CGA:  13    -0.367007097547E+03   -0.48202E-04   -0.50414E-04  8262   0.604E-04-0.196E-04
CGA:  14    -0.367007115484E+03   -0.17937E-04   -0.18066E-04  8262   0.202E-04-0.371E-05
CGA:  15    -0.367007129333E+03   -0.13849E-04    0.26400E-04  8262   0.606E-05-0.734E-06
CGA:  16    -0.367007134213E+03   -0.48802E-05    0.33992E-05  8262   0.202E-05 0.373E-06
  11 F= -.36700713E+03 E0= -.36700713E+03  d E =-.339308E-01  mag=    16.0000
       N       E                     dE             d eps       ncg     rms          ort
SDA:   1    -0.346034686324E+03    0.20972E+02    0.00000E+00  8262   0.566E+02 0.000E+00
CGA:   2    -0.360723241843E+03   -0.14689E+02   -0.14699E+02  8262   0.261E+02 0.485E-01
CGA:   3    -0.365544756069E+03   -0.48215E+01   -0.48283E+01  8262   0.604E+01 0.429E-01
CGA:   4    -0.366615920679E+03   -0.10712E+01   -0.10706E+01  8262   0.120E+01-0.255E-02
CGA:   5    -0.366854158688E+03   -0.23824E+00   -0.23804E+00  8262   0.342E+00-0.234E-02
CGA:   6    -0.366928067327E+03   -0.73909E-01   -0.73805E-01  8262   0.107E+00-0.138E-02
CGA:   7    -0.366956566618E+03   -0.28499E-01   -0.28473E-01  8262   0.455E-01-0.922E-03
CGA:   8    -0.366970764268E+03   -0.14198E-01   -0.14216E-01  8262   0.217E-01-0.107E-02
CGA:   9    -0.366977773044E+03   -0.70088E-02   -0.70435E-02  8262   0.891E-02-0.105E-02
CGA:  10    -0.366980573638E+03   -0.28006E-02   -0.28245E-02  8262   0.337E-02-0.731E-03
CGA:  11    -0.366981693127E+03   -0.11195E-02   -0.11490E-02  8262   0.167E-02-0.423E-03
CGA:  12    -0.366982293847E+03   -0.60072E-03   -0.62681E-03  8262   0.964E-03-0.210E-03
CGA:  13    -0.366982652701E+03   -0.35885E-03   -0.37784E-03  8262   0.471E-03-0.139E-03
CGA:  14    -0.366982815231E+03   -0.16253E-03   -0.17450E-03  8262   0.194E-03-0.105E-03
CGA:  15    -0.366982816076E+03   -0.84562E-06   -0.12462E-03  8262   0.530E-03-0.248E-03
CGA:  16    -0.366982924692E+03   -0.10862E-03   -0.11397E-03  8262   0.688E-04 0.399E-04
CGA:  17    -0.366982949800E+03   -0.25108E-04   -0.25087E-04  8262   0.273E-04-0.613E-05
CGA:  18    -0.366982803874E+03    0.14593E-03   -0.78696E-04  8262   0.694E-03-0.107E-03
CGA:  19    -0.366982930060E+03   -0.12619E-03   -0.14436E-03  8262   0.984E-04 0.436E-04
CGA:  20    -0.366982976686E+03   -0.46626E-04   -0.43495E-04  8262   0.359E-04-0.167E-04
CGA:  21    -0.366982979650E+03   -0.29646E-05   -0.65796E-05  8262   0.876E-05 0.968E-05
  12 F= -.36698298E+03 E0= -.36698298E+03  d E =0.241546E-01  mag=    16.0000
       N       E                     dE             d eps       ncg     rms          ort
SDA:   1    -0.363534189659E+03    0.34488E+01    0.00000E+00  8262   0.913E+01 0.000E+00
CGA:   2    -0.365988937637E+03   -0.24547E+01   -0.24562E+01  8262   0.413E+01 0.115E-01
CGA:   3    -0.366774771103E+03   -0.78583E+00   -0.78466E+00  8262   0.101E+01 0.566E-02
CGA:   4    -0.366958153891E+03   -0.18338E+00   -0.18269E+00  8262   0.209E+00-0.114E-02
CGA:   5    -0.366999502380E+03   -0.41348E-01   -0.41315E-01  8262   0.603E-01-0.243E-04
CGA:   6    -0.367012607749E+03   -0.13105E-01   -0.13228E-01  8262   0.200E-01 0.449E-03
CGA:   7    -0.367017849154E+03   -0.52414E-02   -0.53135E-02  8262   0.806E-02 0.332E-03
CGA:   8    -0.367020289263E+03   -0.24401E-02   -0.24638E-02  8262   0.358E-02 0.142E-03
CGA:   9    -0.367021334163E+03   -0.10449E-02   -0.10845E-02  8262   0.129E-02 0.246E-03
CGA:  10    -0.367021684137E+03   -0.34997E-03   -0.38395E-03  8262   0.447E-03 0.197E-03
CGA:  11    -0.367021805192E+03   -0.12106E-03   -0.14159E-03  8262   0.192E-03 0.123E-03
CGA:  12    -0.367021844646E+03   -0.39454E-04   -0.59465E-04  8262   0.101E-03 0.105E-03
CGA:  13    -0.367021864335E+03   -0.19689E-04   -0.26836E-04  8262   0.501E-04 0.451E-04
CGA:  14    -0.367021869005E+03   -0.46705E-05   -0.15175E-04  8262   0.373E-04 0.507E-04
  13 F= -.36702187E+03 E0= -.36702187E+03  d E =-.388894E-01  mag=    16.0000
       N       E                     dE             d eps       ncg     rms          ort
SDA:   1    -0.363811250677E+03    0.32106E+01    0.00000E+00  8262   0.875E+01 0.000E+00
CGA:   2    -0.366069452176E+03   -0.22582E+01   -0.22597E+01  8262   0.414E+01-0.237E-02
CGA:   3    -0.366837870559E+03   -0.76842E+00   -0.76925E+00  8262   0.991E+00 0.387E-02
CGA:   4    -0.367011145183E+03   -0.17327E+00   -0.17345E+00  8262   0.194E+00 0.915E-03
CGA:   5    -0.367049539868E+03   -0.38395E-01   -0.38437E-01  8262   0.548E-01 0.243E-03
CGA:   6    -0.367061204794E+03   -0.11665E-01   -0.11696E-01  8262   0.171E-01 0.201E-03
CGA:   7    -0.367065750170E+03   -0.45454E-02   -0.45525E-02  8262   0.719E-02 0.752E-04
CGA:   8    -0.367067968164E+03   -0.22180E-02   -0.22200E-02  8262   0.337E-02 0.467E-04
CGA:   9    -0.367069081254E+03   -0.11131E-02   -0.11121E-02  8262   0.140E-02-0.539E-04
CGA:  10    -0.367069514190E+03   -0.43294E-03   -0.43286E-03  8262   0.506E-03-0.283E-05
CGA:  11    -0.367069672684E+03   -0.15849E-03   -0.15930E-03  8262   0.206E-03 0.279E-04
CGA:  12    -0.367069763704E+03   -0.91020E-04   -0.92228E-04  8262   0.132E-03-0.149E-04
CGA:  13    -0.367069803269E+03   -0.39565E-04   -0.39965E-04  8262   0.526E-04 0.201E-04
CGA:  14    -0.367069825043E+03   -0.21774E-04   -0.21793E-04  8262   0.222E-04-0.145E-05
CGA:  15    -0.367069826793E+03   -0.17502E-05   -0.36823E-05  8262   0.953E-05 0.110E-04
  14 F= -.36706983E+03 E0= -.36706983E+03  d E =-.479578E-01  mag=    16.0000
       N       E                     dE             d eps       ncg     rms          ort
SDA:   1    -0.366776788261E+03    0.29304E+00    0.00000E+00  8262   0.882E+00 0.000E+00
CGA:   2    -0.366981532563E+03   -0.20474E+00   -0.20493E+00  8262   0.375E+00 0.163E-02
CGA:   3    -0.367054141876E+03   -0.72609E-01   -0.72696E-01  8262   0.106E+00 0.671E-03
CGA:   4    -0.367073191349E+03   -0.19049E-01   -0.19014E-01  8262   0.222E-01-0.282E-03
CGA:   5    -0.367077551798E+03   -0.43604E-02   -0.43328E-02  8262   0.623E-02-0.248E-03
CGA:   6    -0.367078900606E+03   -0.13488E-02   -0.13431E-02  8262   0.211E-02-0.683E-04
CGA:   7    -0.367079447269E+03   -0.54666E-03   -0.54805E-03  8262   0.856E-03 0.380E-04
CGA:   8    -0.367079696396E+03   -0.24913E-03   -0.24980E-03  8262   0.363E-03 0.632E-04
CGA:   9    -0.367079820876E+03   -0.12448E-03   -0.12416E-03  8262   0.154E-03 0.144E-04
CGA:  10    -0.367079875557E+03   -0.54681E-04   -0.55058E-04  8262   0.715E-04-0.805E-05
CGA:  11    -0.367079895425E+03   -0.19869E-04   -0.19915E-04  8262   0.274E-04 0.747E-05
CGA:  12    -0.367079904008E+03   -0.85830E-05   -0.86799E-05  8262   0.117E-04 0.735E-05
  15 F= -.36707990E+03 E0= -.36707990E+03  d E =-.100772E-01  mag=    16.0000
       N       E                     dE             d eps       ncg     rms          ort
SDA:   1    -0.366448193773E+03    0.63170E+00    0.00000E+00  8262   0.165E+01 0.000E+00
CGA:   2    -0.366923126512E+03   -0.47493E+00   -0.47497E+00  8262   0.677E+00 0.502E-02
CGA:   3    -0.367052463930E+03   -0.12934E+00   -0.12914E+00  8262   0.161E+00-0.189E-02
CGA:   4    -0.367080190660E+03   -0.27727E-01   -0.27598E-01  8262   0.322E-01-0.113E-02
CGA:   5    -0.367086562062E+03   -0.63714E-02   -0.63473E-02  8262   0.887E-02-0.289E-03
CGA:   6    -0.367088384145E+03   -0.18221E-02   -0.18253E-02  8262   0.266E-02 0.427E-04
CGA:   7    -0.367089065722E+03   -0.68158E-03   -0.68393E-03  8262   0.108E-02 0.115E-03
CGA:   8    -0.367089413336E+03   -0.34761E-03   -0.34524E-03  8262   0.537E-03 0.750E-04
CGA:   9    -0.367089592890E+03   -0.17955E-03   -0.17744E-03  8262   0.225E-03 0.642E-04
CGA:  10    -0.367089664932E+03   -0.72042E-04   -0.71785E-04  8262   0.817E-04 0.393E-04
CGA:  11    -0.367089690347E+03   -0.25416E-04   -0.25683E-04  8262   0.338E-04 0.252E-04
CGA:  12    -0.367089696796E+03   -0.64484E-05   -0.85121E-05  8262   0.184E-04 0.243E-04
  16 F= -.36708970E+03 E0= -.36708970E+03  d E =-.979279E-02  mag=    16.0000
       N       E                     dE             d eps       ncg     rms          ort
SDA:   1    -0.343634990181E+03    0.23455E+02    0.00000E+00  8262   0.602E+02 0.000E+00
CGA:   2    -0.359068538078E+03   -0.15434E+02   -0.15436E+02  8262   0.292E+02 0.736E-01
CGA:   3    -0.364489202753E+03   -0.54207E+01   -0.54289E+01  8262   0.691E+01 0.425E-01
CGA:   4    -0.365755940619E+03   -0.12667E+01   -0.12666E+01  8262   0.152E+01-0.120E-02
CGA:   5    -0.366055214752E+03   -0.29927E+00   -0.29930E+00  8262   0.442E+00 0.117E-03
CGA:   6    -0.366153861872E+03   -0.98647E-01   -0.98721E-01  8262   0.153E+00 0.203E-02
CGA:   7    -0.366194719119E+03   -0.40857E-01   -0.40845E-01  8262   0.607E-01 0.119E-02
CGA:   8    -0.366212499440E+03   -0.17780E-01   -0.17749E-01  8262   0.245E-01 0.911E-03
CGA:   9    -0.366220044642E+03   -0.75452E-02   -0.75308E-02  8262   0.860E-02 0.314E-03
CGA:  10    -0.366222646642E+03   -0.26020E-02   -0.25930E-02  8262   0.293E-02 0.232E-03
CGA:  11    -0.366223523643E+03   -0.87700E-03   -0.86674E-03  8262   0.107E-02 0.385E-03
CGA:  12    -0.366223972544E+03   -0.44890E-03   -0.44021E-03  8262   0.581E-03 0.847E-04
CGA:  13    -0.366224123793E+03   -0.15125E-03   -0.15603E-03  8262   0.256E-03 0.251E-03
CGA:  14    -0.366224208120E+03   -0.84327E-04   -0.87784E-04  8262   0.113E-03 0.124E-03
CGA:  15    -0.366224248763E+03   -0.40644E-04   -0.41700E-04  8262   0.584E-04 0.653E-04
CGA:  16    -0.366224249565E+03   -0.80152E-06   -0.69808E-05  8262   0.359E-04 0.425E-04
  17 F= -.36622425E+03 E0= -.36622425E+03  d E =0.865447E+00  mag=    16.0000
       N       E                     dE             d eps       ncg     rms          ort
SDA:   1    -0.356022453287E+03    0.10202E+02    0.00000E+00  8262   0.264E+02 0.000E+00
CGA:   2    -0.364543081183E+03   -0.85206E+01   -0.85228E+01  8262   0.852E+01-0.282E-01
CGA:   3    -0.366393937063E+03   -0.18509E+01   -0.18515E+01  8262   0.233E+01 0.403E-02
CGA:   4    -0.366823069067E+03   -0.42913E+00   -0.42927E+00  8262   0.608E+00 0.253E-02
CGA:   5    -0.366953837882E+03   -0.13077E+00   -0.13077E+00  8262   0.196E+00 0.109E-03
CGA:   6    -0.367001630404E+03   -0.47793E-01   -0.47792E-01  8262   0.863E-01-0.153E-03
CGA:   7    -0.367023964129E+03   -0.22334E-01   -0.22335E-01  8262   0.320E-01-0.179E-03
CGA:   8    -0.367033455092E+03   -0.94910E-02   -0.94884E-02  8262   0.126E-01 0.478E-04
CGA:   9    -0.367036940755E+03   -0.34857E-02   -0.34785E-02  8262   0.403E-02 0.311E-03
CGA:  10    -0.367038230036E+03   -0.12893E-02   -0.12990E-02  8262   0.146E-02-0.161E-03
CGA:  11    -0.367038676944E+03   -0.44691E-03   -0.44546E-03  8262   0.556E-03 0.231E-04
CGA:  12    -0.367038867271E+03   -0.19033E-03   -0.18675E-03  8262   0.244E-03 0.497E-04
CGA:  13    -0.367038977986E+03   -0.11072E-03   -0.15173E-03  8262   0.293E-03-0.134E-03
CGA:  14    -0.367039005918E+03   -0.27932E-04   -0.42830E-04  8262   0.630E-04 0.112E-03
CGA:  15    -0.367039030786E+03   -0.24868E-04   -0.25110E-04  8262   0.369E-04-0.150E-04
CGA:  16    -0.367039056328E+03   -0.25543E-04    0.57572E-05  8262   0.283E-04 0.154E-05
CGA:  17    -0.367039064956E+03   -0.86273E-05   -0.86592E-05  8262   0.165E-04-0.154E-05
  18 F= -.36703906E+03 E0= -.36703906E+03  d E =-.814815E+00  mag=    16.0000
       N       E                     dE             d eps       ncg     rms          ort
SDA:   1    -0.366908720859E+03    0.13034E+00    0.00000E+00  8262   0.449E+00 0.000E+00
CGA:   2    -0.367048515255E+03   -0.13979E+00   -0.13973E+00  8262   0.159E+00 0.136E-02
CGA:   3    -0.367081093659E+03   -0.32578E-01   -0.32576E-01  8262   0.469E-01-0.580E-04
CGA:   4    -0.367089524298E+03   -0.84306E-02   -0.84596E-02  8262   0.110E-01 0.320E-03
CGA:   5    -0.367091951528E+03   -0.24272E-02   -0.24193E-02  8262   0.375E-02-0.177E-03
CGA:   6    -0.367092849094E+03   -0.89757E-03   -0.89257E-03  8262   0.167E-02-0.256E-03
CGA:   7    -0.367093244745E+03   -0.39565E-03   -0.39562E-03  8262   0.577E-03-0.495E-05
CGA:   8    -0.367093394539E+03   -0.14979E-03   -0.14979E-03  8262   0.199E-03 0.556E-04
CGA:   9    -0.367093466643E+03   -0.72104E-04   -0.75116E-04  8262   0.105E-03-0.361E-04
CGA:  10    -0.367093489026E+03   -0.22383E-04   -0.22387E-04  8262   0.334E-04 0.750E-06
CGA:  11    -0.367093284316E+03    0.20471E-03   -0.11026E-03  8262   0.105E-02-0.180E-03
CGA:  12    -0.367093483723E+03   -0.19941E-03   -0.21686E-03  8262   0.810E-04 0.632E-04
CGA:  13    -0.367093513423E+03   -0.29700E-04   -0.28518E-04  8262   0.237E-04-0.869E-05
CGA:  14    -0.367093510347E+03    0.30761E-05   -0.21917E-05  8262   0.132E-04 0.147E-04
  19 F= -.36709351E+03 E0= -.36709351E+03  d E =-.544454E-01  mag=    16.0000
       N       E                     dE             d eps       ncg     rms          ort
SDA:   1    -0.366651837218E+03    0.44168E+00    0.00000E+00  8262   0.123E+01 0.000E+00
CGA:   2    -0.366978405267E+03   -0.32657E+00   -0.32702E+00  8262   0.540E+00 0.116E-02
CGA:   3    -0.367079833397E+03   -0.10143E+00   -0.10146E+00  8262   0.150E+00 0.136E-03
CGA:   4    -0.367108695561E+03   -0.28862E-01   -0.28952E-01  8262   0.347E-01 0.428E-03
CGA:   5    -0.367115610103E+03   -0.69145E-02   -0.68696E-02  8262   0.105E-01-0.243E-03
CGA:   6    -0.367118117678E+03   -0.25076E-02   -0.24492E-02  8262   0.407E-02-0.385E-03
CGA:   7    -0.367119149077E+03   -0.10314E-02   -0.10280E-02  8262   0.155E-02-0.293E-04
CGA:   8    -0.367119547208E+03   -0.39813E-03   -0.40782E-03  8262   0.537E-03 0.892E-04
CGA:   9    -0.367119729538E+03   -0.18233E-03   -0.18081E-03  8262   0.209E-03-0.308E-04
CGA:  10    -0.367119788427E+03   -0.58889E-04   -0.58539E-04  8262   0.701E-04-0.518E-05
CGA:  11    -0.367119019095E+03    0.76933E-03   -0.41565E-03  8262   0.384E-02-0.470E-03
CGA:  12    -0.367119653500E+03   -0.63441E-03   -0.74942E-03  8262   0.397E-03 0.243E-03
CGA:  13    -0.367119828833E+03   -0.17533E-03   -0.14943E-03  8262   0.168E-03-0.914E-04
CGA:  14    -0.367119812265E+03    0.16568E-04   -0.17266E-04  8262   0.763E-04 0.691E-04
CGA:  15    -0.367119800673E+03    0.11593E-04   -0.12449E-04  8262   0.317E-04 0.497E-04
CGA:  16    -0.367119867644E+03   -0.66971E-04    0.10877E-04  8262   0.414E-04-0.132E-04
CGA:  17    -0.367119860742E+03    0.69021E-05   -0.16258E-05  8262   0.294E-04 0.168E-04
  20 F= -.36711986E+03 E0= -.36711986E+03  d E =-.263504E-01  mag=    16.0000
       N       E                     dE             d eps       ncg     rms          ort
SDA:   1    -0.367100644708E+03    0.19223E-01    0.00000E+00  8262   0.694E-01 0.000E+00
CGA:   2    -0.367115226358E+03   -0.14582E-01   -0.14671E-01  8262   0.315E-01 0.272E-03
CGA:   3    -0.367121591782E+03   -0.63654E-02   -0.63579E-02  8262   0.869E-02-0.286E-04
CGA:   4    -0.367123202619E+03   -0.16108E-02   -0.16033E-02  8262   0.207E-02-0.218E-04
CGA:   5    -0.367123607112E+03   -0.40449E-03   -0.39099E-03  8262   0.566E-03-0.469E-04
CGA:   6    -0.367123747229E+03   -0.14012E-03   -0.12918E-03  8262   0.211E-03-0.476E-04
CGA:   7    -0.367123791235E+03   -0.44007E-04   -0.45504E-04  8262   0.672E-04 0.689E-05
CGA:   8    -0.367123801511E+03   -0.10276E-04   -0.14495E-04  8262   0.210E-04 0.181E-04
CGA:   9    -0.367123806498E+03   -0.49875E-05   -0.62264E-05  8262   0.866E-05 0.632E-05
  21 F= -.36712381E+03 E0= -.36712381E+03  d E =-.394576E-02  mag=    16.0000
       N       E                     dE             d eps       ncg     rms          ort
SDA:   1    -0.367076475455E+03    0.47326E-01    0.00000E+00  8262   0.160E+00 0.000E+00
CGA:   2    -0.367107606871E+03   -0.31131E-01   -0.31249E-01  8262   0.702E-01 0.501E-03
CGA:   3    -0.367122453802E+03   -0.14847E-01   -0.14822E-01  8262   0.202E-01-0.146E-03
CGA:   4    -0.367126149177E+03   -0.36954E-02   -0.36695E-02  8262   0.450E-02-0.112E-03
CGA:   5    -0.367126989763E+03   -0.84059E-03   -0.83040E-03  8262   0.119E-02-0.514E-04
CGA:   6    -0.367127256404E+03   -0.26664E-03   -0.26194E-03  8262   0.395E-03-0.315E-04
CGA:   7    -0.367127345767E+03   -0.89362E-04   -0.91450E-04  8262   0.130E-03 0.164E-04
CGA:   8    -0.367127376912E+03   -0.31146E-04   -0.33447E-04  8262   0.446E-04 0.206E-04
CGA:   9    -0.367127391607E+03   -0.14695E-04   -0.15047E-04  8262   0.193E-04 0.571E-05
CGA:  10    -0.367127395846E+03   -0.42384E-05   -0.50227E-05  8262   0.738E-05 0.662E-05
  22 F= -.36712740E+03 E0= -.36712740E+03  d E =-.358935E-02  mag=    16.0000
       N       E                     dE             d eps       ncg     rms          ort
SDA:   1    -0.367048115624E+03    0.79276E-01    0.00000E+00  8262   0.264E+00 0.000E+00
CGA:   2    -0.367098667074E+03   -0.50551E-01   -0.50672E-01  8262   0.114E+00 0.759E-03
CGA:   3    -0.367122923954E+03   -0.24257E-01   -0.24228E-01  8262   0.331E-01-0.259E-03
CGA:   4    -0.367128872187E+03   -0.59482E-02   -0.59221E-02  8262   0.710E-02-0.161E-03
CGA:   5    -0.367130167001E+03   -0.12948E-02   -0.12911E-02  8262   0.181E-02-0.263E-04
CGA:   6    -0.367130563201E+03   -0.39620E-03   -0.39514E-03  8262   0.568E-03-0.116E-04
CGA:   7    -0.367130697456E+03   -0.13425E-03   -0.13547E-03  8262   0.190E-03 0.182E-04
CGA:   8    -0.367130750724E+03   -0.53268E-04   -0.53665E-04  8262   0.730E-04 0.134E-04
CGA:   9    -0.367130774768E+03   -0.24044E-04   -0.24021E-04  8262   0.311E-04 0.377E-05
CGA:  10    -0.367130780836E+03   -0.60685E-05   -0.70496E-05  8262   0.113E-04 0.114E-04
  23 F= -.36713078E+03 E0= -.36713078E+03  d E =-.338499E-02  mag=    16.0000
       N       E                     dE             d eps       ncg     rms          ort
SDA:   1    -0.366242967622E+03    0.88781E+00    0.00000E+00  8262   0.272E+01 0.000E+00
CGA:   2    -0.366799279377E+03   -0.55631E+00   -0.55672E+00  8262   0.127E+01 0.309E-02
CGA:   3    -0.367058935012E+03   -0.25966E+00   -0.25954E+00  8262   0.335E+00-0.147E-02
CGA:   4    -0.367118555264E+03   -0.59620E-01   -0.59527E-01  8262   0.702E-01-0.662E-03
CGA:   5    -0.367131429826E+03   -0.12875E-01   -0.12873E-01  8262   0.180E-01-0.934E-05
CGA:   6    -0.367135322480E+03   -0.38927E-02   -0.38964E-02  8262   0.548E-02 0.634E-04
CGA:   7    -0.367136646592E+03   -0.13241E-02   -0.13281E-02  8262   0.187E-02 0.130E-03
CGA:   8    -0.367137180903E+03   -0.53431E-03   -0.53344E-03  8262   0.737E-03 0.102E-03
CGA:   9    -0.367137409699E+03   -0.22880E-03   -0.22731E-03  8262   0.284E-03 0.689E-04
CGA:  10    -0.367137482002E+03   -0.72304E-04   -0.74949E-04  8262   0.988E-04 0.859E-04
CGA:  11    -0.367137508743E+03   -0.26741E-04   -0.28870E-04  8262   0.418E-04 0.464E-04
CGA:  12    -0.367137523826E+03   -0.15083E-04   -0.15445E-04  8262   0.225E-04 0.215E-04
CGA:  13    -0.367137527165E+03   -0.33382E-05   -0.43170E-05  8262   0.114E-04 0.130E-04
  24 F= -.36713753E+03 E0= -.36713753E+03  d E =-.674633E-02  mag=    16.0000
       N       E                     dE             d eps       ncg     rms          ort
SDA:   1    -0.361167204100E+03    0.59703E+01    0.00000E+00  8262   0.162E+02 0.000E+00
CGA:   2    -0.365112466160E+03   -0.39453E+01   -0.39458E+01  8262   0.831E+01 0.141E-01
CGA:   3    -0.366654342875E+03   -0.15419E+01   -0.15420E+01  8262   0.186E+01-0.168E-02
CGA:   4    -0.366985196378E+03   -0.33085E+00   -0.33073E+00  8262   0.387E+00-0.951E-03
CGA:   5    -0.367058408323E+03   -0.73212E-01   -0.73215E-01  8262   0.106E+00-0.403E-04
CGA:   6    -0.367081498257E+03   -0.23090E-01   -0.23078E-01  8262   0.331E-01-0.372E-03
CGA:   7    -0.367089829562E+03   -0.83313E-02   -0.83317E-02  8262   0.126E-01-0.223E-03
CGA:   8    -0.367093559022E+03   -0.37295E-02   -0.37315E-02  8262   0.550E-02-0.441E-04
CGA:   9    -0.367095286783E+03   -0.17278E-02   -0.17355E-02  8262   0.214E-02-0.123E-03
CGA:  10    -0.367095931878E+03   -0.64510E-03   -0.64505E-03  8262   0.732E-03 0.416E-06
CGA:  11    -0.367096202585E+03   -0.27071E-03   -0.30102E-03  8262   0.466E-03-0.199E-03
CGA:  12    -0.367096325332E+03   -0.12275E-03   -0.18246E-03  8262   0.449E-03-0.221E-03
CGA:  13    -0.367096369597E+03   -0.44265E-04   -0.15120E-03  8262   0.501E-03-0.299E-03
CGA:  14    -0.367096511573E+03   -0.14198E-03   -0.14210E-03  8262   0.114E-03 0.831E-05
CGA:  15    -0.367096003963E+03    0.50761E-03   -0.27497E-03  8262   0.286E-02-0.454E-03
CGA:  16    -0.367096452342E+03   -0.44838E-03   -0.52594E-03  8262   0.363E-03 0.216E-03
CGA:  17    -0.367096631587E+03   -0.17925E-03   -0.16867E-03  8262   0.163E-03-0.115E-03
CGA:  18    -0.367096638353E+03   -0.67661E-05   -0.19549E-04  8262   0.560E-04 0.371E-04
  25 F= -.36709664E+03 E0= -.36709664E+03  d E =0.408888E-01  mag=    16.0000
       N       E                     dE             d eps       ncg     rms          ort
SDA:   1    -0.366569354922E+03    0.52728E+00    0.00000E+00  8262   0.160E+01 0.000E+00
CGA:   2    -0.366941806908E+03   -0.37245E+00   -0.37227E+00  8262   0.788E+00-0.597E-03
CGA:   3    -0.367097244485E+03   -0.15544E+00   -0.15553E+00  8262   0.213E+00 0.213E-03
CGA:   4    -0.367136472287E+03   -0.39228E-01   -0.39184E-01  8262   0.495E-01-0.135E-03
CGA:   5    -0.367146357298E+03   -0.98850E-02   -0.98637E-02  8262   0.151E-01-0.816E-04
CGA:   6    -0.367149676523E+03   -0.33192E-02   -0.33440E-02  8262   0.532E-02 0.120E-03
CGA:   7    -0.367151033160E+03   -0.13566E-02   -0.13850E-02  8262   0.199E-02 0.173E-03
CGA:   8    -0.367151559272E+03   -0.52611E-03   -0.54564E-03  8262   0.733E-03 0.132E-03
CGA:   9    -0.367151768269E+03   -0.20900E-03   -0.21890E-03  8262   0.250E-03 0.787E-04
CGA:  10    -0.367151838320E+03   -0.70050E-04   -0.75279E-04  8262   0.896E-04 0.410E-04
CGA:  11    -0.367151848335E+03   -0.10016E-04   -0.19557E-04  8262   0.355E-04 0.464E-04
CGA:  12    -0.367151848752E+03   -0.41679E-06   -0.56360E-05  8262   0.190E-04 0.233E-04
  26 F= -.36715185E+03 E0= -.36715185E+03  d E =-.552104E-01  mag=    16.0000
       N       E                     dE             d eps       ncg     rms          ort
SDA:   1    -0.367083242022E+03    0.68606E-01    0.00000E+00  8262   0.202E+00 0.000E+00
CGA:   2    -0.367134760682E+03   -0.51519E-01   -0.51471E-01  8262   0.106E+00-0.473E-03
CGA:   3    -0.367154031136E+03   -0.19270E-01   -0.19343E-01  8262   0.231E-01 0.417E-03
CGA:   4    -0.367158074165E+03   -0.40430E-02   -0.40708E-02  8262   0.511E-02 0.167E-03
CGA:   5    -0.367159036009E+03   -0.96184E-03   -0.96840E-03  8262   0.139E-02 0.435E-04
CGA:   6    -0.367159336826E+03   -0.30082E-03   -0.30334E-03  8262   0.443E-03 0.221E-04
CGA:   7    -0.367159446079E+03   -0.10925E-03   -0.11103E-03  8262   0.161E-03 0.229E-04
CGA:   8    -0.367159479603E+03   -0.33524E-04   -0.37889E-04  8262   0.568E-04 0.452E-04
CGA:   9    -0.367159489267E+03   -0.96644E-05   -0.13693E-04  8262   0.241E-04 0.317E-04
  27 F= -.36715949E+03 E0= -.36715949E+03  d E =-.764052E-02  mag=    16.0000
       N       E                     dE             d eps       ncg     rms          ort
SDA:   1    -0.365269891909E+03    0.18896E+01    0.00000E+00  8262   0.453E+01 0.000E+00
CGA:   2    -0.366786429262E+03   -0.15165E+01   -0.15165E+01  8262   0.173E+01 0.924E-04
CGA:   3    -0.367083115841E+03   -0.29669E+00   -0.29694E+00  8262   0.383E+00 0.143E-02
CGA:   4    -0.367149306450E+03   -0.66191E-01   -0.66217E-01  8262   0.823E-01 0.207E-03
CGA:   5    -0.367165508643E+03   -0.16202E-01   -0.16197E-01  8262   0.227E-01-0.712E-04
CGA:   6    -0.367170207395E+03   -0.46988E-02   -0.46974E-02  8262   0.662E-02-0.210E-04
CGA:   7    -0.367171887933E+03   -0.16805E-02   -0.16825E-02  8262   0.262E-02 0.621E-04
CGA:   8    -0.367172677450E+03   -0.78952E-03   -0.78738E-03  8262   0.117E-02 0.151E-03
CGA:   9    -0.367173068012E+03   -0.39056E-03   -0.38882E-03  8262   0.460E-03 0.575E-04
CGA:  10    -0.367173209608E+03   -0.14160E-03   -0.14136E-03  8262   0.149E-03 0.326E-04
CGA:  11    -0.367173253422E+03   -0.43814E-04   -0.44040E-04  8262   0.519E-04 0.230E-04
CGA:  12    -0.367173278522E+03   -0.25100E-04   -0.25898E-04  8262   0.393E-04-0.548E-05
CGA:  13    -0.367173282154E+03   -0.36318E-05   -0.60579E-05  8262   0.226E-04 0.200E-04
  28 F= -.36717328E+03 E0= -.36717328E+03  d E =-.137929E-01  mag=    16.0000
       N       E                     dE             d eps       ncg     rms          ort
SDA:   1    -0.342336693874E+03    0.24837E+02    0.00000E+00  8262   0.605E+02 0.000E+00
CGA:   2    -0.358349513359E+03   -0.16013E+02   -0.16018E+02  8262   0.275E+02 0.123E+00
CGA:   3    -0.363578171331E+03   -0.52287E+01   -0.52357E+01  8262   0.725E+01 0.312E-01
CGA:   4    -0.364892295816E+03   -0.13141E+01   -0.13140E+01  8262   0.165E+01 0.139E-02
CGA:   5    -0.365233101233E+03   -0.34081E+00   -0.34078E+00  8262   0.513E+00-0.858E-03
CGA:   6    -0.365347052012E+03   -0.11395E+00   -0.11393E+00  8262   0.188E+00-0.629E-03
CGA:   7    -0.365397588265E+03   -0.50536E-01   -0.50538E-01  8262   0.763E-01-0.103E-02
CGA:   8    -0.365419648816E+03   -0.22061E-01   -0.22071E-01  8262   0.314E-01-0.457E-03
CGA:   9    -0.365429132853E+03   -0.94840E-02   -0.95116E-02  8262   0.114E-01-0.785E-03
CGA:  10    -0.365432820731E+03   -0.36879E-02   -0.37648E-02  8262   0.472E-02-0.115E-02
CGA:  11    -0.365434347890E+03   -0.15272E-02   -0.16116E-02  8262   0.242E-02-0.803E-03
CGA:  12    -0.365435141025E+03   -0.79313E-03   -0.10924E-02  8262   0.243E-02-0.113E-02
CGA:  13    -0.365435593183E+03   -0.45216E-03   -0.49882E-03  8262   0.124E-02-0.505E-03
CGA:  14    -0.365435945738E+03   -0.35256E-03   -0.45337E-03  8262   0.972E-03-0.612E-03
CGA:  15    -0.365436110794E+03   -0.16506E-03   -0.19991E-03  8262   0.643E-03-0.346E-03
CGA:  16    -0.365436243878E+03   -0.13308E-03   -0.13425E-03  8262   0.337E-03-0.840E-04
CGA:  17    -0.365436359131E+03   -0.11525E-03   -0.14214E-03  8262   0.318E-03-0.154E-03
CGA:  18    -0.365436392890E+03   -0.33759E-04   -0.38083E-04  8262   0.225E-03 0.435E-04
CGA:  19    -0.365436434599E+03   -0.41709E-04   -0.50499E-04  8262   0.957E-04 0.746E-04
CGA:  20    -0.365436460922E+03   -0.26323E-04   -0.29054E-04  8262   0.510E-04 0.337E-04
CGA:  21    -0.365436466057E+03   -0.51350E-05   -0.10754E-04  8262   0.321E-04 0.378E-04
  29 F= -.36543647E+03 E0= -.36543647E+03  d E =0.173682E+01  mag=    16.0000
       N       E                     dE             d eps       ncg     rms          ort
SDA:   1    -0.356790331869E+03    0.86461E+01    0.00000E+00  8262   0.246E+02 0.000E+00
CGA:   2    -0.364765045112E+03   -0.79747E+01   -0.79817E+01  8262   0.744E+01-0.150E+00
CGA:   3    -0.366536431078E+03   -0.17714E+01   -0.17729E+01  8262   0.154E+01-0.688E-03
CGA:   4    -0.366862768121E+03   -0.32634E+00   -0.32631E+00  8262   0.508E+00-0.536E-04
CGA:   5    -0.366963642825E+03   -0.10087E+00   -0.10108E+00  8262   0.160E+00 0.253E-02
CGA:   6    -0.367005329091E+03   -0.41686E-01   -0.41718E-01  8262   0.701E-01 0.161E-02
CGA:   7    -0.367023235233E+03   -0.17906E-01   -0.17915E-01  8262   0.286E-01 0.315E-03
CGA:   8    -0.367031283755E+03   -0.80485E-02   -0.80454E-02  8262   0.102E-01 0.962E-03
CGA:   9    -0.367034212431E+03   -0.29287E-02   -0.29292E-02  8262   0.335E-02 0.756E-03
CGA:  10    -0.367035177805E+03   -0.96537E-03   -0.96934E-03  8262   0.117E-02 0.502E-03
CGA:  11    -0.367035435382E+03   -0.25758E-03   -0.29033E-03  8262   0.490E-03 0.534E-03
CGA:  12    -0.367035545498E+03   -0.11012E-03   -0.13832E-03  8262   0.271E-03 0.352E-03
CGA:  13    -0.367035618217E+03   -0.72720E-04   -0.72889E-04  8262   0.151E-03 0.137E-03
CGA:  14    -0.367035614150E+03    0.40668E-05   -0.16662E-04  8262   0.120E-03 0.130E-03
CGA:  15    -0.367035619229E+03   -0.50783E-05   -0.17693E-04  8262   0.101E-03 0.110E-03
CGA:  16    -0.367035619853E+03   -0.62390E-06   -0.12800E-04  8262   0.881E-04 0.941E-04
CGA:  17    -0.367035618613E+03    0.12398E-05   -0.10029E-04  8262   0.783E-04 0.829E-04
  30 F= -.36703562E+03 E0= -.36703562E+03  d E =-.159915E+01  mag=    16.0000
       N       E                     dE             d eps       ncg     rms          ort
SDA:   1    -0.366731384528E+03    0.30424E+00    0.00000E+00  8262   0.915E+00 0.000E+00
CGA:   2    -0.367028688707E+03   -0.29730E+00   -0.29727E+00  8262   0.308E+00 0.308E-03
CGA:   3    -0.367095182570E+03   -0.66494E-01   -0.66488E-01  8262   0.847E-01-0.228E-03
CGA:   4    -0.367110392144E+03   -0.15210E-01   -0.15219E-01  8262   0.227E-01 0.132E-03
CGA:   5    -0.367115169133E+03   -0.47770E-02   -0.47855E-02  8262   0.718E-02 0.336E-03
CGA:   6    -0.367116832814E+03   -0.16637E-02   -0.16660E-02  8262   0.300E-02 0.376E-03
CGA:   7    -0.367117634588E+03   -0.80177E-03   -0.79759E-03  8262   0.115E-02 0.236E-03
CGA:   8    -0.367117989537E+03   -0.35495E-03   -0.34874E-03  8262   0.465E-03 0.136E-03
CGA:   9    -0.367118101737E+03   -0.11220E-03   -0.11471E-03  8262   0.155E-03 0.147E-03
CGA:  10    -0.367118130968E+03   -0.29231E-04   -0.35324E-04  8262   0.681E-04 0.961E-04
CGA:  11    -0.367118140450E+03   -0.94818E-05   -0.11927E-04  8262   0.361E-04 0.418E-04
  31 F= -.36711814E+03 E0= -.36711814E+03  d E =-.825218E-01  mag=    16.0000
       N       E                     dE             d eps       ncg     rms          ort
SDA:   1    -0.366916550650E+03    0.20158E+00    0.00000E+00  8262   0.578E+00 0.000E+00
CGA:   2    -0.367089890289E+03   -0.17334E+00   -0.17335E+00  8262   0.241E+00-0.165E-03
CGA:   3    -0.367136087298E+03   -0.46197E-01   -0.46216E-01  8262   0.666E-01 0.519E-03
CGA:   4    -0.367147991321E+03   -0.11904E-01   -0.11931E-01  8262   0.155E-01 0.552E-03
CGA:   5    -0.367151249493E+03   -0.32582E-02   -0.32599E-02  8262   0.517E-02 0.104E-03
CGA:   6    -0.367152437429E+03   -0.11879E-02   -0.11879E-02  8262   0.204E-02 0.930E-05
CGA:   7    -0.367152979702E+03   -0.54227E-03   -0.54086E-03  8262   0.816E-03 0.350E-04
CGA:   8    -0.367153216360E+03   -0.23666E-03   -0.23492E-03  8262   0.322E-03 0.302E-04
CGA:   9    -0.367153309004E+03   -0.92643E-04   -0.91489E-04  8262   0.105E-03 0.256E-04
CGA:  10    -0.367153335701E+03   -0.26697E-04   -0.26623E-04  8262   0.346E-04 0.296E-04
CGA:  11    -0.367153344905E+03   -0.92045E-05   -0.94739E-05  8262   0.147E-04 0.154E-04
  32 F= -.36715334E+03 E0= -.36715334E+03  d E =-.352045E-01  mag=    16.0000
       N       E                     dE             d eps       ncg     rms          ort
SDA:   1    -0.367085736313E+03    0.67599E-01    0.00000E+00  8262   0.209E+00 0.000E+00
CGA:   2    -0.367142112097E+03   -0.56376E-01   -0.56399E-01  8262   0.917E-01-0.622E-03
CGA:   3    -0.367159497006E+03   -0.17385E-01   -0.17408E-01  8262   0.251E-01 0.555E-03
CGA:   4    -0.367163950091E+03   -0.44531E-02   -0.44841E-02  8262   0.544E-02 0.589E-03
CGA:   5    -0.367165080788E+03   -0.11307E-02   -0.11313E-02  8262   0.165E-02 0.239E-04
CGA:   6    -0.367165490700E+03   -0.40991E-03   -0.41367E-03  8262   0.751E-03-0.165E-03
CGA:   7    -0.367165673033E+03   -0.18233E-03   -0.18608E-03  8262   0.327E-03-0.786E-04
CGA:   8    -0.367165749966E+03   -0.76933E-04   -0.76753E-04  8262   0.115E-03 0.562E-05
CGA:   9    -0.367165789098E+03   -0.39132E-04   -0.44249E-04  8262   0.685E-04-0.348E-04
CGA:  10    -0.367165802998E+03   -0.13900E-04   -0.21477E-04  8262   0.551E-04-0.359E-04
CGA:  11    -0.367165818102E+03   -0.15104E-04   -0.23769E-04  8262   0.792E-04-0.477E-04
CGA:  12    -0.367165827198E+03   -0.90956E-05   -0.10959E-04  8262   0.479E-05 0.155E-04
  33 F= -.36716583E+03 E0= -.36716583E+03  d E =-.124823E-01  mag=    16.0000
       N       E                     dE             d eps       ncg     rms          ort
SDA:   1    -0.367055042705E+03    0.11078E+00    0.00000E+00  8262   0.337E+00 0.000E+00
CGA:   2    -0.367136183491E+03   -0.81141E-01   -0.81120E-01  8262   0.150E+00-0.106E-02
CGA:   3    -0.367164840815E+03   -0.28657E-01   -0.28684E-01  8262   0.410E-01 0.402E-03
CGA:   4    -0.367171997205E+03   -0.71564E-02   -0.72143E-02  8262   0.878E-02 0.704E-03
CGA:   5    -0.367173689970E+03   -0.16928E-02   -0.16971E-02  8262   0.242E-02 0.674E-04
CGA:   6    -0.367174270974E+03   -0.58100E-03   -0.57876E-03  8262   0.947E-03-0.183E-03
CGA:   7    -0.367174511419E+03   -0.24045E-03   -0.24280E-03  8262   0.420E-03-0.834E-04
CGA:   8    -0.367174615330E+03   -0.10391E-03   -0.10364E-03  8262   0.157E-03 0.135E-04
CGA:   9    -0.367174671850E+03   -0.56520E-04   -0.60914E-04  8262   0.895E-04-0.357E-04
CGA:  10    -0.367174683876E+03   -0.12026E-04   -0.43260E-04  8262   0.167E-03-0.851E-04
CGA:  11    -0.367174723946E+03   -0.40070E-04   -0.39175E-04  8262   0.347E-04-0.217E-04
CGA:  12    -0.367174733416E+03   -0.94708E-05   -0.94671E-05  8262   0.731E-05 0.849E-07
  34 F= -.36717473E+03 E0= -.36717473E+03  d E =-.890622E-02  mag=    16.0000
       N       E                     dE             d eps       ncg     rms          ort
SDA:   1    -0.366985632698E+03    0.18909E+00    0.00000E+00  8262   0.598E+00 0.000E+00
CGA:   2    -0.367117016031E+03   -0.13138E+00   -0.13132E+00  8262   0.258E+00-0.131E-02
CGA:   3    -0.367168172939E+03   -0.51157E-01   -0.51164E-01  8262   0.725E-01 0.122E-03
CGA:   4    -0.367180822664E+03   -0.12650E-01   -0.12722E-01  8262   0.148E-01 0.757E-03
CGA:   5    -0.367183625650E+03   -0.28030E-02   -0.28132E-02  8262   0.393E-02 0.133E-03
CGA:   6    -0.367184520200E+03   -0.89455E-03   -0.88955E-03  8262   0.137E-02-0.136E-03
CGA:   7    -0.367184873802E+03   -0.35360E-03   -0.35408E-03  8262   0.591E-03-0.557E-04
CGA:   8    -0.367185033664E+03   -0.15986E-03   -0.15908E-03  8262   0.245E-03 0.375E-04
CGA:   9    -0.367185119793E+03   -0.86129E-04   -0.86317E-04  8262   0.112E-03-0.272E-05
CGA:  10    -0.367185161248E+03   -0.41455E-04   -0.45682E-04  8262   0.742E-04-0.284E-04
CGA:  11    -0.367185180357E+03   -0.19109E-04   -0.25664E-04  8262   0.607E-04-0.342E-04
CGA:  12    -0.367185183676E+03   -0.33193E-05   -0.20718E-04  8262   0.823E-04-0.494E-04
CGA:  13    -0.367185205485E+03   -0.21809E-04   -0.21697E-04  8262   0.176E-04-0.318E-05
CGA:  14    -0.367185213155E+03   -0.76700E-05   -0.95051E-05  8262   0.164E-04-0.697E-05
  35 F= -.36718521E+03 E0= -.36718521E+03  d E =-.104797E-01  mag=    16.0000
       N       E                     dE             d eps       ncg     rms          ort
SDA:   1    -0.366824307491E+03    0.36090E+00    0.00000E+00  8262   0.112E+01 0.000E+00
CGA:   2    -0.367066249467E+03   -0.24194E+00   -0.24185E+00  8262   0.493E+00-0.126E-02
CGA:   3    -0.367164048923E+03   -0.97799E-01   -0.97772E-01  8262   0.137E+00-0.228E-03
CGA:   4    -0.367188091658E+03   -0.24043E-01   -0.24127E-01  8262   0.274E-01 0.690E-03
CGA:   5    -0.367193203509E+03   -0.51119E-02   -0.51378E-02  8262   0.729E-02 0.247E-03
CGA:   6    -0.367194795384E+03   -0.15919E-02   -0.15907E-02  8262   0.234E-02-0.167E-04
CGA:   7    -0.367195403827E+03   -0.60844E-03   -0.60827E-03  8262   0.959E-03-0.825E-05
CGA:   8    -0.367195686968E+03   -0.28314E-03   -0.28242E-03  8262   0.437E-03 0.465E-04
CGA:   9    -0.367195831558E+03   -0.14459E-03   -0.14378E-03  8262   0.185E-03 0.246E-04
CGA:  10    -0.367195891823E+03   -0.60265E-04   -0.59823E-04  8262   0.737E-04 0.189E-04
CGA:  11    -0.367195917507E+03   -0.25683E-04   -0.25425E-04  8262   0.309E-04 0.878E-05
CGA:  12    -0.367195931968E+03   -0.14462E-04   -0.22553E-04  8262   0.523E-04-0.222E-04
CGA:  13    -0.367195942703E+03   -0.10734E-04   -0.11202E-04  8262   0.608E-05 0.522E-05
CGA:  14    -0.367195947403E+03   -0.47004E-05    0.56939E-05  8262   0.187E-05 0.123E-05
  36 F= -.36719595E+03 E0= -.36719595E+03  d E =-.107342E-01  mag=    16.0000
       N       E                     dE             d eps       ncg     rms          ort
SDA:   1    -0.366430297602E+03    0.76565E+00    0.00000E+00  8262   0.230E+01 0.000E+00
CGA:   2    -0.366929467974E+03   -0.49917E+00   -0.49913E+00  8262   0.107E+01-0.108E-02
CGA:   3    -0.367138611776E+03   -0.20914E+00   -0.20910E+00  8262   0.276E+00-0.326E-03
CGA:   4    -0.367187419628E+03   -0.48808E-01   -0.48915E-01  8262   0.553E-01 0.818E-03
CGA:   5    -0.367197810101E+03   -0.10390E-01   -0.10425E-01  8262   0.148E-01 0.297E-03
CGA:   6    -0.367201057787E+03   -0.32477E-02   -0.32426E-02  8262   0.470E-02-0.673E-04
CGA:   7    -0.367202262958E+03   -0.12052E-02   -0.12042E-02  8262   0.190E-02-0.314E-04
CGA:   8    -0.367202821705E+03   -0.55875E-03   -0.55823E-03  8262   0.862E-03 0.664E-04
CGA:   9    -0.367203105022E+03   -0.28332E-03   -0.28255E-03  8262   0.363E-03 0.269E-04
CGA:  10    -0.367203226867E+03   -0.12184E-03   -0.12156E-03  8262   0.150E-03 0.800E-05
CGA:  11    -0.367203281201E+03   -0.54334E-04   -0.54891E-04  8262   0.718E-04-0.855E-05
CGA:  12    -0.367203283918E+03   -0.27177E-05   -0.60187E-04  8262   0.255E-03-0.968E-04
CGA:  13    -0.367203332677E+03   -0.48759E-04   -0.51776E-04  8262   0.260E-04 0.248E-04
CGA:  14    -0.367203342611E+03   -0.99343E-05   -0.18427E-04  8262   0.417E-04-0.260E-04
  37 F= -.36720334E+03 E0= -.36720334E+03  d E =-.739521E-02  mag=    16.0000
       N       E                     dE             d eps       ncg     rms          ort
SDA:   1    -0.367137905292E+03    0.65427E-01    0.00000E+00  8262   0.191E+00 0.000E+00
CGA:   2    -0.367182084376E+03   -0.44179E-01   -0.44281E-01  8262   0.833E-01 0.101E-02
CGA:   3    -0.367198953655E+03   -0.16869E-01   -0.16842E-01  8262   0.235E-01-0.239E-03
CGA:   4    -0.367203177670E+03   -0.42240E-02   -0.41749E-02  8262   0.511E-02-0.355E-03
CGA:   5    -0.367204168758E+03   -0.99109E-03   -0.97813E-03  8262   0.146E-02-0.113E-03
CGA:   6    -0.367204473342E+03   -0.30458E-03   -0.30463E-03  8262   0.475E-03 0.499E-06
CGA:   7    -0.367204585463E+03   -0.11212E-03   -0.11451E-03  8262   0.171E-03 0.415E-04
CGA:   8    -0.367204634414E+03   -0.48951E-04   -0.49687E-04  8262   0.703E-04 0.260E-04
CGA:   9    -0.367204658886E+03   -0.24472E-04   -0.24413E-04  8262   0.315E-04 0.839E-05
CGA:  10    -0.367204666183E+03   -0.72970E-05   -0.80300E-05  8262   0.115E-04 0.110E-04
  38 F= -.36720467E+03 E0= -.36720467E+03  d E =-.132357E-02  mag=    16.0000
       N       E                     dE             d eps       ncg     rms          ort
SDA:   1    -0.367136680654E+03    0.67978E-01    0.00000E+00  8262   0.180E+00 0.000E+00
CGA:   2    -0.367184972209E+03   -0.48292E-01   -0.48311E-01  8262   0.895E-01 0.102E-02
CGA:   3    -0.367201366304E+03   -0.16394E-01   -0.16361E-01  8262   0.190E-01-0.323E-03
CGA:   4    -0.367204688440E+03   -0.33221E-02   -0.32995E-02  8262   0.399E-02-0.214E-03
CGA:   5    -0.367205434351E+03   -0.74591E-03   -0.74644E-03  8262   0.110E-02 0.583E-05
CGA:   6    -0.367205655817E+03   -0.22147E-03   -0.22316E-03  8262   0.303E-03 0.251E-04
CGA:   7    -0.367205730995E+03   -0.75178E-04   -0.75663E-04  8262   0.115E-03 0.209E-04
CGA:   8    -0.367205764418E+03   -0.33423E-04   -0.33326E-04  8262   0.488E-04 0.181E-04
CGA:   9    -0.367205779292E+03   -0.14874E-04   -0.14908E-04  8262   0.196E-04 0.141E-04
CGA:  10    -0.367205782916E+03   -0.36235E-05   -0.46242E-05  8262   0.797E-05 0.120E-04
  39 F= -.36720578E+03 E0= -.36720578E+03  d E =-.111673E-02  mag=    16.0000
       N       E                     dE             d eps       ncg     rms          ort
SDA:   1    -0.365958099062E+03    0.12477E+01    0.00000E+00  8262   0.310E+01 0.000E+00
CGA:   2    -0.366888844807E+03   -0.93075E+00   -0.93055E+00  8262   0.146E+01 0.407E-02
CGA:   3    -0.367140631470E+03   -0.25179E+00   -0.25166E+00  8262   0.289E+00-0.165E-02
CGA:   4    -0.367191579381E+03   -0.50948E-01   -0.50892E-01  8262   0.600E-01-0.676E-03
CGA:   5    -0.367203354284E+03   -0.11775E-01   -0.11781E-01  8262   0.166E-01 0.927E-04
CGA:   6    -0.367206757597E+03   -0.34033E-02   -0.34049E-02  8262   0.463E-02 0.317E-04
CGA:   7    -0.367207941699E+03   -0.11841E-02   -0.11838E-02  8262   0.185E-02 0.331E-04
CGA:   8    -0.367208502300E+03   -0.56060E-03   -0.55760E-03  8262   0.848E-03 0.587E-04
CGA:   9    -0.367208784862E+03   -0.28256E-03   -0.28062E-03  8262   0.338E-03 0.277E-04
CGA:  10    -0.367208880629E+03   -0.95767E-04   -0.94956E-04  8262   0.102E-03 0.442E-04
CGA:  11    -0.367208919679E+03   -0.39050E-04   -0.39330E-04  8262   0.479E-04-0.327E-05
CGA:  12    -0.367208936085E+03   -0.16406E-04   -0.16084E-04  8262   0.234E-04 0.367E-05
CGA:  13    -0.367208940227E+03   -0.41423E-05   -0.49984E-05  8262   0.114E-04 0.132E-04
  40 F= -.36720894E+03 E0= -.36720894E+03  d E =-.315731E-02  mag=    16.0000
       N       E                     dE             d eps       ncg     rms          ort
SDA:   1    -0.342957102980E+03    0.24252E+02    0.00000E+00  8262   0.569E+02 0.000E+00
CGA:   2    -0.359537122861E+03   -0.16580E+02   -0.16583E+02  8262   0.217E+02-0.134E+00
CGA:   3    -0.363753361662E+03   -0.42162E+01   -0.42165E+01  8262   0.606E+01-0.811E-02
CGA:   4    -0.364847278421E+03   -0.10939E+01   -0.10947E+01  8262   0.152E+01 0.249E-02
CGA:   5    -0.365162172633E+03   -0.31489E+00   -0.31496E+00  8262   0.468E+00 0.250E-02
CGA:   6    -0.365268664902E+03   -0.10649E+00   -0.10651E+00  8262   0.188E+00 0.577E-03
CGA:   7    -0.365318190553E+03   -0.49526E-01   -0.49535E-01  8262   0.724E-01-0.103E-02
CGA:   8    -0.365339417025E+03   -0.21226E-01   -0.21227E-01  8262   0.302E-01-0.430E-05
CGA:   9    -0.365348064194E+03   -0.86472E-02   -0.86476E-02  8262   0.103E-01-0.180E-04
CGA:  10    -0.365351315004E+03   -0.32508E-02   -0.32959E-02  8262   0.389E-02-0.708E-03
CGA:  11    -0.365352537394E+03   -0.12224E-02   -0.12591E-02  8262   0.170E-02-0.419E-03
CGA:  12    -0.365353107746E+03   -0.57035E-03   -0.86632E-03  8262   0.208E-02-0.969E-03
CGA:  13    -0.365353529985E+03   -0.42224E-03   -0.43672E-03  8262   0.301E-03 0.207E-03
CGA:  14    -0.365353297429E+03    0.23256E-03   -0.39265E-03  8262   0.252E-02-0.686E-03
CGA:  15    -0.365353696794E+03   -0.39936E-03   -0.45419E-03  8262   0.389E-03 0.387E-03
CGA:  16    -0.365353853591E+03   -0.15680E-03   -0.16772E-03  8262   0.163E-03-0.184E-03
CGA:  17    -0.365353929398E+03   -0.75807E-04    0.34501E-04  8262   0.788E-04-0.170E-04
CGA:  18    -0.365353942128E+03   -0.12730E-04   -0.14874E-04  8262   0.243E-04 0.201E-04
CGA:  19    -0.365353948714E+03   -0.65858E-05   -0.69548E-05  8262   0.950E-05 0.440E-05
  41 F= -.36535395E+03 E0= -.36535395E+03  d E =0.185499E+01  mag=    16.0000
       N       E                     dE             d eps       ncg     rms          ort
SDA:   1    -0.363529158377E+03    0.18248E+01    0.00000E+00  8262   0.735E+01 0.000E+00
CGA:   2    -0.365706532123E+03   -0.21774E+01   -0.21772E+01  8262   0.251E+01-0.744E-02
CGA:   3    -0.366299107696E+03   -0.59258E+00   -0.59226E+00  8262   0.569E+00-0.592E-02
CGA:   4    -0.366408994460E+03   -0.10989E+00   -0.10977E+00  8262   0.171E+00-0.158E-02
CGA:   5    -0.366442932241E+03   -0.33938E-01   -0.33946E-01  8262   0.495E-01 0.989E-04
CGA:   6    -0.366455317970E+03   -0.12386E-01   -0.12398E-01  8262   0.213E-01 0.285E-03
CGA:   7    -0.366460806762E+03   -0.54888E-02   -0.54838E-02  8262   0.860E-02-0.141E-03
CGA:   8    -0.366463368041E+03   -0.25613E-02   -0.25629E-02  8262   0.348E-02-0.155E-03
CGA:   9    -0.366464293257E+03   -0.92522E-03   -0.92866E-03  8262   0.108E-02 0.190E-03
CGA:  10    -0.366464607638E+03   -0.31438E-03   -0.31576E-03  8262   0.356E-03 0.114E-03
CGA:  11    -0.366464707884E+03   -0.10025E-03   -0.10282E-03  8262   0.140E-03 0.962E-04
CGA:  12    -0.366464739127E+03   -0.31243E-04   -0.37670E-04  8262   0.718E-04 0.846E-04
CGA:  13    -0.366464761212E+03   -0.22085E-04   -0.21579E-04  8262   0.371E-04 0.291E-04
CGA:  14    -0.366464764613E+03   -0.34004E-05   -0.84239E-05  8262   0.276E-04 0.410E-04
  42 F= -.36646476E+03 E0= -.36646476E+03  d E =-.111082E+01  mag=    16.0000
       N       E                     dE             d eps       ncg     rms          ort
SDA:   1    -0.366361113001E+03    0.10365E+00    0.00000E+00  8262   0.984E+00 0.000E+00
CGA:   2    -0.366676043967E+03   -0.31493E+00   -0.31488E+00  8262   0.310E+00 0.774E-03
CGA:   3    -0.366750138751E+03   -0.74095E-01   -0.74072E-01  8262   0.714E-01-0.712E-03
CGA:   4    -0.366764546031E+03   -0.14407E-01   -0.14378E-01  8262   0.225E-01-0.429E-03
CGA:   5    -0.366768954554E+03   -0.44085E-02   -0.44116E-02  8262   0.681E-02 0.425E-04
CGA:   6    -0.366770648681E+03   -0.16941E-02   -0.16974E-02  8262   0.288E-02 0.202E-03
CGA:   7    -0.366771386626E+03   -0.73794E-03   -0.73859E-03  8262   0.117E-02 0.435E-04
CGA:   8    -0.366771746845E+03   -0.36022E-03   -0.36013E-03  8262   0.467E-03 0.200E-05
CGA:   9    -0.366771847522E+03   -0.10068E-03   -0.10513E-03  8262   0.137E-03 0.109E-03
CGA:  10    -0.366771879333E+03   -0.31811E-04   -0.34845E-04  8262   0.501E-04 0.533E-04
CGA:  11    -0.366771889243E+03   -0.99099E-05   -0.12540E-04  8262   0.234E-04 0.325E-04
  43 F= -.36677189E+03 E0= -.36677189E+03  d E =-.307125E+00  mag=    16.0000
       N       E                     dE             d eps       ncg     rms          ort
SDA:   1    -0.362179386241E+03    0.45925E+01    0.00000E+00  8262   0.121E+02 0.000E+00
CGA:   2    -0.365908591562E+03   -0.37292E+01   -0.37208E+01  8262   0.402E+01 0.104E+00
CGA:   3    -0.366879242333E+03   -0.97065E+00   -0.97075E+00  8262   0.951E+00 0.219E-02
CGA:   4    -0.367070814602E+03   -0.19157E+00   -0.19155E+00  8262   0.299E+00-0.872E-03
CGA:   5    -0.367130775090E+03   -0.59960E-01   -0.59983E-01  8262   0.908E-01 0.282E-03
CGA:   6    -0.367153760818E+03   -0.22986E-01   -0.22980E-01  8262   0.402E-01 0.879E-03
CGA:   7    -0.367163953553E+03   -0.10193E-01   -0.10191E-01  8262   0.156E-01 0.385E-03
CGA:   8    -0.367168511522E+03   -0.45580E-02   -0.45509E-02  8262   0.579E-02 0.163E-03
CGA:   9    -0.367170125303E+03   -0.16138E-02   -0.16053E-02  8262   0.175E-02 0.335E-03
CGA:  10    -0.367170659321E+03   -0.53402E-03   -0.53245E-03  8262   0.571E-03 0.411E-04
CGA:  11    -0.367170798073E+03   -0.13875E-03   -0.14058E-03  8262   0.183E-03 0.154E-03
CGA:  12    -0.367170838853E+03   -0.40780E-04   -0.46228E-04  8262   0.867E-04 0.103E-03
CGA:  13    -0.367170860215E+03   -0.21362E-04   -0.21446E-04  8262   0.425E-04 0.458E-04
CGA:  14    -0.367170860623E+03   -0.40813E-06   -0.51778E-05  8262   0.344E-04 0.375E-04
  44 F= -.36717086E+03 E0= -.36717086E+03  d E =-.398971E+00  mag=    16.0000
       N       E                     dE             d eps       ncg     rms          ort
SDA:   1    -0.367074305824E+03    0.96554E-01    0.00000E+00  8262   0.287E+00 0.000E+00
CGA:   2    -0.367165909745E+03   -0.91604E-01   -0.91616E-01  8262   0.961E-01-0.122E-03
CGA:   3    -0.367188327054E+03   -0.22417E-01   -0.22420E-01  8262   0.219E-01 0.241E-03
CGA:   4    -0.367192533669E+03   -0.42066E-02   -0.42214E-02  8262   0.667E-02 0.297E-03
CGA:   5    -0.367193943144E+03   -0.14095E-02   -0.14089E-02  8262   0.198E-02-0.192E-04
CGA:   6    -0.367194465045E+03   -0.52190E-03   -0.52602E-03  8262   0.978E-03-0.140E-03
CGA:   7    -0.367194678741E+03   -0.21370E-03   -0.21366E-03  8262   0.335E-03-0.959E-05
CGA:   8    -0.367194762688E+03   -0.83947E-04   -0.83481E-04  8262   0.108E-03 0.364E-04
CGA:   9    -0.367194799393E+03   -0.36705E-04   -0.37253E-04  8262   0.477E-04-0.768E-05
CGA:  10    -0.367194810068E+03   -0.10676E-04   -0.10682E-04  8262   0.136E-04 0.346E-05
CGA:  11    -0.367194807800E+03    0.22689E-05   -0.11256E-04  8262   0.612E-04-0.257E-04
CGA:  12    -0.367194822395E+03   -0.14596E-04   -0.14412E-04  8262   0.602E-05-0.543E-05
CGA:  13    -0.367194822618E+03   -0.22231E-06   -0.67411E-06  8262   0.217E-05 0.312E-05
  45 F= -.36719482E+03 E0= -.36719482E+03  d E =-.239620E-01  mag=    16.0000
       N       E                     dE             d eps       ncg     rms          ort
SDA:   1    -0.367104281947E+03    0.90540E-01    0.00000E+00  8262   0.253E+00 0.000E+00
CGA:   2    -0.367175878349E+03   -0.71596E-01   -0.71613E-01  8262   0.106E+00-0.716E-03
CGA:   3    -0.367196821625E+03   -0.20943E-01   -0.20972E-01  8262   0.290E-01 0.465E-03
CGA:   4    -0.367201873403E+03   -0.50518E-02   -0.50858E-02  8262   0.640E-02 0.420E-03
CGA:   5    -0.367203229131E+03   -0.13557E-02   -0.13522E-02  8262   0.204E-02-0.845E-04
CGA:   6    -0.367203709114E+03   -0.47998E-03   -0.47833E-03  8262   0.877E-03-0.160E-03
CGA:   7    -0.367203906749E+03   -0.19764E-03   -0.19771E-03  8262   0.305E-03 0.261E-04
CGA:   8    -0.367203980492E+03   -0.73743E-04   -0.74356E-04  8262   0.103E-03 0.574E-04
CGA:   9    -0.367204021181E+03   -0.40689E-04   -0.41712E-04  8262   0.586E-04-0.111E-04
CGA:  10    -0.367204036472E+03   -0.15290E-04   -0.15541E-04  8262   0.257E-04-0.550E-05
CGA:  11    -0.367203916136E+03    0.12034E-03   -0.64798E-04  8262   0.605E-03-0.115E-03
CGA:  12    -0.367204034782E+03   -0.11865E-03   -0.12684E-03  8262   0.568E-04 0.322E-04
CGA:  13    -0.367204050361E+03   -0.15578E-04   -0.16592E-04  8262   0.142E-04 0.585E-05
CGA:  14    -0.367204050381E+03   -0.19896E-07   -0.26891E-05  8262   0.759E-05 0.987E-05
  46 F= -.36720405E+03 E0= -.36720405E+03  d E =-.922776E-02  mag=    16.0000
       N       E                     dE             d eps       ncg     rms          ort
SDA:   1    -0.367164803134E+03    0.39247E-01    0.00000E+00  8262   0.124E+00 0.000E+00
CGA:   2    -0.367197256067E+03   -0.32453E-01   -0.32376E-01  8262   0.507E-01-0.483E-03
CGA:   3    -0.367207383725E+03   -0.10128E-01   -0.10172E-01  8262   0.140E-01 0.177E-03
CGA:   4    -0.367209697420E+03   -0.23137E-02   -0.23495E-02  8262   0.320E-02 0.132E-03
CGA:   5    -0.367210329856E+03   -0.63244E-03   -0.62401E-03  8262   0.934E-03-0.379E-04
CGA:   6    -0.367210544837E+03   -0.21498E-03   -0.20482E-03  8262   0.341E-03-0.550E-04
CGA:   7    -0.367210621944E+03   -0.77107E-04   -0.80129E-04  8262   0.119E-03 0.203E-04
CGA:   8    -0.367210650263E+03   -0.28319E-04   -0.31802E-04  8262   0.452E-04 0.252E-04
CGA:   9    -0.367210669759E+03   -0.19496E-04   -0.19402E-04  8262   0.279E-04-0.320E-05
CGA:  10    -0.367210675575E+03   -0.58157E-05   -0.63426E-05  8262   0.105E-04 0.383E-05
  47 F= -.36721068E+03 E0= -.36721068E+03  d E =-.662519E-02  mag=    16.0000
       N       E                     dE             d eps       ncg     rms          ort
SDA:   1    -0.367138956836E+03    0.71713E-01    0.00000E+00  8262   0.219E+00 0.000E+00
CGA:   2    -0.367192270461E+03   -0.53314E-01   -0.53222E-01  8262   0.907E-01-0.849E-03
CGA:   3    -0.367210774225E+03   -0.18504E-01   -0.18536E-01  8262   0.249E-01 0.200E-03
CGA:   4    -0.367214958620E+03   -0.41844E-02   -0.42293E-02  8262   0.516E-02 0.236E-03
CGA:   5    -0.367216005326E+03   -0.10467E-02   -0.10441E-02  8262   0.150E-02-0.188E-04
CGA:   6    -0.367216344130E+03   -0.33880E-03   -0.33247E-03  8262   0.556E-03-0.552E-04
CGA:   7    -0.367216479489E+03   -0.13536E-03   -0.13742E-03  8262   0.224E-03 0.271E-04
CGA:   8    -0.367216541831E+03   -0.62341E-04   -0.64249E-04  8262   0.945E-04 0.345E-04
CGA:   9    -0.367216579846E+03   -0.38015E-04   -0.38051E-04  8262   0.520E-04-0.157E-05
CGA:  10    -0.367216591613E+03   -0.11767E-04   -0.12646E-04  8262   0.190E-04 0.110E-04
CGA:  11    -0.367216596371E+03   -0.47585E-05   -0.53351E-05  8262   0.786E-05 0.635E-05
  48 F= -.36721660E+03 E0= -.36721660E+03  d E =-.592080E-02  mag=    16.0000
       N       E                     dE             d eps       ncg     rms          ort
SDA:   1    -0.367143471151E+03    0.73120E-01    0.00000E+00  8262   0.232E+00 0.000E+00
CGA:   2    -0.367196043003E+03   -0.52572E-01   -0.52489E-01  8262   0.957E-01-0.104E-02
CGA:   3    -0.367215661679E+03   -0.19619E-01   -0.19634E-01  8262   0.267E-01 0.144E-03
CGA:   4    -0.367220117056E+03   -0.44554E-02   -0.45011E-02  8262   0.505E-02 0.325E-03
CGA:   5    -0.367221124636E+03   -0.10076E-02   -0.10145E-02  8262   0.141E-02 0.684E-04
CGA:   6    -0.367221442605E+03   -0.31797E-03   -0.31691E-03  8262   0.500E-03-0.147E-04
CGA:   7    -0.367221570169E+03   -0.12756E-03   -0.12855E-03  8262   0.219E-03 0.317E-04
CGA:   8    -0.367221633148E+03   -0.62979E-04   -0.63660E-04  8262   0.978E-04 0.435E-04
CGA:   9    -0.367221669096E+03   -0.35948E-04   -0.35659E-04  8262   0.460E-04 0.181E-04
CGA:  10    -0.367221682871E+03   -0.13775E-04   -0.14189E-04  8262   0.183E-04 0.144E-04
CGA:  11    -0.367221687434E+03   -0.45632E-05   -0.52455E-05  8262   0.796E-05 0.990E-05
  49 F= -.36722169E+03 E0= -.36722169E+03  d E =-.509106E-02  mag=    16.0000
       N       E                     dE             d eps       ncg     rms          ort
SDA:   1    -0.367047041789E+03    0.17464E+00    0.00000E+00  8262   0.528E+00 0.000E+00
CGA:   2    -0.367167456752E+03   -0.12041E+00   -0.12034E+00  8262   0.237E+00-0.149E-02
CGA:   3    -0.367214228063E+03   -0.46771E-01   -0.46785E-01  8262   0.614E-01 0.163E-03
CGA:   4    -0.367224668428E+03   -0.10440E-01   -0.10506E-01  8262   0.116E-01 0.578E-03
CGA:   5    -0.367226921697E+03   -0.22533E-02   -0.22678E-02  8262   0.322E-02 0.176E-03
CGA:   6    -0.367227632946E+03   -0.71125E-03   -0.71115E-03  8262   0.105E-02-0.224E-05
CGA:   7    -0.367227905597E+03   -0.27265E-03   -0.27295E-03  8262   0.453E-03 0.330E-04
CGA:   8    -0.367228036216E+03   -0.13062E-03   -0.12996E-03  8262   0.201E-03 0.690E-04
CGA:   9    -0.367228105252E+03   -0.69036E-04   -0.68068E-04  8262   0.866E-04 0.389E-04
CGA:  10    -0.367228134980E+03   -0.29728E-04   -0.29435E-04  8262   0.361E-04 0.204E-04
CGA:  11    -0.367228146426E+03   -0.11446E-04   -0.11601E-04  8262   0.150E-04 0.136E-04
CGA:  12    -0.367228153684E+03   -0.72572E-05   -0.70094E-05  8262   0.891E-05 0.364E-05
  50 F= -.36722815E+03 E0= -.36722815E+03  d E =-.646625E-02  mag=    16.0000
       N       E                     dE             d eps       ncg     rms          ort
SDA:   1    -0.366441133228E+03    0.78701E+00    0.00000E+00  8262   0.217E+01 0.000E+00
CGA:   2    -0.366984456044E+03   -0.54332E+00   -0.54329E+00  8262   0.107E+01-0.230E-02
CGA:   3    -0.367182064656E+03   -0.19761E+00   -0.19764E+00  8262   0.239E+00 0.393E-03
CGA:   4    -0.367223176751E+03   -0.41112E-01   -0.41215E-01  8262   0.471E-01 0.105E-02
CGA:   5    -0.367232290055E+03   -0.91133E-02   -0.91321E-02  8262   0.129E-01 0.256E-03
CGA:   6    -0.367235052018E+03   -0.27620E-02   -0.27590E-02  8262   0.387E-02-0.645E-04
CGA:   7    -0.367236032383E+03   -0.98037E-03   -0.98056E-03  8262   0.156E-02 0.533E-04
CGA:   8    -0.367236492623E+03   -0.46024E-03   -0.45590E-03  8262   0.698E-03 0.146E-03
CGA:   9    -0.367236735455E+03   -0.24283E-03   -0.23920E-03  8262   0.299E-03 0.672E-04
CGA:  10    -0.367236837263E+03   -0.10181E-03   -0.10045E-03  8262   0.118E-03 0.305E-04
CGA:  11    -0.367236876352E+03   -0.39089E-04   -0.38458E-04  8262   0.465E-04 0.198E-04
CGA:  12    -0.367236898323E+03   -0.21971E-04   -0.21985E-04  8262   0.294E-04-0.121E-06
CGA:  13    -0.367236906662E+03   -0.83388E-05   -0.82657E-05  8262   0.122E-04 0.853E-05
  51 F= -.36723691E+03 E0= -.36723691E+03  d E =-.875298E-02  mag=    16.0000
       N       E                     dE             d eps       ncg     rms          ort
SDA:   1    -0.367129279643E+03    0.10762E+00    0.00000E+00  8262   0.276E+00 0.000E+00
CGA:   2    -0.367211004179E+03   -0.81725E-01   -0.81683E-01  8262   0.112E+00 0.161E-02
CGA:   3    -0.367232915074E+03   -0.21911E-01   -0.21880E-01  8262   0.240E-01-0.406E-03
CGA:   4    -0.367236879303E+03   -0.39642E-02   -0.39528E-02  8262   0.519E-02-0.116E-03
CGA:   5    -0.367237911306E+03   -0.10320E-02   -0.10332E-02  8262   0.133E-02 0.182E-04
CGA:   6    -0.367238193202E+03   -0.28190E-03   -0.28084E-03  8262   0.432E-03-0.215E-04
CGA:   7    -0.367238310723E+03   -0.11752E-03   -0.11829E-03  8262   0.200E-03-0.385E-04
CGA:   8    -0.367238368278E+03   -0.57556E-04   -0.58193E-04  8262   0.995E-04-0.107E-04
CGA:   9    -0.367238398169E+03   -0.29891E-04   -0.30109E-04  8262   0.379E-04-0.381E-05
CGA:  10    -0.367238411344E+03   -0.13175E-04   -0.16756E-04  8262   0.304E-04-0.184E-04
CGA:  11    -0.367238420665E+03   -0.93213E-05    0.26146E-04  8262   0.138E-04-0.247E-05
  52 F= -.36723842E+03 E0= -.36723842E+03  d E =-.151400E-02  mag=    16.0000
       N       E                     dE             d eps       ncg     rms          ort
SDA:   1    -0.366825089786E+03    0.41332E+00    0.00000E+00  8262   0.104E+01 0.000E+00
CGA:   2    -0.367140992155E+03   -0.31590E+00   -0.31589E+00  8262   0.413E+00 0.256E-02
CGA:   3    -0.367220631550E+03   -0.79639E-01   -0.79544E-01  8262   0.861E-01-0.953E-03
CGA:   4    -0.367234894081E+03   -0.14263E-01   -0.14242E-01  8262   0.186E-01-0.178E-03
CGA:   5    -0.367238628769E+03   -0.37347E-02   -0.37444E-02  8262   0.479E-02 0.111E-03
CGA:   6    -0.367239603903E+03   -0.97513E-03   -0.97634E-03  8262   0.151E-02 0.138E-04
CGA:   7    -0.367239997993E+03   -0.39409E-03   -0.39350E-03  8262   0.618E-03-0.314E-04
CGA:   8    -0.367240189964E+03   -0.19197E-03   -0.19164E-03  8262   0.303E-03 0.846E-05
CGA:   9    -0.367240285471E+03   -0.95507E-04   -0.95010E-04  8262   0.114E-03 0.174E-04
CGA:  10    -0.367240325512E+03   -0.40041E-04   -0.40279E-04  8262   0.456E-04-0.456E-05
CGA:  11    -0.367240337276E+03   -0.11764E-04   -0.28613E-04  8262   0.100E-03-0.456E-04
CGA:  12    -0.367240354608E+03   -0.17332E-04   -0.18693E-04  8262   0.114E-04 0.116E-04
CGA:  13    -0.367240359892E+03   -0.52841E-05   -0.61229E-05  8262   0.880E-05-0.454E-05
CGA:  14    -0.367240363169E+03   -0.32768E-05    0.72538E-04  8262   0.473E-05-0.152E-08
  53 F= -.36724036E+03 E0= -.36724036E+03  d E =-.194250E-02  mag=    16.0000
       N       E                     dE             d eps       ncg     rms          ort
SDA:   1    -0.363019609922E+03    0.42207E+01    0.00000E+00  8262   0.103E+02 0.000E+00
CGA:   2    -0.366331588518E+03   -0.33120E+01   -0.33117E+01  8262   0.387E+01 0.110E-01
CGA:   3    -0.367063270380E+03   -0.73168E+00   -0.73150E+00  8262   0.767E+00-0.305E-02
CGA:   4    -0.367192800119E+03   -0.12953E+00   -0.12950E+00  8262   0.178E+00-0.312E-03
CGA:   5    -0.367228640705E+03   -0.35841E-01   -0.35884E-01  8262   0.458E-01 0.445E-03
CGA:   6    -0.367238172910E+03   -0.95322E-02   -0.95351E-02  8262   0.145E-01 0.196E-04
CGA:   7    -0.367241988842E+03   -0.38159E-02   -0.38126E-02  8262   0.608E-02-0.142E-03
CGA:   8    -0.367243914828E+03   -0.19260E-02   -0.19265E-02  8262   0.304E-02-0.158E-04
CGA:   9    -0.367244865217E+03   -0.95039E-03   -0.94941E-03  8262   0.113E-02 0.359E-04
CGA:  10    -0.367245223159E+03   -0.35794E-03   -0.35816E-03  8262   0.383E-03-0.922E-05
CGA:  11    -0.367245360407E+03   -0.13725E-03   -0.14207E-03  8262   0.198E-03-0.567E-04
CGA:  12    -0.367245426364E+03   -0.65957E-04   -0.67293E-04  8262   0.106E-03-0.127E-04
CGA:  13    -0.367245464311E+03   -0.37947E-04   -0.37580E-04  8262   0.453E-04 0.454E-05
CGA:  14    -0.367245484151E+03   -0.19840E-04   -0.21137E-04  8262   0.233E-04-0.897E-05
CGA:  15    -0.367245488992E+03   -0.48404E-05   -0.12757E-04  8262   0.377E-04-0.212E-04
  54 F= -.36724549E+03 E0= -.36724549E+03  d E =-.512582E-02  mag=    16.0000
       N       E                     dE             d eps       ncg     rms          ort
SDA:   1    -0.359040002993E+03    0.82055E+01    0.00000E+00  8262   0.184E+02 0.000E+00
CGA:   2    -0.364506266742E+03   -0.54663E+01   -0.54668E+01  8262   0.751E+01 0.717E-02
CGA:   3    -0.366033849559E+03   -0.15276E+01   -0.15283E+01  8262   0.196E+01-0.425E-03
CGA:   4    -0.366378335781E+03   -0.34449E+00   -0.34446E+00  8262   0.484E+00 0.107E-02
CGA:   5    -0.366481247237E+03   -0.10291E+00   -0.10299E+00  8262   0.148E+00 0.129E-02
CGA:   6    -0.366514691726E+03   -0.33444E-01   -0.33501E-01  8262   0.582E-01 0.726E-03
CGA:   7    -0.366530126148E+03   -0.15434E-01   -0.15442E-01  8262   0.228E-01 0.202E-03
CGA:   8    -0.366536799622E+03   -0.66735E-02   -0.66748E-02  8262   0.943E-02 0.254E-03
CGA:   9    -0.366539552782E+03   -0.27532E-02   -0.27547E-02  8262   0.331E-02 0.181E-03
CGA:  10    -0.366540620380E+03   -0.10676E-02   -0.10692E-02  8262   0.124E-02-0.792E-04
CGA:  11    -0.366541018779E+03   -0.39840E-03   -0.39882E-03  8262   0.515E-03-0.140E-04
CGA:  12    -0.366541226759E+03   -0.20798E-03   -0.22321E-03  8262   0.358E-03-0.110E-03
CGA:  13    -0.366541311733E+03   -0.84974E-04   -0.85113E-04  8262   0.144E-03 0.360E-04
CGA:  14    -0.366541370702E+03   -0.58969E-04   -0.62068E-04  8262   0.935E-04-0.359E-04
CGA:  15    -0.366541390162E+03   -0.19460E-04   -0.19610E-04  8262   0.421E-04 0.489E-05
CGA:  16    -0.366541403502E+03   -0.13339E-04   -0.13299E-04  8262   0.179E-04-0.466E-05
CGA:  17    -0.366541418343E+03   -0.14841E-04    0.48393E-05  8262   0.837E-05-0.278E-06
CGA:  18    -0.366541423941E+03   -0.55981E-05    0.12633E-04  8262   0.368E-05-0.223E-06
  55 F= -.36654142E+03 E0= -.36654142E+03  d E =0.704065E+00  mag=    16.0000
[...]
       N       E                     dE             d eps       ncg     rms          ort
SDA:   1    -0.367097566561E+03    0.33020E+00    0.00000E+00  8262   0.823E+00 0.000E+00
CGA:   2    -0.367333927661E+03   -0.23636E+00   -0.23636E+00  8262   0.378E+00 0.510E-03
CGA:   3    -0.367403051625E+03   -0.69124E-01   -0.69085E-01  8262   0.904E-01-0.454E-03
CGA:   4    -0.367418957023E+03   -0.15905E-01   -0.15875E-01  8262   0.194E-01-0.301E-03
CGA:   5    -0.367422751763E+03   -0.37947E-02   -0.37933E-02  8262   0.558E-02-0.224E-04
CGA:   6    -0.367423976750E+03   -0.12250E-02   -0.12218E-02  8262   0.189E-02-0.651E-04
CGA:   7    -0.367424492976E+03   -0.51623E-03   -0.51734E-03  8262   0.841E-03-0.112E-03
CGA:   8    -0.367424721117E+03   -0.22814E-03   -0.22828E-03  8262   0.351E-03-0.673E-05
CGA:   9    -0.367424835408E+03   -0.11429E-03   -0.11722E-03  8262   0.153E-03-0.430E-04
CGA:  10    -0.367424881317E+03   -0.45908E-04   -0.50233E-04  8262   0.759E-04-0.423E-04
CGA:  11    -0.367424893719E+03   -0.12403E-04   -0.12825E-04  8262   0.261E-04 0.971E-05
CGA:  12    -0.367424904230E+03   -0.10511E-04   -0.12655E-04  8262   0.298E-04-0.139E-04
CGA:  13    -0.367424912954E+03   -0.87234E-05   -0.88278E-05  8262   0.865E-05-0.772E-05
CGA:  14    -0.367424893052E+03    0.19902E-04   -0.10998E-04  8262   0.139E-03-0.213E-04
CGA:  15    -0.367424922202E+03   -0.29150E-04   -0.29048E-04  8262   0.688E-05-0.351E-06
CGA:  16    -0.367424921911E+03    0.29092E-06   -0.76622E-05  8262   0.382E-04-0.129E-04
 151 F= -.36742492E+03 E0= -.36742492E+03  d E =0.285503E-02  mag=    16.0000
       N       E                     dE             d eps       ncg     rms          ort
SDA:   1    -0.367236983576E+03    0.18794E+00    0.00000E+00  8262   0.467E+00 0.000E+00
CGA:   2    -0.367382864728E+03   -0.14588E+00   -0.14594E+00  8262   0.203E+00 0.226E-03
CGA:   3    -0.367418332666E+03   -0.35468E-01   -0.35409E-01  8262   0.458E-01-0.170E-03
CGA:   4    -0.367426293886E+03   -0.79612E-02   -0.79278E-02  8262   0.990E-02-0.114E-03
CGA:   5    -0.367428234915E+03   -0.19410E-02   -0.19416E-02  8262   0.279E-02 0.915E-06
CGA:   6    -0.367428803168E+03   -0.56825E-03   -0.58242E-03  8262   0.841E-03 0.562E-04
CGA:   7    -0.367429006727E+03   -0.20356E-03   -0.21214E-03  8262   0.319E-03 0.430E-04
CGA:   8    -0.367429110863E+03   -0.10414E-03   -0.10443E-03  8262   0.157E-03 0.226E-05
CGA:   9    -0.367429151745E+03   -0.40882E-04   -0.43402E-04  8262   0.533E-04 0.162E-04
CGA:  10    -0.367429165409E+03   -0.13663E-04   -0.15209E-04  8262   0.163E-04 0.945E-05
CGA:  11    -0.367429172870E+03   -0.74614E-05   -0.73542E-05  8262   0.105E-04-0.347E-05
 152 F= -.36742917E+03 E0= -.36742917E+03  d E =-.425096E-02  mag=    16.0000
       N       E                     dE             d eps       ncg     rms          ort
SDA:   1    -0.367403332979E+03    0.25832E-01    0.00000E+00  8262   0.671E-01 0.000E+00
CGA:   2    -0.367422145242E+03   -0.18812E-01   -0.18862E-01  8262   0.288E-01 0.407E-03
CGA:   3    -0.367427678639E+03   -0.55334E-02   -0.54950E-02  8262   0.699E-02-0.188E-03
CGA:   4    -0.367428847065E+03   -0.11684E-02   -0.11433E-02  8262   0.144E-02-0.117E-03
CGA:   5    -0.367429131153E+03   -0.28409E-03   -0.28021E-03  8262   0.383E-03-0.225E-04
CGA:   6    -0.367429206587E+03   -0.75434E-04   -0.76651E-04  8262   0.109E-03 0.754E-05
CGA:   7    -0.367429233620E+03   -0.27033E-04   -0.27587E-04  8262   0.430E-04 0.520E-05
CGA:   8    -0.367429248354E+03   -0.14734E-04   -0.14730E-04  8262   0.243E-04-0.169E-06
CGA:   9    -0.367429256196E+03   -0.78420E-05   -0.78369E-05  8262   0.109E-04-0.223E-06
 153 F= -.36742926E+03 E0= -.36742926E+03  d E =-.833256E-04  mag=    16.0000
       N       E                     dE             d eps       ncg     rms          ort
SDA:   1    -0.360545138227E+03    0.68841E+01    0.00000E+00  8262   0.184E+02 0.000E+00
CGA:   2    -0.365433927788E+03   -0.48888E+01   -0.48926E+01  8262   0.822E+01 0.166E-01
CGA:   3    -0.366978703953E+03   -0.15448E+01   -0.15451E+01  8262   0.201E+01 0.362E-02
CGA:   4    -0.367309474342E+03   -0.33077E+00   -0.33041E+00  8262   0.399E+00-0.210E-02
CGA:   5    -0.367386953941E+03   -0.77480E-01   -0.77382E-01  8262   0.109E+00-0.708E-03
CGA:   6    -0.367409837756E+03   -0.22884E-01   -0.22897E-01  8262   0.325E-01 0.807E-04
CGA:   7    -0.367418181421E+03   -0.83437E-02   -0.83422E-02  8262   0.133E-01-0.395E-04
CGA:   8    -0.367422375357E+03   -0.41939E-02   -0.41954E-02  8262   0.680E-02-0.232E-03
CGA:   9    -0.367424529374E+03   -0.21540E-02   -0.21564E-02  8262   0.289E-02-0.196E-03
CGA:  10    -0.367425419822E+03   -0.89045E-03   -0.89107E-03  8262   0.101E-02-0.949E-04
CGA:  11    -0.367425767824E+03   -0.34800E-03   -0.35415E-03  8262   0.482E-03-0.125E-03
CGA:  12    -0.367425919608E+03   -0.15178E-03   -0.15162E-03  8262   0.220E-03 0.329E-05
CGA:  13    -0.367426007911E+03   -0.88303E-04   -0.88391E-04  8262   0.107E-03-0.123E-05
CGA:  14    -0.367426052576E+03   -0.44665E-04   -0.46389E-04  8262   0.492E-04-0.152E-04
CGA:  15    -0.367426069332E+03   -0.16756E-04   -0.17793E-04  8262   0.197E-04-0.109E-04
CGA:  16    -0.367426082620E+03   -0.13288E-04    0.80891E-05  8262   0.589E-05 0.311E-06
CGA:  17    -0.367426083475E+03   -0.85514E-06   -0.11980E-05  8262   0.236E-05 0.262E-05
 154 F= -.36742608E+03 E0= -.36742608E+03  d E =0.317272E-02  mag=    16.0000
       N       E                     dE             d eps       ncg     rms          ort
SDA:   1    -0.353067233127E+03    0.14359E+02    0.00000E+00  8262   0.330E+02 0.000E+00
CGA:   2    -0.362587622267E+03   -0.95204E+01   -0.95208E+01  8262   0.138E+02-0.541E-02
CGA:   3    -0.365178488330E+03   -0.25909E+01   -0.25938E+01  8262   0.395E+01 0.141E-01
CGA:   4    -0.365910111899E+03   -0.73162E+00   -0.73214E+00  8262   0.948E+00 0.256E-02
CGA:   5    -0.366104131645E+03   -0.19402E+00   -0.19411E+00  8262   0.301E+00 0.128E-02
CGA:   6    -0.366172353372E+03   -0.68222E-01   -0.68326E-01  8262   0.117E+00 0.138E-02
CGA:   7    -0.366203814446E+03   -0.31461E-01   -0.31456E-01  8262   0.464E-01-0.176E-03
CGA:   8    -0.366217145378E+03   -0.13331E-01   -0.13325E-01  8262   0.195E-01-0.732E-03
CGA:   9    -0.366222612237E+03   -0.54669E-02   -0.54675E-02  8262   0.646E-02 0.601E-04
CGA:  10    -0.366224619502E+03   -0.20073E-02   -0.20087E-02  8262   0.236E-02-0.940E-04
CGA:  11    -0.366225386606E+03   -0.76710E-03   -0.77049E-03  8262   0.101E-02-0.969E-04
CGA:  12    -0.366225791438E+03   -0.40483E-03   -0.49708E-03  8262   0.983E-03-0.430E-03
CGA:  13    -0.366225974250E+03   -0.18281E-03   -0.18480E-03  8262   0.490E-03-0.107E-03
CGA:  14    -0.366226121267E+03   -0.14702E-03   -0.15240E-03  8262   0.290E-03-0.134E-03
CGA:  15    -0.366226196817E+03   -0.75550E-04   -0.82029E-04  8262   0.176E-03-0.822E-04
CGA:  16    -0.366226239570E+03   -0.42753E-04   -0.70460E-04  8262   0.182E-03-0.113E-03
CGA:  17    -0.366226306262E+03   -0.66692E-04   -0.68590E-04  8262   0.574E-04-0.384E-04
CGA:  18    -0.366226313952E+03   -0.76902E-05   -0.99425E-05  8262   0.196E-04 0.203E-04
 155 F= -.36622631E+03 E0= -.36622631E+03  d E =0.119977E+01  mag=    16.0000
       N       E                     dE             d eps       ncg     rms          ort
SDA:   1    -0.363835433026E+03    0.23909E+01    0.00000E+00  8262   0.798E+01 0.000E+00
CGA:   2    -0.366420477535E+03   -0.25850E+01   -0.25850E+01  8262   0.248E+01-0.595E-02
CGA:   3    -0.366994791753E+03   -0.57431E+00   -0.57448E+00  8262   0.628E+00-0.617E-03
CGA:   4    -0.367112618763E+03   -0.11783E+00   -0.11788E+00  8262   0.187E+00-0.149E-03
CGA:   5    -0.367151442827E+03   -0.38824E-01   -0.38860E-01  8262   0.571E-01 0.332E-03
CGA:   6    -0.367165824863E+03   -0.14382E-01   -0.14404E-01  8262   0.252E-01 0.377E-03
CGA:   7    -0.367172087141E+03   -0.62623E-02   -0.62795E-02  8262   0.950E-02 0.293E-03
CGA:   8    -0.367174847854E+03   -0.27607E-02   -0.27656E-02  8262   0.363E-02 0.316E-03
CGA:   9    -0.367175862765E+03   -0.10149E-02   -0.10210E-02  8262   0.123E-02 0.201E-03
CGA:  10    -0.367176241467E+03   -0.37870E-03   -0.37923E-03  8262   0.430E-03 0.587E-04
CGA:  11    -0.367176342715E+03   -0.10125E-03   -0.10879E-03  8262   0.154E-03 0.128E-03
CGA:  12    -0.367176369268E+03   -0.26553E-04   -0.37333E-04  8262   0.755E-04 0.979E-04
CGA:  13    -0.367176391664E+03   -0.22396E-04   -0.22287E-04  8262   0.376E-04 0.334E-04
CGA:  14    -0.367176391943E+03   -0.27876E-06   -0.72433E-05  8262   0.273E-04 0.439E-04
 156 F= -.36717639E+03 E0= -.36717639E+03  d E =-.950078E+00  mag=    16.0000
       N       E                     dE             d eps       ncg     rms          ort
SDA:   1    -0.365385041023E+03    0.17914E+01    0.00000E+00  8262   0.482E+01 0.000E+00
CGA:   2    -0.366935823709E+03   -0.15508E+01   -0.15506E+01  8262   0.156E+01 0.201E-02
CGA:   3    -0.367282394179E+03   -0.34657E+00   -0.34665E+00  8262   0.437E+00 0.119E-02
CGA:   4    -0.367361031524E+03   -0.78637E-01   -0.78696E-01  8262   0.118E+00 0.364E-03
CGA:   5    -0.367386087234E+03   -0.25056E-01   -0.25049E-01  8262   0.374E-01-0.135E-03
CGA:   6    -0.367395046915E+03   -0.89597E-02   -0.89620E-02  8262   0.164E-01 0.775E-04
CGA:   7    -0.367399111938E+03   -0.40650E-02   -0.40731E-02  8262   0.592E-02 0.432E-03
CGA:   8    -0.367400822326E+03   -0.17104E-02   -0.17044E-02  8262   0.227E-02 0.397E-03
CGA:   9    -0.367401482916E+03   -0.66059E-03   -0.65964E-03  8262   0.798E-03 0.162E-03
CGA:  10    -0.367401729098E+03   -0.24618E-03   -0.24477E-03  8262   0.283E-03 0.713E-04
CGA:  11    -0.367401794010E+03   -0.64912E-04   -0.69307E-04  8262   0.104E-03 0.103E-03
CGA:  12    -0.367401809100E+03   -0.15091E-04   -0.23168E-04  8262   0.545E-04 0.788E-04
CGA:  13    -0.367401814976E+03   -0.58755E-05   -0.92943E-05  8262   0.321E-04 0.381E-04
 157 F= -.36740181E+03 E0= -.36740181E+03  d E =-.225423E+00  mag=    16.0000
       N       E                     dE             d eps       ncg     rms          ort
SDA:   1    -0.367366001575E+03    0.35808E-01    0.00000E+00  8262   0.129E+00 0.000E+00
CGA:   2    -0.367404473251E+03   -0.38472E-01   -0.38463E-01  8262   0.496E-01 0.174E-03
CGA:   3    -0.367413977201E+03   -0.95039E-02   -0.95423E-02  8262   0.146E-01 0.642E-03
CGA:   4    -0.367416637335E+03   -0.26601E-02   -0.26815E-02  8262   0.333E-02 0.312E-03
CGA:   5    -0.367417389196E+03   -0.75186E-03   -0.74616E-03  8262   0.123E-02-0.218E-03
CGA:   6    -0.367417694521E+03   -0.30533E-03   -0.31390E-03  8262   0.717E-03-0.289E-03
CGA:   7    -0.367417800494E+03   -0.10597E-03   -0.10843E-03  8262   0.221E-03 0.513E-04
CGA:   8    -0.367417822374E+03   -0.21879E-04   -0.32612E-04  8262   0.916E-04 0.102E-03
CGA:   9    -0.367417832119E+03   -0.97451E-05   -0.16719E-04  8262   0.402E-04 0.617E-04
CGA:  10    -0.367417751896E+03    0.80223E-04   -0.45236E-04  8262   0.654E-03-0.112E-03
CGA:  11    -0.367417822255E+03   -0.70359E-04   -0.10041E-03  8262   0.516E-04 0.111E-03
CGA:  12    -0.367417842647E+03   -0.20392E-04   -0.19325E-04  8262   0.236E-04-0.119E-04
CGA:  13    -0.367417845165E+03   -0.25179E-05   -0.34339E-05  8262   0.787E-05 0.422E-05
 158 F= -.36741785E+03 E0= -.36741785E+03  d E =-.160302E-01  mag=    16.0000
       N       E                     dE             d eps       ncg     rms          ort
SDA:   1    -0.367321171478E+03    0.96671E-01    0.00000E+00  8262   0.271E+00 0.000E+00
CGA:   2    -0.367398166034E+03   -0.76995E-01   -0.77011E-01  8262   0.111E+00 0.132E-03
CGA:   3    -0.367418987901E+03   -0.20822E-01   -0.20937E-01  8262   0.322E-01 0.619E-03
CGA:   4    -0.367424954855E+03   -0.59670E-02   -0.60260E-02  8262   0.738E-02 0.324E-03
CGA:   5    -0.367426515030E+03   -0.15602E-02   -0.15235E-02  8262   0.240E-02-0.242E-03
CGA:   6    -0.367427141065E+03   -0.62603E-03   -0.59315E-03  8262   0.116E-02-0.351E-03
CGA:   7    -0.367427373131E+03   -0.23207E-03   -0.23125E-03  8262   0.386E-03-0.746E-05
CGA:   8    -0.367427433299E+03   -0.60168E-04   -0.75013E-04  8262   0.121E-03 0.103E-03
CGA:   9    -0.367427464620E+03   -0.31321E-04   -0.34400E-04  8262   0.484E-04 0.287E-04
CGA:  10    -0.367427479705E+03   -0.15085E-04   -0.38888E-04  8262   0.152E-03-0.738E-04
CGA:  11    -0.367427498062E+03   -0.18357E-04   -0.24124E-04  8262   0.202E-04 0.313E-04
CGA:  12    -0.367427507277E+03   -0.92142E-05   -0.12052E-04  8262   0.234E-04-0.177E-04
 159 F= -.36742751E+03 E0= -.36742751E+03  d E =-.966211E-02  mag=    16.0000
       N       E                     dE             d eps       ncg     rms          ort
SDA:   1    -0.367418296285E+03    0.92018E-02    0.00000E+00  8262   0.298E-01 0.000E+00
CGA:   2    -0.367425490217E+03   -0.71939E-02   -0.71874E-02  8262   0.133E-01-0.715E-04
CGA:   3    -0.367427942501E+03   -0.24523E-02   -0.24760E-02  8262   0.354E-02 0.165E-03
CGA:   4    -0.367428589797E+03   -0.64730E-03   -0.66343E-03  8262   0.819E-03 0.118E-03
CGA:   5    -0.367428770825E+03   -0.18103E-03   -0.17381E-03  8262   0.267E-03-0.655E-04
CGA:   6    -0.367428850111E+03   -0.79286E-04   -0.85896E-04  8262   0.312E-03-0.170E-03
CGA:   7    -0.367428876463E+03   -0.26352E-04   -0.35769E-04  8262   0.385E-04 0.476E-04
CGA:   8    -0.367428876655E+03   -0.19229E-06   -0.48803E-05  8262   0.178E-04 0.243E-04
 160 F= -.36742888E+03 E0= -.36742888E+03  d E =-.136938E-02  mag=    16.0000
       N       E                     dE             d eps       ncg     rms          ort
SDA:   1    -0.367342659910E+03    0.86217E-01    0.00000E+00  8262   0.263E+00 0.000E+00
CGA:   2    -0.367399100660E+03   -0.56441E-01   -0.56423E-01  8262   0.118E+00-0.286E-03
CGA:   3    -0.367422490960E+03   -0.23390E-01   -0.23406E-01  8262   0.320E-01 0.164E-03
CGA:   4    -0.367428353953E+03   -0.58630E-02   -0.58859E-02  8262   0.740E-02 0.252E-03
CGA:   5    -0.367429779509E+03   -0.14256E-02   -0.14172E-02  8262   0.198E-02-0.101E-03
CGA:   6    -0.367430273465E+03   -0.49396E-03   -0.48771E-03  8262   0.866E-03-0.306E-03
CGA:   7    -0.367430453860E+03   -0.18040E-03   -0.17892E-03  8262   0.321E-03-0.596E-04
CGA:   8    -0.367430511468E+03   -0.57608E-04   -0.61582E-04  8262   0.952E-04 0.646E-04
CGA:   9    -0.367430539625E+03   -0.28157E-04   -0.28390E-04  8262   0.391E-04 0.141E-04
CGA:  10    -0.367430288083E+03    0.25154E-03   -0.13544E-03  8262   0.134E-02-0.228E-03
CGA:  11    -0.367430512387E+03   -0.22430E-03   -0.24358E-03  8262   0.183E-03 0.641E-04
CGA:  12    -0.367430572111E+03   -0.59724E-04   -0.60359E-04  8262   0.389E-04 0.415E-05
CGA:  13    -0.367430584933E+03   -0.12822E-04   -0.13139E-04  8262   0.107E-04 0.247E-05
CGA:  14    -0.367430586806E+03   -0.18726E-05   -0.27974E-05  8262   0.370E-05 0.446E-05
 161 F= -.36743059E+03 E0= -.36743059E+03  d E =-.171015E-02  mag=    16.0000
       N       E                     dE             d eps       ncg     rms          ort
SDA:   1    -0.367423323567E+03    0.72614E-02    0.00000E+00  8262   0.216E-01 0.000E+00
CGA:   2    -0.367428624807E+03   -0.53012E-02   -0.52801E-02  8262   0.942E-02-0.120E-03
CGA:   3    -0.367430478446E+03   -0.18536E-02   -0.18161E-02  8262   0.264E-02-0.168E-03
CGA:   4    -0.367430983116E+03   -0.50467E-03   -0.49109E-03  8262   0.607E-03-0.626E-04
CGA:   5    -0.367431074908E+03   -0.91791E-04   -0.10233E-03  8262   0.142E-03 0.471E-04
CGA:   6    -0.367431092732E+03   -0.17825E-04   -0.26347E-04  8262   0.425E-04 0.401E-04
CGA:   7    -0.367431101401E+03   -0.86687E-05   -0.11127E-04  8262   0.187E-04 0.145E-04
 162 F= -.36743110E+03 E0= -.36743110E+03  d E =-.514595E-03  mag=    16.0000
       N       E                     dE             d eps       ncg     rms          ort
SDA:   1    -0.367421752493E+03    0.93402E-02    0.00000E+00  8262   0.278E-01 0.000E+00
CGA:   2    -0.367428067016E+03   -0.63145E-02   -0.63029E-02  8262   0.124E-01-0.906E-04
CGA:   3    -0.367430547722E+03   -0.24807E-02   -0.24472E-02  8262   0.363E-02-0.210E-03
CGA:   4    -0.367431198086E+03   -0.65036E-03   -0.63594E-03  8262   0.869E-03-0.835E-04
CGA:   5    -0.367431334597E+03   -0.13651E-03   -0.14486E-03  8262   0.207E-03 0.486E-04
CGA:   6    -0.367431365100E+03   -0.30503E-04   -0.38382E-04  8262   0.596E-04 0.500E-04
CGA:   7    -0.367431380004E+03   -0.14904E-04   -0.16406E-04  8262   0.273E-04 0.144E-04
CGA:   8    -0.367431391904E+03   -0.11900E-04   -0.18529E-04  8262   0.668E-04-0.294E-04
CGA:   9    -0.367431399523E+03   -0.76189E-05   -0.97152E-05  8262   0.928E-05 0.112E-04
 163 F= -.36743140E+03 E0= -.36743140E+03  d E =-.298122E-03  mag=    16.0000
       N       E                     dE             d eps       ncg     rms          ort
SDA:   1    -0.367428687673E+03    0.27042E-02    0.00000E+00  8262   0.832E-02 0.000E+00
CGA:   2    -0.367430499807E+03   -0.18121E-02   -0.18116E-02  8262   0.412E-02-0.654E-05
CGA:   3    -0.367431315320E+03   -0.81551E-03   -0.81316E-03  8262   0.106E-02-0.212E-04
CGA:   4    -0.367431497724E+03   -0.18240E-03   -0.18414E-03  8262   0.228E-03 0.135E-04
CGA:   5    -0.367431543952E+03   -0.46228E-04   -0.45314E-04  8262   0.663E-04-0.889E-05
CGA:   6    -0.367431561524E+03   -0.17572E-04   -0.17174E-04  8262   0.342E-04-0.163E-04
CGA:   7    -0.367431566403E+03   -0.48789E-05   -0.50509E-05  8262   0.108E-04 0.177E-05
 164 F= -.36743157E+03 E0= -.36743157E+03  d E =-.166880E-03  mag=    16.0000
       N       E                     dE             d eps       ncg     rms          ort
SDA:   1    -0.367409546590E+03    0.22015E-01    0.00000E+00  8262   0.670E-01 0.000E+00
CGA:   2    -0.367423136105E+03   -0.13590E-01   -0.13618E-01  8262   0.316E-01 0.364E-03
CGA:   3    -0.367429595655E+03   -0.64596E-02   -0.64564E-02  8262   0.860E-02-0.470E-04
CGA:   4    -0.367431103197E+03   -0.15075E-02   -0.14967E-02  8262   0.195E-02-0.108E-03
CGA:   5    -0.367431471138E+03   -0.36794E-03   -0.36142E-03  8262   0.521E-03-0.809E-04
CGA:   6    -0.367431587362E+03   -0.11622E-03   -0.11470E-03  8262   0.180E-03-0.442E-04
CGA:   7    -0.367431627137E+03   -0.39775E-04   -0.39613E-04  8262   0.621E-04-0.730E-05
CGA:   8    -0.367431643558E+03   -0.16421E-04   -0.16430E-04  8262   0.231E-04-0.584E-06
CGA:   9    -0.367431649856E+03   -0.62979E-05   -0.13254E-04  8262   0.453E-04-0.220E-04
 165 F= -.36743165E+03 E0= -.36743165E+03  d E =-.834536E-04  mag=    16.0000
       N       E                     dE             d eps       ncg     rms          ort
SDA:   1    -0.367428662608E+03    0.29810E-02    0.00000E+00  8262   0.854E-02 0.000E+00
CGA:   2    -0.367430550406E+03   -0.18878E-02   -0.18977E-02  8262   0.363E-02 0.193E-03
CGA:   3    -0.367431322878E+03   -0.77247E-03   -0.76857E-03  8262   0.111E-02-0.622E-04
CGA:   4    -0.367431535546E+03   -0.21267E-03   -0.20576E-03  8262   0.268E-03-0.885E-04
CGA:   5    -0.367431575975E+03   -0.40429E-04   -0.41710E-04  8262   0.634E-04 0.135E-04
CGA:   6    -0.367431581764E+03   -0.57886E-05   -0.89985E-05  8262   0.200E-04 0.260E-04
 166 F= -.36743158E+03 E0= -.36743158E+03  d E =0.680925E-04  mag=    16.0000
       N       E                     dE             d eps       ncg     rms          ort
SDA:   1    -0.367429651395E+03    0.19246E-02    0.00000E+00  8262   0.567E-02 0.000E+00
CGA:   2    -0.367430815490E+03   -0.11641E-02   -0.11682E-02  8262   0.253E-02 0.103E-03
CGA:   3    -0.367431324967E+03   -0.50948E-03   -0.51271E-03  8262   0.689E-03 0.714E-04
CGA:   4    -0.367431460452E+03   -0.13549E-03   -0.13482E-03  8262   0.160E-03-0.128E-04
CGA:   5    -0.367431493645E+03   -0.33192E-04   -0.32670E-04  8262   0.523E-04-0.170E-04
CGA:   6    -0.367431504372E+03   -0.10728E-04   -0.10689E-04  8262   0.185E-04-0.452E-05
CGA:   7    -0.367431507738E+03   -0.33661E-05   -0.34627E-05  8262   0.568E-05 0.300E-05
 167 F= -.36743151E+03 E0= -.36743151E+03  d E =0.740257E-04  mag=    16.0000
