       N       E                     dE             d eps       ncg     rms          ort
DAV:   1     0.249011060913E+04    0.24901E+04   -0.15728E+05 11088   0.158E+03
DAV:   2    -0.181683672931E+03   -0.26718E+04   -0.25219E+04 11088   0.424E+02
DAV:   3    -0.429426445445E+03   -0.24774E+03   -0.24200E+03 11088   0.146E+02
DAV:   4    -0.437513345079E+03   -0.80869E+01   -0.77884E+01 11088   0.270E+01
DAV:   5    -0.437924249505E+03   -0.41090E+00   -0.40400E+00 11088   0.454E+00
SDA:   6    -0.152792374632E+03    0.28513E+03   -0.40400E+00 11088   0.406E+04 0.000E+00
CGA:   7    -0.205626546753E+03   -0.52834E+02   -0.37744E+03 11088   0.108E+05-0.259E+04
CGA:   8    -0.141026524233E+03    0.64600E+02   -0.92787E+03 11088   0.924E+03-0.563E+03
CGA:   9    -0.239730425582E+03   -0.98704E+02   -0.30227E+02 11088   0.130E+04 0.193E+04
CGA:  10    -0.165587905404E+03    0.74143E+02   -0.81347E+02 11088   0.943E+03-0.599E+03
CGA:  11    -0.303536811246E+03   -0.13795E+03   -0.14091E+02 11088   0.803E+03-0.455E+03
CGA:  12    -0.305258015550E+03   -0.17212E+01   -0.15632E+02 11088   0.277E+03-0.242E+03
CGA:  13    -0.309913232943E+03   -0.46552E+01   -0.50261E+01 11088   0.128E+04-0.789E+03
CGA:  14    -0.305974384863E+03    0.39388E+01   -0.73756E+02 11088   0.814E+03-0.468E+03
CGA:  15    -0.315493870077E+03   -0.95195E+01   -0.21738E+02 11088   0.333E+03 0.161E+01
CGA:  16    -0.306590950823E+03    0.89029E+01   -0.11526E+02 11088   0.195E+03-0.124E+03
CGA:  17    -0.323802709368E+03   -0.17212E+02   -0.19347E+01 11088   0.533E+03 0.100E+04
CGA:  18    -0.320030389110E+03    0.37723E+01   -0.22095E+02 11088   0.316E+03-0.211E+03
CGA:  19    -0.310051882675E+03    0.99785E+01   -0.84964E+01 11088   0.245E+03-0.116E+03
CGA:  20    -0.328819414745E+03   -0.18768E+02   -0.26483E+01 11088   0.110E+03 0.193E+01
CGA:  21    -0.316938215962E+03    0.11881E+02   -0.28853E+01 11088   0.603E+03-0.291E+03
CGA:  22    -0.308820852701E+03    0.81174E+01   -0.20466E+02 11088   0.220E+03-0.128E+03
CGA:  23    -0.320252370665E+03   -0.11432E+02   -0.27553E+01 11088   0.559E+03-0.642E+03
CGA:  24    -0.307823999293E+03    0.12428E+02   -0.24833E+02 11088   0.874E+03-0.716E+02
CGA:  25    -0.301312807841E+03    0.65112E+01   -0.23017E+02 11088   0.535E+03-0.167E+03
CGA:  26    -0.327374503812E+03   -0.26062E+02   -0.17677E+02 11088   0.126E+03-0.410E+02
CGA:  27    -0.322856364304E+03    0.45181E+01   -0.34464E+01 11088   0.705E+03-0.287E+03
CGA:  28    -0.323268888236E+03   -0.41252E+00   -0.30799E+02 11088   0.701E+03 0.212E+02
CGA:  29    -0.314809759741E+03    0.84591E+01   -0.29987E+02 11088   0.205E+03-0.791E+02
CGA:  30    -0.321075734216E+03   -0.62660E+01   -0.57917E+01 11088   0.977E+03-0.364E+03
CGA:  31    -0.325714402371E+03   -0.46387E+01   -0.40513E+02 11088   0.760E+02-0.403E+02
CGA:  32    -0.327265723012E+03   -0.15513E+01   -0.10756E+01 11088   0.580E+02 0.340E+02
CGA:  33    -0.330311951151E+03   -0.30462E+01   -0.91285E+00 11088   0.145E+03 0.300E+03
CGA:  34    -0.331872217075E+03   -0.15603E+01   -0.26283E+01 11088   0.543E+02-0.860E+02
CGA:  35    -0.332054305300E+03   -0.18209E+00   -0.11086E+01 11088   0.656E+02-0.656E+02
CGA:  36    -0.331731084241E+03    0.32322E+00   -0.16378E+01 11088   0.656E+02-0.484E+02
CGA:  37    -0.332430494855E+03   -0.69941E+00   -0.11560E+01 11088   0.387E+02-0.610E+02
CGA:  38    -0.332432563291E+03   -0.20684E-02   -0.83256E+00 11088   0.345E+02-0.294E+02
CGA:  39    -0.332812297112E+03   -0.37973E+00   -0.51405E+00 11088   0.765E+01-0.154E+02
CGA:  40    -0.332953354316E+03   -0.14106E+00   -0.15273E+00 11088   0.275E+01-0.132E+00
CGA:  41    -0.333036427417E+03   -0.83073E-01   -0.88033E-01 11088   0.322E+01-0.800E-01
CGA:  42    -0.333126273914E+03   -0.89846E-01   -0.25687E+00 11088   0.175E+02-0.638E+01
CGA:  43    -0.333256843616E+03   -0.13057E+00   -0.32777E+00 11088   0.730E+01-0.710E+01
CGA:  44    -0.333378826225E+03   -0.12198E+00   -0.13511E+00 11088   0.273E+01-0.231E+00
CGA:  45    -0.333450780132E+03   -0.71954E-01   -0.76101E-01 11088   0.133E+01-0.102E+00
CGA:  46    -0.333578127812E+03   -0.12735E+00   -0.11213E+00 11088   0.109E+01 0.364E+00
CGA:  47    -0.333635507314E+03   -0.57380E-01   -0.58942E-01 11088   0.119E+01 0.645E-02
CGA:  48    -0.333695435101E+03   -0.59928E-01   -0.11104E+00 11088   0.438E+01-0.156E+01
CGA:  49    -0.333762358398E+03   -0.66923E-01   -0.88827E-01 11088   0.723E+00-0.796E+00
CGA:  50    -0.333789046055E+03   -0.26688E-01   -0.26732E-01 11088   0.422E+00-0.208E-01
CGA:  51    -0.333819740560E+03   -0.30695E-01   -0.28428E-01 11088   0.127E+00 0.922E-01
CGA:  52    -0.333837289218E+03   -0.17549E-01   -0.18736E-01 11088   0.524E+00-0.196E-01
CGA:  53    -0.333834615886E+03    0.26733E-02   -0.88817E-01 11088   0.197E+01-0.638E+00
CGA:  54    -0.333892794937E+03   -0.58179E-01   -0.59223E-01 11088   0.211E+00-0.168E-01
CGA:  55    -0.333910805906E+03   -0.18011E-01   -0.17996E-01 11088   0.304E+00-0.229E-02
CGA:  56    -0.333937185370E+03   -0.26379E-01   -0.25141E-01 11088   0.535E-01 0.449E-01
CGA:  57    -0.333943137389E+03   -0.59520E-02   -0.58781E-02 11088   0.680E-01 0.199E-02
CGA:  58    -0.333949192153E+03   -0.60548E-02   -0.59489E-02 11088   0.248E-01 0.545E-02
CGA:  59    -0.333952154316E+03   -0.29622E-02   -0.26464E-02 11088   0.224E-01 0.956E-02
CGA:  60    -0.333956842439E+03   -0.46881E-02   -0.62425E-02 11088   0.126E+00-0.109E-01
CGA:  61    -0.333957951942E+03   -0.11095E-02   -0.80546E-03 11088   0.190E+00 0.228E-01
CGA:  62    -0.333962974504E+03   -0.50226E-02   -0.67404E-02 11088   0.371E+00-0.207E-01
CGA:  63    -0.333967666836E+03   -0.46923E-02   -0.29657E-02 11088   0.296E+00 0.112E+00
CGA:  64    -0.333976094322E+03   -0.84275E-02   -0.62424E-02 11088   0.370E+00 0.466E-01
CGA:  65    -0.333983781096E+03   -0.76868E-02   -0.52594E-02 11088   0.500E+00-0.180E-01
CGA:  66    -0.333989026836E+03   -0.52457E-02   -0.31028E-02 11088   0.550E+00 0.625E-01
CGA:  67    -0.333995163463E+03   -0.61366E-02   -0.34422E-02 11088   0.527E+00 0.210E+00
CGA:  68    -0.334001587276E+03   -0.64238E-02   -0.40713E-02 11088   0.451E+00 0.191E+00
CGA:  69    -0.334006162268E+03   -0.45750E-02   -0.33233E-02 11088   0.373E+00 0.761E-01
CGA:  70    -0.334009024806E+03   -0.28625E-02   -0.22144E-02 11088   0.317E+00 0.144E-01
CGA:  71    -0.334011064342E+03   -0.20395E-02   -0.16298E-02 11088   0.277E+00-0.917E-02
CGA:  72    -0.334012707410E+03   -0.16431E-02   -0.13317E-02 11088   0.251E+00-0.149E-01
CGA:  73    -0.334014165894E+03   -0.14585E-02   -0.11822E-02 11088   0.235E+00-0.125E-01
CGA:  74    -0.334015565138E+03   -0.13992E-02   -0.11323E-02 11088   0.230E+00-0.828E-02
CGA:  75    -0.334016980262E+03   -0.14151E-02   -0.11551E-02 11088   0.235E+00-0.637E-02
CGA:  76    -0.334018462836E+03   -0.14826E-02   -0.12323E-02 11088   0.255E+00-0.739E-02
CGA:  77    -0.334020075128E+03   -0.16123E-02   -0.13751E-02 11088   0.292E+00-0.114E-01
CGA:  78    -0.334021889661E+03   -0.18145E-02   -0.15819E-02 11088   0.345E+00-0.158E-01
CGA:  79    -0.334023999538E+03   -0.21099E-02   -0.18594E-02 11088   0.407E+00-0.181E-01
CGA:  80    -0.334026472025E+03   -0.24725E-02   -0.21755E-02 11088   0.465E+00-0.161E-01
CGA:  81    -0.334029281242E+03   -0.28092E-02   -0.24630E-02 11088   0.502E+00-0.120E-01
CGA:  82    -0.334032271257E+03   -0.29900E-02   -0.26335E-02 11088   0.508E+00-0.109E-01
CGA:  83    -0.334035231131E+03   -0.29599E-02   -0.26430E-02 11088   0.487E+00-0.143E-01
SDA:  84    -0.334038006359E+03   -0.27752E-02   -0.25318E-02 11088   0.446E+00-0.206E-01
CGA:  85    -0.334073922338E+03   -0.35916E-01   -0.34758E-01 11088   0.106E+00 0.224E-01
CGA:  86    -0.334098205214E+03   -0.24283E-01   -0.31035E-02 11088   0.602E-01 0.194E-01
CGA:  87    -0.334111822709E+03   -0.13617E-01   -0.12291E-01 11088   0.306E+00-0.867E-01
CGA:  88    -0.334131709860E+03   -0.19887E-01   -0.19837E-01 11088   0.679E-01 0.570E-02
CGA:  89    -0.334140229783E+03   -0.85199E-02    0.99924E-01 11088   0.580E-01 0.644E-01
CGA:  90    -0.334148322070E+03   -0.80923E-02   -0.14492E-02 11088   0.499E+00-0.474E-01
CGA:  91    -0.334177895793E+03   -0.29574E-01   -0.29076E-01 11088   0.310E-01 0.925E-02
CGA:  92    -0.334184670177E+03   -0.67744E-02   -0.10241E-01 11088   0.196E+00-0.163E-01
CGA:  93    -0.334195348703E+03   -0.10679E-01   -0.11238E-01 11088   0.224E-01-0.987E-02
CGA:  94    -0.334199547490E+03   -0.41988E-02   -0.43394E-02 11088   0.446E-01-0.110E-02
CGA:  95    -0.334208177592E+03   -0.86301E-02   -0.16563E-01 11088   0.823E-01-0.251E-01
CGA:  96    -0.334214383423E+03   -0.62058E-02   -0.62820E-02 11088   0.166E-01 0.469E-03
CGA:  97    -0.334215709700E+03   -0.13263E-02   -0.13455E-02 11088   0.489E-02 0.384E-04
CGA:  98    -0.334216508116E+03   -0.79842E-03   -0.76867E-03 11088   0.128E-02 0.102E-02
CGA:  99    -0.334217071131E+03   -0.56302E-03   -0.45101E-03 11088   0.240E-02 0.699E-03
CGA: 100    -0.334217255685E+03   -0.18455E-03   -0.19891E-03 11088   0.126E-02 0.256E-03
CGA: 101    -0.334217568260E+03   -0.31258E-03   -0.28151E-03 11088   0.180E-02 0.456E-03
CGA: 102    -0.334219040302E+03   -0.14720E-02   -0.13921E-02 11088   0.707E-02 0.204E-03
CGA: 103    -0.334219568068E+03   -0.52777E-03   -0.35404E-03 11088   0.544E-02 0.271E-02
CGA: 104    -0.334220190502E+03   -0.62243E-03   -0.47330E-03 11088   0.844E-02-0.940E-03
CGA: 105    -0.334225654828E+03   -0.54643E-02   -0.17580E-02 11088   0.156E+00 0.243E-01
CGA: 106    -0.334243944808E+03   -0.18290E-01   -0.18262E-01 11088   0.489E-01-0.291E-02
CGA: 107    -0.334278940086E+03   -0.34995E-01   -0.96250E-04 11088   0.250E+00-0.134E-01
CGA: 108    -0.334301607956E+03   -0.22668E-01   -0.18293E-01 11088   0.196E+00-0.152E-01
CGA: 109    -0.334315531184E+03   -0.13923E-01   -0.16266E-01 11088   0.117E+00-0.391E-01
CGA: 110    -0.334326730916E+03   -0.11200E-01   -0.11612E-01 11088   0.940E-01-0.254E-02
CGA: 111    -0.334334883253E+03   -0.81523E-02   -0.81121E-02 11088   0.400E-01 0.417E-02
CGA: 112    -0.334339909852E+03   -0.50266E-02   -0.51225E-02 11088   0.452E-01 0.183E-02
CGA: 113    -0.334346570150E+03   -0.66603E-02   -0.66604E-02 11088   0.399E-01 0.508E-03
CGA: 114    -0.334350575566E+03   -0.40054E-02   -0.42811E-02 11088   0.212E-01-0.182E-02
CGA: 115    -0.334353886489E+03   -0.33109E-02   -0.33364E-02 11088   0.204E-01-0.857E-04
CGA: 116    -0.334356753861E+03   -0.28674E-02   -0.28297E-02 11088   0.946E-02 0.150E-03
CGA: 117    -0.334358186758E+03   -0.14329E-02   -0.13963E-02 11088   0.814E-02-0.357E-03
CGA: 118    -0.334359915920E+03   -0.17292E-02   -0.17404E-02 11088   0.719E-02-0.204E-02
CGA: 119    -0.334360815960E+03   -0.90004E-03   -0.71420E-03 11088   0.427E-02-0.221E-02
CGA: 120    -0.334361002633E+03   -0.18667E-03   -0.11934E-02 11088   0.133E-01-0.527E-02
CGA: 121    -0.334362374638E+03   -0.13720E-02   -0.15695E-02 11088   0.257E-02 0.197E-02
CGA: 122    -0.334362690435E+03   -0.31580E-03   -0.42439E-03 11088   0.115E-02 0.149E-02
CGA: 123    -0.334362962793E+03   -0.27236E-03   -0.26882E-03 11088   0.934E-03 0.171E-03
CGA: 124    -0.334363129192E+03   -0.16640E-03   -0.18554E-03 11088   0.220E-03 0.468E-03
CGA: 125    -0.334363136371E+03   -0.71787E-05   -0.23476E-04 11088   0.143E-03 0.155E-03
CGA: 126    -0.334363177418E+03   -0.41048E-04   -0.36034E-04 11088   0.976E-04 0.111E-03
CGA: 127    -0.334363229174E+03   -0.51756E-04    0.38393E-04 11088   0.754E-04 0.796E-04
CGA: 128    -0.334363266411E+03   -0.37237E-04   -0.29149E-04 11088   0.756E-04 0.459E-04
CGA: 129    -0.334363308587E+03   -0.42177E-04    0.29601E-04 11088   0.107E-03-0.789E-05
CGA: 130    -0.334363373711E+03   -0.65124E-04    0.18668E-04 11088   0.703E-04 0.674E-04
CGA: 131    -0.334363371714E+03    0.19967E-05   -0.40338E-05 11088   0.261E-04 0.375E-04
   1 F= -.33436337E+03 E0= -.33436300E+03  d E =-.334363E+03  mag=     6.0005
       N       E                     dE             d eps       ncg     rms          ort
SDA:   1    -0.334372714135E+03   -0.93404E-02    0.00000E+00 11088   0.134E-02 0.000E+00
CGA:   2    -0.334373170377E+03   -0.45624E-03   -0.46261E-03 11088   0.593E-03-0.449E-04
CGA:   3    -0.334373278304E+03   -0.10793E-03   -0.10632E-03 11088   0.291E-03-0.642E-04
CGA:   4    -0.334373321448E+03   -0.43144E-04   -0.41326E-04 11088   0.785E-04-0.361E-04
CGA:   5    -0.334373359038E+03   -0.37590E-04    0.22235E-04 11088   0.381E-04-0.466E-05
CGA:   6    -0.334373378111E+03   -0.19073E-04    0.13039E-04 11088   0.221E-04 0.177E-05
CGA:   7    -0.334373393727E+03   -0.15615E-04    0.38037E-05 11088   0.130E-04 0.781E-05
CGA:   8    -0.334373416642E+03   -0.22915E-04    0.84089E-06 11088   0.840E-05 0.727E-05
CGA:   9    -0.334373424379E+03   -0.77368E-05    0.71058E-06 11088   0.579E-05 0.246E-05
   2 F= -.33437342E+03 E0= -.33437306E+03  d E =-.100527E-01  mag=     6.0005
       N       E                     dE             d eps       ncg     rms          ort
SDA:   1    -0.334259597922E+03    0.11382E+00    0.00000E+00 11088   0.682E+00 0.000E+00
CGA:   2    -0.334485857745E+03   -0.22626E+00   -0.22614E+00 11088   0.271E+00 0.105E-02
CGA:   3    -0.334532945918E+03   -0.47088E-01   -0.47107E-01 11088   0.109E+00-0.153E-03
CGA:   4    -0.334549016340E+03   -0.16070E-01   -0.16087E-01 11088   0.230E-01 0.327E-03
CGA:   5    -0.334553573910E+03   -0.45576E-02   -0.45494E-02 11088   0.898E-02-0.782E-03
CGA:   6    -0.334555143793E+03   -0.15699E-02   -0.15691E-02 11088   0.334E-02-0.305E-04
CGA:   7    -0.334555850347E+03   -0.70655E-03   -0.70532E-03 11088   0.144E-02 0.228E-03
CGA:   8    -0.334556241126E+03   -0.39078E-03   -0.40237E-03 11088   0.884E-03-0.210E-03
CGA:   9    -0.334556370976E+03   -0.12985E-03   -0.13147E-03 11088   0.337E-03 0.470E-04
CGA:  10    -0.334556463841E+03   -0.92865E-04   -0.11756E-03 11088   0.305E-03-0.200E-03
CGA:  11    -0.334556523084E+03   -0.59244E-04   -0.57404E-04 11088   0.100E-03-0.726E-04
CGA:  12    -0.334556539443E+03   -0.16359E-04   -0.16520E-04 11088   0.811E-04-0.414E-04
CGA:  13    -0.334556560080E+03   -0.20637E-04    0.27352E-03 11088   0.248E-04-0.103E-04
CGA:  14    -0.334556586951E+03   -0.26871E-04    0.12034E-05 11088   0.993E-05 0.103E-05
CGA:  15    -0.334556599767E+03   -0.12816E-04    0.57470E-06 11088   0.933E-05-0.274E-05
CGA:  16    -0.334556613687E+03   -0.13920E-04    0.18639E-06 11088   0.550E-05 0.110E-06
CGA:  17    -0.334556633395E+03   -0.19708E-04    0.80741E-07 11088   0.535E-05 0.711E-06
CGA:  18    -0.334556658809E+03   -0.25414E-04    0.72279E-07 11088   0.373E-05 0.480E-06
CGA:  19    -0.334556673963E+03   -0.15154E-04    0.55645E-07 11088   0.231E-05 0.766E-06
CGA:  20    -0.334556688320E+03   -0.14357E-04    0.26495E-07 11088   0.179E-05 0.591E-06
CGA:  21    -0.334556708152E+03   -0.19833E-04    0.12109E-07 11088   0.123E-05 0.323E-06
CGA:  22    -0.334556722434E+03   -0.14281E-04    0.70257E-08 11088   0.725E-06 0.540E-06
CGA:  23    -0.334556729276E+03   -0.68421E-05    0.76711E-08 11088   0.634E-06 0.106E-06
   3 F= -.33455673E+03 E0= -.33455657E+03  d E =-.183305E+00  mag=     6.0002
       N       E                     dE             d eps       ncg     rms          ort
SDA:   1    -0.333817047970E+03    0.73967E+00    0.00000E+00 11088   0.204E+01 0.000E+00
CGA:   2    -0.334468542277E+03   -0.65149E+00   -0.65133E+00 11088   0.898E+00 0.159E-02
CGA:   3    -0.334617714292E+03   -0.14917E+00   -0.14933E+00 11088   0.338E+00 0.110E-02
CGA:   4    -0.334669094364E+03   -0.51380E-01   -0.51407E-01 11088   0.782E-01 0.643E-03
CGA:   5    -0.334683331906E+03   -0.14238E-01   -0.14199E-01 11088   0.282E-01-0.126E-02
CGA:   6    -0.334688538719E+03   -0.52068E-02   -0.51997E-02 11088   0.107E-01-0.308E-03
CGA:   7    -0.334690786511E+03   -0.22478E-02   -0.22462E-02 11088   0.466E-02 0.475E-03
CGA:   8    -0.334691972031E+03   -0.11855E-02   -0.11929E-02 11088   0.226E-02-0.207E-03
CGA:   9    -0.334692398461E+03   -0.42643E-03   -0.42744E-03 11088   0.994E-03 0.769E-04
CGA:  10    -0.334692651418E+03   -0.25296E-03   -0.26755E-03 11088   0.671E-03-0.295E-03
CGA:  11    -0.334692750936E+03   -0.99517E-04   -0.98424E-04 11088   0.374E-03-0.228E-03
CGA:  12    -0.334692805559E+03   -0.54623E-04   -0.55999E-04 11088   0.170E-03-0.985E-04
CGA:  13    -0.334692779198E+03    0.26361E-04   -0.78333E-04 11088   0.804E-03-0.254E-03
CGA:  14    -0.334692883728E+03   -0.10453E-03   -0.10193E-03 11088   0.197E-03-0.228E-04
CGA:  15    -0.334692931737E+03   -0.48009E-04   -0.60388E-04 11088   0.242E-03-0.144E-03
CGA:  16    -0.334692946678E+03   -0.14942E-04   -0.21521E-04 11088   0.374E-04 0.457E-04
CGA:  17    -0.334692952232E+03   -0.55540E-05   -0.64784E-05 11088   0.136E-04 0.115E-04
   4 F= -.33469295E+03 E0= -.33469292E+03  d E =-.136223E+00  mag=     6.0000
       N       E                     dE             d eps       ncg     rms          ort
SDA:   1    -0.334635935334E+03    0.57011E-01    0.00000E+00 11088   0.163E+00 0.000E+00
CGA:   2    -0.334671856758E+03   -0.35921E-01   -0.35922E-01 11088   0.966E-01 0.356E-03
CGA:   3    -0.334688132425E+03   -0.16276E-01   -0.16283E-01 11088   0.340E-01 0.133E-03
CGA:   4    -0.334693207123E+03   -0.50747E-02   -0.50872E-02 11088   0.790E-02 0.173E-03
CGA:   5    -0.334694549157E+03   -0.13420E-02   -0.13342E-02 11088   0.244E-02-0.165E-03
CGA:   6    -0.334695020252E+03   -0.47110E-03   -0.46692E-03 11088   0.990E-03-0.230E-03
CGA:   7    -0.334695185579E+03   -0.16533E-03   -0.16587E-03 11088   0.341E-03 0.198E-04
CGA:   8    -0.334695252135E+03   -0.66555E-04   -0.67439E-04 11088   0.134E-03 0.519E-04
CGA:   9    -0.334695288123E+03   -0.35988E-04   -0.36236E-04 11088   0.861E-04-0.997E-05
CGA:  10    -0.334694829150E+03    0.45897E-03   -0.24769E-03 11088   0.384E-02-0.488E-03
CGA:  11    -0.334695214788E+03   -0.38564E-03   -0.38662E-03 11088   0.609E-03 0.605E-05
CGA:  12    -0.334695344799E+03   -0.13001E-03   -0.12834E-03 11088   0.198E-03-0.103E-04
CGA:  13    -0.334695398814E+03   -0.54015E-04   -0.52435E-04 11088   0.864E-04-0.168E-04
CGA:  14    -0.334695427146E+03   -0.28332E-04   -0.28295E-04 11088   0.165E-03-0.428E-04
CGA:  15    -0.334695435519E+03   -0.83729E-05   -0.77632E-05 11088   0.682E-04-0.221E-05
   5 F= -.33469544E+03 E0= -.33469540E+03  d E =-.248329E-02  mag=     6.0000
       N       E                     dE             d eps       ncg     rms          ort
SDA:   1    -0.334667507452E+03    0.27920E-01    0.00000E+00 11088   0.104E+00 0.000E+00
CGA:   2    -0.334684846696E+03   -0.17339E-01   -0.17378E-01 11088   0.461E-01 0.181E-03
CGA:   3    -0.334694167042E+03   -0.93203E-02   -0.93168E-02 11088   0.222E-01-0.475E-04
CGA:   4    -0.334697402186E+03   -0.32351E-02   -0.32554E-02 11088   0.467E-02 0.107E-03
CGA:   5    -0.334698096056E+03   -0.69387E-03   -0.69913E-03 11088   0.117E-02 0.312E-04
CGA:   6    -0.334698339000E+03   -0.24294E-03   -0.23446E-03 11088   0.426E-03-0.843E-04
CGA:   7    -0.334698412451E+03   -0.73451E-04   -0.73711E-04 11088   0.126E-03 0.224E-05
CGA:   8    -0.334698431344E+03   -0.18893E-04   -0.21801E-04 11088   0.380E-04 0.246E-04
CGA:   9    -0.334698439214E+03   -0.78698E-05   -0.87168E-05 11088   0.151E-04 0.917E-05
CGA:  10    -0.334698376367E+03    0.62846E-04   -0.25780E-04 11088   0.459E-03-0.809E-04
CGA:  11    -0.334698437231E+03   -0.60864E-04   -0.62882E-04 11088   0.109E-03 0.103E-04
CGA:  12    -0.334698459898E+03   -0.22667E-04   -0.20631E-04 11088   0.468E-04-0.146E-04
CGA:  13    -0.334698470354E+03   -0.10457E-04   -0.92184E-05 11088   0.207E-04-0.137E-04
CGA:  14    -0.334698473023E+03   -0.26684E-05   -0.27544E-05 11088   0.822E-05 0.691E-06
   6 F= -.33469847E+03 E0= -.33469844E+03  d E =-.303750E-02  mag=     6.0000
       N       E                     dE             d eps       ncg     rms          ort
SDA:   1    -0.334641405516E+03    0.57065E-01    0.00000E+00 11088   0.199E+00 0.000E+00
CGA:   2    -0.334674827137E+03   -0.33422E-01   -0.33465E-01 11088   0.885E-01 0.206E-03
CGA:   3    -0.334692808672E+03   -0.17982E-01   -0.17968E-01 11088   0.431E-01-0.185E-03
CGA:   4    -0.334698991563E+03   -0.61829E-02   -0.62046E-02 11088   0.903E-02 0.127E-03
CGA:   5    -0.334700309406E+03   -0.13178E-02   -0.13321E-02 11088   0.219E-02 0.103E-03
CGA:   6    -0.334700741277E+03   -0.43187E-03   -0.42559E-03 11088   0.760E-03-0.776E-04
CGA:   7    -0.334700879676E+03   -0.13840E-03   -0.13917E-03 11088   0.223E-03 0.929E-05
CGA:   8    -0.334700915091E+03   -0.35414E-04   -0.39470E-04 11088   0.659E-04 0.446E-04
CGA:   9    -0.334700928848E+03   -0.13757E-04   -0.15139E-04 11088   0.250E-04 0.198E-04
CGA:  10    -0.334700938412E+03   -0.95636E-05   -0.96586E-05 11088   0.171E-04-0.244E-05
   7 F= -.33470094E+03 E0= -.33470091E+03  d E =-.246539E-02  mag=     6.0000
       N       E                     dE             d eps       ncg     rms          ort
SDA:   1    -0.334611296721E+03    0.89632E-01    0.00000E+00 11088   0.323E+00 0.000E+00
CGA:   2    -0.334662521663E+03   -0.51225E-01   -0.51261E-01 11088   0.131E+00 0.154E-03
CGA:   3    -0.334689476076E+03   -0.26954E-01   -0.26940E-01 11088   0.691E-01-0.376E-03
CGA:   4    -0.334699598354E+03   -0.10122E-01   -0.10143E-01 11088   0.146E-01 0.162E-03
CGA:   5    -0.334701680572E+03   -0.20822E-02   -0.21020E-02 11088   0.332E-02 0.191E-03
CGA:   6    -0.334702317397E+03   -0.63682E-03   -0.63277E-03 11088   0.111E-02-0.818E-04
CGA:   7    -0.334702523598E+03   -0.20620E-03   -0.20644E-03 11088   0.314E-03 0.489E-05
CGA:   8    -0.334702574084E+03   -0.50486E-04   -0.54176E-04 11088   0.857E-04 0.590E-04
CGA:   9    -0.334702591731E+03   -0.17647E-04   -0.18889E-04 11088   0.309E-04 0.273E-04
CGA:  10    -0.334702602091E+03   -0.10361E-04   -0.10268E-04 11088   0.164E-04 0.396E-05
CGA:  11    -0.334702605084E+03   -0.29928E-05   -0.33154E-05 11088   0.674E-05 0.642E-05
   8 F= -.33470261E+03 E0= -.33470257E+03  d E =-.166667E-02  mag=     6.0000
       N       E                     dE             d eps       ncg     rms          ort
SDA:   1    -0.333877657614E+03    0.82494E+00    0.00000E+00 11088   0.290E+01 0.000E+00
CGA:   2    -0.334339024527E+03   -0.46137E+00   -0.46190E+00 11088   0.119E+01 0.270E-02
CGA:   3    -0.334582453075E+03   -0.24343E+00   -0.24337E+00 11088   0.622E+00-0.345E-02
CGA:   4    -0.334673892369E+03   -0.91439E-01   -0.91490E-01 11088   0.132E+00 0.117E-03
CGA:   5    -0.334692877667E+03   -0.18985E-01   -0.19092E-01 11088   0.301E-01 0.140E-02
CGA:   6    -0.334698423467E+03   -0.55458E-02   -0.55501E-02 11088   0.952E-02 0.130E-03
CGA:   7    -0.334700258303E+03   -0.18348E-02   -0.18380E-02 11088   0.276E-02 0.159E-03
CGA:   8    -0.334700784821E+03   -0.52652E-03   -0.53231E-03 11088   0.848E-03 0.277E-03
CGA:   9    -0.334700993416E+03   -0.20859E-03   -0.20753E-03 11088   0.360E-03 0.816E-04
CGA:  10    -0.334701077840E+03   -0.84424E-04   -0.84313E-04 11088   0.185E-03 0.298E-04
CGA:  11    -0.334701105588E+03   -0.27749E-04   -0.30812E-04 11088   0.624E-04 0.543E-04
CGA:  12    -0.334701113250E+03   -0.76613E-05   -0.10776E-04 11088   0.272E-04 0.420E-04
   9 F= -.33470111E+03 E0= -.33470108E+03  d E =0.149183E-02  mag=     6.0000
       N       E                     dE             d eps       ncg     rms          ort
SDA:   1    -0.334470154078E+03    0.23095E+00    0.00000E+00 11088   0.656E+00 0.000E+00
CGA:   2    -0.334603530111E+03   -0.13338E+00   -0.13337E+00 11088   0.345E+00 0.548E-03
CGA:   3    -0.334666078589E+03   -0.62548E-01   -0.62530E-01 11088   0.136E+00-0.900E-03
CGA:   4    -0.334685801712E+03   -0.19723E-01   -0.19745E-01 11088   0.322E-01 0.320E-03
CGA:   5    -0.334690781139E+03   -0.49794E-02   -0.49921E-02 11088   0.857E-02 0.284E-03
CGA:   6    -0.334692397520E+03   -0.16164E-02   -0.16162E-02 11088   0.290E-02-0.269E-04
CGA:   7    -0.334692939268E+03   -0.54175E-03   -0.54338E-03 11088   0.959E-03 0.230E-03
CGA:   8    -0.334693142746E+03   -0.20348E-03   -0.20314E-03 11088   0.347E-03 0.211E-03
CGA:   9    -0.334693221520E+03   -0.78774E-04   -0.79656E-04 11088   0.142E-03 0.130E-03
CGA:  10    -0.334693254680E+03   -0.33160E-04   -0.34486E-04 11088   0.609E-04 0.760E-04
CGA:  11    -0.334693263952E+03   -0.92717E-05   -0.10124E-04 11088   0.287E-04 0.311E-04
  10 F= -.33469326E+03 E0= -.33469323E+03  d E =0.784930E-02  mag=     6.0000
       N       E                     dE             d eps       ncg     rms          ort
SDA:   1    -0.334631011100E+03    0.62244E-01    0.00000E+00 11088   0.193E+00 0.000E+00
CGA:   2    -0.334673947353E+03   -0.42936E-01   -0.42923E-01 11088   0.109E+00 0.313E-03
CGA:   3    -0.334693450450E+03   -0.19503E-01   -0.19502E-01 11088   0.397E-01-0.101E-03
CGA:   4    -0.334699184247E+03   -0.57338E-02   -0.57262E-02 11088   0.944E-02-0.186E-03
CGA:   5    -0.334700653851E+03   -0.14696E-02   -0.14720E-02 11088   0.263E-02 0.789E-04
CGA:   6    -0.334701134751E+03   -0.48090E-03   -0.48125E-03 11088   0.838E-03 0.107E-03
CGA:   7    -0.334701336553E+03   -0.20180E-03   -0.20658E-03 11088   0.404E-03-0.916E-04
CGA:   8    -0.334701430694E+03   -0.94141E-04   -0.11366E-03 11088   0.307E-03-0.152E-03
CGA:   9    -0.334701473585E+03   -0.42891E-04   -0.45839E-04 11088   0.130E-03-0.649E-04
CGA:  10    -0.334701486107E+03   -0.12522E-04   -0.14473E-04 11088   0.534E-04 0.357E-04
CGA:  11    -0.334701492278E+03   -0.61709E-05   -0.81694E-05 11088   0.211E-04 0.272E-04
  11 F= -.33470149E+03 E0= -.33470146E+03  d E =-.822833E-02  mag=     6.0000
       N       E                     dE             d eps       ncg     rms          ort
SDA:   1    -0.334693939879E+03    0.75462E-02    0.00000E+00 11088   0.273E-01 0.000E+00
CGA:   2    -0.334698362088E+03   -0.44222E-02   -0.44196E-02 11088   0.118E-01-0.837E-04
CGA:   3    -0.334700731327E+03   -0.23692E-02   -0.23688E-02 11088   0.587E-02 0.779E-04
CGA:   4    -0.334701621440E+03   -0.89011E-03   -0.88583E-03 11088   0.120E-02-0.947E-04
CGA:   5    -0.334701796550E+03   -0.17511E-03   -0.17450E-03 11088   0.298E-03-0.134E-04
CGA:   6    -0.334701838825E+03   -0.42275E-04   -0.44215E-04 11088   0.802E-04 0.457E-04
CGA:   7    -0.334701857491E+03   -0.18666E-04   -0.18617E-04 11088   0.268E-04 0.437E-05
CGA:   8    -0.334701851419E+03    0.60722E-05   -0.16961E-04 11088   0.176E-03-0.562E-04
CGA:   9    -0.334701868749E+03   -0.17331E-04   -0.18856E-04 11088   0.225E-04 0.146E-04
CGA:  10    -0.334701870529E+03   -0.17800E-05   -0.26760E-05 11088   0.654E-05 0.929E-05
  12 F= -.33470187E+03 E0= -.33470183E+03  d E =-.378252E-03  mag=     6.0000
       N       E                     dE             d eps       ncg     rms          ort
SDA:   1    -0.334672842709E+03    0.29026E-01    0.00000E+00 11088   0.908E-01 0.000E+00
CGA:   2    -0.334689828989E+03   -0.16986E-01   -0.16990E-01 11088   0.452E-01 0.307E-03
CGA:   3    -0.334698534254E+03   -0.87053E-02   -0.87047E-02 11088   0.186E-01-0.154E-03
CGA:   4    -0.334701202680E+03   -0.26684E-02   -0.26615E-02 11088   0.399E-02-0.141E-03
CGA:   5    -0.334701802475E+03   -0.59980E-03   -0.59987E-03 11088   0.101E-02 0.498E-06
CGA:   6    -0.334701972654E+03   -0.17018E-03   -0.17148E-03 11088   0.285E-03 0.615E-04
CGA:   7    -0.334702031037E+03   -0.58383E-04   -0.58323E-04 11088   0.869E-04 0.214E-04
CGA:   8    -0.334702055939E+03   -0.24902E-04   -0.27427E-04 11088   0.640E-04-0.245E-04
CGA:   9    -0.334702062499E+03   -0.65602E-05   -0.68762E-05 11088   0.272E-04 0.691E-05
  13 F= -.33470206E+03 E0= -.33470203E+03  d E =-.191970E-03  mag=     6.0000
       N       E                     dE             d eps       ncg     rms          ort
SDA:   1    -0.334568537470E+03    0.13352E+00    0.00000E+00 11088   0.399E+00 0.000E+00
CGA:   2    -0.334646458557E+03   -0.77921E-01   -0.77919E-01 11088   0.219E+00 0.203E-03
CGA:   3    -0.334687180257E+03   -0.40722E-01   -0.40722E-01 11088   0.835E-01 0.577E-04
CGA:   4    -0.334698722188E+03   -0.11542E-01   -0.11543E-01 11088   0.163E-01-0.373E-05
CGA:   5    -0.334701206743E+03   -0.24846E-02   -0.24887E-02 11088   0.432E-02 0.116E-03
CGA:   6    -0.334701979910E+03   -0.77317E-03   -0.77446E-03 11088   0.131E-02 0.172E-03
CGA:   7    -0.334702237146E+03   -0.25724E-03   -0.25695E-03 11088   0.400E-03 0.656E-04
CGA:   8    -0.334702323254E+03   -0.86109E-04   -0.85666E-04 11088   0.170E-03 0.234E-04
CGA:   9    -0.334702354327E+03   -0.31073E-04   -0.31471E-04 11088   0.723E-04 0.338E-04
CGA:  10    -0.334702366356E+03   -0.12028E-04   -0.13136E-04 11088   0.248E-04 0.327E-04
CGA:  11    -0.334702369908E+03   -0.35524E-05   -0.46495E-05 11088   0.127E-04 0.200E-04
  14 F= -.33470237E+03 E0= -.33470234E+03  d E =-.307409E-03  mag=     6.0000
       N       E                     dE             d eps       ncg     rms          ort
SDA:   1    -0.333915430857E+03    0.78694E+00    0.00000E+00 11088   0.218E+01 0.000E+00
CGA:   2    -0.334393121455E+03   -0.47769E+00   -0.47759E+00 11088   0.132E+01 0.179E-02
CGA:   3    -0.334621110897E+03   -0.22799E+00   -0.22799E+00 11088   0.430E+00-0.211E-03
CGA:   4    -0.334680194004E+03   -0.59083E-01   -0.59087E-01 11088   0.861E-01-0.817E-04
CGA:   5    -0.334693733646E+03   -0.13540E-01   -0.13545E-01 11088   0.237E-01 0.275E-03
CGA:   6    -0.334698064448E+03   -0.43308E-02   -0.43286E-02 11088   0.729E-02 0.339E-03
CGA:   7    -0.334699479655E+03   -0.14152E-02   -0.14122E-02 11088   0.236E-02 0.200E-03
CGA:   8    -0.334699991412E+03   -0.51176E-03   -0.50831E-03 11088   0.106E-02 0.105E-03
CGA:   9    -0.334700203817E+03   -0.21240E-03   -0.21092E-03 11088   0.506E-03 0.119E-03
CGA:  10    -0.334700308918E+03   -0.10510E-03   -0.10446E-03 11088   0.181E-03 0.945E-04
CGA:  11    -0.334700357370E+03   -0.48452E-04   -0.46583E-04 11088   0.590E-04 0.496E-04
CGA:  12    -0.334700365868E+03   -0.84980E-05   -0.10355E-04 11088   0.266E-04 0.428E-04
  15 F= -.33470037E+03 E0= -.33470033E+03  d E =0.200404E-02  mag=     6.0000
       N       E                     dE             d eps       ncg     rms          ort
SDA:   1    -0.334441367650E+03    0.25899E+00    0.00000E+00 11088   0.858E+00 0.000E+00
CGA:   2    -0.334589633292E+03   -0.14827E+00   -0.14829E+00 11088   0.397E+00 0.185E-02
CGA:   3    -0.334668614598E+03   -0.78981E-01   -0.78994E-01 11088   0.182E+00-0.835E-03
CGA:   4    -0.334694844659E+03   -0.26230E-01   -0.26234E-01 11088   0.397E-01 0.135E-04
CGA:   5    -0.334700850152E+03   -0.60055E-02   -0.60155E-02 11088   0.103E-01 0.336E-03
CGA:   6    -0.334702805941E+03   -0.19558E-02   -0.19574E-02 11088   0.338E-02-0.182E-03
CGA:   7    -0.334703462750E+03   -0.65681E-03   -0.65844E-03 11088   0.113E-02-0.842E-04
CGA:   8    -0.334703691051E+03   -0.22830E-03   -0.22701E-03 11088   0.409E-03 0.479E-04
CGA:   9    -0.334703800995E+03   -0.10994E-03   -0.11868E-03 11088   0.295E-03-0.899E-04
CGA:  10    -0.334703849079E+03   -0.48085E-04   -0.53283E-04 11088   0.236E-03-0.114E-03
CGA:  11    -0.334703878444E+03   -0.29365E-04   -0.34676E-04 11088   0.129E-03-0.103E-03
CGA:  12    -0.334703907928E+03   -0.29484E-04    0.10561E-03 11088   0.480E-04-0.574E-05
CGA:  13    -0.334703768500E+03    0.13943E-03   -0.75369E-04 11088   0.857E-03-0.191E-03
CGA:  14    -0.334703920739E+03   -0.15224E-03   -0.15588E-03 11088   0.236E-03 0.217E-04
CGA:  15    -0.334703955285E+03   -0.34546E-04   -0.32728E-04 11088   0.536E-04-0.870E-05
CGA:  16    -0.334703962932E+03   -0.76467E-05   -0.92083E-05 11088   0.793E-05 0.103E-04
  16 F= -.33470396E+03 E0= -.33470391E+03  d E =-.359706E-02  mag=     6.0000
       N       E                     dE             d eps       ncg     rms          ort
SDA:   1    -0.334656243748E+03    0.47712E-01    0.00000E+00 11088   0.134E+00 0.000E+00
CGA:   2    -0.334687672626E+03   -0.31429E-01   -0.31426E-01 11088   0.785E-01-0.109E-03
CGA:   3    -0.334701019588E+03   -0.13347E-01   -0.13348E-01 11088   0.262E-01 0.184E-04
CGA:   4    -0.334704792469E+03   -0.37729E-02   -0.37934E-02 11088   0.613E-02 0.118E-03
CGA:   5    -0.334705786536E+03   -0.99407E-03   -0.99525E-03 11088   0.176E-02 0.842E-05
CGA:   6    -0.334706119145E+03   -0.33261E-03   -0.33133E-03 11088   0.609E-03-0.136E-04
CGA:   7    -0.334706230678E+03   -0.11153E-03   -0.11530E-03 11088   0.219E-03 0.419E-04
CGA:   8    -0.334706280103E+03   -0.49426E-04   -0.50838E-04 11088   0.957E-04 0.240E-04
CGA:   9    -0.334706297101E+03   -0.16998E-04   -0.19011E-04 11088   0.402E-04 0.214E-04
CGA:  10    -0.334706305689E+03   -0.85873E-05   -0.93921E-05 11088   0.147E-04 0.104E-04
  17 F= -.33470631E+03 E0= -.33470627E+03  d E =-.234276E-02  mag=     6.0000
       N       E                     dE             d eps       ncg     rms          ort
SDA:   1    -0.334669868538E+03    0.36429E-01    0.00000E+00 11088   0.959E-01 0.000E+00
CGA:   2    -0.334694645372E+03   -0.24777E-01   -0.24776E-01 11088   0.635E-01-0.403E-03
CGA:   3    -0.334704484604E+03   -0.98392E-02   -0.98497E-02 11088   0.162E-01 0.960E-04
CGA:   4    -0.334706681975E+03   -0.21974E-02   -0.22127E-02 11088   0.330E-02 0.119E-03
CGA:   5    -0.334707208041E+03   -0.52607E-03   -0.53286E-03 11088   0.936E-03 0.753E-04
CGA:   6    -0.334707369639E+03   -0.16160E-03   -0.16660E-03 11088   0.257E-03 0.694E-04
CGA:   7    -0.334707424769E+03   -0.55131E-04   -0.55402E-04 11088   0.887E-04 0.647E-05
CGA:   8    -0.334707445153E+03   -0.20383E-04   -0.20373E-04 11088   0.463E-04-0.621E-06
CGA:   9    -0.334707449343E+03   -0.41907E-05   -0.60155E-05 11088   0.177E-04 0.168E-04
  18 F= -.33470745E+03 E0= -.33470742E+03  d E =-.114365E-02  mag=     6.0000
       N       E                     dE             d eps       ncg     rms          ort
SDA:   1    -0.333322445598E+03    0.13850E+01    0.00000E+00 11088   0.345E+01 0.000E+00
CGA:   2    -0.334277305786E+03   -0.95486E+00   -0.95482E+00 11088   0.223E+01-0.230E-03
CGA:   3    -0.334609715576E+03   -0.33241E+00   -0.33246E+00 11088   0.537E+00 0.591E-03
CGA:   4    -0.334683681255E+03   -0.73966E-01   -0.73992E-01 11088   0.113E+00-0.233E-04
CGA:   5    -0.334702388928E+03   -0.18708E-01   -0.18723E-01 11088   0.334E-01 0.259E-03
CGA:   6    -0.334708443089E+03   -0.60542E-02   -0.60681E-02 11088   0.954E-02 0.365E-03
CGA:   7    -0.334710338980E+03   -0.18959E-02   -0.18950E-02 11088   0.324E-02-0.466E-04
CGA:   8    -0.334711039852E+03   -0.70087E-03   -0.70072E-03 11088   0.152E-02 0.742E-04
CGA:   9    -0.334711357558E+03   -0.31771E-03   -0.31869E-03 11088   0.787E-03 0.930E-04
CGA:  10    -0.334711518143E+03   -0.16058E-03   -0.16193E-03 11088   0.306E-03 0.636E-04
CGA:  11    -0.334711597387E+03   -0.79244E-04   -0.78765E-04 11088   0.104E-03 0.201E-04
CGA:  12    -0.334711618013E+03   -0.20627E-04   -0.21254E-04 11088   0.367E-04 0.277E-04
CGA:  13    -0.334711631193E+03   -0.13180E-04   -0.13574E-04 11088   0.302E-04-0.509E-05
CGA:  14    -0.334711636224E+03   -0.50305E-05   -0.50724E-05 11088   0.211E-04 0.168E-05
  19 F= -.33471164E+03 E0= -.33471160E+03  d E =-.418688E-02  mag=     6.0000
       N       E                     dE             d eps       ncg     rms          ort
SDA:   1    -0.323546537010E+03    0.11165E+02    0.00000E+00 11088   0.265E+02 0.000E+00
CGA:   2    -0.332058600510E+03   -0.85121E+01   -0.85025E+01 11088   0.138E+02 0.644E-01
CGA:   3    -0.334011374403E+03   -0.19528E+01   -0.19551E+01 11088   0.341E+01 0.121E-01
CGA:   4    -0.334507265571E+03   -0.49589E+00   -0.49577E+00 11088   0.797E+00-0.244E-02
CGA:   5    -0.334642235148E+03   -0.13497E+00   -0.13493E+00 11088   0.246E+00-0.769E-03
CGA:   6    -0.334686684957E+03   -0.44450E-01   -0.44489E-01 11088   0.753E-01 0.117E-02
CGA:   7    -0.334702200707E+03   -0.15516E-01   -0.15511E-01 11088   0.301E-01-0.857E-03
CGA:   8    -0.334708867797E+03   -0.66671E-02   -0.66629E-02 11088   0.153E-01 0.316E-03
CGA:   9    -0.334712242918E+03   -0.33751E-02   -0.33753E-02 11088   0.809E-02-0.359E-04
CGA:  10    -0.334713910512E+03   -0.16676E-02   -0.16672E-02 11088   0.327E-02-0.808E-04
CGA:  11    -0.334714661809E+03   -0.75130E-03   -0.75593E-03 11088   0.127E-02-0.210E-03
CGA:  12    -0.334714901790E+03   -0.23998E-03   -0.23927E-03 11088   0.554E-03-0.613E-04
CGA:  13    -0.334715030871E+03   -0.12908E-03   -0.13354E-03 11088   0.345E-03-0.108E-03
CGA:  14    -0.334714655597E+03    0.37527E-03   -0.27015E-03 11088   0.549E-02-0.853E-03
CGA:  15    -0.334715152792E+03   -0.49719E-03   -0.52845E-03 11088   0.749E-03 0.209E-03
CGA:  16    -0.334715338827E+03   -0.18603E-03   -0.18641E-03 11088   0.156E-03 0.797E-04
CGA:  17    -0.334715438753E+03   -0.99927E-04    0.11363E-03 11088   0.130E-03-0.280E-05
CGA:  18    -0.334715464292E+03   -0.25538E-04   -0.25305E-04 11088   0.555E-04-0.512E-05
CGA:  19    -0.334715471374E+03   -0.70823E-05   -0.90077E-05 11088   0.330E-04 0.262E-04
  20 F= -.33471547E+03 E0= -.33471545E+03  d E =-.383515E-02  mag=     6.0000
       N       E                     dE             d eps       ncg     rms          ort
SDA:   1    -0.302467418451E+03    0.32248E+02    0.00000E+00 11088   0.202E+03 0.000E+00
CGA:   2    -0.318844311562E+03   -0.16377E+02   -0.28576E+02 11088   0.565E+02 0.961E+01
CGA:   3    -0.328703813096E+03   -0.98595E+01   -0.77072E+01 11088   0.157E+02 0.129E+02
CGA:   4    -0.331826608861E+03   -0.31228E+01   -0.29944E+01 11088   0.347E+02-0.113E+01
CGA:   5    -0.333313837672E+03   -0.14872E+01   -0.15840E+01 11088   0.115E+02-0.252E+01
CGA:   6    -0.333742507011E+03   -0.42867E+00   -0.94915E+00 11088   0.701E+01-0.216E+01
CGA:   7    -0.334172249422E+03   -0.42974E+00   -0.36100E+00 11088   0.191E+01 0.103E+01
CGA:   8    -0.334283253160E+03   -0.11100E+00   -0.74294E-01 11088   0.951E+00 0.105E+01
CGA:   9    -0.334514330470E+03   -0.23108E+00   -0.23387E+00 11088   0.965E+00-0.382E-01
CGA:  10    -0.334612498859E+03   -0.98168E-01   -0.11308E+00 11088   0.207E+00-0.148E-02
CGA:  11    -0.334641516995E+03   -0.29018E-01   -0.29017E-01 11088   0.551E-01 0.336E-03
CGA:  12    -0.334655170499E+03   -0.13654E-01   -0.13702E-01 11088   0.276E-01-0.502E-03
CGA:  13    -0.334662166242E+03   -0.69957E-02   -0.69044E-02 11088   0.139E-01 0.124E-02
CGA:  14    -0.334665074952E+03   -0.29087E-02   -0.29119E-02 11088   0.728E-02-0.709E-03
CGA:  15    -0.334666738817E+03   -0.16639E-02   -0.16896E-02 11088   0.281E-02-0.527E-03
CGA:  16    -0.334667199085E+03   -0.46027E-03   -0.47227E-03 11088   0.782E-03 0.702E-03
CGA:  17    -0.334667474619E+03   -0.27553E-03   -0.28881E-03 11088   0.592E-03-0.136E-03
CGA:  18    -0.334666640242E+03    0.83438E-03   -0.49527E-03 11088   0.830E-02-0.164E-02
CGA:  19    -0.334667446689E+03   -0.80645E-03   -0.91278E-03 11088   0.149E-02 0.829E-03
CGA:  20    -0.334667811514E+03   -0.36482E-03   -0.36880E-03 11088   0.405E-03 0.355E-03
CGA:  21    -0.334667534935E+03    0.27658E-03   -0.34467E-03 11088   0.635E-02-0.138E-02
CGA:  22    -0.334667988888E+03   -0.45395E-03   -0.57895E-03 11088   0.402E-03 0.767E-03
CGA:  23    -0.334668014903E+03   -0.26015E-04   -0.52363E-04 11088   0.186E-03 0.197E-03
CGA:  24    -0.334668077685E+03   -0.62782E-04   -0.62565E-04 11088   0.887E-04-0.125E-04
CGA:  25    -0.334668171538E+03   -0.93853E-04    0.75013E-05 11088   0.757E-04-0.595E-04
CGA:  26    -0.334668168258E+03    0.32802E-05   -0.53706E-05 11088   0.371E-04 0.504E-04
  21 F= -.33466817E+03 E0= -.33466813E+03  d E =0.473031E-01  mag=     6.0003
       N       E                     dE             d eps       ncg     rms          ort
SDA:   1    -0.325239561064E+03    0.94286E+01    0.00000E+00 11088   0.233E+02 0.000E+00
CGA:   2    -0.331971148320E+03   -0.67316E+01   -0.67270E+01 11088   0.138E+02 0.477E-01
CGA:   3    -0.334042825002E+03   -0.20717E+01   -0.20683E+01 11088   0.342E+01 0.804E-02
CGA:   4    -0.334533337705E+03   -0.49051E+00   -0.49032E+00 11088   0.792E+00-0.320E-02
CGA:   5    -0.334663601630E+03   -0.13026E+00   -0.13028E+00 11088   0.244E+00 0.296E-03
CGA:   6    -0.334707919976E+03   -0.44318E-01   -0.44343E-01 11088   0.774E-01 0.617E-03
CGA:   7    -0.334723260170E+03   -0.15340E-01   -0.15331E-01 11088   0.301E-01-0.510E-03
CGA:   8    -0.334729757321E+03   -0.64972E-02   -0.64971E-02 11088   0.149E-01 0.152E-03
CGA:   9    -0.334733031561E+03   -0.32742E-02   -0.32750E-02 11088   0.763E-02-0.359E-03
CGA:  10    -0.334734645956E+03   -0.16144E-02   -0.16143E-02 11088   0.313E-02-0.328E-03
CGA:  11    -0.334735271238E+03   -0.62528E-03   -0.62514E-03 11088   0.105E-02-0.161E-04
CGA:  12    -0.334735486533E+03   -0.21530E-03   -0.21509E-03 11088   0.386E-03-0.211E-04
CGA:  13    -0.334735552299E+03   -0.65766E-04   -0.67262E-04 11088   0.125E-03 0.393E-04
CGA:  14    -0.334735590575E+03   -0.38276E-04   -0.37957E-04 11088   0.653E-04 0.490E-05
CGA:  15    -0.334735611793E+03   -0.21219E-04   -0.20381E-04 11088   0.499E-04 0.987E-05
CGA:  16    -0.334735631142E+03   -0.19349E-04   -0.19190E-04 11088   0.619E-04 0.872E-06
CGA:  17    -0.334735646774E+03   -0.15632E-04   -0.15517E-04 11088   0.411E-04 0.522E-05
CGA:  18    -0.334735657984E+03   -0.11210E-04   -0.10929E-04 11088   0.202E-04 0.157E-04
CGA:  19    -0.334735666223E+03   -0.82388E-05   -0.21139E-04 11088   0.754E-04-0.253E-04
CGA:  20    -0.334735675428E+03   -0.92055E-05   -0.10395E-04 11088   0.273E-04 0.101E-04
  22 F= -.33473568E+03 E0= -.33473566E+03  d E =-.675072E-01  mag=     6.0000
       N       E                     dE             d eps       ncg     rms          ort
SDA:   1    -0.325921111792E+03    0.88146E+01    0.00000E+00 11088   0.217E+02 0.000E+00
CGA:   2    -0.331465262730E+03   -0.55442E+01   -0.55426E+01 11088   0.123E+02 0.102E+00
CGA:   3    -0.333472058974E+03   -0.20068E+01   -0.20005E+01 11088   0.403E+01 0.169E-01
CGA:   4    -0.334114167977E+03   -0.64211E+00   -0.64313E+00 11088   0.112E+01-0.561E-02
CGA:   5    -0.334297655235E+03   -0.18349E+00   -0.18339E+00 11088   0.330E+00-0.289E-02
CGA:   6    -0.334360089237E+03   -0.62434E-01   -0.62351E-01 11088   0.126E+00-0.202E-02
CGA:   7    -0.334388112263E+03   -0.28023E-01   -0.28005E-01 11088   0.588E-01-0.201E-02
CGA:   8    -0.334401448345E+03   -0.13336E-01   -0.13335E-01 11088   0.256E-01-0.403E-03
CGA:   9    -0.334407350605E+03   -0.59023E-02   -0.59020E-02 11088   0.127E-01-0.188E-02
CGA:  10    -0.334409857782E+03   -0.25072E-02   -0.24756E-02 11088   0.556E-02-0.147E-02
CGA:  11    -0.334410940286E+03   -0.10825E-02   -0.10683E-02 11088   0.231E-02-0.102E-02
CGA:  12    -0.334411409302E+03   -0.46902E-03   -0.51394E-03 11088   0.195E-02-0.107E-02
CGA:  13    -0.334411621915E+03   -0.21261E-03   -0.18778E-03 11088   0.750E-03-0.470E-03
CGA:  14    -0.334411011661E+03    0.61025E-03   -0.53924E-03 11088   0.565E-02-0.160E-02
CGA:  15    -0.334412080409E+03   -0.10687E-02   -0.10603E-02 11088   0.104E-02-0.108E-03
CGA:  16    -0.334412208440E+03   -0.12803E-03   -0.13409E-03 11088   0.262E-03 0.470E-04
CGA:  17    -0.334412255908E+03   -0.47468E-04   -0.51873E-04 11088   0.648E-04 0.664E-04
CGA:  18    -0.334412271754E+03   -0.15845E-04   -0.16630E-04 11088   0.456E-04 0.166E-04
CGA:  19    -0.334412277279E+03   -0.55254E-05   -0.82464E-05 11088   0.189E-04 0.257E-04
  23 F= -.33441228E+03 E0= -.33441226E+03  d E =0.323398E+00  mag=     6.0001
       N       E                     dE             d eps       ncg     rms          ort
SDA:   1    -0.333235212366E+03    0.11771E+01    0.00000E+00 11088   0.335E+01 0.000E+00
CGA:   2    -0.334356317769E+03   -0.11211E+01   -0.11225E+01 11088   0.125E+01-0.140E-01
CGA:   3    -0.334569443062E+03   -0.21313E+00   -0.21283E+00 11088   0.547E+00 0.246E-03
CGA:   4    -0.334651440925E+03   -0.81998E-01   -0.82134E-01 11088   0.105E+00 0.262E-02
CGA:   5    -0.334671185551E+03   -0.19745E-01   -0.19828E-01 11088   0.385E-01 0.187E-02
CGA:   6    -0.334678542989E+03   -0.73574E-02   -0.73754E-02 11088   0.160E-01 0.427E-03
CGA:   7    -0.334682101766E+03   -0.35588E-02   -0.35614E-02 11088   0.740E-02 0.327E-03
CGA:   8    -0.334683647328E+03   -0.15456E-02   -0.15554E-02 11088   0.312E-02 0.454E-03
CGA:   9    -0.334684290841E+03   -0.64351E-03   -0.65157E-03 11088   0.135E-02 0.270E-03
CGA:  10    -0.334684536472E+03   -0.24563E-03   -0.25975E-03 11088   0.351E-03 0.296E-03
CGA:  11    -0.334684592028E+03   -0.55556E-04   -0.67340E-04 11088   0.116E-03 0.180E-03
CGA:  12    -0.334684603249E+03   -0.11221E-04   -0.16572E-04 11088   0.545E-04 0.696E-04
CGA:  13    -0.334684603786E+03   -0.53675E-06   -0.56153E-05 11088   0.390E-04 0.450E-04
  24 F= -.33468460E+03 E0= -.33468457E+03  d E =-.272327E+00  mag=     6.0001
       N       E                     dE             d eps       ncg     rms          ort
SDA:   1    -0.334415645943E+03    0.26896E+00    0.00000E+00 11088   0.744E+00 0.000E+00
CGA:   2    -0.334654259511E+03   -0.23861E+00   -0.23924E+00 11088   0.315E+00-0.532E-02
CGA:   3    -0.334703511433E+03   -0.49252E-01   -0.49331E-01 11088   0.126E+00 0.172E-02
CGA:   4    -0.334723782688E+03   -0.20271E-01   -0.20342E-01 11088   0.278E-01 0.168E-02
CGA:   5    -0.334728474910E+03   -0.46922E-02   -0.47213E-02 11088   0.891E-02 0.782E-03
CGA:   6    -0.334730182046E+03   -0.17071E-02   -0.17160E-02 11088   0.359E-02 0.571E-03
CGA:   7    -0.334730985161E+03   -0.80312E-03   -0.80069E-03 11088   0.162E-02 0.328E-03
CGA:   8    -0.334731338052E+03   -0.35289E-03   -0.35355E-03 11088   0.711E-03 0.222E-03
CGA:   9    -0.334731462440E+03   -0.12439E-03   -0.13300E-03 11088   0.251E-03 0.228E-03
CGA:  10    -0.334731496971E+03   -0.34531E-04   -0.45392E-04 11088   0.994E-04 0.172E-03
CGA:  11    -0.334731505133E+03   -0.81626E-05   -0.12536E-04 11088   0.526E-04 0.616E-04
  25 F= -.33473151E+03 E0= -.33473147E+03  d E =-.469013E-01  mag=     6.0001
       N       E                     dE             d eps       ncg     rms          ort
SDA:   1    -0.334461472520E+03    0.27002E+00    0.00000E+00 11088   0.692E+00 0.000E+00
CGA:   2    -0.334671375107E+03   -0.20990E+00   -0.21065E+00 11088   0.335E+00-0.647E-02
CGA:   3    -0.334721360157E+03   -0.49985E-01   -0.50086E-01 11088   0.118E+00 0.235E-02
CGA:   4    -0.334741023844E+03   -0.19664E-01   -0.19711E-01 11088   0.305E-01 0.196E-02
CGA:   5    -0.334745992654E+03   -0.49688E-02   -0.49901E-02 11088   0.876E-02 0.721E-03
CGA:   6    -0.334747629702E+03   -0.16370E-02   -0.16412E-02 11088   0.341E-02 0.659E-03
CGA:   7    -0.334748402004E+03   -0.77230E-03   -0.76523E-03 11088   0.153E-02 0.358E-03
CGA:   8    -0.334748746040E+03   -0.34404E-03   -0.34162E-03 11088   0.700E-03 0.196E-03
CGA:   9    -0.334748861293E+03   -0.11525E-03   -0.12362E-03 11088   0.242E-03 0.247E-03
CGA:  10    -0.334748892420E+03   -0.31126E-04   -0.41946E-04 11088   0.105E-03 0.179E-03
CGA:  11    -0.334748902444E+03   -0.10024E-04   -0.13571E-04 11088   0.557E-04 0.629E-04
CGA:  12    -0.334748902647E+03   -0.20340E-06   -0.47471E-05 11088   0.418E-04 0.465E-04
  26 F= -.33474890E+03 E0= -.33474887E+03  d E =-.173975E-01  mag=     6.0001
       N       E                     dE             d eps       ncg     rms          ort
SDA:   1    -0.334679412122E+03    0.69490E-01    0.00000E+00 11088   0.187E+00 0.000E+00
CGA:   2    -0.334726598802E+03   -0.47187E-01   -0.47406E-01 11088   0.112E+00-0.278E-02
CGA:   3    -0.334744070070E+03   -0.17471E-01   -0.17485E-01 11088   0.343E-01 0.745E-03
CGA:   4    -0.334749328741E+03   -0.52587E-02   -0.52810E-02 11088   0.920E-02 0.968E-03
CGA:   5    -0.334750819771E+03   -0.14910E-02   -0.15001E-02 11088   0.254E-02 0.553E-03
CGA:   6    -0.334751277246E+03   -0.45747E-03   -0.45870E-03 11088   0.836E-03 0.346E-03
CGA:   7    -0.334751469683E+03   -0.19244E-03   -0.18836E-03 11088   0.362E-03 0.167E-03
CGA:   8    -0.334751556958E+03   -0.87275E-04   -0.85209E-04 11088   0.159E-03 0.977E-04
CGA:   9    -0.334751580795E+03   -0.23837E-04   -0.27651E-04 11088   0.652E-04 0.973E-04
CGA:  10    -0.334751584311E+03   -0.35163E-05   -0.67799E-05 11088   0.364E-04 0.465E-04
  27 F= -.33475158E+03 E0= -.33475155E+03  d E =-.268166E-02  mag=     6.0000
       N       E                     dE             d eps       ncg     rms          ort
SDA:   1    -0.334742400842E+03    0.91800E-02    0.00000E+00 11088   0.308E-01 0.000E+00
CGA:   2    -0.334748449669E+03   -0.60488E-02   -0.60484E-02 11088   0.168E-01-0.113E-06
CGA:   3    -0.334751640209E+03   -0.31905E-02   -0.31866E-02 11088   0.639E-02 0.181E-03
CGA:   4    -0.334752572570E+03   -0.93236E-03   -0.93274E-03 11088   0.141E-02 0.121E-04
CGA:   5    -0.334752806210E+03   -0.23364E-03   -0.23347E-03 11088   0.451E-03-0.823E-04
CGA:   6    -0.334752895974E+03   -0.89765E-04   -0.96006E-04 11088   0.232E-03-0.107E-03
CGA:   7    -0.334752928879E+03   -0.32905E-04   -0.33264E-04 11088   0.763E-04-0.210E-04
CGA:   8    -0.334752941132E+03   -0.12253E-04   -0.12196E-04 11088   0.242E-04 0.135E-04
CGA:   9    -0.334752948307E+03   -0.71749E-05   -0.80634E-05 11088   0.175E-04-0.797E-05
  28 F= -.33475295E+03 E0= -.33475292E+03  d E =-.136400E-02  mag=     6.0000
       N       E                     dE             d eps       ncg     rms          ort
SDA:   1    -0.334746906405E+03    0.60347E-02    0.00000E+00 11088   0.206E-01 0.000E+00
CGA:   2    -0.334750580931E+03   -0.36745E-02   -0.36743E-02 11088   0.991E-02 0.193E-03
CGA:   3    -0.334752562892E+03   -0.19820E-02   -0.19809E-02 11088   0.427E-02 0.462E-04
CGA:   4    -0.334753208521E+03   -0.64563E-03   -0.64369E-03 11088   0.957E-03-0.704E-04
CGA:   5    -0.334753366447E+03   -0.15793E-03   -0.15692E-03 11088   0.321E-03-0.982E-04
CGA:   6    -0.334753428072E+03   -0.61625E-04   -0.77786E-04 11088   0.296E-03-0.173E-03
CGA:   7    -0.334753456944E+03   -0.28872E-04   -0.30657E-04 11088   0.388E-04 0.229E-04
CGA:   8    -0.334753463814E+03   -0.68701E-05   -0.69782E-05 11088   0.109E-04 0.104E-04
  29 F= -.33475346E+03 E0= -.33475344E+03  d E =-.515507E-03  mag=     6.0000
       N       E                     dE             d eps       ncg     rms          ort
SDA:   1    -0.334737284552E+03    0.16172E-01    0.00000E+00 11088   0.577E-01 0.000E+00
CGA:   2    -0.334746550179E+03   -0.92656E-02   -0.92701E-02 11088   0.241E-01 0.236E-03
CGA:   3    -0.334751625038E+03   -0.50749E-02   -0.50758E-02 11088   0.119E-01-0.391E-04
CGA:   4    -0.334753394662E+03   -0.17696E-02   -0.17682E-02 11088   0.248E-02-0.567E-04
CGA:   5    -0.334753769097E+03   -0.37443E-03   -0.37344E-03 11088   0.636E-03-0.414E-04
CGA:   6    -0.334753901137E+03   -0.13204E-03   -0.13788E-03 11088   0.298E-03-0.129E-03
CGA:   7    -0.334753944980E+03   -0.43842E-04   -0.44058E-04 11088   0.898E-04-0.264E-04
CGA:   8    -0.334753958285E+03   -0.13305E-04   -0.13512E-04 11088   0.254E-04 0.163E-04
CGA:   9    -0.334753963970E+03   -0.56852E-05   -0.12754E-04 11088   0.518E-04-0.284E-04
CGA:  10    -0.334753974978E+03   -0.11008E-04   -0.13844E-04 11088   0.431E-04-0.364E-04
CGA:  11    -0.334753982692E+03   -0.77141E-05   -0.73810E-05 11088   0.660E-05-0.149E-04
  30 F= -.33475398E+03 E0= -.33475396E+03  d E =-.518878E-03  mag=     6.0000
       N       E                     dE             d eps       ncg     rms          ort
SDA:   1    -0.334703911423E+03    0.50064E-01    0.00000E+00 11088   0.176E+00 0.000E+00
CGA:   2    -0.334732042348E+03   -0.28131E-01   -0.28136E-01 11088   0.734E-01 0.313E-05
CGA:   3    -0.334747409354E+03   -0.15367E-01   -0.15373E-01 11088   0.369E-01-0.373E-03
CGA:   4    -0.334752804786E+03   -0.53954E-02   -0.53965E-02 11088   0.747E-02-0.143E-06
CGA:   5    -0.334753852887E+03   -0.10481E-02   -0.10572E-02 11088   0.173E-02 0.186E-03
CGA:   6    -0.334754176153E+03   -0.32327E-03   -0.32347E-03 11088   0.543E-03 0.418E-04
CGA:   7    -0.334754283404E+03   -0.10725E-03   -0.10717E-03 11088   0.156E-03 0.130E-04
CGA:   8    -0.334754309061E+03   -0.25657E-04   -0.26434E-04 11088   0.438E-04 0.368E-04
CGA:   9    -0.334754322811E+03   -0.13750E-04   -0.13701E-04 11088   0.227E-04 0.700E-06
CGA:  10    -0.334754328591E+03   -0.57804E-05   -0.58802E-05 11088   0.121E-04-0.154E-05
  31 F= -.33475433E+03 E0= -.33475430E+03  d E =-.345899E-03  mag=     6.0000
       N       E                     dE             d eps       ncg     rms          ort
SDA:   1    -0.334698805008E+03    0.55518E-01    0.00000E+00 11088   0.147E+00 0.000E+00
CGA:   2    -0.334734326556E+03   -0.35522E-01   -0.35549E-01 11088   0.878E-01-0.597E-03
CGA:   3    -0.334748798077E+03   -0.14472E-01   -0.14467E-01 11088   0.264E-01-0.175E-03
CGA:   4    -0.334752544869E+03   -0.37468E-02   -0.37471E-02 11088   0.582E-02-0.586E-05
CGA:   5    -0.334753437734E+03   -0.89287E-03   -0.89630E-03 11088   0.157E-02 0.988E-04
CGA:   6    -0.334753725733E+03   -0.28800E-03   -0.28817E-03 11088   0.473E-03 0.297E-04
CGA:   7    -0.334753825170E+03   -0.99437E-04   -0.99408E-04 11088   0.172E-03 0.130E-05
CGA:   8    -0.334753859584E+03   -0.34413E-04   -0.34127E-04 11088   0.615E-04 0.280E-04
CGA:   9    -0.334753879231E+03   -0.19648E-04   -0.33326E-04 11088   0.113E-03-0.491E-04
CGA:  10    -0.334753889760E+03   -0.10528E-04   -0.12911E-04 11088   0.193E-04 0.273E-04
CGA:  11    -0.334753893099E+03   -0.33395E-05   -0.35671E-05 11088   0.486E-05 0.467E-05
  32 F= -.33475389E+03 E0= -.33475387E+03  d E =0.435492E-03  mag=     6.0000
       N       E                     dE             d eps       ncg     rms          ort
SDA:   1    -0.334723046533E+03    0.30843E-01    0.00000E+00 11088   0.868E-01 0.000E+00
CGA:   2    -0.334742397418E+03   -0.19351E-01   -0.19347E-01 11088   0.499E-01 0.647E-04
CGA:   3    -0.334751083591E+03   -0.86862E-02   -0.86786E-02 11088   0.160E-01-0.420E-03
CGA:   4    -0.334753376118E+03   -0.22925E-02   -0.22872E-02 11088   0.365E-02-0.121E-03
CGA:   5    -0.334753933874E+03   -0.55776E-03   -0.56117E-03 11088   0.101E-02 0.991E-04
CGA:   6    -0.334754113991E+03   -0.18012E-03   -0.18103E-03 11088   0.293E-03 0.719E-04
CGA:   7    -0.334754175740E+03   -0.61748E-04   -0.61517E-04 11088   0.104E-03 0.247E-04
CGA:   8    -0.334754197278E+03   -0.21538E-04   -0.21450E-04 11088   0.401E-04 0.262E-04
CGA:   9    -0.334754208256E+03   -0.10978E-04   -0.10704E-04 11088   0.184E-04 0.106E-04
CGA:  10    -0.334754210894E+03   -0.26386E-05   -0.32185E-05 11088   0.763E-05 0.115E-04
  33 F= -.33475421E+03 E0= -.33475419E+03  d E =-.317795E-03  mag=     6.0000
       N       E                     dE             d eps       ncg     rms          ort
SDA:   1    -0.334748980460E+03    0.52278E-02    0.00000E+00 11088   0.166E-01 0.000E+00
CGA:   2    -0.334752111880E+03   -0.31314E-02   -0.31331E-02 11088   0.861E-02-0.238E-03
CGA:   3    -0.334753748218E+03   -0.16363E-02   -0.16366E-02 11088   0.345E-02-0.288E-04
CGA:   4    -0.334754246933E+03   -0.49871E-03   -0.50031E-03 11088   0.745E-03 0.420E-04
CGA:   5    -0.334754354237E+03   -0.10730E-03   -0.10946E-03 11088   0.189E-03 0.617E-04
CGA:   6    -0.334754381033E+03   -0.26796E-04   -0.28958E-04 11088   0.543E-04 0.583E-04
CGA:   7    -0.334754391329E+03   -0.10296E-04   -0.10845E-04 11088   0.213E-04 0.230E-04
CGA:   8    -0.334754398136E+03   -0.68066E-05   -0.66813E-05 11088   0.120E-04 0.274E-05
  34 F= -.33475440E+03 E0= -.33475437E+03  d E =-.187242E-03  mag=     6.0000
       N       E                     dE             d eps       ncg     rms          ort
SDA:   1    -0.334750256033E+03    0.41353E-02    0.00000E+00 11088   0.117E-01 0.000E+00
CGA:   2    -0.334752942176E+03   -0.26861E-02   -0.27022E-02 11088   0.737E-02-0.293E-03
CGA:   3    -0.334754171081E+03   -0.12289E-02   -0.12289E-02 11088   0.214E-02-0.674E-05
CGA:   4    -0.334754456139E+03   -0.28506E-03   -0.28736E-03 11088   0.452E-03 0.535E-04
CGA:   5    -0.334754520808E+03   -0.64669E-04   -0.66414E-04 11088   0.116E-03 0.550E-04
CGA:   6    -0.334754536342E+03   -0.15535E-04   -0.17296E-04 11088   0.344E-04 0.433E-04
CGA:   7    -0.334754541363E+03   -0.50207E-05   -0.59102E-05 11088   0.138E-04 0.193E-04
  35 F= -.33475454E+03 E0= -.33475452E+03  d E =-.143227E-03  mag=     6.0000
       N       E                     dE             d eps       ncg     rms          ort
SDA:   1    -0.334550620915E+03    0.20392E+00    0.00000E+00 11088   0.483E+00 0.000E+00
CGA:   2    -0.334711238358E+03   -0.16062E+00   -0.16093E+00 11088   0.227E+00-0.209E-02
CGA:   3    -0.334744183247E+03   -0.32945E-01   -0.32964E-01 11088   0.572E-01 0.472E-03
CGA:   4    -0.334752443108E+03   -0.82599E-02   -0.82737E-02 11088   0.142E-01 0.361E-03
CGA:   5    -0.334754710906E+03   -0.22678E-02   -0.22744E-02 11088   0.401E-02 0.314E-03
CGA:   6    -0.334755432684E+03   -0.72178E-03   -0.72214E-03 11088   0.114E-02 0.150E-03
CGA:   7    -0.334755671479E+03   -0.23879E-03   -0.23806E-03 11088   0.426E-03 0.324E-04
CGA:   8    -0.334755756032E+03   -0.84554E-04   -0.83621E-04 11088   0.171E-03 0.834E-04
CGA:   9    -0.334755796225E+03   -0.40193E-04   -0.39476E-04 11088   0.755E-04 0.535E-04
CGA:  10    -0.334755809268E+03   -0.13043E-04   -0.14641E-04 11088   0.311E-04 0.481E-04
CGA:  11    -0.334755811155E+03   -0.18862E-05   -0.34297E-05 11088   0.179E-04 0.224E-04
  36 F= -.33475581E+03 E0= -.33475579E+03  d E =-.126979E-02  mag=     6.0000
       N       E                     dE             d eps       ncg     rms          ort
SDA:   1    -0.334178263131E+03    0.57755E+00    0.00000E+00 11088   0.133E+01 0.000E+00
CGA:   2    -0.334646792494E+03   -0.46853E+00   -0.46878E+00 11088   0.573E+00-0.150E-02
CGA:   3    -0.334730047543E+03   -0.83255E-01   -0.83298E-01 11088   0.138E+00 0.109E-02
CGA:   4    -0.334750290489E+03   -0.20243E-01   -0.20243E-01 11088   0.351E-01-0.493E-04
CGA:   5    -0.334756189267E+03   -0.58988E-02   -0.58975E-02 11088   0.109E-01-0.148E-03
CGA:   6    -0.334758117065E+03   -0.19278E-02   -0.19278E-02 11088   0.311E-02-0.253E-04
CGA:   7    -0.334758745905E+03   -0.62884E-03   -0.62843E-03 11088   0.113E-02 0.159E-04
CGA:   8    -0.334759019926E+03   -0.27402E-03   -0.27172E-03 11088   0.494E-03 0.375E-04
CGA:   9    -0.334759169012E+03   -0.14909E-03   -0.15979E-03 11088   0.326E-03-0.814E-04
CGA:  10    -0.334759221757E+03   -0.52746E-04   -0.52677E-04 11088   0.132E-03 0.131E-04
CGA:  11    -0.334759254351E+03   -0.32593E-04   -0.37741E-04 11088   0.983E-04-0.588E-04
CGA:  12    -0.334759264409E+03   -0.10058E-04   -0.98250E-05 11088   0.479E-04-0.196E-04
CGA:  13    -0.334759271343E+03   -0.69338E-05   -0.15398E-04 11088   0.777E-04-0.405E-04
CGA:  14    -0.334759290080E+03   -0.18737E-04   -0.24608E-04 11088   0.770E-04-0.514E-04
CGA:  15    -0.334759293755E+03   -0.36757E-05   -0.66773E-05 11088   0.137E-04 0.247E-04
  37 F= -.33475929E+03 E0= -.33475927E+03  d E =-.348260E-02  mag=     6.0000
       N       E                     dE             d eps       ncg     rms          ort
SDA:   1    -0.334578509446E+03    0.18078E+00    0.00000E+00 11088   0.427E+00 0.000E+00
CGA:   2    -0.334715528563E+03   -0.13702E+00   -0.13690E+00 11088   0.220E+00 0.922E-03
CGA:   3    -0.334747901236E+03   -0.32373E-01   -0.32363E-01 11088   0.525E-01-0.290E-03
CGA:   4    -0.334755543945E+03   -0.76427E-02   -0.76326E-02 11088   0.130E-01-0.192E-03
CGA:   5    -0.334757672180E+03   -0.21282E-02   -0.21224E-02 11088   0.385E-02-0.169E-03
CGA:   6    -0.334758348636E+03   -0.67646E-03   -0.67634E-03 11088   0.109E-02-0.675E-05
CGA:   7    -0.334758570532E+03   -0.22190E-03   -0.22200E-03 11088   0.392E-03-0.142E-04
CGA:   8    -0.334758675510E+03   -0.10498E-03   -0.11397E-03 11088   0.272E-03-0.921E-04
CGA:   9    -0.334758711467E+03   -0.35957E-04   -0.36668E-04 11088   0.103E-03 0.280E-04
CGA:  10    -0.334758739896E+03   -0.28428E-04   -0.30401E-04 11088   0.666E-04-0.298E-04
CGA:  11    -0.334758745964E+03   -0.60685E-05   -0.18902E-04 11088   0.953E-04-0.659E-04
CGA:  12    -0.334758756632E+03   -0.10668E-04   -0.12524E-04 11088   0.193E-04 0.226E-04
CGA:  13    -0.334758761740E+03   -0.51077E-05   -0.51140E-05 11088   0.726E-05-0.139E-05
  38 F= -.33475876E+03 E0= -.33475874E+03  d E =0.532016E-03  mag=     6.0000
       N       E                     dE             d eps       ncg     rms          ort
SDA:   1    -0.334718419032E+03    0.40338E-01    0.00000E+00 11088   0.983E-01 0.000E+00
CGA:   2    -0.334748027198E+03   -0.29608E-01   -0.29637E-01 11088   0.603E-01-0.354E-03
CGA:   3    -0.334756336160E+03   -0.83090E-02   -0.82962E-02 11088   0.148E-01-0.140E-03
CGA:   4    -0.334758565408E+03   -0.22292E-02   -0.22374E-02 11088   0.326E-02 0.122E-03
CGA:   5    -0.334759097661E+03   -0.53225E-03   -0.54150E-03 11088   0.944E-03 0.190E-03
CGA:   6    -0.334759274255E+03   -0.17659E-03   -0.17846E-03 11088   0.314E-03 0.575E-04
CGA:   7    -0.334759344974E+03   -0.70719E-04   -0.70751E-04 11088   0.150E-03-0.998E-05
CGA:   8    -0.334759369859E+03   -0.24886E-04   -0.25574E-04 11088   0.601E-04 0.207E-04
CGA:   9    -0.334759379352E+03   -0.94929E-05   -0.10685E-04 11088   0.216E-04 0.231E-04
  39 F= -.33475938E+03 E0= -.33475935E+03  d E =-.617613E-03  mag=     6.0000
       N       E                     dE             d eps       ncg     rms          ort
SDA:   1    -0.334747209672E+03    0.12160E-01    0.00000E+00 11088   0.317E-01 0.000E+00
CGA:   2    -0.334756581311E+03   -0.93716E-02   -0.93711E-02 11088   0.191E-01-0.273E-05
CGA:   3    -0.334759463482E+03   -0.28822E-02   -0.28880E-02 11088   0.448E-02 0.102E-03
CGA:   4    -0.334760103369E+03   -0.63989E-03   -0.64211E-03 11088   0.106E-02 0.348E-04
CGA:   5    -0.334760286025E+03   -0.18266E-03   -0.18155E-03 11088   0.352E-03-0.373E-04
CGA:   6    -0.334760352505E+03   -0.66479E-04   -0.66392E-04 11088   0.122E-03-0.295E-04
CGA:   7    -0.334760370206E+03   -0.17701E-04   -0.18262E-04 11088   0.342E-04 0.160E-04
CGA:   8    -0.334760377379E+03   -0.71732E-05   -0.72578E-05 11088   0.134E-04 0.914E-05
  40 F= -.33476038E+03 E0= -.33476035E+03  d E =-.998027E-03  mag=     6.0000
       N       E                     dE             d eps       ncg     rms          ort
SDA:   1    -0.334691294319E+03    0.69076E-01    0.00000E+00 11088   0.159E+00 0.000E+00
CGA:   2    -0.334751355169E+03   -0.60061E-01   -0.60083E-01 11088   0.500E-01-0.133E-03
CGA:   3    -0.334759055571E+03   -0.77004E-02   -0.77089E-02 11088   0.147E-01 0.145E-03
CGA:   4    -0.334761098514E+03   -0.20429E-02   -0.20474E-02 11088   0.344E-02 0.573E-04
CGA:   5    -0.334761715401E+03   -0.61689E-03   -0.61611E-03 11088   0.113E-02-0.261E-04
CGA:   6    -0.334761900984E+03   -0.18558E-03   -0.18628E-03 11088   0.305E-03 0.169E-04
CGA:   7    -0.334761960111E+03   -0.59127E-04   -0.59458E-04 11088   0.109E-03 0.250E-04
CGA:   8    -0.334761987897E+03   -0.27786E-04   -0.27693E-04 11088   0.615E-04 0.319E-05
CGA:   9    -0.334761999524E+03   -0.11628E-04   -0.11815E-04 11088   0.277E-04 0.967E-05
CGA:  10    -0.334762006874E+03   -0.73496E-05   -0.72700E-05 11088   0.104E-04 0.367E-05
CGA:  11    -0.334761970491E+03    0.36383E-04   -0.19708E-04 11088   0.225E-03-0.470E-04
CGA:  12    -0.334761998894E+03   -0.28403E-04   -0.33712E-04 11088   0.427E-04 0.235E-04
CGA:  13    -0.334762014491E+03   -0.15597E-04   -0.13442E-04 11088   0.613E-04-0.270E-04
CGA:  14    -0.334762016973E+03   -0.24817E-05   -0.51054E-05 11088   0.710E-05 0.950E-05
  41 F= -.33476202E+03 E0= -.33476199E+03  d E =-.163959E-02  mag=     6.0000
       N       E                     dE             d eps       ncg     rms          ort
SDA:   1    -0.323463854464E+03    0.11298E+02    0.00000E+00 11088   0.265E+02 0.000E+00
CGA:   2    -0.332551674530E+03   -0.90878E+01   -0.90820E+01 11088   0.111E+02 0.780E+00
CGA:   3    -0.333997167105E+03   -0.14455E+01   -0.11038E+01 11088   0.229E+01 0.354E+01
CGA:   4    -0.334510671430E+03   -0.51350E+00   -0.50408E+00 11088   0.109E+01 0.452E-01
CGA:   5    -0.334658435974E+03   -0.14776E+00   -0.15120E+00 11088   0.425E+00-0.166E-01
CGA:   6    -0.334731056456E+03   -0.72620E-01   -0.72530E-01 11088   0.144E+00-0.142E-02
CGA:   7    -0.334751447744E+03   -0.20391E-01   -0.20445E-01 11088   0.547E-01 0.109E-02
CGA:   8    -0.334761289759E+03   -0.98420E-02   -0.98532E-02 11088   0.256E-01 0.917E-05
CGA:   9    -0.334766850381E+03   -0.55606E-02   -0.55718E-02 11088   0.151E-01 0.147E-03
CGA:  10    -0.334769606604E+03   -0.27562E-02   -0.28056E-02 11088   0.738E-02 0.520E-03
CGA:  11    -0.334771056335E+03   -0.14497E-02   -0.14466E-02 11088   0.268E-02-0.378E-04
CGA:  12    -0.334771614562E+03   -0.55823E-03   -0.55453E-03 11088   0.994E-03-0.562E-04
CGA:  13    -0.334771780440E+03   -0.16588E-03   -0.17611E-03 11088   0.435E-03 0.112E-03
CGA:  14    -0.334771890433E+03   -0.10999E-03   -0.10941E-03 11088   0.206E-03-0.143E-04
CGA:  15    -0.334771958121E+03   -0.67688E-04   -0.71370E-04 11088   0.170E-03-0.402E-04
CGA:  16    -0.334771987587E+03   -0.29467E-04   -0.30999E-04 11088   0.122E-03 0.347E-04
CGA:  17    -0.334772031333E+03   -0.43746E-04   -0.43492E-04 11088   0.106E-03 0.838E-05
CGA:  18    -0.334772066051E+03   -0.34718E-04   -0.61355E-04 11088   0.282E-03-0.101E-03
CGA:  19    -0.334772122123E+03   -0.56072E-04   -0.54270E-04 11088   0.114E-03-0.199E-04
CGA:  20    -0.334772154072E+03   -0.31949E-04   -0.35854E-04 11088   0.815E-04-0.646E-04
CGA:  21    -0.334772173407E+03   -0.19335E-04   -0.16128E-04 11088   0.678E-04-0.383E-04
CGA:  22    -0.334772183118E+03   -0.97118E-05   -0.95119E-05 11088   0.290E-04-0.160E-04
  42 F= -.33477218E+03 E0= -.33477215E+03  d E =-.101661E-01  mag=     6.0000
       N       E                     dE             d eps       ncg     rms          ort
SDA:   1    -0.334281490448E+03    0.49068E+00    0.00000E+00 11088   0.115E+01 0.000E+00
CGA:   2    -0.334659210435E+03   -0.37772E+00   -0.37773E+00 11088   0.578E+00-0.130E-03
CGA:   3    -0.334741676766E+03   -0.82466E-01   -0.82702E-01 11088   0.150E+00 0.264E-04
CGA:   4    -0.334764372463E+03   -0.22696E-01   -0.22651E-01 11088   0.360E-01-0.240E-03
CGA:   5    -0.334770685423E+03   -0.63130E-02   -0.62564E-02 11088   0.116E-01-0.622E-03
CGA:   6    -0.334772750206E+03   -0.20648E-02   -0.20615E-02 11088   0.368E-02-0.432E-04
CGA:   7    -0.334773508342E+03   -0.75814E-03   -0.75802E-03 11088   0.150E-02-0.203E-05
CGA:   8    -0.334773901780E+03   -0.39344E-03   -0.39569E-03 11088   0.996E-03-0.257E-03
CGA:   9    -0.334774063396E+03   -0.16162E-03   -0.15811E-03 11088   0.446E-03-0.544E-04
CGA:  10    -0.334774176787E+03   -0.11339E-03   -0.11796E-03 11088   0.284E-03-0.166E-03
CGA:  11    -0.334774151515E+03    0.25271E-04   -0.94137E-04 11088   0.109E-02-0.437E-03
CGA:  12    -0.334774244545E+03   -0.93030E-04   -0.11229E-03 11088   0.183E-03 0.118E-03
CGA:  13    -0.334774276695E+03   -0.32150E-04   -0.35449E-04 11088   0.511E-04 0.391E-04
CGA:  14    -0.334774309463E+03   -0.32768E-04    0.21943E-03 11088   0.397E-04-0.102E-05
CGA:  15    -0.334774312650E+03   -0.31873E-05   -0.45854E-05 11088   0.164E-04 0.102E-04
  43 F= -.33477431E+03 E0= -.33477430E+03  d E =-.212953E-02  mag=     6.0000
       N       E                     dE             d eps       ncg     rms          ort
SDA:   1    -0.333392693612E+03    0.13816E+01    0.00000E+00 11088   0.314E+01 0.000E+00
CGA:   2    -0.334515346765E+03   -0.11227E+01   -0.11228E+01 11088   0.132E+01-0.142E-02
CGA:   3    -0.334705481405E+03   -0.19013E+00   -0.19010E+00 11088   0.313E+00 0.197E-03
CGA:   4    -0.334751670070E+03   -0.46189E-01   -0.46106E-01 11088   0.789E-01-0.988E-03
CGA:   5    -0.334765030535E+03   -0.13360E-01   -0.13353E-01 11088   0.246E-01-0.128E-03
CGA:   6    -0.334769336512E+03   -0.43060E-02   -0.43118E-02 11088   0.681E-02 0.977E-04
CGA:   7    -0.334770764786E+03   -0.14283E-02   -0.14232E-02 11088   0.270E-02-0.238E-03
CGA:   8    -0.334771374037E+03   -0.60925E-03   -0.60922E-03 11088   0.120E-02 0.634E-05
CGA:   9    -0.334771710992E+03   -0.33695E-03   -0.34912E-03 11088   0.792E-03-0.196E-03
CGA:  10    -0.334771835007E+03   -0.12401E-03   -0.12444E-03 11088   0.297E-03 0.107E-04
CGA:  11    -0.334771906740E+03   -0.71734E-04   -0.72154E-04 11088   0.105E-03-0.412E-04
CGA:  12    -0.334771917915E+03   -0.11175E-04   -0.13613E-04 11088   0.352E-04 0.306E-04
CGA:  13    -0.334771921317E+03   -0.34023E-05   -0.55153E-05 11088   0.154E-04 0.201E-04
  44 F= -.33477192E+03 E0= -.33477190E+03  d E =0.239133E-02  mag=     6.0000
       N       E                     dE             d eps       ncg     rms          ort
SDA:   1    -0.334558963869E+03    0.21295E+00    0.00000E+00 11088   0.703E+00 0.000E+00
CGA:   2    -0.334673910907E+03   -0.11495E+00   -0.11505E+00 11088   0.306E+00 0.973E-03
CGA:   3    -0.334737037499E+03   -0.63127E-01   -0.63118E-01 11088   0.150E+00-0.783E-03
CGA:   4    -0.334759063184E+03   -0.22026E-01   -0.21989E-01 11088   0.323E-01-0.611E-03
CGA:   5    -0.334763748650E+03   -0.46855E-02   -0.47018E-02 11088   0.809E-02 0.224E-03
CGA:   6    -0.334765216114E+03   -0.14675E-02   -0.14765E-02 11088   0.253E-02 0.300E-03
CGA:   7    -0.334765728471E+03   -0.51236E-03   -0.51342E-03 11088   0.794E-03 0.749E-04
CGA:   8    -0.334765876704E+03   -0.14823E-03   -0.15147E-03 11088   0.262E-03 0.139E-03
CGA:   9    -0.334765934606E+03   -0.57902E-04   -0.59134E-04 11088   0.103E-03 0.789E-04
CGA:  10    -0.334765952579E+03   -0.17973E-04   -0.20902E-04 11088   0.421E-04 0.582E-04
CGA:  11    -0.334765953851E+03   -0.12716E-05   -0.43600E-05 11088   0.246E-04 0.307E-04
  45 F= -.33476595E+03 E0= -.33476591E+03  d E =0.596747E-02  mag=     6.0000
       N       E                     dE             d eps       ncg     rms          ort
SDA:   1    -0.334606991200E+03    0.15896E+00    0.00000E+00 11088   0.452E+00 0.000E+00
CGA:   2    -0.334707723959E+03   -0.10073E+00   -0.10072E+00 11088   0.280E+00 0.350E-03
CGA:   3    -0.334757406955E+03   -0.49683E-01   -0.49691E-01 11088   0.861E-01 0.360E-03
CGA:   4    -0.334769044361E+03   -0.11637E-01   -0.11656E-01 11088   0.171E-01 0.289E-03
CGA:   5    -0.334771729559E+03   -0.26852E-02   -0.26867E-02 11088   0.504E-02 0.366E-04
CGA:   6    -0.334772708238E+03   -0.97868E-03   -0.97910E-03 11088   0.168E-02-0.981E-04
CGA:   7    -0.334773020906E+03   -0.31267E-03   -0.31266E-03 11088   0.520E-03 0.175E-04
CGA:   8    -0.334773144571E+03   -0.12366E-03   -0.12399E-03 11088   0.221E-03-0.710E-05
CGA:   9    -0.334773201383E+03   -0.56813E-04   -0.58822E-04 11088   0.125E-03-0.260E-04
CGA:  10    -0.334773227831E+03   -0.26447E-04   -0.32083E-04 11088   0.134E-03-0.596E-04
CGA:  11    -0.334773241375E+03   -0.13544E-04   -0.12400E-04 11088   0.564E-04-0.477E-04
CGA:  12    -0.334773257429E+03   -0.16054E-04    0.33108E-04 11088   0.287E-04-0.364E-05
CGA:  13    -0.334773268309E+03   -0.10880E-04    0.14707E-03 11088   0.242E-04-0.950E-05
CGA:  14    -0.334773276124E+03   -0.78150E-05    0.76640E-05 11088   0.126E-04-0.528E-05
  46 F= -.33477328E+03 E0= -.33477325E+03  d E =-.732227E-02  mag=     6.0000
