       N       E                     dE             d eps       ncg     rms          ort
DAV:   1     0.295624691310E+04    0.29562E+04   -0.13733E+05 10584   0.177E+03
DAV:   2    -0.222208900304E+02   -0.29785E+04   -0.27299E+04 10584   0.459E+02
DAV:   3    -0.427734207077E+03   -0.40551E+03   -0.39667E+03 10584   0.193E+02
DAV:   4    -0.444996235717E+03   -0.17262E+02   -0.16836E+02 10584   0.388E+01
DAV:   5    -0.445597059482E+03   -0.60082E+00   -0.59417E+00 10584   0.590E+00
SDA:   6    -0.238158050356E+03    0.20744E+03   -0.59417E+00 10584   0.128E+04 0.000E+00
CGA:   7    -0.233200149295E+03    0.49579E+01   -0.11470E+03 10584   0.552E+03-0.532E+02
CGA:   8    -0.285602774887E+03   -0.52403E+02   -0.12891E+02 10584   0.215E+04-0.348E+04
CGA:   9    -0.232236796256E+03    0.53366E+02   -0.11179E+03 10584   0.486E+03-0.213E+03
CGA:  10    -0.292812468913E+03   -0.60576E+02   -0.83385E+01 10584   0.107E+04 0.267E+04
CGA:  11    -0.269851876299E+03    0.22961E+02   -0.34270E+02 10584   0.381E+04-0.146E+04
CGA:  12    -0.229460598181E+03    0.40391E+02   -0.21587E+03 10584   0.489E+03-0.324E+03
CGA:  13    -0.244180905696E+03   -0.14720E+02   -0.74945E+01 10584   0.469E+03 0.472E+03
CGA:  14    -0.316805227415E+03   -0.72624E+02   -0.73186E+01 10584   0.196E+04 0.287E+04
CGA:  15    -0.281086776373E+03    0.35718E+02   -0.12838E+03 10584   0.363E+03-0.131E+03
CGA:  16    -0.292250732930E+03   -0.11164E+02   -0.61658E+01 10584   0.134E+04 0.740E+03
CGA:  17    -0.269834616788E+03    0.22416E+02   -0.50044E+02 10584   0.413E+04-0.143E+04
CGA:  18    -0.241942014253E+03    0.27893E+02   -0.20391E+03 10584   0.429E+03-0.349E+03
CGA:  19    -0.253830159248E+03   -0.11888E+02   -0.53266E+01 10584   0.621E+03 0.629E+03
CGA:  20    -0.318651989965E+03   -0.64822E+02   -0.10769E+02 10584   0.391E+03-0.373E+02
CGA:  21    -0.302428450747E+03    0.16224E+02   -0.13608E+02 10584   0.768E+03-0.185E+02
CGA:  22    -0.295442519349E+03    0.69859E+01   -0.33500E+02 10584   0.101E+04 0.184E+03
CGA:  23    -0.328698279633E+03   -0.33256E+02   -0.40968E+02 10584   0.349E+03-0.929E+03
CGA:  24    -0.323114557189E+03    0.55837E+01   -0.11828E+02 10584   0.473E+03-0.330E+03
CGA:  25    -0.324541391073E+03   -0.14268E+01   -0.13206E+02 10584   0.440E+03-0.449E+03
CGA:  26    -0.317957924467E+03    0.65835E+01   -0.14845E+02 10584   0.542E+03-0.434E+03
CGA:  27    -0.324025794560E+03   -0.60679E+01   -0.14638E+02 10584   0.445E+03-0.543E+03
CGA:  28    -0.318926237431E+03    0.50996E+01   -0.13910E+02 10584   0.592E+03-0.506E+03
CGA:  29    -0.324254616168E+03   -0.53284E+01   -0.15414E+02 10584   0.439E+03-0.529E+03
CGA:  30    -0.321096093301E+03    0.31585E+01   -0.12660E+02 10584   0.707E+03-0.636E+03
CGA:  31    -0.324125331052E+03   -0.30292E+01   -0.18201E+02 10584   0.439E+03-0.491E+03
CGA:  32    -0.323613788093E+03    0.51154E+00   -0.11742E+02 10584   0.817E+03-0.799E+03
CGA:  33    -0.324967009279E+03   -0.13532E+01   -0.20500E+02 10584   0.451E+03-0.479E+03
CGA:  34    -0.325952631706E+03   -0.98562E+00   -0.11271E+02 10584   0.786E+03-0.816E+03
CGA:  35    -0.325696990683E+03    0.25564E+00   -0.19618E+02 10584   0.469E+03-0.465E+03
CGA:  36    -0.327923038197E+03   -0.22260E+01   -0.10982E+02 10584   0.703E+03-0.777E+03
CGA:  37    -0.324577920749E+03    0.33451E+01   -0.19033E+02 10584   0.476E+03-0.409E+03
CGA:  38    -0.329985621919E+03   -0.54077E+01   -0.10488E+02 10584   0.603E+03-0.787E+03
CGA:  39    -0.327600495527E+03    0.23851E+01   -0.14956E+02 10584   0.509E+03-0.449E+03
CGA:  40    -0.331141767527E+03   -0.35413E+01   -0.10597E+02 10584   0.538E+03-0.662E+03
CGA:  41    -0.330306356236E+03    0.83541E+00   -0.12148E+02 10584   0.480E+03-0.455E+03
CGA:  42    -0.333693976102E+03   -0.33876E+01   -0.91078E+01 10584   0.358E+03-0.476E+03
CGA:  43    -0.334894120288E+03   -0.12001E+01   -0.68140E+01 10584   0.258E+03-0.304E+03
CGA:  44    -0.337200300873E+03   -0.23062E+01   -0.38195E+01 10584   0.614E+02-0.126E+03
CGA:  45    -0.337882587939E+03   -0.68229E+00   -0.68128E+00 10584   0.161E+01 0.261E+00
CGA:  46    -0.337956069461E+03   -0.73482E-01   -0.72315E-01 10584   0.517E+01-0.113E+00
CGA:  47    -0.338436552255E+03   -0.48048E+00   -0.57213E+00 10584   0.352E+02-0.118E+01
CGA:  48    -0.338652344589E+03   -0.21579E+00   -0.42938E+00 10584   0.155E+02-0.612E+01
CGA:  49    -0.338793023349E+03   -0.14068E+00   -0.23249E+00 10584   0.298E+01-0.319E+01
CGA:  50    -0.338843057407E+03   -0.50034E-01   -0.51588E-01 10584   0.143E+01-0.366E-01
CGA:  51    -0.338921698144E+03   -0.78641E-01   -0.79479E-01 10584   0.345E+01-0.971E-01
CGA:  52    -0.339110895915E+03   -0.18920E+00   -0.19945E+00 10584   0.675E+01-0.644E+00
CGA:  53    -0.339228730624E+03   -0.11783E+00   -0.10852E+00 10584   0.365E+01-0.193E+00
CGA:  54    -0.339289327047E+03   -0.60596E-01   -0.58724E-01 10584   0.155E+01-0.194E+00
CGA:  55    -0.339322676839E+03   -0.33350E-01   -0.31243E-01 10584   0.131E+01-0.397E-01
CGA:  56    -0.339360321154E+03   -0.37644E-01   -0.37053E-01 10584   0.182E+01-0.601E-01
CGA:  57    -0.339418410836E+03   -0.58090E-01   -0.56808E-01 10584   0.260E+01-0.797E-01
CGA:  58    -0.339481589645E+03   -0.63179E-01   -0.59866E-01 10584   0.229E+01-0.751E-01
CGA:  59    -0.339523183322E+03   -0.41594E-01   -0.41897E-01 10584   0.121E+01-0.177E+00
CGA:  60    -0.339547441455E+03   -0.24258E-01   -0.24505E-01 10584   0.807E+00-0.121E+00
CGA:  61    -0.339572160056E+03   -0.24719E-01   -0.24314E-01 10584   0.807E+00-0.895E-01
CGA:  62    -0.339604008709E+03   -0.31849E-01   -0.32456E-01 10584   0.129E+01-0.114E+00
CGA:  63    -0.339642431678E+03   -0.38423E-01   -0.37744E-01 10584   0.815E+00-0.801E-01
CGA:  64    -0.339656577433E+03   -0.14146E-01   -0.13254E-01 10584   0.281E+00 0.154E-01
CGA:  65    -0.339663935614E+03   -0.73582E-02   -0.72378E-02 10584   0.299E+00-0.855E-02
CGA:  66    -0.339677666196E+03   -0.13731E-01   -0.14102E-01 10584   0.670E+00-0.357E-01
CGA:  67    -0.339696871978E+03   -0.19206E-01   -0.19029E-01 10584   0.747E+00-0.457E-01
CGA:  68    -0.339715211440E+03   -0.18339E-01   -0.14925E-01 10584   0.331E+00 0.794E-01
CGA:  69    -0.339720368705E+03   -0.51573E-02   -0.43108E-02 10584   0.163E+00 0.741E-01
CGA:  70    -0.339723484078E+03   -0.31154E-02   -0.31433E-02 10584   0.174E+00 0.166E-01
CGA:  71    -0.339727271799E+03   -0.37877E-02   -0.38901E-02 10584   0.317E+00 0.139E-01
CGA:  72    -0.339733311317E+03   -0.60395E-02   -0.60968E-02 10584   0.432E+00 0.151E-01
CGA:  73    -0.339739757035E+03   -0.64457E-02   -0.64596E-02 10584   0.375E+00-0.524E-02
SDA:  74    -0.339745164862E+03   -0.54078E-02   -0.50078E-02 10584   0.325E+00-0.206E-01
CGA:  75    -0.339762984154E+03   -0.17819E-01   -0.18176E-01 10584   0.807E-01-0.161E-01
CGA:  76    -0.339766751883E+03   -0.37677E-02   -0.40667E-02 10584   0.850E-01-0.156E-01
CGA:  77    -0.339778981181E+03   -0.12229E-01   -0.11371E-01 10584   0.742E-01 0.715E-02
CGA:  78    -0.339781578133E+03   -0.25970E-02   -0.25874E-02 10584   0.189E-01-0.285E-02
CGA:  79    -0.339784067359E+03   -0.24892E-02   -0.20202E-02 10584   0.205E-01 0.670E-02
CGA:  80    -0.339786601814E+03   -0.25345E-02   -0.27630E-02 10584   0.601E-01-0.415E-02
CGA:  81    -0.339789531990E+03   -0.29302E-02   -0.28583E-02 10584   0.400E-01 0.653E-02
CGA:  82    -0.339790379401E+03   -0.84741E-03   -0.97124E-03 10584   0.116E-01 0.596E-02
CGA:  83    -0.339790909691E+03   -0.53029E-03   -0.54571E-03 10584   0.138E-01 0.324E-02
CGA:  84    -0.339792068618E+03   -0.11589E-02   -0.10933E-02 10584   0.236E-01 0.403E-02
CGA:  85    -0.339793274311E+03   -0.12057E-02   -0.12380E-02 10584   0.968E-02 0.595E-02
CGA:  86    -0.339793772161E+03   -0.49785E-03   -0.49801E-03 10584   0.109E-01 0.102E-03
CGA:  87    -0.339788314534E+03    0.54576E-02   -0.34964E-02 10584   0.149E+00-0.304E-01
CGA:  88    -0.339795025985E+03   -0.67115E-02   -0.68155E-02 10584   0.407E-01 0.111E-01
CGA:  89    -0.339796650276E+03   -0.16243E-02   -0.18005E-02 10584   0.929E-02 0.645E-02
CGA:  90    -0.339797617844E+03   -0.96757E-03   -0.10089E-02 10584   0.300E-01-0.307E-02
CGA:  91    -0.339798790456E+03   -0.11726E-02   -0.10413E-02 10584   0.318E-01-0.446E-02
CGA:  92    -0.339799425265E+03   -0.63481E-03   -0.52066E-03 10584   0.937E-02-0.129E-02
CGA:  93    -0.339799811882E+03   -0.38662E-03   -0.27056E-03 10584   0.785E-02-0.241E-02
CGA:  94    -0.339798504734E+03    0.13071E-02   -0.11028E-02 10584   0.128E+00-0.202E-01
CGA:  95    -0.339801782833E+03   -0.32781E-02   -0.33549E-02 10584   0.187E-01 0.128E-01
CGA:  96    -0.339802460786E+03   -0.67795E-03   -0.77633E-03 10584   0.624E-02 0.290E-02
CGA:  97    -0.339802614567E+03   -0.15378E-03   -0.23922E-03 10584   0.174E-02 0.213E-02
CGA:  98    -0.339802685430E+03   -0.70863E-04   -0.95945E-04 10584   0.202E-02 0.797E-03
CGA:  99    -0.339803082443E+03   -0.39701E-03   -0.71362E-03 10584   0.663E-02-0.183E-02
CGA: 100    -0.339803473317E+03   -0.39087E-03   -0.34483E-03 10584   0.488E-02-0.178E-02
CGA: 101    -0.339803811397E+03   -0.33808E-03   -0.75066E-03 10584   0.210E-01-0.311E-02
CGA: 102    -0.339804353956E+03   -0.54256E-03   -0.48515E-03 10584   0.307E-02-0.116E-02
CGA: 103    -0.339804404604E+03   -0.50648E-04   -0.10928E-03 10584   0.788E-03 0.136E-02
CGA: 104    -0.339804414593E+03   -0.99881E-05   -0.38117E-04 10584   0.646E-03 0.614E-03
CGA: 105    -0.339804545711E+03   -0.13112E-03    0.80108E-04 10584   0.168E-02 0.102E-03
CGA: 106    -0.339804880834E+03   -0.33512E-03    0.66551E-03 10584   0.504E-03 0.137E-02
CGA: 107    -0.339804921302E+03   -0.40468E-04   -0.40129E-04 10584   0.125E-02 0.153E-03
CGA: 108    -0.339805256282E+03   -0.33498E-03    0.19416E-03 10584   0.407E-03 0.130E-02
CGA: 109    -0.339805331638E+03   -0.75357E-04    0.80196E-04 10584   0.430E-03 0.358E-03
CGA: 110    -0.339805421124E+03   -0.89486E-04    0.48578E-04 10584   0.557E-03 0.285E-03
CGA: 111    -0.339805461782E+03   -0.40658E-04   -0.40785E-04 10584   0.104E-02 0.320E-04
CGA: 112    -0.339805704874E+03   -0.24309E-03    0.10046E-03 10584   0.119E-02 0.946E-03
CGA: 113    -0.339805750364E+03   -0.45490E-04   -0.44922E-04 10584   0.552E-03-0.124E-04
CGA: 114    -0.339805873743E+03   -0.12338E-03    0.41141E-04 10584   0.734E-03 0.441E-03
CGA: 115    -0.339805891349E+03   -0.17606E-04   -0.25033E-04 10584   0.461E-03 0.181E-03
CGA: 116    -0.339806004529E+03   -0.11318E-03    0.61270E-04 10584   0.761E-03 0.449E-03
CGA: 117    -0.339806059506E+03   -0.54977E-04   -0.54422E-04 10584   0.148E-02-0.336E-03
CGA: 118    -0.339806234774E+03   -0.17527E-03    0.67359E-04 10584   0.276E-02 0.722E-03
CGA: 119    -0.339806604460E+03   -0.36969E-03   -0.46842E-03 10584   0.136E-01-0.238E-02
CGA: 120    -0.339806998754E+03   -0.39429E-03   -0.38570E-03 10584   0.350E-03-0.416E-03
CGA: 121    -0.339807061091E+03   -0.62337E-04    0.47206E-04 10584   0.316E-03 0.307E-03
CGA: 122    -0.339807120653E+03   -0.59561E-04    0.39041E-04 10584   0.330E-03 0.292E-03
CGA: 123    -0.339807179795E+03   -0.59142E-04    0.52678E-04 10584   0.384E-03 0.260E-03
CGA: 124    -0.339807184200E+03   -0.44047E-05   -0.10670E-03 10584   0.830E-02-0.497E-03
CGA: 125    -0.339807437400E+03   -0.25320E-03   -0.22747E-03 10584   0.660E-03-0.603E-03
CGA: 126    -0.339807442650E+03   -0.52499E-05   -0.16486E-04 10584   0.367E-03 0.208E-03
CGA: 127    -0.339807520485E+03   -0.77836E-04    0.48280E-03 10584   0.782E-03 0.359E-03
CGA: 128    -0.339807582301E+03   -0.61816E-04   -0.58593E-04 10584   0.486E-02-0.119E-02
CGA: 129    -0.339807621579E+03   -0.39278E-04   -0.80904E-04 10584   0.338E-03 0.682E-03
CGA: 130    -0.339807631998E+03   -0.10418E-04   -0.15105E-04 10584   0.559E-03 0.133E-03
CGA: 131    -0.339807779734E+03   -0.14774E-03    0.93200E-04 10584   0.920E-03 0.679E-03
CGA: 132    -0.339807842648E+03   -0.62913E-04   -0.52099E-04 10584   0.191E-02-0.684E-03
CGA: 133    -0.339807859092E+03   -0.16444E-04   -0.36024E-04 10584   0.327E-03 0.378E-03
CGA: 134    -0.339807893375E+03   -0.34284E-04   -0.36144E-04 10584   0.172E-02-0.805E-04
CGA: 135    -0.339805133988E+03    0.27594E-02   -0.15614E-02 10584   0.191E+00-0.846E-02
CGA: 136    -0.339810257292E+03   -0.51233E-02   -0.47949E-02 10584   0.131E-02 0.122E-01
CGA: 137    -0.339810275170E+03   -0.17878E-04   -0.32915E-04 10584   0.264E-03 0.162E-03
CGA: 138    -0.339810353594E+03   -0.78425E-04    0.14705E-03 10584   0.111E-02 0.656E-04
CGA: 139    -0.339810769151E+03   -0.41556E-03    0.30188E-03 10584   0.121E-02 0.112E-02
CGA: 140    -0.339810773832E+03   -0.46807E-05   -0.33287E-04 10584   0.382E-03 0.324E-03
CGA: 141    -0.339810780952E+03   -0.71203E-05   -0.22180E-04 10584   0.371E-03 0.223E-03
CGA: 142    -0.339810810896E+03   -0.29944E-04   -0.28968E-04 10584   0.707E-03-0.301E-04
CGA: 143    -0.339810962967E+03   -0.15207E-03    0.45593E-03 10584   0.745E-03 0.558E-03
CGA: 144    -0.339810992091E+03   -0.29124E-04   -0.29844E-04 10584   0.339E-03 0.719E-05
CGA: 145    -0.339811155477E+03   -0.16339E-03   -0.17722E-03 10584   0.258E-02-0.329E-04
CGA: 146    -0.339811892881E+03   -0.73740E-03    0.56375E-03 10584   0.268E-02 0.177E-02
CGA: 147    -0.339812210132E+03   -0.31725E-03   -0.30898E-03 10584   0.169E-02-0.790E-03
CGA: 148    -0.339812207023E+03    0.31090E-05   -0.41646E-04 10584   0.101E-02 0.498E-03
CGA: 149    -0.339812211077E+03   -0.40539E-05   -0.48892E-04 10584   0.409E-03 0.548E-03
CGA: 150    -0.339812245831E+03   -0.34754E-04   -0.32054E-04 10584   0.831E-03-0.727E-04
CGA: 151    -0.339812276090E+03   -0.30259E-04   -0.44493E-04 10584   0.977E-03 0.287E-03
CGA: 152    -0.339812400281E+03   -0.12419E-03   -0.11810E-03 10584   0.292E-02-0.273E-03
CGA: 153    -0.339807711052E+03    0.46892E-02   -0.29479E-02 10584   0.211E+00-0.979E-02
CGA: 154    -0.339813821615E+03   -0.61106E-02   -0.56442E-02 10584   0.249E-01 0.303E-01
CGA: 155    -0.339815317274E+03   -0.14957E-02   -0.17042E-02 10584   0.207E-01 0.191E-02
CGA: 156    -0.339816089907E+03   -0.77263E-03   -0.99958E-03 10584   0.629E-02 0.216E-02
CGA: 157    -0.339816655908E+03   -0.56600E-03   -0.53213E-03 10584   0.640E-02-0.325E-03
CGA: 158    -0.339816967712E+03   -0.31180E-03   -0.23951E-03 10584   0.103E-02-0.644E-03
CGA: 159    -0.339816983889E+03   -0.16176E-04   -0.35890E-04 10584   0.804E-03 0.159E-03
CGA: 160    -0.339817027387E+03   -0.43498E-04   -0.69451E-04 10584   0.588E-03 0.302E-03
CGA: 161    -0.339817080034E+03   -0.52647E-04   -0.46309E-04 10584   0.756E-03-0.697E-04
CGA: 162    -0.339817155246E+03   -0.75212E-04   -0.71989E-04 10584   0.176E-02-0.796E-04
CGA: 163    -0.339817257016E+03   -0.10177E-03   -0.72001E-04 10584   0.939E-03-0.277E-03
CGA: 164    -0.339817366401E+03   -0.10939E-03   -0.10530E-03 10584   0.567E-02-0.354E-03
CGA: 165    -0.339817490039E+03   -0.12364E-03   -0.14772E-03 10584   0.803E-02 0.252E-03
CGA: 166    -0.339817583852E+03   -0.93813E-04   -0.23853E-03 10584   0.287E-02-0.415E-03
CGA: 167    -0.339817696355E+03   -0.11250E-03   -0.15454E-03 10584   0.443E-02 0.406E-03
CGA: 168    -0.339818286809E+03   -0.59045E-03   -0.59248E-03 10584   0.158E-01-0.238E-04
CGA: 169    -0.339818976497E+03   -0.68969E-03   -0.66567E-03 10584   0.147E-01 0.600E-03
CGA: 170    -0.339819573458E+03   -0.59696E-03   -0.66446E-03 10584   0.192E-01-0.242E-02
CGA: 171    -0.339820692918E+03   -0.11195E-02   -0.76287E-03 10584   0.929E-02-0.234E-02
CGA: 172    -0.339821091733E+03   -0.39881E-03   -0.25246E-03 10584   0.879E-02-0.143E-02
CGA: 173    -0.339821878685E+03   -0.78695E-03   -0.76372E-03 10584   0.306E-01-0.220E-02
CGA: 174    -0.339822265769E+03   -0.38708E-03   -0.28322E-03 10584   0.208E-01 0.960E-02
CGA: 175    -0.339822607660E+03   -0.34189E-03   -0.44616E-03 10584   0.695E-02 0.148E-02
CGA: 176    -0.339822726651E+03   -0.11899E-03   -0.21403E-03 10584   0.859E-02 0.841E-03
CGA: 177    -0.339822984417E+03   -0.25777E-03   -0.35022E-03 10584   0.901E-02 0.928E-03
CGA: 178    -0.339823238440E+03   -0.25402E-03   -0.27834E-03 10584   0.714E-02 0.599E-03
CGA: 179    -0.339823435762E+03   -0.19732E-03   -0.21862E-03 10584   0.695E-02 0.799E-03
CGA: 180    -0.339823596785E+03   -0.16102E-03   -0.20488E-03 10584   0.660E-02 0.787E-03
CGA: 181    -0.339823772809E+03   -0.17602E-03   -0.22544E-03 10584   0.668E-02 0.290E-03
CGA: 182    -0.339823943245E+03   -0.17044E-03   -0.19113E-03 10584   0.411E-02-0.245E-03
CGA: 183    -0.339824030804E+03   -0.87560E-04   -0.10632E-03 10584   0.429E-02 0.229E-03
SDA: 184    -0.339824103577E+03   -0.72772E-04   -0.15270E-03 10584   0.646E-02 0.173E-02
CGA: 185    -0.339824194200E+03   -0.90623E-04   -0.17259E-03 10584   0.212E-02 0.168E-02
CGA: 186    -0.339824274030E+03   -0.79831E-04   -0.12524E-03 10584   0.239E-02 0.173E-02
CGA: 187    -0.339824435286E+03   -0.16126E-03   -0.15909E-03 10584   0.444E-02-0.416E-03
CGA: 188    -0.339824722400E+03   -0.28711E-03   -0.27730E-03 10584   0.465E-02 0.249E-02
CGA: 189    -0.339824800254E+03   -0.77854E-04   -0.11805E-03 10584   0.935E-03 0.905E-03
CGA: 190    -0.339824850112E+03   -0.49858E-04   -0.59729E-04 10584   0.142E-02 0.615E-03
CGA: 191    -0.339824934636E+03   -0.84524E-04   -0.85042E-04 10584   0.169E-02 0.541E-04
CGA: 192    -0.339825035043E+03   -0.10041E-03   -0.10931E-03 10584   0.161E-02 0.150E-02
CGA: 193    -0.339825085502E+03   -0.50460E-04   -0.62108E-04 10584   0.771E-03 0.402E-03
CGA: 194    -0.339825157515E+03   -0.72012E-04   -0.68303E-04 10584   0.112E-02 0.857E-03
CGA: 195    -0.339825199150E+03   -0.41636E-04   -0.50053E-04 10584   0.753E-03 0.384E-03
CGA: 196    -0.339825271549E+03   -0.72399E-04   -0.69541E-04 10584   0.967E-03 0.944E-03
CGA: 197    -0.339825311203E+03   -0.39654E-04   -0.45936E-04 10584   0.716E-03 0.344E-03
CGA: 198    -0.339825383263E+03   -0.72060E-04   -0.67656E-04 10584   0.856E-03 0.922E-03
CGA: 199    -0.339825416223E+03   -0.32960E-04   -0.39533E-04 10584   0.632E-03 0.347E-03
CGA: 200    -0.339825477990E+03   -0.61767E-04   -0.59440E-04 10584   0.789E-03 0.840E-03
   1 F= -.33982548E+03 E0= -.33982134E+03  d E =-.339825E+03  mag=    14.0000
       N       E                     dE             d eps       ncg     rms          ort
SDA:   1    -0.339823078110E+03    0.23381E-02    0.00000E+00 10584   0.213E+00 0.000E+00
CGA:   2    -0.339829172477E+03   -0.60944E-02   -0.60120E-02 10584   0.506E-02 0.824E-03
CGA:   3    -0.339830079739E+03   -0.90726E-03   -0.75439E-03 10584   0.838E-02 0.175E-02
CGA:   4    -0.339830743744E+03   -0.66401E-03   -0.65092E-03 10584   0.799E-02-0.158E-02
CGA:   5    -0.339831026001E+03   -0.28226E-03   -0.31595E-03 10584   0.172E-02 0.197E-02
CGA:   6    -0.339831056858E+03   -0.30857E-04   -0.62971E-04 10584   0.118E-02 0.902E-03
CGA:   7    -0.339831164380E+03   -0.10752E-03   -0.12511E-03 10584   0.467E-02-0.419E-03
CGA:   8    -0.339831225403E+03   -0.61023E-04   -0.98626E-04 10584   0.427E-02 0.115E-02
CGA:   9    -0.339831252948E+03   -0.27545E-04   -0.90538E-04 10584   0.664E-03 0.132E-02
CGA:  10    -0.339831255342E+03   -0.23943E-05   -0.19267E-04 10584   0.640E-03 0.429E-03
CGA:  11    -0.339831337707E+03   -0.82365E-04    0.22471E-03 10584   0.807E-03 0.223E-03
CGA:  12    -0.339831447822E+03   -0.11011E-03   -0.94753E-04 10584   0.347E-03 0.549E-03
CGA:  13    -0.339831504959E+03   -0.57137E-04   -0.52793E-04 10584   0.174E-02 0.455E-04
CGA:  14    -0.339831600029E+03   -0.95069E-04   -0.10970E-03 10584   0.778E-03 0.154E-02
CGA:  15    -0.339831622955E+03   -0.22927E-04   -0.27587E-04 10584   0.478E-03 0.156E-03
CGA:  16    -0.339831717909E+03   -0.94954E-04    0.59051E-04 10584   0.387E-03 0.363E-03
CGA:  17    -0.339831743271E+03   -0.25361E-04   -0.25130E-04 10584   0.543E-03 0.138E-03
CGA:  18    -0.339831755291E+03   -0.12020E-04   -0.27867E-04 10584   0.353E-03 0.619E-03
CGA:  19    -0.339831786382E+03   -0.31091E-04   -0.28775E-04 10584   0.652E-03 0.118E-03
CGA:  20    -0.339831910500E+03   -0.12412E-03    0.21002E-03 10584   0.420E-03 0.648E-03
CGA:  21    -0.339831910056E+03    0.44379E-06   -0.11322E-04 10584   0.302E-03 0.326E-03
CGA:  22    -0.339831919508E+03   -0.94520E-05   -0.13757E-04 10584   0.268E-03 0.274E-03
CGA:  23    -0.339831939950E+03   -0.20442E-04   -0.18366E-04 10584   0.269E-03 0.262E-03
CGA:  24    -0.339832117348E+03   -0.17740E-03   -0.16579E-03 10584   0.190E-02 0.174E-03
CGA:  25    -0.339832122640E+03   -0.52921E-05   -0.36886E-04 10584   0.267E-03 0.333E-03
CGA:  26    -0.339832124533E+03   -0.18932E-05   -0.13955E-04 10584   0.475E-03 0.193E-03
CGA:  27    -0.339832173921E+03   -0.49388E-04   -0.44638E-04 10584   0.309E-02-0.510E-03
CGA:  28    -0.339832193652E+03   -0.19731E-04   -0.58519E-04 10584   0.275E-03 0.440E-03
CGA:  29    -0.339832195531E+03   -0.18790E-05   -0.12693E-04 10584   0.428E-03 0.184E-03
CGA:  30    -0.339832223367E+03   -0.27836E-04   -0.60402E-04 10584   0.618E-02-0.724E-03
CGA:  31    -0.339832284782E+03   -0.61415E-04   -0.11668E-03 10584   0.290E-03 0.645E-03
CGA:  32    -0.339832286113E+03   -0.13307E-05   -0.11887E-04 10584   0.382E-03 0.184E-03
CGA:  33    -0.339832163318E+03    0.12279E-03   -0.10585E-03 10584   0.194E-01-0.124E-02
CGA:  34    -0.339832434852E+03   -0.27153E-03   -0.37584E-03 10584   0.298E-03 0.103E-02
CGA:  35    -0.339832438530E+03   -0.36788E-05   -0.13618E-04 10584   0.386E-03 0.186E-03
CGA:  36    -0.339832358214E+03    0.80316E-04   -0.97841E-04 10584   0.163E-01-0.112E-02
CGA:  37    -0.339832578927E+03   -0.22071E-03   -0.31551E-03 10584   0.300E-03 0.944E-03
CGA:  38    -0.339832583203E+03   -0.42759E-05   -0.14094E-04 10584   0.401E-03 0.183E-03
CGA:  39    -0.339832561801E+03    0.21402E-04   -0.82295E-04 10584   0.114E-01-0.948E-03
CGA:  40    -0.339832703543E+03   -0.14174E-03   -0.21854E-03 10584   0.305E-03 0.825E-03
CGA:  41    -0.339832707915E+03   -0.43711E-05   -0.14027E-04 10584   0.409E-03 0.179E-03
CGA:  42    -0.339832695334E+03    0.12581E-04   -0.79641E-04 10584   0.105E-01-0.923E-03
CGA:  43    -0.339832824473E+03   -0.12914E-03   -0.20148E-03 10584   0.314E-03 0.809E-03
CGA:  44    -0.339832829701E+03   -0.52286E-05   -0.14420E-04 10584   0.417E-03 0.175E-03
CGA:  45    -0.339832824690E+03    0.50119E-05   -0.77384E-04 10584   0.962E-02-0.890E-03
CGA:  46    -0.339832942726E+03   -0.11804E-03   -0.18565E-03 10584   0.325E-03 0.793E-03
CGA:  47    -0.339832949206E+03   -0.64798E-05   -0.15036E-04 10584   0.428E-03 0.169E-03
CGA:  48    -0.339832956247E+03   -0.70416E-05   -0.73156E-04 10584   0.826E-02-0.826E-03
CGA:  49    -0.339833055792E+03   -0.99545E-04   -0.15999E-03 10584   0.336E-03 0.753E-03
CGA:  50    -0.339833063715E+03   -0.79232E-05   -0.15729E-04 10584   0.441E-03 0.162E-03
CGA:  51    -0.339833513638E+03   -0.44992E-03   -0.84055E-04 10584   0.124E-01 0.152E-03
CGA:  52    -0.339835983835E+03   -0.24702E-02   -0.15378E-02 10584   0.618E-01 0.499E-02
CGA:  53    -0.339836714889E+03   -0.73105E-03   -0.11917E-02 10584   0.136E+00-0.517E-01
CGA:  54    -0.339839227992E+03   -0.25131E-02   -0.28136E-02 10584   0.327E-02 0.260E-02
CGA:  55    -0.339839352962E+03   -0.12497E-03   -0.12496E-03 10584   0.121E-02-0.135E-04
CGA:  56    -0.339839617525E+03   -0.26456E-03   -0.23953E-03 10584   0.197E-02 0.410E-03
CGA:  57    -0.339839646818E+03   -0.29293E-04   -0.92704E-04 10584   0.921E-03 0.568E-03
CGA:  58    -0.339840260938E+03   -0.61412E-03   -0.45317E-03 10584   0.309E-02 0.628E-03
CGA:  59    -0.339840315593E+03   -0.54656E-04   -0.84734E-04 10584   0.110E-02 0.227E-03
CGA:  60    -0.339840680044E+03   -0.36445E-03    0.10355E-02 10584   0.149E-02 0.524E-03
CGA:  61    -0.339840969500E+03   -0.28946E-03   -0.27041E-03 10584   0.793E-02-0.980E-03
CGA:  62    -0.339841087942E+03   -0.11844E-03   -0.18179E-03 10584   0.867E-03 0.736E-03
CGA:  63    -0.339841140984E+03   -0.53041E-04   -0.62378E-04 10584   0.137E-02 0.131E-03
CGA:  64    -0.339841399727E+03   -0.25874E-03   -0.24778E-03 10584   0.343E-02 0.436E-03
CGA:  65    -0.339841604972E+03   -0.20525E-03   -0.25342E-03 10584   0.397E-02 0.601E-03
CGA:  66    -0.339840278634E+03    0.13263E-02   -0.25955E-02 10584   0.120E+00-0.109E-01
CGA:  67    -0.339843963444E+03   -0.36848E-02   -0.38063E-02 10584   0.358E-01 0.108E-01
CGA:  68    -0.339846045201E+03   -0.20818E-02   -0.21973E-02 10584   0.150E-01 0.238E-02
CGA:  69    -0.339846877329E+03   -0.83213E-03   -0.89583E-03 10584   0.100E-01 0.983E-03
CGA:  70    -0.339848481020E+03   -0.16037E-02   -0.16572E-02 10584   0.461E-02-0.290E-02
CGA:  71    -0.339848648801E+03   -0.16778E-03   -0.10336E-03 10584   0.265E-02-0.627E-03
CGA:  72    -0.339849061719E+03   -0.41292E-03   -0.38587E-03 10584   0.526E-02 0.734E-03
CGA:  73    -0.339849267804E+03   -0.20609E-03   -0.29008E-03 10584   0.416E-02 0.847E-03
CGA:  74    -0.339850034297E+03   -0.76649E-03   -0.16430E-02 10584   0.434E-01-0.440E-02
CGA:  75    -0.339851171874E+03   -0.11376E-02   -0.12504E-02 10584   0.806E-02 0.434E-02
CGA:  76    -0.339851671220E+03   -0.49935E-03   -0.55783E-03 10584   0.690E-02 0.839E-03
CGA:  77    -0.339852023125E+03   -0.35191E-03   -0.43059E-03 10584   0.304E-02 0.112E-02
CGA:  78    -0.339852541828E+03   -0.51870E-03   -0.54750E-03 10584   0.933E-02-0.103E-02
CGA:  79    -0.339852848740E+03   -0.30691E-03   -0.17782E-03 10584   0.438E-02-0.135E-02
CGA:  80    -0.339853036738E+03   -0.18800E-03   -0.13940E-03 10584   0.618E-02-0.674E-03
CGA:  81    -0.339853388817E+03   -0.35208E-03   -0.38330E-03 10584   0.165E-01 0.565E-03
CGA:  82    -0.339854313845E+03   -0.92503E-03   -0.10774E-02 10584   0.191E-01 0.234E-02
CGA:  83    -0.339855588073E+03   -0.12742E-02   -0.11153E-02 10584   0.250E-01-0.192E-03
CGA:  84    -0.339858209284E+03   -0.26212E-02   -0.23829E-02 10584   0.131E+00-0.116E-01
CGA:  85    -0.339859065233E+03   -0.85595E-03   -0.41783E-03 10584   0.156E+00 0.288E-01
CGA:  86    -0.339863966585E+03   -0.49014E-02   -0.33203E-02 10584   0.140E+00 0.469E-01
CGA:  87    -0.339870515485E+03   -0.65489E-02   -0.56644E-02 10584   0.126E+00 0.299E-02
CGA:  88    -0.339877481998E+03   -0.69665E-02   -0.47866E-02 10584   0.124E+00 0.892E-02
CGA:  89    -0.339882822569E+03   -0.53406E-02   -0.36500E-02 10584   0.125E+00 0.165E-01
CGA:  90    -0.339887846269E+03   -0.50237E-02   -0.39857E-02 10584   0.960E-01-0.892E-04
CGA:  91    -0.339890024258E+03   -0.21780E-02   -0.23178E-02 10584   0.518E-01-0.135E-01
CGA:  92    -0.339891594939E+03   -0.15707E-02   -0.16935E-02 10584   0.623E-01-0.394E-02
CGA:  93    -0.339894330165E+03   -0.27352E-02   -0.23072E-02 10584   0.422E-01-0.872E-02
CGA:  94    -0.339896211598E+03   -0.18814E-02   -0.14463E-02 10584   0.432E-01-0.922E-02
CGA:  95    -0.339897440665E+03   -0.12291E-02   -0.96633E-03 10584   0.337E-01-0.604E-02
CGA:  96    -0.339898496031E+03   -0.10554E-02   -0.97202E-03 10584   0.409E-01-0.358E-02
CGA:  97    -0.339900193536E+03   -0.16975E-02   -0.16022E-02 10584   0.438E-01-0.461E-02
CGA:  98    -0.339901536231E+03   -0.13427E-02   -0.12498E-02 10584   0.416E-01-0.261E-02
CGA:  99    -0.339902818404E+03   -0.12822E-02   -0.13797E-02 10584   0.364E-01 0.271E-02
CGA: 100    -0.339903495226E+03   -0.67682E-03   -0.93088E-03 10584   0.204E-01 0.603E-02
CGA: 101    -0.339904007445E+03   -0.51222E-03   -0.73325E-03 10584   0.226E-01 0.644E-02
CGA: 102    -0.339904870249E+03   -0.86280E-03   -0.10709E-02 10584   0.197E-01 0.762E-02
CGA: 103    -0.339905651439E+03   -0.78119E-03   -0.93260E-03 10584   0.195E-01 0.537E-02
CGA: 104    -0.339906347300E+03   -0.69586E-03   -0.87095E-03 10584   0.161E-01 0.665E-02
SDA: 105    -0.339906807365E+03   -0.46007E-03   -0.63676E-03 10584   0.121E-01 0.566E-02
CGA: 106    -0.339909133266E+03   -0.23259E-02   -0.30765E-02 10584   0.101E+00-0.386E-02
CGA: 107    -0.339911111242E+03   -0.19780E-02   -0.22780E-02 10584   0.666E-01 0.839E-02
CGA: 108    -0.339912102795E+03   -0.99155E-03   -0.13837E-02 10584   0.216E-01 0.952E-02
CGA: 109    -0.339912521994E+03   -0.41920E-03   -0.61873E-03 10584   0.159E-01 0.596E-02
CGA: 110    -0.339913033126E+03   -0.51113E-03   -0.64677E-03 10584   0.163E-01 0.434E-02
CGA: 111    -0.339913804250E+03   -0.77112E-03   -0.86655E-03 10584   0.236E-01 0.509E-02
CGA: 112    -0.339914562907E+03   -0.75866E-03   -0.95301E-03 10584   0.137E-01 0.713E-02
CGA: 113    -0.339914913208E+03   -0.35030E-03   -0.46753E-03 10584   0.110E-01 0.371E-02
CGA: 114    -0.339915557596E+03   -0.64439E-03   -0.65947E-03 10584   0.140E-01 0.157E-02
CGA: 115    -0.339916044336E+03   -0.48674E-03   -0.44461E-03 10584   0.453E-02-0.170E-02
CGA: 116    -0.339916248547E+03   -0.20421E-03   -0.20462E-03 10584   0.103E-01 0.112E-03
CGA: 117    -0.339916811666E+03   -0.56312E-03   -0.56949E-03 10584   0.120E-01 0.680E-02
CGA: 118    -0.339916964148E+03   -0.15248E-03   -0.23639E-03 10584   0.166E-02 0.241E-02
CGA: 119    -0.339917001646E+03   -0.37498E-04   -0.61389E-04 10584   0.165E-02 0.109E-02
CGA: 120    -0.339916982361E+03    0.19285E-04   -0.26266E-03 10584   0.228E-01-0.265E-02
CGA: 121    -0.339917304102E+03   -0.32174E-03   -0.42875E-03 10584   0.846E-03 0.272E-02
CGA: 122    -0.339917323934E+03   -0.19832E-04   -0.28689E-04 10584   0.787E-03 0.354E-03
CGA: 123    -0.339917457416E+03   -0.13348E-03    0.27802E-03 10584   0.112E-02 0.874E-03
CGA: 124    -0.339917437894E+03    0.19522E-04   -0.13586E-03 10584   0.136E-01-0.233E-02
CGA: 125    -0.339917611959E+03   -0.17406E-03   -0.25190E-03 10584   0.706E-03 0.201E-02
CGA: 126    -0.339917622906E+03   -0.10947E-04   -0.20525E-04 10584   0.547E-03 0.319E-03
CGA: 127    -0.339917636556E+03   -0.13650E-04   -0.39126E-04 10584   0.201E-01-0.889E-03
CGA: 128    -0.339918228903E+03   -0.59235E-03   -0.58497E-03 10584   0.140E-02-0.113E-02
CGA: 129    -0.339918220567E+03    0.83358E-05   -0.27182E-04 10584   0.413E-03 0.478E-03
CGA: 130    -0.339918214973E+03    0.55940E-05   -0.15378E-04 10584   0.518E-03 0.331E-03
CGA: 131    -0.339916607040E+03    0.16079E-02   -0.86738E-03 10584   0.116E+00-0.406E-02
CGA: 132    -0.339918552337E+03   -0.19453E-02   -0.24081E-02 10584   0.996E-03-0.103E-02
CGA: 133    -0.339918624396E+03   -0.72060E-04   -0.54448E-04 10584   0.769E-03-0.183E-03
CGA: 134    -0.339918814917E+03   -0.19052E-03    0.21459E-02 10584   0.913E-03 0.305E-03
CGA: 135    -0.339919001601E+03   -0.18668E-03   -0.18521E-03 10584   0.690E-02-0.450E-03
CGA: 136    -0.339919053200E+03   -0.51599E-04   -0.78153E-04 10584   0.141E-01 0.318E-03
CGA: 137    -0.339919336690E+03   -0.28349E-03   -0.49772E-03 10584   0.123E-01 0.251E-02
CGA: 138    -0.339919652403E+03   -0.31571E-03   -0.44770E-03 10584   0.107E-01 0.197E-02
CGA: 139    -0.339920250984E+03   -0.59858E-03   -0.53749E-03 10584   0.140E-01-0.662E-03
CGA: 140    -0.339920998254E+03   -0.74727E-03   -0.52529E-03 10584   0.154E-01-0.127E-02
CGA: 141    -0.339921328384E+03   -0.33013E-03   -0.26582E-03 10584   0.617E-02 0.135E-02
CGA: 142    -0.339921372566E+03   -0.44181E-04   -0.10592E-03 10584   0.306E-02 0.946E-03
CGA: 143    -0.339921359829E+03    0.12737E-04   -0.79108E-04 10584   0.349E-02 0.106E-02
CGA: 144    -0.339921366918E+03   -0.70888E-05   -0.11098E-03 10584   0.201E-02 0.132E-02
CGA: 145    -0.339921397298E+03   -0.30380E-04   -0.51819E-04 10584   0.556E-03 0.206E-03
CGA: 146    -0.339921459248E+03   -0.61950E-04   -0.66878E-04 10584   0.525E-02-0.509E-03
CGA: 147    -0.339921519155E+03   -0.59907E-04   -0.10325E-03 10584   0.367E-03 0.559E-03
CGA: 148    -0.339921547107E+03   -0.27951E-04   -0.62172E-04 10584   0.376E-02-0.594E-03
CGA: 149    -0.339921663870E+03   -0.11676E-03   -0.10525E-03 10584   0.450E-03-0.267E-03
CGA: 150    -0.339921652787E+03    0.11082E-04   -0.78214E-05 10584   0.207E-03 0.247E-03
CGA: 151    -0.339921648341E+03    0.44461E-05   -0.53806E-05 10584   0.151E-03 0.150E-03
CGA: 152    -0.339921664606E+03   -0.16265E-04   -0.15022E-04 10584   0.162E-03 0.110E-03
CGA: 153    -0.339921663387E+03    0.12188E-05   -0.47183E-05 10584   0.126E-03 0.993E-04
   2 F= -.33992166E+03 E0= -.33991742E+03  d E =-.961854E-01  mag=    14.0000
       N       E                     dE             d eps       ncg     rms          ort
SDA:   1    -0.339872372377E+03    0.49292E-01    0.00000E+00 10584   0.532E+00 0.000E+00
CGA:   2    -0.339887772928E+03   -0.15401E-01   -0.14897E-01 10584   0.197E+00-0.181E-01
CGA:   3    -0.339933682538E+03   -0.45910E-01   -0.45549E-01 10584   0.610E-01 0.226E-02
CGA:   4    -0.339938253476E+03   -0.45709E-02   -0.45640E-02 10584   0.953E-01-0.732E-03
CGA:   5    -0.339942557687E+03   -0.43042E-02   -0.46832E-02 10584   0.181E-01 0.975E-02
CGA:   6    -0.339944104870E+03   -0.15472E-02   -0.15501E-02 10584   0.164E-01 0.396E-03
CGA:   7    -0.339945158767E+03   -0.10539E-02   -0.98143E-03 10584   0.957E-02-0.268E-02
CGA:   8    -0.339945320727E+03   -0.16196E-03   -0.25028E-03 10584   0.387E-02 0.166E-02
CGA:   9    -0.339945403278E+03   -0.82551E-04   -0.16670E-03 10584   0.235E-02 0.185E-02
CGA:  10    -0.339945502657E+03   -0.99379E-04   -0.12544E-03 10584   0.103E-02 0.576E-03
CGA:  11    -0.339945631709E+03   -0.12905E-03   -0.12381E-03 10584   0.111E-02 0.291E-03
CGA:  12    -0.339945703216E+03   -0.71508E-04   -0.75711E-04 10584   0.946E-03 0.157E-03
CGA:  13    -0.339944291242E+03    0.14120E-02   -0.38403E-03 10584   0.472E-01-0.641E-02
CGA:  14    -0.339945252235E+03   -0.96099E-03   -0.11737E-02 10584   0.808E-02 0.490E-02
CGA:  15    -0.339945548501E+03   -0.29627E-03   -0.37433E-03 10584   0.219E-02 0.181E-02
CGA:  16    -0.339945622886E+03   -0.74385E-04   -0.10139E-03 10584   0.119E-02 0.555E-03
CGA:  17    -0.339945658807E+03   -0.35921E-04   -0.63762E-04 10584   0.973E-03 0.680E-03
CGA:  18    -0.339942951732E+03    0.27071E-02   -0.15002E-02 10584   0.101E+00-0.705E-02
CGA:  19    -0.339945817328E+03   -0.28656E-02   -0.28550E-02 10584   0.470E-02 0.113E-01
CGA:  20    -0.339945911195E+03   -0.93866E-04   -0.20147E-03 10584   0.110E-02 0.119E-02
CGA:  21    -0.339945910278E+03    0.91733E-06   -0.39530E-04 10584   0.137E-03 0.387E-03
   3 F= -.33994591E+03 E0= -.33994170E+03  d E =-.242469E-01  mag=    14.0000
       N       E                     dE             d eps       ncg     rms          ort
SDA:   1    -0.339586864092E+03    0.35905E+00    0.00000E+00 10584   0.934E+00 0.000E+00
CGA:   2    -0.339858308641E+03   -0.27144E+00   -0.27169E+00 10584   0.126E+01-0.543E-03
CGA:   3    -0.339904410973E+03   -0.46102E-01   -0.41446E-01 10584   0.406E+00 0.165E+00
CGA:   4    -0.339934746600E+03   -0.30336E-01   -0.31163E-01 10584   0.456E+00 0.810E-02
CGA:   5    -0.339960785234E+03   -0.26039E-01   -0.26970E-01 10584   0.195E+00 0.584E-04
CGA:   6    -0.339967436548E+03   -0.66513E-02   -0.65565E-02 10584   0.103E+00 0.103E-01
CGA:   7    -0.339975329713E+03   -0.78932E-02   -0.77672E-02 10584   0.501E-01-0.389E-02
CGA:   8    -0.339977429650E+03   -0.20999E-02   -0.20763E-02 10584   0.426E-01-0.108E-02
CGA:   9    -0.339979135102E+03   -0.17055E-02   -0.19907E-02 10584   0.108E-01 0.598E-02
CGA:  10    -0.339979474024E+03   -0.33892E-03   -0.45246E-03 10584   0.964E-02 0.163E-02
CGA:  11    -0.339980762896E+03   -0.12889E-02   -0.13019E-02 10584   0.945E-02-0.116E-02
CGA:  12    -0.339981055199E+03   -0.29230E-03   -0.26079E-03 10584   0.378E-02-0.590E-03
CGA:  13    -0.339981171735E+03   -0.11654E-03   -0.16342E-03 10584   0.413E-02 0.855E-03
CGA:  14    -0.339981499724E+03   -0.32799E-03   -0.36672E-03 10584   0.403E-02 0.140E-02
CGA:  15    -0.339981772413E+03   -0.27269E-03   -0.23612E-03 10584   0.211E-02-0.724E-03
CGA:  16    -0.339981868566E+03   -0.96154E-04   -0.11527E-03 10584   0.851E-03 0.654E-03
CGA:  17    -0.339981935134E+03   -0.66567E-04   -0.79269E-04 10584   0.106E-02 0.544E-03
CGA:  18    -0.339982029497E+03   -0.94364E-04   -0.85125E-04 10584   0.304E-02-0.725E-03
CGA:  19    -0.339982041319E+03   -0.11822E-04   -0.60982E-04 10584   0.417E-03 0.684E-03
CGA:  20    -0.339982040282E+03    0.10372E-05   -0.13952E-04 10584   0.363E-03 0.244E-03
CGA:  21    -0.339982107340E+03   -0.67058E-04    0.21033E-03 10584   0.915E-03 0.379E-04
CGA:  22    -0.339982162918E+03   -0.55578E-04   -0.67876E-04 10584   0.378E-03 0.657E-03
CGA:  23    -0.339982157240E+03    0.56780E-05   -0.80054E-05 10584   0.187E-03 0.215E-03
CGA:  24    -0.339982163569E+03   -0.63288E-05   -0.10521E-04 10584   0.182E-03 0.164E-03
CGA:  25    -0.339982184556E+03   -0.20987E-04   -0.18224E-04 10584   0.231E-03 0.143E-03
CGA:  26    -0.339982190908E+03   -0.63513E-05   -0.10622E-04 10584   0.195E-03 0.121E-03
CGA:  27    -0.339982198210E+03   -0.73026E-05   -0.10581E-04 10584   0.201E-03 0.130E-03
CGA:  28    -0.339982220337E+03   -0.22127E-04   -0.21432E-04 10584   0.642E-03 0.261E-04
CGA:  29    -0.339982241664E+03   -0.21327E-04   -0.38504E-04 10584   0.454E-03 0.644E-03
CGA:  30    -0.339982255344E+03   -0.13680E-04   -0.15999E-04 10584   0.187E-03 0.550E-04
CGA:  31    -0.339982313143E+03   -0.57799E-04   -0.42530E-04 10584   0.859E-03 0.125E-03
CGA:  32    -0.339982307684E+03    0.54592E-05   -0.15726E-04 10584   0.203E-03 0.332E-03
   4 F= -.33998231E+03 E0= -.33997805E+03  d E =-.363974E-01  mag=    14.0000
       N       E                     dE             d eps       ncg     rms          ort
SDA:   1    -0.339776065751E+03    0.20625E+00    0.00000E+00 10584   0.568E+00 0.000E+00
CGA:   2    -0.339891529562E+03   -0.11546E+00   -0.11721E+00 10584   0.133E+01-0.117E-01
CGA:   3    -0.339952283948E+03   -0.60754E-01   -0.62929E-01 10584   0.437E+00-0.137E-01
CGA:   4    -0.339969430333E+03   -0.17146E-01   -0.17740E-01 10584   0.238E+00 0.286E-01
CGA:   5    -0.339984751449E+03   -0.15321E-01   -0.15471E-01 10584   0.124E+00 0.110E-01
CGA:   6    -0.339994191937E+03   -0.94405E-02   -0.94036E-02 10584   0.114E+00-0.751E-02
CGA:   7    -0.339997176490E+03   -0.29846E-02   -0.31589E-02 10584   0.206E-01 0.375E-02
CGA:   8    -0.339998365872E+03   -0.11894E-02   -0.12678E-02 10584   0.247E-01 0.492E-02
CGA:   9    -0.339999773522E+03   -0.14076E-02   -0.14396E-02 10584   0.692E-02 0.108E-02
CGA:  10    -0.340000409955E+03   -0.63643E-03   -0.63953E-03 10584   0.544E-02-0.186E-03
CGA:  11    -0.340000870958E+03   -0.46100E-03   -0.48946E-03 10584   0.639E-02-0.156E-02
CGA:  12    -0.340001042911E+03   -0.17195E-03   -0.21688E-03 10584   0.248E-02 0.166E-02
CGA:  13    -0.340001079620E+03   -0.36708E-04   -0.91507E-04 10584   0.135E-02 0.126E-02
CGA:  14    -0.340001356428E+03   -0.27681E-03   -0.32322E-03 10584   0.535E-02-0.271E-03
CGA:  15    -0.340001457156E+03   -0.10073E-03   -0.14194E-03 10584   0.145E-02 0.908E-03
CGA:  16    -0.340001472840E+03   -0.15684E-04   -0.37999E-04 10584   0.570E-03 0.419E-03
CGA:  17    -0.340001499721E+03   -0.26880E-04   -0.35718E-04 10584   0.110E-02 0.340E-03
CGA:  18    -0.340001567673E+03   -0.67952E-04   -0.63245E-04 10584   0.110E-02-0.293E-03
CGA:  19    -0.340001656963E+03   -0.89290E-04   -0.76845E-04 10584   0.707E-03 0.560E-03
CGA:  20    -0.340001663593E+03   -0.66304E-05   -0.18797E-04 10584   0.242E-03 0.261E-03
CGA:  21    -0.340001668867E+03   -0.52737E-05   -0.12829E-04 10584   0.352E-03 0.232E-03
CGA:  22    -0.340001702412E+03   -0.33545E-04   -0.37346E-04 10584   0.119E-02-0.103E-03
CGA:  23    -0.340001749990E+03   -0.47578E-04   -0.53435E-04 10584   0.210E-02 0.718E-03
CGA:  24    -0.340001781621E+03   -0.31631E-04   -0.50776E-04 10584   0.235E-03 0.422E-03
CGA:  25    -0.340001783467E+03   -0.18459E-05   -0.85589E-05 10584   0.246E-03 0.175E-03
CGA:  26    -0.340001823749E+03   -0.40282E-04   -0.37063E-04 10584   0.962E-03 0.400E-04
CGA:  27    -0.340001909147E+03   -0.85398E-04   -0.82591E-04 10584   0.475E-03 0.104E-02
CGA:  28    -0.340001911139E+03   -0.19915E-05   -0.11893E-04 10584   0.197E-03 0.216E-03
   5 F= -.34000191E+03 E0= -.33999756E+03  d E =-.196035E-01  mag=    14.0000
       N       E                     dE             d eps       ncg     rms          ort
SDA:   1    -0.337720958777E+03    0.22810E+01    0.00000E+00 10584   0.597E+01 0.000E+00
CGA:   2    -0.338812378128E+03   -0.10914E+01   -0.10496E+01 10584   0.143E+02 0.462E+00
CGA:   3    -0.339455237137E+03   -0.64286E+00   -0.63494E+00 10584   0.504E+01-0.261E+00
CGA:   4    -0.339676783610E+03   -0.22155E+00   -0.21486E+00 10584   0.250E+01 0.678E-01
CGA:   5    -0.339855981216E+03   -0.17920E+00   -0.17909E+00 10584   0.236E+01 0.452E-01
CGA:   6    -0.339945833179E+03   -0.89852E-01   -0.87300E-01 10584   0.687E+00 0.627E-01
CGA:   7    -0.339982472917E+03   -0.36640E-01   -0.36313E-01 10584   0.381E+00-0.602E-02
CGA:   8    -0.340004359589E+03   -0.21887E-01   -0.21799E-01 10584   0.324E+00-0.114E-01
CGA:   9    -0.340017328673E+03   -0.12969E-01   -0.13211E-01 10584   0.719E-01 0.193E-01
CGA:  10    -0.340020676247E+03   -0.33476E-02   -0.34805E-02 10584   0.503E-01 0.808E-02
CGA:  11    -0.340026133105E+03   -0.54569E-02   -0.57390E-02 10584   0.962E-01-0.758E-02
CGA:  12    -0.340028992699E+03   -0.28596E-02   -0.28939E-02 10584   0.204E-01 0.136E-02
CGA:  13    -0.340029380824E+03   -0.38813E-03   -0.54259E-03 10584   0.120E-01 0.387E-02
CGA:  14    -0.340030161828E+03   -0.78100E-03   -0.81082E-03 10584   0.169E-01 0.498E-02
CGA:  15    -0.340031640535E+03   -0.14787E-02   -0.14777E-02 10584   0.198E-01-0.162E-02
CGA:  16    -0.340032487861E+03   -0.84733E-03   -0.80411E-03 10584   0.742E-02-0.251E-02
CGA:  17    -0.340032615589E+03   -0.12773E-03   -0.16415E-03 10584   0.465E-02 0.948E-03
CGA:  18    -0.340032894041E+03   -0.27845E-03   -0.28900E-03 10584   0.810E-02 0.225E-02
CGA:  19    -0.340033612569E+03   -0.71853E-03   -0.71822E-03 10584   0.278E-02 0.142E-02
CGA:  20    -0.340033820464E+03   -0.20789E-03   -0.20862E-03 10584   0.299E-02-0.167E-03
CGA:  21    -0.340034028382E+03   -0.20792E-03   -0.19580E-03 10584   0.211E-02 0.123E-02
CGA:  22    -0.340034143690E+03   -0.11531E-03   -0.13125E-03 10584   0.173E-02 0.979E-03
CGA:  23    -0.340034316885E+03   -0.17320E-03   -0.16442E-03 10584   0.146E-02 0.157E-02
CGA:  24    -0.340034413252E+03   -0.96367E-04   -0.10143E-03 10584   0.263E-02-0.520E-03
CGA:  25    -0.340033843526E+03    0.56973E-03   -0.34843E-03 10584   0.326E-01-0.383E-02
CGA:  26    -0.340034552382E+03   -0.70886E-03   -0.98709E-03 10584   0.361E-02 0.550E-02
CGA:  27    -0.340034691787E+03   -0.13941E-03   -0.19685E-03 10584   0.266E-02 0.102E-02
CGA:  28    -0.340035151654E+03   -0.45987E-03   -0.46474E-03 10584   0.245E-02-0.145E-03
CGA:  29    -0.340035233721E+03   -0.82067E-04   -0.76496E-04 10584   0.726E-03-0.763E-04
CGA:  30    -0.340035330171E+03   -0.96449E-04   -0.15781E-03 10584   0.724E-02-0.495E-03
CGA:  31    -0.340035474693E+03   -0.14452E-03   -0.21146E-03 10584   0.698E-03 0.100E-02
CGA:  32    -0.340035473170E+03    0.15232E-05   -0.27705E-04 10584   0.509E-03 0.432E-03
CGA:  33    -0.340035583667E+03   -0.11050E-03    0.29503E-03 10584   0.610E-03 0.279E-03
CGA:  34    -0.340035594321E+03   -0.10654E-04   -0.25360E-04 10584   0.390E-03 0.254E-03
CGA:  35    -0.340035634247E+03   -0.39925E-04   -0.46000E-04 10584   0.594E-03 0.443E-03
CGA:  36    -0.340033481704E+03    0.21525E-02   -0.11917E-02 10584   0.925E-01-0.469E-02
CGA:  37    -0.340036035430E+03   -0.25537E-02   -0.25564E-02 10584   0.354E-02 0.115E-01
CGA:  38    -0.340036032658E+03    0.27722E-05   -0.99095E-04 10584   0.416E-03 0.900E-03
CGA:  39    -0.340036013852E+03    0.18806E-04   -0.14565E-04 10584   0.332E-03 0.256E-03
CGA:  40    -0.340036141169E+03   -0.12732E-03    0.10541E-03 10584   0.679E-03 0.202E-03
CGA:  41    -0.340036121788E+03    0.19381E-04   -0.19895E-04 10584   0.307E-03 0.321E-03
CGA:  42    -0.340036112809E+03    0.89789E-05   -0.21184E-04 10584   0.480E-03 0.300E-03
CGA:  43    -0.340036265112E+03   -0.15230E-03    0.31130E-03 10584   0.282E-02-0.366E-03
CGA:  44    -0.340036254731E+03    0.10381E-04   -0.67987E-04 10584   0.409E-03 0.724E-03
CGA:  45    -0.340036238216E+03    0.16515E-04   -0.13618E-04 10584   0.330E-03 0.277E-03
CGA:  46    -0.340036336216E+03   -0.98000E-04    0.16790E-03 10584   0.859E-03 0.163E-03
CGA:  47    -0.340036520147E+03   -0.18393E-03   -0.17809E-03 10584   0.112E-02 0.806E-03
CGA:  48    -0.340036595218E+03   -0.75071E-04   -0.48068E-04 10584   0.755E-03-0.318E-03
CGA:  49    -0.340036702580E+03   -0.10736E-03   -0.89087E-04 10584   0.452E-03 0.487E-03
CGA:  50    -0.340036760413E+03   -0.57833E-04   -0.69228E-04 10584   0.415E-02-0.479E-03
CGA:  51    -0.340036820641E+03   -0.60228E-04   -0.99686E-04 10584   0.344E-03 0.449E-03
CGA:  52    -0.340036821346E+03   -0.70512E-06   -0.17789E-04 10584   0.406E-03 0.219E-03
CGA:  53    -0.340036873849E+03   -0.52503E-04   -0.69359E-04 10584   0.383E-02-0.342E-03
CGA:  54    -0.340036941959E+03   -0.68110E-04   -0.96010E-04 10584   0.331E-03 0.336E-03
CGA:  55    -0.340036945875E+03   -0.39161E-05   -0.18977E-04 10584   0.405E-03 0.229E-03
CGA:  56    -0.340036996371E+03   -0.50495E-04   -0.70898E-04 10584   0.375E-02-0.344E-03
CGA:  57    -0.340037071834E+03   -0.75463E-04   -0.98973E-04 10584   0.337E-03 0.283E-03
CGA:  58    -0.340037070916E+03    0.91800E-06   -0.16288E-04 10584   0.348E-03 0.251E-03
CGA:  59    -0.340036557130E+03    0.51379E-03   -0.27971E-03 10584   0.376E-01-0.125E-02
CGA:  60    -0.340037477796E+03   -0.92067E-03   -0.99384E-03 10584   0.103E-02 0.194E-02
CGA:  61    -0.340037454740E+03    0.23056E-04   -0.28963E-04 10584   0.279E-03 0.337E-03
CGA:  62    -0.340037441551E+03    0.13189E-04   -0.15983E-04 10584   0.422E-03 0.209E-03
CGA:  63    -0.340035018062E+03    0.24235E-02   -0.36866E-03 10584   0.118E+00-0.395E-02
CGA:  64    -0.340037814175E+03   -0.27961E-02   -0.26839E-02 10584   0.825E-02 0.285E-01
CGA:  65    -0.340037890313E+03   -0.76138E-04   -0.21952E-03 10584   0.628E-03 0.171E-02
CGA:  66    -0.340037875926E+03    0.14387E-04   -0.18946E-04 10584   0.250E-03 0.210E-03
CGA:  67    -0.340037879236E+03   -0.33102E-05   -0.21288E-04 10584   0.677E-03 0.149E-03
CGA:  68    -0.340037948678E+03   -0.69442E-04   -0.40625E-04 10584   0.789E-03-0.245E-03
CGA:  69    -0.340038129184E+03   -0.18051E-03    0.12439E-02 10584   0.201E-02 0.257E-03
CGA:  70    -0.340038207071E+03   -0.77887E-04   -0.17520E-03 10584   0.642E-03 0.923E-03
CGA:  71    -0.340038334344E+03   -0.12727E-03   -0.12666E-03 10584   0.287E-02-0.194E-04
CGA:  72    -0.340038831635E+03   -0.49729E-03   -0.50783E-03 10584   0.213E-01-0.719E-03
CGA:  73    -0.340039268518E+03   -0.43688E-03   -0.34021E-03 10584   0.282E-01 0.538E-02
CGA:  74    -0.340040350145E+03   -0.10816E-02   -0.13299E-02 10584   0.233E-01-0.230E-02
CGA:  75    -0.340040855273E+03   -0.50513E-03   -0.10973E-02 10584   0.300E-02-0.765E-02
CGA:  76    -0.340040952437E+03   -0.97164E-04   -0.80710E-04 10584   0.179E-02-0.166E-03
CGA:  77    -0.340041200709E+03   -0.24827E-03   -0.25486E-03 10584   0.677E-02-0.896E-03
CGA:  78    -0.340041239221E+03   -0.38512E-04   -0.10443E-03 10584   0.676E-02 0.346E-03
CGA:  79    -0.340041232571E+03    0.66497E-05   -0.18167E-03 10584   0.173E-02 0.832E-03
CGA:  80    -0.340041213542E+03    0.19029E-04   -0.57242E-04 10584   0.149E-02 0.712E-03
CGA:  81    -0.340041321199E+03   -0.10766E-03   -0.15289E-03 10584   0.269E-02 0.781E-03
CGA:  82    -0.340041630548E+03   -0.30935E-03   -0.19788E-03 10584   0.406E-02-0.226E-02
CGA:  83    -0.340041631728E+03   -0.11801E-05   -0.99288E-04 10584   0.567E-03 0.106E-02
CGA:  84    -0.340041621355E+03    0.10373E-04   -0.19039E-04 10584   0.361E-03 0.332E-03
CGA:  85    -0.340041738319E+03   -0.11696E-03    0.46174E-04 10584   0.656E-03 0.169E-03
CGA:  86    -0.340041795692E+03   -0.57373E-04   -0.73644E-04 10584   0.327E-03 0.449E-03
CGA:  87    -0.340041822877E+03   -0.27186E-04   -0.46224E-04 10584   0.392E-02-0.625E-03
CGA:  88    -0.340041846387E+03   -0.23509E-04   -0.81941E-04 10584   0.205E-03 0.621E-03
CGA:  89    -0.340041842493E+03    0.38938E-05   -0.56291E-05 10584   0.144E-03 0.112E-03
CGA:  90    -0.340041882631E+03   -0.40138E-04    0.21124E-04 10584   0.233E-03 0.917E-04
CGA:  91    -0.340041874103E+03    0.85276E-05   -0.41464E-05 10584   0.125E-03 0.147E-03
   6 F= -.34004187E+03 E0= -.34003680E+03  d E =-.399630E-01  mag=    14.0000
       N       E                     dE             d eps       ncg     rms          ort
SDA:   1    -0.335317014137E+03    0.47249E+01    0.00000E+00 10584   0.125E+02 0.000E+00
CGA:   2    -0.337859507007E+03   -0.25425E+01   -0.23147E+01 10584   0.171E+02 0.233E+01
CGA:   3    -0.338955877992E+03   -0.10964E+01   -0.96889E+00 10584   0.840E+01 0.103E+01
CGA:   4    -0.339270034298E+03   -0.31416E+00   -0.34024E+00 10584   0.869E+01-0.617E+00
CGA:   5    -0.339595271084E+03   -0.32524E+00   -0.33829E+00 10584   0.668E+01-0.396E+00
CGA:   6    -0.339853289283E+03   -0.25802E+00   -0.21420E+00 10584   0.227E+01 0.901E+00
CGA:   7    -0.339915419611E+03   -0.62130E-01   -0.68899E-01 10584   0.118E+01-0.159E+00
CGA:   8    -0.339953617213E+03   -0.38198E-01   -0.36637E-01 10584   0.105E+01 0.489E-01
CGA:   9    -0.339995458099E+03   -0.41841E-01   -0.42856E-01 10584   0.757E+00-0.346E-01
CGA:  10    -0.340018212872E+03   -0.22755E-01   -0.23782E-01 10584   0.395E+00-0.366E-01
CGA:  11    -0.340027442798E+03   -0.92299E-02   -0.96383E-02 10584   0.167E+00 0.103E-01
CGA:  12    -0.340032151253E+03   -0.47085E-02   -0.49512E-02 10584   0.108E+00 0.878E-02
CGA:  13    -0.340037343041E+03   -0.51918E-02   -0.52337E-02 10584   0.142E+00-0.259E-02
CGA:  14    -0.340043278838E+03   -0.59358E-02   -0.57849E-02 10584   0.122E+00-0.878E-02
CGA:  15    -0.340046332355E+03   -0.30535E-02   -0.31258E-02 10584   0.449E-01 0.217E-02
CGA:  16    -0.340047209636E+03   -0.87728E-03   -0.10851E-02 10584   0.197E-01 0.372E-02
CGA:  17    -0.340047949748E+03   -0.74011E-03   -0.79022E-03 10584   0.236E-01 0.168E-02
CGA:  18    -0.340049690694E+03   -0.17409E-02   -0.17542E-02 10584   0.486E-01-0.410E-02
CGA:  19    -0.340051013723E+03   -0.13230E-02   -0.12509E-02 10584   0.291E-01-0.314E-02
CGA:  20    -0.340051421261E+03   -0.40754E-03   -0.48289E-03 10584   0.866E-02 0.153E-02
CGA:  21    -0.340051503503E+03   -0.82242E-04   -0.16585E-03 10584   0.521E-02 0.181E-02
CGA:  22    -0.340051628722E+03   -0.12522E-03   -0.18309E-03 10584   0.728E-02 0.191E-02
CGA:  23    -0.340052106437E+03   -0.47771E-03   -0.48792E-03 10584   0.111E-01 0.119E-02
CGA:  24    -0.340052531234E+03   -0.42480E-03   -0.38299E-03 10584   0.431E-02-0.162E-02
CGA:  25    -0.340052620156E+03   -0.88922E-04   -0.76768E-04 10584   0.168E-02-0.369E-03
CGA:  26    -0.340052638447E+03   -0.18291E-04   -0.32261E-04 10584   0.138E-02 0.416E-03
CGA:  27    -0.340052665028E+03   -0.26582E-04   -0.46784E-04 10584   0.157E-02 0.793E-03
CGA:  28    -0.340052750321E+03   -0.85292E-04   -0.11770E-03 10584   0.417E-02-0.137E-02
CGA:  29    -0.340052814234E+03   -0.63913E-04   -0.89562E-04 10584   0.373E-03 0.824E-03
CGA:  30    -0.340052820392E+03   -0.61579E-05   -0.11762E-04 10584   0.304E-03 0.229E-03
CGA:  31    -0.340052853022E+03   -0.32630E-04    0.89301E-04 10584   0.244E-03 0.189E-03
CGA:  32    -0.340052857791E+03   -0.47692E-05   -0.78289E-05 10584   0.178E-03 0.175E-03
   7 F= -.34005286E+03 E0= -.34004767E+03  d E =-.109837E-01  mag=    14.0000
       N       E                     dE             d eps       ncg     rms          ort
SDA:   1    -0.337142894206E+03    0.29100E+01    0.00000E+00 10584   0.961E+01 0.000E+00
CGA:   2    -0.337870195813E+03   -0.72730E+00   -0.72980E+00 10584   0.162E+02-0.840E-01
CGA:   3    -0.339534160162E+03   -0.16640E+01   -0.16776E+01 10584   0.318E+01-0.582E+00
CGA:   4    -0.339703828530E+03   -0.16967E+00   -0.17039E+00 10584   0.301E+01 0.114E-01
CGA:   5    -0.339950589692E+03   -0.24676E+00   -0.24650E+00 10584   0.963E+00-0.149E-01
CGA:   6    -0.339987924354E+03   -0.37335E-01   -0.36793E-01 10584   0.477E+00 0.323E-02
CGA:   7    -0.340033937761E+03   -0.46013E-01   -0.45899E-01 10584   0.173E+00 0.669E-02
CGA:   8    -0.340040956078E+03   -0.70183E-02   -0.71352E-02 10584   0.844E-01 0.153E-02
CGA:   9    -0.340051746600E+03   -0.10791E-01   -0.10935E-01 10584   0.820E-01-0.352E-02
CGA:  10    -0.340054013770E+03   -0.22672E-02   -0.25107E-02 10584   0.148E-01 0.506E-02
CGA:  11    -0.340056525106E+03   -0.25113E-02   -0.23747E-02 10584   0.277E-01 0.199E-02
CGA:  12    -0.340058051300E+03   -0.15262E-02   -0.14378E-02 10584   0.776E-02-0.332E-02
CGA:  13    -0.340058462042E+03   -0.41074E-03   -0.44344E-03 10584   0.490E-02 0.169E-02
CGA:  14    -0.340059265103E+03   -0.80306E-03   -0.91438E-03 10584   0.160E-01-0.155E-02
CGA:  15    -0.340059603400E+03   -0.33830E-03   -0.35164E-03 10584   0.559E-02 0.642E-04
CGA:  16    -0.340059671681E+03   -0.68281E-04   -0.10513E-03 10584   0.172E-02 0.513E-03
CGA:  17    -0.340059723403E+03   -0.51723E-04   -0.75154E-04 10584   0.289E-02 0.571E-03
CGA:  18    -0.340060027838E+03   -0.30443E-03   -0.30404E-03 10584   0.220E-02 0.605E-03
CGA:  19    -0.340060162384E+03   -0.13455E-03   -0.96872E-04 10584   0.865E-03-0.924E-03
CGA:  20    -0.340060209546E+03   -0.47162E-04   -0.48992E-04 10584   0.676E-03-0.854E-04
CGA:  21    -0.340060210867E+03   -0.13208E-05   -0.17703E-04 10584   0.341E-03 0.337E-03
CGA:  22    -0.340060220959E+03   -0.10092E-04   -0.19215E-04 10584   0.330E-03 0.243E-03
CGA:  23    -0.340060282031E+03   -0.61072E-04    0.45931E-04 10584   0.469E-03-0.346E-04
CGA:  24    -0.340060309291E+03   -0.27260E-04   -0.28314E-04 10584   0.174E-03 0.183E-03
CGA:  25    -0.340060303522E+03    0.57694E-05   -0.34758E-05 10584   0.715E-04 0.158E-03
   8 F= -.34006030E+03 E0= -.34005506E+03  d E =-.744573E-02  mag=    14.0000
       N       E                     dE             d eps       ncg     rms          ort
SDA:   1    -0.339298424989E+03    0.76188E+00    0.00000E+00 10584   0.216E+01 0.000E+00
CGA:   2    -0.339583889499E+03   -0.28546E+00   -0.27243E+00 10584   0.399E+01 0.208E+00
CGA:   3    -0.339933768992E+03   -0.34988E+00   -0.35435E+00 10584   0.941E+00-0.239E+00
CGA:   4    -0.339988842674E+03   -0.55074E-01   -0.54705E-01 10584   0.630E+00-0.384E-01
CGA:   5    -0.340037270939E+03   -0.48428E-01   -0.48195E-01 10584   0.278E+00 0.218E-01
CGA:   6    -0.340050949789E+03   -0.13679E-01   -0.13738E-01 10584   0.101E+00-0.346E-02
CGA:   7    -0.340059409208E+03   -0.84594E-02   -0.84842E-02 10584   0.666E-01-0.191E-02
CGA:   8    -0.340062635441E+03   -0.32262E-02   -0.32653E-02 10584   0.169E-01 0.266E-02
CGA:   9    -0.340064021111E+03   -0.13857E-02   -0.13870E-02 10584   0.198E-01-0.242E-03
CGA:  10    -0.340065621880E+03   -0.16008E-02   -0.16142E-02 10584   0.700E-02-0.109E-02
CGA:  11    -0.340065848518E+03   -0.22664E-03   -0.26882E-03 10584   0.207E-02 0.142E-02
CGA:  12    -0.340065972167E+03   -0.12365E-03   -0.13079E-03 10584   0.215E-01-0.249E-02
CGA:  13    -0.340066459301E+03   -0.48713E-03   -0.56984E-03 10584   0.189E-02 0.933E-03
CGA:  14    -0.340066768064E+03   -0.30876E-03   -0.29734E-03 10584   0.159E-02 0.383E-03
CGA:  15    -0.340066930888E+03   -0.16282E-03   -0.10697E-03 10584   0.140E-02-0.852E-03
CGA:  16    -0.340066926066E+03    0.48216E-05   -0.30537E-04 10584   0.205E-03 0.353E-03
   9 F= -.34006693E+03 E0= -.34006155E+03  d E =-.662254E-02  mag=    14.0000
       N       E                     dE             d eps       ncg     rms          ort
SDA:   1    -0.339514094671E+03    0.55284E+00    0.00000E+00 10584   0.145E+01 0.000E+00
CGA:   2    -0.339760778405E+03   -0.24668E+00   -0.24595E+00 10584   0.405E+01 0.594E-02
CGA:   3    -0.339976819369E+03   -0.21604E+00   -0.21807E+00 10584   0.484E+00-0.629E-02
CGA:   4    -0.340007071342E+03   -0.30252E-01   -0.30647E-01 10584   0.504E+00 0.155E-01
CGA:   5    -0.340048847915E+03   -0.41777E-01   -0.41625E-01 10584   0.110E+00-0.966E-02
CGA:   6    -0.340055205275E+03   -0.63574E-02   -0.64183E-02 10584   0.828E-01 0.545E-03
CGA:   7    -0.340061237825E+03   -0.60325E-02   -0.60653E-02 10584   0.183E-01 0.103E-02
CGA:   8    -0.340062811014E+03   -0.15732E-02   -0.15061E-02 10584   0.259E-01-0.335E-02
CGA:   9    -0.340064182501E+03   -0.13715E-02   -0.14300E-02 10584   0.455E-02 0.174E-02
CGA:  10    -0.340064335049E+03   -0.15255E-03   -0.20425E-03 10584   0.339E-02 0.873E-03
CGA:  11    -0.340064928612E+03   -0.59356E-03   -0.60514E-03 10584   0.179E-02-0.218E-03
CGA:  12    -0.340065037011E+03   -0.10840E-03   -0.88823E-04 10584   0.186E-02-0.440E-03
CGA:  13    -0.340065244104E+03   -0.20709E-03   -0.20753E-03 10584   0.123E-02-0.984E-05
CGA:  14    -0.340065283297E+03   -0.39192E-04   -0.43345E-04 10584   0.558E-03 0.604E-04
CGA:  15    -0.340065326167E+03   -0.42870E-04   -0.23589E-03 10584   0.273E-02-0.629E-03
CGA:  16    -0.340065377428E+03   -0.51261E-04   -0.78821E-04 10584   0.499E-03 0.343E-03
CGA:  17    -0.340065455993E+03   -0.78566E-04   -0.74861E-04 10584   0.649E-03 0.143E-03
CGA:  18    -0.340065534411E+03   -0.78418E-04   -0.57938E-04 10584   0.728E-03-0.524E-03
CGA:  19    -0.340065533266E+03    0.11452E-05   -0.15288E-04 10584   0.822E-04 0.192E-03
  10 F= -.34006553E+03 E0= -.34006014E+03  d E =0.139280E-02  mag=    14.0000
       N       E                     dE             d eps       ncg     rms          ort
SDA:   1    -0.336920704027E+03    0.31448E+01    0.00000E+00 10584   0.836E+01 0.000E+00
CGA:   2    -0.338220411131E+03   -0.12997E+01   -0.12527E+01 10584   0.189E+02 0.763E+00
CGA:   3    -0.339512291327E+03   -0.12919E+01   -0.11870E+01 10584   0.319E+01 0.117E+01
CGA:   4    -0.339687688992E+03   -0.17540E+00   -0.18398E+00 10584   0.275E+01-0.924E-01
CGA:   5    -0.339931537882E+03   -0.24385E+00   -0.24409E+00 10584   0.168E+01 0.824E-02
CGA:   6    -0.339985272068E+03   -0.53734E-01   -0.53194E-01 10584   0.293E+00 0.661E-01
CGA:   7    -0.340004147773E+03   -0.18876E-01   -0.18919E-01 10584   0.331E+00 0.766E-03
CGA:   8    -0.340026640266E+03   -0.22492E-01   -0.22408E-01 10584   0.151E+00-0.935E-02
CGA:   9    -0.340031131348E+03   -0.44911E-02   -0.47886E-02 10584   0.463E-01 0.565E-02
CGA:  10    -0.340034849254E+03   -0.37179E-02   -0.37495E-02 10584   0.627E-01 0.350E-02
CGA:  11    -0.340039029032E+03   -0.41798E-02   -0.40768E-02 10584   0.245E-01-0.475E-02
CGA:  12    -0.340039758915E+03   -0.72988E-03   -0.79598E-03 10584   0.971E-02 0.135E-02
CGA:  13    -0.340040633586E+03   -0.87467E-03   -0.87124E-03 10584   0.144E-01 0.176E-02
CGA:  14    -0.340042048052E+03   -0.14145E-02   -0.14134E-02 10584   0.150E-01-0.384E-02
CGA:  15    -0.340042391906E+03   -0.34385E-03   -0.35485E-03 10584   0.464E-02 0.203E-03
CGA:  16    -0.340042487579E+03   -0.95673E-04   -0.14767E-03 10584   0.339E-02 0.101E-02
CGA:  17    -0.340042767157E+03   -0.27958E-03   -0.28623E-03 10584   0.608E-02 0.733E-03
CGA:  18    -0.340043279829E+03   -0.51267E-03   -0.49739E-03 10584   0.364E-02-0.147E-02
CGA:  19    -0.340043339503E+03   -0.59675E-04   -0.61871E-04 10584   0.113E-02 0.288E-04
CGA:  20    -0.340043360555E+03   -0.21052E-04   -0.32158E-04 10584   0.109E-02 0.237E-03
CGA:  21    -0.340043455812E+03   -0.95257E-04   -0.95263E-04 10584   0.238E-02 0.642E-04
CGA:  22    -0.340043615667E+03   -0.15986E-03   -0.13379E-03 10584   0.176E-02-0.136E-02
CGA:  23    -0.340043671388E+03   -0.55721E-04   -0.55184E-04 10584   0.450E-03-0.264E-04
CGA:  24    -0.340043708288E+03   -0.36899E-04   -0.35203E-04 10584   0.226E-03 0.167E-03
CGA:  25    -0.340043704163E+03    0.41248E-05   -0.63333E-05 10584   0.103E-03 0.212E-03
  11 F= -.34004370E+03 E0= -.34003816E+03  d E =0.218291E-01  mag=    14.0000
       N       E                     dE             d eps       ncg     rms          ort
SDA:   1    -0.328111163733E+03    0.11933E+02    0.00000E+00 10584   0.301E+02 0.000E+00
CGA:   2    -0.334840408190E+03   -0.67292E+01   -0.58040E+01 10584   0.305E+02 0.776E+01
CGA:   3    -0.337434621242E+03   -0.25942E+01   -0.19223E+01 10584   0.131E+02-0.173E+01
CGA:   4    -0.338424788802E+03   -0.99017E+00   -0.99253E+00 10584   0.306E+02-0.165E+00
CGA:   5    -0.339310637215E+03   -0.88585E+00   -0.92091E+00 10584   0.108E+02-0.183E+01
CGA:   6    -0.339616004046E+03   -0.30537E+00   -0.25168E+00 10584   0.210E+01 0.130E+01
CGA:   7    -0.339680666366E+03   -0.64662E-01   -0.64917E-01 10584   0.156E+01 0.564E-01
CGA:   8    -0.339775153104E+03   -0.94487E-01   -0.94234E-01 10584   0.289E+01-0.157E-01
CGA:   9    -0.339859659095E+03   -0.84506E-01   -0.85257E-01 10584   0.105E+01-0.647E-01
CGA:  10    -0.339882745257E+03   -0.23086E-01   -0.25217E-01 10584   0.353E+00-0.758E-01
CGA:  11    -0.339895000291E+03   -0.12255E-01   -0.12486E-01 10584   0.397E+00 0.997E-02
CGA:  12    -0.339917456076E+03   -0.22456E-01   -0.22485E-01 10584   0.335E+00 0.718E-02
CGA:  13    -0.339928266801E+03   -0.10811E-01   -0.10680E-01 10584   0.120E+00-0.167E-01
CGA:  14    -0.339932687265E+03   -0.44205E-02   -0.43789E-02 10584   0.829E-01-0.577E-02
CGA:  15    -0.339938085198E+03   -0.53979E-02   -0.53354E-02 10584   0.126E+00 0.558E-02
CGA:  16    -0.339943741150E+03   -0.56560E-02   -0.56487E-02 10584   0.506E-01-0.161E-02
CGA:  17    -0.339946494067E+03   -0.27529E-02   -0.27356E-02 10584   0.400E-01-0.878E-02
CGA:  18    -0.339948079054E+03   -0.15850E-02   -0.15976E-02 10584   0.299E-01 0.145E-02
CGA:  19    -0.339949419892E+03   -0.13408E-02   -0.13743E-02 10584   0.139E-01 0.265E-02
CGA:  20    -0.339950602232E+03   -0.11823E-02   -0.13590E-02 10584   0.374E-01-0.522E-02
CGA:  21    -0.339951448371E+03   -0.84614E-03   -0.80253E-03 10584   0.244E-01-0.205E-02
CGA:  22    -0.339951795690E+03   -0.34732E-03   -0.40103E-03 10584   0.676E-02 0.138E-02
CGA:  23    -0.339951910397E+03   -0.11471E-03   -0.15384E-03 10584   0.454E-02 0.115E-02
CGA:  24    -0.339952119735E+03   -0.20934E-03   -0.21250E-03 10584   0.747E-02 0.233E-03
CGA:  25    -0.339952602001E+03   -0.48227E-03   -0.56723E-03 10584   0.215E-01-0.423E-02
CGA:  26    -0.339953138161E+03   -0.53616E-03   -0.53166E-03 10584   0.120E-02-0.335E-03
CGA:  27    -0.339952430977E+03    0.70718E-03   -0.38998E-03 10584   0.526E-01-0.406E-02
CGA:  28    -0.339953424979E+03   -0.99400E-03   -0.11908E-02 10584   0.133E-02 0.282E-02
CGA:  29    -0.339953459947E+03   -0.34968E-04   -0.46004E-04 10584   0.487E-03 0.190E-03
CGA:  30    -0.339953590514E+03   -0.13057E-03    0.72474E-04 10584   0.521E-03 0.227E-03
CGA:  31    -0.339950764896E+03    0.28256E-02   -0.15387E-02 10584   0.116E+00-0.682E-02
CGA:  32    -0.339953616222E+03   -0.28513E-02   -0.29110E-02 10584   0.779E-02 0.305E-02
CGA:  33    -0.339953882524E+03   -0.26630E-03   -0.40851E-03 10584   0.504E-02 0.133E-02
CGA:  34    -0.339954224912E+03   -0.34239E-03   -0.37417E-03 10584   0.279E-03 0.351E-03
CGA:  35    -0.339954242969E+03   -0.18058E-04   -0.17648E-04 10584   0.396E-03-0.649E-05
CGA:  36    -0.339954279337E+03   -0.36368E-04   -0.39915E-04 10584   0.368E-03 0.959E-04
CGA:  37    -0.339954187031E+03    0.92306E-04   -0.12891E-03 10584   0.143E-01-0.155E-02
CGA:  38    -0.339954498553E+03   -0.31152E-03   -0.37397E-03 10584   0.511E-03 0.862E-03
CGA:  39    -0.339954515254E+03   -0.16701E-04   -0.29465E-04 10584   0.515E-03 0.149E-03
CGA:  40    -0.339953764757E+03    0.75050E-03   -0.38435E-03 10584   0.116E-01-0.256E-02
CGA:  41    -0.339954070152E+03   -0.30539E-03   -0.43282E-03 10584   0.534E-02 0.104E-02
CGA:  42    -0.339954702936E+03   -0.63278E-03   -0.64804E-03 10584   0.424E-02 0.376E-03
CGA:  43    -0.339954879619E+03   -0.17668E-03   -0.16118E-03 10584   0.220E-03-0.207E-03
CGA:  44    -0.339954839372E+03    0.40247E-04   -0.82086E-04 10584   0.674E-02-0.493E-03
CGA:  45    -0.339954993758E+03   -0.15439E-03   -0.16300E-03 10584   0.274E-03 0.159E-04
CGA:  46    -0.339955035718E+03   -0.41960E-04   -0.34468E-04 10584   0.167E-02-0.315E-03
CGA:  47    -0.339955039217E+03   -0.34991E-05   -0.36608E-04 10584   0.109E-03 0.261E-03
  12 F= -.33995504E+03 E0= -.33994917E+03  d E =0.886649E-01  mag=    14.0000
       N       E                     dE             d eps       ncg     rms          ort
SDA:   1    -0.338398982700E+03    0.15561E+01    0.00000E+00 10584   0.405E+01 0.000E+00
CGA:   2    -0.339550402077E+03   -0.11514E+01   -0.11504E+01 10584   0.352E+01 0.642E-02
CGA:   3    -0.339670627185E+03   -0.12023E+00   -0.16195E+00 10584   0.294E+01-0.816E+00
CGA:   4    -0.339874040981E+03   -0.20341E+00   -0.20289E+00 10584   0.617E+00-0.137E-04
CGA:   5    -0.339912687777E+03   -0.38647E-01   -0.37201E-01 10584   0.534E+00 0.241E-01
CGA:   6    -0.339954847485E+03   -0.42160E-01   -0.42097E-01 10584   0.132E+00-0.743E-02
CGA:   7    -0.339960975531E+03   -0.61280E-02   -0.61190E-02 10584   0.102E+00 0.949E-03
CGA:   8    -0.339970373660E+03   -0.93981E-02   -0.93917E-02 10584   0.391E-01-0.185E-03
CGA:   9    -0.339972138387E+03   -0.17647E-02   -0.17908E-02 10584   0.196E-01 0.347E-03
CGA:  10    -0.339975219643E+03   -0.30813E-02   -0.30830E-02 10584   0.773E-02-0.580E-04
CGA:  11    -0.339975700771E+03   -0.48113E-03   -0.48119E-03 10584   0.784E-02-0.443E-05
CGA:  12    -0.339976539714E+03   -0.83894E-03   -0.84233E-03 10584   0.579E-02 0.298E-03
CGA:  13    -0.339976850568E+03   -0.31085E-03   -0.25870E-03 10584   0.279E-02-0.755E-03
CGA:  14    -0.339977168473E+03   -0.31791E-03   -0.31606E-03 10584   0.228E-02 0.112E-03
CGA:  15    -0.339977306565E+03   -0.13809E-03   -0.13300E-03 10584   0.140E-02-0.897E-04
CGA:  16    -0.339977446410E+03   -0.13985E-03   -0.13901E-03 10584   0.136E-02-0.989E-04
CGA:  17    -0.339977520832E+03   -0.74422E-04   -0.63743E-04 10584   0.572E-03-0.182E-03
CGA:  18    -0.339977541218E+03   -0.20386E-04   -0.27028E-04 10584   0.243E-03 0.122E-03
CGA:  19    -0.339977614607E+03   -0.73389E-04    0.90359E-04 10584   0.247E-03 0.867E-04
CGA:  20    -0.339977626952E+03   -0.12345E-04   -0.18363E-04 10584   0.656E-04 0.118E-03
CGA:  21    -0.339977649637E+03   -0.22685E-04    0.38092E-04 10584   0.771E-04 0.522E-04
CGA:  22    -0.339977657450E+03   -0.78122E-05   -0.61903E-05 10584   0.314E-03-0.707E-04
  13 F= -.33997766E+03 E0= -.33997187E+03  d E =-.226182E-01  mag=    14.0000
       N       E                     dE             d eps       ncg     rms          ort
SDA:   1    -0.339805308462E+03    0.17234E+00    0.00000E+00 10584   0.513E+00 0.000E+00
CGA:   2    -0.339873923815E+03   -0.68615E-01   -0.68621E-01 10584   0.128E+01 0.245E-02
CGA:   3    -0.339954091356E+03   -0.80168E-01   -0.80630E-01 10584   0.203E+00-0.152E-01
CGA:   4    -0.339974808127E+03   -0.20717E-01   -0.20709E-01 10584   0.241E+00 0.455E-03
CGA:   5    -0.339985598038E+03   -0.10790E-01   -0.10757E-01 10584   0.467E-01 0.162E-02
CGA:   6    -0.339988959600E+03   -0.33616E-02   -0.33969E-02 10584   0.527E-01 0.157E-02
CGA:   7    -0.339992214321E+03   -0.32547E-02   -0.32019E-02 10584   0.838E-02-0.176E-02
CGA:   8    -0.339992980564E+03   -0.76624E-03   -0.76471E-03 10584   0.890E-02 0.907E-03
CGA:   9    -0.339993704094E+03   -0.72353E-03   -0.69474E-03 10584   0.553E-02-0.134E-02
CGA:  10    -0.339993891743E+03   -0.18765E-03   -0.20058E-03 10584   0.177E-02 0.267E-03
CGA:  11    -0.339994064282E+03   -0.17254E-03   -0.17225E-03 10584   0.248E-02 0.722E-04
CGA:  12    -0.339994302741E+03   -0.23846E-03   -0.24165E-03 10584   0.148E-02-0.766E-03
CGA:  13    -0.339994341877E+03   -0.39137E-04   -0.41145E-04 10584   0.604E-03 0.386E-04
CGA:  14    -0.339994395983E+03   -0.54106E-04   -0.54105E-04 10584   0.115E-02-0.190E-05
CGA:  15    -0.339994489355E+03   -0.93372E-04   -0.91530E-04 10584   0.343E-03-0.262E-03
CGA:  16    -0.339994511072E+03   -0.21716E-04   -0.25824E-04 10584   0.143E-02-0.379E-03
CGA:  17    -0.339994537315E+03   -0.26243E-04   -0.33982E-04 10584   0.135E-03 0.121E-03
CGA:  18    -0.339994539507E+03   -0.21924E-05   -0.61067E-05 10584   0.114E-03 0.920E-04
CGA:  19    -0.339994565625E+03   -0.26118E-04    0.11845E-04 10584   0.201E-03-0.156E-05
CGA:  20    -0.339994590332E+03   -0.24707E-04   -0.33873E-04 10584   0.202E-03-0.103E-03
CGA:  21    -0.339994591386E+03   -0.10537E-05   -0.45767E-05 10584   0.544E-04 0.549E-04
  14 F= -.33999459E+03 E0= -.33998878E+03  d E =-.169339E-01  mag=    14.0000
       N       E                     dE             d eps       ncg     rms          ort
SDA:   1    -0.339131025628E+03    0.86356E+00    0.00000E+00 10584   0.219E+01 0.000E+00
CGA:   2    -0.339478405473E+03   -0.34738E+00   -0.33376E+00 10584   0.537E+01 0.188E+00
CGA:   3    -0.339837120798E+03   -0.35872E+00   -0.34878E+00 10584   0.939E+00-0.187E-01
CGA:   4    -0.339881433271E+03   -0.44312E-01   -0.43509E-01 10584   0.649E+00 0.172E-01
CGA:   5    -0.339944178080E+03   -0.62745E-01   -0.62833E-01 10584   0.423E+00-0.105E-01
CGA:   6    -0.339960213573E+03   -0.16035E-01   -0.15950E-01 10584   0.589E-01 0.766E-02
CGA:   7    -0.339967649261E+03   -0.74357E-02   -0.74490E-02 10584   0.697E-01-0.402E-03
CGA:   8    -0.339970927523E+03   -0.32783E-02   -0.32319E-02 10584   0.166E-01-0.182E-02
CGA:   9    -0.339972014768E+03   -0.10872E-02   -0.10997E-02 10584   0.186E-01 0.899E-03
CGA:  10    -0.339973365178E+03   -0.13504E-02   -0.13418E-02 10584   0.684E-02-0.736E-03
CGA:  11    -0.339973667401E+03   -0.30222E-03   -0.31547E-03 10584   0.269E-02 0.375E-03
CGA:  12    -0.339974128002E+03   -0.46060E-03   -0.72423E-03 10584   0.119E-01-0.149E-02
CGA:  13    -0.339974356807E+03   -0.22881E-03   -0.28476E-03 10584   0.817E-03 0.963E-03
CGA:  14    -0.339974457526E+03   -0.10072E-03   -0.99309E-04 10584   0.220E-02 0.489E-04
CGA:  15    -0.339974652518E+03   -0.19499E-03   -0.19228E-03 10584   0.535E-03-0.760E-03
CGA:  16    -0.339974702720E+03   -0.50202E-04   -0.45873E-04 10584   0.750E-03 0.953E-04
CGA:  17    -0.339974628103E+03    0.74616E-04   -0.20822E-03 10584   0.155E-01-0.192E-02
CGA:  18    -0.339974882053E+03   -0.25395E-03   -0.32464E-03 10584   0.392E-03 0.103E-02
CGA:  19    -0.339974889436E+03   -0.73828E-05   -0.15803E-04 10584   0.301E-03 0.156E-03
CGA:  20    -0.339974920991E+03   -0.31555E-04   -0.11220E-03 10584   0.176E-02-0.453E-03
CGA:  21    -0.339974970845E+03   -0.49854E-04   -0.48628E-04 10584   0.334E-03-0.241E-04
CGA:  22    -0.339975007001E+03   -0.36157E-04   -0.82060E-04 10584   0.166E-02-0.297E-03
CGA:  23    -0.339975015206E+03   -0.82043E-05   -0.33017E-04 10584   0.131E-03 0.300E-03
  15 F= -.33997502E+03 E0= -.33996909E+03  d E =0.195762E-01  mag=    14.0000
       N       E                     dE             d eps       ncg     rms          ort
SDA:   1    -0.313165668372E+03    0.26809E+02    0.00000E+00 10584   0.708E+02 0.000E+00
CGA:   2    -0.326241338105E+03   -0.13076E+02   -0.11796E+02 10584   0.884E+02 0.164E+02
CGA:   3    -0.332576265419E+03   -0.63349E+01   -0.64531E+01 10584   0.802E+02-0.259E+02
CGA:   4    -0.335367926423E+03   -0.27917E+01   -0.33073E+01 10584   0.707E+02-0.313E+01
CGA:   5    -0.337445571229E+03   -0.20776E+01   -0.13275E+01 10584   0.224E+02 0.247E+02
CGA:   6    -0.338036312157E+03   -0.59074E+00   -0.58605E+00 10584   0.184E+02-0.835E+01
CGA:   7    -0.338049558687E+03   -0.13247E-01   -0.17720E+00 10584   0.360E+02-0.107E+02
CGA:   8    -0.338528026197E+03   -0.47847E+00   -0.11885E+01 10584   0.146E+02-0.113E+02
CGA:   9    -0.339126138606E+03   -0.59811E+00   -0.53112E+00 10584   0.575E+01 0.562E-01
CGA:  10    -0.339344036744E+03   -0.21790E+00   -0.23733E+00 10584   0.343E+01-0.378E+00
CGA:  11    -0.339591807614E+03   -0.24777E+00   -0.24779E+00 10584   0.182E+01 0.416E-01
CGA:  12    -0.339671494654E+03   -0.79687E-01   -0.76842E-01 10584   0.506E+00 0.305E-01
CGA:  13    -0.339710077430E+03   -0.38583E-01   -0.38567E-01 10584   0.914E+00-0.224E-01
CGA:  14    -0.339766979327E+03   -0.56902E-01   -0.57077E-01 10584   0.671E+00 0.265E-02
CGA:  15    -0.339791089672E+03   -0.24110E-01   -0.24377E-01 10584   0.142E+00-0.203E-01
CGA:  16    -0.339804407257E+03   -0.13318E-01   -0.13253E-01 10584   0.226E+00 0.122E-02
CGA:  17    -0.339821019331E+03   -0.16612E-01   -0.16631E-01 10584   0.139E+00 0.175E-02
CGA:  18    -0.339825596109E+03   -0.45768E-02   -0.48622E-02 10584   0.407E-01 0.239E-03
CGA:  19    -0.339829348748E+03   -0.37526E-02   -0.37917E-02 10584   0.684E-01-0.268E-02
CGA:  20    -0.339835050357E+03   -0.57016E-02   -0.56841E-02 10584   0.228E-01-0.835E-04
CGA:  21    -0.339836109930E+03   -0.10596E-02   -0.10561E-02 10584   0.135E-01-0.589E-03
CGA:  22    -0.339837847461E+03   -0.17375E-02   -0.17916E-02 10584   0.311E-01-0.931E-03
CGA:  23    -0.339839378177E+03   -0.15307E-02   -0.14875E-02 10584   0.597E-02-0.214E-02
CGA:  24    -0.339839607896E+03   -0.22972E-03   -0.24729E-03 10584   0.298E-02 0.550E-03
CGA:  25    -0.339840090159E+03   -0.48226E-03    0.94089E-02 10584   0.138E-02 0.218E-02
CGA:  26    -0.339840280857E+03   -0.19070E-03   -0.20418E-03 10584   0.673E-02-0.185E-03
CGA:  27    -0.339840811286E+03   -0.53043E-03   -0.53371E-03 10584   0.350E-02-0.236E-03
CGA:  28    -0.339840956038E+03   -0.14475E-03   -0.12246E-03 10584   0.171E-02-0.568E-03
CGA:  29    -0.339840210021E+03    0.74602E-03   -0.43631E-03 10584   0.737E-01-0.355E-02
CGA:  30    -0.339841696501E+03   -0.14865E-02   -0.16100E-02 10584   0.181E-02 0.233E-02
CGA:  31    -0.339841760820E+03   -0.64319E-04   -0.84224E-04 10584   0.134E-02 0.229E-03
CGA:  32    -0.339842065872E+03   -0.30505E-03   -0.41450E-03 10584   0.307E-02-0.748E-03
CGA:  33    -0.339842134696E+03   -0.68824E-04   -0.88379E-04 10584   0.104E-02 0.180E-03
CGA:  34    -0.339842266489E+03   -0.13179E-03   -0.13359E-03 10584   0.240E-03 0.204E-03
CGA:  35    -0.339842303611E+03   -0.37123E-04   -0.37397E-04 10584   0.211E-02-0.224E-03
CGA:  36    -0.339842343730E+03   -0.40119E-04   -0.46749E-04 10584   0.164E-03 0.586E-04
CGA:  37    -0.339842401942E+03   -0.58212E-04    0.26386E-04 10584   0.238E-03 0.120E-03
CGA:  38    -0.339842416046E+03   -0.14104E-04   -0.12766E-04 10584   0.325E-03-0.200E-04
CGA:  39    -0.339842487968E+03   -0.71922E-04    0.76341E-02 10584   0.467E-03 0.247E-03
CGA:  40    -0.339842519555E+03   -0.31587E-04   -0.21168E-04 10584   0.314E-03-0.143E-03
CGA:  41    -0.339842586693E+03   -0.67139E-04    0.39866E-04 10584   0.211E-03 0.193E-03
CGA:  42    -0.339842587152E+03   -0.45827E-06   -0.71647E-05 10584   0.126E-03 0.802E-04
  16 F= -.33984259E+03 E0= -.33983610E+03  d E =0.132428E+00  mag=    14.0000
       N       E                     dE             d eps       ncg     rms          ort
SDA:   1    -0.326431395643E+03    0.13411E+02    0.00000E+00 10584   0.584E+02 0.000E+00
CGA:   2    -0.327986745690E+03   -0.15554E+01   -0.43408E+01 10584   0.153E+03-0.461E+02
CGA:   3    -0.328415841088E+03   -0.42910E+00   -0.13555E+02 10584   0.613E+02-0.224E+02
CGA:   4    -0.331177100254E+03   -0.27613E+01   -0.13529E+01 10584   0.560E+02 0.587E+02
CGA:   5    -0.335155383838E+03   -0.39783E+01   -0.20154E+01 10584   0.130E+02-0.172E+02
CGA:   6    -0.335825087806E+03   -0.66970E+00   -0.76172E+00 10584   0.429E+02-0.117E+01
CGA:   7    -0.338296254805E+03   -0.24712E+01   -0.27857E+01 10584   0.174E+02-0.219E+01
CGA:   8    -0.338744085239E+03   -0.44783E+00   -0.54791E+00 10584   0.254E+01-0.293E+01
CGA:   9    -0.338830739661E+03   -0.86654E-01   -0.89911E-01 10584   0.248E+01 0.406E-02
CGA:  10    -0.338948685374E+03   -0.11795E+00   -0.12174E+00 10584   0.226E+01-0.626E-01
CGA:  11    -0.339059383101E+03   -0.11070E+00   -0.12448E+00 10584   0.134E+01-0.208E+00
CGA:  12    -0.339092783833E+03   -0.33401E-01   -0.28303E-01 10584   0.299E+00 0.226E+00
CGA:  13    -0.339106506081E+03   -0.13722E-01   -0.13708E-01 10584   0.391E+00 0.216E-01
CGA:  14    -0.339127634031E+03   -0.21128E-01   -0.20249E-01 10584   0.449E+00 0.107E-01
CGA:  15    -0.339143410148E+03   -0.15776E-01   -0.16038E-01 10584   0.303E+00-0.494E-01
CGA:  16    -0.339152255467E+03   -0.88453E-02   -0.98676E-02 10584   0.147E+00-0.397E-01
CGA:  17    -0.339155825577E+03   -0.35701E-02   -0.37687E-02 10584   0.121E+00 0.826E-02
CGA:  18    -0.339163827157E+03   -0.80016E-02   -0.83692E-02 10584   0.161E+00 0.864E-02
CGA:  19    -0.339168637945E+03   -0.48108E-02   -0.51607E-02 10584   0.393E-01-0.162E-01
CGA:  20    -0.339171116632E+03   -0.24787E-02   -0.22959E-02 10584   0.547E-01-0.590E-02
CGA:  21    -0.339173290459E+03   -0.21738E-02   -0.21441E-02 10584   0.437E-01 0.527E-03
CGA:  22    -0.339176231726E+03   -0.29413E-02   -0.29406E-02 10584   0.445E-01 0.713E-03
CGA:  23    -0.339178160803E+03   -0.19291E-02   -0.16580E-02 10584   0.179E-01-0.696E-02
CGA:  24    -0.339179981866E+03   -0.18211E-02   -0.24215E-02 10584   0.503E-01-0.978E-02
CGA:  25    -0.339181077841E+03   -0.10960E-02   -0.14012E-02 10584   0.942E-02 0.625E-02
CGA:  26    -0.339181714685E+03   -0.63684E-03   -0.67914E-03 10584   0.817E-02 0.132E-02
CGA:  27    -0.339182902130E+03   -0.11874E-02   -0.12272E-02 10584   0.153E-01-0.114E-02
CGA:  28    -0.339183198809E+03   -0.29668E-03   -0.37842E-03 10584   0.584E-02 0.144E-02
CGA:  29    -0.339183516461E+03   -0.31765E-03   -0.33740E-03 10584   0.116E-01 0.566E-03
CGA:  30    -0.339184876127E+03   -0.13597E-02   -0.17192E-02 10584   0.196E-01-0.852E-02
CGA:  31    -0.339185783046E+03   -0.90692E-03   -0.83484E-03 10584   0.123E-01-0.218E-02
CGA:  32    -0.339186319128E+03   -0.53608E-03   -0.66009E-03 10584   0.401E-02 0.390E-02
CGA:  33    -0.339186542386E+03   -0.22326E-03   -0.26278E-03 10584   0.308E-02 0.998E-03
CGA:  34    -0.339186877486E+03   -0.33510E-03   -0.69196E-03 10584   0.263E-01-0.391E-02
CGA:  35    -0.339187289698E+03   -0.41221E-03   -0.66178E-03 10584   0.298E-02 0.406E-02
CGA:  36    -0.339187408300E+03   -0.11860E-03   -0.14520E-03 10584   0.168E-02 0.608E-03
CGA:  37    -0.339187776994E+03   -0.36869E-03    0.19524E-02 10584   0.326E-02 0.262E-03
CGA:  38    -0.339188125564E+03   -0.34857E-03   -0.44866E-03 10584   0.716E-02-0.313E-02
CGA:  39    -0.339188546122E+03   -0.42056E-03   -0.43993E-03 10584   0.447E-02 0.681E-03
CGA:  40    -0.339188669849E+03   -0.12373E-03   -0.20806E-03 10584   0.144E-02 0.188E-02
CGA:  41    -0.339188814768E+03   -0.14492E-03   -0.14391E-03 10584   0.154E-02-0.714E-04
CGA:  42    -0.339189015888E+03   -0.20112E-03   -0.23292E-03 10584   0.614E-02-0.419E-03
CGA:  43    -0.339189077281E+03   -0.61393E-04   -0.13634E-03 10584   0.526E-02 0.144E-02
CGA:  44    -0.339189216876E+03   -0.13959E-03   -0.23009E-03 10584   0.707E-02 0.209E-02
CGA:  45    -0.339190503300E+03   -0.12864E-02   -0.13694E-02 10584   0.470E-01-0.803E-03
CGA:  46    -0.339191263489E+03   -0.76019E-03   -0.45168E-03 10584   0.535E-01 0.163E-01
CGA:  47    -0.339193145626E+03   -0.18821E-02   -0.12846E-02 10584   0.258E-01 0.583E-02
CGA:  48    -0.339194237032E+03   -0.10914E-02   -0.84364E-03 10584   0.190E-01-0.130E-01
CGA:  49    -0.339194941498E+03   -0.70447E-03   -0.83218E-03 10584   0.826E-02 0.416E-02
CGA:  50    -0.339195806649E+03   -0.86515E-03   -0.86999E-03 10584   0.511E-02-0.427E-03
CGA:  51    -0.339195862422E+03   -0.55773E-04   -0.14262E-03 10584   0.152E-02 0.193E-02
CGA:  52    -0.339195859222E+03    0.32002E-05   -0.45815E-04 10584   0.734E-03 0.980E-03
CGA:  53    -0.339195742094E+03    0.11713E-03   -0.10066E-03 10584   0.142E-01-0.121E-02
CGA:  54    -0.339195995233E+03   -0.25314E-03   -0.38580E-03 10584   0.173E-02 0.197E-02
CGA:  55    -0.339196127765E+03   -0.13253E-03   -0.12060E-03 10584   0.104E-02-0.212E-03
CGA:  56    -0.339196166878E+03   -0.39112E-04   -0.55424E-04 10584   0.860E-03 0.272E-03
CGA:  57    -0.339196135077E+03    0.31801E-04   -0.26097E-04 10584   0.356E-03 0.632E-03
CGA:  58    -0.339196121894E+03    0.13183E-04   -0.90253E-05 10584   0.241E-03 0.255E-03
CGA:  59    -0.339196147825E+03   -0.25931E-04   -0.25998E-04 10584   0.234E-03 0.198E-03
CGA:  60    -0.339196156527E+03   -0.87021E-05   -0.15993E-04 10584   0.228E-03 0.184E-03
CGA:  61    -0.339196204338E+03   -0.47811E-04   -0.10205E-03 10584   0.580E-02-0.155E-03
[...]
CGA:   7    -0.339634557024E+03   -0.20395E-03   -0.21979E-03 10584   0.691E-03 0.377E-03
CGA:   8    -0.339634577981E+03   -0.20957E-04   -0.31567E-04 10584   0.482E-03 0.245E-03
CGA:   9    -0.339634654698E+03   -0.76717E-04   -0.75483E-04 10584   0.267E-03 0.384E-04
CGA:  10    -0.339634673164E+03   -0.18466E-04   -0.15233E-04 10584   0.281E-03-0.102E-03
CGA:  11    -0.339634675179E+03   -0.20151E-05   -0.65198E-05 10584   0.228E-03 0.981E-04
 119 F= -.33963468E+03 E0= -.33963043E+03  d E =-.224693E-02  mag=    14.0000
       N       E                     dE             d eps       ncg     rms          ort
SDA:   1    -0.338466303265E+03    0.11684E+01    0.00000E+00 10584   0.387E+01 0.000E+00
CGA:   2    -0.339001143782E+03   -0.53484E+00   -0.52728E+00 10584   0.431E+01 0.118E+00
CGA:   3    -0.339240685584E+03   -0.23954E+00   -0.23049E+00 10584   0.215E+01 0.516E-02
CGA:   4    -0.339421079552E+03   -0.18039E+00   -0.18071E+00 10584   0.228E+01-0.306E-01
CGA:   5    -0.339537701201E+03   -0.11662E+00   -0.11991E+00 10584   0.671E+00-0.245E-01
CGA:   6    -0.339576367815E+03   -0.38667E-01   -0.38896E-01 10584   0.374E+00 0.172E-02
CGA:   7    -0.339606629887E+03   -0.30262E-01   -0.30247E-01 10584   0.218E+00 0.459E-02
CGA:   8    -0.339614776159E+03   -0.81463E-02   -0.81700E-02 10584   0.563E-01-0.398E-02
CGA:   9    -0.339621142022E+03   -0.63659E-02   -0.62562E-02 10584   0.431E-01 0.279E-02
CGA:  10    -0.339623611755E+03   -0.24697E-02   -0.24368E-02 10584   0.166E-01-0.160E-02
CGA:  11    -0.339624774088E+03   -0.11623E-02   -0.11674E-02 10584   0.119E-01 0.149E-02
CGA:  12    -0.339625566957E+03   -0.79287E-03   -0.80860E-03 10584   0.786E-02 0.108E-02
CGA:  13    -0.339626283954E+03   -0.71700E-03   -0.73713E-03 10584   0.794E-02-0.197E-02
CGA:  14    -0.339626528188E+03   -0.24423E-03   -0.28852E-03 10584   0.196E-02 0.161E-02
CGA:  15    -0.339626577839E+03   -0.49651E-04   -0.86363E-04 10584   0.145E-02 0.970E-03
CGA:  16    -0.339626761538E+03   -0.18370E-03   -0.17590E-03 10584   0.137E-02 0.896E-03
CGA:  17    -0.339626716846E+03    0.44692E-04   -0.21641E-03 10584   0.132E-01-0.307E-02
CGA:  18    -0.339626964664E+03   -0.24782E-03   -0.34493E-03 10584   0.963E-03 0.224E-02
CGA:  19    -0.339626967920E+03   -0.32559E-05   -0.25613E-04 10584   0.266E-03 0.430E-03
 120 F= -.33962697E+03 E0= -.33962288E+03  d E =0.770726E-02  mag=    14.0000
       N       E                     dE             d eps       ncg     rms          ort
SDA:   1    -0.339447180467E+03    0.17978E+00    0.00000E+00 10584   0.688E+00 0.000E+00
CGA:   2    -0.339500655499E+03   -0.53475E-01   -0.53503E-01 10584   0.107E+01-0.681E-02
CGA:   3    -0.339574246503E+03   -0.73591E-01   -0.73600E-01 10584   0.271E+00 0.939E-02
CGA:   4    -0.339611293675E+03   -0.37047E-01   -0.37126E-01 10584   0.261E+00-0.156E-02
CGA:   5    -0.339624546876E+03   -0.13253E-01   -0.13151E-01 10584   0.772E-01-0.348E-02
CGA:   6    -0.339630465136E+03   -0.59183E-02   -0.58944E-02 10584   0.500E-01 0.544E-02
CGA:   7    -0.339634155129E+03   -0.36900E-02   -0.36740E-02 10584   0.232E-01-0.430E-02
CGA:   8    -0.339635074937E+03   -0.91981E-03   -0.91565E-03 10584   0.940E-02-0.321E-03
CGA:   9    -0.339635887496E+03   -0.81256E-03   -0.78910E-03 10584   0.340E-02 0.166E-02
CGA:  10    -0.339636285268E+03   -0.39777E-03   -0.55196E-03 10584   0.113E-01-0.232E-02
CGA:  11    -0.339636504392E+03   -0.21912E-03   -0.27726E-03 10584   0.112E-02 0.118E-02
CGA:  12    -0.339636544799E+03   -0.40407E-04   -0.53867E-04 10584   0.715E-03 0.469E-03
CGA:  13    -0.339636657289E+03   -0.11249E-03   -0.12495E-03 10584   0.252E-02-0.243E-03
CGA:  14    -0.339636712721E+03   -0.55432E-04   -0.44371E-04 10584   0.192E-02-0.236E-03
CGA:  15    -0.339636749858E+03   -0.37137E-04   -0.30283E-04 10584   0.692E-03-0.131E-03
CGA:  16    -0.339636776719E+03   -0.26861E-04   -0.21304E-04 10584   0.991E-03-0.158E-03
CGA:  17    -0.339636826431E+03   -0.49712E-04   -0.46917E-04 10584   0.260E-02-0.515E-03
CGA:  18    -0.339636891180E+03   -0.64749E-04   -0.76167E-04 10584   0.315E-03 0.283E-03
CGA:  19    -0.339636890268E+03    0.91216E-06   -0.78671E-05 10584   0.159E-03 0.208E-03
 121 F= -.33963689E+03 E0= -.33963278E+03  d E =-.992235E-02  mag=    14.0000
       N       E                     dE             d eps       ncg     rms          ort
SDA:   1    -0.339607178769E+03    0.29712E-01    0.00000E+00 10584   0.114E+00 0.000E+00
CGA:   2    -0.339616327893E+03   -0.91491E-02   -0.90898E-02 10584   0.159E+00 0.259E-02
CGA:   3    -0.339626827992E+03   -0.10500E-01   -0.10502E-01 10584   0.476E-01-0.962E-03
CGA:   4    -0.339632014223E+03   -0.51862E-02   -0.50899E-02 10584   0.545E-01 0.204E-02
CGA:   5    -0.339635307211E+03   -0.32930E-02   -0.32697E-02 10584   0.153E-01-0.351E-02
CGA:   6    -0.339636174379E+03   -0.86717E-03   -0.87469E-03 10584   0.710E-02 0.228E-02
CGA:   7    -0.339636910501E+03   -0.73612E-03   -0.78189E-03 10584   0.823E-02-0.147E-02
CGA:   8    -0.339637161468E+03   -0.25097E-03   -0.24534E-03 10584   0.142E-02-0.225E-03
CGA:   9    -0.339637222106E+03   -0.60638E-04   -0.67437E-04 10584   0.129E-02 0.436E-03
CGA:  10    -0.339637329568E+03   -0.10746E-03   -0.10746E-03 10584   0.528E-03 0.192E-03
CGA:  11    -0.339636549154E+03    0.78041E-03   -0.41962E-03 10584   0.204E-01-0.294E-02
CGA:  12    -0.339637175548E+03   -0.62639E-03   -0.73705E-03 10584   0.201E-02 0.117E-02
CGA:  13    -0.339637260719E+03   -0.85171E-04   -0.10638E-03 10584   0.140E-02 0.338E-03
CGA:  14    -0.339637452445E+03   -0.19173E-03   -0.19728E-03 10584   0.431E-03-0.493E-03
CGA:  15    -0.339637448974E+03    0.34704E-05   -0.59361E-05 10584   0.187E-03 0.106E-03
 122 F= -.33963745E+03 E0= -.33963330E+03  d E =-.558706E-03  mag=    14.0000
       N       E                     dE             d eps       ncg     rms          ort
SDA:   1    -0.339629257658E+03    0.81948E-02    0.00000E+00 10584   0.111E+00 0.000E+00
CGA:   2    -0.339631948028E+03   -0.26904E-02   -0.28559E-02 10584   0.143E-01 0.206E-02
CGA:   3    -0.339635084112E+03   -0.31361E-02   -0.30016E-02 10584   0.184E-01 0.122E-02
CGA:   4    -0.339636080461E+03   -0.99635E-03   -0.93672E-03 10584   0.645E-02-0.115E-02
CGA:   5    -0.339636535604E+03   -0.45514E-03   -0.47474E-03 10584   0.320E-02 0.920E-03
CGA:   6    -0.339636776230E+03   -0.24063E-03   -0.21919E-03 10584   0.270E-02-0.559E-03
CGA:   7    -0.339636952009E+03   -0.17578E-03   -0.16571E-03 10584   0.969E-03-0.451E-03
CGA:   8    -0.339636964884E+03   -0.12874E-04   -0.29548E-04 10584   0.259E-03 0.283E-03
CGA:   9    -0.339636971314E+03   -0.64300E-05   -0.13563E-04 10584   0.192E-03 0.136E-03
CGA:  10    -0.339636418294E+03    0.55302E-03   -0.29959E-03 10584   0.238E-01-0.135E-02
CGA:  11    -0.339636973978E+03   -0.55568E-03   -0.62231E-03 10584   0.112E-02 0.788E-03
CGA:  12    -0.339636975709E+03   -0.17318E-05   -0.35156E-04 10584   0.213E-03 0.275E-03
CGA:  13    -0.339636984698E+03   -0.89887E-05   -0.15265E-04 10584   0.207E-03 0.666E-04
CGA:  14    -0.339637018141E+03   -0.33443E-04   -0.27748E-04 10584   0.179E-03-0.128E-03
CGA:  15    -0.339637015670E+03    0.24708E-05   -0.36727E-05 10584   0.277E-04 0.491E-04
 123 F= -.33963702E+03 E0= -.33963286E+03  d E =0.433304E-03  mag=    14.0000
       N       E                     dE             d eps       ncg     rms          ort
SDA:   1    -0.339459581947E+03    0.17744E+00    0.00000E+00 10584   0.533E+00 0.000E+00
CGA:   2    -0.339515810122E+03   -0.56228E-01   -0.56601E-01 10584   0.116E+01 0.709E-02
CGA:   3    -0.339590270056E+03   -0.74460E-01   -0.74212E-01 10584   0.203E+00-0.978E-03
CGA:   4    -0.339621552927E+03   -0.31283E-01   -0.31302E-01 10584   0.965E-01-0.792E-03
CGA:   5    -0.339626332754E+03   -0.47798E-02   -0.47420E-02 10584   0.634E-01-0.114E-02
CGA:   6    -0.339631161808E+03   -0.48291E-02   -0.48754E-02 10584   0.185E-01 0.103E-02
CGA:   7    -0.339632571341E+03   -0.14095E-02   -0.13050E-02 10584   0.974E-02-0.219E-02
CGA:   8    -0.339633218117E+03   -0.64678E-03   -0.67477E-03 10584   0.628E-02 0.676E-03
CGA:   9    -0.339633521582E+03   -0.30346E-03   -0.31502E-03 10584   0.196E-02 0.102E-03
CGA:  10    -0.339633788870E+03   -0.26729E-03   -0.26770E-03 10584   0.181E-02-0.234E-04
CGA:  11    -0.339633884146E+03   -0.95276E-04   -0.83957E-04 10584   0.809E-03-0.171E-03
CGA:  12    -0.339633919328E+03   -0.35183E-04   -0.48163E-04 10584   0.279E-03 0.281E-03
CGA:  13    -0.339634008417E+03   -0.89089E-04   -0.10258E-03 10584   0.444E-03-0.829E-04
CGA:  14    -0.339634003877E+03    0.45406E-05   -0.82036E-05 10584   0.239E-03 0.139E-03
 124 F= -.33963400E+03 E0= -.33962987E+03  d E =0.301179E-02  mag=    14.0000
       N       E                     dE             d eps       ncg     rms          ort
SDA:   1    -0.339618370476E+03    0.15638E-01    0.00000E+00 10584   0.811E-01 0.000E+00
CGA:   2    -0.339622218925E+03   -0.38484E-02   -0.37768E-02 10584   0.664E-01-0.314E-03
CGA:   3    -0.339629693023E+03   -0.74741E-02   -0.74624E-02 10584   0.246E-01 0.161E-02
CGA:   4    -0.339632469546E+03   -0.27765E-02   -0.27869E-02 10584   0.350E-01-0.245E-02
CGA:   5    -0.339633864327E+03   -0.13948E-02   -0.15013E-02 10584   0.597E-02 0.194E-02
CGA:   6    -0.339634200860E+03   -0.33653E-03   -0.38912E-03 10584   0.482E-02 0.130E-02
CGA:   7    -0.339634641677E+03   -0.44082E-03   -0.42715E-03 10584   0.212E-02-0.493E-03
CGA:   8    -0.339634742705E+03   -0.10103E-03   -0.99211E-04 10584   0.702E-03-0.404E-04
CGA:   9    -0.339634807633E+03   -0.64928E-04   -0.65167E-04 10584   0.607E-03 0.846E-04
CGA:  10    -0.339634831320E+03   -0.23687E-04   -0.27642E-04 10584   0.113E-03 0.678E-04
CGA:  11    -0.339634848065E+03   -0.16746E-04   -0.15388E-04 10584   0.676E-04 0.486E-04
CGA:  12    -0.339634851375E+03   -0.33094E-05   -0.50434E-05 10584   0.373E-04 0.395E-04
 125 F= -.33963485E+03 E0= -.33963073E+03  d E =-.847498E-03  mag=    14.0000
       N       E                     dE             d eps       ncg     rms          ort
SDA:   1    -0.339608170089E+03    0.26678E-01    0.00000E+00 10584   0.354E+00 0.000E+00
CGA:   2    -0.339618147566E+03   -0.99775E-02   -0.10001E-01 10584   0.595E-01-0.153E-01
CGA:   3    -0.339627712027E+03   -0.95645E-02   -0.95499E-02 10584   0.826E-01 0.100E-03
CGA:   4    -0.339631331064E+03   -0.36190E-02   -0.36158E-02 10584   0.217E-01 0.388E-03
CGA:   5    -0.339634120628E+03   -0.27896E-02   -0.27987E-02 10584   0.169E-01-0.293E-03
CGA:   6    -0.339634797196E+03   -0.67657E-03   -0.67640E-03 10584   0.455E-02-0.766E-04
CGA:   7    -0.339635071092E+03   -0.27390E-03   -0.30021E-03 10584   0.204E-02 0.107E-02
CGA:   8    -0.339635353847E+03   -0.28275E-03   -0.35165E-03 10584   0.393E-02-0.139E-02
CGA:   9    -0.339635398210E+03   -0.44363E-04   -0.98503E-04 10584   0.504E-03 0.861E-03
CGA:  10    -0.339635400262E+03   -0.20521E-05   -0.18274E-04 10584   0.280E-03 0.276E-03
CGA:  11    -0.339635451874E+03   -0.51611E-04    0.16301E-03 10584   0.368E-03 0.257E-04
CGA:  12    -0.339635462721E+03   -0.10847E-04   -0.17566E-04 10584   0.786E-04 0.159E-03
CGA:  13    -0.339635460714E+03    0.20063E-05   -0.25819E-05 10584   0.512E-04 0.754E-04
 126 F= -.33963546E+03 E0= -.33963134E+03  d E =-.609340E-03  mag=    14.0000
       N       E                     dE             d eps       ncg     rms          ort
SDA:   1    -0.339589629813E+03    0.45833E-01    0.00000E+00 10584   0.186E+01 0.000E+00
CGA:   2    -0.339632639539E+03   -0.43010E-01   -0.48361E-01 10584   0.472E-01-0.243E+00
CGA:   3    -0.339633818061E+03   -0.11785E-02   -0.13112E-02 10584   0.608E-02 0.121E-02
CGA:   4    -0.339634876329E+03   -0.10583E-02   -0.10508E-02 10584   0.702E-02 0.203E-03
CGA:   5    -0.339635269979E+03   -0.39365E-03   -0.36303E-03 10584   0.272E-02-0.370E-03
CGA:   6    -0.339635519984E+03   -0.25001E-03   -0.22721E-03 10584   0.335E-02-0.517E-03
CGA:   7    -0.339635630239E+03   -0.11025E-03   -0.14060E-03 10584   0.480E-03 0.387E-03
CGA:   8    -0.339635643117E+03   -0.12879E-04   -0.23302E-04 10584   0.252E-03 0.125E-03
CGA:   9    -0.339635669420E+03   -0.26302E-04   -0.27446E-04 10584   0.275E-03 0.312E-04
CGA:  10    -0.339635684686E+03   -0.15266E-04   -0.14971E-04 10584   0.522E-04-0.475E-05
CGA:  11    -0.339635704701E+03   -0.20015E-04    0.45381E-05 10584   0.102E-03-0.115E-04
CGA:  12    -0.339635703381E+03    0.13199E-05   -0.22769E-05 10584   0.579E-04 0.406E-04
 127 F= -.33963570E+03 E0= -.33963157E+03  d E =-.242667E-03  mag=    14.0000
       N       E                     dE             d eps       ncg     rms          ort
SDA:   1    -0.339630784672E+03    0.49200E-02    0.00000E+00 10584   0.248E-01 0.000E+00
CGA:   2    -0.339632326817E+03   -0.15421E-02   -0.14452E-02 10584   0.176E-01-0.213E-02
CGA:   3    -0.339633805903E+03   -0.14791E-02   -0.14746E-02 10584   0.180E-01-0.345E-03
CGA:   4    -0.339634560629E+03   -0.75473E-03   -0.84081E-03 10584   0.373E-02 0.166E-02
CGA:   5    -0.339634995950E+03   -0.43532E-03   -0.43996E-03 10584   0.698E-02-0.745E-03
CGA:   6    -0.339635250176E+03   -0.25423E-03   -0.25953E-03 10584   0.179E-02 0.839E-04
CGA:   7    -0.339635284927E+03   -0.34751E-04   -0.50651E-04 10584   0.705E-03 0.218E-03
CGA:   8    -0.339635347704E+03   -0.62777E-04   -0.63081E-04 10584   0.884E-03 0.183E-04
CGA:   9    -0.339635397292E+03   -0.49588E-04   -0.37352E-04 10584   0.196E-03-0.230E-03
CGA:  10    -0.339635396928E+03    0.36385E-06   -0.43336E-05 10584   0.128E-03 0.752E-04
 128 F= -.33963540E+03 E0= -.33963127E+03  d E =0.306453E-03  mag=    14.0000
       N       E                     dE             d eps       ncg     rms          ort
SDA:   1    -0.339618896105E+03    0.16501E-01    0.00000E+00 10584   0.717E-01 0.000E+00
CGA:   2    -0.339622573125E+03   -0.36770E-02   -0.37958E-02 10584   0.620E-01 0.373E-02
CGA:   3    -0.339628841904E+03   -0.62688E-02   -0.62562E-02 10584   0.439E-01 0.894E-03
CGA:   4    -0.339631927524E+03   -0.30856E-02   -0.30437E-02 10584   0.173E-01-0.228E-02
CGA:   5    -0.339633895981E+03   -0.19685E-02   -0.19761E-02 10584   0.110E-01-0.246E-03
CGA:   6    -0.339634209878E+03   -0.31390E-03   -0.36143E-03 10584   0.256E-02 0.887E-03
CGA:   7    -0.339634629957E+03   -0.42008E-03   -0.46891E-03 10584   0.192E-02-0.567E-03
CGA:   8    -0.339634699714E+03   -0.69757E-04   -0.63055E-04 10584   0.667E-03-0.153E-03
CGA:   9    -0.339634715524E+03   -0.15810E-04   -0.26915E-04 10584   0.418E-03 0.268E-03
CGA:  10    -0.339634744971E+03   -0.29447E-04   -0.33822E-04 10584   0.256E-03 0.170E-03
CGA:  11    -0.339633704081E+03    0.10409E-02   -0.56772E-03 10584   0.269E-01-0.276E-02
CGA:  12    -0.339634323943E+03   -0.61986E-03   -0.75487E-03 10584   0.321E-02 0.287E-02
CGA:  13    -0.339634478418E+03   -0.15448E-03   -0.19789E-03 10584   0.204E-02 0.489E-03
CGA:  14    -0.339634740925E+03   -0.26251E-03   -0.24443E-03 10584   0.169E-02-0.514E-03
CGA:  15    -0.339634763455E+03   -0.22530E-04   -0.32427E-04 10584   0.377E-03 0.886E-04
CGA:  16    -0.339634762647E+03    0.80825E-06   -0.92172E-05 10584   0.194E-03 0.914E-04
CGA:  17    -0.339634767679E+03   -0.50322E-05   -0.11286E-04 10584   0.274E-03 0.782E-04
CGA:  18    -0.339634792972E+03   -0.25292E-04   -0.23550E-04 10584   0.763E-04-0.289E-04
CGA:  19    -0.339634794971E+03   -0.19991E-05   -0.16659E-05 10584   0.167E-04-0.384E-05
 129 F= -.33963479E+03 E0= -.33963068E+03  d E =0.601957E-03  mag=    14.0000
       N       E                     dE             d eps       ncg     rms          ort
SDA:   1    -0.339633871701E+03    0.92127E-03    0.00000E+00 10584   0.228E-01 0.000E+00
CGA:   2    -0.339634429273E+03   -0.55757E-03   -0.57786E-03 10584   0.144E-02-0.309E-03
CGA:   3    -0.339634645049E+03   -0.21578E-03   -0.28168E-03 10584   0.716E-02-0.721E-03
CGA:   4    -0.339634760911E+03   -0.11586E-03   -0.17179E-03 10584   0.403E-03 0.692E-03
CGA:   5    -0.339634776580E+03   -0.15669E-04   -0.22797E-04 10584   0.396E-03 0.128E-03
CGA:   6    -0.339634847923E+03   -0.71343E-04   -0.97133E-04 10584   0.981E-03-0.316E-03
CGA:   7    -0.339634855093E+03   -0.71704E-05   -0.26946E-04 10584   0.254E-03 0.244E-03
CGA:   8    -0.339634865063E+03   -0.99698E-05   -0.16187E-04 10584   0.124E-03 0.117E-03
CGA:   9    -0.339634880849E+03   -0.15786E-04   -0.22144E-04 10584   0.856E-03-0.300E-03
CGA:  10    -0.339634883620E+03   -0.27712E-05   -0.16970E-04 10584   0.676E-04 0.169E-03
 130 F= -.33963488E+03 E0= -.33963077E+03  d E =-.886498E-04  mag=    14.0000
       N       E                     dE             d eps       ncg     rms          ort
SDA:   1    -0.339629050280E+03    0.58306E-02    0.00000E+00 10584   0.185E-01 0.000E+00
CGA:   2    -0.339632283445E+03   -0.32332E-02   -0.34887E-02 10584   0.358E-01-0.274E-02
CGA:   3    -0.339633434157E+03   -0.11507E-02   -0.12448E-02 10584   0.970E-02 0.184E-02
CGA:   4    -0.339634226673E+03   -0.79252E-03   -0.81452E-03 10584   0.103E-01 0.135E-02
CGA:   5    -0.339634890282E+03   -0.66361E-03   -0.62168E-03 10584   0.269E-02-0.103E-02
CGA:   6    -0.339635118031E+03   -0.22775E-03   -0.22786E-03 10584   0.165E-02-0.174E-03
CGA:   7    -0.339635190328E+03   -0.72297E-04   -0.84715E-04 10584   0.354E-03 0.321E-03
CGA:   8    -0.339635209926E+03   -0.19599E-04   -0.24131E-04 10584   0.254E-03 0.131E-03
CGA:   9    -0.339635247346E+03   -0.37419E-04   -0.39324E-04 10584   0.130E-03-0.822E-04
CGA:  10    -0.339635249470E+03   -0.21243E-05   -0.29586E-05 10584   0.696E-04 0.142E-04
 131 F= -.33963525E+03 E0= -.33963113E+03  d E =-.365849E-03  mag=    14.0000
       N       E                     dE             d eps       ncg     rms          ort
SDA:   1    -0.339627861351E+03    0.73860E-02    0.00000E+00 10584   0.110E+00 0.000E+00
CGA:   2    -0.339630791138E+03   -0.29298E-02   -0.30249E-02 10584   0.153E-01-0.219E-02
CGA:   3    -0.339633280268E+03   -0.24891E-02   -0.27111E-02 10584   0.348E-01-0.232E-02
CGA:   4    -0.339634276027E+03   -0.99576E-03   -0.10835E-02 10584   0.625E-02 0.187E-02
CGA:   5    -0.339634674388E+03   -0.39836E-03   -0.42116E-03 10584   0.758E-02 0.102E-02
CGA:   6    -0.339635241260E+03   -0.56687E-03   -0.54956E-03 10584   0.163E-02-0.780E-03
CGA:   7    -0.339635339636E+03   -0.98376E-04   -0.98437E-04 10584   0.155E-02-0.147E-05
CGA:   8    -0.339635428075E+03   -0.88440E-04   -0.92373E-04 10584   0.202E-03 0.165E-03
CGA:   9    -0.339635285423E+03    0.14265E-03   -0.81626E-04 10584   0.312E-02-0.594E-03
CGA:  10    -0.339635377663E+03   -0.92240E-04   -0.13374E-03 10584   0.602E-03 0.389E-03
CGA:  11    -0.339635436365E+03   -0.58701E-04   -0.64634E-04 10584   0.355E-03 0.121E-03
CGA:  12    -0.339635474593E+03   -0.38228E-04   -0.25916E-04 10584   0.187E-03-0.153E-03
CGA:  13    -0.339635484401E+03   -0.98085E-05   -0.57435E-05 10584   0.933E-04-0.489E-04
 132 F= -.33963548E+03 E0= -.33963136E+03  d E =-.234931E-03  mag=    14.0000
       N       E                     dE             d eps       ncg     rms          ort
SDA:   1    -0.339633730761E+03    0.17438E-02    0.00000E+00 10584   0.323E-01 0.000E+00
CGA:   2    -0.339634727334E+03   -0.99657E-03   -0.88803E-03 10584   0.324E-02-0.123E-02
CGA:   3    -0.339634976096E+03   -0.24876E-03   -0.23373E-03 10584   0.302E-02-0.307E-03
CGA:   4    -0.339635275523E+03   -0.29943E-03   -0.30010E-03 10584   0.103E-02 0.564E-04
CGA:   5    -0.339635288568E+03   -0.13046E-04   -0.37357E-04 10584   0.401E-03 0.291E-03
CGA:   6    -0.339635357520E+03   -0.68952E-04   -0.67851E-04 10584   0.287E-03 0.672E-04
CGA:   7    -0.339635358385E+03   -0.86424E-06   -0.58334E-04 10584   0.487E-02-0.100E-02
CGA:   8    -0.339635409635E+03   -0.51250E-04   -0.11057E-03 10584   0.243E-03 0.684E-03
CGA:   9    -0.339635403071E+03    0.65639E-05   -0.57423E-05 10584   0.975E-04 0.132E-03
 133 F= -.33963540E+03 E0= -.33963129E+03  d E =0.813306E-04  mag=    14.0000
