       N       E                     dE             d eps       ncg     rms          ort
DAV:   1     0.329846716826E+04    0.32985E+04   -0.14858E+05  6624   0.176E+03
DAV:   2     0.524191675175E+01   -0.32932E+04   -0.30131E+04  6624   0.472E+02
DAV:   3    -0.494398568235E+03   -0.49964E+03   -0.48550E+03  6624   0.200E+02
DAV:   4    -0.523855922425E+03   -0.29457E+02   -0.28563E+02  6624   0.450E+01
DAV:   5    -0.525930263577E+03   -0.20743E+01   -0.20372E+01  6624   0.843E+00
SDA:   6    -0.230099497248E+03    0.29583E+03   -0.20372E+01  6624   0.270E+04 0.000E+00
CGA:   7    -0.324601247378E+03   -0.94502E+02   -0.25967E+03  6624   0.262E+04-0.403E+03
CGA:   8    -0.345635970539E+03   -0.21035E+02   -0.11020E+03  6624   0.945E+03-0.506E+03
CGA:   9    -0.358140940055E+03   -0.12505E+02   -0.34261E+02  6624   0.717E+03-0.758E+02
CGA:  10    -0.361715479397E+03   -0.35745E+01   -0.21426E+02  6624   0.998E+03-0.603E+03
CGA:  11    -0.379566301560E+03   -0.17851E+02   -0.37727E+02  6624   0.450E+03-0.456E+03
CGA:  12    -0.394209803726E+03   -0.14644E+02   -0.91037E+01  6624   0.661E+03-0.496E+03
CGA:  13    -0.373301554351E+03    0.20908E+02   -0.29681E+02  6624   0.518E+03-0.200E+03
CGA:  14    -0.383981459129E+03   -0.10680E+02   -0.12587E+02  6624   0.437E+03-0.295E+03
CGA:  15    -0.383275689181E+03    0.70577E+00   -0.10668E+02  6624   0.138E+04-0.140E+04
CGA:  16    -0.365453380231E+03    0.17822E+02   -0.75968E+02  6624   0.289E+03-0.208E+03
CGA:  17    -0.372067070344E+03   -0.66137E+01   -0.28278E+01  6624   0.407E+03 0.399E+03
CGA:  18    -0.388669035002E+03   -0.16602E+02   -0.69734E+01  6624   0.644E+03 0.926E+03
CGA:  19    -0.370843315991E+03    0.17826E+02   -0.18752E+02  6624   0.695E+03-0.385E+03
CGA:  20    -0.366595441105E+03    0.42479E+01   -0.31109E+02  6624   0.373E+03-0.346E+03
CGA:  21    -0.370939234724E+03   -0.43438E+01   -0.19292E+01  6624   0.393E+03 0.228E+03
CGA:  22    -0.392081021135E+03   -0.21142E+02   -0.59476E+01  6624   0.103E+04 0.161E+04
CGA:  23    -0.367833499760E+03    0.24248E+02   -0.38339E+02  6624   0.314E+03-0.185E+03
CGA:  24    -0.376514697198E+03   -0.86812E+01   -0.85143E+01  6624   0.416E+03-0.456E+03
CGA:  25    -0.378059140343E+03   -0.15444E+01   -0.10047E+02  6624   0.156E+04-0.163E+04
CGA:  26    -0.364291618679E+03    0.13768E+02   -0.67049E+02  6624   0.290E+03-0.231E+03
CGA:  27    -0.402645323633E+03   -0.38354E+02   -0.64155E+01  6624   0.760E+03 0.196E+04
CGA:  28    -0.371835635288E+03    0.30810E+02   -0.26292E+02  6624   0.550E+03-0.189E+03
CGA:  29    -0.368681829845E+03    0.31538E+01   -0.13794E+02  6624   0.298E+03-0.255E+03
CGA:  30    -0.375162523601E+03   -0.64807E+01   -0.43037E+01  6624   0.711E+03-0.794E+03
CGA:  31    -0.363363914591E+03    0.11799E+02   -0.22699E+02  6624   0.223E+03-0.183E+03
CGA:  32    -0.374308736628E+03   -0.10945E+02   -0.47276E+01  6624   0.201E+03-0.190E+03
CGA:  33    -0.369361386193E+03    0.49474E+01   -0.38282E+01  6624   0.150E+04-0.140E+04
CGA:  34    -0.368323616228E+03    0.10378E+01   -0.50592E+02  6624   0.218E+03-0.196E+03
CGA:  35    -0.382645809495E+03   -0.14322E+02   -0.38257E+01  6624   0.239E+04 0.294E+04
CGA:  36    -0.362383856903E+03    0.20262E+02   -0.74997E+02  6624   0.234E+03-0.166E+03
CGA:  37    -0.374619446631E+03   -0.12236E+02   -0.59130E+01  6624   0.248E+03-0.277E+03
CGA:  38    -0.370340443431E+03    0.42790E+01   -0.44942E+01  6624   0.150E+04-0.140E+04
CGA:  39    -0.370033207124E+03    0.30724E+00   -0.43664E+02  6624   0.209E+03-0.193E+03
CGA:  40    -0.396935879717E+03   -0.26903E+02   -0.32220E+01  6624   0.219E+04 0.388E+04
CGA:  41    -0.367706882802E+03    0.29229E+02   -0.56499E+02  6624   0.518E+03-0.251E+03
CGA:  42    -0.372946473062E+03   -0.52396E+01   -0.11644E+02  6624   0.193E+03-0.177E+03
CGA:  43    -0.409372013028E+03   -0.36426E+02   -0.18071E+01  6624   0.194E+03 0.119E+04
CGA:  44    -0.408915246132E+03    0.45677E+00   -0.21289E+01  6624   0.300E+03-0.201E+03
CGA:  45    -0.406784054344E+03    0.21312E+01   -0.36448E+01  6624   0.768E+03-0.465E+03
CGA:  46    -0.395583402886E+03    0.11201E+02   -0.12520E+02  6624   0.233E+04-0.107E+04
CGA:  47    -0.373512232858E+03    0.22071E+02   -0.49559E+02  6624   0.237E+03-0.139E+03
CGA:  48    -0.398985652723E+03   -0.25473E+02   -0.29339E+01  6624   0.180E+04-0.318E+04
CGA:  49    -0.375068841489E+03    0.23917E+02   -0.33990E+02  6624   0.541E+03-0.295E+03
CGA:  50    -0.372503467386E+03    0.25654E+01   -0.71914E+01  6624   0.122E+04-0.114E+04
CGA:  51    -0.372196967181E+03    0.30650E+00   -0.23506E+02  6624   0.221E+03-0.205E+03
CGA:  52    -0.410061153743E+03   -0.37864E+02   -0.23124E+01  6624   0.884E+02 0.779E+03
CGA:  53    -0.410373190553E+03   -0.31204E+00   -0.59876E+00  6624   0.410E+02-0.404E+02
CGA:  54    -0.410522098877E+03   -0.14891E+00   -0.22247E+00  6624   0.992E+01-0.607E+01
CGA:  55    -0.410659938097E+03   -0.13784E+00   -0.14424E+00  6624   0.491E+01-0.475E+00
CGA:  56    -0.410743969006E+03   -0.84031E-01   -0.91363E-01  6624   0.105E+02-0.450E+00
CGA:  57    -0.410979936740E+03   -0.23597E+00   -0.25423E+00  6624   0.798E+01 0.483E+00
CGA:  58    -0.411163783038E+03   -0.18385E+00   -0.19993E+00  6624   0.600E+01 0.794E-01
CGA:  59    -0.411265319607E+03   -0.10154E+00   -0.11089E+00  6624   0.274E+01 0.534E-01
CGA:  60    -0.411344307089E+03   -0.78987E-01   -0.79274E-01  6624   0.144E+01 0.235E-01
CGA:  61    -0.411404098634E+03   -0.59792E-01   -0.59337E-01  6624   0.177E+01 0.431E-01
CGA:  62    -0.411495917843E+03   -0.91819E-01   -0.10097E+00  6624   0.220E+01-0.636E+00
CGA:  63    -0.411515974360E+03   -0.20057E-01   -0.21336E-01  6624   0.143E+01 0.435E-01
CGA:  64    -0.411539426497E+03   -0.23452E-01   -0.24837E-01  6624   0.873E+00 0.103E-01
CGA:  65    -0.411564226009E+03   -0.24800E-01   -0.25200E-01  6624   0.875E+00 0.212E-01
CGA:  66    -0.411611866727E+03   -0.47641E-01   -0.50644E-01  6624   0.180E+01-0.127E+00
CGA:  67    -0.411637526467E+03   -0.25660E-01   -0.21655E-01  6624   0.650E+00 0.162E+00
CGA:  68    -0.411646636050E+03   -0.91096E-02   -0.96372E-02  6624   0.286E+00-0.338E-01
CGA:  69    -0.411658829608E+03   -0.12194E-01   -0.12498E-01  6624   0.702E+00-0.261E-01
CGA:  70    -0.411687539034E+03   -0.28709E-01   -0.27805E-01  6624   0.296E+00 0.167E-01
CGA:  71    -0.411696825612E+03   -0.92866E-02   -0.91938E-02  6624   0.159E+00-0.380E-01
CGA:  72    -0.411702267377E+03   -0.54418E-02   -0.16538E-01  6624   0.789E+00-0.127E+00
CGA:  73    -0.411716094569E+03   -0.13827E-01   -0.13976E-01  6624   0.855E-01-0.212E-01
CGA:  74    -0.411721701937E+03   -0.56074E-02   -0.53505E-02  6624   0.287E-01 0.961E-02
CGA:  75    -0.411724146404E+03   -0.24445E-02    0.36598E-01  6624   0.261E-01 0.246E-01
CGA:  76    -0.411723587136E+03    0.55927E-03   -0.12220E-02  6624   0.506E+00-0.339E-01
CGA:  77    -0.411732747891E+03   -0.91608E-02   -0.90734E-02  6624   0.476E-01-0.179E-01
CGA:  78    -0.411735057150E+03   -0.23093E-02   -0.23558E-02  6624   0.209E-01 0.406E-02
CGA:  79    -0.411736074780E+03   -0.10176E-02   -0.10178E-02  6624   0.225E-01 0.428E-05
CGA:  80    -0.411739122323E+03   -0.30475E-02    0.13216E-01  6624   0.179E-01 0.180E-01
CGA:  81    -0.411740445283E+03   -0.13230E-02   -0.17473E-02  6624   0.654E-01-0.128E-01
CGA:  82    -0.411741728015E+03   -0.12827E-02   -0.13176E-02  6624   0.719E-02 0.610E-02
CGA:  83    -0.411742713906E+03   -0.98589E-03   -0.95669E-03  6624   0.260E-01 0.544E-03
CGA:  84    -0.411744856496E+03   -0.21426E-02   -0.23327E-02  6624   0.664E-01-0.114E-01
CGA:  85    -0.411733110896E+03    0.11746E-01   -0.89318E-02  6624   0.414E+00-0.125E+00
CGA:  86    -0.411747412259E+03   -0.14301E-01   -0.14397E-01  6624   0.230E+00-0.123E-01
CGA:  87    -0.411754665862E+03   -0.72536E-02   -0.71054E-02  6624   0.577E-01-0.673E-02
CGA:  88    -0.411756923941E+03   -0.22581E-02   -0.22094E-02  6624   0.312E-01-0.501E-02
CGA:  89    -0.411761937728E+03   -0.50138E-02   -0.40437E-02  6624   0.422E-01 0.136E-01
CGA:  90    -0.411763695314E+03   -0.17576E-02   -0.20073E-02  6624   0.309E-01 0.468E-02
CGA:  91    -0.411765644959E+03   -0.19496E-02   -0.20767E-02  6624   0.675E-02 0.111E-01
CGA:  92    -0.411766186422E+03   -0.54146E-03   -0.55782E-03  6624   0.154E-01 0.154E-02
CGA:  93    -0.411767398532E+03   -0.12121E-02   -0.12429E-02  6624   0.320E-02 0.625E-02
CGA:  94    -0.411767544084E+03   -0.14555E-03   -0.20758E-03  6624   0.306E-02 0.257E-02
CGA:  95    -0.411767656776E+03   -0.11269E-03   -0.10901E-03  6624   0.349E-02-0.120E-03
CGA:  96    -0.411767865606E+03   -0.20883E-03   -0.21361E-03  6624   0.311E-02 0.123E-02
CGA:  97    -0.411768048571E+03   -0.18297E-03   -0.21030E-03  6624   0.385E-02 0.162E-02
CGA:  98    -0.411768226608E+03   -0.17804E-03   -0.14290E-03  6624   0.492E-02-0.121E-02
CGA:  99    -0.411768473657E+03   -0.24705E-03   -0.39425E-03  6624   0.131E-01-0.284E-02
CGA: 100    -0.411768747464E+03   -0.27381E-03   -0.36006E-03  6624   0.307E-02 0.259E-02
CGA: 101    -0.411768827362E+03   -0.79897E-04   -0.12714E-03  6624   0.179E-02 0.155E-02
CGA: 102    -0.411768937519E+03   -0.11016E-03   -0.10892E-03  6624   0.355E-02-0.407E-03
CGA: 103    -0.411769074306E+03   -0.13679E-03   -0.14777E-03  6624   0.513E-02 0.110E-02
CGA: 104    -0.411769324309E+03   -0.25000E-03   -0.29395E-03  6624   0.342E-02 0.235E-02
CGA: 105    -0.411769771808E+03   -0.44750E-03   -0.45380E-03  6624   0.210E-01-0.232E-03
CGA: 106    -0.411770668160E+03   -0.89635E-03   -0.86656E-03  6624   0.657E-01-0.831E-03
CGA: 107    -0.411771817906E+03   -0.11497E-02   -0.14059E-02  6624   0.469E-01-0.708E-02
CGA: 108    -0.411772621218E+03   -0.80331E-03   -0.12057E-02  6624   0.606E-01-0.242E-02
CGA: 109    -0.411775351158E+03   -0.27299E-02   -0.23813E-02  6624   0.162E-01 0.858E-02
CGA: 110    -0.411775891040E+03   -0.53988E-03   -0.58069E-03  6624   0.101E-01 0.241E-02
CGA: 111    -0.411776143479E+03   -0.25244E-03   -0.30552E-03  6624   0.532E-02 0.152E-02
CGA: 112    -0.411776657003E+03   -0.51352E-03   -0.49693E-03  6624   0.176E-01 0.626E-03
CGA: 113    -0.411777737009E+03   -0.10800E-02   -0.10562E-02  6624   0.338E-01-0.608E-02
CGA: 114    -0.411778656499E+03   -0.91949E-03   -0.59639E-03  6624   0.585E-01-0.550E-02
CGA: 115    -0.411780254951E+03   -0.15985E-02   -0.10758E-02  6624   0.500E-01-0.853E-02
CGA: 116    -0.411781493159E+03   -0.12382E-02   -0.10632E-02  6624   0.167E-01-0.175E-01
CGA: 117    -0.411782053706E+03   -0.56055E-03   -0.71491E-03  6624   0.160E-01-0.119E-01
CGA: 118    -0.411782663439E+03   -0.60973E-03   -0.62862E-03  6624   0.183E-01 0.126E-02
CGA: 119    -0.411784332494E+03   -0.16691E-02   -0.15091E-02  6624   0.766E-02 0.661E-02
CGA: 120    -0.411785190523E+03   -0.85803E-03   -0.93677E-03  6624   0.199E-01-0.222E-02
CGA: 121    -0.411785863095E+03   -0.67257E-03   -0.65786E-03  6624   0.228E-01-0.173E-02
CGA: 122    -0.411786291462E+03   -0.42837E-03   -0.46296E-03  6624   0.694E-02 0.158E-02
CGA: 123    -0.411786392236E+03   -0.10077E-03   -0.14083E-03  6624   0.401E-02 0.126E-02
CGA: 124    -0.411786618691E+03   -0.22646E-03   -0.23019E-03  6624   0.100E-01 0.134E-02
CGA: 125    -0.411787455351E+03   -0.83666E-03   -0.84025E-03  6624   0.856E-02-0.294E-03
CGA: 126    -0.411787856865E+03   -0.40151E-03   -0.38095E-03  6624   0.868E-02-0.374E-02
CGA: 127    -0.411788111550E+03   -0.25469E-03   -0.34228E-03  6624   0.178E-01-0.487E-02
CGA: 128    -0.411788552037E+03   -0.44049E-03   -0.47427E-03  6624   0.546E-02 0.146E-02
CGA: 129    -0.411788775653E+03   -0.22362E-03   -0.23862E-03  6624   0.443E-02 0.141E-02
CGA: 130    -0.411789382564E+03   -0.60691E-03   -0.72100E-03  6624   0.328E-02-0.145E-02
CGA: 131    -0.411789425957E+03   -0.43393E-04   -0.51521E-04  6624   0.179E-02 0.251E-03
CGA: 132    -0.411789473747E+03   -0.47789E-04   -0.62827E-04  6624   0.158E-02 0.751E-03
CGA: 133    -0.411789571504E+03   -0.97758E-04   -0.10097E-03  6624   0.217E-02 0.459E-03
CGA: 134    -0.411789656188E+03   -0.84684E-04   -0.34762E-03  6624   0.655E-02-0.366E-02
CGA: 135    -0.411789977863E+03   -0.32167E-03   -0.32254E-03  6624   0.322E-02 0.211E-03
CGA: 136    -0.411790096558E+03   -0.11869E-03   -0.35768E-03  6624   0.163E-01-0.455E-02
CGA: 137    -0.411790318439E+03   -0.22188E-03   -0.26782E-03  6624   0.134E-02 0.102E-02
CGA: 138    -0.411790339327E+03   -0.20888E-04   -0.42734E-04  6624   0.807E-03 0.863E-03
CGA: 139    -0.411790359450E+03   -0.20123E-04   -0.25356E-04  6624   0.545E-03 0.229E-03
CGA: 140    -0.411790366403E+03   -0.69530E-05   -0.18369E-04  6624   0.229E-03 0.428E-03
   1 F= -.41179037E+03 E0= -.41178416E+03  d E =-.411790E+03  mag=    14.0000
       N       E                     dE             d eps       ncg     rms          ort
SDA:   1    -0.411742554889E+03    0.47805E-01    0.00000E+00  6624   0.455E+00 0.000E+00
CGA:   2    -0.411751834294E+03   -0.92794E-02   -0.92958E-02  6624   0.135E+00 0.447E-02
CGA:   3    -0.411778080135E+03   -0.26246E-01   -0.27424E-01  6624   0.809E-01-0.769E-02
CGA:   4    -0.411783176440E+03   -0.50963E-02   -0.50560E-02  6624   0.693E-01 0.577E-02
CGA:   5    -0.411787273239E+03   -0.40968E-02   -0.40999E-02  6624   0.459E-01 0.137E-02
CGA:   6    -0.411788680449E+03   -0.14072E-02   -0.13534E-02  6624   0.145E-01-0.202E-02
CGA:   7    -0.411790136203E+03   -0.14558E-02   -0.14500E-02  6624   0.730E-02 0.119E-03
CGA:   8    -0.411790469868E+03   -0.33366E-03   -0.31060E-03  6624   0.694E-02-0.146E-02
CGA:   9    -0.411790745292E+03   -0.27542E-03   -0.27323E-03  6624   0.328E-02-0.279E-03
CGA:  10    -0.411790823895E+03   -0.78603E-04   -0.10281E-03  6624   0.791E-03 0.102E-02
CGA:  11    -0.411790862160E+03   -0.38265E-04   -0.43114E-04  6624   0.102E-02 0.340E-03
CGA:  12    -0.411790979503E+03   -0.11734E-03   -0.11224E-03  6624   0.440E-03 0.233E-03
CGA:  13    -0.411791056745E+03   -0.77242E-04    0.56555E-04  6624   0.455E-03 0.257E-04
CGA:  14    -0.411791117243E+03   -0.60497E-04    0.11605E-03  6624   0.325E-03 0.239E-03
CGA:  15    -0.411791116834E+03    0.40892E-06   -0.67505E-05  6624   0.171E-03 0.203E-03
   2 F= -.41179112E+03 E0= -.41178482E+03  d E =-.750431E-03  mag=    14.0000
       N       E                     dE             d eps       ncg     rms          ort
SDA:   1    -0.411790620118E+03    0.49712E-03    0.00000E+00  6624   0.154E-01 0.000E+00
CGA:   2    -0.411790856548E+03   -0.23643E-03   -0.26600E-03  6624   0.185E-02 0.687E-03
CGA:   3    -0.411791016677E+03   -0.16013E-03   -0.15019E-03  6624   0.232E-02 0.388E-03
CGA:   4    -0.411791104534E+03   -0.87856E-04   -0.39264E-03  6624   0.164E-01-0.352E-02
CGA:   5    -0.411791332240E+03   -0.22771E-03   -0.27881E-03  6624   0.160E-02 0.112E-02
CGA:   6    -0.411791360929E+03   -0.28689E-04   -0.49624E-04  6624   0.787E-03 0.801E-03
CGA:   7    -0.411791415805E+03   -0.54875E-04   -0.59063E-04  6624   0.202E-02-0.203E-03
CGA:   8    -0.411791445341E+03   -0.29537E-04   -0.38430E-04  6624   0.825E-03 0.299E-03
CGA:   9    -0.411791448438E+03   -0.30961E-05   -0.12832E-04  6624   0.246E-03 0.240E-03
   3 F= -.41179145E+03 E0= -.41178512E+03  d E =-.108203E-02  mag=    14.0000
       N       E                     dE             d eps       ncg     rms          ort
SDA:   1    -0.411779240102E+03    0.12205E-01    0.00000E+00  6624   0.440E+00 0.000E+00
CGA:   2    -0.411786156630E+03   -0.69165E-02   -0.70195E-02  6624   0.172E-01 0.469E-02
CGA:   3    -0.411788976651E+03   -0.28200E-02   -0.23575E-02  6624   0.125E-01 0.533E-02
CGA:   4    -0.411789790440E+03   -0.81379E-03   -0.81590E-03  6624   0.209E-01 0.691E-03
CGA:   5    -0.411791025723E+03   -0.12353E-02   -0.12325E-02  6624   0.900E-02 0.808E-03
CGA:   6    -0.411791391919E+03   -0.36620E-03   -0.33788E-03  6624   0.504E-02-0.181E-02
CGA:   7    -0.411791542200E+03   -0.15028E-03   -0.13737E-03  6624   0.398E-02-0.748E-03
CGA:   8    -0.411791657277E+03   -0.11508E-03   -0.13008E-03  6624   0.171E-02 0.121E-02
CGA:   9    -0.411791682764E+03   -0.25487E-04   -0.41932E-04  6624   0.504E-03 0.514E-03
CGA:  10    -0.411791774628E+03   -0.91864E-04   -0.91511E-04  6624   0.154E-02 0.341E-05
CGA:  11    -0.411791819689E+03   -0.45061E-04   -0.35070E-04  6624   0.203E-03-0.331E-03
CGA:  12    -0.411791846701E+03   -0.27012E-04    0.64502E-05  6624   0.195E-03 0.965E-04
CGA:  13    -0.411791878755E+03   -0.32054E-04    0.99147E-04  6624   0.247E-03 0.747E-04
CGA:  14    -0.411791921096E+03   -0.42341E-04    0.44811E-04  6624   0.135E-03 0.994E-04
CGA:  15    -0.411791926899E+03   -0.58032E-05   -0.75008E-05  6624   0.898E-04 0.140E-03
   4 F= -.41179193E+03 E0= -.41178558E+03  d E =-.478462E-03  mag=    14.0000
       N       E                     dE             d eps       ncg     rms          ort
SDA:   1    -0.411791409048E+03    0.51205E-03    0.00000E+00  6624   0.318E-02 0.000E+00
CGA:   2    -0.411791743115E+03   -0.33407E-03    0.11526E-02  6624   0.893E-03 0.900E-03
CGA:   3    -0.411791857908E+03   -0.11479E-03    0.17058E-02  6624   0.727E-03 0.224E-04
CGA:   4    -0.411790644291E+03    0.12136E-02   -0.65916E-03  6624   0.672E-01-0.534E-02
CGA:   5    -0.411791812630E+03   -0.11683E-02   -0.11626E-02  6624   0.570E-02-0.638E-03
CGA:   6    -0.411792037054E+03   -0.22442E-03   -0.27301E-03  6624   0.109E-02 0.135E-02
CGA:   7    -0.411792033846E+03    0.32083E-05   -0.35565E-04  6624   0.348E-03 0.678E-03
CGA:   8    -0.411792036708E+03   -0.28618E-05   -0.13322E-04  6624   0.232E-03 0.243E-03
CGA:   9    -0.411792041936E+03   -0.52280E-05   -0.10034E-04  6624   0.207E-03 0.133E-03
   5 F= -.41179204E+03 E0= -.41178568E+03  d E =-.593498E-03  mag=    14.0000
       N       E                     dE             d eps       ncg     rms          ort
SDA:   1    -0.411784226530E+03    0.78102E-02    0.00000E+00  6624   0.466E+00 0.000E+00
CGA:   2    -0.411791528515E+03   -0.73020E-02   -0.74778E-02  6624   0.266E-02-0.168E-01
CGA:   3    -0.411791696098E+03   -0.16758E-03   -0.16071E-03  6624   0.559E-02-0.726E-03
CGA:   4    -0.411791963996E+03   -0.26790E-03   -0.23849E-03  6624   0.271E-02-0.226E-02
CGA:   5    -0.411792101440E+03   -0.13744E-03   -0.13301E-03  6624   0.208E-02 0.405E-03
CGA:   6    -0.411792125119E+03   -0.23678E-04   -0.53688E-04  6624   0.543E-03 0.606E-03
CGA:   7    -0.411792126339E+03   -0.12202E-05   -0.18686E-04  6624   0.247E-03 0.412E-03
CGA:   8    -0.411792137175E+03   -0.10836E-04   -0.12091E-04  6624   0.287E-03 0.689E-04
CGA:   9    -0.411792141687E+03   -0.45120E-05   -0.11062E-04  6624   0.572E-04 0.181E-03
   6 F= -.41179214E+03 E0= -.41178577E+03  d E =-.693249E-03  mag=    14.0000
       N       E                     dE             d eps       ncg     rms          ort
SDA:   1    -0.411788325079E+03    0.38121E-02    0.00000E+00  6624   0.149E+00 0.000E+00
CGA:   2    -0.411790628435E+03   -0.23034E-02   -0.24706E-02  6624   0.770E-02 0.622E-03
CGA:   3    -0.411790977688E+03   -0.34925E-03   -0.37183E-03  6624   0.608E-02 0.173E-02
CGA:   4    -0.411792221740E+03   -0.12441E-02   -0.12833E-02  6624   0.667E-02-0.355E-03
CGA:   5    -0.411792325109E+03   -0.10337E-03   -0.11681E-03  6624   0.133E-02 0.257E-03
CGA:   6    -0.411792431615E+03   -0.10651E-03   -0.10304E-03  6624   0.215E-02 0.338E-03
CGA:   7    -0.411792548289E+03   -0.11667E-03   -0.10478E-03  6624   0.137E-02-0.469E-03
CGA:   8    -0.411792605481E+03   -0.57192E-04   -0.48960E-04  6624   0.492E-03-0.461E-03
CGA:   9    -0.411792617158E+03   -0.11677E-04   -0.14090E-04  6624   0.207E-03 0.123E-03
CGA:  10    -0.411792627895E+03   -0.10737E-04   -0.12598E-04  6624   0.139E-03 0.143E-03
CGA:  11    -0.411792653497E+03   -0.25602E-04    0.85051E-05  6624   0.124E-03 0.337E-04
CGA:  12    -0.411792660409E+03   -0.69118E-05   -0.78746E-05  6624   0.439E-04 0.961E-04
   7 F= -.41179266E+03 E0= -.41178630E+03  d E =-.518722E-03  mag=    14.0000
       N       E                     dE             d eps       ncg     rms          ort
SDA:   1    -0.411772590639E+03    0.20063E-01    0.00000E+00  6624   0.112E+00 0.000E+00
CGA:   2    -0.411775447410E+03   -0.28568E-02   -0.30022E-02  6624   0.681E-01 0.348E-02
CGA:   3    -0.411783364475E+03   -0.79171E-02   -0.76505E-02  6624   0.114E+00 0.515E-02
CGA:   4    -0.411789513359E+03   -0.61489E-02   -0.61519E-02  6624   0.185E-01-0.379E-02
CGA:   5    -0.411790277792E+03   -0.76443E-03   -0.78626E-03  6624   0.210E-01 0.138E-02
CGA:   6    -0.411791488858E+03   -0.12111E-02   -0.12134E-02  6624   0.978E-02 0.421E-03
CGA:   7    -0.411792089134E+03   -0.60028E-03   -0.60681E-03  6624   0.525E-02-0.242E-02
CGA:   8    -0.411792277197E+03   -0.18806E-03   -0.19034E-03  6624   0.293E-02 0.213E-03
CGA:   9    -0.411792337349E+03   -0.60151E-04   -0.80182E-04  6624   0.821E-03 0.636E-03
CGA:  10    -0.411792224874E+03    0.11247E-03   -0.10032E-03  6624   0.504E-02-0.151E-02
CGA:  11    -0.411792351475E+03   -0.12660E-03   -0.14699E-03  6624   0.253E-02 0.262E-03
CGA:  12    -0.411792453758E+03   -0.10228E-03   -0.12714E-03  6624   0.159E-02 0.490E-03
CGA:  13    -0.411792606536E+03   -0.15278E-03   -0.13884E-03  6624   0.764E-03-0.619E-03
CGA:  14    -0.411792604226E+03    0.23103E-05   -0.11022E-04  6624   0.280E-03 0.190E-03
   8 F= -.41179260E+03 E0= -.41178630E+03  d E =-.462539E-03  mag=    14.0000
       N       E                     dE             d eps       ncg     rms          ort
SDA:   1    -0.411772060182E+03    0.20546E-01    0.00000E+00  6624   0.613E+00 0.000E+00
CGA:   2    -0.411785890413E+03   -0.13830E-01   -0.20541E-01  6624   0.797E-01-0.153E+00
CGA:   3    -0.411788074681E+03   -0.21843E-02   -0.22746E-02  6624   0.313E-01 0.383E-02
CGA:   4    -0.411789066130E+03   -0.99145E-03   -0.10255E-02  6624   0.174E-01 0.398E-03
CGA:   5    -0.411792295178E+03   -0.32290E-02   -0.37382E-02  6624   0.141E-01-0.380E-02
CGA:   6    -0.411792556319E+03   -0.26114E-03   -0.31280E-03  6624   0.293E-02 0.135E-02
CGA:   7    -0.411792628678E+03   -0.72359E-04   -0.11516E-03  6624   0.247E-02 0.946E-03
CGA:   8    -0.411792865469E+03   -0.23679E-03   -0.24227E-03  6624   0.123E-02 0.769E-03
CGA:   9    -0.411792965363E+03   -0.99894E-04   -0.79515E-04  6624   0.115E-02-0.660E-03
CGA:  10    -0.411792971595E+03   -0.62314E-05   -0.22407E-04  6624   0.254E-03 0.273E-03
   9 F= -.41179297E+03 E0= -.41178663E+03  d E =-.829908E-03  mag=    14.0000
       N       E                     dE             d eps       ncg     rms          ort
SDA:   1    -0.411790572562E+03    0.23928E-02    0.00000E+00  6624   0.103E+00 0.000E+00
CGA:   2    -0.411792404659E+03   -0.18321E-02   -0.19775E-02  6624   0.101E-01 0.600E-02
CGA:   3    -0.411792577087E+03   -0.17243E-03   -0.22836E-03  6624   0.131E-02 0.153E-02
CGA:   4    -0.411792636592E+03   -0.59504E-04   -0.71515E-04  6624   0.223E-02 0.565E-03
CGA:   5    -0.411792816706E+03   -0.18011E-03   -0.18941E-03  6624   0.744E-03 0.110E-02
CGA:   6    -0.411792402632E+03    0.41407E-03   -0.33785E-03  6624   0.252E-01-0.315E-02
CGA:   7    -0.411792901656E+03   -0.49902E-03   -0.58099E-03  6624   0.146E-02 0.357E-02
CGA:   8    -0.411792914980E+03   -0.13324E-04   -0.35312E-04  6624   0.454E-03 0.409E-03
CGA:   9    -0.411792925914E+03   -0.10934E-04   -0.22130E-04  6624   0.447E-03 0.316E-03
CGA:  10    -0.411792938056E+03   -0.12142E-04   -0.56347E-04  6624   0.472E-02-0.814E-03
CGA:  11    -0.411793009917E+03   -0.71861E-04   -0.88341E-04  6624   0.395E-03 0.283E-03
CGA:  12    -0.411793006998E+03    0.29189E-05   -0.65630E-05  6624   0.975E-04 0.172E-03
  10 F= -.41179301E+03 E0= -.41178665E+03  d E =-.865311E-03  mag=    14.0000
       N       E                     dE             d eps       ncg     rms          ort
SDA:   1    -0.411792738160E+03    0.27176E-03    0.00000E+00  6624   0.938E-02 0.000E+00
CGA:   2    -0.411792847066E+03   -0.10891E-03   -0.15340E-03  6624   0.798E-03 0.829E-03
CGA:   3    -0.411792848690E+03   -0.16242E-05   -0.19605E-04  6624   0.458E-03 0.442E-03
CGA:   4    -0.411792882062E+03   -0.33372E-04   -0.32672E-04  6624   0.108E-02 0.708E-04
CGA:   5    -0.411792927179E+03   -0.45117E-04   -0.53702E-04  6624   0.163E-03 0.450E-03
CGA:   6    -0.411792955835E+03   -0.28656E-04    0.69281E-03  6624   0.126E-03 0.141E-03
CGA:   7    -0.411792976138E+03   -0.20304E-04    0.12250E-04  6624   0.468E-03-0.802E-04
CGA:   8    -0.411792978058E+03   -0.19194E-05   -0.65175E-05  6624   0.583E-04 0.949E-04
  11 F= -.41179298E+03 E0= -.41178662E+03  d E =-.836371E-03  mag=    14.0000
       N       E                     dE             d eps       ncg     rms          ort
SDA:   1    -0.411792029603E+03    0.94654E-03    0.00000E+00  6624   0.695E-01 0.000E+00
CGA:   2    -0.411793035258E+03   -0.10057E-02   -0.10562E-02  6624   0.187E-03 0.120E-02
CGA:   3    -0.411793041739E+03   -0.64808E-05   -0.78641E-05  6624   0.186E-03 0.102E-03
CGA:   4    -0.411793050157E+03   -0.84184E-05   -0.81233E-05  6624   0.318E-03-0.293E-04
CGA:   5    -0.411793059146E+03   -0.89887E-05   -0.11012E-04  6624   0.200E-03 0.162E-03
CGA:   6    -0.411793060562E+03   -0.14156E-05   -0.30241E-05  6624   0.372E-04 0.416E-04
  12 F= -.41179306E+03 E0= -.41178671E+03  d E =-.918875E-03  mag=    14.0000
       N       E                     dE             d eps       ncg     rms          ort
SDA:   1    -0.411787507832E+03    0.55513E-02    0.00000E+00  6624   0.362E+00 0.000E+00
CGA:   2    -0.411793003067E+03   -0.54952E-02   -0.55371E-02  6624   0.595E-03 0.565E-02
CGA:   3    -0.411792987670E+03    0.15397E-04   -0.61263E-04  6624   0.562E-02-0.147E-02
CGA:   4    -0.411793072077E+03   -0.84407E-04   -0.10226E-03  6624   0.425E-03 0.527E-03
CGA:   5    -0.411793068510E+03    0.35671E-05   -0.54358E-05  6624   0.121E-03 0.236E-03
CGA:   6    -0.411793066429E+03    0.20804E-05   -0.11274E-05  6624   0.601E-04 0.823E-04
  13 F= -.41179307E+03 E0= -.41178672E+03  d E =-.924743E-03  mag=    14.0000
       N       E                     dE             d eps       ncg     rms          ort
SDA:   1    -0.411792099468E+03    0.96904E-03    0.00000E+00  6624   0.375E-01 0.000E+00
CGA:   2    -0.411792988757E+03   -0.88929E-03   -0.80834E-03  6624   0.341E-02-0.410E-02
CGA:   3    -0.411793067978E+03   -0.79221E-04   -0.69028E-04  6624   0.157E-03-0.501E-03
CGA:   4    -0.411793071281E+03   -0.33029E-05   -0.38069E-05  6624   0.422E-04 0.362E-04
CGA:   5    -0.411793073708E+03   -0.24268E-05   -0.23380E-05  6624   0.347E-04 0.253E-04
CGA:   6    -0.411793083975E+03   -0.10267E-04    0.28518E-06  6624   0.234E-04 0.117E-04
CGA:   7    -0.411793088908E+03   -0.49334E-05    0.72910E-06  6624   0.208E-04 0.248E-04
  14 F= -.41179309E+03 E0= -.41178674E+03  d E =-.947222E-03  mag=    14.0000
       N       E                     dE             d eps       ncg     rms          ort
SDA:   1    -0.411792997286E+03    0.86689E-04    0.00000E+00  6624   0.183E-02 0.000E+00
CGA:   2    -0.411793034532E+03   -0.37246E-04   -0.13113E-03  6624   0.519E-02-0.298E-02
CGA:   3    -0.411793108836E+03   -0.74303E-04   -0.10198E-03  6624   0.380E-03 0.134E-02
CGA:   4    -0.411793106095E+03    0.27407E-05   -0.48553E-05  6624   0.109E-03 0.252E-03
CGA:   5    -0.411793104494E+03    0.16015E-05   -0.87233E-06  6624   0.591E-04 0.797E-04
CGA:   6    -0.411793103460E+03    0.10337E-05   -0.40778E-06  6624   0.379E-04 0.471E-04
  15 F= -.41179310E+03 E0= -.41178675E+03  d E =-.961773E-03  mag=    14.0000
       N       E                     dE             d eps       ncg     rms          ort
SDA:   1    -0.411792508171E+03    0.59632E-03    0.00000E+00  6624   0.174E-01 0.000E+00
CGA:   2    -0.411793088475E+03   -0.58030E-03   -0.57237E-03  6624   0.246E-02-0.525E-02
CGA:   3    -0.411793107658E+03   -0.19183E-04   -0.28252E-04  6624   0.601E-03 0.498E-03
CGA:   4    -0.411793106610E+03    0.10483E-05   -0.74103E-05  6624   0.222E-03 0.365E-03
CGA:   5    -0.411793106216E+03    0.39388E-06   -0.24963E-05  6624   0.894E-04 0.137E-03
CGA:   6    -0.411793105612E+03    0.60396E-06   -0.86289E-06  6624   0.525E-04 0.677E-04
  16 F= -.41179311E+03 E0= -.41178675E+03  d E =-.963925E-03  mag=    14.0000
       N       E                     dE             d eps       ncg     rms          ort
SDA:   1    -0.411792959519E+03    0.14670E-03    0.00000E+00  6624   0.299E-02 0.000E+00
CGA:   2    -0.411792871344E+03    0.88175E-04   -0.25118E-03  6624   0.136E-01-0.610E-02
CGA:   3    -0.411793124552E+03   -0.25321E-03   -0.28260E-03  6624   0.744E-03 0.288E-02
CGA:   4    -0.411793124470E+03    0.81618E-07   -0.95029E-05  6624   0.199E-03 0.463E-03
CGA:   5    -0.411793122941E+03    0.15292E-05   -0.16262E-05  6624   0.102E-03 0.142E-03
CGA:   6    -0.411793121864E+03    0.10768E-05   -0.71135E-06  6624   0.631E-04 0.801E-04
  17 F= -.41179312E+03 E0= -.41178677E+03  d E =-.980177E-03  mag=    14.0000
       N       E                     dE             d eps       ncg     rms          ort
SDA:   1    -0.411792187797E+03    0.93514E-03    0.00000E+00  6624   0.290E-01 0.000E+00
CGA:   2    -0.411793079582E+03   -0.89179E-03   -0.92835E-03  6624   0.353E-02-0.793E-02
CGA:   3    -0.411793112106E+03   -0.32525E-04   -0.41043E-04  6624   0.810E-03 0.743E-03
CGA:   4    -0.411793113440E+03   -0.13342E-05   -0.97736E-05  6624   0.308E-03 0.505E-03
CGA:   5    -0.411793114058E+03   -0.61803E-06   -0.34588E-05  6624   0.128E-03 0.194E-03
CGA:   6    -0.411793113934E+03    0.12455E-06   -0.13175E-05  6624   0.746E-04 0.967E-04
  18 F= -.41179311E+03 E0= -.41178676E+03  d E =-.972247E-03  mag=    14.0000
       N       E                     dE             d eps       ncg     rms          ort
SDA:   1    -0.411792305271E+03    0.80879E-03    0.00000E+00  6624   0.382E-02 0.000E+00
CGA:   2    -0.411792179263E+03    0.12601E-03   -0.14622E-03  6624   0.396E-01-0.564E-02
CGA:   3    -0.411792934196E+03   -0.75493E-03   -0.80004E-03  6624   0.384E-02 0.220E-02
CGA:   4    -0.411792979636E+03   -0.45440E-04   -0.72991E-04  6624   0.791E-03 0.116E-02
CGA:   5    -0.411792999343E+03   -0.19707E-04   -0.27045E-04  6624   0.949E-03 0.492E-03
CGA:   6    -0.411792315424E+03    0.68392E-03   -0.36948E-03  6624   0.642E-01-0.425E-02
CGA:   7    -0.411793239308E+03   -0.92388E-03   -0.10391E-02  6624   0.179E-02 0.107E-02
CGA:   8    -0.411793252749E+03   -0.13441E-04   -0.36259E-04  6624   0.209E-03 0.482E-03
CGA:   9    -0.411793251806E+03    0.94298E-06   -0.48416E-05  6624   0.119E-03 0.116E-03
CGA:  10    -0.411793278840E+03   -0.27034E-04   -0.37131E-04  6624   0.122E-02-0.412E-04
CGA:  11    -0.411793295703E+03   -0.16863E-04   -0.14971E-04  6624   0.398E-03-0.330E-04
CGA:  12    -0.411793298527E+03   -0.28236E-05   -0.46622E-05  6624   0.120E-03 0.270E-04
  19 F= -.41179330E+03 E0= -.41178696E+03  d E =-.184593E-03  mag=    14.0000
       N       E                     dE             d eps       ncg     rms          ort
SDA:   1    -0.411783423396E+03    0.98723E-02    0.00000E+00  6624   0.156E+00 0.000E+00
CGA:   2    -0.411786372322E+03   -0.29489E-02   -0.28560E-02  6624   0.233E-01-0.271E-02
CGA:   3    -0.411790207861E+03   -0.38355E-02   -0.39600E-02  6624   0.494E-01-0.111E-02
CGA:   4    -0.411791955914E+03   -0.17481E-02   -0.18162E-02  6624   0.986E-02 0.305E-02
CGA:   5    -0.411792309970E+03   -0.35406E-03   -0.39434E-03  6624   0.865E-02 0.125E-02
CGA:   6    -0.411793225405E+03   -0.91544E-03   -0.94835E-03  6624   0.335E-02-0.115E-02
CGA:   7    -0.411793315084E+03   -0.89679E-04   -0.90456E-04  6624   0.188E-02 0.171E-04
CGA:   8    -0.411793431130E+03   -0.11605E-03   -0.11803E-03  6624   0.944E-03 0.365E-03
CGA:   9    -0.411793444744E+03   -0.13615E-04   -0.31919E-04  6624   0.252E-03 0.470E-03
CGA:  10    -0.411793462958E+03   -0.18214E-04   -0.19844E-04  6624   0.300E-03 0.123E-03
CGA:  11    -0.411793525286E+03   -0.62328E-04    0.20255E-03  6624   0.160E-03-0.289E-04
CGA:  12    -0.411793531888E+03   -0.66023E-05   -0.54206E-05  6624   0.156E-03-0.430E-04
  20 F= -.41179353E+03 E0= -.41178719E+03  d E =-.417954E-03  mag=    14.0000
       N       E                     dE             d eps       ncg     rms          ort
SDA:   1    -0.411787801224E+03    0.57241E-02    0.00000E+00  6624   0.220E+00 0.000E+00
CGA:   2    -0.411791725473E+03   -0.39242E-02   -0.37733E-02  6624   0.109E-01 0.458E-02
CGA:   3    -0.411792315217E+03   -0.58974E-03   -0.55529E-03  6624   0.101E-01-0.380E-02
CGA:   4    -0.411793181674E+03   -0.86646E-03   -0.11262E-02  6624   0.572E-02-0.232E-02
CGA:   5    -0.411793300959E+03   -0.11929E-03   -0.16320E-03  6624   0.290E-02 0.162E-02
CGA:   6    -0.411793403719E+03   -0.10276E-03   -0.13911E-03  6624   0.924E-03 0.142E-02
CGA:   7    -0.411793457152E+03   -0.53434E-04   -0.59270E-04  6624   0.503E-03 0.309E-03
CGA:   8    -0.411793483823E+03   -0.26671E-04   -0.31393E-04  6624   0.294E-03 0.329E-03
CGA:   9    -0.411793460585E+03    0.23238E-04   -0.64719E-04  6624   0.291E-02-0.547E-03
CGA:  10    -0.411793580662E+03   -0.12008E-03   -0.10385E-03  6624   0.485E-03-0.555E-03
CGA:  11    -0.411793575381E+03    0.52806E-05   -0.69857E-05  6624   0.204E-03 0.252E-03
  21 F= -.41179358E+03 E0= -.41178724E+03  d E =-.461447E-03  mag=    14.0000
       N       E                     dE             d eps       ncg     rms          ort
SDA:   1    -0.411790355256E+03    0.32254E-02    0.00000E+00  6624   0.810E-01 0.000E+00
CGA:   2    -0.411792855723E+03   -0.25005E-02   -0.24687E-02  6624   0.526E-02-0.105E-01
CGA:   3    -0.411793151997E+03   -0.29627E-03   -0.30179E-03  6624   0.208E-02-0.893E-03
CGA:   4    -0.411793386809E+03   -0.23481E-03    0.41767E-03  6624   0.982E-03-0.219E-03
CGA:   5    -0.411793432439E+03   -0.45630E-04   -0.46795E-04  6624   0.885E-03 0.161E-03
CGA:   6    -0.411793467774E+03   -0.35336E-04   -0.37255E-04  6624   0.294E-03 0.769E-04
CGA:   7    -0.411793125433E+03    0.34234E-03   -0.18537E-03  6624   0.203E-01-0.145E-02
CGA:   8    -0.411793498090E+03   -0.37266E-03   -0.38686E-03  6624   0.186E-02-0.246E-03
CGA:   9    -0.411793532500E+03   -0.34410E-04   -0.48490E-04  6624   0.337E-03 0.209E-03
CGA:  10    -0.411793613910E+03   -0.81410E-04    0.19580E-03  6624   0.317E-03-0.125E-03
CGA:  11    -0.411793624637E+03   -0.10726E-04   -0.59576E-05  6624   0.275E-03-0.704E-04
CGA:  12    -0.411793618622E+03    0.60146E-05   -0.51456E-05  6624   0.222E-03 0.157E-03
  22 F= -.41179362E+03 E0= -.41178728E+03  d E =-.504688E-03  mag=    14.0000
       N       E                     dE             d eps       ncg     rms          ort
SDA:   1    -0.411792133444E+03    0.14912E-02    0.00000E+00  6624   0.138E-01 0.000E+00
CGA:   2    -0.411792997951E+03   -0.86451E-03   -0.71936E-03  6624   0.149E-01-0.416E-02
CGA:   3    -0.411793357899E+03   -0.35995E-03   -0.26779E-03  6624   0.291E-02-0.158E-02
CGA:   4    -0.411793389065E+03   -0.31167E-04   -0.53963E-04  6624   0.128E-02 0.405E-03
CGA:   5    -0.411793400729E+03   -0.11663E-04   -0.32610E-04  6624   0.680E-03 0.375E-03
CGA:   6    -0.411793424717E+03   -0.23989E-04   -0.30147E-04  6624   0.690E-03 0.142E-03
CGA:   7    -0.411793451971E+03   -0.27253E-04   -0.25104E-04  6624   0.223E-03-0.491E-04
CGA:   8    -0.411793492412E+03   -0.40441E-04    0.22356E-04  6624   0.962E-03-0.980E-04
CGA:   9    -0.411793618318E+03   -0.12591E-03    0.32774E-04  6624   0.178E-02-0.116E-02
CGA:  10    -0.411793640359E+03   -0.22041E-04   -0.31446E-04  6624   0.247E-03 0.156E-03
CGA:  11    -0.411793634093E+03    0.62664E-05   -0.43871E-05  6624   0.172E-03 0.199E-03
  23 F= -.41179363E+03 E0= -.41178730E+03  d E =-.520159E-03  mag=    14.0000
       N       E                     dE             d eps       ncg     rms          ort
SDA:   1    -0.411792777650E+03    0.86271E-03    0.00000E+00  6624   0.136E-01 0.000E+00
CGA:   2    -0.411793153966E+03   -0.37632E-03   -0.34270E-03  6624   0.534E-02-0.837E-03
CGA:   3    -0.411793453350E+03   -0.29938E-03   -0.45894E-03  6624   0.743E-02-0.557E-02
CGA:   4    -0.411793548519E+03   -0.95169E-04   -0.14646E-03  6624   0.189E-02 0.111E-02
CGA:   5    -0.411793575987E+03   -0.27468E-04   -0.60644E-04  6624   0.588E-03 0.978E-03
CGA:   6    -0.411793588782E+03   -0.12795E-04   -0.15122E-04  6624   0.244E-03 0.651E-04
CGA:   7    -0.411793586166E+03    0.26164E-05   -0.45189E-05  6624   0.969E-04 0.170E-03
  24 F= -.41179359E+03 E0= -.41178726E+03  d E =-.472232E-03  mag=    14.0000
       N       E                     dE             d eps       ncg     rms          ort
SDA:   1    -0.411792812468E+03    0.77631E-03    0.00000E+00  6624   0.243E-01 0.000E+00
CGA:   2    -0.411793312635E+03   -0.50017E-03   -0.43484E-03  6624   0.154E-02-0.190E-02
CGA:   3    -0.411793471635E+03   -0.15900E-03    0.55097E-03  6624   0.765E-03-0.174E-03
CGA:   4    -0.411791426231E+03    0.20454E-02   -0.11305E-02  6624   0.124E+00-0.787E-02
CGA:   5    -0.411793400590E+03   -0.19744E-02   -0.20230E-02  6624   0.647E-02 0.351E-02
CGA:   6    -0.411793659113E+03   -0.25852E-03   -0.29917E-03  6624   0.178E-02 0.911E-03
CGA:   7    -0.411793662356E+03   -0.32433E-05   -0.45136E-04  6624   0.369E-03 0.632E-03
  25 F= -.41179366E+03 E0= -.41178733E+03  d E =-.548422E-03  mag=    14.0000
       N       E                     dE             d eps       ncg     rms          ort
SDA:   1    -0.411789784129E+03    0.38750E-02    0.00000E+00  6624   0.147E+00 0.000E+00
CGA:   2    -0.411792734408E+03   -0.29503E-02   -0.27032E-02  6624   0.106E-01-0.388E-02
CGA:   3    -0.411793289234E+03   -0.55483E-03   -0.45146E-03  6624   0.509E-02-0.305E-02
CGA:   4    -0.411793506410E+03   -0.21718E-03   -0.17587E-03  6624   0.160E-02-0.143E-02
CGA:   5    -0.411793518625E+03   -0.12216E-04   -0.21306E-04  6624   0.402E-03 0.153E-03
CGA:   6    -0.411793521178E+03   -0.25527E-05   -0.11102E-04  6624   0.333E-03 0.178E-03
CGA:   7    -0.411793530578E+03   -0.94001E-05   -0.14055E-04  6624   0.393E-04 0.112E-03
  26 F= -.41179353E+03 E0= -.41178720E+03  d E =-.416644E-03  mag=    14.0000
       N       E                     dE             d eps       ncg     rms          ort
SDA:   1    -0.411776714814E+03    0.16806E-01    0.00000E+00  6624   0.104E+01 0.000E+00
CGA:   2    -0.411792968467E+03   -0.16254E-01   -0.16809E-01  6624   0.696E-02-0.459E-01
CGA:   3    -0.411793159672E+03   -0.19120E-03   -0.21543E-03  6624   0.381E-02 0.728E-03
CGA:   4    -0.411793343672E+03   -0.18400E-03   -0.20117E-03  6624   0.149E-02 0.104E-02
CGA:   5    -0.411793407978E+03   -0.64306E-04   -0.82740E-04  6624   0.868E-03 0.926E-03
CGA:   6    -0.411793543010E+03   -0.13503E-03    0.11205E-03  6624   0.654E-03 0.394E-03
CGA:   7    -0.411793638497E+03   -0.95487E-04   -0.98943E-04  6624   0.196E-02-0.842E-04
CGA:   8    -0.411793701685E+03   -0.63188E-04   -0.54015E-04  6624   0.102E-02-0.284E-03
CGA:   9    -0.411793730479E+03   -0.28794E-04   -0.26717E-04  6624   0.855E-03-0.660E-04
CGA:  10    -0.411793732513E+03   -0.20346E-05   -0.13037E-04  6624   0.347E-03 0.246E-03
  27 F= -.41179373E+03 E0= -.41178741E+03  d E =-.201935E-03  mag=    14.0000
       N       E                     dE             d eps       ncg     rms          ort
SDA:   1    -0.411785244778E+03    0.84857E-02    0.00000E+00  6624   0.102E+00 0.000E+00
CGA:   2    -0.411788496940E+03   -0.32522E-02   -0.31655E-02  6624   0.303E-01-0.107E-01
CGA:   3    -0.411789911599E+03   -0.14147E-02   -0.14062E-02  6624   0.411E-01-0.243E-02
CGA:   4    -0.411792216813E+03   -0.23052E-02   -0.23220E-02  6624   0.149E-01-0.264E-02
CGA:   5    -0.411793379349E+03   -0.11625E-02   -0.11645E-02  6624   0.941E-02-0.662E-04
CGA:   6    -0.411793641516E+03   -0.26217E-03   -0.30407E-03  6624   0.261E-02 0.172E-02
CGA:   7    -0.411793689456E+03   -0.47940E-04   -0.79111E-04  6624   0.100E-02 0.104E-02
CGA:   8    -0.411793845119E+03   -0.15566E-03   -0.13827E-03  6624   0.146E-02 0.389E-03
CGA:   9    -0.411793926814E+03   -0.81695E-04   -0.70310E-04  6624   0.878E-03-0.531E-03
CGA:  10    -0.411793945583E+03   -0.18769E-04   -0.19492E-04  6624   0.257E-03 0.340E-04
CGA:  11    -0.411793945876E+03   -0.29296E-06   -0.55406E-05  6624   0.181E-03 0.156E-03
CGA:  12    -0.411793957274E+03   -0.11398E-04   -0.11200E-04  6624   0.317E-03 0.207E-04
CGA:  13    -0.411793969987E+03   -0.12713E-04   -0.14020E-04  6624   0.504E-04 0.969E-04
CGA:  14    -0.411793987527E+03   -0.17540E-04    0.11175E-05  6624   0.401E-04 0.959E-05
CGA:  15    -0.411793995229E+03   -0.77024E-05    0.23334E-05  6624   0.317E-04 0.270E-04
  28 F= -.41179400E+03 E0= -.41178767E+03  d E =-.464651E-03  mag=    14.0000
       N       E                     dE             d eps       ncg     rms          ort
SDA:   1    -0.411793236326E+03    0.75120E-03    0.00000E+00  6624   0.261E-01 0.000E+00
CGA:   2    -0.411793830388E+03   -0.59406E-03   -0.51954E-03  6624   0.214E-02-0.262E-02
CGA:   3    -0.411793905930E+03   -0.75542E-04   -0.65427E-04  6624   0.928E-03-0.691E-03
CGA:   4    -0.411793619164E+03    0.28677E-03   -0.15961E-03  6624   0.284E-01-0.181E-02
CGA:   5    -0.411794029497E+03   -0.41033E-03   -0.44066E-03  6624   0.434E-03 0.615E-03
CGA:   6    -0.411794047429E+03   -0.17932E-04   -0.20159E-04  6624   0.220E-03 0.583E-04
CGA:   7    -0.411794044576E+03    0.28534E-05   -0.53682E-05  6624   0.922E-04 0.136E-03
  29 F= -.41179404E+03 E0= -.41178772E+03  d E =-.513998E-03  mag=    14.0000
       N       E                     dE             d eps       ncg     rms          ort
SDA:   1    -0.411792936945E+03    0.11105E-02    0.00000E+00  6624   0.220E-01 0.000E+00
CGA:   2    -0.411793692928E+03   -0.75598E-03   -0.66624E-03  6624   0.280E-02-0.366E-02
CGA:   3    -0.411793756362E+03   -0.63434E-04   -0.70493E-04  6624   0.164E-02 0.152E-03
CGA:   4    -0.411793857908E+03   -0.10155E-03   -0.10391E-03  6624   0.131E-02 0.223E-03
CGA:   5    -0.411792361504E+03    0.14964E-02   -0.83326E-03  6624   0.577E-01-0.550E-02
CGA:   6    -0.411793470142E+03   -0.11086E-02   -0.11878E-02  6624   0.675E-02 0.724E-02
CGA:   7    -0.411793593874E+03   -0.12373E-03   -0.18571E-03  6624   0.211E-02 0.988E-03
CGA:   8    -0.411793774879E+03   -0.18100E-03   -0.20463E-03  6624   0.347E-02 0.702E-03
CGA:   9    -0.411793917675E+03   -0.14280E-03   -0.15742E-03  6624   0.107E-02 0.173E-03
CGA:  10    -0.411794023498E+03   -0.10582E-03   -0.81766E-04  6624   0.258E-02-0.607E-03
CGA:  11    -0.411794045806E+03   -0.22308E-04   -0.43836E-04  6624   0.255E-03 0.215E-03
CGA:  12    -0.411794050590E+03   -0.47842E-05   -0.99834E-05  6624   0.162E-03 0.764E-04
CGA:  13    -0.411794096040E+03   -0.45450E-04    0.19771E-03  6624   0.672E-03-0.773E-04
CGA:  14    -0.411794117054E+03   -0.21014E-04   -0.60099E-05  6624   0.409E-03-0.176E-03
CGA:  15    -0.411794121206E+03   -0.41520E-05   -0.26017E-05  6624   0.151E-03-0.176E-04
  30 F= -.41179412E+03 E0= -.41178780E+03  d E =-.590628E-03  mag=    14.0000
       N       E                     dE             d eps       ncg     rms          ort
SDA:   1    -0.411791839706E+03    0.22773E-02    0.00000E+00  6624   0.123E-01 0.000E+00
CGA:   2    -0.411792640211E+03   -0.80050E-03   -0.75413E-03  6624   0.195E-01-0.171E-02
CGA:   3    -0.411793372809E+03   -0.73260E-03   -0.59108E-03  6624   0.517E-02-0.282E-02
CGA:   4    -0.411793994276E+03   -0.62147E-03   -0.61947E-03  6624   0.760E-02 0.391E-04
CGA:   5    -0.411794091213E+03   -0.96937E-04   -0.14846E-03  6624   0.877E-03 0.695E-03
CGA:   6    -0.411794098873E+03   -0.76596E-05   -0.28287E-04  6624   0.476E-03 0.381E-03
CGA:   7    -0.411794131425E+03   -0.32552E-04   -0.36260E-04  6624   0.793E-03 0.127E-03
CGA:   8    -0.411794180842E+03   -0.49417E-04   -0.47822E-04  6624   0.129E-03-0.491E-04
CGA:   9    -0.411794189198E+03   -0.83559E-05   -0.13882E-04  6624   0.943E-03-0.155E-03
CGA:  10    -0.411794201409E+03   -0.12211E-04   -0.16993E-04  6624   0.908E-04 0.720E-04
CGA:  11    -0.411794199212E+03    0.21966E-05   -0.14342E-05  6624   0.408E-04 0.580E-04
  31 F= -.41179420E+03 E0= -.41178788E+03  d E =-.668634E-03  mag=    14.0000
       N       E                     dE             d eps       ncg     rms          ort
SDA:   1    -0.411790724900E+03    0.34765E-02    0.00000E+00  6624   0.460E-01 0.000E+00
CGA:   2    -0.411791499511E+03   -0.77461E-03   -0.83020E-03  6624   0.807E-02 0.918E-03
CGA:   3    -0.411793727728E+03   -0.22282E-02   -0.20542E-02  6624   0.641E-02 0.964E-03
CGA:   4    -0.411793987003E+03   -0.25928E-03   -0.21622E-03  6624   0.453E-02-0.920E-03
CGA:   5    -0.411794348343E+03   -0.36134E-03   -0.39789E-03  6624   0.463E-02-0.138E-02
CGA:   6    -0.411794410545E+03   -0.62202E-04   -0.83228E-04  6624   0.104E-02 0.440E-03
CGA:   7    -0.411794412857E+03   -0.23120E-05   -0.25040E-04  6624   0.584E-03 0.441E-03
CGA:   8    -0.411794416552E+03   -0.36951E-05   -0.22505E-04  6624   0.432E-03 0.419E-03
CGA:   9    -0.411794261815E+03    0.15474E-03   -0.10201E-03  6624   0.117E-01-0.153E-02
CGA:  10    -0.411794480533E+03   -0.21872E-03   -0.27142E-03  6624   0.320E-03 0.170E-02
CGA:  11    -0.411794478777E+03    0.17561E-05   -0.60667E-05  6624   0.686E-04 0.136E-03
  32 F= -.41179448E+03 E0= -.41178815E+03  d E =-.279565E-03  mag=    14.0000
       N       E                     dE             d eps       ncg     rms          ort
SDA:   1    -0.411765302267E+03    0.29178E-01    0.00000E+00  6624   0.171E+00 0.000E+00
CGA:   2    -0.411769444595E+03   -0.41423E-02   -0.43685E-02  6624   0.980E-01 0.227E-02
CGA:   3    -0.411783443816E+03   -0.13999E-01   -0.13686E-01  6624   0.174E+00 0.448E-02
CGA:   4    -0.411791375544E+03   -0.79317E-02   -0.80590E-02  6624   0.242E-01-0.786E-02
CGA:   5    -0.411792390203E+03   -0.10147E-02   -0.10367E-02  6624   0.286E-01 0.767E-03
CGA:   6    -0.411793970050E+03   -0.15798E-02   -0.15713E-02  6624   0.115E-01-0.619E-03
CGA:   7    -0.411794615036E+03   -0.64499E-03   -0.62275E-03  6624   0.508E-02-0.195E-02
CGA:   8    -0.411794814484E+03   -0.19945E-03   -0.21364E-03  6624   0.223E-02 0.860E-03
CGA:   9    -0.411794858311E+03   -0.43827E-04   -0.70013E-04  6624   0.830E-03 0.657E-03
CGA:  10    -0.411795008096E+03   -0.14979E-03   -0.15568E-03  6624   0.322E-03-0.733E-04
CGA:  11    -0.411795037985E+03   -0.29890E-04   -0.32740E-04  6624   0.549E-03-0.648E-04
CGA:  12    -0.411795104230E+03   -0.66245E-04    0.22020E-03  6624   0.977E-03-0.413E-03
CGA:  13    -0.411795106974E+03   -0.27435E-05   -0.14882E-04  6624   0.173E-03 0.215E-03
  33 F= -.41179511E+03 E0= -.41178877E+03  d E =-.907762E-03  mag=    14.0000
       N       E                     dE             d eps       ncg     rms          ort
SDA:   1    -0.411789245074E+03    0.58592E-02    0.00000E+00  6624   0.221E+00 0.000E+00
CGA:   2    -0.411792717380E+03   -0.34723E-02   -0.35303E-02  6624   0.805E-02 0.232E-02
CGA:   3    -0.411790526276E+03    0.21911E-02   -0.14777E-02  6624   0.752E-01-0.152E-01
CGA:   4    -0.411794260397E+03   -0.37341E-02   -0.38492E-02  6624   0.462E-01 0.445E-02
CGA:   5    -0.411795099081E+03   -0.83868E-03   -0.10342E-02  6624   0.805E-03 0.255E-02
CGA:   6    -0.411795128583E+03   -0.29502E-04   -0.50794E-04  6624   0.385E-03 0.455E-03
CGA:   7    -0.411794362030E+03    0.76655E-03   -0.42069E-03  6624   0.311E-01-0.177E-02
CGA:   8    -0.411794975052E+03   -0.61302E-03   -0.65065E-03  6624   0.327E-02 0.605E-02
CGA:   9    -0.411795030102E+03   -0.55050E-04   -0.95208E-04  6624   0.977E-03 0.488E-03
CGA:  10    -0.411795132084E+03   -0.10198E-03   -0.10943E-03  6624   0.129E-02 0.974E-04
CGA:  11    -0.411795202860E+03   -0.70776E-04   -0.44973E-04  6624   0.296E-03-0.196E-03
CGA:  12    -0.411795258601E+03   -0.55741E-04   -0.20248E-04  6624   0.150E-02-0.430E-03
CGA:  13    -0.411795262074E+03   -0.34732E-05   -0.24494E-04  6624   0.104E-03 0.138E-03
  34 F= -.41179526E+03 E0= -.41178893E+03  d E =-.106286E-02  mag=    14.0000
       N       E                     dE             d eps       ncg     rms          ort
SDA:   1    -0.411785812291E+03    0.94463E-02    0.00000E+00  6624   0.114E+00 0.000E+00
CGA:   2    -0.411787851361E+03   -0.20391E-02   -0.20630E-02  6624   0.206E-01 0.218E-02
CGA:   3    -0.411793260087E+03   -0.54087E-02   -0.57225E-02  6624   0.442E-01-0.233E-02
CGA:   4    -0.411794262336E+03   -0.10022E-02   -0.10453E-02  6624   0.111E-01 0.257E-02
CGA:   5    -0.411794487944E+03   -0.22561E-03   -0.31922E-03  6624   0.525E-02 0.143E-02
CGA:   6    -0.411794887897E+03   -0.39995E-03   -0.43841E-03  6624   0.520E-02 0.645E-03
CGA:   7    -0.411795090716E+03   -0.20282E-03   -0.16058E-03  6624   0.183E-02-0.466E-03
CGA:   8    -0.411795275405E+03   -0.18469E-03   -0.15935E-03  6624   0.353E-02-0.837E-03
CGA:   9    -0.411795335198E+03   -0.59793E-04   -0.44727E-04  6624   0.134E-02-0.145E-03
CGA:  10    -0.411795341564E+03   -0.63663E-05   -0.21478E-04  6624   0.569E-03 0.170E-03
CGA:  11    -0.411795333934E+03    0.76304E-05   -0.13342E-04  6624   0.500E-03 0.232E-03
CGA:  12    -0.411795330848E+03    0.30856E-05   -0.19642E-04  6624   0.525E-03 0.279E-03
CGA:  13    -0.411795386034E+03   -0.55185E-04   -0.37164E-04  6624   0.140E-02-0.527E-03
CGA:  14    -0.411795387213E+03   -0.11795E-05   -0.25196E-04  6624   0.184E-03 0.291E-03
  35 F= -.41179539E+03 E0= -.41178905E+03  d E =-.118800E-02  mag=    14.0000
       N       E                     dE             d eps       ncg     rms          ort
SDA:   1    -0.411760543141E+03    0.34843E-01    0.00000E+00  6624   0.263E+00 0.000E+00
CGA:   2    -0.411766021692E+03   -0.54786E-02   -0.55715E-02  6624   0.949E-01 0.225E-02
CGA:   3    -0.411789505221E+03   -0.23484E-01   -0.23972E-01  6624   0.364E-01-0.307E-02
CGA:   4    -0.411791470007E+03   -0.19648E-02   -0.20250E-02  6624   0.487E-01 0.127E-02
CGA:   5    -0.411793430390E+03   -0.19604E-02   -0.20564E-02  6624   0.173E-01 0.152E-02
CGA:   6    -0.411794346154E+03   -0.91576E-03   -0.83482E-03  6624   0.811E-02-0.236E-02
CGA:   7    -0.411794897556E+03   -0.55140E-03   -0.55457E-03  6624   0.524E-02 0.243E-03
CGA:   8    -0.411795060478E+03   -0.16292E-03   -0.14902E-03  6624   0.185E-02-0.272E-03
CGA:   9    -0.411795227059E+03   -0.16658E-03   -0.16736E-03  6624   0.172E-02-0.118E-03
CGA:  10    -0.411795274921E+03   -0.47862E-04   -0.47658E-04  6624   0.499E-03-0.144E-04
CGA:  11    -0.411795281000E+03   -0.60786E-05   -0.17451E-04  6624   0.211E-03 0.225E-03
CGA:  12    -0.411795329790E+03   -0.48790E-04   -0.49022E-04  6624   0.342E-03-0.309E-05
CGA:  13    -0.411795344219E+03   -0.14429E-04   -0.85321E-05  6624   0.125E-03-0.977E-04
CGA:  14    -0.411795353076E+03   -0.88573E-05   -0.16204E-04  6624   0.381E-03-0.754E-04
CGA:  15    -0.411795382407E+03   -0.29330E-04   -0.16412E-04  6624   0.588E-03-0.285E-03
CGA:  16    -0.411795381671E+03    0.73616E-06   -0.81995E-05  6624   0.619E-04 0.120E-03
  36 F= -.41179538E+03 E0= -.41178903E+03  d E =-.118246E-02  mag=    14.0000
       N       E                     dE             d eps       ncg     rms          ort
SDA:   1    -0.411783067906E+03    0.12315E-01    0.00000E+00  6624   0.353E-01 0.000E+00
CGA:   2    -0.411787287772E+03   -0.42199E-02   -0.43863E-02  6624   0.109E+00-0.398E-02
CGA:   3    -0.411792105868E+03   -0.48181E-02   -0.48793E-02  6624   0.718E-01 0.165E-02
CGA:   4    -0.411793857330E+03   -0.17515E-02   -0.17815E-02  6624   0.756E-02 0.557E-02
CGA:   5    -0.411794446416E+03   -0.58909E-03   -0.59367E-03  6624   0.147E-01 0.102E-02
CGA:   6    -0.411795076559E+03   -0.63014E-03   -0.64884E-03  6624   0.377E-02 0.482E-03
CGA:   7    -0.411795296344E+03   -0.21978E-03   -0.18051E-03  6624   0.288E-02-0.142E-02
CGA:   8    -0.411795411068E+03   -0.11472E-03   -0.11512E-03  6624   0.176E-02 0.374E-04
CGA:   9    -0.411795438943E+03   -0.27875E-04   -0.43485E-04  6624   0.337E-03 0.335E-03
CGA:  10    -0.411795448780E+03   -0.98372E-05   -0.16408E-04  6624   0.321E-03 0.220E-03
CGA:  11    -0.411795441835E+03    0.69449E-05   -0.52128E-04  6624   0.455E-02-0.634E-03
CGA:  12    -0.411795511342E+03   -0.69507E-04   -0.86016E-04  6624   0.369E-03 0.299E-03
CGA:  13    -0.411795507319E+03    0.40232E-05   -0.54238E-05  6624   0.801E-04 0.167E-03
  37 F= -.41179551E+03 E0= -.41178917E+03  d E =-.130811E-02  mag=    14.0000
       N       E                     dE             d eps       ncg     rms          ort
SDA:   1    -0.411793786126E+03    0.17252E-02    0.00000E+00  6624   0.205E-01 0.000E+00
CGA:   2    -0.411794344237E+03   -0.55811E-03   -0.48837E-03  6624   0.602E-02-0.188E-02
CGA:   3    -0.411794671569E+03   -0.32733E-03   -0.32607E-03  6624   0.773E-02-0.344E-03
CGA:   4    -0.411795225132E+03   -0.55356E-03   -0.53711E-03  6624   0.104E-02 0.158E-02
CGA:   5    -0.411795341683E+03   -0.11655E-03   -0.11925E-03  6624   0.315E-02-0.874E-04
CGA:   6    -0.411795490205E+03   -0.14852E-03   -0.12483E-03  6624   0.112E-02-0.108E-02
CGA:   7    -0.411795531493E+03   -0.41289E-04   -0.40433E-04  6624   0.762E-03-0.916E-04
CGA:   8    -0.411795526582E+03    0.49116E-05   -0.12375E-04  6624   0.370E-03 0.377E-03
  38 F= -.41179553E+03 E0= -.41178919E+03  d E =-.132737E-02  mag=    14.0000
       N       E                     dE             d eps       ncg     rms          ort
SDA:   1    -0.411792319551E+03    0.32119E-02    0.00000E+00  6624   0.103E+00 0.000E+00
CGA:   2    -0.411794420844E+03   -0.21013E-02   -0.19954E-02  6624   0.925E-02-0.138E-02
CGA:   3    -0.411794890458E+03   -0.46961E-03   -0.42048E-03  6624   0.845E-02-0.464E-02
CGA:   4    -0.411795022189E+03   -0.13173E-03   -0.17017E-03  6624   0.149E-02 0.111E-02
CGA:   5    -0.411795085546E+03   -0.63357E-04   -0.66214E-04  6624   0.131E-02 0.198E-03
CGA:   6    -0.411795272321E+03   -0.18677E-03    0.23856E-03  6624   0.129E-02 0.837E-03
CGA:   7    -0.411795327174E+03   -0.54853E-04   -0.48367E-04  6624   0.111E-02-0.398E-03
CGA:   8    -0.411795218934E+03    0.10824E-03   -0.13920E-03  6624   0.168E-01-0.194E-02
CGA:   9    -0.411795452406E+03   -0.23347E-03   -0.29004E-03  6624   0.120E-02 0.135E-02
CGA:  10    -0.411795467422E+03   -0.15016E-04   -0.25655E-04  6624   0.149E-03 0.301E-03
CGA:  11    -0.411795477104E+03   -0.96828E-05   -0.12424E-04  6624   0.732E-03-0.240E-03
CGA:  12    -0.411795495252E+03   -0.18147E-04   -0.15105E-04  6624   0.838E-04-0.874E-04
CGA:  13    -0.411795510796E+03   -0.15545E-04    0.21327E-05  6624   0.169E-03-0.729E-04
CGA:  14    -0.411795508531E+03    0.22651E-05   -0.16025E-05  6624   0.495E-04 0.860E-04
  39 F= -.41179551E+03 E0= -.41178917E+03  d E =-.130932E-02  mag=    14.0000
       N       E                     dE             d eps       ncg     rms          ort
SDA:   1    -0.411794339188E+03    0.11716E-02    0.00000E+00  6624   0.400E-01 0.000E+00
CGA:   2    -0.411795296856E+03   -0.95767E-03   -0.86224E-03  6624   0.395E-02-0.406E-02
CGA:   3    -0.411795393705E+03   -0.96849E-04   -0.85510E-04  6624   0.477E-03-0.472E-03
CGA:   4    -0.411795431311E+03   -0.37606E-04   -0.34239E-04  6624   0.445E-03 0.976E-04
CGA:   5    -0.411795460984E+03   -0.29673E-04   -0.30053E-04  6624   0.688E-03-0.550E-04
CGA:   6    -0.411795522078E+03   -0.61094E-04    0.52436E-03  6624   0.121E-03-0.303E-04
CGA:   7    -0.411795520850E+03    0.12281E-05   -0.15515E-05  6624   0.609E-04 0.778E-04
  40 F= -.41179552E+03 E0= -.41178918E+03  d E =-.132164E-02  mag=    14.0000
       N       E                     dE             d eps       ncg     rms          ort
SDA:   1    -0.411794574125E+03    0.94795E-03    0.00000E+00  6624   0.289E-01 0.000E+00
CGA:   2    -0.411795472277E+03   -0.89815E-03   -0.83599E-03  6624   0.243E-02-0.503E-02
CGA:   3    -0.411795494426E+03   -0.22148E-04   -0.31328E-04  6624   0.312E-03 0.306E-03
CGA:   4    -0.411795491941E+03    0.24841E-05   -0.37556E-05  6624   0.144E-03 0.192E-03
CGA:   5    -0.411795491367E+03    0.57477E-06   -0.20264E-05  6624   0.703E-04 0.946E-04
CGA:   6    -0.411795491392E+03   -0.25117E-07   -0.12611E-05  6624   0.476E-04 0.554E-04
  41 F= -.41179549E+03 E0= -.41178915E+03  d E =-.129218E-02  mag=    14.0000
       N       E                     dE             d eps       ncg     rms          ort
SDA:   1    -0.411795072320E+03    0.41905E-03    0.00000E+00  6624   0.233E-01 0.000E+00
CGA:   2    -0.411795539162E+03   -0.46684E-03   -0.52472E-03  6624   0.881E-03 0.402E-02
CGA:   3    -0.411795541149E+03   -0.19873E-05   -0.13519E-04  6624   0.160E-03 0.425E-03
CGA:   4    -0.411795538481E+03    0.26684E-05   -0.18147E-05  6624   0.644E-04 0.142E-03
CGA:   5    -0.411795537223E+03    0.12577E-05   -0.41941E-06  6624   0.446E-04 0.537E-04
CGA:   6    -0.411795536292E+03    0.93088E-06   -0.25467E-06  6624   0.336E-04 0.389E-04
  42 F= -.41179554E+03 E0= -.41178920E+03  d E =-.133708E-02  mag=    14.0000
       N       E                     dE             d eps       ncg     rms          ort
SDA:   1    -0.411794564840E+03    0.97238E-03    0.00000E+00  6624   0.298E-01 0.000E+00
CGA:   2    -0.411795519709E+03   -0.95487E-03   -0.94738E-03  6624   0.138E-02-0.617E-02
CGA:   3    -0.411795527274E+03   -0.75647E-05   -0.17488E-04  6624   0.392E-03 0.585E-03
CGA:   4    -0.411795524942E+03    0.23315E-05   -0.48686E-05  6624   0.120E-03 0.308E-03
CGA:   5    -0.411795523583E+03    0.13589E-05   -0.84967E-06  6624   0.698E-04 0.920E-04
CGA:   6    -0.411795522624E+03    0.95889E-06   -0.41035E-06  6624   0.462E-04 0.570E-04
  43 F= -.41179552E+03 E0= -.41178918E+03  d E =-.132341E-02  mag=    14.0000
       N       E                     dE             d eps       ncg     rms          ort
SDA:   1    -0.411794619089E+03    0.90449E-03    0.00000E+00  6624   0.261E-01 0.000E+00
CGA:   2    -0.411795462440E+03   -0.84335E-03   -0.89006E-03  6624   0.243E-02-0.755E-02
CGA:   3    -0.411795490122E+03   -0.27682E-04   -0.34408E-04  6624   0.584E-03 0.855E-03
CGA:   4    -0.411795490964E+03   -0.84145E-06   -0.79590E-05  6624   0.165E-03 0.413E-03
CGA:   5    -0.411795490445E+03    0.51901E-06   -0.15355E-05  6624   0.863E-04 0.119E-03
CGA:   6    -0.411795490212E+03    0.23300E-06   -0.83117E-06  6624   0.509E-04 0.662E-04
  44 F= -.41179549E+03 E0= -.41178915E+03  d E =-.129100E-02  mag=    14.0000
       N       E                     dE             d eps       ncg     rms          ort
SDA:   1    -0.411794833603E+03    0.65684E-03    0.00000E+00  6624   0.343E-02 0.000E+00
CGA:   2    -0.411794954312E+03   -0.12071E-03   -0.12285E-03  6624   0.362E-02-0.198E-03
CGA:   3    -0.411795270212E+03   -0.31590E-03   -0.74397E-05  6624   0.125E-01-0.206E-02
CGA:   4    -0.411795475984E+03   -0.20577E-03   -0.25308E-03  6624   0.144E-02 0.208E-02
CGA:   5    -0.411795502397E+03   -0.26413E-04   -0.35679E-04  6624   0.382E-03 0.419E-03
CGA:   6    -0.411795465060E+03    0.37338E-04   -0.92116E-04  6624   0.562E-02-0.900E-03
CGA:   7    -0.411795577962E+03   -0.11290E-03   -0.11226E-03  6624   0.747E-03-0.223E-04
CGA:   8    -0.411795613711E+03   -0.35749E-04   -0.35525E-04  6624   0.549E-03-0.235E-03
CGA:   9    -0.411795609665E+03    0.40462E-05   -0.50799E-05  6624   0.322E-03 0.260E-03
  45 F= -.41179561E+03 E0= -.41178927E+03  d E =-.119453E-03  mag=    14.0000
       N       E                     dE             d eps       ncg     rms          ort
SDA:   1    -0.411791637025E+03    0.39767E-02    0.00000E+00  6624   0.147E+00 0.000E+00
CGA:   2    -0.411795490061E+03   -0.38530E-02   -0.38916E-02  6624   0.510E-02-0.123E-01
CGA:   3    -0.411795548072E+03   -0.58011E-04   -0.72661E-04  6624   0.409E-03 0.492E-03
CGA:   4    -0.411795547397E+03    0.67525E-06   -0.64195E-05  6624   0.206E-03 0.250E-03
CGA:   5    -0.411795552025E+03   -0.46278E-05   -0.58889E-05  6624   0.110E-03 0.996E-04
CGA:   6    -0.411795559634E+03   -0.76093E-05   -0.72906E-05  6624   0.631E-04 0.784E-04
  46 F= -.41179556E+03 E0= -.41178921E+03  d E =-.694223E-04  mag=    14.0000
       N       E                     dE             d eps       ncg     rms          ort
SDA:   1    -0.411795437843E+03    0.11418E-03    0.00000E+00  6624   0.225E-02 0.000E+00
CGA:   2    -0.411795464243E+03   -0.26400E-04   -0.16507E-03  6624   0.992E-02-0.427E-02
CGA:   3    -0.411795587414E+03   -0.12317E-03   -0.16683E-03  6624   0.847E-03 0.175E-02
CGA:   4    -0.411795588065E+03   -0.65093E-06   -0.12637E-04  6624   0.187E-03 0.429E-03
CGA:   5    -0.411795587698E+03    0.36714E-06   -0.23265E-05  6624   0.592E-04 0.988E-04
CGA:   6    -0.411795587016E+03    0.68131E-06   -0.58270E-06  6624   0.342E-04 0.443E-04
  47 F= -.41179559E+03 E0= -.41178924E+03  d E =-.968046E-04  mag=    14.0000
       N       E                     dE             d eps       ncg     rms          ort
SDA:   1    -0.411795497357E+03    0.90340E-04    0.00000E+00  6624   0.158E-02 0.000E+00
CGA:   2    -0.411795548858E+03   -0.51501E-04   -0.81973E-04  6624   0.287E-02-0.187E-02
CGA:   3    -0.411795591797E+03   -0.42939E-04   -0.48490E-04  6624   0.189E-03 0.273E-03
CGA:   4    -0.411795589978E+03    0.18190E-05   -0.18030E-05  6624   0.861E-04 0.136E-03
CGA:   5    -0.411795588890E+03    0.10881E-05   -0.64148E-06  6624   0.496E-04 0.648E-04
CGA:   6    -0.411795588229E+03    0.66060E-06   -0.36182E-06  6624   0.327E-04 0.401E-04
  48 F= -.41179559E+03 E0= -.41178924E+03  d E =-.980175E-04  mag=    14.0000
       N       E                     dE             d eps       ncg     rms          ort
SDA:   1    -0.411795428332E+03    0.16056E-03    0.00000E+00  6624   0.488E-02 0.000E+00
CGA:   2    -0.411795572329E+03   -0.14400E-03   -0.24310E-03  6624   0.722E-02-0.512E-02
CGA:   3    -0.411795650639E+03   -0.78310E-04   -0.10585E-03  6624   0.701E-03 0.164E-02
CGA:   4    -0.411795649783E+03    0.85627E-06   -0.85959E-05  6624   0.263E-03 0.463E-03
CGA:   5    -0.411795649373E+03    0.40992E-06   -0.28986E-05  6624   0.131E-03 0.179E-03
CGA:   6    -0.411795648860E+03    0.51268E-06   -0.13726E-05  6624   0.872E-04 0.104E-03
  49 F= -.41179565E+03 E0= -.41178930E+03  d E =-.606307E-04  mag=    14.0000
       N       E                     dE             d eps       ncg     rms          ort
SDA:   1    -0.411795467661E+03    0.18171E-03    0.00000E+00  6624   0.301E-02 0.000E+00
CGA:   2    -0.411795103210E+03    0.36445E-03   -0.32174E-03  6624   0.278E-01-0.841E-02
CGA:   3    -0.411795659736E+03   -0.55653E-03   -0.58713E-03  6624   0.186E-02 0.359E-02
CGA:   4    -0.411795668357E+03   -0.86211E-05   -0.24931E-04  6624   0.345E-03 0.888E-03
CGA:   5    -0.411795665617E+03    0.27404E-05   -0.36898E-05  6624   0.130E-03 0.290E-03
CGA:   6    -0.411795664484E+03    0.11331E-05   -0.10190E-05  6624   0.881E-04 0.105E-03
  50 F= -.41179566E+03 E0= -.41178932E+03  d E =-.762547E-04  mag=    14.0000
       N       E                     dE             d eps       ncg     rms          ort
SDA:   1    -0.411794947083E+03    0.71853E-03    0.00000E+00  6624   0.201E-01 0.000E+00
CGA:   2    -0.411795576402E+03   -0.62932E-03   -0.69662E-03  6624   0.594E-02-0.834E-02
CGA:   3    -0.411795640195E+03   -0.63793E-04   -0.67823E-04  6624   0.172E-02 0.538E-03
CGA:   4    -0.411795652916E+03   -0.12721E-04   -0.24217E-04  6624   0.664E-03 0.857E-03
CGA:   5    -0.411795656106E+03   -0.31903E-05   -0.10411E-04  6624   0.234E-03 0.476E-03
CGA:   6    -0.411795666817E+03   -0.10711E-04   -0.11397E-04  6624   0.407E-03-0.299E-04
CGA:   7    -0.411795694558E+03   -0.27742E-04   -0.25622E-04  6624   0.374E-03 0.459E-04
CGA:   8    -0.411795728230E+03   -0.33672E-04    0.14181E-04  6624   0.861E-04 0.997E-04
CGA:   9    -0.411795740784E+03   -0.12554E-04    0.15208E-05  6624   0.472E-04-0.877E-05
CGA:  10    -0.411795740523E+03    0.26104E-06   -0.44336E-06  6624   0.409E-04 0.391E-04
  51 F= -.41179574E+03 E0= -.41178940E+03  d E =-.152294E-03  mag=    14.0000
       N       E                     dE             d eps       ncg     rms          ort
SDA:   1    -0.411794243418E+03    0.14974E-02    0.00000E+00  6624   0.603E-01 0.000E+00
CGA:   2    -0.411795536965E+03   -0.12935E-02   -0.12492E-02  6624   0.555E-02-0.817E-02
CGA:   3    -0.411795670513E+03   -0.13355E-03   -0.13728E-03  6624   0.109E-02-0.152E-02
CGA:   4    -0.411795685490E+03   -0.14978E-04   -0.78802E-04  6624   0.467E-02-0.880E-03
CGA:   5    -0.411795749911E+03   -0.64421E-04   -0.69929E-04  6624   0.170E-03 0.355E-03
CGA:   6    -0.411795760747E+03   -0.10836E-04    0.16089E-03  6624   0.140E-03 0.754E-04
CGA:   7    -0.411795773003E+03   -0.12257E-04    0.70257E-04  6624   0.118E-03 0.131E-03
CGA:   8    -0.411795772611E+03    0.39266E-06   -0.13391E-05  6624   0.859E-04 0.973E-04
  52 F= -.41179577E+03 E0= -.41178943E+03  d E =-.184381E-03  mag=    14.0000
       N       E                     dE             d eps       ncg     rms          ort
SDA:   1    -0.411795630629E+03    0.14237E-03    0.00000E+00  6624   0.328E-02 0.000E+00
CGA:   2    -0.411795698423E+03   -0.67795E-04   -0.18934E-03  6624   0.600E-02-0.401E-02
CGA:   3    -0.411795791589E+03   -0.93166E-04   -0.10601E-03  6624   0.564E-03 0.114E-02
CGA:   4    -0.411795790374E+03    0.12150E-05   -0.63373E-05  6624   0.221E-03 0.399E-03
CGA:   5    -0.411795788863E+03    0.15119E-05   -0.17459E-05  6624   0.130E-03 0.166E-03
CGA:   6    -0.411795787792E+03    0.10703E-05   -0.97724E-06  6624   0.918E-04 0.108E-03
  53 F= -.41179579E+03 E0= -.41178945E+03  d E =-.151816E-04  mag=    14.0000
       N       E                     dE             d eps       ncg     rms          ort
SDA:   1    -0.411794990676E+03    0.79819E-03    0.00000E+00  6624   0.231E-01 0.000E+00
CGA:   2    -0.411795712190E+03   -0.72151E-03   -0.81568E-03  6624   0.522E-02-0.912E-02
CGA:   3    -0.411795760871E+03   -0.48681E-04   -0.56055E-04  6624   0.159E-02 0.968E-03
CGA:   4    -0.411795769576E+03   -0.87045E-05   -0.20916E-04  6624   0.552E-03 0.894E-03
CGA:   5    -0.411795772767E+03   -0.31906E-05   -0.68158E-05  6624   0.192E-03 0.307E-03
CGA:   6    -0.411795772787E+03   -0.20500E-07   -0.19546E-05  6624   0.114E-03 0.144E-03
  54 F= -.41179577E+03 E0= -.41178943E+03  d E =-.176366E-06  mag=    14.0000
       N       E                     dE             d eps       ncg     rms          ort
SDA:   1    -0.411795450884E+03    0.32188E-03    0.00000E+00  6624   0.845E-02 0.000E+00
CGA:   2    -0.411795700766E+03   -0.24988E-03   -0.35287E-03  6624   0.471E-02-0.528E-02
CGA:   3    -0.411795771728E+03   -0.70961E-04   -0.77780E-04  6624   0.523E-03 0.100E-02
CGA:   4    -0.411795771636E+03    0.91104E-07   -0.57135E-05  6624   0.266E-03 0.417E-03
CGA:   5    -0.411795771040E+03    0.59619E-06   -0.23200E-05  6624   0.181E-03 0.215E-03
CGA:   6    -0.411795770954E+03    0.86533E-07   -0.17696E-05  6624   0.140E-03 0.157E-03
  55 F= -.41179577E+03 E0= -.41178942E+03  d E =0.165695E-05  mag=    14.0000
       N       E                     dE             d eps       ncg     rms          ort
SDA:   1    -0.411795577533E+03    0.19351E-03    0.00000E+00  6624   0.131E-02 0.000E+00
CGA:   2    -0.411795663272E+03   -0.85740E-04    0.23236E-04  6624   0.399E-03 0.613E-03
CGA:   3    -0.411795715243E+03   -0.51971E-04    0.52165E-05  6624   0.191E-03 0.276E-03
CGA:   4    -0.411795727789E+03   -0.12546E-04    0.32877E-05  6624   0.110E-03 0.137E-03
CGA:   5    -0.411795739387E+03   -0.11597E-04    0.73402E-06  6624   0.776E-04 0.915E-04
CGA:   6    -0.411795748483E+03   -0.90964E-05    0.43379E-06  6624   0.591E-04 0.673E-04
  56 F= -.41179575E+03 E0= -.41178940E+03  d E =0.241277E-04  mag=    14.0000
       N       E                     dE             d eps       ncg     rms          ort
SDA:   1    -0.411795793709E+03   -0.54322E-04    0.00000E+00  6624   0.456E-02 0.000E+00
CGA:   2    -0.411795842810E+03   -0.49101E-04   -0.65931E-04  6624   0.181E-02 0.276E-02
CGA:   3    -0.411795852607E+03   -0.97967E-05   -0.21410E-04  6624   0.108E-02 0.137E-02
CGA:   4    -0.411795855391E+03   -0.27839E-05   -0.11204E-04  6624   0.749E-03 0.891E-03
CGA:   5    -0.411795856026E+03   -0.63520E-06   -0.70610E-05  6624   0.562E-03 0.646E-03
CGA:   6    -0.411795855799E+03    0.22642E-06   -0.48622E-05  6624   0.442E-03 0.497E-03
  57 F= -.41179586E+03 E0= -.41178951E+03  d E =-.831888E-04  mag=    14.0000
       N       E                     dE             d eps       ncg     rms          ort
SDA:   1    -0.411790964784E+03    0.48912E-02    0.00000E+00  6624   0.575E-01 0.000E+00
CGA:   2    -0.411792713851E+03   -0.17491E-02   -0.53771E-03  6624   0.896E-01-0.499E-01
CGA:   3    -0.411795172300E+03   -0.24584E-02   -0.24952E-02  6624   0.943E-02 0.113E-01
CGA:   4    -0.411795458603E+03   -0.28630E-03   -0.30224E-03  6624   0.366E-02 0.414E-02
CGA:   5    -0.411795610078E+03   -0.15148E-03   -0.15517E-03  6624   0.331E-03 0.137E-02
CGA:   6    -0.411795484208E+03    0.12587E-03   -0.70848E-04  6624   0.681E-02-0.123E-02
CGA:   7    -0.411795617430E+03   -0.13322E-03   -0.15434E-03  6624   0.135E-02 0.631E-03
CGA:   8    -0.411795700741E+03   -0.83311E-04   -0.82694E-04  6624   0.163E-02-0.872E-03
CGA:   9    -0.411795762146E+03   -0.61405E-04   -0.46874E-04  6624   0.436E-03-0.529E-03
CGA:  10    -0.411795710370E+03    0.51776E-04   -0.35453E-04  6624   0.849E-02-0.135E-02
CGA:  11    -0.411795803943E+03   -0.93574E-04   -0.12593E-03  6624   0.188E-03 0.682E-03
CGA:  12    -0.411795800940E+03    0.30035E-05   -0.21292E-05  6624   0.684E-04 0.113E-03
  58 F= -.41179580E+03 E0= -.41178946E+03  d E =0.548597E-04  mag=    14.0000
       N       E                     dE             d eps       ncg     rms          ort
SDA:   1    -0.411794644300E+03    0.11596E-02    0.00000E+00  6624   0.387E-01 0.000E+00
CGA:   2    -0.411795824357E+03   -0.11801E-02   -0.11339E-02  6624   0.108E-02-0.468E-02
CGA:   3    -0.411795829572E+03   -0.52150E-05   -0.18916E-04  6624   0.310E-03 0.450E-03
CGA:   4    -0.411795825019E+03    0.45529E-05   -0.54835E-05  6624   0.162E-03 0.275E-03
CGA:   5    -0.411795824037E+03    0.98260E-06   -0.29123E-05  6624   0.118E-03 0.133E-03
CGA:   6    -0.411795825514E+03   -0.14776E-05   -0.32773E-05  6624   0.867E-04 0.998E-04
  59 F= -.41179583E+03 E0= -.41178948E+03  d E =0.302852E-04  mag=    14.0000
