       N       E                     dE             d eps       ncg     rms          ort
DAV:   1     0.292946137775E+04    0.29295E+04   -0.13729E+05 10584   0.175E+03
DAV:   2    -0.284272854527E+02   -0.29579E+04   -0.27131E+04 10584   0.454E+02
DAV:   3    -0.428703120387E+03   -0.40028E+03   -0.39199E+03 10584   0.191E+02
DAV:   4    -0.445465100707E+03   -0.16762E+02   -0.16437E+02 10584   0.381E+01
DAV:   5    -0.446018602874E+03   -0.55350E+00   -0.54767E+00 10584   0.572E+00
SDA:   6    -0.236110336010E+03    0.20991E+03   -0.54767E+00 10584   0.178E+04 0.000E+00
CGA:   7    -0.218102375983E+03    0.18008E+02   -0.15924E+03 10584   0.579E+03-0.943E+02
CGA:   8    -0.307608710202E+03   -0.89506E+02   -0.13901E+02 10584   0.132E+04-0.329E+04
CGA:   9    -0.236296403720E+03    0.71312E+02   -0.74758E+02 10584   0.133E+04-0.258E+03
CGA:  10    -0.258351662492E+03   -0.22055E+02   -0.40452E+02 10584   0.349E+03-0.266E+03
CGA:  11    -0.273705294689E+03   -0.15354E+02   -0.34921E+01 10584   0.276E+04 0.299E+04
CGA:  12    -0.220887121642E+03    0.52818E+02   -0.13727E+03 10584   0.517E+03-0.319E+03
CGA:  13    -0.238236927190E+03   -0.17350E+02   -0.79971E+01 10584   0.117E+04 0.124E+04
CGA:  14    -0.259944004064E+03   -0.21707E+02   -0.35436E+02 10584   0.337E+03-0.373E+03
CGA:  15    -0.264284045270E+03   -0.43400E+01   -0.19643E+01 10584   0.404E+03 0.297E+03
CGA:  16    -0.325999562323E+03   -0.61716E+02   -0.47667E+01 10584   0.127E+04 0.333E+04
CGA:  17    -0.264426934497E+03    0.61573E+02   -0.64920E+02 10584   0.324E+04-0.695E+03
CGA:  18    -0.251463212993E+03    0.12964E+02   -0.15339E+03 10584   0.372E+03-0.323E+03
CGA:  19    -0.259641982039E+03   -0.81788E+01   -0.39766E+01 10584   0.391E+03 0.380E+03
CGA:  20    -0.298451609865E+03   -0.38810E+02   -0.48997E+01 10584   0.995E+03 0.217E+04
CGA:  21    -0.253767847890E+03    0.44684E+02   -0.32095E+02 10584   0.290E+04-0.118E+04
CGA:  22    -0.255814429057E+03   -0.20466E+01   -0.10888E+03 10584   0.366E+03-0.356E+03
CGA:  23    -0.301132825998E+03   -0.45318E+02   -0.92455E+01 10584   0.253E+04-0.398E+04
CGA:  24    -0.256487184956E+03    0.44646E+02   -0.11314E+03 10584   0.471E+03-0.247E+03
CGA:  25    -0.293072358531E+03   -0.36585E+02   -0.12975E+02 10584   0.122E+04 0.298E+04
CGA:  26    -0.258610644918E+03    0.34462E+02   -0.45999E+02 10584   0.502E+03-0.295E+03
CGA:  27    -0.262948146977E+03   -0.43375E+01   -0.12449E+02 10584   0.449E+03-0.413E+03
CGA:  28    -0.258446416267E+03    0.45017E+01   -0.12250E+02 10584   0.837E+03-0.802E+03
CGA:  29    -0.257867348873E+03    0.57907E+00   -0.28460E+02 10584   0.359E+03-0.347E+03
CGA:  30    -0.290273888444E+03   -0.32407E+02   -0.60770E+01 10584   0.416E+04-0.627E+04
CGA:  31    -0.251161575099E+03    0.39112E+02   -0.15437E+03 10584   0.384E+03-0.256E+03
CGA:  32    -0.269474919307E+03   -0.18313E+02   -0.10393E+02 10584   0.149E+04-0.175E+04
CGA:  33    -0.251967818235E+03    0.17507E+02   -0.46988E+02 10584   0.387E+03-0.321E+03
CGA:  34    -0.268372709598E+03   -0.16405E+02   -0.91572E+01 10584   0.435E+03-0.431E+03
CGA:  35    -0.257386740142E+03    0.10986E+02   -0.89924E+01 10584   0.451E+03-0.390E+03
CGA:  36    -0.264300975831E+03   -0.69142E+01   -0.11145E+02 10584   0.353E+03-0.360E+03
CGA:  37    -0.286241640267E+03   -0.21941E+02   -0.67417E+01 10584   0.517E+04-0.644E+04
CGA:  38    -0.260439812944E+03    0.25802E+02   -0.15689E+03 10584   0.355E+03-0.278E+03
CGA:  39    -0.334826895523E+03   -0.74387E+02   -0.68111E+01 10584   0.754E+03 0.130E+04
CGA:  40    -0.311107338335E+03    0.23720E+02   -0.13174E+02 10584   0.379E+04-0.106E+04
CGA:  41    -0.256949280294E+03    0.54158E+02   -0.96353E+02 10584   0.587E+03-0.286E+03
CGA:  42    -0.265303181551E+03   -0.83539E+01   -0.11912E+02 10584   0.577E+03-0.570E+03
CGA:  43    -0.266671140067E+03   -0.13680E+01   -0.10250E+02 10584   0.250E+04-0.256E+04
CGA:  44    -0.260356975904E+03    0.63142E+01   -0.60400E+02 10584   0.424E+03-0.389E+03
CGA:  45    -0.322873741074E+03   -0.62517E+02   -0.61070E+01 10584   0.309E+04-0.108E+04
CGA:  46    -0.271818974319E+03    0.51055E+02   -0.63898E+02 10584   0.251E+04-0.822E+03
CGA:  47    -0.268456960221E+03    0.33620E+01   -0.41219E+02 10584   0.430E+03-0.304E+03
CGA:  48    -0.298971359830E+03   -0.30514E+02   -0.53050E+01 10584   0.596E+04-0.778E+04
CGA:  49    -0.266562711388E+03    0.32409E+02   -0.12598E+03 10584   0.424E+03-0.288E+03
CGA:  50    -0.318237368573E+03   -0.51675E+02   -0.57361E+01 10584   0.199E+04-0.199E+04
CGA:  51    -0.302067221923E+03    0.16170E+02   -0.34539E+02 10584   0.208E+04-0.610E+03
CGA:  52    -0.310469224912E+03   -0.84020E+01   -0.22495E+02 10584   0.219E+04-0.279E+04
CGA:  53    -0.279093773700E+03    0.31375E+02   -0.33646E+02 10584   0.455E+04-0.155E+04
CGA:  54    -0.261270506180E+03    0.17823E+02   -0.81636E+02 10584   0.465E+03-0.400E+03
CGA:  55    -0.291669843633E+03   -0.30399E+02   -0.59031E+01 10584   0.518E+04-0.708E+04
CGA:  56    -0.261420355759E+03    0.30249E+02   -0.86045E+02 10584   0.472E+03-0.355E+03
CGA:  57    -0.284149881029E+03   -0.22730E+02   -0.59096E+01 10584   0.573E+04-0.671E+04
CGA:  58    -0.261041609855E+03    0.23108E+02   -0.91385E+02 10584   0.481E+03-0.387E+03
CGA:  59    -0.290200415028E+03   -0.29159E+02   -0.60036E+01 10584   0.665E+04-0.816E+04
CGA:  60    -0.262066663070E+03    0.28134E+02   -0.99983E+02 10584   0.529E+03-0.406E+03
CGA:  61    -0.288570368891E+03   -0.26504E+02   -0.63540E+01 10584   0.630E+04-0.730E+04
CGA:  62    -0.263173084138E+03    0.25397E+02   -0.89035E+02 10584   0.601E+03-0.472E+03
CGA:  63    -0.290732916811E+03   -0.27560E+02   -0.68483E+01 10584   0.631E+04-0.732E+04
CGA:  64    -0.264756281654E+03    0.25977E+02   -0.83691E+02 10584   0.755E+03-0.588E+03
CGA:  65    -0.289988981783E+03   -0.25233E+02   -0.81272E+01 10584   0.603E+04-0.670E+04
CGA:  66    -0.266443958187E+03    0.23545E+02   -0.75181E+02 10584   0.101E+04-0.805E+03
CGA:  67    -0.294090869346E+03   -0.27647E+02   -0.10134E+02 10584   0.622E+04-0.681E+04
CGA:  68    -0.269329588697E+03    0.24761E+02   -0.72523E+02 10584   0.164E+04-0.128E+04
CGA:  69    -0.301221998478E+03   -0.31892E+02   -0.14710E+02 10584   0.629E+04-0.675E+04
CGA:  70    -0.275008741180E+03    0.26213E+02   -0.68101E+02 10584   0.304E+04-0.228E+04
CGA:  71    -0.324686747418E+03   -0.49678E+02   -0.21250E+02 10584   0.352E+04-0.479E+04
CGA:  72    -0.312725620337E+03    0.11961E+02   -0.30129E+02 10584   0.525E+04-0.376E+04
CGA:  73    -0.294849779550E+03    0.17876E+02   -0.49278E+02 10584   0.544E+04-0.409E+04
CGA:  74    -0.286214814806E+03    0.86350E+01   -0.51937E+02 10584   0.489E+04-0.436E+04
CGA:  75    -0.286633775696E+03   -0.41896E+00   -0.46640E+02 10584   0.461E+04-0.457E+04
CGA:  76    -0.292455508534E+03   -0.58217E+01   -0.41899E+02 10584   0.541E+04-0.569E+04
CGA:  77    -0.295284220499E+03   -0.28287E+01   -0.48131E+02 10584   0.533E+04-0.544E+04
CGA:  78    -0.302159491044E+03   -0.68753E+01   -0.44934E+02 10584   0.549E+04-0.593E+04
CGA:  79    -0.308194526774E+03   -0.60350E+01   -0.44506E+02 10584   0.510E+04-0.554E+04
CGA:  80    -0.317254338293E+03   -0.90598E+01   -0.38404E+02 10584   0.419E+04-0.497E+04
CGA:  81    -0.326480043273E+03   -0.92257E+01   -0.28815E+02 10584   0.271E+04-0.357E+04
CGA:  82    -0.334474172479E+03   -0.79941E+01   -0.15999E+02 10584   0.100E+04-0.173E+04
CGA:  83    -0.337864559079E+03   -0.33904E+01   -0.48836E+01 10584   0.128E+03-0.357E+03
CGA:  84    -0.338327012507E+03   -0.46245E+00   -0.47808E+00 10584   0.269E+01-0.270E+01
CGA:  85    -0.338352255332E+03   -0.25243E-01   -0.25319E-01 10584   0.291E+01-0.140E+00
CGA:  86    -0.338440189258E+03   -0.87934E-01    0.61073E+00 10584   0.188E+01 0.248E+01
CGA:  87    -0.338470776085E+03   -0.30587E-01   -0.30677E-01 10584   0.419E+01-0.179E+00
CGA:  88    -0.338847182533E+03   -0.37641E+00   -0.35689E-01 10584   0.176E+02 0.286E+00
CGA:  89    -0.339166516323E+03   -0.31933E+00   -0.35828E+00 10584   0.108E+01 0.682E+00
CGA:  90    -0.339203852857E+03   -0.37337E-01   -0.37332E-01 10584   0.169E+01-0.512E-01
CGA:  91    -0.339340582537E+03   -0.13673E+00   -0.18583E+00 10584   0.212E+01-0.657E+00
CGA:  92    -0.339368171814E+03   -0.27589E-01   -0.27715E-01 10584   0.591E+00-0.124E+00
CGA:  93    -0.339405138590E+03   -0.36967E-01   -0.67210E-01 10584   0.404E+01-0.293E+00
CGA:  94    -0.339455306395E+03   -0.50168E-01   -0.46965E-01 10584   0.324E+01-0.342E+00
CGA:  95    -0.339496005774E+03   -0.40699E-01   -0.34377E-01 10584   0.827E+00 0.223E+00
CGA:  96    -0.339509439694E+03   -0.13434E-01   -0.12894E-01 10584   0.606E+00 0.174E-01
CGA:  97    -0.339525992424E+03   -0.16553E-01   -0.16378E-01 10584   0.104E+01-0.218E-01
CGA:  98    -0.339547442658E+03   -0.21450E-01   -0.21363E-01 10584   0.108E+01-0.681E-01
CGA:  99    -0.339569871627E+03   -0.22429E-01   -0.22637E-01 10584   0.898E+00-0.822E-01
CGA: 100    -0.339589426157E+03   -0.19555E-01   -0.19059E-01 10584   0.398E+00-0.657E-01
CGA: 101    -0.339597004664E+03   -0.75785E-02   -0.73543E-02 10584   0.198E+00-0.251E-01
CGA: 102    -0.339605466876E+03   -0.84622E-02   -0.94034E-02 10584   0.490E+00-0.481E-01
CGA: 103    -0.339620452008E+03   -0.14985E-01   -0.16551E-01 10584   0.769E+00-0.126E+00
CGA: 104    -0.339633469430E+03   -0.13017E-01   -0.11841E-01 10584   0.363E+00-0.105E+00
CGA: 105    -0.339639967399E+03   -0.64980E-02   -0.61410E-02 10584   0.193E+00-0.423E-01
CGA: 106    -0.339644423609E+03   -0.44562E-02   -0.44428E-02 10584   0.161E+00-0.783E-02
CGA: 107    -0.339649730497E+03   -0.53069E-02   -0.52810E-02 10584   0.220E+00 0.759E-02
CGA: 108    -0.339659517553E+03   -0.97871E-02   -0.97298E-02 10584   0.203E+00 0.509E-02
CGA: 109    -0.339664272935E+03   -0.47554E-02   -0.47286E-02 10584   0.480E-01-0.966E-02
CGA: 110    -0.339666010648E+03   -0.17377E-02   -0.18388E-02 10584   0.617E-01-0.119E-01
CGA: 111    -0.339669489694E+03   -0.34790E-02   -0.48875E-02 10584   0.212E+00-0.186E-01
CGA: 112    -0.339674457014E+03   -0.49673E-02   -0.49650E-02 10584   0.177E+00-0.105E-02
CGA: 113    -0.339678959855E+03   -0.45028E-02   -0.45522E-02 10584   0.843E-01 0.647E-02
CGA: 114    -0.339681308142E+03   -0.23483E-02   -0.23885E-02 10584   0.450E-01 0.313E-02
CGA: 115    -0.339683171819E+03   -0.18637E-02   -0.18551E-02 10584   0.588E-01 0.114E-02
CGA: 116    -0.339686619515E+03   -0.34477E-02   -0.32615E-02 10584   0.798E-01 0.967E-02
SDA: 117    -0.339689114930E+03   -0.24954E-02   -0.26023E-02 10584   0.238E-01 0.131E-01
CGA: 118    -0.339690892457E+03   -0.17775E-02   -0.18387E-02 10584   0.226E-01-0.149E-02
CGA: 119    -0.339685709636E+03    0.51828E-02   -0.30775E-02 10584   0.269E+00-0.502E-01
CGA: 120    -0.339693106029E+03   -0.73964E-02   -0.77590E-02 10584   0.329E-01 0.153E-01
CGA: 121    -0.339695990474E+03   -0.28844E-02   -0.28062E-02 10584   0.130E-01 0.537E-02
CGA: 122    -0.339696885585E+03   -0.89511E-03   -0.88971E-03 10584   0.760E-02-0.755E-03
CGA: 123    -0.339697139928E+03   -0.25434E-03   -0.29398E-03 10584   0.317E-02 0.152E-02
CGA: 124    -0.339697660456E+03   -0.52053E-03   -0.48449E-03 10584   0.148E-01 0.561E-03
CGA: 125    -0.339700110526E+03   -0.24501E-02    0.24118E-01 10584   0.154E-01 0.124E-01
CGA: 126    -0.339700807666E+03   -0.69714E-03   -0.58230E-03 10584   0.412E-02-0.387E-02
CGA: 127    -0.339701186306E+03   -0.37864E-03   -0.36963E-03 10584   0.478E-02 0.153E-03
CGA: 128    -0.339701886886E+03   -0.70058E-03    0.11107E-01 10584   0.184E-02 0.254E-02
CGA: 129    -0.339702032833E+03   -0.14595E-03   -0.14319E-03 10584   0.283E-02 0.329E-03
CGA: 130    -0.339702556926E+03   -0.52409E-03    0.96778E-03 10584   0.207E-02 0.279E-02
CGA: 131    -0.339702699788E+03   -0.14286E-03   -0.33430E-03 10584   0.139E-01-0.210E-02
CGA: 132    -0.339703125937E+03   -0.42615E-03   -0.44484E-03 10584   0.157E-02 0.537E-03
CGA: 133    -0.339702400127E+03    0.72581E-03   -0.43524E-03 10584   0.552E-01-0.405E-02
CGA: 134    -0.339704364307E+03   -0.19642E-02   -0.20020E-02 10584   0.552E-02 0.369E-02
CGA: 135    -0.339704722771E+03   -0.35846E-03   -0.27845E-03 10584   0.184E-02-0.107E-02
CGA: 136    -0.339705527812E+03   -0.80504E-03   -0.49614E-05 10584   0.587E-01-0.881E-03
CGA: 137    -0.339708672315E+03   -0.31445E-02   -0.14027E-02 10584   0.917E-01 0.118E-01
CGA: 138    -0.339714240686E+03   -0.55684E-02   -0.35763E-02 10584   0.379E-01 0.836E-02
CGA: 139    -0.339716895467E+03   -0.26548E-02   -0.31644E-02 10584   0.657E-01-0.168E-01
CGA: 140    -0.339720350211E+03   -0.34547E-02   -0.20617E-02 10584   0.279E-01 0.187E-02
CGA: 141    -0.339721587338E+03   -0.12371E-02   -0.83456E-03 10584   0.417E-02-0.115E-02
CGA: 142    -0.339721924930E+03   -0.33759E-03   -0.22443E-03 10584   0.514E-02-0.792E-03
CGA: 143    -0.339722248977E+03   -0.32405E-03   -0.35468E-03 10584   0.744E-02 0.196E-03
CGA: 144    -0.339722505577E+03   -0.25660E-03   -0.40943E-03 10584   0.605E-02 0.908E-03
CGA: 145    -0.339722838167E+03   -0.33259E-03   -0.37380E-03 10584   0.259E-02 0.307E-03
CGA: 146    -0.339723027013E+03   -0.18885E-03   -0.19979E-03 10584   0.455E-02 0.101E-03
CGA: 147    -0.339723195639E+03   -0.16863E-03   -0.31017E-03 10584   0.246E-02 0.147E-02
CGA: 148    -0.339723221869E+03   -0.26229E-04   -0.11415E-03 10584   0.126E-02 0.718E-03
CGA: 149    -0.339723381272E+03   -0.15940E-03   -0.17136E-03 10584   0.212E-02 0.282E-03
CGA: 150    -0.339723563016E+03   -0.18174E-03   -0.17758E-03 10584   0.243E-02-0.101E-03
CGA: 151    -0.339723616446E+03   -0.53430E-04   -0.10577E-03 10584   0.125E-02 0.539E-03
CGA: 152    -0.339723620744E+03   -0.42981E-05   -0.46501E-04 10584   0.613E-03 0.398E-03
CGA: 153    -0.339723647097E+03   -0.26353E-04   -0.47085E-04 10584   0.915E-03 0.284E-03
CGA: 154    -0.339723713397E+03   -0.66301E-04   -0.88258E-04 10584   0.901E-03 0.352E-03
CGA: 155    -0.339723722580E+03   -0.91832E-05   -0.46317E-04 10584   0.406E-03 0.423E-03
CGA: 156    -0.339723729713E+03   -0.71322E-05   -0.26674E-04 10584   0.497E-03 0.256E-03
CGA: 157    -0.339720111325E+03    0.36184E-02   -0.19989E-02 10584   0.142E+00-0.625E-02
CGA: 158    -0.339723850144E+03   -0.37388E-02   -0.39509E-02 10584   0.387E-02 0.891E-02
CGA: 159    -0.339723997582E+03   -0.14744E-03   -0.18193E-03 10584   0.143E-02 0.187E-03
CGA: 160    -0.339724079773E+03   -0.82191E-04   -0.10533E-03 10584   0.396E-03 0.182E-03
CGA: 161    -0.339724080289E+03   -0.51626E-06   -0.16707E-04 10584   0.108E-03 0.108E-03
   1 F= -.33972408E+03 E0= -.33972145E+03  d E =-.339724E+03  mag=    14.0000
       N       E                     dE             d eps       ncg     rms          ort
SDA:   1    -0.339723161718E+03    0.91805E-03    0.00000E+00 10584   0.282E-01 0.000E+00
CGA:   2    -0.339724227947E+03   -0.10662E-02   -0.11390E-02 10584   0.131E-02 0.108E-02
CGA:   3    -0.339724322204E+03   -0.94257E-04   -0.58509E-04 10584   0.435E-03-0.302E-03
CGA:   4    -0.339724325867E+03   -0.36635E-05   -0.18872E-04 10584   0.153E-03 0.143E-03
CGA:   5    -0.339724330132E+03   -0.42645E-05   -0.11755E-04 10584   0.944E-04 0.751E-04
CGA:   6    -0.339724291150E+03    0.38982E-04   -0.57133E-04 10584   0.405E-02-0.379E-03
CGA:   7    -0.339724339801E+03   -0.48651E-04   -0.10493E-03 10584   0.282E-03 0.436E-03
CGA:   8    -0.339724354989E+03   -0.15188E-04   -0.18201E-04 10584   0.179E-03 0.303E-04
CGA:   9    -0.339722522075E+03    0.18329E-02   -0.10058E-02 10584   0.572E-01-0.244E-02
CGA:  10    -0.339723838408E+03   -0.13163E-02   -0.16180E-02 10584   0.395E-02 0.268E-03
CGA:  11    -0.339724263700E+03   -0.42529E-03   -0.42963E-03 10584   0.268E-02 0.188E-04
CGA:  12    -0.339724461917E+03   -0.19822E-03   -0.22146E-03 10584   0.217E-03 0.123E-03
CGA:  13    -0.339724472458E+03   -0.10541E-04   -0.14537E-04 10584   0.150E-03 0.218E-04
CGA:  14    -0.339724511365E+03   -0.38907E-04   -0.36984E-04 10584   0.209E-03-0.122E-03
CGA:  15    -0.339724509602E+03    0.17636E-05   -0.88328E-05 10584   0.761E-04 0.538E-04
   2 F= -.33972451E+03 E0= -.33972188E+03  d E =-.429313E-03  mag=    14.0000
       N       E                     dE             d eps       ncg     rms          ort
SDA:   1    -0.339723342063E+03    0.11693E-02    0.00000E+00 10584   0.241E-01 0.000E+00
CGA:   2    -0.339724115912E+03   -0.77385E-03   -0.77844E-03 10584   0.183E-02 0.531E-03
CGA:   3    -0.339724384369E+03   -0.26846E-03   -0.28569E-03 10584   0.252E-02 0.283E-03
CGA:   4    -0.339724631431E+03   -0.24706E-03   -0.18970E-03 10584   0.154E-02-0.412E-03
CGA:   5    -0.339724680549E+03   -0.49117E-04   -0.77013E-04 10584   0.415E-03 0.195E-03
CGA:   6    -0.339724717418E+03   -0.36870E-04   -0.41117E-04 10584   0.337E-03 0.391E-04
CGA:   7    -0.339724763918E+03   -0.46500E-04   -0.31238E-04 10584   0.280E-03-0.145E-03
CGA:   8    -0.339724762838E+03    0.10796E-05   -0.53108E-05 10584   0.128E-03 0.418E-04
   3 F= -.33972476E+03 E0= -.33972214E+03  d E =-.253237E-03  mag=    14.0000
       N       E                     dE             d eps       ncg     rms          ort
SDA:   1    -0.339717056575E+03    0.77073E-02    0.00000E+00 10584   0.286E-01 0.000E+00
CGA:   2    -0.339719251862E+03   -0.21953E-02   -0.23391E-02 10584   0.402E-01 0.168E-02
CGA:   3    -0.339723067854E+03   -0.38160E-02   -0.37161E-02 10584   0.125E-01-0.141E-02
CGA:   4    -0.339724297121E+03   -0.12293E-02   -0.12803E-02 10584   0.872E-02 0.911E-03
CGA:   5    -0.339724920773E+03   -0.62365E-03   -0.53496E-03 10584   0.384E-02-0.913E-03
CGA:   6    -0.339725104022E+03   -0.18325E-03   -0.22441E-03 10584   0.934E-03 0.466E-03
CGA:   7    -0.339725265985E+03   -0.16196E-03   -0.16501E-03 10584   0.155E-02-0.380E-03
CGA:   8    -0.339725269776E+03   -0.37913E-05   -0.21707E-04 10584   0.578E-03 0.141E-03
CGA:   9    -0.339725266073E+03    0.37033E-05   -0.12774E-04 10584   0.271E-03 0.134E-03
CGA:  10    -0.339725272060E+03   -0.59874E-05   -0.13747E-04 10584   0.361E-03 0.806E-04
CGA:  11    -0.339725309069E+03   -0.37008E-04   -0.27028E-04 10584   0.228E-03-0.134E-03
CGA:  12    -0.339725324468E+03   -0.15399E-04   -0.68949E-05 10584   0.209E-03-0.106E-03
CGA:  13    -0.339725324733E+03   -0.26486E-06   -0.23191E-05 10584   0.149E-03 0.198E-04
   4 F= -.33972532E+03 E0= -.33972271E+03  d E =-.561894E-03  mag=    14.0000
       N       E                     dE             d eps       ncg     rms          ort
SDA:   1    -0.339718315198E+03    0.70093E-02    0.00000E+00 10584   0.294E-01 0.000E+00
CGA:   2    -0.339720997024E+03   -0.26818E-02   -0.26789E-02 10584   0.259E-01-0.105E-03
CGA:   3    -0.339723542542E+03   -0.25455E-02   -0.25510E-02 10584   0.188E-01 0.389E-03
CGA:   4    -0.339724802739E+03   -0.12602E-02   -0.12285E-02 10584   0.725E-02-0.775E-03
CGA:   5    -0.339725240893E+03   -0.43815E-03   -0.47768E-03 10584   0.391E-02 0.940E-03
CGA:   6    -0.339725594512E+03   -0.35362E-03   -0.32433E-03 10584   0.220E-02-0.859E-03
CGA:   7    -0.339725681819E+03   -0.87306E-04   -0.10410E-03 10584   0.522E-03 0.367E-03
CGA:   8    -0.339725730855E+03   -0.49036E-04   -0.49188E-04 10584   0.345E-03 0.588E-05
CGA:   9    -0.339725771472E+03   -0.40618E-04   -0.47198E-04 10584   0.474E-03-0.206E-03
CGA:  10    -0.339725775142E+03   -0.36700E-05   -0.13374E-04 10584   0.850E-04 0.127E-03
   5 F= -.33972578E+03 E0= -.33972317E+03  d E =-.450410E-03  mag=    14.0000
       N       E                     dE             d eps       ncg     rms          ort
SDA:   1    -0.339626596051E+03    0.99175E-01    0.00000E+00 10584   0.315E+00 0.000E+00
CGA:   2    -0.339662853133E+03   -0.36257E-01   -0.36282E-01 10584   0.508E+00-0.125E-02
CGA:   3    -0.339701536081E+03   -0.38683E-01   -0.38666E-01 10584   0.133E+00 0.126E-02
CGA:   4    -0.339716262329E+03   -0.14726E-01   -0.14798E-01 10584   0.156E+00-0.594E-02
CGA:   5    -0.339722317434E+03   -0.60551E-02   -0.62830E-02 10584   0.217E-01 0.472E-02
CGA:   6    -0.339725318115E+03   -0.30007E-02   -0.29721E-02 10584   0.135E-01 0.769E-03
CGA:   7    -0.339726039101E+03   -0.72099E-03   -0.62343E-03 10584   0.622E-02-0.192E-02
CGA:   8    -0.339726554617E+03   -0.51552E-03   -0.51476E-03 10584   0.180E-02 0.589E-03
CGA:   9    -0.339726698487E+03   -0.14387E-03   -0.14437E-03 10584   0.140E-02 0.202E-04
CGA:  10    -0.339726852492E+03   -0.15400E-03   -0.15837E-03 10584   0.749E-03-0.250E-03
CGA:  11    -0.339726889402E+03   -0.36910E-04   -0.39297E-04 10584   0.270E-03 0.765E-04
CGA:  12    -0.339726642515E+03    0.24689E-03   -0.13912E-03 10584   0.513E-02-0.855E-03
CGA:  13    -0.339726760333E+03   -0.11782E-03   -0.18115E-03 10584   0.151E-02 0.516E-03
CGA:  14    -0.339726956809E+03   -0.19648E-03   -0.18870E-03 10584   0.777E-03-0.158E-03
CGA:  15    -0.339726998765E+03   -0.41955E-04   -0.40860E-04 10584   0.103E-03-0.921E-05
CGA:  16    -0.339727000368E+03   -0.16037E-05   -0.57595E-05 10584   0.831E-04 0.417E-04
CGA:  17    -0.339727015848E+03   -0.15480E-04   -0.35121E-04 10584   0.245E-03-0.131E-03
CGA:  18    -0.339727010652E+03    0.51957E-05   -0.65797E-05 10584   0.783E-04 0.890E-04
   6 F= -.33972701E+03 E0= -.33972444E+03  d E =-.123551E-02  mag=    14.0000
       N       E                     dE             d eps       ncg     rms          ort
SDA:   1    -0.339546692654E+03    0.18032E+00    0.00000E+00 10584   0.459E+00 0.000E+00
CGA:   2    -0.339659917064E+03   -0.11322E+00   -0.11290E+00 10584   0.619E+00 0.322E-02
CGA:   3    -0.339688300436E+03   -0.28383E-01   -0.29764E-01 10584   0.293E+00-0.405E-01
CGA:   4    -0.339713480679E+03   -0.25180E-01   -0.25305E-01 10584   0.873E-01 0.382E-02
CGA:   5    -0.339720518477E+03   -0.70378E-02   -0.69740E-02 10584   0.518E-01-0.280E-02
CGA:   6    -0.339723475521E+03   -0.29570E-02   -0.31176E-02 10584   0.207E-01 0.215E-02
CGA:   7    -0.339725096079E+03   -0.16206E-02   -0.15629E-02 10584   0.855E-02-0.118E-02
CGA:   8    -0.339725635245E+03   -0.53917E-03   -0.57582E-03 10584   0.525E-02 0.607E-03
CGA:   9    -0.339726082807E+03   -0.44756E-03   -0.42783E-03 10584   0.235E-02-0.388E-03
CGA:  10    -0.339726256530E+03   -0.17372E-03   -0.18565E-03 10584   0.103E-02 0.277E-03
CGA:  11    -0.339726396709E+03   -0.14018E-03   -0.13075E-03 10584   0.335E-02-0.746E-03
CGA:  12    -0.339726432575E+03   -0.35866E-04   -0.81950E-04 10584   0.279E-03 0.465E-03
CGA:  13    -0.339726440096E+03   -0.75207E-05   -0.15544E-04 10584   0.261E-03 0.113E-03
CGA:  14    -0.339726480302E+03   -0.40206E-04   -0.78786E-04 10584   0.202E-02-0.393E-03
CGA:  15    -0.339726519663E+03   -0.39361E-04   -0.63953E-04 10584   0.248E-03 0.277E-03
CGA:  16    -0.339726545105E+03   -0.25443E-04   -0.20032E-04 10584   0.211E-03-0.118E-03
CGA:  17    -0.339726563715E+03   -0.18609E-04   -0.21745E-04 10584   0.245E-03-0.390E-04
CGA:  18    -0.339726569239E+03   -0.55242E-05   -0.76962E-05 10584   0.785E-04 0.270E-04
CGA:  19    -0.339726579552E+03   -0.10313E-04   -0.10750E-04 10584   0.250E-03-0.506E-04
CGA:  20    -0.339726590209E+03   -0.10657E-04   -0.11788E-04 10584   0.228E-04 0.170E-04
CGA:  21    -0.339726601983E+03   -0.11774E-04    0.11737E-05 10584   0.335E-04 0.767E-05
CGA:  22    -0.339726602937E+03   -0.95431E-06   -0.23569E-05 10584   0.995E-05 0.236E-04
   7 F= -.33972660E+03 E0= -.33972403E+03  d E =0.407715E-03  mag=    14.0000
       N       E                     dE             d eps       ncg     rms          ort
SDA:   1    -0.339629983386E+03    0.96619E-01    0.00000E+00 10584   0.242E+00 0.000E+00
CGA:   2    -0.339679811813E+03   -0.49828E-01   -0.50381E-01 10584   0.753E+00-0.597E-02
CGA:   3    -0.339713256983E+03   -0.33445E-01   -0.33276E-01 10584   0.698E-01 0.173E-01
CGA:   4    -0.339720405778E+03   -0.71488E-02   -0.71492E-02 10584   0.813E-01-0.248E-03
CGA:   5    -0.339725541037E+03   -0.51353E-02   -0.51096E-02 10584   0.265E-01-0.957E-03
CGA:   6    -0.339726697485E+03   -0.11564E-02   -0.12318E-02 10584   0.856E-02 0.161E-02
CGA:   7    -0.339727456991E+03   -0.75951E-03   -0.73999E-03 10584   0.840E-02-0.905E-03
CGA:   8    -0.339728043658E+03   -0.58667E-03   -0.58330E-03 10584   0.246E-02-0.136E-03
CGA:   9    -0.339728116766E+03   -0.73108E-04   -0.10252E-03 10584   0.146E-02 0.490E-03
CGA:  10    -0.339728332891E+03   -0.21613E-03   -0.21899E-03 10584   0.864E-03-0.109E-03
CGA:  11    -0.339728406808E+03   -0.73917E-04   -0.64179E-04 10584   0.140E-02-0.490E-03
CGA:  12    -0.339728418770E+03   -0.11962E-04   -0.36853E-04 10584   0.302E-03 0.337E-03
CGA:  13    -0.339728439123E+03   -0.20353E-04   -0.24264E-04 10584   0.356E-03 0.126E-03
CGA:  14    -0.339728479717E+03   -0.40594E-04   -0.71034E-04 10584   0.152E-02-0.654E-03
CGA:  15    -0.339728490214E+03   -0.10497E-04   -0.36553E-04 10584   0.236E-03 0.360E-03
CGA:  16    -0.339728495237E+03   -0.50232E-05   -0.11565E-04 10584   0.199E-03 0.123E-03
CGA:  17    -0.339728537276E+03   -0.42039E-04    0.52717E-04 10584   0.580E-03-0.131E-03
CGA:  18    -0.339728533549E+03    0.37274E-05   -0.10538E-04 10584   0.872E-04 0.197E-03
   8 F= -.33972853E+03 E0= -.33972598E+03  d E =-.193061E-02  mag=    14.0000
       N       E                     dE             d eps       ncg     rms          ort
SDA:   1    -0.339656170422E+03    0.72367E-01    0.00000E+00 10584   0.220E+00 0.000E+00
CGA:   2    -0.339679136460E+03   -0.22966E-01   -0.23170E-01 10584   0.459E+00-0.101E-01
CGA:   3    -0.339712376920E+03   -0.33240E-01   -0.33299E-01 10584   0.956E-01 0.788E-02
CGA:   4    -0.339719343627E+03   -0.69667E-02   -0.69816E-02 10584   0.843E-01 0.184E-02
CGA:   5    -0.339725891695E+03   -0.65481E-02   -0.65328E-02 10584   0.230E-01-0.240E-02
CGA:   6    -0.339726994406E+03   -0.11027E-02   -0.11624E-02 10584   0.143E-01 0.201E-02
CGA:   7    -0.339728359772E+03   -0.13654E-02   -0.13686E-02 10584   0.436E-02-0.506E-03
CGA:   8    -0.339728715360E+03   -0.35559E-03   -0.35693E-03 10584   0.328E-02-0.406E-03
CGA:   9    -0.339728917958E+03   -0.20260E-03   -0.20823E-03 10584   0.126E-02 0.484E-03
CGA:  10    -0.339729057947E+03   -0.13999E-03   -0.16099E-03 10584   0.240E-02-0.695E-03
CGA:  11    -0.339729102014E+03   -0.44066E-04   -0.67889E-04 10584   0.390E-03 0.434E-03
CGA:  12    -0.339729139038E+03   -0.37025E-04   -0.37047E-04 10584   0.492E-03-0.381E-04
CGA:  13    -0.339729001906E+03    0.13713E-03   -0.12785E-03 10584   0.744E-02-0.127E-02
CGA:  14    -0.339729151432E+03   -0.14953E-03   -0.20192E-03 10584   0.825E-03 0.886E-03
CGA:  15    -0.339729216555E+03   -0.65123E-04   -0.66510E-04 10584   0.620E-03 0.911E-04
CGA:  16    -0.339729278762E+03   -0.62207E-04   -0.65390E-04 10584   0.101E-02-0.373E-03
CGA:  17    -0.339729283816E+03   -0.50537E-05   -0.21867E-04 10584   0.105E-03 0.255E-03
   9 F= -.33972928E+03 E0= -.33972670E+03  d E =-.750267E-03  mag=    14.0000
       N       E                     dE             d eps       ncg     rms          ort
SDA:   1    -0.339689433102E+03    0.39846E-01    0.00000E+00 10584   0.111E+00 0.000E+00
CGA:   2    -0.339711522153E+03   -0.22089E-01   -0.21644E-01 10584   0.196E+00 0.371E-02
CGA:   3    -0.339722230787E+03   -0.10709E-01   -0.10613E-01 10584   0.746E-01-0.653E-02
CGA:   4    -0.339726820086E+03   -0.45893E-02   -0.46423E-02 10584   0.262E-01 0.309E-02
CGA:   5    -0.339730196447E+03   -0.33764E-02   -0.34236E-02 10584   0.104E-01-0.117E-02
CGA:   6    -0.339730656503E+03   -0.46006E-03   -0.50841E-03 10584   0.477E-02 0.139E-02
CGA:   7    -0.339731203114E+03   -0.54661E-03   -0.56831E-03 10584   0.371E-02-0.104E-02
CGA:   8    -0.339731328689E+03   -0.12557E-03   -0.14098E-03 10584   0.128E-02 0.428E-03
CGA:   9    -0.339731422467E+03   -0.93778E-04   -0.95267E-04 10584   0.837E-03 0.883E-04
CGA:  10    -0.339731506966E+03   -0.84499E-04   -0.13967E-03 10584   0.269E-02-0.748E-03
CGA:  11    -0.339731540166E+03   -0.33200E-04   -0.65277E-04 10584   0.327E-03 0.514E-03
CGA:  12    -0.339731552464E+03   -0.12298E-04   -0.17682E-04 10584   0.281E-03 0.143E-03
CGA:  13    -0.339731582678E+03   -0.30214E-04   -0.60454E-04 10584   0.837E-03-0.440E-03
CGA:  14    -0.339731590385E+03   -0.77069E-05   -0.22846E-04 10584   0.194E-03 0.266E-03
CGA:  15    -0.339731600097E+03   -0.97119E-05   -0.12091E-04 10584   0.131E-03 0.695E-04
CGA:  16    -0.339731629448E+03   -0.29351E-04    0.22203E-03 10584   0.177E-03-0.479E-04
CGA:  17    -0.339731631953E+03   -0.25051E-05   -0.31023E-05 10584   0.112E-03 0.114E-04
  10 F= -.33973163E+03 E0= -.33972905E+03  d E =-.234814E-02  mag=    14.0000
       N       E                     dE             d eps       ncg     rms          ort
SDA:   1    -0.339435989272E+03    0.29564E+00    0.00000E+00 10584   0.783E+00 0.000E+00
CGA:   2    -0.339545849843E+03   -0.10986E+00   -0.11085E+00 10584   0.215E+01-0.154E-01
CGA:   3    -0.339684632545E+03   -0.13878E+00   -0.13869E+00 10584   0.321E+00 0.112E-01
CGA:   4    -0.339704194377E+03   -0.19562E-01   -0.19580E-01 10584   0.187E+00 0.985E-03
CGA:   5    -0.339721304687E+03   -0.17110E-01   -0.17117E-01 10584   0.111E+00-0.116E-02
CGA:   6    -0.339727474988E+03   -0.61703E-02   -0.62314E-02 10584   0.230E-01 0.372E-02
CGA:   7    -0.339729020825E+03   -0.15458E-02   -0.15224E-02 10584   0.232E-01-0.216E-02
CGA:   8    -0.339730839914E+03   -0.18191E-02   -0.18102E-02 10584   0.398E-02 0.790E-03
CGA:   9    -0.339731178895E+03   -0.33898E-03   -0.33488E-03 10584   0.475E-02 0.713E-03
CGA:  10    -0.339731648755E+03   -0.46986E-03   -0.48242E-03 10584   0.278E-02-0.126E-02
CGA:  11    -0.339731712692E+03   -0.63937E-04   -0.80991E-04 10584   0.102E-02 0.460E-03
CGA:  12    -0.339731800826E+03   -0.88135E-04   -0.88240E-04 10584   0.147E-02 0.295E-03
CGA:  13    -0.339731970863E+03   -0.17004E-03   -0.20177E-03 10584   0.169E-02-0.100E-02
CGA:  14    -0.339731993337E+03   -0.22475E-04   -0.45823E-04 10584   0.414E-03 0.469E-03
CGA:  15    -0.339732021604E+03   -0.28267E-04   -0.31084E-04 10584   0.429E-03 0.188E-03
CGA:  16    -0.339732058656E+03   -0.37052E-04   -0.88356E-04 10584   0.185E-02-0.750E-03
CGA:  17    -0.339732077293E+03   -0.18637E-04   -0.43297E-04 10584   0.277E-03 0.464E-03
CGA:  18    -0.339732082919E+03   -0.56256E-05   -0.11593E-04 10584   0.210E-03 0.148E-03
CGA:  19    -0.339732122408E+03   -0.39489E-04    0.24193E-04 10584   0.303E-03-0.153E-04
CGA:  20    -0.339732142313E+03   -0.19905E-04   -0.19966E-04 10584   0.656E-04 0.883E-04
CGA:  21    -0.339732140530E+03    0.17822E-05   -0.13525E-05 10584   0.349E-04 0.560E-04
  11 F= -.33973214E+03 E0= -.33972950E+03  d E =-.508578E-03  mag=    14.0000
       N       E                     dE             d eps       ncg     rms          ort
SDA:   1    -0.337593670146E+03    0.21385E+01    0.00000E+00 10584   0.502E+01 0.000E+00
CGA:   2    -0.338849473741E+03   -0.12558E+01   -0.12445E+01 10584   0.115E+02 0.752E-01
CGA:   3    -0.339312731455E+03   -0.46326E+00   -0.46034E+00 10584   0.160E+01-0.189E+00
CGA:   4    -0.339505456739E+03   -0.19273E+00   -0.19740E+00 10584   0.163E+01-0.836E-01
CGA:   5    -0.339595258968E+03   -0.89802E-01   -0.90801E-01 10584   0.498E+00-0.249E-02
CGA:   6    -0.339621065784E+03   -0.25807E-01   -0.25803E-01 10584   0.168E+00 0.914E-02
CGA:   7    -0.339641919873E+03   -0.20854E-01   -0.21296E-01 10584   0.155E+00-0.926E-02
CGA:   8    -0.339648219506E+03   -0.62996E-02   -0.64418E-02 10584   0.370E-01 0.596E-02
CGA:   9    -0.339654629430E+03   -0.64099E-02   -0.65572E-02 10584   0.306E-01-0.157E-02
CGA:  10    -0.339656033005E+03   -0.14036E-02   -0.14171E-02 10584   0.122E-01 0.297E-03
CGA:  11    -0.339658251806E+03   -0.22188E-02   -0.23724E-02 10584   0.146E-01-0.135E-02
CGA:  12    -0.339658869304E+03   -0.61750E-03   -0.64841E-03 10584   0.518E-02 0.947E-03
CGA:  13    -0.339659380619E+03   -0.51131E-03   -0.52640E-03 10584   0.715E-02-0.122E-02
CGA:  14    -0.339659957465E+03   -0.57685E-03   -0.58372E-03 10584   0.502E-02-0.293E-03
CGA:  15    -0.339660135972E+03   -0.17851E-03   -0.19055E-03 10584   0.132E-02 0.282E-03
CGA:  16    -0.339660265231E+03   -0.12926E-03   -0.13050E-03 10584   0.223E-02-0.113E-03
CGA:  17    -0.339660424594E+03   -0.15936E-03   -0.15959E-03 10584   0.167E-02 0.474E-04
CGA:  18    -0.339660496306E+03   -0.71712E-04   -0.71226E-04 10584   0.416E-03-0.143E-04
CGA:  19    -0.339660533109E+03   -0.36803E-04   -0.46378E-04 10584   0.131E-02-0.302E-03
CGA:  20    -0.339660574126E+03   -0.41017E-04   -0.50863E-04 10584   0.259E-03 0.226E-03
CGA:  21    -0.339660597831E+03   -0.23705E-04   -0.48546E-04 10584   0.146E-02-0.312E-03
CGA:  22    -0.339660623970E+03   -0.26140E-04   -0.43744E-04 10584   0.214E-03 0.330E-03
CGA:  23    -0.339660641335E+03   -0.17364E-04   -0.15924E-04 10584   0.141E-03-0.704E-04
CGA:  24    -0.339660660786E+03   -0.19452E-04    0.13604E-04 10584   0.214E-03 0.626E-04
CGA:  25    -0.339660676847E+03   -0.16060E-04   -0.18874E-04 10584   0.380E-04 0.146E-03
CGA:  26    -0.339660682969E+03   -0.61219E-05    0.92197E-04 10584   0.361E-04 0.356E-04
  12 F= -.33966068E+03 E0= -.33965809E+03  d E =0.714576E-01  mag=    14.0000
       N       E                     dE             d eps       ncg     rms          ort
SDA:   1    -0.338399894980E+03    0.12608E+01    0.00000E+00 10584   0.321E+01 0.000E+00
CGA:   2    -0.339230392356E+03   -0.83050E+00   -0.81334E+00 10584   0.507E+01 0.123E+00
CGA:   3    -0.339488561864E+03   -0.25817E+00   -0.22941E+00 10584   0.815E+00 0.320E+00
CGA:   4    -0.339591782714E+03   -0.10322E+00   -0.10186E+00 10584   0.135E+01 0.292E-01
CGA:   5    -0.339676237784E+03   -0.84455E-01   -0.83622E-01 10584   0.219E+00 0.389E-02
CGA:   6    -0.339692728189E+03   -0.16490E-01   -0.16524E-01 10584   0.119E+00 0.288E-02
CGA:   7    -0.339705001940E+03   -0.12274E-01   -0.12352E-01 10584   0.154E+00-0.525E-02
CGA:   8    -0.339711230509E+03   -0.62286E-02   -0.63660E-02 10584   0.213E-01 0.467E-02
CGA:   9    -0.339714024615E+03   -0.27941E-02   -0.27144E-02 10584   0.401E-01 0.200E-02
CGA:  10    -0.339716504789E+03   -0.24802E-02   -0.23699E-02 10584   0.122E-01-0.361E-02
CGA:  11    -0.339717909703E+03   -0.14049E-02   -0.13891E-02 10584   0.996E-02 0.375E-03
CGA:  12    -0.339718938141E+03   -0.10284E-02   -0.10579E-02 10584   0.102E-01-0.181E-02
CGA:  13    -0.339719257222E+03   -0.31908E-03   -0.35468E-03 10584   0.271E-02 0.809E-03
CGA:  14    -0.339719506345E+03   -0.24912E-03   -0.24913E-03 10584   0.394E-02 0.269E-03
CGA:  15    -0.339719843801E+03   -0.33746E-03   -0.33034E-03 10584   0.295E-02-0.821E-03
CGA:  16    -0.339719923437E+03   -0.79636E-04   -0.94852E-04 10584   0.102E-02 0.343E-03
CGA:  17    -0.339719957350E+03   -0.33913E-04   -0.42681E-04 10584   0.591E-03 0.197E-03
CGA:  18    -0.339720000388E+03   -0.43039E-04   -0.13553E-03 10584   0.452E-02-0.827E-03
CGA:  19    -0.339720126903E+03   -0.12651E-03   -0.14758E-03 10584   0.311E-03 0.415E-03
CGA:  20    -0.339720155964E+03   -0.29061E-04   -0.30313E-04 10584   0.455E-03-0.207E-03
CGA:  21    -0.339720164565E+03   -0.86011E-05   -0.15226E-04 10584   0.977E-04 0.133E-03
CGA:  22    -0.339720176440E+03   -0.11874E-04   -0.14385E-04 10584   0.328E-03-0.763E-04
CGA:  23    -0.339720193013E+03   -0.16573E-04   -0.16819E-04 10584   0.526E-04 0.812E-05
CGA:  24    -0.339720208729E+03   -0.15716E-04    0.27342E-05 10584   0.575E-04 0.433E-04
CGA:  25    -0.339720208825E+03   -0.96916E-07   -0.19479E-05 10584   0.404E-04 0.391E-04
  13 F= -.33972021E+03 E0= -.33971750E+03  d E =-.595259E-01  mag=    14.0000
       N       E                     dE             d eps       ncg     rms          ort
SDA:   1    -0.339614776971E+03    0.10543E+00    0.00000E+00 10584   0.312E+00 0.000E+00
CGA:   2    -0.339670381060E+03   -0.55604E-01   -0.56786E-01 10584   0.970E+00-0.117E-01
CGA:   3    -0.339715084619E+03   -0.44704E-01   -0.44798E-01 10584   0.830E-01 0.146E-01
CGA:   4    -0.339726468074E+03   -0.11383E-01   -0.11165E-01 10584   0.146E+00 0.420E-02
CGA:   5    -0.339733717905E+03   -0.72498E-02   -0.71455E-02 10584   0.238E-01-0.441E-02
CGA:   6    -0.339735514894E+03   -0.17970E-02   -0.18051E-02 10584   0.156E-01 0.181E-02
CGA:   7    -0.339736956846E+03   -0.14420E-02   -0.14469E-02 10584   0.902E-02-0.135E-02
CGA:   8    -0.339737468222E+03   -0.51138E-03   -0.52388E-03 10584   0.277E-02 0.664E-03
CGA:   9    -0.339737989822E+03   -0.52160E-03   -0.56250E-03 10584   0.192E-02-0.380E-03
CGA:  10    -0.339738032177E+03   -0.42355E-04   -0.65318E-04 10584   0.109E-02 0.479E-03
CGA:  11    -0.339738200772E+03   -0.16860E-03   -0.15850E-03 10584   0.969E-03 0.323E-03
CGA:  12    -0.339738294437E+03   -0.93664E-04   -0.80483E-04 10584   0.129E-02-0.600E-03
CGA:  13    -0.339738302508E+03   -0.80714E-05   -0.29016E-04 10584   0.206E-03 0.332E-03
  14 F= -.33973830E+03 E0= -.33973562E+03  d E =-.180937E-01  mag=    14.0000
       N       E                     dE             d eps       ncg     rms          ort
SDA:   1    -0.339619740815E+03    0.11855E+00    0.00000E+00 10584   0.398E+00 0.000E+00
CGA:   2    -0.339646631013E+03   -0.26890E-01   -0.26979E-01 10584   0.555E+00 0.950E-02
CGA:   3    -0.339722744284E+03   -0.76113E-01   -0.76415E-01 10584   0.929E-01-0.587E-02
CGA:   4    -0.339730010633E+03   -0.72663E-02   -0.72716E-02 10584   0.822E-01 0.236E-02
CGA:   5    -0.339737020320E+03   -0.70097E-02   -0.70111E-02 10584   0.201E-01-0.126E-02
CGA:   6    -0.339738410777E+03   -0.13905E-02   -0.14039E-02 10584   0.786E-02 0.131E-02
CGA:   7    -0.339739252192E+03   -0.84141E-03   -0.88724E-03 10584   0.109E-01-0.187E-02
CGA:   8    -0.339739509200E+03   -0.25701E-03   -0.29651E-03 10584   0.268E-02 0.862E-03
CGA:   9    -0.339739573285E+03   -0.64085E-04   -0.94207E-04 10584   0.188E-02 0.628E-03
CGA:  10    -0.339739777487E+03   -0.20420E-03   -0.20321E-03 10584   0.184E-02 0.101E-03
CGA:  11    -0.339739888469E+03   -0.11098E-03   -0.83713E-04 10584   0.840E-03-0.787E-03
CGA:  12    -0.339739913300E+03   -0.24830E-04   -0.26808E-04 10584   0.635E-03 0.955E-04
CGA:  13    -0.339739933196E+03   -0.19896E-04   -0.29057E-04 10584   0.380E-03 0.266E-03
CGA:  14    -0.339739984223E+03   -0.51027E-04   -0.57947E-04 10584   0.789E-03-0.206E-03
CGA:  15    -0.339740005630E+03   -0.21408E-04   -0.24228E-04 10584   0.772E-04 0.615E-04
CGA:  16    -0.339740020458E+03   -0.14828E-04    0.14102E-04 10584   0.748E-04 0.490E-04
CGA:  17    -0.339740021364E+03   -0.90585E-06   -0.24564E-05 10584   0.381E-04 0.383E-04
  15 F= -.33974002E+03 E0= -.33973733E+03  d E =-.171886E-02  mag=    14.0000
       N       E                     dE             d eps       ncg     rms          ort
SDA:   1    -0.334714398429E+03    0.50256E+01    0.00000E+00 10584   0.139E+02 0.000E+00
CGA:   2    -0.336381242721E+03   -0.16668E+01   -0.16158E+01 10584   0.283E+02 0.119E+01
CGA:   3    -0.338802750920E+03   -0.24215E+01   -0.24583E+01 10584   0.881E+01-0.325E+01
CGA:   4    -0.339213351148E+03   -0.41060E+00   -0.41600E+00 10584   0.381E+01-0.600E-01
CGA:   5    -0.339512731636E+03   -0.29938E+00   -0.30075E+00 10584   0.231E+01-0.108E+00
CGA:   6    -0.339627091534E+03   -0.11436E+00   -0.11652E+00 10584   0.678E+00-0.133E-01
CGA:   7    -0.339673981378E+03   -0.46890E-01   -0.46927E-01 10584   0.463E+00 0.146E-01
CGA:   8    -0.339704283423E+03   -0.30302E-01   -0.30295E-01 10584   0.168E+00-0.814E-02
CGA:   9    -0.339713869326E+03   -0.95859E-02   -0.96858E-02 10584   0.879E-01 0.645E-02
CGA:  10    -0.339723298848E+03   -0.94295E-02   -0.95894E-02 10584   0.829E-01-0.520E-02
CGA:  11    -0.339726853882E+03   -0.35550E-02   -0.36650E-02 10584   0.168E-01 0.351E-02
CGA:  12    -0.339729510309E+03   -0.26564E-02   -0.30793E-02 10584   0.520E-01-0.401E-02
CGA:  13    -0.339731082287E+03   -0.15720E-02   -0.16161E-02 10584   0.110E-01 0.112E-02
CGA:  14    -0.339731440667E+03   -0.35838E-03   -0.39767E-03 10584   0.784E-02 0.949E-03
CGA:  15    -0.339732360785E+03   -0.92012E-03   -0.95934E-03 10584   0.156E-01-0.985E-03
CGA:  16    -0.339733104693E+03   -0.74391E-03   -0.69789E-03 10584   0.106E-01-0.204E-02
CGA:  17    -0.339733415869E+03   -0.31118E-03   -0.30674E-03 10584   0.339E-02-0.139E-03
CGA:  18    -0.339733509705E+03   -0.93836E-04   -0.10677E-03 10584   0.226E-02 0.330E-03
CGA:  19    -0.339733717756E+03   -0.20805E-03   -0.20737E-03 10584   0.502E-02 0.462E-04
CGA:  20    -0.339733986737E+03   -0.26898E-03   -0.25744E-03 10584   0.242E-02-0.583E-03
CGA:  21    -0.339734044911E+03   -0.58174E-04   -0.56211E-04 10584   0.818E-03-0.511E-04
CGA:  22    -0.339734079447E+03   -0.34536E-04   -0.34508E-04 10584   0.102E-02-0.259E-05
CGA:  23    -0.339734120607E+03   -0.41161E-04   -0.15461E-03 10584   0.427E-02-0.132E-02
CGA:  24    -0.339734339998E+03   -0.21939E-03   -0.20737E-03 10584   0.122E-02-0.590E-03
CGA:  25    -0.339734349728E+03   -0.97299E-05   -0.27855E-04 10584   0.384E-03 0.423E-03
CGA:  26    -0.339734349712E+03    0.15974E-07   -0.11989E-04 10584   0.255E-03 0.273E-03
CGA:  27    -0.339734369239E+03   -0.19527E-04   -0.42781E-04 10584   0.151E-02-0.226E-03
CGA:  28    -0.339734385724E+03   -0.16486E-04   -0.33639E-04 10584   0.174E-03 0.358E-03
CGA:  29    -0.339734389021E+03   -0.32964E-05   -0.61553E-05 10584   0.103E-03 0.730E-04
CGA:  30    -0.339734408748E+03   -0.19727E-04    0.15580E-03 10584   0.183E-03 0.168E-04
CGA:  31    -0.339734449931E+03   -0.41183E-04    0.14761E-04 10584   0.455E-03 0.612E-04
CGA:  32    -0.339734533228E+03   -0.83296E-04    0.44036E-03 10584   0.416E-03 0.170E-03
CGA:  33    -0.339734547715E+03   -0.14488E-04   -0.17582E-04 10584   0.114E-03 0.894E-04
CGA:  34    -0.339734555401E+03   -0.76860E-05   -0.80881E-05 10584   0.163E-03 0.760E-04
CGA:  35    -0.339734579742E+03   -0.24341E-04    0.29562E-04 10584   0.175E-03-0.363E-05
CGA:  36    -0.339734586057E+03   -0.63146E-05   -0.80168E-05 10584   0.961E-04 0.101E-03
  16 F= -.33973459E+03 E0= -.33973166E+03  d E =0.543531E-02  mag=    14.0000
       N       E                     dE             d eps       ncg     rms          ort
SDA:   1    -0.336377529151E+03    0.33571E+01    0.00000E+00 10584   0.837E+01 0.000E+00
CGA:   2    -0.337636091851E+03   -0.12586E+01   -0.12973E+01 10584   0.198E+02-0.294E+00
CGA:   3    -0.338836892991E+03   -0.12008E+01   -0.11983E+01 10584   0.332E+01-0.437E+00
CGA:   4    -0.339128813135E+03   -0.29192E+00   -0.29188E+00 10584   0.394E+01 0.829E-02
CGA:   5    -0.339361935187E+03   -0.23312E+00   -0.23374E+00 10584   0.910E+00 0.152E-01
CGA:   6    -0.339439238412E+03   -0.77303E-01   -0.77514E-01 10584   0.512E+00-0.710E-02
CGA:   7    -0.339480562368E+03   -0.41324E-01   -0.41345E-01 10584   0.304E+00-0.668E-02
CGA:   8    -0.339495365412E+03   -0.14803E-01   -0.14883E-01 10584   0.107E+00 0.688E-02
CGA:   9    -0.339509530547E+03   -0.14165E-01   -0.14332E-01 10584   0.115E+00-0.273E-02
CGA:  10    -0.339515096330E+03   -0.55658E-02   -0.55591E-02 10584   0.294E-01-0.244E-03
CGA:  11    -0.339521138779E+03   -0.60424E-02   -0.68689E-02 10584   0.535E-01-0.495E-02
CGA:  12    -0.339522662462E+03   -0.15237E-02   -0.16290E-02 10584   0.144E-01 0.259E-02
CGA:  13    -0.339523755351E+03   -0.10929E-02   -0.10957E-02 10584   0.166E-01 0.106E-02
CGA:  14    -0.339525247705E+03   -0.14924E-02   -0.15220E-02 10584   0.203E-01-0.304E-02
CGA:  15    -0.339526018875E+03   -0.77117E-03   -0.76086E-03 10584   0.706E-02-0.399E-03
CGA:  16    -0.339526237917E+03   -0.21904E-03   -0.24356E-03 10584   0.384E-02 0.663E-03
CGA:  17    -0.339526569664E+03   -0.33175E-03   -0.33217E-03 10584   0.663E-02-0.622E-04
CGA:  18    -0.339527054991E+03   -0.48533E-03   -0.48816E-03 10584   0.497E-02-0.135E-02
CGA:  19    -0.339527155100E+03   -0.10011E-03   -0.10082E-03 10584   0.161E-02 0.193E-04
CGA:  20    -0.339527201678E+03   -0.46577E-04   -0.55334E-04 10584   0.166E-02 0.242E-03
CGA:  21    -0.339527359048E+03   -0.15737E-03   -0.15481E-03 10584   0.320E-02 0.210E-03
CGA:  22    -0.339527547721E+03   -0.18867E-03   -0.17983E-03 10584   0.212E-02-0.468E-03
CGA:  23    -0.339527622271E+03   -0.74550E-04   -0.70222E-04 10584   0.103E-02-0.148E-03
CGA:  24    -0.339527650530E+03   -0.28259E-04   -0.30988E-04 10584   0.764E-03 0.747E-04
CGA:  25    -0.339527728619E+03   -0.78089E-04   -0.78689E-04 10584   0.253E-02-0.256E-04
CGA:  26    -0.339527879223E+03   -0.15060E-03   -0.14782E-03 10584   0.225E-02-0.480E-03
CGA:  27    -0.339527919181E+03   -0.39958E-04   -0.41609E-04 10584   0.100E-02 0.341E-04
CGA:  28    -0.339527929647E+03   -0.10466E-04   -0.21498E-04 10584   0.657E-03 0.257E-03
CGA:  29    -0.339527937327E+03   -0.76801E-05   -0.20619E-04 10584   0.671E-03 0.350E-03
CGA:  30    -0.339527961531E+03   -0.24203E-04   -0.13880E-03 10584   0.467E-02-0.783E-03
CGA:  31    -0.339528089395E+03   -0.12786E-03   -0.14598E-03 10584   0.243E-03 0.504E-03
CGA:  32    -0.339528088055E+03    0.13398E-05   -0.57955E-05 10584   0.125E-03 0.162E-03
  17 F= -.33952809E+03 E0= -.33952604E+03  d E =0.206498E+00  mag=    14.0000
       N       E                     dE             d eps       ncg     rms          ort
SDA:   1    -0.339126766619E+03    0.40132E+00    0.00000E+00 10584   0.146E+01 0.000E+00
CGA:   2    -0.339386870175E+03   -0.26010E+00   -0.25581E+00 10584   0.296E+01 0.433E-01
CGA:   3    -0.339589730345E+03   -0.20286E+00   -0.20274E+00 10584   0.475E+00-0.261E-01
CGA:   4    -0.339624908530E+03   -0.35178E-01   -0.35144E-01 10584   0.580E+00 0.845E-02
CGA:   5    -0.339673434727E+03   -0.48526E-01   -0.48663E-01 10584   0.131E+00-0.113E-01
CGA:   6    -0.339680794077E+03   -0.73594E-02   -0.73923E-02 10584   0.506E-01 0.485E-02
CGA:   7    -0.339688056602E+03   -0.72625E-02   -0.74076E-02 10584   0.398E-01-0.201E-02
CGA:   8    -0.339690466289E+03   -0.24097E-02   -0.24218E-02 10584   0.108E-01 0.143E-02
CGA:   9    -0.339691740441E+03   -0.12742E-02   -0.12315E-02 10584   0.133E-01 0.111E-02
CGA:  10    -0.339692815354E+03   -0.10749E-02   -0.10744E-02 10584   0.896E-02-0.239E-02
CGA:  11    -0.339693184927E+03   -0.36957E-03   -0.39532E-03 10584   0.353E-02 0.129E-02
CGA:  12    -0.339693723937E+03   -0.53901E-03   -0.50808E-03 10584   0.395E-02 0.581E-03
CGA:  13    -0.339694005414E+03   -0.28148E-03   -0.25913E-03 10584   0.276E-02-0.120E-02
CGA:  14    -0.339694104626E+03   -0.99211E-04   -0.10778E-03 10584   0.971E-03 0.466E-03
CGA:  15    -0.339694143036E+03   -0.38410E-04   -0.49675E-04 10584   0.867E-03 0.377E-03
CGA:  16    -0.339694310393E+03   -0.16736E-03   -0.19701E-03 10584   0.654E-03-0.323E-03
CGA:  17    -0.339694320507E+03   -0.10114E-04   -0.12263E-04 10584   0.324E-03 0.447E-04
CGA:  18    -0.339694327786E+03   -0.72790E-05   -0.12595E-04 10584   0.323E-03 0.140E-03
CGA:  19    -0.339694350478E+03   -0.22692E-04   -0.26095E-04 10584   0.293E-03 0.213E-03
CGA:  20    -0.339694195006E+03    0.15547E-03   -0.73717E-04 10584   0.892E-02-0.127E-02
CGA:  21    -0.339694392732E+03   -0.19773E-03   -0.24949E-03 10584   0.235E-03 0.106E-02
CGA:  22    -0.339694397112E+03   -0.43793E-05   -0.72889E-05 10584   0.416E-04 0.578E-04
  18 F= -.33969440E+03 E0= -.33969210E+03  d E =-.166309E+00  mag=    14.0000
       N       E                     dE             d eps       ncg     rms          ort
SDA:   1    -0.339534357760E+03    0.16003E+00    0.00000E+00 10584   0.526E+00 0.000E+00
CGA:   2    -0.339615028493E+03   -0.80671E-01   -0.80730E-01 10584   0.125E+01-0.851E-03
CGA:   3    -0.339689325464E+03   -0.74297E-01   -0.74283E-01 10584   0.281E+00 0.140E-01
CGA:   4    -0.339706520787E+03   -0.17195E-01   -0.17228E-01 10584   0.151E+00-0.105E-02
CGA:   5    -0.339720910298E+03   -0.14390E-01   -0.14393E-01 10584   0.116E+00-0.398E-03
CGA:   6    -0.339728461291E+03   -0.75510E-02   -0.75658E-02 10584   0.152E-01 0.200E-02
CGA:   7    -0.339730386619E+03   -0.19253E-02   -0.20883E-02 10584   0.411E-01-0.287E-02
CGA:   8    -0.339731757759E+03   -0.13711E-02   -0.14386E-02 10584   0.855E-02 0.189E-02
CGA:   9    -0.339731944926E+03   -0.18717E-03   -0.24926E-03 10584   0.423E-02 0.120E-02
CGA:  10    -0.339732401528E+03   -0.45660E-03   -0.44386E-03 10584   0.721E-02 0.791E-03
CGA:  11    -0.339732813180E+03   -0.41165E-03   -0.37151E-03 10584   0.210E-02-0.123E-02
CGA:  12    -0.339733012955E+03   -0.19978E-03   -0.20083E-03 10584   0.229E-02-0.263E-04
CGA:  13    -0.339733140386E+03   -0.12743E-03   -0.13650E-03 10584   0.123E-02 0.541E-03
CGA:  14    -0.339733277721E+03   -0.13734E-03   -0.14924E-03 10584   0.183E-02-0.536E-03
CGA:  15    -0.339733302207E+03   -0.24485E-04   -0.32143E-04 10584   0.120E-02 0.165E-03
CGA:  16    -0.339733321802E+03   -0.19595E-04   -0.33484E-04 10584   0.591E-03 0.281E-03
CGA:  17    -0.339733350304E+03   -0.28502E-04   -0.30756E-04 10584   0.491E-03 0.721E-04
CGA:  18    -0.339733391116E+03   -0.40813E-04   -0.46687E-04 10584   0.159E-02-0.435E-03
CGA:  19    -0.339733421792E+03   -0.30676E-04   -0.45670E-04 10584   0.233E-03 0.347E-03
CGA:  20    -0.339733436688E+03   -0.14896E-04   -0.14767E-04 10584   0.124E-03-0.732E-05
CGA:  21    -0.339733454956E+03   -0.18267E-04    0.39961E-04 10584   0.169E-03 0.516E-04
CGA:  22    -0.339733471422E+03   -0.16467E-04   -0.16465E-04 10584   0.482E-04 0.963E-04
CGA:  23    -0.339733473121E+03   -0.16983E-05   -0.21644E-05 10584   0.344E-04 0.196E-04
CGA:  24    -0.339733480160E+03   -0.70396E-05    0.21214E-04 10584   0.398E-04 0.432E-04
  19 F= -.33973348E+03 E0= -.33973095E+03  d E =-.390830E-01  mag=    14.0000
       N       E                     dE             d eps       ncg     rms          ort
SDA:   1    -0.339679194740E+03    0.54278E-01    0.00000E+00 10584   0.169E+00 0.000E+00
CGA:   2    -0.339699665074E+03   -0.20470E-01   -0.21070E-01 10584   0.461E+00-0.109E-01
CGA:   3    -0.339727906494E+03   -0.28241E-01   -0.28274E-01 10584   0.558E-01 0.779E-02
CGA:   4    -0.339731807562E+03   -0.39011E-02   -0.39054E-02 10584   0.684E-01 0.436E-02
CGA:   5    -0.339737489063E+03   -0.56815E-02   -0.57019E-02 10584   0.225E-01-0.281E-02
CGA:   6    -0.339738721563E+03   -0.12325E-02   -0.12454E-02 10584   0.999E-02 0.103E-02
CGA:   7    -0.339739549476E+03   -0.82791E-03   -0.82261E-03 10584   0.522E-02 0.568E-03
CGA:   8    -0.339740041559E+03   -0.49208E-03   -0.50665E-03 10584   0.313E-02-0.676E-03
CGA:   9    -0.339740144574E+03   -0.10302E-03   -0.12294E-03 10584   0.175E-02 0.763E-03
CGA:  10    -0.339740332680E+03   -0.18811E-03   -0.18477E-03 10584   0.118E-02 0.219E-03
CGA:  11    -0.339740441075E+03   -0.10839E-03   -0.14023E-03 10584   0.345E-02-0.912E-03
CGA:  12    -0.339740487216E+03   -0.46141E-04   -0.79884E-04 10584   0.387E-03 0.680E-03
CGA:  13    -0.339740497589E+03   -0.10372E-04   -0.17078E-04 10584   0.341E-03 0.202E-03
CGA:  14    -0.339740547990E+03   -0.50401E-04    0.14006E-03 10584   0.472E-03-0.125E-04
CGA:  15    -0.339740583086E+03   -0.35096E-04   -0.33914E-04 10584   0.154E-03 0.186E-03
CGA:  16    -0.339740583051E+03    0.35056E-07   -0.53009E-05 10584   0.802E-04 0.122E-03
CGA:  17    -0.339740595379E+03   -0.12328E-04    0.16773E-04 10584   0.728E-04 0.656E-04
CGA:  18    -0.339740597623E+03   -0.22443E-05   -0.33835E-05 10584   0.665E-04 0.574E-04
  20 F= -.33974060E+03 E0= -.33973795E+03  d E =-.711746E-02  mag=    14.0000
       N       E                     dE             d eps       ncg     rms          ort
SDA:   1    -0.339724358325E+03    0.16237E-01    0.00000E+00 10584   0.903E-01 0.000E+00
CGA:   2    -0.339728591125E+03   -0.42328E-02   -0.41264E-02 10584   0.674E-01-0.622E-02
CGA:   3    -0.339739209074E+03   -0.10618E-01   -0.10382E-01 10584   0.124E-01 0.232E-02
CGA:   4    -0.339741494673E+03   -0.22856E-02   -0.21612E-02 10584   0.735E-02 0.125E-02
CGA:   5    -0.339742076694E+03   -0.58202E-03   -0.57849E-03 10584   0.851E-02-0.128E-02
CGA:   6    -0.339742471446E+03   -0.39475E-03   -0.41215E-03 10584   0.239E-02 0.111E-02
CGA:   7    -0.339742551622E+03   -0.80176E-04   -0.95423E-04 10584   0.973E-03 0.398E-03
CGA:   8    -0.339742672251E+03   -0.12063E-03   -0.15340E-03 10584   0.286E-02-0.518E-03
CGA:   9    -0.339742734340E+03   -0.62089E-04   -0.80317E-04 10584   0.299E-03 0.387E-03
CGA:  10    -0.339742757777E+03   -0.23437E-04   -0.23407E-04 10584   0.302E-03-0.876E-05
CGA:  11    -0.339742784843E+03   -0.27066E-04   -0.27055E-04 10584   0.431E-03 0.288E-07
CGA:  12    -0.339742802515E+03   -0.17672E-04   -0.20638E-04 10584   0.190E-03 0.117E-03
CGA:  13    -0.339742815037E+03   -0.12522E-04   -0.12411E-04 10584   0.153E-03-0.564E-05
CGA:  14    -0.339742751970E+03    0.63068E-04   -0.37750E-04 10584   0.231E-02-0.343E-03
CGA:  15    -0.339742785647E+03   -0.33678E-04   -0.66491E-04 10584   0.361E-03 0.325E-03
CGA:  16    -0.339742815073E+03   -0.29425E-04   -0.30184E-04 10584   0.275E-03 0.148E-04
CGA:  17    -0.339742850384E+03   -0.35312E-04   -0.36902E-04 10584   0.689E-03-0.226E-03
CGA:  18    -0.339742851991E+03   -0.16066E-05   -0.16002E-04 10584   0.735E-04 0.144E-03
  21 F= -.33974285E+03 E0= -.33974014E+03  d E =-.225437E-02  mag=    14.0000
       N       E                     dE             d eps       ncg     rms          ort
SDA:   1    -0.339732985171E+03    0.98652E-02    0.00000E+00 10584   0.416E-01 0.000E+00
CGA:   2    -0.339735296908E+03   -0.23117E-02   -0.24274E-02 10584   0.418E-01 0.209E-02
CGA:   3    -0.339741156031E+03   -0.58591E-02   -0.58991E-02 10584   0.203E-01-0.170E-02
CGA:   4    -0.339742037163E+03   -0.88113E-03   -0.93721E-03 10584   0.952E-02 0.981E-03
CGA:   5    -0.339743257338E+03   -0.12202E-02   -0.12227E-02 10584   0.254E-02-0.183E-03
CGA:   6    -0.339743520111E+03   -0.26277E-03   -0.26429E-03 10584   0.161E-02 0.489E-03
CGA:   7    -0.339743668217E+03   -0.14811E-03   -0.12750E-03 10584   0.151E-02-0.495E-03
CGA:   8    -0.339743699839E+03   -0.31622E-04   -0.46548E-04 10584   0.481E-03 0.239E-03
CGA:   9    -0.339743702024E+03   -0.21855E-05   -0.15306E-04 10584   0.252E-03 0.171E-03
CGA:  10    -0.339743725839E+03   -0.23815E-04   -0.25836E-04 10584   0.350E-03 0.831E-04
CGA:  11    -0.339743764192E+03   -0.38353E-04   -0.29906E-04 10584   0.294E-03-0.246E-03
CGA:  12    -0.339743761995E+03    0.21970E-05   -0.66486E-05 10584   0.872E-04 0.119E-03
  22 F= -.33974376E+03 E0= -.33974104E+03  d E =-.910004E-03  mag=    14.0000
       N       E                     dE             d eps       ncg     rms          ort
SDA:   1    -0.339734441764E+03    0.93224E-02    0.00000E+00 10584   0.490E-01 0.000E+00
CGA:   2    -0.339736419834E+03   -0.19781E-02   -0.21043E-02 10584   0.312E-01 0.282E-02
CGA:   3    -0.339741697241E+03   -0.52774E-02   -0.53712E-02 10584   0.126E-01-0.126E-02
CGA:   4    -0.339743011492E+03   -0.13143E-02   -0.13057E-02 10584   0.932E-02 0.520E-03
CGA:   5    -0.339743579161E+03   -0.56767E-03   -0.56286E-03 10584   0.327E-02-0.186E-03
CGA:   6    -0.339743914263E+03   -0.33510E-03   -0.33113E-03 10584   0.113E-02 0.311E-03
CGA:   7    -0.339744033167E+03   -0.11890E-03   -0.12024E-03 10584   0.118E-02-0.227E-03
CGA:   8    -0.339744053098E+03   -0.19931E-04   -0.34071E-04 10584   0.384E-03 0.254E-03
CGA:   9    -0.339744065045E+03   -0.11947E-04   -0.17304E-04 10584   0.237E-03 0.103E-03
CGA:  10    -0.339744092385E+03   -0.27340E-04   -0.40929E-04 10584   0.894E-03-0.271E-03
CGA:  11    -0.339744107355E+03   -0.14970E-04   -0.26503E-04 10584   0.123E-03 0.195E-03
CGA:  12    -0.339744115031E+03   -0.76755E-05   -0.75766E-05 10584   0.560E-04-0.287E-05
CGA:  13    -0.339744124673E+03   -0.96422E-05    0.45806E-04 10584   0.721E-04 0.128E-04
  23 F= -.33974412E+03 E0= -.33974139E+03  d E =-.362678E-03  mag=    14.0000
       N       E                     dE             d eps       ncg     rms          ort
SDA:   1    -0.339720004959E+03    0.24110E-01    0.00000E+00 10584   0.760E-01 0.000E+00
CGA:   2    -0.339729229457E+03   -0.92245E-02   -0.93619E-02 10584   0.160E+00-0.368E-02
CGA:   3    -0.339737532443E+03   -0.83030E-02   -0.84008E-02 10584   0.334E-01 0.396E-02
CGA:   4    -0.339740743062E+03   -0.32106E-02   -0.32092E-02 10584   0.376E-01 0.424E-04
CGA:   5    -0.339742860623E+03   -0.21176E-02   -0.20997E-02 10584   0.935E-02-0.730E-03
CGA:   6    -0.339743356758E+03   -0.49614E-03   -0.52647E-03 10584   0.615E-02 0.122E-02
CGA:   7    -0.339743871590E+03   -0.51483E-03   -0.51191E-03 10584   0.275E-02-0.421E-03
CGA:   8    -0.339744033683E+03   -0.16209E-03   -0.16338E-03 10584   0.750E-03 0.739E-04
CGA:   9    -0.339744097492E+03   -0.63809E-04   -0.63247E-04 10584   0.511E-03 0.229E-03
CGA:  10    -0.339744158015E+03   -0.60523E-04   -0.80254E-04 10584   0.149E-02-0.489E-03
CGA:  11    -0.339744169765E+03   -0.11750E-04   -0.32385E-04 10584   0.171E-03 0.340E-03
CGA:  12    -0.339744170749E+03   -0.98411E-06   -0.58256E-05 10584   0.120E-03 0.944E-04
CGA:  13    -0.339744196348E+03   -0.25599E-04    0.11392E-04 10584   0.166E-03 0.857E-05
CGA:  14    -0.339744203144E+03   -0.67958E-05   -0.88944E-05 10584   0.411E-04 0.800E-04
  24 F= -.33974420E+03 E0= -.33974147E+03  d E =-.784709E-04  mag=    14.0000
       N       E                     dE             d eps       ncg     rms          ort
SDA:   1    -0.339679404070E+03    0.64792E-01    0.00000E+00 10584   0.170E+00 0.000E+00
CGA:   2    -0.339707416670E+03   -0.28013E-01   -0.28886E-01 10584   0.529E+00-0.927E-02
CGA:   3    -0.339731853669E+03   -0.24437E-01   -0.24638E-01 10584   0.569E-01 0.794E-02
CGA:   4    -0.339736582032E+03   -0.47284E-02   -0.47164E-02 10584   0.715E-01 0.207E-02
CGA:   5    -0.339741205782E+03   -0.46237E-02   -0.45858E-02 10584   0.192E-01-0.280E-02
CGA:   6    -0.339742110795E+03   -0.90501E-03   -0.93097E-03 10584   0.976E-02 0.112E-02
CGA:   7    -0.339742993016E+03   -0.88222E-03   -0.88202E-03 10584   0.404E-02 0.785E-05
CGA:   8    -0.339743294040E+03   -0.30102E-03   -0.30093E-03 10584   0.297E-02-0.520E-03
CGA:   9    -0.339743380481E+03   -0.86441E-04   -0.10670E-03 10584   0.128E-02 0.601E-03
CGA:  10    -0.339743481993E+03   -0.10151E-03   -0.10286E-03 10584   0.108E-02 0.215E-03
CGA:  11    -0.339743576030E+03   -0.94036E-04   -0.97753E-04 10584   0.179E-02-0.780E-03
CGA:  12    -0.339743599251E+03   -0.23222E-04   -0.43893E-04 10584   0.289E-03 0.423E-03
CGA:  13    -0.339743609996E+03   -0.10744E-04   -0.14407E-04 10584   0.212E-03 0.121E-03
CGA:  14    -0.339743589626E+03    0.20370E-04   -0.64875E-04 10584   0.284E-02-0.582E-03
CGA:  15    -0.339743654380E+03   -0.64755E-04   -0.84656E-04 10584   0.368E-03 0.435E-03
CGA:  16    -0.339743683728E+03   -0.29347E-04   -0.28205E-04 10584   0.239E-03-0.152E-03
CGA:  17    -0.339743690702E+03   -0.69742E-05   -0.38235E-04 10584   0.466E-03-0.157E-03
CGA:  18    -0.339743692712E+03   -0.20099E-05   -0.11963E-04 10584   0.145E-03 0.171E-03
CGA:  19    -0.339743700387E+03   -0.76755E-05   -0.10119E-04 10584   0.154E-03 0.826E-04
CGA:  20    -0.339743729780E+03   -0.29393E-04    0.29756E-04 10584   0.455E-03-0.150E-03
CGA:  21    -0.339743727595E+03    0.21852E-05   -0.78268E-05 10584   0.683E-04 0.160E-03
  25 F= -.33974373E+03 E0= -.33974099E+03  d E =0.475549E-03  mag=    14.0000
       N       E                     dE             d eps       ncg     rms          ort
SDA:   1    -0.339344848697E+03    0.39888E+00    0.00000E+00 10584   0.987E+00 0.000E+00
CGA:   2    -0.339558909598E+03   -0.21406E+00   -0.21464E+00 10584   0.240E+01-0.645E-02
CGA:   3    -0.339668978697E+03   -0.11007E+00   -0.11057E+00 10584   0.399E+00-0.291E-01
CGA:   4    -0.339698814900E+03   -0.29836E-01   -0.29800E-01 10584   0.307E+00-0.322E-02
CGA:   5    -0.339722116681E+03   -0.23302E-01   -0.23297E-01 10584   0.174E+00-0.529E-02
CGA:   6    -0.339731561798E+03   -0.94451E-02   -0.94860E-02 10584   0.263E-01 0.316E-02
CGA:   7    -0.339735976854E+03   -0.44151E-02   -0.46700E-02 10584   0.276E-01-0.265E-02
CGA:   8    -0.339736732448E+03   -0.75559E-03   -0.83814E-03 10584   0.722E-02 0.179E-02
CGA:   9    -0.339737744929E+03   -0.10125E-02   -0.97886E-03 10584   0.891E-02 0.699E-03
CGA:  10    -0.339738200818E+03   -0.45589E-03   -0.40590E-03 10584   0.293E-02-0.131E-02
CGA:  11    -0.339738492519E+03   -0.29170E-03   -0.27483E-03 10584   0.196E-02 0.562E-03
CGA:  12    -0.339738754392E+03   -0.26187E-03   -0.29334E-03 10584   0.373E-02-0.717E-03
CGA:  13    -0.339738849622E+03   -0.95230E-04   -0.98240E-04 10584   0.162E-02 0.705E-04
CGA:  14    -0.339738889689E+03   -0.40068E-04   -0.49056E-04 10584   0.841E-03 0.175E-03
CGA:  15    -0.339738964112E+03   -0.74422E-04   -0.74401E-04 10584   0.156E-02 0.225E-04
CGA:  16    -0.339739053734E+03   -0.89622E-04   -0.84799E-04 10584   0.998E-03-0.189E-03
CGA:  17    -0.339739087181E+03   -0.33447E-04   -0.32429E-04 10584   0.507E-03-0.259E-04
CGA:  18    -0.339739105626E+03   -0.18445E-04   -0.18147E-04 10584   0.271E-03-0.825E-05
CGA:  19    -0.339739126958E+03   -0.21331E-04   -0.22902E-04 10584   0.777E-03-0.130E-03
CGA:  20    -0.339739142354E+03   -0.15396E-04   -0.13551E-04 10584   0.104E-02-0.460E-04
CGA:  21    -0.339739160738E+03   -0.18384E-04   -0.21971E-04 10584   0.311E-03 0.715E-04
CGA:  22    -0.339739162792E+03   -0.20540E-05   -0.56055E-05 10584   0.120E-03 0.666E-04
  26 F= -.33973916E+03 E0= -.33973642E+03  d E =0.456480E-02  mag=    14.0000
       N       E                     dE             d eps       ncg     rms          ort
SDA:   1    -0.339542377070E+03    0.19678E+00    0.00000E+00 10584   0.496E+00 0.000E+00
CGA:   2    -0.339635950253E+03   -0.93573E-01   -0.92722E-01 10584   0.120E+01 0.631E-02
CGA:   3    -0.339702761776E+03   -0.66812E-01   -0.66943E-01 10584   0.171E+00-0.311E-02
CGA:   4    -0.339716856929E+03   -0.14095E-01   -0.14001E-01 10584   0.214E+00 0.762E-02
CGA:   5    -0.339732783538E+03   -0.15927E-01   -0.15929E-01 10584   0.430E-01-0.563E-02
CGA:   6    -0.339736117263E+03   -0.33337E-02   -0.33202E-02 10584   0.254E-01 0.158E-02
CGA:   7    -0.339738342218E+03   -0.22250E-02   -0.22511E-02 10584   0.166E-01-0.189E-02
CGA:   8    -0.339739166083E+03   -0.82387E-03   -0.85236E-03 10584   0.522E-02 0.171E-02
CGA:   9    -0.339739807043E+03   -0.64096E-03   -0.71459E-03 10584   0.106E-01-0.140E-02
CGA:  10    -0.339740119151E+03   -0.31211E-03   -0.32360E-03 10584   0.339E-02 0.360E-03
CGA:  11    -0.339740208520E+03   -0.89369E-04   -0.10792E-03 10584   0.209E-02 0.450E-03
CGA:  12    -0.339740453552E+03   -0.24503E-03   -0.24366E-03 10584   0.420E-02 0.400E-04
CGA:  13    -0.339740637711E+03   -0.18416E-03   -0.16452E-03 10584   0.104E-02-0.602E-03
CGA:  14    -0.339740675913E+03   -0.38202E-04   -0.38629E-04 10584   0.881E-03 0.147E-04
CGA:  15    -0.339740727458E+03   -0.51545E-04   -0.53775E-04 10584   0.878E-03 0.261E-03
CGA:  16    -0.339740797783E+03   -0.70325E-04   -0.69797E-04 10584   0.548E-03-0.782E-04
CGA:  17    -0.339740832591E+03   -0.34808E-04   -0.35585E-04 10584   0.307E-03-0.231E-03
CGA:  18    -0.339740832547E+03    0.44391E-07   -0.40585E-05 10584   0.211E-03 0.903E-04
  27 F= -.33974083E+03 E0= -.33973815E+03  d E =-.166975E-02  mag=    14.0000
       N       E                     dE             d eps       ncg     rms          ort
SDA:   1    -0.339680102964E+03    0.60730E-01    0.00000E+00 10584   0.236E+00 0.000E+00
CGA:   2    -0.339695217347E+03   -0.15114E-01   -0.15112E-01 10584   0.288E+00 0.815E-02
CGA:   3    -0.339732114105E+03   -0.36897E-01   -0.37297E-01 10584   0.105E+00-0.677E-02
CGA:   4    -0.339737863451E+03   -0.57493E-02   -0.57772E-02 10584   0.437E-01 0.292E-02
CGA:   5    -0.339742215071E+03   -0.43516E-02   -0.43813E-02 10584   0.387E-01-0.107E-02
CGA:   6    -0.339744904813E+03   -0.26897E-02   -0.26876E-02 10584   0.573E-02 0.742E-03
CGA:   7    -0.339745465294E+03   -0.56048E-03   -0.65681E-03 10584   0.145E-01-0.219E-02
CGA:   8    -0.339745797211E+03   -0.33192E-03   -0.34668E-03 10584   0.752E-02 0.464E-03
CGA:   9    -0.339745917539E+03   -0.12033E-03   -0.16564E-03 10584   0.229E-02 0.938E-03
CGA:  10    -0.339745998846E+03   -0.81307E-04   -0.96145E-04 10584   0.219E-02 0.512E-03
CGA:  11    -0.339746141299E+03   -0.14245E-03   -0.13854E-03 10584   0.163E-02-0.302E-03
CGA:  12    -0.339746224247E+03   -0.82949E-04   -0.79503E-04 10584   0.166E-02-0.442E-03
CGA:  13    -0.339746244994E+03   -0.20747E-04   -0.27639E-04 10584   0.846E-03 0.169E-03
CGA:  14    -0.339746254169E+03   -0.91743E-05   -0.19649E-04 10584   0.559E-03 0.256E-03
CGA:  15    -0.339746278886E+03   -0.24718E-04   -0.29165E-04 10584   0.831E-03 0.224E-03
CGA:  16    -0.339746346997E+03   -0.68110E-04   -0.68007E-04 10584   0.368E-03-0.243E-03
CGA:  17    -0.339746361443E+03   -0.14447E-04   -0.10245E-04 10584   0.226E-03-0.217E-03
CGA:  18    -0.339746363090E+03   -0.16465E-05   -0.59532E-05 10584   0.118E-03 0.136E-03
  28 F= -.33974636E+03 E0= -.33974365E+03  d E =-.553054E-02  mag=    14.0000
       N       E                     dE             d eps       ncg     rms          ort
SDA:   1    -0.339726450956E+03    0.19910E-01    0.00000E+00 10584   0.216E+00 0.000E+00
CGA:   2    -0.339733066756E+03   -0.66158E-02   -0.64794E-02 10584   0.391E-01-0.937E-02
CGA:   3    -0.339741986423E+03   -0.89197E-02   -0.86425E-02 10584   0.323E-01 0.207E-02
CGA:   4    -0.339743615212E+03   -0.16288E-02   -0.15362E-02 10584   0.122E-01-0.184E-02
CGA:   5    -0.339744744074E+03   -0.11289E-02   -0.11342E-02 10584   0.633E-02 0.126E-02
CGA:   6    -0.339745252296E+03   -0.50822E-03   -0.47222E-03 10584   0.494E-02-0.107E-02
CGA:   7    -0.339745468311E+03   -0.21602E-03   -0.23740E-03 10584   0.762E-03 0.502E-03
CGA:   8    -0.339745533597E+03   -0.65287E-04   -0.67712E-04 10584   0.461E-03 0.136E-03
CGA:   9    -0.339745594806E+03   -0.61209E-04   -0.80935E-04 10584   0.208E-02-0.386E-03
CGA:  10    -0.339745619720E+03   -0.24914E-04   -0.48092E-04 10584   0.123E-03 0.305E-03
CGA:  11    -0.339745622260E+03   -0.25396E-05   -0.50652E-05 10584   0.844E-04 0.416E-04
CGA:  12    -0.339745412453E+03    0.20981E-03   -0.11320E-03 10584   0.502E-02-0.540E-03
CGA:  13    -0.339745560354E+03   -0.14790E-03   -0.18679E-03 10584   0.828E-03 0.341E-03
CGA:  14    -0.339745629572E+03   -0.69218E-04   -0.59499E-04 10584   0.578E-03-0.106E-03
CGA:  15    -0.339745651310E+03   -0.21738E-04   -0.31338E-04 10584   0.178E-03 0.993E-04
CGA:  16    -0.339745662892E+03   -0.11583E-04   -0.99605E-05 10584   0.214E-04-0.158E-04
CGA:  17    -0.339745672767E+03   -0.98748E-05    0.20694E-05 10584   0.106E-03-0.168E-04
  29 F= -.33974567E+03 E0= -.33974296E+03  d E =0.690323E-03  mag=    14.0000
       N       E                     dE             d eps       ncg     rms          ort
SDA:   1    -0.339474340813E+03    0.27132E+00    0.00000E+00 10584   0.785E+00 0.000E+00
CGA:   2    -0.339559129928E+03   -0.84789E-01   -0.85128E-01 10584   0.171E+01-0.717E-02
CGA:   3    -0.339687224312E+03   -0.12809E+00   -0.12815E+00 10584   0.328E+00 0.122E-01
CGA:   4    -0.339709062779E+03   -0.21838E-01   -0.21824E-01 10584   0.254E+00-0.335E-02
CGA:   5    -0.339730624115E+03   -0.21561E-01   -0.21597E-01 10584   0.901E-01 0.294E-03
CGA:   6    -0.339736737785E+03   -0.61137E-02   -0.61556E-02 10584   0.258E-01 0.161E-02
CGA:   7    -0.339739342285E+03   -0.26045E-02   -0.25519E-02 10584   0.339E-01-0.181E-02
CGA:   8    -0.339740631261E+03   -0.12890E-02   -0.13597E-02 10584   0.514E-02 0.118E-02
CGA:   9    -0.339741186735E+03   -0.55547E-03   -0.56699E-03 10584   0.808E-02 0.721E-03
CGA:  10    -0.339741712550E+03   -0.52581E-03   -0.47955E-03 10584   0.215E-02-0.719E-03
CGA:  11    -0.339741866172E+03   -0.15362E-03   -0.16464E-03 10584   0.146E-02 0.322E-03
CGA:  12    -0.339742089368E+03   -0.22320E-03   -0.23219E-03 10584   0.297E-02-0.406E-03
CGA:  13    -0.339742145582E+03   -0.56214E-04   -0.77097E-04 10584   0.883E-03 0.254E-03
CGA:  14    -0.339742158543E+03   -0.12960E-04   -0.27162E-04 10584   0.511E-03 0.164E-03
CGA:  15    -0.339742218898E+03   -0.60355E-04   -0.60636E-04 10584   0.134E-02 0.294E-04
CGA:  16    -0.339742299984E+03   -0.81086E-04   -0.67964E-04 10584   0.524E-03-0.218E-03
CGA:  17    -0.339742310620E+03   -0.10636E-04   -0.11473E-04 10584   0.219E-03 0.958E-05
CGA:  18    -0.339742314705E+03   -0.40852E-05   -0.81331E-05 10584   0.249E-03 0.616E-04
CGA:  19    -0.339742334065E+03   -0.19360E-04   -0.21373E-04 10584   0.297E-03 0.639E-04
CGA:  20    -0.339742358311E+03   -0.24246E-04   -0.20012E-04 10584   0.197E-03-0.988E-04
CGA:  21    -0.339742358896E+03   -0.58495E-06   -0.31125E-05 10584   0.109E-03 0.355E-04
  30 F= -.33974236E+03 E0= -.33973961E+03  d E =0.331387E-02  mag=    14.0000
       N       E                     dE             d eps       ncg     rms          ort
SDA:   1    -0.337697547936E+03    0.20448E+01    0.00000E+00 10584   0.487E+01 0.000E+00
CGA:   2    -0.338629621763E+03   -0.93207E+00   -0.91082E+00 10584   0.122E+02 0.248E+00
CGA:   3    -0.339299512781E+03   -0.66989E+00   -0.64165E+00 10584   0.192E+01 0.140E+00
CGA:   4    -0.339443251243E+03   -0.14374E+00   -0.14563E+00 10584   0.184E+01 0.228E-01
CGA:   5    -0.339591557832E+03   -0.14831E+00   -0.14813E+00 10584   0.397E+00-0.304E-02
CGA:   6    -0.339620767726E+03   -0.29210E-01   -0.29137E-01 10584   0.253E+00-0.122E-02
CGA:   7    -0.339640393991E+03   -0.19626E-01   -0.19610E-01 10584   0.135E+00-0.318E-02
CGA:   8    -0.339647460446E+03   -0.70665E-02   -0.71970E-02 10584   0.565E-01 0.390E-02
CGA:   9    -0.339652388046E+03   -0.49276E-02   -0.49250E-02 10584   0.568E-01-0.266E-02
CGA:  10    -0.339656266231E+03   -0.38782E-02   -0.38895E-02 10584   0.124E-01 0.870E-03
CGA:  11    -0.339657897072E+03   -0.16308E-02   -0.16277E-02 10584   0.232E-01 0.443E-04
CGA:  12    -0.339659694899E+03   -0.17978E-02   -0.17800E-02 10584   0.764E-02-0.170E-02
CGA:  13    -0.339660002249E+03   -0.30735E-03   -0.34055E-03 10584   0.448E-02 0.819E-03
CGA:  14    -0.339660856665E+03   -0.85442E-03   -0.94418E-03 10584   0.827E-02-0.852E-03
CGA:  15    -0.339661130799E+03   -0.27413E-03   -0.26920E-03 10584   0.161E-02-0.133E-03
CGA:  16    -0.339661216250E+03   -0.85451E-04   -0.92104E-04 10584   0.199E-02 0.222E-03
CGA:  17    -0.339661505539E+03   -0.28929E-03   -0.30259E-03 10584   0.142E-02-0.281E-03
CGA:  18    -0.339661588376E+03   -0.82837E-04   -0.74308E-04 10584   0.815E-03-0.311E-03
CGA:  19    -0.339661610917E+03   -0.22541E-04   -0.29026E-04 10584   0.628E-03 0.154E-03
CGA:  20    -0.339661697407E+03   -0.86490E-04   -0.82671E-04 10584   0.109E-02 0.148E-03
CGA:  21    -0.339661799197E+03   -0.10179E-03   -0.90933E-04 10584   0.942E-03-0.579E-03
CGA:  22    -0.339661812895E+03   -0.13698E-04   -0.26963E-04 10584   0.240E-03 0.231E-03
CGA:  23    -0.339661838820E+03   -0.25925E-04   -0.25773E-04 10584   0.388E-03 0.430E-04
CGA:  24    -0.339661834954E+03    0.38658E-05   -0.94827E-04 10584   0.362E-02-0.794E-03
CGA:  25    -0.339661898702E+03   -0.63748E-04   -0.94181E-04 10584   0.433E-03 0.494E-03
CGA:  26    -0.339661930360E+03   -0.31658E-04   -0.33159E-04 10584   0.391E-03 0.807E-04
CGA:  27    -0.339661965698E+03   -0.35338E-04   -0.66622E-04 10584   0.197E-02-0.534E-03
CGA:  28    -0.339661990173E+03   -0.24475E-04   -0.46272E-04 10584   0.166E-03 0.332E-03
CGA:  29    -0.339661994459E+03   -0.42862E-05   -0.71778E-05 10584   0.106E-03 0.603E-04
CGA:  30    -0.339661701673E+03    0.29279E-03   -0.15753E-03 10584   0.865E-02-0.834E-03
CGA:  31    -0.339661985259E+03   -0.28359E-03   -0.32334E-03 10584   0.109E-02 0.477E-03
CGA:  32    -0.339662061649E+03   -0.76390E-04   -0.59370E-04 10584   0.497E-03-0.192E-03
CGA:  33    -0.339662095647E+03   -0.33998E-04   -0.38849E-04 10584   0.145E-03 0.107E-03
CGA:  34    -0.339662115688E+03   -0.20041E-04   -0.16016E-04 10584   0.178E-03-0.866E-04
CGA:  35    -0.339662116594E+03   -0.90588E-06   -0.56172E-05 10584   0.404E-04 0.455E-04
  31 F= -.33966212E+03 E0= -.33965924E+03  d E =0.802423E-01  mag=    14.0000
       N       E                     dE             d eps       ncg     rms          ort
SDA:   1    -0.338532812024E+03    0.11293E+01    0.00000E+00 10584   0.297E+01 0.000E+00
CGA:   2    -0.339189201575E+03   -0.65639E+00   -0.66296E+00 10584   0.592E+01-0.778E-01
CGA:   3    -0.339493643091E+03   -0.30444E+00   -0.31373E+00 10584   0.189E+01-0.245E+00
CGA:   4    -0.339583842679E+03   -0.90200E-01   -0.86996E-01 10584   0.748E+00 0.578E-01
CGA:   5    -0.339679219559E+03   -0.95377E-01   -0.95384E-01 10584   0.738E+00-0.186E-02
CGA:   6    -0.339711510810E+03   -0.32291E-01   -0.32692E-01 10584   0.875E-01-0.681E-02
CGA:   7    -0.339725405990E+03   -0.13895E-01   -0.13795E-01 10584   0.160E+00 0.268E-02
CGA:   8    -0.339732426333E+03   -0.70203E-02   -0.68884E-02 10584   0.252E-01-0.431E-02
CGA:   9    -0.339735365599E+03   -0.29393E-02   -0.29408E-02 10584   0.326E-01 0.754E-03
CGA:  10    -0.339737698559E+03   -0.23330E-02   -0.22986E-02 10584   0.113E-01-0.921E-03
CGA:  11    -0.339738928634E+03   -0.12301E-02   -0.12349E-02 10584   0.130E-01 0.747E-03
CGA:  12    -0.339739988088E+03   -0.10595E-02   -0.10094E-02 10584   0.807E-02-0.119E-02
CGA:  13    -0.339740350479E+03   -0.36239E-03   -0.39728E-03 10584   0.256E-02 0.537E-03
CGA:  14    -0.339740763341E+03   -0.41286E-03   -0.43284E-03 10584   0.593E-02-0.450E-03
CGA:  15    -0.339741033218E+03   -0.26988E-03   -0.27226E-03 10584   0.830E-03 0.315E-04
CGA:  16    -0.339741078989E+03   -0.45771E-04   -0.50603E-04 10584   0.101E-02 0.910E-04
CGA:  17    -0.339741254793E+03   -0.17580E-03   -0.19307E-03 10584   0.555E-03-0.279E-03
CGA:  18    -0.339741262495E+03   -0.77021E-05   -0.13469E-04 10584   0.275E-03 0.716E-04
CGA:  19    -0.339741284719E+03   -0.22224E-04   -0.24302E-04 10584   0.462E-03 0.671E-04
CGA:  20    -0.339741347001E+03   -0.62282E-04   -0.62475E-04 10584   0.759E-03-0.197E-03
CGA:  21    -0.339741358642E+03   -0.11641E-04   -0.11966E-04 10584   0.437E-03 0.337E-05
CGA:  22    -0.339741364683E+03   -0.60418E-05   -0.96943E-05 10584   0.190E-03 0.453E-04
  32 F= -.33974136E+03 E0= -.33973862E+03  d E =-.792481E-01  mag=    14.0000
       N       E                     dE             d eps       ncg     rms          ort
SDA:   1    -0.339618607647E+03    0.12275E+00    0.00000E+00 10584   0.648E+00 0.000E+00
CGA:   2    -0.339647473522E+03   -0.28866E-01   -0.27954E-01 10584   0.379E+00 0.216E-01
CGA:   3    -0.339710002556E+03   -0.62529E-01   -0.62611E-01 10584   0.374E+00-0.181E-02
CGA:   4    -0.339728682284E+03   -0.18680E-01   -0.18435E-01 10584   0.982E-01 0.640E-02
CGA:   5    -0.339736315689E+03   -0.76334E-02   -0.76468E-02 10584   0.685E-01 0.680E-03
CGA:   6    -0.339743778879E+03   -0.74632E-02   -0.74869E-02 10584   0.267E-01-0.180E-02
CGA:   7    -0.339744628103E+03   -0.84922E-03   -0.92928E-03 10584   0.895E-02 0.135E-02
CGA:   8    -0.339746131876E+03   -0.15038E-02   -0.15000E-02 10584   0.417E-02 0.549E-04
CGA:   9    -0.339746408391E+03   -0.27652E-03   -0.24673E-03 10584   0.470E-02-0.837E-03
CGA:  10    -0.339746725901E+03   -0.31751E-03   -0.32000E-03 10584   0.202E-02 0.303E-03
CGA:  11    -0.339746786602E+03   -0.60701E-04   -0.79773E-04 10584   0.994E-03 0.340E-03
CGA:  12    -0.339746907121E+03   -0.12052E-03   -0.12186E-03 10584   0.165E-02-0.930E-04
CGA:  13    -0.339746990070E+03   -0.82949E-04   -0.80881E-04 10584   0.908E-03-0.585E-04
CGA:  14    -0.339747016510E+03   -0.26440E-04   -0.31200E-04 10584   0.379E-03 0.905E-04
CGA:  15    -0.339747040545E+03   -0.24035E-04   -0.23073E-04 10584   0.382E-03-0.315E-04
CGA:  16    -0.339747052668E+03   -0.12123E-04   -0.69644E-04 10584   0.234E-02-0.506E-03
CGA:  17    -0.339747091113E+03   -0.38446E-04   -0.60957E-04 10584   0.204E-03 0.348E-03
CGA:  18    -0.339747099702E+03   -0.85885E-05   -0.10565E-04 10584   0.116E-03 0.467E-04
CGA:  19    -0.339747110665E+03   -0.10964E-04   -0.23719E-04 10584   0.636E-03-0.159E-03
CGA:  20    -0.339747118714E+03   -0.80486E-05   -0.16699E-04 10584   0.749E-04 0.138E-03
  33 F= -.33974712E+03 E0= -.33974436E+03  d E =-.575403E-02  mag=    14.0000
       N       E                     dE             d eps       ncg     rms          ort
SDA:   1    -0.339703897981E+03    0.43213E-01    0.00000E+00 10584   0.111E+00 0.000E+00
CGA:   2    -0.339728380895E+03   -0.24483E-01   -0.24091E-01 10584   0.267E+00 0.268E-02
CGA:   3    -0.339740822782E+03   -0.12442E-01   -0.12445E-01 10584   0.458E-01-0.625E-02
CGA:   4    -0.339743899998E+03   -0.30772E-02   -0.31233E-02 10584   0.313E-01 0.254E-02
CGA:   5    -0.339746732927E+03   -0.28329E-02   -0.28304E-02 10584   0.188E-01-0.140E-02
CGA:   6    -0.339747649473E+03   -0.91655E-03   -0.94131E-03 10584   0.277E-02 0.736E-03
CGA:   7    -0.339748103133E+03   -0.45366E-03   -0.54149E-03 10584   0.622E-02-0.864E-03
CGA:   8    -0.339748180266E+03   -0.77133E-04   -0.10841E-03 10584   0.175E-02 0.471E-03
CGA:   9    -0.339748200387E+03   -0.20120E-04   -0.43473E-04 10584   0.981E-03 0.356E-03
CGA:  10    -0.339748257920E+03   -0.57533E-04   -0.65277E-04 10584   0.145E-02 0.264E-03
CGA:  11    -0.339748350348E+03   -0.92428E-04   -0.80522E-04 10584   0.351E-03-0.307E-03
CGA:  12    -0.339748371154E+03   -0.20806E-04   -0.39158E-04 10584   0.121E-02-0.304E-03
CGA:  13    -0.339748385888E+03   -0.14734E-04   -0.32288E-04 10584   0.236E-03 0.303E-03
CGA:  14    -0.339748396217E+03   -0.10330E-04   -0.13479E-04 10584   0.152E-03 0.887E-04
CGA:  15    -0.339748398235E+03   -0.20174E-05   -0.37361E-04 10584   0.148E-02-0.356E-03
CGA:  16    -0.339748415472E+03   -0.17237E-04   -0.34643E-04 10584   0.148E-03 0.285E-03
CGA:  17    -0.339748419678E+03   -0.42060E-05   -0.62041E-05 10584   0.707E-04 0.432E-04
CGA:  18    -0.339748434660E+03   -0.14982E-04    0.98862E-04 10584   0.127E-03-0.349E-04
CGA:  19    -0.339748437490E+03   -0.28307E-05   -0.24556E-05 10584   0.154E-03-0.919E-05
  34 F= -.33974844E+03 E0= -.33974572E+03  d E =-.131878E-02  mag=    14.0000
       N       E                     dE             d eps       ncg     rms          ort
SDA:   1    -0.339573257089E+03    0.17518E+00    0.00000E+00 10584   0.570E+00 0.000E+00
CGA:   2    -0.339616798234E+03   -0.43541E-01   -0.43559E-01 10584   0.896E+00-0.113E-01
CGA:   3    -0.339708993462E+03   -0.92195E-01   -0.92400E-01 10584   0.428E+00-0.399E-02
CGA:   4    -0.339731943090E+03   -0.22950E-01   -0.23085E-01 10584   0.895E-01 0.118E-02
CGA:   5    -0.339738747752E+03   -0.68047E-02   -0.68031E-02 10584   0.798E-01 0.810E-03
CGA:   6    -0.339745658336E+03   -0.69106E-02   -0.68988E-02 10584   0.105E-01 0.104E-02
CGA:   7    -0.339746536357E+03   -0.87802E-03   -0.89274E-03 10584   0.178E-01-0.171E-02
CGA:   8    -0.339747362912E+03   -0.82655E-03   -0.84701E-03 10584   0.353E-02 0.107E-02
CGA:   9    -0.339747462656E+03   -0.99744E-04   -0.12582E-03 10584   0.208E-02 0.625E-03
CGA:  10    -0.339747743510E+03   -0.28085E-03   -0.28240E-03 10584   0.213E-02-0.365E-04
CGA:  11    -0.339747853333E+03   -0.10982E-03   -0.92751E-04 10584   0.123E-02-0.573E-03
CGA:  12    -0.339747889835E+03   -0.36502E-04   -0.41426E-04 10584   0.663E-03 0.180E-03
CGA:  13    -0.339747907687E+03   -0.17852E-04   -0.27315E-04 10584   0.513E-03 0.261E-03
CGA:  14    -0.339747976741E+03   -0.69054E-04   -0.68914E-04 10584   0.436E-03 0.526E-05
CGA:  15    -0.339748008321E+03   -0.31580E-04   -0.30602E-04 10584   0.945E-03-0.480E-03
CGA:  16    -0.339748014553E+03   -0.62319E-05   -0.20144E-04 10584   0.160E-03 0.275E-03
  35 F= -.33974801E+03 E0= -.33974529E+03  d E =0.422938E-03  mag=    14.0000
       N       E                     dE             d eps       ncg     rms          ort
SDA:   1    -0.339328825961E+03    0.41918E+00    0.00000E+00 10584   0.101E+01 0.000E+00
CGA:   2    -0.339568244428E+03   -0.23942E+00   -0.23887E+00 10584   0.283E+01 0.233E-03
CGA:   3    -0.339678501149E+03   -0.11026E+00   -0.11176E+00 10584   0.297E+00-0.490E-01
CGA:   4    -0.339718332055E+03   -0.39831E-01   -0.39561E-01 10584   0.290E+00 0.422E-02
[...]
CGA:  11    -0.339740644982E+03   -0.72878E-03   -0.72367E-03 10584   0.596E-02-0.360E-03
CGA:  12    -0.339740856291E+03   -0.21131E-03   -0.26323E-03 10584   0.186E-02 0.551E-03
CGA:  13    -0.339741012468E+03   -0.15618E-03   -0.16283E-03 10584   0.164E-02 0.114E-03
CGA:  14    -0.339741261594E+03   -0.24913E-03   -0.24928E-03 10584   0.970E-03-0.163E-04
CGA:  15    -0.339741279916E+03   -0.18322E-04   -0.32679E-04 10584   0.374E-03 0.142E-03
CGA:  16    -0.339741368621E+03   -0.88705E-04   -0.95029E-04 10584   0.116E-02-0.680E-04
CGA:  17    -0.339741417419E+03   -0.48797E-04   -0.32443E-04 10584   0.262E-03-0.168E-03
CGA:  18    -0.339741426134E+03   -0.87154E-05   -0.83592E-05 10584   0.195E-03-0.505E-05
CGA:  19    -0.339741432670E+03   -0.65364E-05   -0.10893E-04 10584   0.258E-03 0.651E-04
CGA:  20    -0.339741454269E+03   -0.21598E-04   -0.22585E-04 10584   0.133E-03 0.179E-04
CGA:  21    -0.339741455036E+03   -0.76742E-06   -0.25486E-04 10584   0.178E-02-0.399E-03
CGA:  22    -0.339741474712E+03   -0.19676E-04   -0.42927E-04 10584   0.143E-03 0.235E-03
CGA:  23    -0.339741478674E+03   -0.39620E-05   -0.70727E-05 10584   0.841E-04 0.430E-04
CGA:  24    -0.339741271272E+03    0.20740E-03   -0.56614E-04 10584   0.782E-02-0.653E-03
CGA:  25    -0.339741450733E+03   -0.17946E-03   -0.21915E-03 10584   0.711E-03 0.457E-03
CGA:  26    -0.339741502941E+03   -0.52208E-04   -0.46431E-04 10584   0.303E-03-0.906E-04
CGA:  27    -0.339741525319E+03   -0.22378E-04   -0.24743E-04 10584   0.104E-03 0.778E-04
CGA:  28    -0.339741522876E+03    0.24433E-05   -0.30943E-05 10584   0.216E-04 0.559E-04
 120 F= -.33974152E+03 E0= -.33973856E+03  d E =0.567731E-02  mag=    14.0000
       N       E                     dE             d eps       ncg     rms          ort
SDA:   1    -0.339642750829E+03    0.98774E-01    0.00000E+00 10584   0.316E+00 0.000E+00
CGA:   2    -0.339677515414E+03   -0.34765E-01   -0.34788E-01 10584   0.561E+00 0.214E-02
CGA:   3    -0.339728711931E+03   -0.51197E-01   -0.51126E-01 10584   0.978E-01-0.316E-02
CGA:   4    -0.339736687621E+03   -0.79757E-02   -0.80561E-02 10584   0.123E+00 0.260E-02
CGA:   5    -0.339745008184E+03   -0.83206E-02   -0.82097E-02 10584   0.318E-01-0.278E-02
CGA:   6    -0.339747366501E+03   -0.23583E-02   -0.23601E-02 10584   0.150E-01 0.179E-03
CGA:   7    -0.339748742188E+03   -0.13757E-02   -0.13616E-02 10584   0.102E-01-0.847E-03
CGA:   8    -0.339749107240E+03   -0.36505E-03   -0.40991E-03 10584   0.275E-02 0.694E-03
CGA:   9    -0.339749559258E+03   -0.45202E-03   -0.48186E-03 10584   0.484E-02-0.497E-03
CGA:  10    -0.339749732432E+03   -0.17317E-03   -0.16899E-03 10584   0.118E-02-0.759E-04
CGA:  11    -0.339749814236E+03   -0.81804E-04   -0.83347E-04 10584   0.170E-02 0.471E-04
CGA:  12    -0.339749992331E+03   -0.17809E-03   -0.17743E-03 10584   0.102E-02-0.531E-03
CGA:  13    -0.339750049322E+03   -0.56991E-04   -0.48145E-04 10584   0.619E-03-0.266E-03
CGA:  14    -0.339750093973E+03   -0.44651E-04   -0.44339E-04 10584   0.840E-03-0.916E-04
CGA:  15    -0.339750144755E+03   -0.50782E-04   -0.48779E-04 10584   0.168E-03-0.644E-04
CGA:  16    -0.339750150343E+03   -0.55873E-05   -0.78637E-05 10584   0.141E-03 0.474E-04
CGA:  17    -0.339750175147E+03   -0.24804E-04   -0.23512E-04 10584   0.556E-04 0.385E-04
CGA:  18    -0.339750180725E+03   -0.55787E-05   -0.53324E-05 10584   0.865E-04-0.111E-04
 121 F= -.33975018E+03 E0= -.33974713E+03  d E =-.865785E-02  mag=    14.0000
       N       E                     dE             d eps       ncg     rms          ort
SDA:   1    -0.339735420816E+03    0.14754E-01    0.00000E+00 10584   0.152E+00 0.000E+00
CGA:   2    -0.339740721132E+03   -0.53003E-02   -0.54375E-02 10584   0.290E-01-0.321E-02
CGA:   3    -0.339747436607E+03   -0.67155E-02   -0.66782E-02 10584   0.311E-01 0.245E-03
CGA:   4    -0.339748826316E+03   -0.13897E-02   -0.13146E-02 10584   0.111E-01-0.173E-02
CGA:   5    -0.339749666433E+03   -0.84012E-03   -0.85178E-03 10584   0.660E-02 0.826E-03
CGA:   6    -0.339750386256E+03   -0.71982E-03   -0.72759E-03 10584   0.368E-02-0.103E-02
CGA:   7    -0.339750526303E+03   -0.14005E-03   -0.15231E-03 10584   0.106E-02 0.265E-03
CGA:   8    -0.339750630675E+03   -0.10437E-03   -0.10426E-03 10584   0.932E-03-0.128E-03
CGA:   9    -0.339750690901E+03   -0.60226E-04   -0.60660E-04 10584   0.514E-03 0.224E-04
CGA:  10    -0.339750735639E+03   -0.44738E-04   -0.41120E-04 10584   0.512E-03-0.262E-03
CGA:  11    -0.339750748396E+03   -0.12757E-04   -0.18595E-04 10584   0.116E-03 0.106E-03
CGA:  12    -0.339750761973E+03   -0.13577E-04   -0.23929E-04 10584   0.617E-03-0.126E-03
CGA:  13    -0.339750780154E+03   -0.18181E-04   -0.21585E-04 10584   0.678E-04 0.600E-04
CGA:  14    -0.339750798222E+03   -0.18068E-04    0.94550E-05 10584   0.192E-03-0.652E-04
CGA:  15    -0.339750796886E+03    0.13355E-05   -0.39701E-05 10584   0.455E-04 0.766E-04
 122 F= -.33975080E+03 E0= -.33974772E+03  d E =-.616161E-03  mag=    14.0000
       N       E                     dE             d eps       ncg     rms          ort
SDA:   1    -0.339736082592E+03    0.14716E-01    0.00000E+00 10584   0.452E-01 0.000E+00
CGA:   2    -0.339740132147E+03   -0.40496E-02   -0.40338E-02 10584   0.810E-01 0.252E-02
CGA:   3    -0.339747931185E+03   -0.77990E-02   -0.78210E-02 10584   0.284E-01-0.284E-02
CGA:   4    -0.339749568866E+03   -0.16377E-02   -0.16710E-02 10584   0.101E-01 0.155E-02
CGA:   5    -0.339750603873E+03   -0.10350E-02   -0.10617E-02 10584   0.110E-01-0.159E-02
CGA:   6    -0.339750934384E+03   -0.33051E-03   -0.35396E-03 10584   0.173E-02 0.542E-03
CGA:   7    -0.339751040340E+03   -0.10596E-03   -0.11162E-03 10584   0.182E-02 0.285E-03
CGA:   8    -0.339751199602E+03   -0.15926E-03   -0.15600E-03 10584   0.792E-03-0.496E-03
CGA:   9    -0.339751212360E+03   -0.12759E-04   -0.19275E-04 10584   0.317E-03 0.140E-03
CGA:  10    -0.339751225192E+03   -0.12832E-04   -0.17053E-04 10584   0.302E-03 0.133E-03
CGA:  11    -0.339751264394E+03   -0.39202E-04   -0.44348E-04 10584   0.245E-03-0.188E-03
CGA:  12    -0.339751271481E+03   -0.70870E-05   -0.92218E-05 10584   0.763E-04 0.534E-04
CGA:  13    -0.339751286617E+03   -0.15136E-04    0.42870E-04 10584   0.530E-04 0.179E-04
CGA:  14    -0.339751290042E+03   -0.34247E-05   -0.37573E-05 10584   0.194E-04 0.185E-04
 123 F= -.33975129E+03 E0= -.33974824E+03  d E =-.493156E-03  mag=    14.0000
       N       E                     dE             d eps       ncg     rms          ort
SDA:   1    -0.339303199560E+03    0.44809E+00    0.00000E+00 10584   0.115E+01 0.000E+00
CGA:   2    -0.339511382891E+03   -0.20818E+00   -0.20605E+00 10584   0.290E+01 0.214E-01
CGA:   3    -0.339665161080E+03   -0.15378E+00   -0.15298E+00 10584   0.528E+00-0.197E-01
CGA:   4    -0.339710604196E+03   -0.45443E-01   -0.45455E-01 10584   0.480E+00 0.148E-02
CGA:   5    -0.339737120029E+03   -0.26516E-01   -0.26525E-01 10584   0.803E-01-0.623E-02
CGA:   6    -0.339745906998E+03   -0.87870E-02   -0.86888E-02 10584   0.619E-01 0.291E-02
CGA:   7    -0.339749086939E+03   -0.31799E-02   -0.30865E-02 10584   0.199E-01-0.342E-02
CGA:   8    -0.339750563558E+03   -0.14766E-02   -0.14742E-02 10584   0.107E-01 0.118E-02
CGA:   9    -0.339751564254E+03   -0.10007E-02   -0.10145E-02 10584   0.816E-02-0.112E-02
CGA:  10    -0.339751891374E+03   -0.32712E-03   -0.35098E-03 10584   0.191E-02 0.806E-03
CGA:  11    -0.339752185275E+03   -0.29390E-03   -0.36101E-03 10584   0.499E-02-0.701E-03
CGA:  12    -0.339752291364E+03   -0.10609E-03   -0.11165E-03 10584   0.220E-02 0.121E-03
CGA:  13    -0.339752337877E+03   -0.46513E-04   -0.59054E-04 10584   0.894E-03 0.237E-03
CGA:  14    -0.339752380903E+03   -0.43026E-04   -0.46373E-04 10584   0.975E-03 0.115E-03
CGA:  15    -0.339752457453E+03   -0.76550E-04   -0.75711E-04 10584   0.147E-02-0.156E-03
CGA:  16    -0.339752514719E+03   -0.57266E-04   -0.53480E-04 10584   0.105E-02-0.123E-03
CGA:  17    -0.339752538102E+03   -0.23383E-04   -0.23361E-04 10584   0.341E-03 0.937E-06
CGA:  18    -0.339752550146E+03   -0.12044E-04   -0.11566E-04 10584   0.321E-03-0.138E-04
CGA:  19    -0.339752575212E+03   -0.25066E-04   -0.38004E-04 10584   0.141E-02-0.235E-03
CGA:  20    -0.339752618379E+03   -0.43167E-04   -0.45733E-04 10584   0.864E-04 0.662E-04
CGA:  21    -0.339752625253E+03   -0.68738E-05   -0.68442E-05 10584   0.715E-04 0.436E-05
 124 F= -.33975263E+03 E0= -.33974972E+03  d E =-.133521E-02  mag=    14.0000
       N       E                     dE             d eps       ncg     rms          ort
SDA:   1    -0.339734910098E+03    0.17708E-01    0.00000E+00 10584   0.949E-01 0.000E+00
CGA:   2    -0.339739715807E+03   -0.48057E-02   -0.48693E-02 10584   0.609E-01 0.354E-02
CGA:   3    -0.339746644960E+03   -0.69292E-02   -0.70195E-02 10584   0.569E-01-0.235E-02
CGA:   4    -0.339749660168E+03   -0.30152E-02   -0.30375E-02 10584   0.211E-01 0.147E-02
CGA:   5    -0.339751409720E+03   -0.17496E-02   -0.17543E-02 10584   0.148E-01-0.547E-03
CGA:   6    -0.339752485785E+03   -0.10761E-02   -0.10737E-02 10584   0.253E-02 0.814E-03
CGA:   7    -0.339752765797E+03   -0.28001E-03   -0.26243E-03 10584   0.163E-02 0.668E-03
CGA:   8    -0.339752926706E+03   -0.16091E-03   -0.16492E-03 10584   0.185E-02-0.605E-03
CGA:   9    -0.339752947668E+03   -0.20962E-04   -0.32379E-04 10584   0.816E-03 0.248E-03
CGA:  10    -0.339752952060E+03   -0.43924E-05   -0.18074E-04 10584   0.349E-03 0.262E-03
CGA:  11    -0.339752960206E+03   -0.81461E-05   -0.14504E-04 10584   0.350E-03 0.170E-03
CGA:  12    -0.339752989882E+03   -0.29675E-04   -0.28923E-04 10584   0.298E-03-0.671E-04
CGA:  13    -0.339753005641E+03   -0.15760E-04   -0.18101E-04 10584   0.486E-03-0.263E-03
CGA:  14    -0.339753008497E+03   -0.28556E-05   -0.10650E-04 10584   0.115E-03 0.173E-03
 125 F= -.33975301E+03 E0= -.33975008E+03  d E =-.383244E-03  mag=    14.0000
       N       E                     dE             d eps       ncg     rms          ort
SDA:   1    -0.339724638226E+03    0.28367E-01    0.00000E+00 10584   0.133E+00 0.000E+00
CGA:   2    -0.339730346211E+03   -0.57080E-02   -0.58086E-02 10584   0.926E-01 0.544E-02
CGA:   3    -0.339746352528E+03   -0.16006E-01   -0.16330E-01 10584   0.362E-01-0.304E-02
CGA:   4    -0.339750437563E+03   -0.40850E-02   -0.40651E-02 10584   0.220E-01 0.389E-03
CGA:   5    -0.339751571974E+03   -0.11344E-02   -0.11415E-02 10584   0.693E-02 0.285E-03
CGA:   6    -0.339752407841E+03   -0.83587E-03   -0.83391E-03 10584   0.213E-02 0.341E-04
CGA:   7    -0.339752561608E+03   -0.15377E-03   -0.15364E-03 10584   0.902E-03 0.296E-03
CGA:   8    -0.339752688472E+03   -0.12686E-03   -0.13604E-03 10584   0.843E-03-0.151E-03
CGA:   9    -0.339752711740E+03   -0.23268E-04   -0.26878E-04 10584   0.229E-03 0.996E-04
CGA:  10    -0.339752733379E+03   -0.21639E-04   -0.21758E-04 10584   0.410E-03-0.102E-04
CGA:  11    -0.339752761817E+03   -0.28439E-04   -0.28357E-04 10584   0.148E-03-0.110E-03
CGA:  12    -0.339752764164E+03   -0.23465E-05   -0.32506E-05 10584   0.896E-04 0.208E-04
 126 F= -.33975276E+03 E0= -.33974980E+03  d E =0.244333E-03  mag=    14.0000
       N       E                     dE             d eps       ncg     rms          ort
SDA:   1    -0.339746600246E+03    0.61616E-02    0.00000E+00 10584   0.141E+00 0.000E+00
CGA:   2    -0.339750532331E+03   -0.39321E-02   -0.39832E-02 10584   0.732E-02 0.349E-02
CGA:   3    -0.339751244497E+03   -0.71217E-03   -0.74952E-03 10584   0.156E-01-0.122E-02
CGA:   4    -0.339752119781E+03   -0.87528E-03   -0.87669E-03 10584   0.592E-02 0.579E-03
CGA:   5    -0.339752334268E+03   -0.21449E-03   -0.22764E-03 10584   0.262E-02 0.421E-03
CGA:   6    -0.339752550772E+03   -0.21650E-03   -0.22366E-03 10584   0.264E-02-0.638E-03
CGA:   7    -0.339752655353E+03   -0.10458E-03   -0.10455E-03 10584   0.141E-02-0.284E-05
CGA:   8    -0.339752685645E+03   -0.30291E-04   -0.40579E-04 10584   0.414E-03 0.263E-03
CGA:   9    -0.339752700181E+03   -0.14536E-04   -0.17866E-04 10584   0.286E-03 0.111E-03
CGA:  10    -0.339752730386E+03   -0.30206E-04   -0.31757E-04 10584   0.350E-03-0.676E-04
CGA:  11    -0.339752736581E+03   -0.61950E-05   -0.64822E-05 10584   0.137E-03 0.658E-05
 127 F= -.33975274E+03 E0= -.33974977E+03  d E =0.275824E-04  mag=    14.0000
       N       E                     dE             d eps       ncg     rms          ort
SDA:   1    -0.339744204020E+03    0.85264E-02    0.00000E+00 10584   0.268E-01 0.000E+00
CGA:   2    -0.339746812335E+03   -0.26083E-02   -0.25474E-02 10584   0.416E-01 0.179E-02
CGA:   3    -0.339750984913E+03   -0.41726E-02   -0.42380E-02 10584   0.204E-01-0.209E-02
CGA:   4    -0.339751879003E+03   -0.89409E-03   -0.91947E-03 10584   0.777E-02 0.150E-02
CGA:   5    -0.339752630198E+03   -0.75120E-03   -0.79094E-03 10584   0.532E-02-0.130E-02
CGA:   6    -0.339752831167E+03   -0.20097E-03   -0.20894E-03 10584   0.113E-02 0.432E-03
CGA:   7    -0.339752927822E+03   -0.96655E-04   -0.94105E-04 10584   0.839E-03 0.205E-03
CGA:   8    -0.339753006834E+03   -0.79012E-04   -0.91107E-04 10584   0.861E-03-0.454E-03
CGA:   9    -0.339753018911E+03   -0.12077E-04   -0.21483E-04 10584   0.152E-03 0.225E-03
CGA:  10    -0.339753026469E+03   -0.75583E-05   -0.87502E-05 10584   0.138E-03 0.630E-04
CGA:  11    -0.339753030541E+03   -0.40715E-05   -0.33402E-04 10584   0.497E-03-0.273E-03
CGA:  12    -0.339753033586E+03   -0.30454E-05   -0.11779E-04 10584   0.143E-03 0.192E-03
 128 F= -.33975303E+03 E0= -.33975009E+03  d E =-.297005E-03  mag=    14.0000
       N       E                     dE             d eps       ncg     rms          ort
SDA:   1    -0.339725302979E+03    0.27728E-01    0.00000E+00 10584   0.185E+00 0.000E+00
CGA:   2    -0.339731327315E+03   -0.60243E-02   -0.62236E-02 10584   0.699E-01 0.590E-02
CGA:   3    -0.339747944316E+03   -0.16617E-01   -0.16614E-01 10584   0.362E-01 0.193E-04
CGA:   4    -0.339750704321E+03   -0.27600E-02   -0.27702E-02 10584   0.326E-01-0.227E-02
CGA:   5    -0.339752181927E+03   -0.14776E-02   -0.15097E-02 10584   0.873E-02 0.138E-02
CGA:   6    -0.339752774942E+03   -0.59301E-03   -0.59200E-03 10584   0.495E-02-0.193E-03
CGA:   7    -0.339753124521E+03   -0.34958E-03   -0.35007E-03 10584   0.308E-02-0.300E-03
CGA:   8    -0.339753260014E+03   -0.13549E-03   -0.14053E-03 10584   0.880E-03 0.228E-03
CGA:   9    -0.339753330751E+03   -0.70736E-04   -0.74968E-04 10584   0.150E-02-0.438E-03
CGA:  10    -0.339753371919E+03   -0.41169E-04   -0.40556E-04 10584   0.138E-02-0.375E-04
CGA:  11    -0.339753391621E+03   -0.19701E-04   -0.29401E-04 10584   0.287E-03 0.203E-03
CGA:  12    -0.339753394804E+03   -0.31831E-05   -0.76196E-05 10584   0.168E-03 0.101E-03
CGA:  13    -0.339753403620E+03   -0.88159E-05   -0.10100E-04 10584   0.216E-03 0.637E-04
CGA:  14    -0.339753423547E+03   -0.19927E-04   -0.20222E-04 10584   0.232E-03-0.716E-04
CGA:  15    -0.339753427531E+03   -0.39839E-05   -0.37530E-05 10584   0.145E-03-0.589E-05
 129 F= -.33975343E+03 E0= -.33975051E+03  d E =-.393945E-03  mag=    14.0000
       N       E                     dE             d eps       ncg     rms          ort
SDA:   1    -0.339751360060E+03    0.20635E-02    0.00000E+00 10584   0.202E-01 0.000E+00
CGA:   2    -0.339752105345E+03   -0.74528E-03   -0.75214E-03 10584   0.438E-02 0.382E-03
CGA:   3    -0.339752856292E+03   -0.75095E-03   -0.80324E-03 10584   0.809E-02-0.434E-03
CGA:   4    -0.339753261823E+03   -0.40553E-03   -0.40934E-03 10584   0.234E-02 0.448E-03
CGA:   5    -0.339753411806E+03   -0.14998E-03   -0.14633E-03 10584   0.143E-02-0.720E-03
CGA:   6    -0.339753476934E+03   -0.65128E-04   -0.64797E-04 10584   0.599E-03 0.265E-03
CGA:   7    -0.339753500025E+03   -0.23091E-04   -0.27480E-04 10584   0.154E-03 0.172E-03
CGA:   8    -0.339753517427E+03   -0.17402E-04   -0.20302E-04 10584   0.341E-03-0.735E-04
CGA:   9    -0.339753519415E+03   -0.19879E-05   -0.37696E-05 10584   0.305E-03 0.408E-04
 130 F= -.33975352E+03 E0= -.33975060E+03  d E =-.918840E-04  mag=    14.0000
       N       E                     dE             d eps       ncg     rms          ort
SDA:   1    -0.339742228070E+03    0.11289E-01    0.00000E+00 10584   0.570E-01 0.000E+00
CGA:   2    -0.339745833969E+03   -0.36059E-02   -0.36031E-02 10584   0.266E-01 0.966E-03
CGA:   3    -0.339750533411E+03   -0.46994E-02   -0.46126E-02 10584   0.349E-01 0.768E-03
CGA:   4    -0.339752358295E+03   -0.18249E-02   -0.18060E-02 10584   0.537E-02-0.125E-02
CGA:   5    -0.339752910651E+03   -0.55236E-03   -0.51840E-03 10584   0.329E-02 0.969E-03
CGA:   6    -0.339753156171E+03   -0.24552E-03   -0.24031E-03 10584   0.279E-02-0.100E-02
CGA:   7    -0.339753238847E+03   -0.82677E-04   -0.91066E-04 10584   0.654E-03 0.419E-03
CGA:   8    -0.339753249286E+03   -0.10439E-04   -0.19946E-04 10584   0.296E-03 0.241E-03
CGA:   9    -0.339753279829E+03   -0.30543E-04   -0.29839E-04 10584   0.395E-03 0.716E-04
CGA:  10    -0.339753312039E+03   -0.32210E-04   -0.39581E-04 10584   0.654E-03-0.454E-03
CGA:  11    -0.339753314780E+03   -0.27412E-05   -0.13151E-04 10584   0.130E-03 0.230E-03
 131 F= -.33975331E+03 E0= -.33975038E+03  d E =0.204635E-03  mag=    14.0000
       N       E                     dE             d eps       ncg     rms          ort
SDA:   1    -0.339747581142E+03    0.57309E-02    0.00000E+00 10584   0.309E-01 0.000E+00
CGA:   2    -0.339748662814E+03   -0.10817E-02   -0.11393E-02 10584   0.151E-01 0.246E-02
CGA:   3    -0.339751819372E+03   -0.31566E-02   -0.33104E-02 10584   0.130E-01-0.107E-02
CGA:   4    -0.339752525202E+03   -0.70583E-03   -0.70480E-03 10584   0.469E-02-0.163E-03
CGA:   5    -0.339752739523E+03   -0.21432E-03   -0.22979E-03 10584   0.282E-02 0.920E-03
CGA:   6    -0.339753052252E+03   -0.31273E-03   -0.32112E-03 10584   0.858E-03-0.286E-03
CGA:   7    -0.339753107212E+03   -0.54959E-04   -0.55329E-04 10584   0.654E-03-0.792E-04
CGA:   8    -0.339753129409E+03   -0.22198E-04   -0.26446E-04 10584   0.204E-03 0.187E-03
CGA:   9    -0.339753145440E+03   -0.16030E-04   -0.16015E-04 10584   0.211E-03-0.349E-05
CGA:  10    -0.339753162101E+03   -0.16662E-04   -0.24103E-04 10584   0.205E-03-0.148E-03
CGA:  11    -0.339753163118E+03   -0.10169E-05   -0.52780E-05 10584   0.688E-04 0.999E-04
 132 F= -.33975316E+03 E0= -.33975021E+03  d E =0.151662E-03  mag=    14.0000
       N       E                     dE             d eps       ncg     rms          ort
SDA:   1    -0.339749781130E+03    0.33810E-02    0.00000E+00 10584   0.258E-01 0.000E+00
CGA:   2    -0.339750511141E+03   -0.73001E-03   -0.80378E-03 10584   0.797E-02 0.211E-02
CGA:   3    -0.339752272510E+03   -0.17614E-02   -0.16731E-02 10584   0.108E-01 0.670E-03
CGA:   4    -0.339752916808E+03   -0.64430E-03   -0.62430E-03 10584   0.515E-02-0.129E-02
CGA:   5    -0.339753089159E+03   -0.17235E-03   -0.18582E-03 10584   0.149E-02 0.494E-03
CGA:   6    -0.339753191584E+03   -0.10242E-03   -0.10328E-03 10584   0.120E-02 0.223E-03
CGA:   7    -0.339753283885E+03   -0.92301E-04   -0.92233E-04 10584   0.936E-03-0.496E-03
CGA:   8    -0.339753296594E+03   -0.12709E-04   -0.16958E-04 10584   0.422E-03 0.118E-03
CGA:   9    -0.339753302169E+03   -0.55756E-05   -0.10769E-04 10584   0.167E-03 0.122E-03
CGA:  10    -0.339753313351E+03   -0.11182E-04   -0.11004E-04 10584   0.196E-03-0.154E-04
CGA:  11    -0.339753287239E+03    0.26111E-04   -0.28259E-04 10584   0.172E-02-0.567E-03
CGA:  12    -0.339753311024E+03   -0.23785E-04   -0.41857E-04 10584   0.241E-03 0.419E-03
CGA:  13    -0.339753316347E+03   -0.53225E-05   -0.91265E-05 10584   0.111E-03 0.110E-03
CGA:  14    -0.339753328676E+03   -0.12329E-04   -0.14198E-04 10584   0.237E-03-0.769E-04
CGA:  15    -0.339753333473E+03   -0.47974E-05   -0.68760E-05 10584   0.297E-04 0.583E-04
CGA:  16    -0.339753338274E+03   -0.48010E-05    0.34559E-04 10584   0.241E-04-0.191E-04
 133 F= -.33975334E+03 E0= -.33975040E+03  d E =-.175156E-03  mag=    14.0000
