       N       E                     dE             d eps       ncg     rms          ort
DAV:   1     0.113338668129E+05    0.11334E+05   -0.60511E+05   720   0.157E+03
DAV:   2    -0.716229402226E+03   -0.12050E+05   -0.11535E+05   720   0.446E+02
DAV:   3    -0.204355082274E+04   -0.13273E+04   -0.12962E+04   720   0.159E+02
DAV:   4    -0.212052790258E+04   -0.76977E+02   -0.75764E+02   720   0.405E+01
DAV:   5    -0.212773970382E+04   -0.72118E+01   -0.71629E+01   720   0.813E+00
SDA:   6    -0.146792001730E+04    0.65982E+03   -0.71629E+01   720   0.200E+04 0.000E+00
CGA:   7    -0.167481081394E+04   -0.20689E+03   -0.23068E+03   720   0.354E+03 0.191E+03
CGA:   8    -0.170211486682E+04   -0.27304E+02   -0.26341E+02   720   0.295E+03 0.112E+03
CGA:   9    -0.171527181017E+04   -0.13157E+02   -0.30354E+02   720   0.175E+03-0.143E+02
CGA:  10    -0.172138595688E+04   -0.61141E+01   -0.10797E+02   720   0.897E+02-0.216E+02
CGA:  11    -0.172166457515E+04   -0.27862E+00   -0.60182E+01   720   0.326E+03 0.160E+02
CGA:  12    -0.171784744951E+04    0.38171E+01   -0.13237E+02   720   0.400E+03-0.157E+03
CGA:  13    -0.171797491697E+04   -0.12747E+00   -0.44696E+01   720   0.226E+03-0.188E+03
CGA:  14    -0.172172312412E+04   -0.37482E+01   -0.27977E+01   720   0.111E+03-0.603E+01
CGA:  15    -0.172532268308E+04   -0.35996E+01   -0.65913E+01   720   0.565E+02-0.227E+02
CGA:  16    -0.172757023717E+04   -0.22476E+01   -0.23498E+01   720   0.682E+02-0.101E+01
CGA:  17    -0.173077228190E+04   -0.32020E+01   -0.44722E+01   720   0.575E+02 0.116E+02
CGA:  18    -0.173068196358E+04    0.90318E-01   -0.37101E+01   720   0.739E+02-0.224E+02
CGA:  19    -0.173293019417E+04   -0.22482E+01   -0.12471E+01   720   0.342E+02-0.319E+02
CGA:  20    -0.173331351014E+04   -0.38332E+00   -0.66733E+00   720   0.368E+02-0.951E+01
CGA:  21    -0.173489404342E+04   -0.15805E+01   -0.15569E+01   720   0.222E+02-0.100E+00
CGA:  22    -0.173588735327E+04   -0.99331E+00   -0.14217E+01   720   0.166E+02-0.120E+01
CGA:  23    -0.173664722846E+04   -0.75988E+00   -0.61859E+00   720   0.942E+01 0.122E+01
CGA:  24    -0.173720889659E+04   -0.56167E+00   -0.60080E+00   720   0.153E+02-0.507E+00
CGA:  25    -0.173769412590E+04   -0.48523E+00   -0.32452E+00   720   0.103E+02 0.713E+01
CGA:  26    -0.173797563666E+04   -0.28151E+00   -0.34013E+00   720   0.906E+01-0.441E+01
CGA:  27    -0.173807517191E+04   -0.99535E-01   -0.14434E+00   720   0.170E+02-0.660E+00
CGA:  28    -0.173824338064E+04   -0.16821E+00   -0.28514E+00   720   0.126E+02-0.920E+01
CGA:  29    -0.173871637193E+04   -0.47299E+00   -0.44816E+00   720   0.305E+01 0.405E+00
CGA:  30    -0.173881713673E+04   -0.10076E+00   -0.64033E-01   720   0.143E+01 0.158E+01
CGA:  31    -0.173891810256E+04   -0.10097E+00   -0.99516E-01   720   0.189E+01-0.149E-01
CGA:  32    -0.173911720181E+04   -0.19910E+00   -0.20035E+00   720   0.250E+01-0.326E-01
CGA:  33    -0.173921275016E+04   -0.95548E-01   -0.90759E-01   720   0.691E+00 0.157E+00
CGA:  34    -0.173924507443E+04   -0.32324E-01   -0.28878E-01   720   0.671E+00 0.782E-01
CGA:  35    -0.173927200030E+04   -0.26926E-01   -0.20902E-01   720   0.542E+00 0.207E+00
CGA:  36    -0.173929974575E+04   -0.27745E-01   -0.28886E-01   720   0.102E+01-0.212E-02
CGA:  37    -0.173934005317E+04   -0.40307E-01   -0.38375E-01   720   0.164E+01 0.606E-01
CGA:  38    -0.173936094399E+04   -0.20891E-01   -0.12614E-01   720   0.128E+01 0.120E+01
CGA:  39    -0.173939521772E+04   -0.34274E-01   -0.29468E-01   720   0.230E+00 0.182E+00
CGA:  40    -0.173940393768E+04   -0.87200E-02   -0.68967E-02   720   0.845E-01 0.511E-01
CGA:  41    -0.173940905075E+04   -0.51131E-02   -0.48737E-02   720   0.182E+00-0.415E-02
CGA:  42    -0.173941914236E+04   -0.10092E-01   -0.99436E-02   720   0.589E+00-0.131E-01
CGA:  43    -0.173943476203E+04   -0.15620E-01   -0.14067E-01   720   0.629E+00 0.151E-01
CGA:  44    -0.173944754581E+04   -0.12784E-01   -0.13171E-01   720   0.271E+00-0.397E-01
CGA:  45    -0.173945201265E+04   -0.44668E-02   -0.50749E-02   720   0.924E-01-0.337E-01
CGA:  46    -0.173945445238E+04   -0.24397E-02   -0.25435E-02   720   0.956E-01-0.252E-02
CGA:  47    -0.173946017639E+04   -0.57240E-02   -0.57155E-02   720   0.165E+00 0.210E-02
CGA:  48    -0.173946653579E+04   -0.63594E-02   -0.62899E-02   720   0.106E+00 0.374E-02
CGA:  49    -0.173946967049E+04   -0.31347E-02   -0.33204E-02   720   0.549E-01 0.404E-02
CGA:  50    -0.173947132142E+04   -0.16509E-02   -0.17426E-02   720   0.337E-01 0.402E-02
CGA:  51    -0.173947264768E+04   -0.13263E-02   -0.13830E-02   720   0.311E-01 0.283E-02
CGA:  52    -0.173947419350E+04   -0.15458E-02   -0.15692E-02   720   0.360E-01 0.253E-02
CGA:  53    -0.173947577875E+04   -0.15853E-02   -0.16188E-02   720   0.239E-01 0.266E-02
CGA:  54    -0.173947645123E+04   -0.67248E-03   -0.71888E-03   720   0.887E-02 0.176E-02
CGA:  55    -0.173947679664E+04   -0.34541E-03   -0.36366E-03   720   0.102E-01 0.124E-02
CGA:  56    -0.173947759783E+04   -0.80119E-03   -0.76450E-03   720   0.176E-01 0.256E-02
CGA:  57    -0.173947849563E+04   -0.89780E-03   -0.92127E-03   720   0.914E-02 0.254E-02
CGA:  58    -0.173947885305E+04   -0.35742E-03   -0.37491E-03   720   0.533E-02 0.105E-02
CGA:  59    -0.173947916004E+04   -0.30699E-03   -0.30652E-03   720   0.690E-02 0.782E-03
CGA:  60    -0.173947967566E+04   -0.51562E-03   -0.50636E-03   720   0.927E-02 0.753E-03
CGA:  61    -0.173948007423E+04   -0.39857E-03   -0.39857E-03   720   0.351E-02 0.198E-03
CGA:  62    -0.173948021360E+04   -0.13938E-03   -0.13413E-03   720   0.270E-02-0.398E-03
CGA:  63    -0.173948029987E+04   -0.86268E-04   -0.27707E-03   720   0.102E-01-0.292E-02
CGA:  64    -0.173948066140E+04   -0.36152E-03   -0.35027E-03   720   0.150E-02-0.700E-03
CGA:  65    -0.173948075927E+04   -0.97874E-04   -0.10519E-03   720   0.190E-02-0.327E-03
CGA:  66    -0.173948045047E+04    0.30880E-03   -0.34622E-03   720   0.253E-01-0.367E-02
CGA:  67    -0.173948106214E+04   -0.61166E-03   -0.59622E-03   720   0.257E-02-0.542E-04
CGA:  68    -0.173948119631E+04   -0.13417E-03   -0.13302E-03   720   0.884E-03-0.148E-03
CGA:  69    -0.173948124213E+04   -0.45828E-04   -0.46092E-04   720   0.383E-03 0.518E-04
CGA:  70    -0.173948127125E+04   -0.29116E-04   -0.28199E-04   720   0.167E-03 0.971E-04
CGA:  71    -0.173948128521E+04   -0.13963E-04   -0.14224E-04   720   0.184E-03-0.363E-04
CGA:  72    -0.173948129330E+04   -0.80873E-05   -0.26635E-04   720   0.936E-03-0.149E-03
CGA:  73    -0.173948132487E+04   -0.31570E-04   -0.28630E-04   720   0.278E-03-0.797E-04
CGA:  74    -0.173948134215E+04   -0.17281E-04   -0.26613E-04   720   0.697E-03-0.239E-03
CGA:  75    -0.173948136057E+04   -0.18414E-04   -0.18965E-04   720   0.127E-03 0.118E-04
CGA:  76    -0.173948136477E+04   -0.42016E-05   -0.48029E-05   720   0.317E-04 0.210E-04
   1 F= -.17394814E+04 E0= -.17394519E+04  d E =-.173948E+04  mag=    46.0000
       N       E                     dE             d eps       ncg     rms          ort
SDA:   1    -0.173951085400E+04   -0.29493E-01    0.00000E+00   720   0.494E+00 0.000E+00
CGA:   2    -0.173952045316E+04   -0.95992E-02   -0.11755E-01   720   0.523E-01-0.636E-01
CGA:   3    -0.173952224609E+04   -0.17929E-02   -0.17860E-02   720   0.102E-01 0.160E-02
CGA:   4    -0.173952301544E+04   -0.76935E-03   -0.76454E-03   720   0.798E-02 0.106E-02
CGA:   5    -0.173952359799E+04   -0.58255E-03   -0.58406E-03   720   0.694E-02 0.769E-03
CGA:   6    -0.173952399847E+04   -0.40048E-03   -0.40654E-03   720   0.169E-02 0.383E-03
CGA:   7    -0.173952409729E+04   -0.98821E-04   -0.98107E-04   720   0.167E-02-0.564E-04
CGA:   8    -0.173952427630E+04   -0.17901E-03   -0.21130E-03   720   0.192E-02-0.507E-03
CGA:   9    -0.173952433063E+04   -0.54331E-04   -0.42914E-04   720   0.332E-03-0.301E-03
CGA:  10    -0.173952435248E+04   -0.21855E-04   -0.29133E-04   720   0.686E-03-0.202E-03
CGA:  11    -0.173952437277E+04   -0.20286E-04   -0.23291E-04   720   0.142E-03 0.819E-04
CGA:  12    -0.173952438757E+04   -0.14798E-04   -0.16821E-04   720   0.304E-03-0.536E-04
CGA:  13    -0.173952440155E+04   -0.13978E-04   -0.14220E-04   720   0.334E-03-0.486E-04
CGA:  14    -0.173952441149E+04   -0.99404E-05   -0.96435E-05   720   0.120E-03-0.970E-05
   2 F= -.17395244E+04 E0= -.17394951E+04  d E =-.430467E-01  mag=    46.0000
       N       E                     dE             d eps       ncg     rms          ort
SDA:   1    -0.173340736921E+04    0.61170E+01    0.00000E+00   720   0.464E+02 0.000E+00
CGA:   2    -0.173545849739E+04   -0.20511E+01   -0.24048E+01   720   0.296E+02 0.492E+01
CGA:   3    -0.173803037901E+04   -0.25719E+01   -0.36127E+01   720   0.787E+02-0.245E+02
CGA:   4    -0.173908998783E+04   -0.10596E+01   -0.25430E+01   720   0.192E+02-0.208E+02
CGA:   5    -0.173986932240E+04   -0.77933E+00   -0.39129E+00   720   0.520E+01 0.956E+01
CGA:   6    -0.173999662985E+04   -0.12731E+00   -0.11807E+00   720   0.356E+01-0.256E-01
CGA:   7    -0.174014551795E+04   -0.14889E+00   -0.14535E+00   720   0.143E+02-0.118E-01
CGA:   8    -0.174040952444E+04   -0.26401E+00   -0.22522E+00   720   0.204E+02 0.194E+01
CGA:   9    -0.174073989022E+04   -0.33037E+00   -0.45557E+00   720   0.132E+02-0.396E+01
CGA:  10    -0.174081632528E+04   -0.76435E-01   -0.14072E+00   720   0.343E+01-0.374E+01
CGA:  11    -0.174085515628E+04   -0.38831E-01   -0.47725E-01   720   0.151E+01-0.295E+00
CGA:  12    -0.174088829181E+04   -0.33136E-01   -0.30777E-01   720   0.131E+01 0.473E-01
CGA:  13    -0.174095320068E+04   -0.64909E-01   -0.64835E-01   720   0.257E+01-0.956E-02
CGA:  14    -0.174101216757E+04   -0.58967E-01   -0.60989E-01   720   0.142E+01-0.198E-01
CGA:  15    -0.174103817123E+04   -0.26004E-01   -0.28402E-01   720   0.549E+00-0.585E-01
CGA:  16    -0.174105227615E+04   -0.14105E-01   -0.15106E-01   720   0.407E+00-0.895E-02
CGA:  17    -0.174107181513E+04   -0.19539E-01   -0.19530E-01   720   0.625E+00-0.398E-04
CGA:  18    -0.174111048478E+04   -0.38670E-01   -0.38670E-01   720   0.607E+00-0.835E-03
CGA:  19    -0.174112619875E+04   -0.15714E-01   -0.15532E-01   720   0.190E+00 0.883E-02
CGA:  20    -0.174113374607E+04   -0.75473E-02   -0.75359E-02   720   0.182E+00 0.107E-02
CGA:  21    -0.174114038949E+04   -0.66434E-02   -0.63826E-02   720   0.134E+00-0.341E-02
CGA:  22    -0.174114475822E+04   -0.43687E-02   -0.43498E-02   720   0.144E+00-0.166E-02
CGA:  23    -0.174115036038E+04   -0.56022E-02   -0.55874E-02   720   0.166E+00-0.219E-02
CGA:  24    -0.174115529299E+04   -0.49326E-02   -0.49950E-02   720   0.944E-01-0.987E-03
CGA:  25    -0.174115755514E+04   -0.22621E-02   -0.22702E-02   720   0.386E-01-0.724E-03
CGA:  26    -0.174115873227E+04   -0.11771E-02   -0.11774E-02   720   0.303E-01 0.111E-04
CGA:  27    -0.174116003054E+04   -0.12983E-02   -0.12982E-02   720   0.428E-01 0.121E-02
CGA:  28    -0.174116228183E+04   -0.22513E-02   -0.22304E-02   720   0.558E-01 0.275E-02
CGA:  29    -0.174116414614E+04   -0.18643E-02   -0.18825E-02   720   0.222E-01 0.142E-02
CGA:  30    -0.174116475970E+04   -0.61356E-03   -0.60995E-03   720   0.104E-01 0.156E-03
CGA:  31    -0.174116514260E+04   -0.38290E-03   -0.38489E-03   720   0.106E-01 0.455E-03
CGA:  32    -0.174116569074E+04   -0.54814E-03   -0.54025E-03   720   0.168E-01 0.105E-02
CGA:  33    -0.174116655193E+04   -0.86119E-03   -0.85897E-03   720   0.123E-01 0.453E-03
SDA:  34    -0.174116692447E+04   -0.37254E-03   -0.36064E-03   720   0.583E-02-0.899E-03
CGA:  35    -0.174116727447E+04   -0.35000E-03   -0.34845E-03   720   0.436E-02 0.877E-04
CGA:  36    -0.174116755447E+04   -0.27999E-03   -0.28073E-03   720   0.382E-02-0.338E-04
CGA:  37    -0.174116790400E+04   -0.34954E-03   -0.41535E-03   720   0.499E-02-0.995E-03
CGA:  38    -0.174116806832E+04   -0.16432E-03   -0.16292E-03   720   0.147E-02-0.560E-03
CGA:  39    -0.174116811696E+04   -0.48633E-04   -0.49251E-04   720   0.646E-03 0.720E-04
CGA:  40    -0.174116817090E+04   -0.53943E-04   -0.50772E-04   720   0.958E-03 0.110E-03
CGA:  41    -0.174116823919E+04   -0.68293E-04   -0.66321E-04   720   0.659E-03 0.171E-03
CGA:  42    -0.174116826690E+04   -0.27706E-04   -0.30252E-04   720   0.298E-03 0.276E-03
CGA:  43    -0.174116828693E+04   -0.20032E-04   -0.20063E-04   720   0.374E-03 0.180E-03
CGA:  44    -0.174116830966E+04   -0.22725E-04   -0.39714E-04   720   0.148E-02-0.291E-03
CGA:  45    -0.174116833722E+04   -0.27561E-04   -0.32633E-04   720   0.169E-03 0.180E-03
CGA:  46    -0.174116834440E+04   -0.71822E-05   -0.77994E-05   720   0.152E-03 0.769E-04
CGA:  47    -0.174116836718E+04   -0.22784E-04   -0.21027E-04   720   0.456E-03 0.375E-04
CGA:  48    -0.174116841009E+04   -0.42908E-04   -0.40956E-04   720   0.520E-03 0.925E-04
CGA:  49    -0.174116842925E+04   -0.19154E-04   -0.20794E-04   720   0.251E-03 0.854E-04
CGA:  50    -0.174116844137E+04   -0.12125E-04   -0.12442E-04   720   0.203E-03 0.365E-04
CGA:  51    -0.174116845732E+04   -0.15953E-04   -0.15400E-04   720   0.346E-03 0.351E-04
CGA:  52    -0.174116847454E+04   -0.17219E-04   -0.17879E-04   720   0.175E-03 0.876E-04
CGA:  53    -0.174116848217E+04   -0.76282E-05   -0.79809E-05   720   0.113E-03 0.233E-04
CGA:  54    -0.174116848795E+04   -0.57814E-05   -0.19630E-04   720   0.702E-03-0.135E-03
CGA:  55    -0.174116850518E+04   -0.17224E-04   -0.19684E-04   720   0.127E-03 0.887E-04
CGA:  56    -0.174116851136E+04   -0.61805E-05   -0.62825E-05   720   0.499E-04 0.102E-04
   3 F= -.17411685E+04 E0= -.17411399E+04  d E =-.164410E+01  mag=    46.0000
       N       E                     dE             d eps       ncg     rms          ort
SDA:   1    -0.172546792192E+04    0.15701E+02    0.00000E+00   720   0.778E+02 0.000E+00
CGA:   2    -0.173107355361E+04   -0.56056E+01   -0.53260E+01   720   0.573E+02 0.180E+02
CGA:   3    -0.173540611095E+04   -0.43326E+01   -0.76461E+01   720   0.115E+03-0.363E+02
CGA:   4    -0.173791342757E+04   -0.25073E+01   -0.37649E+01   720   0.553E+02-0.356E+02
CGA:   5    -0.173901611629E+04   -0.11027E+01   -0.11435E+01   720   0.753E+02-0.542E+01
CGA:   6    -0.173943609233E+04   -0.41998E+00   -0.96228E+00   720   0.600E+02-0.571E+02
CGA:   7    -0.174037154518E+04   -0.93545E+00   -0.13563E+01   720   0.239E+02-0.229E+02
CGA:   8    -0.174075424975E+04   -0.38270E+00   -0.40001E+00   720   0.785E+01-0.752E+00
CGA:   9    -0.174109406683E+04   -0.33982E+00   -0.33023E+00   720   0.796E+01-0.556E+00
CGA:  10    -0.174133645513E+04   -0.24239E+00   -0.25633E+00   720   0.137E+02 0.352E-01
CGA:  11    -0.174189667362E+04   -0.56022E+00   -0.57507E+00   720   0.829E+01 0.662E+00
CGA:  12    -0.174208819080E+04   -0.19152E+00   -0.19900E+00   720   0.358E+01-0.446E+00
CGA:  13    -0.174218660152E+04   -0.98411E-01   -0.93839E-01   720   0.760E+00 0.707E-01
CGA:  14    -0.174221625562E+04   -0.29654E-01   -0.30057E-01   720   0.774E+00 0.257E-01
CGA:  15    -0.174225403873E+04   -0.37783E-01   -0.37751E-01   720   0.820E+00 0.711E-02
CGA:  16    -0.174230075473E+04   -0.46716E-01   -0.46825E-01   720   0.520E+00-0.612E-02
CGA:  17    -0.174231663719E+04   -0.15882E-01   -0.16579E-01   720   0.266E+00 0.152E-01
CGA:  18    -0.174232904248E+04   -0.12405E-01   -0.12409E-01   720   0.222E+00 0.182E-02
CGA:  19    -0.174234912733E+04   -0.20085E-01   -0.20595E-01   720   0.384E+00-0.113E-01
CGA:  20    -0.174236449787E+04   -0.15371E-01   -0.15503E-01   720   0.156E+00 0.996E-02
CGA:  21    -0.174236995267E+04   -0.54548E-02   -0.55125E-02   720   0.650E-01-0.268E-02
CGA:  22    -0.174237441835E+04   -0.44657E-02   -0.44996E-02   720   0.932E-01-0.164E-02
CGA:  23    -0.174237984792E+04   -0.54296E-02   -0.53744E-02   720   0.803E-01 0.424E-02
CGA:  24    -0.174238349643E+04   -0.36485E-02   -0.36454E-02   720   0.394E-01-0.240E-02
CGA:  25    -0.174238570798E+04   -0.22115E-02   -0.22347E-02   720   0.339E-01-0.256E-02
CGA:  26    -0.174238703920E+04   -0.13312E-02   -0.13476E-02   720   0.161E-01 0.229E-02
CGA:  27    -0.174238797463E+04   -0.93543E-03   -0.93399E-03   720   0.170E-01 0.163E-03
CGA:  28    -0.174238929553E+04   -0.13209E-02   -0.13563E-02   720   0.199E-01-0.121E-02
CGA:  29    -0.174238990830E+04   -0.61277E-03   -0.63828E-03   720   0.650E-02 0.164E-02
CGA:  30    -0.174239019285E+04   -0.28455E-03   -0.29050E-03   720   0.548E-02 0.711E-03
CGA:  31    -0.174239068706E+04   -0.49421E-03   -0.52533E-03   720   0.125E-01-0.851E-03
CGA:  32    -0.174239113415E+04   -0.44709E-03   -0.45151E-03   720   0.794E-02 0.501E-03
CGA:  33    -0.174239131245E+04   -0.17830E-03   -0.20224E-03   720   0.318E-02 0.910E-03
CGA:  34    -0.174239144671E+04   -0.13426E-03   -0.13764E-03   720   0.288E-02 0.337E-03
CGA:  35    -0.174239158992E+04   -0.14321E-03   -0.14142E-03   720   0.232E-02-0.375E-03
CGA:  36    -0.174239165099E+04   -0.61074E-04   -0.62575E-04   720   0.154E-02 0.772E-04
SDA:  37    -0.174239169703E+04   -0.46038E-04   -0.50757E-04   720   0.142E-02 0.299E-03
CGA:  38    -0.174239176891E+04   -0.71875E-04   -0.74741E-04   720   0.137E-02-0.499E-03
CGA:  39    -0.174239181104E+04   -0.42135E-04   -0.42136E-04   720   0.511E-03-0.602E-05
CGA:  40    -0.174239182502E+04   -0.13977E-04   -0.15888E-04   720   0.329E-03 0.118E-03
CGA:  41    -0.174239184900E+04   -0.23983E-04   -0.23057E-04   720   0.337E-03 0.881E-04
CGA:  42    -0.174239187426E+04   -0.25258E-04   -0.25015E-04   720   0.391E-03 0.219E-04
CGA:  43    -0.174239189170E+04   -0.17439E-04   -0.17767E-04   720   0.298E-03 0.658E-04
CGA:  44    -0.174239191367E+04   -0.21975E-04   -0.21722E-04   720   0.548E-03 0.159E-04
CGA:  45    -0.174239194588E+04   -0.32213E-04   -0.33217E-04   720   0.325E-03-0.106E-03
CGA:  46    -0.174239195325E+04   -0.73661E-05   -0.69855E-05   720   0.158E-03-0.182E-04
   4 F= -.17423920E+04 E0= -.17423646E+04  d E =-.122344E+01  mag=    46.0000
       N       E                     dE             d eps       ncg     rms          ort
SDA:   1    -0.173702574125E+04    0.53662E+01    0.00000E+00   720   0.283E+02 0.000E+00
CGA:   2    -0.173853397127E+04   -0.15082E+01   -0.15032E+01   720   0.278E+02 0.122E+01
CGA:   3    -0.174127595557E+04   -0.27420E+01   -0.29512E+01   720   0.137E+02-0.481E+01
CGA:   4    -0.174170096910E+04   -0.42501E+00   -0.41414E+00   720   0.414E+01-0.162E+00
CGA:   5    -0.174212994766E+04   -0.42898E+00   -0.43505E+00   720   0.896E+01-0.881E-01
CGA:   6    -0.174244750364E+04   -0.31756E+00   -0.31961E+00   720   0.211E+01-0.306E-01
CGA:   7    -0.174252584444E+04   -0.78341E-01   -0.78229E-01   720   0.734E+00-0.817E-02
CGA:   8    -0.174257467453E+04   -0.48830E-01   -0.48527E-01   720   0.995E+00 0.157E-01
CGA:   9    -0.174263181222E+04   -0.57138E-01   -0.57044E-01   720   0.319E+00 0.489E-03
CGA:  10    -0.174264258852E+04   -0.10776E-01   -0.10775E-01   720   0.110E+00 0.533E-02
CGA:  11    -0.174265392301E+04   -0.11334E-01   -0.11595E-01   720   0.203E+00-0.497E-02
CGA:  12    -0.174266451622E+04   -0.10593E-01   -0.10577E-01   720   0.905E-01 0.121E-01
CGA:  13    -0.174266970690E+04   -0.51907E-02   -0.51884E-02   720   0.540E-01 0.478E-03
CGA:  14    -0.174267456410E+04   -0.48572E-02   -0.48634E-02   720   0.580E-01-0.315E-03
CGA:  15    -0.174267854642E+04   -0.39823E-02   -0.40001E-02   720   0.414E-01-0.119E-02
CGA:  16    -0.174268224826E+04   -0.37018E-02   -0.36765E-02   720   0.449E-01 0.537E-03
CGA:  17    -0.174268510524E+04   -0.28570E-02   -0.28685E-02   720   0.190E-01-0.240E-02
CGA:  18    -0.174268610391E+04   -0.99868E-03   -0.10039E-02   720   0.148E-01 0.225E-02
CGA:  19    -0.174268795639E+04   -0.18525E-02   -0.19271E-02   720   0.254E-01-0.128E-02
CGA:  20    -0.174268896630E+04   -0.10099E-02   -0.10196E-02   720   0.494E-02 0.558E-03
CGA:  21    -0.174268928082E+04   -0.31452E-03   -0.31414E-03   720   0.549E-02 0.152E-03
CGA:  22    -0.174268978627E+04   -0.50544E-03   -0.50765E-03   720   0.630E-02-0.775E-04
CGA:  23    -0.174269001574E+04   -0.22948E-03   -0.25417E-03   720   0.266E-02 0.119E-02
CGA:  24    -0.174269017562E+04   -0.15988E-03   -0.16279E-03   720   0.197E-02 0.320E-03
CGA:  25    -0.174269036252E+04   -0.18689E-03   -0.23575E-03   720   0.497E-02-0.105E-02
CGA:  26    -0.174269045216E+04   -0.89638E-04   -0.12065E-03   720   0.900E-03 0.816E-03
CGA:  27    -0.174269050842E+04   -0.56265E-04   -0.57244E-04   720   0.680E-03 0.168E-03
CGA:  28    -0.174269056666E+04   -0.58242E-04   -0.85887E-04   720   0.255E-02-0.600E-03
CGA:  29    -0.174269060508E+04   -0.38415E-04   -0.57228E-04   720   0.436E-03 0.456E-03
CGA:  30    -0.174269063860E+04   -0.33522E-04   -0.33564E-04   720   0.424E-03-0.948E-05
CGA:  31    -0.174269053600E+04    0.10260E-03   -0.73610E-04   720   0.814E-02-0.151E-02
CGA:  32    -0.174269066729E+04   -0.13129E-03   -0.17715E-03   720   0.961E-03 0.101E-02
CGA:  33    -0.174269071158E+04   -0.44291E-04   -0.49666E-04   720   0.475E-03 0.301E-03
CGA:  34    -0.174269074502E+04   -0.33440E-04   -0.29573E-04   720   0.310E-03-0.236E-03
CGA:  35    -0.174269074413E+04    0.88569E-06   -0.26579E-05   720   0.215E-03 0.775E-04
   5 F= -.17426907E+04 E0= -.17426642E+04  d E =-.298791E+00  mag=    46.0000
       N       E                     dE             d eps       ncg     rms          ort
SDA:   1    -0.173768014552E+04    0.50106E+01    0.00000E+00   720   0.203E+02 0.000E+00
CGA:   2    -0.173934689909E+04   -0.16668E+01   -0.16197E+01   720   0.287E+02 0.228E+01
CGA:   3    -0.174145749752E+04   -0.21106E+01   -0.21652E+01   720   0.110E+02-0.375E+01
CGA:   4    -0.174191297667E+04   -0.45548E+00   -0.43900E+00   720   0.484E+01-0.316E+00
CGA:   5    -0.174237385925E+04   -0.46088E+00   -0.46756E+00   720   0.667E+01-0.123E+00
CGA:   6    -0.174263634719E+04   -0.26249E+00   -0.26213E+00   720   0.131E+01-0.335E-01
CGA:   7    -0.174270147128E+04   -0.65124E-01   -0.65496E-01   720   0.920E+00-0.400E-02
CGA:   8    -0.174276795085E+04   -0.66480E-01   -0.66031E-01   720   0.656E+00 0.270E-01
CGA:   9    -0.174279773364E+04   -0.29783E-01   -0.29731E-01   720   0.177E+00-0.179E-01
CGA:  10    -0.174280653197E+04   -0.87983E-02   -0.88875E-02   720   0.140E+00 0.913E-02
CGA:  11    -0.174282036545E+04   -0.13833E-01   -0.13950E-01   720   0.133E+00-0.389E-02
CGA:  12    -0.174282601089E+04   -0.56454E-02   -0.57768E-02   720   0.501E-01 0.647E-02
CGA:  13    -0.174283118446E+04   -0.51736E-02   -0.53551E-02   720   0.845E-01-0.449E-02
CGA:  14    -0.174283573255E+04   -0.45481E-02   -0.45690E-02   720   0.407E-01 0.694E-02
CGA:  15    -0.174283867116E+04   -0.29386E-02   -0.29342E-02   720   0.304E-01 0.521E-03
CGA:  16    -0.174284266965E+04   -0.39985E-02   -0.38527E-02   720   0.324E-01 0.226E-02
CGA:  17    -0.174284448080E+04   -0.18111E-02   -0.17721E-02   720   0.194E-01-0.287E-02
CGA:  18    -0.174284615250E+04   -0.16717E-02   -0.16117E-02   720   0.150E-01 0.220E-02
CGA:  19    -0.174284722044E+04   -0.10679E-02   -0.10664E-02   720   0.910E-02-0.846E-03
CGA:  20    -0.174284767262E+04   -0.45218E-03   -0.47063E-03   720   0.568E-02 0.165E-02
CGA:  21    -0.174284836595E+04   -0.69333E-03   -0.76963E-03   720   0.845E-02-0.154E-02
CGA:  22    -0.174284864240E+04   -0.27645E-03   -0.29106E-03   720   0.311E-02 0.711E-03
CGA:  23    -0.174284874662E+04   -0.10422E-03   -0.12186E-03   720   0.129E-02 0.586E-03
CGA:  24    -0.174284886048E+04   -0.11386E-03   -0.11297E-03   720   0.246E-02 0.103E-03
CGA:  25    -0.174284903876E+04   -0.17828E-03   -0.17772E-03   720   0.185E-02 0.426E-03
CGA:  26    -0.174284911670E+04   -0.77937E-04   -0.80553E-04   720   0.839E-03 0.967E-04
CGA:  27    -0.174284916844E+04   -0.51745E-04   -0.10677E-03   720   0.329E-02-0.971E-03
CGA:  28    -0.174284923786E+04   -0.69415E-04   -0.94720E-04   720   0.440E-03 0.657E-03
CGA:  29    -0.174284925999E+04   -0.22128E-04   -0.23017E-04   720   0.254E-03 0.412E-04
CGA:  30    -0.174284930194E+04   -0.41949E-04   -0.41320E-04   720   0.480E-03 0.710E-05
CGA:  31    -0.174284932613E+04   -0.24190E-04   -0.23635E-04   720   0.149E-03-0.278E-04
CGA:  32    -0.174284934847E+04   -0.22338E-04    0.25334E-04   720   0.177E-03-0.485E-04
CGA:  33    -0.174284935283E+04   -0.43686E-05   -0.53955E-05   720   0.149E-03 0.463E-04
   6 F= -.17428494E+04 E0= -.17428232E+04  d E =-.158609E+00  mag=    46.0000
       N       E                     dE             d eps       ncg     rms          ort
SDA:   1    -0.172953382511E+04    0.13316E+02    0.00000E+00   720   0.428E+02 0.000E+00
CGA:   2    -0.173468522068E+04   -0.51514E+01   -0.53723E+01   720   0.912E+02 0.293E+00
CGA:   3    -0.173948197713E+04   -0.47968E+01   -0.46428E+01   720   0.228E+02-0.549E+01
CGA:   4    -0.174074768812E+04   -0.12657E+01   -0.12899E+01   720   0.134E+02 0.170E+01
CGA:   5    -0.174191915204E+04   -0.11715E+01   -0.11525E+01   720   0.102E+02 0.945E+00
CGA:   6    -0.174241415316E+04   -0.49500E+00   -0.46067E+00   720   0.370E+01 0.234E+00
CGA:   7    -0.174255720493E+04   -0.14305E+00   -0.14991E+00   720   0.226E+01-0.637E-01
CGA:   8    -0.174269571952E+04   -0.13851E+00   -0.13858E+00   720   0.157E+01 0.186E-01
CGA:   9    -0.174276992298E+04   -0.74203E-01   -0.73806E-01   720   0.494E+00-0.602E-02
CGA:  10    -0.174280153196E+04   -0.31609E-01   -0.31610E-01   720   0.442E+00-0.383E-02
CGA:  11    -0.174281968662E+04   -0.18155E-01   -0.18484E-01   720   0.291E+00 0.167E-01
CGA:  12    -0.174283975320E+04   -0.20067E-01   -0.20021E-01   720   0.175E+00 0.276E-02
CGA:  13    -0.174285107890E+04   -0.11326E-01   -0.11325E-01   720   0.188E+00-0.477E-02
CGA:  14    -0.174285854591E+04   -0.74670E-02   -0.77528E-02   720   0.863E-01 0.101E-01
CGA:  15    -0.174286484353E+04   -0.62976E-02   -0.62979E-02   720   0.101E+00 0.363E-03
CGA:  16    -0.174287260937E+04   -0.77658E-02   -0.78792E-02   720   0.117E+00-0.804E-02
CGA:  17    -0.174287693028E+04   -0.43209E-02   -0.44501E-02   720   0.465E-01 0.489E-02
CGA:  18    -0.174287967663E+04   -0.27463E-02   -0.27591E-02   720   0.431E-01 0.286E-02
CGA:  19    -0.174288301981E+04   -0.33432E-02   -0.34009E-02   720   0.593E-01-0.491E-02
CGA:  20    -0.174288596053E+04   -0.29407E-02   -0.29491E-02   720   0.316E-01 0.101E-02
CGA:  21    -0.174288718968E+04   -0.12292E-02   -0.12828E-02   720   0.162E-01 0.224E-02
CGA:  22    -0.174288817357E+04   -0.98389E-03   -0.97611E-03   720   0.141E-01-0.133E-02
CGA:  23    -0.174288882869E+04   -0.65512E-03   -0.65814E-03   720   0.124E-01 0.435E-03
CGA:  24    -0.174288950725E+04   -0.67856E-03   -0.69085E-03   720   0.121E-01 0.196E-02
CGA:  25    -0.174289017496E+04   -0.66771E-03   -0.66554E-03   720   0.427E-02-0.428E-03
CGA:  26    -0.174289045363E+04   -0.27867E-03   -0.30369E-03   720   0.810E-02-0.173E-02
CGA:  27    -0.174289067941E+04   -0.22578E-03   -0.23482E-03   720   0.808E-02 0.823E-03
CGA:  28    -0.174289086056E+04   -0.18115E-03   -0.22948E-03   720   0.216E-02 0.153E-02
CGA:  29    -0.174289096376E+04   -0.10320E-03   -0.10537E-03   720   0.202E-02 0.130E-03
CGA:  30    -0.174289112928E+04   -0.16552E-03   -0.18552E-03   720   0.464E-02-0.667E-03
CGA:  31    -0.174289120325E+04   -0.73971E-04   -0.84484E-04   720   0.406E-02 0.336E-03
SDA:  32    -0.174289127584E+04   -0.72593E-04   -0.96530E-04   720   0.178E-02 0.726E-03
CGA:  33    -0.174289136889E+04   -0.93047E-04   -0.91395E-04   720   0.106E-02-0.443E-03
CGA:  34    -0.174289140383E+04   -0.34943E-04   -0.36156E-04   720   0.396E-03 0.126E-03
CGA:  35    -0.174289143854E+04   -0.34708E-04   -0.40550E-04   720   0.940E-03-0.158E-03
CGA:  36    -0.174289145690E+04   -0.18358E-04   -0.19233E-04   720   0.854E-03 0.401E-04
CGA:  37    -0.174289146952E+04   -0.12620E-04   -0.19043E-04   720   0.360E-03 0.192E-03
CGA:  38    -0.174289147421E+04   -0.46870E-05   -0.93361E-05   720   0.197E-03 0.145E-03
   7 F= -.17428915E+04 E0= -.17428664E+04  d E =-.421214E-01  mag=    46.0000
       N       E                     dE             d eps       ncg     rms          ort
SDA:   1    -0.173942873421E+04    0.34627E+01    0.00000E+00   720   0.959E+01 0.000E+00
CGA:   2    -0.174171882948E+04   -0.22901E+01   -0.23044E+01   720   0.126E+02-0.138E+00
CGA:   3    -0.174222873552E+04   -0.50991E+00   -0.52926E+00   720   0.492E+01 0.139E+00
CGA:   4    -0.174256545535E+04   -0.33672E+00   -0.33092E+00   720   0.341E+01 0.477E+00
CGA:   5    -0.174280570790E+04   -0.24025E+00   -0.23964E+00   720   0.184E+01 0.632E-01
CGA:   6    -0.174288443987E+04   -0.78732E-01   -0.76877E-01   720   0.609E+00 0.131E-01
CGA:   7    -0.174291378076E+04   -0.29341E-01   -0.30119E-01   720   0.454E+00 0.216E-01
CGA:   8    -0.174294679041E+04   -0.33010E-01   -0.32872E-01   720   0.332E+00 0.480E-02
CGA:   9    -0.174295779395E+04   -0.11004E-01   -0.11199E-01   720   0.886E-01 0.135E-01
CGA:  10    -0.174296249359E+04   -0.46996E-02   -0.47141E-02   720   0.704E-01 0.245E-02
CGA:  11    -0.174296752022E+04   -0.50266E-02   -0.51341E-02   720   0.906E-01-0.834E-02
CGA:  12    -0.174297115781E+04   -0.36376E-02   -0.36406E-02   720   0.389E-01 0.141E-02
CGA:  13    -0.174297246795E+04   -0.13101E-02   -0.13879E-02   720   0.184E-01 0.357E-02
CGA:  14    -0.174297348986E+04   -0.10219E-02   -0.10148E-02   720   0.178E-01-0.127E-02
CGA:  15    -0.174297495427E+04   -0.14644E-02   -0.15592E-02   720   0.330E-01-0.248E-02
CGA:  16    -0.174297582031E+04   -0.86604E-03   -0.90996E-03   720   0.129E-01 0.172E-02
CGA:  17    -0.174297625820E+04   -0.43789E-03   -0.45254E-03   720   0.848E-02 0.513E-03
CGA:  18    -0.174297682230E+04   -0.56410E-03   -0.59426E-03   720   0.133E-01-0.265E-02
CGA:  19    -0.174297721950E+04   -0.39720E-03   -0.38779E-03   720   0.109E-01-0.843E-03
CGA:  20    -0.174297745999E+04   -0.24049E-03   -0.28460E-03   720   0.712E-02 0.160E-02
CGA:  21    -0.174297775823E+04   -0.29824E-03   -0.32377E-03   720   0.699E-02 0.192E-02
CGA:  22    -0.174297809367E+04   -0.33544E-03   -0.32289E-03   720   0.296E-02-0.216E-03
CGA:  23    -0.174297823804E+04   -0.14438E-03   -0.13954E-03   720   0.372E-02-0.128E-02
CGA:  24    -0.174297830563E+04   -0.67583E-04   -0.69624E-04   720   0.421E-02 0.100E-03
CGA:  25    -0.174297840576E+04   -0.10013E-03   -0.12264E-03   720   0.293E-02 0.968E-03
CGA:  26    -0.174297853278E+04   -0.12702E-03   -0.13259E-03   720   0.189E-02 0.408E-03
CGA:  27    -0.174297862936E+04   -0.96578E-04   -0.90505E-04   720   0.140E-02-0.831E-03
CGA:  28    -0.174297866152E+04   -0.32163E-04   -0.32069E-04   720   0.161E-02-0.139E-04
CGA:  29    -0.174297870513E+04   -0.43612E-04   -0.51094E-04   720   0.106E-02 0.450E-03
CGA:  30    -0.174297875939E+04   -0.54264E-04   -0.55169E-04   720   0.767E-03 0.123E-03
CGA:  31    -0.174297880844E+04   -0.49050E-04   -0.54414E-04   720   0.110E-02-0.330E-03
SDA:  32    -0.174297881212E+04   -0.36767E-05   -0.10563E-04   720   0.905E-03 0.219E-03
CGA:  33    -0.174297882508E+04   -0.12962E-04   -0.21032E-04   720   0.257E-03 0.342E-03
CGA:  34    -0.174297884129E+04   -0.16206E-04   -0.16198E-04   720   0.215E-03 0.491E-04
CGA:  35    -0.174297887125E+04   -0.29958E-04    0.20743E-04   720   0.184E-03 0.742E-05
CGA:  36    -0.174297888863E+04   -0.17385E-04    0.86577E-03   720   0.203E-03 0.664E-04
CGA:  37    -0.174297889338E+04   -0.47434E-05   -0.74529E-05   720   0.120E-03 0.146E-03
   8 F= -.17429789E+04 E0= -.17429537E+04  d E =-.874192E-01  mag=    46.0000
       N       E                     dE             d eps       ncg     rms          ort
SDA:   1    -0.174205905558E+04    0.91983E+00    0.00000E+00   720   0.305E+01 0.000E+00
CGA:   2    -0.174266813430E+04   -0.60908E+00   -0.62033E+00   720   0.336E+01-0.714E-01
CGA:   3    -0.174279837976E+04   -0.13025E+00   -0.13080E+00   720   0.114E+01 0.318E-01
CGA:   4    -0.174289895220E+04   -0.10057E+00   -0.10015E+00   720   0.124E+01 0.102E-01
CGA:   5    -0.174297651586E+04   -0.77564E-01   -0.76442E-01   720   0.505E+00 0.887E-01
CGA:   6    -0.174299604810E+04   -0.19532E-01   -0.19492E-01   720   0.152E+00 0.120E-01
CGA:   7    -0.174300923711E+04   -0.13189E-01   -0.13086E-01   720   0.132E+00 0.369E-02
CGA:   8    -0.174301802064E+04   -0.87835E-02   -0.87777E-02   720   0.634E-01-0.132E-03
CGA:   9    -0.174302037924E+04   -0.23586E-02   -0.23913E-02   720   0.165E-01 0.184E-02
CGA:  10    -0.174302222266E+04   -0.18434E-02   -0.19339E-02   720   0.346E-01-0.151E-02
CGA:  11    -0.174302425545E+04   -0.20328E-02   -0.20350E-02   720   0.135E-01-0.317E-03
CGA:  12    -0.174302473158E+04   -0.47613E-03   -0.48642E-03   720   0.571E-02 0.553E-03
CGA:  13    -0.174302547003E+04   -0.73845E-03   -0.72195E-03   720   0.117E-01 0.262E-03
CGA:  14    -0.174302607291E+04   -0.60287E-03   -0.60669E-03   720   0.613E-02 0.340E-03
CGA:  15    -0.174302654186E+04   -0.46896E-03   -0.46765E-03   720   0.604E-02 0.103E-03
CGA:  16    -0.174302688408E+04   -0.34221E-03   -0.34209E-03   720   0.366E-02-0.694E-04
CGA:  17    -0.174302710677E+04   -0.22269E-03   -0.22292E-03   720   0.303E-02-0.123E-03
CGA:  18    -0.174302739703E+04   -0.29027E-03   -0.31746E-03   720   0.523E-02-0.564E-03
CGA:  19    -0.174302756910E+04   -0.17207E-03   -0.17807E-03   720   0.191E-02 0.306E-03
CGA:  20    -0.174302762476E+04   -0.55660E-04   -0.63563E-04   720   0.764E-03 0.269E-03
CGA:  21    -0.174302767782E+04   -0.53053E-04   -0.53089E-04   720   0.104E-02-0.272E-04
CGA:  22    -0.174302776149E+04   -0.83671E-04   -0.10458E-03   720   0.211E-02-0.471E-03
CGA:  23    -0.174302779273E+04   -0.31245E-04   -0.25972E-04   720   0.123E-02-0.138E-03
CGA:  24    -0.174302781806E+04   -0.25332E-04   -0.24186E-04   720   0.602E-03-0.349E-04
CGA:  25    -0.174302783770E+04   -0.19634E-04   -0.19100E-04   720   0.650E-03-0.191E-04
CGA:  26    -0.174302785939E+04   -0.21688E-04   -0.21250E-04   720   0.614E-03-0.138E-04
CGA:  27    -0.174302787452E+04   -0.15130E-04   -0.16099E-04   720   0.477E-03 0.343E-04
CGA:  28    -0.174302788670E+04   -0.12189E-04   -0.13796E-04   720   0.378E-03 0.590E-04
CGA:  29    -0.174302789911E+04   -0.12407E-04   -0.12710E-04   720   0.292E-03 0.116E-04
CGA:  30    -0.174302791463E+04   -0.15516E-04   -0.15505E-04   720   0.546E-03-0.125E-03
CGA:  31    -0.174302792430E+04   -0.96770E-05   -0.75967E-05   720   0.598E-03-0.775E-04
   9 F= -.17430279E+04 E0= -.17430027E+04  d E =-.490309E-01  mag=    46.0000
       N       E                     dE             d eps       ncg     rms          ort
SDA:   1    -0.174151499253E+04    0.15129E+01    0.00000E+00   720   0.521E+01 0.000E+00
CGA:   2    -0.174214136479E+04   -0.62637E+00   -0.58507E+00   720   0.754E+01 0.665E+00
CGA:   3    -0.174261368680E+04   -0.47232E+00   -0.47438E+00   720   0.367E+01-0.275E+00
CGA:   4    -0.174280887225E+04   -0.19519E+00   -0.19490E+00   720   0.157E+01 0.329E-01
CGA:   5    -0.174291587004E+04   -0.10700E+00   -0.10757E+00   720   0.136E+01-0.238E-01
CGA:   6    -0.174300284500E+04   -0.86975E-01   -0.86222E-01   720   0.439E+00 0.473E-01
CGA:   7    -0.174302356845E+04   -0.20723E-01   -0.20773E-01   720   0.155E+00 0.560E-02
CGA:   8    -0.174303557649E+04   -0.12008E-01   -0.11787E-01   720   0.142E+00 0.105E-01
CGA:   9    -0.174304396330E+04   -0.83868E-02   -0.83873E-02   720   0.533E-01-0.209E-02
CGA:  10    -0.174304661980E+04   -0.26565E-02   -0.26612E-02   720   0.215E-01 0.179E-02
CGA:  11    -0.174304864394E+04   -0.20241E-02   -0.20412E-02   720   0.240E-01-0.480E-03
CGA:  12    -0.174305029617E+04   -0.16522E-02   -0.16523E-02   720   0.117E-01-0.321E-04
CGA:  13    -0.174305111419E+04   -0.81801E-03   -0.83659E-03   720   0.959E-02-0.129E-02
CGA:  14    -0.174305184329E+04   -0.72910E-03   -0.72464E-03   720   0.823E-02 0.158E-03
CGA:  15    -0.174305233673E+04   -0.49344E-03   -0.49344E-03   720   0.532E-02-0.243E-04
CGA:  16    -0.174305288422E+04   -0.54749E-03   -0.54825E-03   720   0.564E-02-0.218E-04
CGA:  17    -0.174305331673E+04   -0.43252E-03   -0.42722E-03   720   0.265E-02 0.359E-03
CGA:  18    -0.174305353533E+04   -0.21860E-03   -0.25927E-03   720   0.710E-02-0.136E-02
CGA:  19    -0.174305364461E+04   -0.10928E-03   -0.15615E-03   720   0.877E-03 0.114E-02
CGA:  20    -0.174305369574E+04   -0.51134E-04   -0.53643E-04   720   0.106E-02 0.294E-03
CGA:  21    -0.174305380431E+04   -0.10856E-03   -0.21523E-03   720   0.571E-02-0.117E-02
CGA:  22    -0.174305391338E+04   -0.10907E-03   -0.14441E-03   720   0.783E-03 0.940E-03
CGA:  23    -0.174305396534E+04   -0.51961E-04   -0.50662E-04   720   0.455E-03-0.168E-03
CGA:  24    -0.174305401574E+04   -0.50400E-04    0.95102E-04   720   0.507E-03 0.734E-04
CGA:  25    -0.174305404070E+04   -0.24954E-04   -0.27572E-04   720   0.228E-03 0.162E-03
CGA:  26    -0.174305405595E+04   -0.15249E-04   -0.16425E-04   720   0.244E-03 0.154E-03
CGA:  27    -0.174305408959E+04   -0.33647E-04    0.64705E-04   720   0.284E-03-0.129E-04
CGA:  28    -0.174305409834E+04   -0.87494E-05   -0.11448E-04   720   0.182E-03 0.141E-03
  10 F= -.17430541E+04 E0= -.17430289E+04  d E =-.261740E-01  mag=    46.0000
       N       E                     dE             d eps       ncg     rms          ort
SDA:   1    -0.173669601908E+04    0.63581E+01    0.00000E+00   720   0.180E+02 0.000E+00
CGA:   2    -0.173924744575E+04   -0.25514E+01   -0.26536E+01   720   0.521E+02-0.478E+00
CGA:   3    -0.174159667068E+04   -0.23492E+01   -0.23211E+01   720   0.845E+01-0.134E+01
CGA:   4    -0.174211509806E+04   -0.51843E+00   -0.51883E+00   720   0.125E+02-0.115E+01
CGA:   5    -0.174268704951E+04   -0.57195E+00   -0.57645E+00   720   0.549E+01 0.165E+00
CGA:   6    -0.174285827938E+04   -0.17123E+00   -0.18115E+00   720   0.123E+01-0.195E+00
CGA:   7    -0.174292934712E+04   -0.71068E-01   -0.70926E-01   720   0.116E+01-0.475E-01
CGA:   8    -0.174298897074E+04   -0.59624E-01   -0.59844E-01   720   0.636E+00 0.188E-01
CGA:   9    -0.174302059419E+04   -0.31623E-01   -0.32314E-01   720   0.268E+00 0.162E-01
CGA:  10    -0.174303074415E+04   -0.10150E-01   -0.96660E-02   720   0.108E+00 0.783E-02
CGA:  11    -0.174304324376E+04   -0.12500E-01   -0.12353E-01   720   0.118E+00 0.260E-02
CGA:  12    -0.174304861998E+04   -0.53762E-02   -0.53439E-02   720   0.425E-01-0.376E-02
CGA:  13    -0.174305107315E+04   -0.24532E-02   -0.24544E-02   720   0.379E-01 0.172E-02
CGA:  14    -0.174305428306E+04   -0.32099E-02   -0.33052E-02   720   0.332E-01-0.389E-02
CGA:  15    -0.174305554308E+04   -0.12600E-02   -0.12530E-02   720   0.125E-01-0.591E-03
CGA:  16    -0.174305659303E+04   -0.10499E-02   -0.10205E-02   720   0.170E-01 0.132E-02
CGA:  17    -0.174305787129E+04   -0.12783E-02   -0.12883E-02   720   0.177E-01-0.153E-02
CGA:  18    -0.174305880833E+04   -0.93704E-03   -0.93597E-03   720   0.558E-02-0.371E-03
CGA:  19    -0.174305914824E+04   -0.33991E-03   -0.33974E-03   720   0.602E-02 0.495E-03
CGA:  20    -0.174305975069E+04   -0.60245E-03   -0.61650E-03   720   0.817E-02-0.424E-03
CGA:  21    -0.174306006037E+04   -0.30968E-03   -0.32344E-03   720   0.246E-02 0.678E-03
CGA:  22    -0.174306019392E+04   -0.13355E-03   -0.13555E-03   720   0.231E-02 0.168E-03
CGA:  23    -0.174306040855E+04   -0.21463E-03   -0.25679E-03   720   0.543E-02-0.990E-03
CGA:  24    -0.174306051046E+04   -0.10191E-03   -0.98950E-04   720   0.372E-02-0.117E-03
CGA:  25    -0.174306057562E+04   -0.65162E-04   -0.76937E-04   720   0.132E-02 0.250E-03
CGA:  26    -0.174306061449E+04   -0.38869E-04   -0.44302E-04   720   0.128E-02 0.187E-03
CGA:  27    -0.174306068283E+04   -0.68339E-04   -0.68928E-04   720   0.166E-02 0.665E-04
CGA:  28    -0.174306073952E+04   -0.56693E-04   -0.58870E-04   720   0.130E-02 0.120E-03
CGA:  29    -0.174306076747E+04   -0.27952E-04   -0.34306E-04   720   0.726E-03 0.199E-03
CGA:  30    -0.174306078624E+04   -0.18767E-04   -0.22403E-04   720   0.558E-03 0.127E-03
CGA:  31    -0.174306081744E+04   -0.31198E-04   -0.30731E-04   720   0.893E-03-0.647E-04
SDA:  32    -0.174306085204E+04   -0.34603E-04   -0.31988E-04   720   0.115E-02-0.200E-03
CGA:  33    -0.174306088310E+04   -0.31064E-04   -0.35753E-04   720   0.151E-03 0.216E-03
CGA:  34    -0.174306089431E+04   -0.11209E-04   -0.11695E-04   720   0.135E-03-0.359E-04
CGA:  35    -0.174306086453E+04    0.29786E-04   -0.18055E-04   720   0.158E-02-0.220E-03
CGA:  36    -0.174306091724E+04   -0.52716E-04   -0.54175E-04   720   0.229E-03 0.387E-04
CGA:  37    -0.174306092130E+04   -0.40605E-05   -0.77933E-05   720   0.644E-04 0.630E-04
  11 F= -.17430609E+04 E0= -.17430361E+04  d E =-.682296E-02  mag=    46.0000
       N       E                     dE             d eps       ncg     rms          ort
SDA:   1    -0.173444061992E+04    0.86203E+01    0.00000E+00   720   0.242E+02 0.000E+00
CGA:   2    -0.173805765170E+04   -0.36170E+01   -0.36315E+01   720   0.550E+02 0.149E+01
CGA:   3    -0.174105377855E+04   -0.29961E+01   -0.30595E+01   720   0.158E+02-0.809E+01
CGA:   4    -0.174194375117E+04   -0.88997E+00   -0.81520E+00   720   0.891E+01-0.278E+00
CGA:   5    -0.174264737452E+04   -0.70362E+00   -0.70316E+00   720   0.499E+01-0.741E-01
CGA:   6    -0.174285140995E+04   -0.20404E+00   -0.19958E+00   720   0.156E+01 0.547E-01
CGA:   7    -0.174293947945E+04   -0.88070E-01   -0.90112E-01   720   0.106E+01-0.191E-01
CGA:   8    -0.174300763368E+04   -0.68154E-01   -0.67976E-01   720   0.596E+00 0.114E-01
CGA:   9    -0.174303931220E+04   -0.31679E-01   -0.32360E-01   720   0.228E+00-0.125E-01
CGA:  10    -0.174305108838E+04   -0.11776E-01   -0.12044E-01   720   0.140E+00 0.786E-02
CGA:  11    -0.174306450536E+04   -0.13417E-01   -0.13472E-01   720   0.142E+00-0.591E-02
CGA:  12    -0.174307015398E+04   -0.56486E-02   -0.59025E-02   720   0.328E-01 0.459E-02
CGA:  13    -0.174307369261E+04   -0.35386E-02   -0.36104E-02   720   0.593E-01-0.279E-02
CGA:  14    -0.174307678191E+04   -0.30893E-02   -0.31300E-02   720   0.289E-01 0.185E-02
CGA:  15    -0.174307884132E+04   -0.20594E-02   -0.20467E-02   720   0.151E-01-0.115E-02
CGA:  16    -0.174308021977E+04   -0.13785E-02   -0.13969E-02   720   0.252E-01-0.106E-02
CGA:  17    -0.174308164170E+04   -0.14219E-02   -0.14722E-02   720   0.127E-01 0.268E-02
CGA:  18    -0.174308257400E+04   -0.93230E-03   -0.90858E-03   720   0.907E-02-0.193E-02
CGA:  19    -0.174308317367E+04   -0.59967E-03   -0.59961E-03   720   0.102E-01-0.417E-03
CGA:  20    -0.174308367774E+04   -0.50408E-03   -0.53433E-03   720   0.384E-02 0.127E-02
CGA:  21    -0.174308395793E+04   -0.28019E-03   -0.27388E-03   720   0.382E-02-0.481E-03
CGA:  22    -0.174308427300E+04   -0.31507E-03   -0.31197E-03   720   0.439E-02 0.176E-03
CGA:  23    -0.174308447574E+04   -0.20274E-03   -0.20700E-03   720   0.124E-02 0.146E-03
CGA:  24    -0.174308459205E+04   -0.11631E-03   -0.15547E-03   720   0.512E-02-0.859E-03
CGA:  25    -0.174308468561E+04   -0.93561E-04   -0.12799E-03   720   0.523E-03 0.675E-03
CGA:  26    -0.174308471825E+04   -0.32640E-04   -0.35299E-04   720   0.599E-03 0.173E-03
CGA:  27    -0.174308480786E+04   -0.89614E-04   -0.95332E-04   720   0.152E-02-0.127E-03
CGA:  28    -0.174308484798E+04   -0.40114E-04   -0.45731E-04   720   0.105E-02 0.147E-03
CGA:  29    -0.174308487158E+04   -0.23603E-04   -0.29277E-04   720   0.379E-03 0.111E-03
CGA:  30    -0.174308490141E+04   -0.29825E-04   -0.29464E-04   720   0.758E-03-0.199E-03
CGA:  31    -0.174308493576E+04   -0.34355E-04   -0.34156E-04   720   0.310E-03-0.701E-05
CGA:  32    -0.174308494858E+04   -0.12818E-04   -0.15282E-04   720   0.147E-03 0.118E-03
CGA:  33    -0.174308497519E+04   -0.26616E-04   -0.27944E-04   720   0.397E-03-0.196E-04
CGA:  34    -0.174308499460E+04   -0.19403E-04   -0.16004E-04   720   0.177E-03-0.129E-03
CGA:  35    -0.174308499800E+04   -0.34071E-05   -0.38109E-05   720   0.133E-03 0.999E-05
  12 F= -.17430850E+04 E0= -.17430610E+04  d E =-.240767E-01  mag=    46.0000
       N       E                     dE             d eps       ncg     rms          ort
SDA:   1    -0.174060011012E+04    0.24849E+01    0.00000E+00   720   0.782E+01 0.000E+00
CGA:   2    -0.174153744543E+04   -0.93734E+00   -0.86617E+00   720   0.109E+02 0.144E+01
CGA:   3    -0.174242900734E+04   -0.89156E+00   -0.88911E+00   720   0.635E+01-0.155E+01
CGA:   4    -0.174274994286E+04   -0.32094E+00   -0.32411E+00   720   0.227E+01 0.676E-01
CGA:   5    -0.174291008975E+04   -0.16015E+00   -0.16023E+00   720   0.184E+01-0.673E-01
CGA:   6    -0.174302452361E+04   -0.11443E+00   -0.11441E+00   720   0.519E+00-0.869E-02
CGA:   7    -0.174305079342E+04   -0.26270E-01   -0.26305E-01   720   0.266E+00-0.707E-02
CGA:   8    -0.174307222745E+04   -0.21434E-01   -0.21370E-01   720   0.222E+00 0.274E-02
CGA:   9    -0.174308351239E+04   -0.11285E-01   -0.11141E-01   720   0.478E-01-0.467E-02
CGA:  10    -0.174308696588E+04   -0.34535E-02   -0.34391E-02   720   0.408E-01 0.234E-02
CGA:  11    -0.174309061036E+04   -0.36445E-02   -0.36719E-02   720   0.312E-01-0.157E-02
CGA:  12    -0.174309203909E+04   -0.14287E-02   -0.14753E-02   720   0.850E-02 0.235E-02
CGA:  13    -0.174309291006E+04   -0.87097E-03   -0.86763E-03   720   0.151E-01 0.105E-03
CGA:  14    -0.174309387306E+04   -0.96300E-03   -0.97618E-03   720   0.445E-02 0.245E-02
CGA:  15    -0.174309420282E+04   -0.32976E-03   -0.32813E-03   720   0.497E-02-0.298E-03
CGA:  16    -0.174309479898E+04   -0.59616E-03   -0.64357E-03   720   0.766E-02-0.680E-03
CGA:  17    -0.174309496428E+04   -0.16530E-03   -0.21221E-03   720   0.195E-02 0.114E-02
CGA:  18    -0.174309503873E+04   -0.74450E-04   -0.87208E-04   720   0.162E-02 0.407E-03
CGA:  19    -0.174309525060E+04   -0.21186E-03   -0.30042E-03   720   0.767E-02-0.105E-02
CGA:  20    -0.174309547209E+04   -0.22149E-03   -0.23724E-03   720   0.818E-03 0.307E-03
CGA:  21    -0.174309546683E+04    0.52546E-05   -0.12219E-03   720   0.739E-02-0.175E-02
CGA:  22    -0.174309558705E+04   -0.12021E-03   -0.17797E-03   720   0.786E-03 0.121E-02
CGA:  23    -0.174309560443E+04   -0.17389E-04   -0.27377E-04   720   0.225E-03 0.245E-03
CGA:  24    -0.174309562667E+04   -0.22235E-04   -0.24080E-04   720   0.783E-03-0.158E-03
CGA:  25    -0.174309564345E+04   -0.16780E-04   -0.22710E-04   720   0.199E-03 0.142E-03
CGA:  26    -0.174309567760E+04   -0.34153E-04    0.12654E-03   720   0.239E-03 0.333E-04
CGA:  27    -0.174309572294E+04   -0.45342E-04    0.51047E-04   720   0.358E-03 0.176E-03
CGA:  28    -0.174309572352E+04   -0.57943E-06   -0.84581E-05   720   0.137E-03 0.176E-03
  13 F= -.17430957E+04 E0= -.17430712E+04  d E =-.107255E-01  mag=    46.0000
       N       E                     dE             d eps       ncg     rms          ort
SDA:   1    -0.174260142006E+04    0.49430E+00    0.00000E+00   720   0.207E+01 0.000E+00
CGA:   2    -0.174270761791E+04   -0.10620E+00   -0.10593E+00   720   0.232E+01 0.972E-02
CGA:   3    -0.174301079970E+04   -0.30318E+00   -0.30323E+00   720   0.767E+00-0.184E-02
CGA:   4    -0.174305154302E+04   -0.40743E-01   -0.41482E-01   720   0.485E+00 0.425E-02
CGA:   5    -0.174309067719E+04   -0.39134E-01   -0.39114E-01   720   0.397E+00 0.288E-02
CGA:   6    -0.174310911376E+04   -0.18437E-01   -0.18327E-01   720   0.705E-01-0.482E-02
CGA:   7    -0.174311359284E+04   -0.44791E-02   -0.44838E-02   720   0.539E-01 0.309E-02
CGA:   8    -0.174311889495E+04   -0.53021E-02   -0.53908E-02   720   0.383E-01-0.307E-02
CGA:   9    -0.174312009729E+04   -0.12023E-02   -0.12740E-02   720   0.693E-02 0.191E-02
CGA:  10    -0.174312075206E+04   -0.65477E-03   -0.64081E-03   720   0.101E-01 0.615E-03
CGA:  11    -0.174312165320E+04   -0.90113E-03   -0.91549E-03   720   0.714E-02-0.887E-03
CGA:  12    -0.174312191812E+04   -0.26492E-03   -0.26472E-03   720   0.158E-02 0.348E-05
CGA:  13    -0.174312053197E+04    0.13861E-02   -0.76603E-03   720   0.776E-01-0.558E-02
CGA:  14    -0.174312232496E+04   -0.17930E-02   -0.17345E-02   720   0.408E-02 0.102E-01
CGA:  15    -0.174312245254E+04   -0.12758E-03   -0.15896E-03   720   0.138E-02 0.415E-03
CGA:  16    -0.174312252709E+04   -0.74548E-04   -0.74926E-04   720   0.994E-03 0.226E-05
CGA:  17    -0.174312259162E+04   -0.64527E-04   -0.68986E-04   720   0.890E-03 0.115E-03
CGA:  18    -0.174312262467E+04   -0.33056E-04   -0.40313E-04   720   0.326E-03 0.108E-03
CGA:  19    -0.174312265658E+04   -0.31905E-04   -0.29820E-04   720   0.577E-03-0.965E-04
CGA:  20    -0.174312267174E+04   -0.15162E-04   -0.16156E-04   720   0.435E-03 0.150E-04
CGA:  21    -0.174312267931E+04   -0.75713E-05   -0.12283E-04   720   0.215E-03 0.659E-04
  14 F= -.17431227E+04 E0= -.17430984E+04  d E =-.269558E-01  mag=    46.0000
       N       E                     dE             d eps       ncg     rms          ort
SDA:   1    -0.174292712503E+04    0.19555E+00    0.00000E+00   720   0.604E+00 0.000E+00
CGA:   2    -0.174298426111E+04   -0.57136E-01   -0.57129E-01   720   0.132E+01 0.550E-02
CGA:   3    -0.174308532881E+04   -0.10107E+00   -0.10104E+00   720   0.369E+00-0.107E-01
CGA:   4    -0.174310315461E+04   -0.17826E-01   -0.17214E-01   720   0.139E+00 0.643E-02
CGA:   5    -0.174311956254E+04   -0.16408E-01   -0.16365E-01   720   0.104E+00 0.172E-02
CGA:   6    -0.174312401508E+04   -0.44525E-02   -0.43357E-02   720   0.270E-01 0.346E-03
CGA:   7    -0.174312559647E+04   -0.15814E-02   -0.16261E-02   720   0.144E-01 0.150E-02
CGA:   8    -0.174312699693E+04   -0.14005E-02   -0.14002E-02   720   0.930E-02 0.646E-04
CGA:   9    -0.174312745147E+04   -0.45455E-03   -0.46632E-03   720   0.262E-02 0.318E-03
CGA:  10    -0.174312771083E+04   -0.25936E-03   -0.26216E-03   720   0.352E-02-0.253E-03
CGA:  11    -0.174312790712E+04   -0.19628E-03   -0.19744E-03   720   0.112E-02 0.517E-04
CGA:  12    -0.174312796445E+04   -0.57329E-04   -0.59559E-04   720   0.729E-03 0.679E-04
CGA:  13    -0.174312793106E+04    0.33384E-04   -0.19998E-03   720   0.686E-02-0.133E-02
CGA:  14    -0.174312809438E+04   -0.16332E-03   -0.20490E-03   720   0.848E-03 0.572E-03
CGA:  15    -0.174312815304E+04   -0.58658E-04   -0.56943E-04   720   0.548E-03-0.614E-04
CGA:  16    -0.174312817608E+04   -0.23041E-04   -0.26990E-04   720   0.233E-03 0.116E-03
CGA:  17    -0.174312818746E+04   -0.11376E-04   -0.13128E-04   720   0.104E-03 0.440E-04
CGA:  18    -0.174312818909E+04   -0.16319E-05   -0.33533E-04   720   0.126E-02-0.171E-03
CGA:  19    -0.174312820598E+04   -0.16898E-04   -0.31767E-04   720   0.141E-03 0.214E-03
CGA:  20    -0.174312821385E+04   -0.78669E-05   -0.75108E-05   720   0.613E-04-0.817E-05
  15 F= -.17431282E+04 E0= -.17431041E+04  d E =-.553454E-02  mag=    46.0000
       N       E                     dE             d eps       ncg     rms          ort
SDA:   1    -0.172599044175E+04    0.17138E+02    0.00000E+00   720   0.435E+02 0.000E+00
CGA:   2    -0.173476631446E+04   -0.87759E+01   -0.98844E+01   720   0.157E+03-0.364E+01
CGA:   3    -0.173956874560E+04   -0.48024E+01   -0.58259E+01   720   0.238E+02-0.240E+02
CGA:   4    -0.174114557012E+04   -0.15768E+01   -0.16069E+01   720   0.194E+02 0.812E+00
CGA:   5    -0.174207744845E+04   -0.93188E+00   -0.80614E+00   720   0.106E+02 0.126E+01
CGA:   6    -0.174259994043E+04   -0.52249E+00   -0.45003E+00   720   0.312E+01 0.108E+01
CGA:   7    -0.174279465553E+04   -0.19472E+00   -0.19664E+00   720   0.251E+01 0.117E-01
CGA:   8    -0.174297689678E+04   -0.18224E+00   -0.17625E+00   720   0.113E+01-0.109E+00
CGA:   9    -0.174302835738E+04   -0.51461E-01   -0.53416E-01   720   0.633E+00-0.237E-01
CGA:  10    -0.174305724966E+04   -0.28892E-01   -0.29290E-01   720   0.412E+00 0.169E-01
CGA:  11    -0.174308729905E+04   -0.30049E-01   -0.30108E-01   720   0.341E+00-0.780E-05
CGA:  12    -0.174310388637E+04   -0.16587E-01   -0.16614E-01   720   0.119E+00-0.725E-02
CGA:  13    -0.174310992647E+04   -0.60401E-02   -0.61917E-02   720   0.962E-01 0.566E-02
CGA:  14    -0.174311777754E+04   -0.78511E-02   -0.78534E-02   720   0.892E-01-0.365E-02
CGA:  15    -0.174312221212E+04   -0.44346E-02   -0.43930E-02   720   0.363E-01-0.682E-04
CGA:  16    -0.174312439491E+04   -0.21828E-02   -0.21866E-02   720   0.282E-01-0.334E-03
CGA:  17    -0.174312717023E+04   -0.27753E-02   -0.28381E-02   720   0.389E-01-0.267E-02
CGA:  18    -0.174312871434E+04   -0.15441E-02   -0.16478E-02   720   0.113E-01 0.283E-02
CGA:  19    -0.174312948019E+04   -0.76586E-03   -0.76292E-03   720   0.129E-01-0.243E-03
CGA:  20    -0.174313060669E+04   -0.11265E-02   -0.11685E-02   720   0.172E-01-0.241E-02
CGA:  21    -0.174313133055E+04   -0.72386E-03   -0.74918E-03   720   0.660E-02 0.112E-02
CGA:  22    -0.174313155428E+04   -0.22373E-03   -0.24653E-03   720   0.301E-02 0.627E-03
CGA:  23    -0.174313187222E+04   -0.31794E-03   -0.32634E-03   720   0.648E-02-0.314E-03
CGA:  24    -0.174313230940E+04   -0.43719E-03   -0.43818E-03   720   0.781E-02-0.528E-03
CGA:  25    -0.174313256862E+04   -0.25921E-03   -0.25640E-03   720   0.253E-02-0.122E-03
CGA:  26    -0.174313265605E+04   -0.87434E-04   -0.89311E-04   720   0.156E-02 0.399E-04
CGA:  27    -0.174313276253E+04   -0.10647E-03   -0.10674E-03   720   0.274E-02 0.111E-03
CGA:  28    -0.174313298139E+04   -0.21887E-03   -0.21862E-03   720   0.324E-02 0.545E-04
CGA:  29    -0.174313312957E+04   -0.14818E-03   -0.14236E-03   720   0.127E-02-0.228E-03
CGA:  30    -0.174313318014E+04   -0.50565E-04   -0.47458E-04   720   0.756E-03-0.113E-03
CGA:  31    -0.174313323800E+04   -0.57857E-04   -0.56931E-04   720   0.118E-02 0.595E-04
SDA:  32    -0.174313329897E+04   -0.60968E-04   -0.62408E-04   720   0.527E-03 0.731E-04
CGA:  33    -0.174313334950E+04   -0.50534E-04   -0.57313E-04   720   0.862E-03-0.163E-03
CGA:  34    -0.174313337496E+04   -0.25466E-04   -0.26172E-04   720   0.440E-03 0.279E-04
CGA:  35    -0.174313338743E+04   -0.12467E-04   -0.16231E-04   720   0.242E-03 0.117E-03
CGA:  36    -0.174313339743E+04   -0.99946E-05   -0.11932E-04   720   0.141E-03 0.705E-04
CGA:  37    -0.174313341234E+04   -0.14915E-04   -0.19625E-04   720   0.428E-03-0.111E-03
CGA:  38    -0.174313342592E+04   -0.13581E-04   -0.13903E-04   720   0.612E-04 0.817E-05
CGA:  39    -0.174313343044E+04   -0.45203E-05   -0.45755E-05   720   0.450E-04-0.696E-05
  16 F= -.17431334E+04 E0= -.17431101E+04  d E =-.521659E-02  mag=    46.0000
       N       E                     dE             d eps       ncg     rms          ort
SDA:   1    -0.171822516532E+04    0.24908E+02    0.00000E+00   720   0.799E+02 0.000E+00
CGA:   2    -0.172512742338E+04   -0.69023E+01   -0.63688E+01   720   0.630E+02 0.233E+02
CGA:   3    -0.173317186169E+04   -0.80444E+01   -0.83957E+01   720   0.977E+02 0.130E+01
CGA:   4    -0.173630446192E+04   -0.31326E+01   -0.24167E+01   720   0.695E+02-0.563E+01
CGA:   5    -0.173746752075E+04   -0.11631E+01   -0.20800E+01   720   0.506E+02-0.197E+02
CGA:   6    -0.173821579497E+04   -0.74827E+00   -0.10163E+01   720   0.434E+02-0.452E+01
CGA:   7    -0.173920704268E+04   -0.99125E+00   -0.84729E+00   720   0.222E+02-0.433E+01
CGA:   8    -0.173945985399E+04   -0.25281E+00   -0.34536E+00   720   0.202E+02-0.543E+01
CGA:   9    -0.173969684900E+04   -0.23700E+00   -0.21695E+00   720   0.178E+02 0.774E+00
CGA:  10    -0.173994429779E+04   -0.24745E+00   -0.31903E+00   720   0.155E+02-0.436E+01
CGA:  11    -0.174007910131E+04   -0.13480E+00   -0.17316E+00   720   0.134E+02-0.235E+01
CGA:  12    -0.174025875696E+04   -0.17966E+00   -0.23522E+00   720   0.116E+02-0.159E+01
CGA:  13    -0.174040899534E+04   -0.15024E+00   -0.16379E+00   720   0.663E+01-0.901E+00
CGA:  14    -0.174051335153E+04   -0.10436E+00   -0.99230E-01   720   0.397E+01 0.185E+00
CGA:  15    -0.174056959327E+04   -0.56242E-01   -0.52175E-01   720   0.231E+01 0.178E+00
CGA:  16    -0.174061104481E+04   -0.41452E-01   -0.44512E-01   720   0.234E+01-0.157E+00
CGA:  17    -0.174065315019E+04   -0.42105E-01   -0.41725E-01   720   0.303E+01-0.159E-01
CGA:  18    -0.174073479340E+04   -0.81643E-01   -0.87844E-01   720   0.426E+01 0.290E-01
CGA:  19    -0.174080713024E+04   -0.72337E-01   -0.77485E-01   720   0.175E+01-0.192E+00
CGA:  20    -0.174084173197E+04   -0.34602E-01   -0.34920E-01   720   0.942E+00-0.208E-01
CGA:  21    -0.174086103189E+04   -0.19300E-01   -0.19577E-01   720   0.498E+00-0.198E-01
CGA:  22    -0.174087231960E+04   -0.11288E-01   -0.11185E-01   720   0.427E+00-0.348E-02
CGA:  23    -0.174088960510E+04   -0.17285E-01   -0.17166E-01   720   0.627E+00 0.316E-01
CGA:  24    -0.174090993646E+04   -0.20331E-01   -0.20652E-01   720   0.416E+00 0.159E-01
CGA:  25    -0.174092382350E+04   -0.13887E-01   -0.13850E-01   720   0.188E+00-0.631E-02
CGA:  26    -0.174092821899E+04   -0.43955E-02   -0.42872E-02   720   0.656E-01-0.379E-02
CGA:  27    -0.174093115479E+04   -0.29358E-02   -0.29246E-02   720   0.998E-01 0.998E-03
CGA:  28    -0.174093567368E+04   -0.45189E-02   -0.44876E-02   720   0.962E-01 0.361E-02
CGA:  29    -0.174093938769E+04   -0.37140E-02   -0.37122E-02   720   0.546E-01-0.451E-02
CGA:  30    -0.174094115021E+04   -0.17625E-02   -0.17364E-02   720   0.256E-01-0.586E-02
CGA:  31    -0.174094189429E+04   -0.74407E-03   -0.74393E-03   720   0.132E-01-0.217E-03
SDA:  32    -0.174094244463E+04   -0.55034E-03   -0.54226E-03   720   0.149E-01 0.179E-02
CGA:  33    -0.174094291764E+04   -0.47302E-03   -0.46350E-03   720   0.700E-02-0.161E-02
CGA:  34    -0.174094374828E+04   -0.83064E-03   -0.95756E-03   720   0.249E-01-0.106E-02
CGA:  35    -0.174094495054E+04   -0.12023E-02   -0.12127E-02   720   0.751E-02-0.718E-03
CGA:  36    -0.174094528330E+04   -0.33276E-03   -0.33334E-03   720   0.243E-02-0.245E-03
CGA:  37    -0.174094550991E+04   -0.22661E-03   -0.29076E-03   720   0.872E-02-0.808E-03
CGA:  38    -0.174094595388E+04   -0.44397E-03   -0.54629E-03   720   0.106E-01-0.225E-02
CGA:  39    -0.174094616877E+04   -0.21489E-03   -0.20741E-03   720   0.393E-02-0.376E-03
CGA:  40    -0.174094632342E+04   -0.15466E-03   -0.15271E-03   720   0.365E-02-0.248E-03
CGA:  41    -0.174094652492E+04   -0.20150E-03   -0.21661E-03   720   0.663E-02-0.103E-02
CGA:  42    -0.174094675345E+04   -0.22853E-03   -0.22731E-03   720   0.709E-02-0.820E-03
CGA:  43    -0.174094688702E+04   -0.13357E-03   -0.14136E-03   720   0.271E-02 0.224E-03
CGA:  44    -0.174094694146E+04   -0.54447E-04   -0.64188E-04   720   0.166E-02 0.414E-03
CGA:  45    -0.174094700533E+04   -0.63866E-04   -0.65947E-04   720   0.196E-02 0.178E-03
CGA:  46    -0.174094712878E+04   -0.12345E-03   -0.13612E-03   720   0.449E-02-0.770E-03
CGA:  47    -0.174094720268E+04   -0.73908E-04   -0.55556E-04   720   0.413E-02-0.730E-03
CGA:  48    -0.174094727723E+04   -0.74542E-04   -0.60912E-04   720   0.232E-02-0.570E-03
CGA:  49    -0.174094731720E+04   -0.39970E-04   -0.36299E-04   720   0.159E-02-0.159E-03
CGA:  50    -0.174094734411E+04   -0.26918E-04   -0.27967E-04   720   0.132E-02 0.425E-04
CGA:  51    -0.174094737241E+04   -0.28299E-04   -0.31087E-04   720   0.164E-02 0.152E-03
CGA:  52    -0.174094742090E+04   -0.48487E-04   -0.51605E-04   720   0.217E-02 0.256E-03
CGA:  53    -0.174094747272E+04   -0.51817E-04   -0.55851E-04   720   0.125E-02 0.208E-03
CGA:  54    -0.174094749533E+04   -0.22613E-04   -0.23882E-04   720   0.489E-03 0.487E-04
CGA:  55    -0.174094750564E+04   -0.10306E-04   -0.10709E-04   720   0.378E-03 0.218E-04
CGA:  56    -0.174094751601E+04   -0.10370E-04   -0.11068E-04   720   0.524E-03 0.742E-04
CGA:  57    -0.174094753443E+04   -0.18427E-04   -0.19428E-04   720   0.649E-03 0.172E-03
CGA:  58    -0.174094756063E+04   -0.26200E-04   -0.26991E-04   720   0.569E-03 0.150E-03
CGA:  59    -0.174094758582E+04   -0.25193E-04   -0.25166E-04   720   0.327E-03-0.112E-03
CGA:  60    -0.174094759547E+04   -0.96486E-05   -0.10775E-04   720   0.430E-03-0.236E-03
CGA:  61    -0.174094760729E+04   -0.11815E-04   -0.12877E-04   720   0.179E-03 0.163E-03
CGA:  62    -0.174094762171E+04   -0.14420E-04   -0.13150E-04   720   0.120E-03 0.748E-04
CGA:  63    -0.174094763216E+04   -0.10455E-04   -0.20805E-04   720   0.438E-03-0.122E-03
CGA:  64    -0.174094764048E+04   -0.83212E-05   -0.98585E-05   720   0.711E-04 0.814E-04
  17 F= -.17409476E+04 E0= -.17409203E+04  d E =0.218579E+01  mag=    46.0000
       N       E                     dE             d eps       ncg     rms          ort
SDA:   1    -0.173715578203E+04    0.37919E+01    0.00000E+00   720   0.208E+02 0.000E+00
CGA:   2    -0.173830640976E+04   -0.11506E+01   -0.11579E+01   720   0.236E+02 0.502E+00
CGA:   3    -0.174130762086E+04   -0.30012E+01   -0.30481E+01   720   0.236E+02-0.727E+00
CGA:   4    -0.174193491634E+04   -0.62730E+00   -0.68624E+00   720   0.799E+01-0.303E+00
CGA:   5    -0.174215183451E+04   -0.21692E+00   -0.19965E+00   720   0.297E+01 0.219E+00
CGA:   6    -0.174234827942E+04   -0.19644E+00   -0.20249E+00   720   0.570E+01-0.237E+00
CGA:   7    -0.174255459426E+04   -0.20631E+00   -0.20687E+00   720   0.356E+01 0.101E-01
CGA:   8    -0.174263789760E+04   -0.83303E-01   -0.84948E-01   720   0.587E+00-0.177E-01
CGA:   9    -0.174265764839E+04   -0.19751E-01   -0.19741E-01   720   0.453E+00 0.816E-02
CGA:  10    -0.174267742341E+04   -0.19775E-01   -0.19772E-01   720   0.482E+00-0.710E-02
CGA:  11    -0.174270402437E+04   -0.26601E-01   -0.26604E-01   720   0.600E+00-0.455E-02
CGA:  12    -0.174272035571E+04   -0.16331E-01   -0.16910E-01   720   0.117E+00 0.724E-02
CGA:  13    -0.174272390925E+04   -0.35535E-02   -0.36304E-02   720   0.698E-01 0.557E-02
CGA:  14    -0.174272801259E+04   -0.41033E-02   -0.41544E-02   720   0.957E-01-0.353E-02
CGA:  15    -0.174273374475E+04   -0.57322E-02   -0.58783E-02   720   0.126E+00-0.744E-02
CGA:  16    -0.174273737695E+04   -0.36322E-02   -0.36576E-02   720   0.404E-01 0.471E-03
CGA:  17    -0.174273845814E+04   -0.10812E-02   -0.11134E-02   720   0.170E-01 0.178E-02
CGA:  18    -0.174273931439E+04   -0.85625E-03   -0.86037E-03   720   0.228E-01-0.754E-03
CGA:  19    -0.174274064762E+04   -0.13332E-02   -0.13639E-02   720   0.316E-01-0.164E-02
CGA:  20    -0.174274153959E+04   -0.89198E-03   -0.90965E-03   720   0.149E-01 0.113E-02
CGA:  21    -0.174274195388E+04   -0.41429E-03   -0.43045E-03   720   0.751E-02 0.102E-02
CGA:  22    -0.174274230683E+04   -0.35295E-03   -0.35348E-03   720   0.829E-02-0.458E-03
CGA:  23    -0.174274268283E+04   -0.37600E-03   -0.38097E-03   720   0.786E-02-0.874E-03
CGA:  24    -0.174274285747E+04   -0.17464E-03   -0.18243E-03   720   0.324E-02 0.403E-03
CGA:  25    -0.174274293721E+04   -0.79735E-04   -0.87677E-04   720   0.209E-02 0.457E-03
CGA:  26    -0.174274306484E+04   -0.12764E-03   -0.12956E-03   720   0.379E-02-0.155E-03
CGA:  27    -0.174274322500E+04   -0.16015E-03   -0.16520E-03   720   0.455E-02-0.101E-02
CGA:  28    -0.174274329697E+04   -0.71975E-04   -0.69125E-04   720   0.281E-02-0.126E-03
CGA:  29    -0.174274333641E+04   -0.39445E-04   -0.47581E-04   720   0.151E-02 0.328E-03
CGA:  30    -0.174274336118E+04   -0.24770E-04   -0.32262E-04   720   0.117E-02 0.354E-03
CGA:  31    -0.174274340094E+04   -0.39753E-04   -0.41455E-04   720   0.145E-02 0.162E-03
SDA:  32    -0.174274346870E+04   -0.67760E-04   -0.69766E-04   720   0.226E-02-0.533E-03
CGA:  33    -0.174274356095E+04   -0.92256E-04   -0.92713E-04   720   0.610E-03-0.198E-03
CGA:  34    -0.174274358133E+04   -0.20379E-04   -0.20559E-04   720   0.228E-03 0.925E-04
CGA:  35    -0.174274361588E+04   -0.34544E-04   -0.31235E-04   720   0.572E-03 0.404E-04
CGA:  36    -0.174274365254E+04   -0.36666E-04   -0.36118E-04   720   0.220E-03 0.489E-04
CGA:  37    -0.174274366776E+04   -0.15221E-04   -0.14045E-04   720   0.151E-03 0.748E-04
CGA:  38    -0.174274368597E+04   -0.18209E-04    0.24182E-03   720   0.107E-03 0.941E-04
CGA:  39    -0.174274369218E+04   -0.62097E-05   -0.60078E-05   720   0.945E-04 0.165E-04
CGA:  40    -0.174274370334E+04   -0.11158E-04   -0.10026E-04   720   0.137E-03 0.233E-04
CGA:  41    -0.174274366752E+04    0.35815E-04   -0.23441E-04   720   0.250E-02-0.353E-03
CGA:  42    -0.174274372438E+04   -0.56860E-04   -0.60773E-04   720   0.389E-03 0.913E-04
CGA:  43    -0.174274373957E+04   -0.15183E-04   -0.18889E-04   720   0.163E-03 0.102E-03
CGA:  44    -0.174274375746E+04   -0.17891E-04   -0.17757E-04   720   0.181E-03 0.250E-04
CGA:  45    -0.174274376518E+04   -0.77181E-05   -0.73322E-05   720   0.417E-04-0.833E-05
  18 F= -.17427438E+04 E0= -.17427183E+04  d E =-.179612E+01  mag=    46.0000
       N       E                     dE             d eps       ncg     rms          ort
SDA:   1    -0.174191280555E+04    0.83095E+00    0.00000E+00   720   0.417E+01 0.000E+00
CGA:   2    -0.174216441867E+04   -0.25161E+00   -0.24549E+00   720   0.522E+01-0.507E-01
CGA:   3    -0.174278811203E+04   -0.62369E+00   -0.62174E+00   720   0.414E+01 0.330E-01
CGA:   4    -0.174295292491E+04   -0.16481E+00   -0.17745E+00   720   0.822E+00-0.128E+00
CGA:   5    -0.174299279629E+04   -0.39871E-01   -0.38879E-01   720   0.705E+00 0.128E-01
CGA:   6    -0.174305598007E+04   -0.63184E-01   -0.63246E-01   720   0.472E+00-0.678E-02
CGA:   7    -0.174307610013E+04   -0.20120E-01   -0.19729E-01   720   0.728E-01 0.767E-02
CGA:   8    -0.174308108449E+04   -0.49844E-02   -0.50152E-02   720   0.755E-01 0.292E-02
CGA:   9    -0.174308743298E+04   -0.63485E-02   -0.63649E-02   720   0.820E-01-0.349E-02
CGA:  10    -0.174309086981E+04   -0.34368E-02   -0.35071E-02   720   0.129E-01 0.261E-02
CGA:  11    -0.174309168944E+04   -0.81963E-03   -0.83125E-03   720   0.150E-01 0.909E-03
CGA:  12    -0.174309342417E+04   -0.17347E-02   -0.18791E-02   720   0.224E-01-0.338E-02
CGA:  13    -0.174309400549E+04   -0.58132E-03   -0.61099E-03   720   0.623E-02 0.980E-03
CGA:  14    -0.174309419355E+04   -0.18806E-03   -0.21852E-03   720   0.404E-02 0.807E-03
CGA:  15    -0.174309453197E+04   -0.33842E-03   -0.33936E-03   720   0.584E-02-0.371E-03
CGA:  16    -0.174309481121E+04   -0.27924E-03   -0.26546E-03   720   0.487E-02-0.591E-03
CGA:  17    -0.174309493775E+04   -0.12654E-03   -0.13889E-03   720   0.269E-02 0.334E-03
CGA:  18    -0.174309503251E+04   -0.94756E-04   -0.10635E-03   720   0.231E-02 0.352E-03
CGA:  19    -0.174309518073E+04   -0.14822E-03   -0.14450E-03   720   0.196E-02-0.346E-03
CGA:  20    -0.174309525908E+04   -0.78353E-04   -0.68569E-04   720   0.120E-02-0.391E-03
CGA:  21    -0.174309527984E+04   -0.20761E-04   -0.25691E-04   720   0.702E-03 0.127E-03
CGA:  22    -0.174309529590E+04   -0.16056E-04   -0.23416E-04   720   0.685E-03 0.219E-03
CGA:  23    -0.174309535278E+04   -0.56877E-04   -0.56775E-04   720   0.101E-02 0.781E-04
CGA:  24    -0.174309541105E+04   -0.58275E-04   -0.50442E-04   720   0.516E-03-0.456E-03
CGA:  25    -0.174309541964E+04   -0.85880E-05   -0.76299E-05   720   0.380E-03-0.286E-04
CGA:  26    -0.174309542674E+04   -0.70999E-05   -0.10058E-04   720   0.351E-03 0.939E-04
CGA:  27    -0.174309544628E+04   -0.19539E-04   -0.20478E-04   720   0.389E-03 0.844E-04
CGA:  28    -0.174309547369E+04   -0.27406E-04   -0.38725E-04   720   0.631E-03-0.494E-03
CGA:  29    -0.174309548806E+04   -0.14377E-04   -0.19282E-04   720   0.230E-03 0.174E-03
CGA:  30    -0.174309550702E+04   -0.18961E-04   -0.18536E-04   720   0.122E-03 0.692E-04
CGA:  31    -0.174309551727E+04   -0.10242E-04   -0.13055E-04   720   0.273E-03-0.113E-03
CGA:  32    -0.174309551883E+04   -0.15614E-05   -0.52518E-05   720   0.576E-04 0.926E-04
  19 F= -.17430955E+04 E0= -.17430710E+04  d E =-.351754E+00  mag=    46.0000
       N       E                     dE             d eps       ncg     rms          ort
SDA:   1    -0.174240644883E+04    0.68907E+00    0.00000E+00   720   0.233E+01 0.000E+00
CGA:   2    -0.174261247381E+04   -0.20602E+00   -0.21564E+00   720   0.514E+01-0.229E+00
CGA:   3    -0.174299547842E+04   -0.38300E+00   -0.38132E+00   720   0.267E+01 0.443E-01
CGA:   4    -0.174308836085E+04   -0.92882E-01   -0.99323E-01   720   0.642E+00-0.272E-01
CGA:   5    -0.174312008050E+04   -0.31720E-01   -0.31542E-01   720   0.510E+00 0.157E-03
CGA:   6    -0.174315884938E+04   -0.38769E-01   -0.38853E-01   720   0.397E+00-0.539E-02
CGA:   7    -0.174317758297E+04   -0.18734E-01   -0.18781E-01   720   0.971E-01-0.327E-03
CGA:   8    -0.174318102029E+04   -0.34373E-02   -0.35487E-02   720   0.422E-01 0.581E-02
CGA:   9    -0.174318526272E+04   -0.42424E-02   -0.42558E-02   720   0.642E-01-0.369E-03
CGA:  10    -0.174318879274E+04   -0.35300E-02   -0.35269E-02   720   0.216E-01-0.122E-02
CGA:  11    -0.174318947201E+04   -0.67927E-03   -0.73226E-03   720   0.897E-02 0.211E-02
CGA:  12    -0.174319027973E+04   -0.80772E-03   -0.80548E-03   720   0.138E-01 0.502E-04
CGA:  13    -0.174319121634E+04   -0.93660E-03   -0.96328E-03   720   0.105E-01-0.233E-02
CGA:  14    -0.174319146574E+04   -0.24940E-03   -0.27244E-03   720   0.423E-02 0.934E-03
CGA:  15    -0.174319163161E+04   -0.16587E-03   -0.18082E-03   720   0.375E-02 0.843E-03
CGA:  16    -0.174319191610E+04   -0.28450E-03   -0.29080E-03   720   0.367E-02-0.711E-03
CGA:  17    -0.174319204438E+04   -0.12827E-03   -0.12130E-03   720   0.248E-02-0.427E-03
CGA:  18    -0.174319210314E+04   -0.58759E-04   -0.67661E-04   720   0.187E-02 0.356E-03
CGA:  19    -0.174319219211E+04   -0.88978E-04   -0.94133E-04   720   0.202E-02 0.478E-03
CGA:  20    -0.174319233629E+04   -0.14417E-03   -0.14649E-03   720   0.114E-02-0.634E-03
CGA:  21    -0.174319237909E+04   -0.42805E-04   -0.43752E-04   720   0.893E-03-0.540E-03
CGA:  22    -0.174319238175E+04   -0.26577E-05   -0.89218E-05   720   0.667E-03 0.177E-03
CGA:  23    -0.174319238793E+04   -0.61746E-05   -0.17277E-04   720   0.517E-03 0.357E-03
CGA:  24    -0.174319211550E+04    0.27242E-03   -0.15063E-03   720   0.133E-01-0.163E-02
CGA:  25    -0.174319238982E+04   -0.27432E-03   -0.34624E-03   720   0.127E-02 0.118E-02
CGA:  26    -0.174319246481E+04   -0.74988E-04   -0.74051E-04   720   0.389E-03-0.192E-04
CGA:  27    -0.174319249801E+04   -0.33197E-04   -0.37567E-04   720   0.104E-02-0.433E-03
CGA:  28    -0.174319250382E+04   -0.58181E-05   -0.22767E-04   720   0.114E-03 0.256E-03
  20 F= -.17431925E+04 E0= -.17431685E+04  d E =-.969850E-01  mag=    46.0000
       N       E                     dE             d eps       ncg     rms          ort
SDA:   1    -0.174317039768E+04    0.22100E-01    0.00000E+00   720   0.100E+00 0.000E+00
CGA:   2    -0.174317963969E+04   -0.92420E-02   -0.92412E-02   720   0.147E+00 0.136E-02
CGA:   3    -0.174319127727E+04   -0.11638E-01   -0.11625E-01   720   0.937E-01-0.379E-02
CGA:   4    -0.174319599596E+04   -0.47187E-02   -0.48014E-02   720   0.213E-01 0.399E-02
CGA:   5    -0.174319779423E+04   -0.17983E-02   -0.17983E-02   720   0.235E-01-0.132E-02
CGA:   6    -0.174319934499E+04   -0.15508E-02   -0.15540E-02   720   0.764E-02 0.307E-03
CGA:   7    -0.174319973597E+04   -0.39098E-03   -0.39640E-03   720   0.201E-02 0.177E-03
CGA:   8    -0.174319998658E+04   -0.25062E-03   -0.26083E-03   720   0.283E-02-0.212E-03
CGA:   9    -0.174320008862E+04   -0.10203E-03   -0.11270E-03   720   0.747E-03 0.283E-03
CGA:  10    -0.174320013651E+04   -0.47893E-04   -0.47073E-04   720   0.594E-03-0.412E-04
CGA:  11    -0.174320017283E+04   -0.36324E-04   -0.37608E-04   720   0.444E-03 0.114E-03
CGA:  12    -0.174320018875E+04   -0.15917E-04   -0.21501E-04   720   0.195E-03 0.151E-03
CGA:  13    -0.174320020876E+04   -0.20012E-04   -0.20038E-04   720   0.247E-03-0.328E-04
CGA:  14    -0.174320022449E+04   -0.15724E-04   -0.15752E-04   720   0.325E-03-0.337E-04
CGA:  15    -0.174320022843E+04   -0.39394E-05   -0.77244E-05   720   0.159E-03 0.785E-04
  21 F= -.17432002E+04 E0= -.17431762E+04  d E =-.772460E-02  mag=    46.0000
       N       E                     dE             d eps       ncg     rms          ort
SDA:   1    -0.174313599001E+04    0.64234E-01    0.00000E+00   720   0.211E+00 0.000E+00
CGA:   2    -0.174316442364E+04   -0.28434E-01   -0.28582E-01   720   0.447E+00-0.275E-02
CGA:   3    -0.174319053516E+04   -0.26112E-01   -0.26108E-01   720   0.131E+00 0.754E-02
CGA:   4    -0.174319767076E+04   -0.71356E-02   -0.72432E-02   720   0.597E-01 0.957E-04
CGA:   5    -0.174320209053E+04   -0.44198E-02   -0.44182E-02   720   0.575E-01 0.104E-02
CGA:   6    -0.174320547476E+04   -0.33842E-02   -0.33738E-02   720   0.148E-01-0.122E-02
CGA:   7    -0.174320632037E+04   -0.84561E-03   -0.84184E-03   720   0.634E-02-0.296E-03
CGA:   8    -0.174320677864E+04   -0.45827E-03   -0.45644E-03   720   0.517E-02 0.817E-03
CGA:   9    -0.174320718471E+04   -0.40607E-03   -0.40444E-03   720   0.277E-02-0.852E-03
CGA:  10    -0.174320729021E+04   -0.10550E-03   -0.11345E-03   720   0.916E-03 0.353E-03
CGA:  11    -0.174320734754E+04   -0.57326E-04   -0.60776E-04   720   0.563E-03 0.306E-03
CGA:  12    -0.174320743381E+04   -0.86271E-04   -0.94253E-04   720   0.121E-02-0.142E-03
CGA:  13    -0.174320744893E+04   -0.15118E-04   -0.25805E-04   720   0.711E-03 0.244E-03
CGA:  14    -0.174320745679E+04   -0.78621E-05   -0.18624E-04   720   0.291E-03 0.222E-03
CGA:  15    -0.174320746790E+04   -0.11113E-04   -0.13317E-04   720   0.255E-03 0.666E-04
CGA:  16    -0.174320748970E+04   -0.21799E-04   -0.22696E-04   720   0.565E-03-0.145E-03
CGA:  17    -0.174320750172E+04   -0.12021E-04   -0.16987E-04   720   0.102E-03 0.136E-03
CGA:  18    -0.174320727637E+04    0.22536E-03   -0.12221E-03   720   0.686E-02-0.784E-03
CGA:  19    -0.174320750095E+04   -0.22458E-03   -0.25949E-03   720   0.485E-03 0.569E-03
CGA:  20    -0.174320754168E+04   -0.40732E-04   -0.27702E-04   720   0.274E-03-0.218E-03
CGA:  21    -0.174320753953E+04    0.21526E-05   -0.34014E-05   720   0.132E-03 0.628E-04
  22 F= -.17432075E+04 E0= -.17431834E+04  d E =-.731110E-02  mag=    46.0000
       N       E                     dE             d eps       ncg     rms          ort
SDA:   1    -0.173658187603E+04    0.66257E+01    0.00000E+00   720   0.183E+03 0.000E+00
CGA:   2    -0.174060869090E+04   -0.40268E+01   -0.91683E+01   720   0.526E+02-0.500E+02
CGA:   3    -0.174216081390E+04   -0.15521E+01   -0.16787E+01   720   0.142E+02 0.290E+01
CGA:   4    -0.174253385031E+04   -0.37304E+00   -0.21281E+00   720   0.841E+01 0.110E+02
CGA:   5    -0.174276303123E+04   -0.22918E+00   -0.11488E+00   720   0.595E+01 0.833E+01
CGA:   6    -0.174290903081E+04   -0.14600E+00   -0.74508E-01   720   0.355E+01 0.540E+01
CGA:   7    -0.174299545162E+04   -0.86421E-01   -0.53276E-01   720   0.104E+01 0.196E+01
CGA:   8    -0.174303535482E+04   -0.39903E-01   -0.37964E-01   720   0.897E+00 0.984E-02
CGA:   9    -0.174305293055E+04   -0.17576E-01   -0.84853E-02   720   0.861E+00 0.987E+00
CGA:  10    -0.174310227639E+04   -0.49346E-01   -0.46639E-01   720   0.117E+01 0.993E-01
CGA:  11    -0.174311043709E+04   -0.81607E-02   -0.44098E-02   720   0.104E+01 0.112E+01
CGA:  12    -0.174313812313E+04   -0.27686E-01   -0.21347E-01   720   0.196E+00 0.262E+00
CGA:  13    -0.174315132111E+04   -0.13198E-01   -0.12974E-01   720   0.430E+00 0.647E-03
CGA:  14    -0.174316533301E+04   -0.14012E-01   -0.12452E-01   720   0.591E+00 0.390E-01
CGA:  15    -0.174318222142E+04   -0.16888E-01   -0.18781E-01   720   0.554E+00-0.370E-01
CGA:  16    -0.174319167419E+04   -0.94528E-02   -0.99281E-02   720   0.212E+00-0.195E-01
CGA:  17    -0.174319498718E+04   -0.33130E-02   -0.33732E-02   720   0.777E-01 0.202E-02
CGA:  18    -0.174319658805E+04   -0.16009E-02   -0.16481E-02   720   0.605E-01 0.139E-02
CGA:  19    -0.174319857918E+04   -0.19911E-02   -0.19883E-02   720   0.762E-01 0.163E-03
CGA:  20    -0.174320068635E+04   -0.21072E-02   -0.20307E-02   720   0.708E-01-0.159E-02
CGA:  21    -0.174320255438E+04   -0.18680E-02   -0.18497E-02   720   0.642E-01-0.274E-02
CGA:  22    -0.174320406703E+04   -0.15126E-02   -0.15677E-02   720   0.466E-01-0.201E-03
CGA:  23    -0.174320489886E+04   -0.83183E-03   -0.87639E-03   720   0.182E-01 0.295E-02
CGA:  24    -0.174320520773E+04   -0.30887E-03   -0.34003E-03   720   0.839E-02 0.118E-02
CGA:  25    -0.174320545198E+04   -0.24425E-03   -0.24408E-03   720   0.961E-02-0.262E-04
CGA:  26    -0.174320587142E+04   -0.41944E-03   -0.41275E-03   720   0.183E-01-0.157E-02
CGA:  27    -0.174320629356E+04   -0.42214E-03   -0.38578E-03   720   0.149E-01-0.171E-02
CGA:  28    -0.174320652352E+04   -0.22996E-03   -0.22150E-03   720   0.668E-02-0.346E-03
CGA:  29    -0.174320662530E+04   -0.10178E-03   -0.11125E-03   720   0.456E-02 0.338E-03
CGA:  30    -0.174320672874E+04   -0.10344E-03   -0.11367E-03   720   0.550E-02 0.533E-03
CGA:  31    -0.174320688494E+04   -0.15621E-03   -0.16244E-03   720   0.544E-02 0.435E-03
CGA:  32    -0.174320700251E+04   -0.11757E-03   -0.11712E-03   720   0.306E-02 0.268E-04
CGA:  33    -0.174320706139E+04   -0.58878E-04   -0.58501E-04   720   0.197E-02-0.256E-04
CGA:  34    -0.174320709810E+04   -0.36709E-04   -0.40016E-04   720   0.175E-02 0.173E-03
CGA:  35    -0.174320713349E+04   -0.35385E-04   -0.41444E-04   720   0.177E-02 0.361E-03
CGA:  36    -0.174320717900E+04   -0.45516E-04   -0.51372E-04   720   0.185E-02 0.432E-03
CGA:  37    -0.174320723480E+04   -0.55800E-04   -0.59205E-04   720   0.167E-02 0.294E-03
CGA:  38    -0.174320727818E+04   -0.43382E-04   -0.44459E-04   720   0.101E-02 0.713E-04
CGA:  39    -0.174320729826E+04   -0.20072E-04   -0.20407E-04   720   0.483E-03 0.143E-04
CGA:  40    -0.174320730849E+04   -0.10235E-04   -0.10204E-04   720   0.329E-03-0.320E-05
CGA:  41    -0.174320732148E+04   -0.12991E-04   -0.15161E-04   720   0.780E-03-0.180E-03
CGA:  42    -0.174320735270E+04   -0.31222E-04   -0.33362E-04   720   0.371E-03-0.273E-03
CGA:  43    -0.174320735794E+04   -0.52410E-05   -0.64737E-05   720   0.172E-03 0.148E-03
  23 F= -.17432074E+04 E0= -.17431832E+04  d E =0.181582E-03  mag=    46.0000
       N       E                     dE             d eps       ncg     rms          ort
SDA:   1    -0.174319933087E+04    0.80218E-02    0.00000E+00   720   0.451E-01 0.000E+00
CGA:   2    -0.174320115777E+04   -0.18269E-02   -0.17851E-02   720   0.271E-01 0.762E-02
CGA:   3    -0.174320499531E+04   -0.38375E-02   -0.39583E-02   720   0.325E-01-0.134E-02
CGA:   4    -0.174320678645E+04   -0.17911E-02   -0.18635E-02   720   0.117E-01-0.337E-02
CGA:   5    -0.174320735599E+04   -0.56954E-03   -0.55721E-03   720   0.699E-02 0.915E-03
CGA:   6    -0.174320799834E+04   -0.64235E-03   -0.64712E-03   720   0.458E-02-0.113E-03
CGA:   7    -0.174320817873E+04   -0.18039E-03   -0.18193E-03   720   0.909E-03 0.586E-03
CGA:   8    -0.174320825169E+04   -0.72955E-04   -0.95352E-04   720   0.181E-02-0.446E-03
CGA:   9    -0.174320828560E+04   -0.33908E-04   -0.33721E-04   720   0.169E-02-0.226E-04
CGA:  10    -0.174320832155E+04   -0.35954E-04   -0.40818E-04   720   0.585E-03 0.244E-03
CGA:  11    -0.174320833430E+04   -0.12745E-04   -0.15689E-04   720   0.256E-03 0.147E-03
CGA:  12    -0.174320834630E+04   -0.12009E-04   -0.12094E-04   720   0.256E-03 0.168E-04
CGA:  13    -0.174320835065E+04   -0.43405E-05   -0.32696E-04   720   0.110E-02-0.367E-03
CGA:  14    -0.174320838778E+04   -0.37131E-04   -0.38784E-04   720   0.137E-03 0.148E-03
CGA:  15    -0.174320839377E+04   -0.59908E-05   -0.61651E-05   720   0.366E-04 0.288E-04
  24 F= -.17432084E+04 E0= -.17431843E+04  d E =-.103582E-02  mag=    46.0000
       N       E                     dE             d eps       ncg     rms          ort
SDA:   1    -0.174312300384E+04    0.85384E-01    0.00000E+00   720   0.308E+00 0.000E+00
CGA:   2    -0.174314895508E+04   -0.25951E-01   -0.26137E-01   720   0.518E+00-0.478E-02
CGA:   3    -0.174318697907E+04   -0.38024E-01   -0.37495E-01   720   0.148E+00 0.171E-01
CGA:   4    -0.174319634276E+04   -0.93637E-02   -0.93102E-02   720   0.103E+00 0.165E-02
CGA:   5    -0.174320386586E+04   -0.75231E-02   -0.75242E-02   720   0.728E-01-0.232E-03
CGA:   6    -0.174320770796E+04   -0.38421E-02   -0.38381E-02   720   0.180E-01 0.214E-02
[...]
CGA:  33    -0.174354846614E+04   -0.42457E-03   -0.56796E-03   720   0.219E-01-0.498E-02
CGA:  34    -0.174354882452E+04   -0.35838E-03   -0.41751E-03   720   0.291E-02 0.357E-02
CGA:  35    -0.174354905282E+04   -0.22829E-03   -0.20063E-03   720   0.590E-02 0.112E-02
CGA:  36    -0.174354884949E+04    0.20332E-03   -0.37064E-03   720   0.387E-01-0.103E-01
CGA:  37    -0.174354952359E+04   -0.67409E-03   -0.82331E-03   720   0.544E-02 0.346E-02
CGA:  38    -0.174354991967E+04   -0.39608E-03   -0.39425E-03   720   0.604E-02 0.584E-03
CGA:  39    -0.174355045374E+04   -0.53407E-03   -0.57265E-03   720   0.800E-02-0.176E-02
CGA:  40    -0.174355053906E+04   -0.85320E-04   -0.11229E-03   720   0.250E-02 0.604E-03
CGA:  41    -0.174355055830E+04   -0.19242E-04   -0.43713E-04   720   0.117E-02 0.530E-03
CGA:  42    -0.174355059017E+04   -0.31867E-04   -0.41489E-04   720   0.144E-02 0.312E-03
CGA:  43    -0.174355066717E+04   -0.77002E-04   -0.73326E-04   720   0.155E-02-0.185E-03
CGA:  44    -0.174355070462E+04   -0.37453E-04   -0.34733E-04   720   0.144E-02-0.769E-04
CGA:  45    -0.174355072739E+04   -0.22763E-04   -0.29284E-04   720   0.118E-02 0.190E-03
CGA:  46    -0.174355074915E+04   -0.21763E-04   -0.29292E-04   720   0.931E-03 0.233E-03
CGA:  47    -0.174355078610E+04   -0.36951E-04   -0.35212E-04   720   0.110E-02-0.849E-04
CGA:  48    -0.174355083653E+04   -0.50426E-04   -0.47523E-04   720   0.231E-02-0.695E-03
CGA:  49    -0.174355088949E+04   -0.52963E-04   -0.64027E-04   720   0.598E-03 0.470E-03
CGA:  50    -0.174355093309E+04   -0.43597E-04   -0.43979E-04   720   0.443E-03-0.332E-04
CGA:  51    -0.174355095683E+04   -0.23748E-04   -0.23548E-04   720   0.403E-03 0.365E-04
CGA:  52    -0.174355097611E+04   -0.19278E-04   -0.57778E-04   720   0.123E-02-0.471E-03
CGA:  53    -0.174355100875E+04   -0.32637E-04   -0.38758E-04   720   0.348E-03 0.257E-03
CGA:  54    -0.174355102674E+04   -0.17995E-04   -0.18765E-04   720   0.150E-03 0.829E-04
CGA:  55    -0.174355105088E+04   -0.24141E-04    0.22989E-04   720   0.106E-03 0.759E-04
CGA:  56    -0.174355105144E+04   -0.55218E-06   -0.24812E-05   720   0.603E-04 0.640E-04
CGA:  57    -0.174355105777E+04   -0.63315E-05    0.16314E-03   720   0.480E-04 0.458E-04
  91 F= -.17435511E+04 E0= -.17435227E+04  d E =0.866306E-01  mag=    46.0000
       N       E                     dE             d eps       ncg     rms          ort
SDA:   1    -0.174003891928E+04    0.35121E+01    0.00000E+00   720   0.115E+02 0.000E+00
CGA:   2    -0.174108685018E+04   -0.10479E+01   -0.10730E+01   720   0.361E+02-0.399E+00
CGA:   3    -0.174257131038E+04   -0.14845E+01   -0.15161E+01   720   0.756E+01 0.480E+00
CGA:   4    -0.174300389933E+04   -0.43259E+00   -0.43538E+00   720   0.559E+01-0.716E+00
CGA:   5    -0.174315163554E+04   -0.14774E+00   -0.12950E+00   720   0.597E+01 0.442E+00
CGA:   6    -0.174330132705E+04   -0.14969E+00   -0.14518E+00   720   0.519E+01 0.682E-01
CGA:   7    -0.174345738714E+04   -0.15606E+00   -0.17090E+00   720   0.278E+01-0.325E-01
CGA:   8    -0.174352902923E+04   -0.71642E-01   -0.74743E-01   720   0.127E+01-0.276E-01
CGA:   9    -0.174356196533E+04   -0.32936E-01   -0.28030E-01   720   0.525E+00 0.155E+00
CGA:  10    -0.174357632681E+04   -0.14361E-01   -0.13747E-01   720   0.423E+00 0.121E-01
CGA:  11    -0.174359093145E+04   -0.14605E-01   -0.14508E-01   720   0.537E+00-0.392E-02
CGA:  12    -0.174360453634E+04   -0.13605E-01   -0.13888E-01   720   0.395E+00-0.349E-02
CGA:  13    -0.174361334187E+04   -0.88055E-02   -0.88242E-02   720   0.255E+00 0.267E-02
CGA:  14    -0.174361894247E+04   -0.56006E-02   -0.56402E-02   720   0.123E+00 0.295E-03
CGA:  15    -0.174362129913E+04   -0.23567E-02   -0.23595E-02   720   0.540E-01-0.205E-02
CGA:  16    -0.174362285895E+04   -0.15598E-02   -0.15647E-02   720   0.625E-01-0.489E-03
CGA:  17    -0.174362500009E+04   -0.21411E-02   -0.21564E-02   720   0.633E-01 0.223E-02
CGA:  18    -0.174362679052E+04   -0.17904E-02   -0.18173E-02   720   0.541E-01 0.206E-02
CGA:  19    -0.174362851756E+04   -0.17270E-02   -0.17110E-02   720   0.393E-01-0.125E-02
CGA:  20    -0.174362946536E+04   -0.94780E-03   -0.91390E-03   720   0.212E-01-0.278E-02
CGA:  21    -0.174363009793E+04   -0.63257E-03   -0.62602E-03   720   0.217E-01-0.105E-02
CGA:  22    -0.174363064905E+04   -0.55112E-03   -0.56365E-03   720   0.135E-01 0.103E-02
CGA:  23    -0.174363100856E+04   -0.35952E-03   -0.36799E-03   720   0.109E-01 0.641E-03
CGA:  24    -0.174363149321E+04   -0.48465E-03   -0.49428E-03   720   0.143E-01-0.161E-02
CGA:  25    -0.174363188726E+04   -0.39405E-03   -0.38071E-03   720   0.144E-01-0.216E-02
CGA:  26    -0.174363228953E+04   -0.40226E-03   -0.39930E-03   720   0.161E-01-0.707E-03
CGA:  27    -0.174363264232E+04   -0.35279E-03   -0.36141E-03   720   0.704E-02 0.694E-03
CGA:  28    -0.174363278667E+04   -0.14435E-03   -0.14729E-03   720   0.352E-02 0.163E-03
CGA:  29    -0.174363293623E+04   -0.14957E-03   -0.15557E-03   720   0.569E-02-0.803E-03
CGA:  30    -0.174363306553E+04   -0.12929E-03   -0.12506E-03   720   0.585E-02-0.566E-03
CGA:  31    -0.174363317350E+04   -0.10798E-03   -0.11321E-03   720   0.460E-02 0.360E-03
SDA:  32    -0.174363326342E+04   -0.89912E-04   -0.10217E-03   720   0.301E-02 0.858E-03
CGA:  33    -0.174363335751E+04   -0.94096E-04   -0.93745E-04   720   0.112E-02-0.127E-03
CGA:  34    -0.174363345430E+04   -0.96790E-04   -0.91749E-04   720   0.696E-03 0.101E-03
CGA:  35    -0.174363347722E+04   -0.22917E-04   -0.11990E-03   720   0.412E-02-0.800E-03
CGA:  36    -0.174363354304E+04   -0.65819E-04   -0.85994E-04   720   0.573E-03 0.908E-03
CGA:  37    -0.174363356668E+04   -0.23638E-04   -0.24359E-04   720   0.344E-03 0.106E-03
CGA:  38    -0.174363355774E+04    0.89327E-05   -0.58678E-04   720   0.243E-02-0.658E-03
CGA:  39    -0.174363359222E+04   -0.34473E-04   -0.50611E-04   720   0.474E-03 0.634E-03
CGA:  40    -0.174363361391E+04   -0.21695E-04   -0.22230E-04   720   0.255E-03 0.664E-04
CGA:  41    -0.174363331052E+04    0.30339E-03   -0.16709E-03   720   0.144E-01-0.158E-02
CGA:  42    -0.174363353969E+04   -0.22918E-03   -0.29340E-03   720   0.153E-02 0.116E-02
CGA:  43    -0.174363365050E+04   -0.11081E-03   -0.10704E-03   720   0.989E-03-0.250E-03
CGA:  44    -0.174363368410E+04   -0.33600E-04   -0.29962E-04   720   0.419E-03-0.743E-04
CGA:  45    -0.174363368373E+04    0.36581E-06   -0.76512E-05   720   0.137E-03 0.144E-03
  92 F= -.17436337E+04 E0= -.17436051E+04  d E =-.826260E-01  mag=    46.0000
       N       E                     dE             d eps       ncg     rms          ort
SDA:   1    -0.174362525918E+04    0.84249E-02    0.00000E+00   720   0.504E-01 0.000E+00
CGA:   2    -0.174362730905E+04   -0.20499E-02   -0.20510E-02   720   0.320E-01 0.127E-02
CGA:   3    -0.174363063240E+04   -0.33234E-02   -0.34357E-02   720   0.395E-01-0.313E-02
CGA:   4    -0.174363189885E+04   -0.12665E-02   -0.13457E-02   720   0.139E-01 0.247E-02
CGA:   5    -0.174363274303E+04   -0.84417E-03   -0.84034E-03   720   0.798E-02-0.104E-03
CGA:   6    -0.174363331832E+04   -0.57530E-03   -0.57833E-03   720   0.106E-01-0.656E-03
CGA:   7    -0.174363367655E+04   -0.35823E-03   -0.36280E-03   720   0.174E-02 0.911E-04
CGA:   8    -0.174363374253E+04   -0.65978E-04   -0.69132E-04   720   0.117E-02 0.113E-03
CGA:   9    -0.174363379728E+04   -0.54755E-04   -0.58072E-04   720   0.769E-03 0.178E-03
CGA:  10    -0.174363385979E+04   -0.62505E-04   -0.62980E-04   720   0.631E-03-0.728E-04
CGA:  11    -0.174363387787E+04   -0.18081E-04   -0.17596E-04   720   0.221E-03-0.169E-04
CGA:  12    -0.174363388001E+04   -0.21356E-05   -0.57110E-05   720   0.140E-03 0.974E-04
  93 F= -.17436339E+04 E0= -.17436053E+04  d E =-.196275E-03  mag=    46.0000
       N       E                     dE             d eps       ncg     rms          ort
SDA:   1    -0.174362839091E+04    0.54870E-02    0.00000E+00   720   0.153E+00 0.000E+00
CGA:   2    -0.174363158692E+04   -0.31960E-02   -0.35224E-02   720   0.101E-01 0.156E-02
CGA:   3    -0.174363205302E+04   -0.46610E-03   -0.46569E-03   720   0.886E-02-0.669E-04
CGA:   4    -0.174363302963E+04   -0.97661E-03   -0.93894E-03   720   0.722E-02 0.769E-03
CGA:   5    -0.174363349988E+04   -0.47025E-03   -0.47003E-03   720   0.621E-02-0.218E-02
CGA:   6    -0.174363359688E+04   -0.96997E-04   -0.12026E-03   720   0.205E-02 0.729E-03
CGA:   7    -0.174363362432E+04   -0.27444E-04   -0.51277E-04   720   0.106E-02 0.664E-03
CGA:   8    -0.174363367252E+04   -0.48197E-04   -0.52937E-04   720   0.874E-03 0.260E-03
CGA:   9    -0.174363373722E+04   -0.64701E-04   -0.68933E-04   720   0.157E-02-0.555E-03
CGA:  10    -0.174363375683E+04   -0.19606E-04   -0.32463E-04   720   0.247E-03 0.363E-03
CGA:  11    -0.174363376915E+04   -0.12319E-04   -0.12203E-04   720   0.109E-03-0.887E-05
CGA:  12    -0.174363378240E+04   -0.13249E-04    0.16246E-04   720   0.186E-03-0.460E-04
CGA:  13    -0.174363378514E+04   -0.27424E-05   -0.35981E-05   720   0.209E-03 0.424E-04
  94 F= -.17436338E+04 E0= -.17436052E+04  d E =0.948686E-04  mag=    46.0000
       N       E                     dE             d eps       ncg     rms          ort
SDA:   1    -0.174362256543E+04    0.11217E-01    0.00000E+00   720   0.943E-01 0.000E+00
CGA:   2    -0.174362554640E+04   -0.29810E-02   -0.29571E-02   720   0.334E-01-0.946E-03
CGA:   3    -0.174362812992E+04   -0.25835E-02   -0.25490E-02   720   0.329E-01 0.129E-02
CGA:   4    -0.174363130641E+04   -0.31765E-02   -0.33156E-02   720   0.249E-01-0.306E-02
CGA:   5    -0.174363206867E+04   -0.76226E-03   -0.79964E-03   720   0.463E-02 0.227E-02
CGA:   6    -0.174363236741E+04   -0.29873E-03   -0.29696E-03   720   0.538E-02 0.277E-03
CGA:   7    -0.174363273189E+04   -0.36448E-03   -0.35812E-03   720   0.243E-02 0.630E-03
CGA:   8    -0.174363286615E+04   -0.13426E-03   -0.13059E-03   720   0.105E-02-0.710E-03
CGA:   9    -0.174363289328E+04   -0.27127E-04   -0.30368E-04   720   0.445E-03 0.268E-03
CGA:  10    -0.174363290437E+04   -0.11090E-04   -0.16293E-04   720   0.211E-03 0.224E-03
CGA:  11    -0.174363292836E+04   -0.23987E-04    0.50381E-04   720   0.124E-03 0.857E-04
CGA:  12    -0.174363294187E+04   -0.13510E-04   -0.12014E-04   720   0.729E-04 0.844E-04
CGA:  13    -0.174363295249E+04   -0.10626E-04    0.47716E-05   720   0.742E-04 0.921E-05
CGA:  14    -0.174363295356E+04   -0.10680E-05   -0.23953E-05   720   0.439E-04 0.564E-04
  95 F= -.17436330E+04 E0= -.17436044E+04  d E =0.831576E-03  mag=    46.0000
       N       E                     dE             d eps       ncg     rms          ort
SDA:   1    -0.174360958646E+04    0.23366E-01    0.00000E+00   720   0.715E-01 0.000E+00
CGA:   2    -0.174361465723E+04   -0.50708E-02   -0.49856E-02   720   0.136E+00 0.446E-02
CGA:   3    -0.174362679653E+04   -0.12139E-01   -0.12478E-01   720   0.660E-01-0.986E-02
CGA:   4    -0.174362846767E+04   -0.16711E-02   -0.17969E-02   720   0.168E-01 0.476E-02
CGA:   5    -0.174363065173E+04   -0.21841E-02   -0.21353E-02   720   0.194E-01 0.714E-03
CGA:   6    -0.174363150827E+04   -0.85654E-03   -0.84222E-03   720   0.487E-02-0.116E-02
CGA:   7    -0.174363166262E+04   -0.15435E-03   -0.16293E-03   720   0.202E-02 0.460E-03
CGA:   8    -0.174363185727E+04   -0.19466E-03   -0.18961E-03   720   0.237E-02 0.156E-03
CGA:   9    -0.174363194548E+04   -0.88210E-04   -0.95055E-04   720   0.609E-03 0.381E-03
CGA:  10    -0.174363193787E+04    0.76180E-05   -0.89702E-04   720   0.500E-02-0.134E-02
CGA:  11    -0.174363202445E+04   -0.86580E-04   -0.11412E-03   720   0.416E-03 0.793E-03
CGA:  12    -0.174363202873E+04   -0.42857E-05   -0.10631E-04   720   0.136E-03 0.188E-03
  96 F= -.17436320E+04 E0= -.17436035E+04  d E =0.924831E-03  mag=    46.0000
       N       E                     dE             d eps       ncg     rms          ort
SDA:   1    -0.174318523295E+04    0.44679E+00    0.00000E+00   720   0.132E+01 0.000E+00
CGA:   2    -0.174337745996E+04   -0.19223E+00   -0.19407E+00   720   0.298E+01-0.228E-01
CGA:   3    -0.174350397290E+04   -0.12651E+00   -0.12757E+00   720   0.744E+00 0.164E-01
CGA:   4    -0.174355703059E+04   -0.53058E-01   -0.53047E-01   720   0.930E+00-0.933E-02
CGA:   5    -0.174360679245E+04   -0.49762E-01   -0.49806E-01   720   0.321E+00 0.162E-01
CGA:   6    -0.174361784180E+04   -0.11049E-01   -0.11068E-01   720   0.653E-01 0.890E-04
CGA:   7    -0.174362313732E+04   -0.52955E-02   -0.52058E-02   720   0.552E-01 0.351E-02
CGA:   8    -0.174362730919E+04   -0.41719E-02   -0.41989E-02   720   0.435E-01-0.227E-02
CGA:   9    -0.174362857274E+04   -0.12635E-02   -0.13272E-02   720   0.717E-02 0.283E-02
CGA:  10    -0.174362912796E+04   -0.55522E-03   -0.55659E-03   720   0.102E-01-0.784E-04
CGA:  11    -0.174362974476E+04   -0.61680E-03   -0.61645E-03   720   0.770E-02 0.927E-04
CGA:  12    -0.174363010459E+04   -0.35983E-03   -0.35799E-03   720   0.229E-02-0.175E-03
CGA:  13    -0.174363021527E+04   -0.11069E-03   -0.10385E-03   720   0.197E-02-0.625E-03
CGA:  14    -0.174363030015E+04   -0.84880E-04   -0.84071E-04   720   0.179E-02 0.463E-03
CGA:  15    -0.174363041300E+04   -0.11285E-03   -0.11224E-03   720   0.999E-03-0.966E-04
CGA:  16    -0.174362915907E+04    0.12539E-02   -0.68329E-03   720   0.679E-01-0.510E-02
CGA:  17    -0.174363029972E+04   -0.11407E-02   -0.13072E-02   720   0.264E-02 0.374E-02
CGA:  18    -0.174363040256E+04   -0.10283E-03   -0.11368E-03   720   0.137E-02 0.234E-03
CGA:  19    -0.174363051168E+04   -0.10912E-03   -0.10518E-03   720   0.190E-02-0.154E-03
CGA:  20    -0.174363058130E+04   -0.69617E-04   -0.81366E-04   720   0.113E-02 0.249E-03
CGA:  21    -0.174363062766E+04   -0.46369E-04   -0.46097E-04   720   0.248E-03-0.142E-04
CGA:  22    -0.174363064041E+04   -0.12750E-04   -0.91558E-05   720   0.137E-03-0.695E-04
CGA:  23    -0.174363064178E+04   -0.13696E-05   -0.39984E-05   720   0.969E-04 0.561E-04
  97 F= -.17436306E+04 E0= -.17436021E+04  d E =0.138695E-02  mag=    46.0000
       N       E                     dE             d eps       ncg     rms          ort
SDA:   1    -0.174353734287E+04    0.93298E-01    0.00000E+00   720   0.701E+00 0.000E+00
CGA:   2    -0.174355893591E+04   -0.21593E-01   -0.22335E-01   720   0.290E+00-0.916E-02
CGA:   3    -0.174360161821E+04   -0.42682E-01   -0.43340E-01   720   0.514E+00-0.967E-02
CGA:   4    -0.174361755119E+04   -0.15933E-01   -0.15796E-01   720   0.907E-01 0.214E-01
CGA:   5    -0.174362362609E+04   -0.60749E-02   -0.59679E-02   720   0.911E-01-0.145E-02
CGA:   6    -0.174362938144E+04   -0.57554E-02   -0.57435E-02   720   0.640E-01 0.972E-05
CGA:   7    -0.174363224041E+04   -0.28590E-02   -0.28509E-02   720   0.109E-01-0.220E-02
CGA:   8    -0.174363275868E+04   -0.51828E-03   -0.52470E-03   720   0.847E-02 0.258E-03
CGA:   9    -0.174363329789E+04   -0.53920E-03   -0.55698E-03   720   0.591E-02 0.141E-02
CGA:  10    -0.174363372757E+04   -0.42968E-03   -0.39590E-03   720   0.420E-02-0.185E-02
CGA:  11    -0.174363379783E+04   -0.70262E-04   -0.92630E-04   720   0.153E-02 0.528E-03
CGA:  12    -0.174363381893E+04   -0.21096E-04   -0.45317E-04   720   0.797E-03 0.522E-03
CGA:  13    -0.174363386607E+04   -0.47142E-04   -0.50331E-04   720   0.100E-02 0.138E-03
CGA:  14    -0.174363395507E+04   -0.88997E-04   -0.90819E-04   720   0.160E-02-0.234E-03
CGA:  15    -0.174363397779E+04   -0.22723E-04   -0.26286E-04   720   0.861E-03 0.709E-04
CGA:  16    -0.174363399137E+04   -0.13582E-04   -0.18152E-04   720   0.447E-03 0.972E-04
CGA:  17    -0.174363400605E+04   -0.14674E-04   -0.13986E-04   720   0.329E-03-0.174E-04
CGA:  18    -0.174363402153E+04   -0.15479E-04   -0.13570E-04   720   0.579E-03-0.941E-04
CGA:  19    -0.174363403282E+04   -0.11293E-04   -0.11924E-04   720   0.777E-03 0.176E-04
CGA:  20    -0.174363404781E+04   -0.14987E-04   -0.18660E-04   720   0.422E-03 0.965E-04
CGA:  21    -0.174363406179E+04   -0.13982E-04   -0.12457E-04   720   0.235E-03-0.489E-04
CGA:  22    -0.174363406578E+04   -0.39967E-05   -0.19521E-04   720   0.134E-02-0.424E-03
CGA:  23    -0.174363407728E+04   -0.11494E-04   -0.26584E-04   720   0.207E-03 0.381E-03
CGA:  24    -0.174363408234E+04   -0.50617E-05   -0.68845E-05   720   0.743E-04 0.584E-04
  98 F= -.17436341E+04 E0= -.17436054E+04  d E =-.344056E-02  mag=    46.0000
       N       E                     dE             d eps       ncg     rms          ort
SDA:   1    -0.174355126204E+04    0.82815E-01    0.00000E+00   720   0.383E+00 0.000E+00
CGA:   2    -0.174356944352E+04   -0.18181E-01   -0.18230E-01   720   0.413E+00-0.591E-02
CGA:   3    -0.174359897402E+04   -0.29531E-01   -0.29226E-01   720   0.311E+00 0.167E-01
CGA:   4    -0.174361869118E+04   -0.19717E-01   -0.19707E-01   720   0.126E+00-0.253E-02
CGA:   5    -0.174362500842E+04   -0.63172E-02   -0.63064E-02   720   0.855E-01 0.568E-03
CGA:   6    -0.174362972972E+04   -0.47213E-02   -0.47264E-02   720   0.512E-01 0.559E-02
CGA:   7    -0.174363275948E+04   -0.30298E-02   -0.30285E-02   720   0.157E-01-0.557E-02
CGA:   8    -0.174363319636E+04   -0.43688E-03   -0.48220E-03   720   0.668E-02 0.217E-02
CGA:   9    -0.174363360498E+04   -0.40862E-03   -0.40906E-03   720   0.478E-02 0.500E-03
CGA:  10    -0.174363405671E+04   -0.45172E-03   -0.57763E-03   720   0.864E-02-0.219E-02
CGA:  11    -0.174363412502E+04   -0.68312E-04   -0.90877E-04   720   0.428E-02 0.585E-03
CGA:  12    -0.174363417140E+04   -0.46375E-04   -0.74473E-04   720   0.149E-02 0.743E-03
CGA:  13    -0.174363420534E+04   -0.33945E-04   -0.39056E-04   720   0.891E-03 0.164E-03
CGA:  14    -0.174363425805E+04   -0.52710E-04   -0.54138E-04   720   0.247E-02-0.548E-03
CGA:  15    -0.174363430722E+04   -0.49172E-04   -0.60717E-04   720   0.453E-03 0.416E-03
CGA:  16    -0.174363426374E+04    0.43484E-04   -0.84980E-04   720   0.541E-02-0.117E-02
CGA:  17    -0.174363436162E+04   -0.97879E-04   -0.13243E-03   720   0.587E-03 0.109E-02
CGA:  18    -0.174363438914E+04   -0.27525E-04   -0.25407E-04   720   0.134E-03-0.115E-03
CGA:  19    -0.174363439078E+04   -0.16390E-05   -0.16198E-04   720   0.779E-03-0.151E-03
CGA:  20    -0.174363441491E+04   -0.24127E-04   -0.23709E-04   720   0.115E-03-0.146E-04
CGA:  21    -0.174363441254E+04    0.23655E-05   -0.11913E-05   720   0.585E-04 0.763E-04
  99 F= -.17436344E+04 E0= -.17436058E+04  d E =-.330204E-03  mag=    46.0000
       N       E                     dE             d eps       ncg     rms          ort
SDA:   1    -0.174362410627E+04    0.10309E-01    0.00000E+00   720   0.615E-01 0.000E+00
CGA:   2    -0.174362721868E+04   -0.31124E-02   -0.31006E-02   720   0.752E-01-0.569E-02
CGA:   3    -0.174363112002E+04   -0.39013E-02   -0.38817E-02   720   0.261E-01 0.439E-02
CGA:   4    -0.174363276458E+04   -0.16446E-02   -0.16488E-02   720   0.226E-01-0.667E-03
CGA:   5    -0.174363386737E+04   -0.11028E-02   -0.10931E-02   720   0.207E-01-0.269E-02
CGA:   6    -0.174363469952E+04   -0.83216E-03   -0.85149E-03   720   0.934E-02 0.308E-02
CGA:   7    -0.174363509995E+04   -0.40043E-03   -0.40608E-03   720   0.381E-02 0.231E-03
CGA:   8    -0.174363530973E+04   -0.20977E-03   -0.22645E-03   720   0.601E-02-0.279E-02
CGA:   9    -0.174363537152E+04   -0.61792E-04   -0.11351E-03   720   0.984E-03 0.155E-02
CGA:  10    -0.174363538593E+04   -0.14411E-04   -0.28288E-04   720   0.501E-03 0.505E-03
CGA:  11    -0.174363544401E+04   -0.58080E-04    0.69309E-04   720   0.549E-03 0.850E-04
CGA:  12    -0.174363547002E+04   -0.26005E-04   -0.27951E-04   720   0.207E-03 0.342E-03
CGA:  13    -0.174363547274E+04   -0.27254E-05   -0.56381E-05   720   0.121E-03 0.134E-03
CGA:  14    -0.174363548608E+04   -0.13338E-04    0.18812E-04   720   0.947E-04 0.940E-04
CGA:  15    -0.174363548765E+04   -0.15696E-05   -0.29222E-05   720   0.812E-04 0.798E-04
 100 F= -.17436355E+04 E0= -.17436069E+04  d E =-.107510E-02  mag=    46.0000
