 vasp.6.1.2 22Jul20 (build Dec 05 2020 14:50:36) complex                        
  
 executed on         CrayXC-Intel date 2021.06.03  09:26:13
 running on   24 total cores
 distrk:  each k-point on   24 cores,    1 groups
 distr:  one band on NCORE=   6 cores,    4 groups


--------------------------------------------------------------------------------------------------------


 INCAR:
 POTCAR:    PAW_PBE Ca_sv 06Sep2000               
 POTCAR:    PAW_PBE Si 05Jan2001                  
 POTCAR:    PAW_PBE O 08Apr2002                   
 POTCAR:    PAW_PBE Ca_sv 06Sep2000               
   VRHFIN =Ca: 3s3p4s                                                                               
   LEXCH  = PE                                                                                      
   EATOM  =  1006.0909 eV,   73.9456 Ry                                                             
                                                                                                    
   TITEL  = PAW_PBE Ca_sv 06Sep2000                                                                 
   LULTRA =        F    use ultrasoft PP ?                                                          
   IUNSCR =        1    unscreen: 0-lin 1-nonlin 2-no                                               
   RPACOR =    2.000    partial core radius                                                         
   POMASS =   40.078; ZVAL   =   10.000    mass and valenz                                          
   RCORE  =    2.300    outmost cutoff radius                                                       
   RWIGS  =    2.500; RWIGS  =    1.323    wigner-seitz radius (au A)                               
   ENMAX  =  266.622; ENMIN  =  199.967 eV                                                          
   RCLOC  =    1.808    cutoff for local pot                                                        
   LCOR   =        T    correct aug charges                                                         
   LPAW   =        T    paw PP                                                                      
   EAUG   =  420.852                                                                                
   RMAX   =    2.359    core radius for proj-oper                                                   
   RAUG   =    1.300    factor for augmentation sphere                                              
   RDEP   =    2.392    radius for radial grids                                                     
   RDEPT  =    1.987    core radius for aug-charge                                                  
                                                                                                    
   Atomic configuration                                                                             
    7 entries                                                                                       
     n  l   j            E        occ.                                                              
     1  0  0.50     -3949.1705   2.0000                                                             
     2  0  0.50      -414.3434   2.0000                                                             
     2  1  1.50      -334.7047   6.0000                                                             
     3  0  0.50       -47.0896   2.0000                                                             
     4  0  0.50        -3.7663   2.0000                                                             
     3  1  1.50       -28.0061   6.0000                                                             
     3  2  1.50        -4.0817   0.0000                                                             
   Description                                                                                      
     l       E           TYP  RCUT    TYP  RCUT                                                     
     0    -47.0896403     23  2.300                                                                 
     0     -3.7663320     23  2.300                                                                 
     1    -28.0060855     23  2.300                                                                 
     1      6.8029130     23  2.300                                                                 
     2     -4.0817478     23  2.300                                                                 
     2      0.4464412     23  2.300                                                                 
  local pseudopotential read in
  partial core-charges read in
  partial kinetic energy density read in
  atomic valenz-charges read in
  non local Contribution for L=           0  read in
    real space projection operators read in
  non local Contribution for L=           0  read in
    real space projection operators read in
  non local Contribution for L=           1  read in
    real space projection operators read in
  non local Contribution for L=           1  read in
    real space projection operators read in
  non local Contribution for L=           2  read in
    real space projection operators read in
  non local Contribution for L=           2  read in
    real space projection operators read in
    PAW grid and wavefunctions read in
 
   number of l-projection  operators is LMAX  =           6
   number of lm-projection operators is LMMAX =          18
 
 POTCAR:    PAW_PBE Si 05Jan2001                  
   VRHFIN =Si: s2p2                                                                                 
   LEXCH  = PE                                                                                      
   EATOM  =   103.0669 eV,    7.5752 Ry                                                             
                                                                                                    
   TITEL  = PAW_PBE Si 05Jan2001                                                                    
   LULTRA =        F    use ultrasoft PP ?                                                          
   IUNSCR =        1    unscreen: 0-lin 1-nonlin 2-no                                               
   RPACOR =    1.500    partial core radius                                                         
   POMASS =   28.085; ZVAL   =    4.000    mass and valenz                                          
   RCORE  =    1.900    outmost cutoff radius                                                       
   RWIGS  =    2.480; RWIGS  =    1.312    wigner-seitz radius (au A)                               
   ENMAX  =  245.345; ENMIN  =  184.009 eV                                                          
   ICORE  =        2    local potential                                                             
   LCOR   =        T    correct aug charges                                                         
   LPAW   =        T    paw PP                                                                      
   EAUG   =  322.069                                                                                
   DEXC   =    0.000                                                                                
   RMAX   =    1.950    core radius for proj-oper                                                   
   RAUG   =    1.300    factor for augmentation sphere                                              
   RDEP   =    1.993    radius for radial grids                                                     
   RDEPT  =    1.837    core radius for aug-charge                                                  
                                                                                                    
   Atomic configuration                                                                             
    6 entries                                                                                       
     n  l   j            E        occ.                                                              
     1  0  0.50     -1785.8828   2.0000                                                             
     2  0  0.50      -139.4969   2.0000                                                             
     2  1  1.50       -95.5546   6.0000                                                             
     3  0  0.50       -10.8127   2.0000                                                             
     3  1  0.50        -4.0811   2.0000                                                             
     3  2  1.50        -4.0817   0.0000                                                             
   Description                                                                                      
     l       E           TYP  RCUT    TYP  RCUT                                                     
     0    -10.8127223     23  1.900                                                                 
     0     -7.6451159     23  1.900                                                                 
     1     -4.0811372     23  1.900                                                                 
     1      2.4879257     23  1.900                                                                 
     2     -4.0817478      7  1.900                                                                 
  local pseudopotential read in
  partial core-charges read in
  partial kinetic energy density read in
  atomic valenz-charges read in
  non local Contribution for L=           0  read in
    real space projection operators read in
  non local Contribution for L=           0  read in
    real space projection operators read in
  non local Contribution for L=           1  read in
    real space projection operators read in
  non local Contribution for L=           1  read in
    real space projection operators read in
    PAW grid and wavefunctions read in
 
   number of l-projection  operators is LMAX  =           4
   number of lm-projection operators is LMMAX =           8
 
 POTCAR:    PAW_PBE O 08Apr2002                   
   VRHFIN =O: s2p4                                                                                  
   LEXCH  = PE                                                                                      
   EATOM  =   432.3788 eV,   31.7789 Ry                                                             
                                                                                                    
   TITEL  = PAW_PBE O 08Apr2002                                                                     
   LULTRA =        F    use ultrasoft PP ?                                                          
   IUNSCR =        1    unscreen: 0-lin 1-nonlin 2-no                                               
   RPACOR =    1.200    partial core radius                                                         
   POMASS =   16.000; ZVAL   =    6.000    mass and valenz                                          
   RCORE  =    1.520    outmost cutoff radius                                                       
   RWIGS  =    1.550; RWIGS  =    0.820    wigner-seitz radius (au A)                               
   ENMAX  =  400.000; ENMIN  =  300.000 eV                                                          
   ICORE  =        2    local potential                                                             
   LCOR   =        T    correct aug charges                                                         
   LPAW   =        T    paw PP                                                                      
   EAUG   =  605.392                                                                                
   DEXC   =    0.000                                                                                
   RMAX   =    1.553    core radius for proj-oper                                                   
   RAUG   =    1.300    factor for augmentation sphere                                              
   RDEP   =    1.550    radius for radial grids                                                     
   RDEPT  =    1.329    core radius for aug-charge                                                  
                                                                                                    
   Atomic configuration                                                                             
    4 entries                                                                                       
     n  l   j            E        occ.                                                              
     1  0  0.50      -514.6923   2.0000                                                             
     2  0  0.50       -23.9615   2.0000                                                             
     2  1  0.50        -9.0305   4.0000                                                             
     3  2  1.50        -9.5241   0.0000                                                             
   Description                                                                                      
     l       E           TYP  RCUT    TYP  RCUT                                                     
     0    -23.9615318     23  1.200                                                                 
     0     -9.5240782     23  1.200                                                                 
     1     -9.0304911     23  1.520                                                                 
     1      8.1634956     23  1.520                                                                 
     2     -9.5240782      7  1.500                                                                 
  local pseudopotential read in
  partial core-charges read in
  partial kinetic energy density read in
  kinetic energy density of atom read in
  atomic valenz-charges read in
  non local Contribution for L=           0  read in
    real space projection operators read in
  non local Contribution for L=           0  read in
    real space projection operators read in
  non local Contribution for L=           1  read in
    real space projection operators read in
  non local Contribution for L=           1  read in
    real space projection operators read in
    PAW grid and wavefunctions read in
 
   number of l-projection  operators is LMAX  =           4
   number of lm-projection operators is LMMAX =           8
 
 Optimization of the real space projectors (new method)

 maximal supplied QI-value         = 16.25
 optimisation between [QCUT,QGAM] = [ 11.54, 23.24] = [ 37.28,151.24] Ry 
 Optimized for a Real-space Cutoff    1.58 Angstroem

   l    n(q)    QCUT    max X(q) W(low)/X(q) W(high)/X(q)  e(spline) 
   0     11    11.539    11.817    0.25E-04    0.22E-05    0.26E-07
   0     11    11.539     8.461    0.39E-04    0.49E-05    0.55E-07
   1     11    11.539     3.957    0.21E-05    0.44E-05    0.32E-07
   1     11    11.539     4.314    0.56E-04    0.44E-04    0.19E-06
   2     10    11.539    14.565    0.25E-03    0.21E-04    0.75E-06
   2     10    11.539    14.552    0.23E-03    0.22E-04    0.72E-06
 Optimization of the real space projectors (new method)

 maximal supplied QI-value         = 19.84
 optimisation between [QCUT,QGAM] = [ 11.51, 23.22] = [ 37.09,150.92] Ry 
 Optimized for a Real-space Cutoff    1.21 Angstroem

   l    n(q)    QCUT    max X(q) W(low)/X(q) W(high)/X(q)  e(spline) 
   0      8    11.508   159.560    0.71E-04    0.15E-03    0.51E-07
   0      8    11.508   115.863    0.70E-04    0.15E-03    0.51E-07
   1      8    11.508    88.339    0.16E-03    0.38E-04    0.82E-07
   1      8    11.508    48.592    0.15E-03    0.36E-04    0.79E-07
 Optimization of the real space projectors (new method)

 maximal supplied QI-value         = 24.76
 optimisation between [QCUT,QGAM] = [ 11.64, 23.27] = [ 37.91,151.63] Ry 
 Optimized for a Real-space Cutoff    1.14 Angstroem

   l    n(q)    QCUT    max X(q) W(low)/X(q) W(high)/X(q)  e(spline) 
   0      8    11.635    20.381    0.10E-03    0.33E-03    0.24E-06
   0      8    11.635    15.268    0.11E-03    0.35E-03    0.26E-06
   1      7    11.635     5.964    0.24E-03    0.31E-03    0.30E-06
   1      7    11.635     5.382    0.22E-03    0.25E-03    0.26E-06
  PAW_PBE Ca_sv 06Sep2000               :
 energy of atom  1       EATOM=-1006.0909
 kinetic energy error for atom=    0.0022 (will be added to EATOM!!)
  PAW_PBE Si 05Jan2001                  :
 energy of atom  2       EATOM= -103.0669
 kinetic energy error for atom=    0.0005 (will be added to EATOM!!)
  PAW_PBE O 08Apr2002                   :
 energy of atom  3       EATOM= -432.3788
 kinetic energy error for atom=    0.0208 (will be added to EATOM!!)
 
 
 POSCAR: Ca8 Si4 O16
  positions in direct lattice
  velocities in cartesian coordinates

 METAGGA = SCAN     LMAXTAU =  6    LMIXTAU =  F

 exchange correlation table for  LEXCH =        8
   RHO(1)=    0.500       N(1)  =     2000
   RHO(2)=  100.500       N(2)  =     4000
 


--------------------------------------------------------------------------------------------------------


 ion  position               nearest neighbor table
   1  0.226  0.843  0.069-  13 2.23  27 2.35  23 2.42  20 2.48  21 2.53   9 2.97  11 3.12
   2  0.726  0.657  0.569-  14 2.23  28 2.35  24 2.42  19 2.48  22 2.53  10 2.97  12 3.12
   3  0.774  0.157  0.931-  15 2.23  25 2.35  21 2.42  18 2.48  23 2.53  11 2.97   9 3.12
   4  0.274  0.343  0.431-  16 2.23  26 2.35  22 2.42  17 2.48  24 2.53  12 2.97  10 3.12
   5  0.216  0.498  0.799-  18 2.39  22 2.39  19 2.40  13 2.42  28 2.45   9 3.04  11 3.16
   6  0.716  0.002  0.299-  17 2.39  21 2.39  20 2.40  14 2.42  27 2.45  10 3.04  12 3.16
   7  0.784  0.502  0.201-  20 2.39  24 2.39  17 2.40  15 2.42  26 2.45  11 3.04   9 3.16
   8  0.284  0.998  0.701-  19 2.39  23 2.39  18 2.40  16 2.42  25 2.45  12 3.04  10 3.16
   9  0.268  0.281  0.082-  13 1.61  17 1.63  21 1.64  25 1.65   1 2.97   5 3.04   3 3.12   7 3.16

  10  0.768  0.219  0.582-  14 1.61  18 1.63  22 1.64  26 1.65   2 2.97   6 3.04   4 3.12   8 3.16

  11  0.732  0.719  0.918-  15 1.61  19 1.63  23 1.64  27 1.65   3 2.97   7 3.04   1 3.12   5 3.16

  12  0.232  0.781  0.418-  16 1.61  20 1.63  24 1.64  28 1.65   4 2.97   8 3.04   2 3.12   6 3.16

  13  0.215  0.513  0.060-   9 1.61   1 2.23   5 2.42
  14  0.715  0.987  0.560-  10 1.61   2 2.23   6 2.42
  15  0.785  0.487  0.940-  11 1.61   3 2.23   7 2.42
  16  0.285  0.013  0.440-  12 1.61   4 2.23   8 2.42
  17  0.479  0.250  0.192-   9 1.63   6 2.39   7 2.40   4 2.48
  18  0.979  0.250  0.692-  10 1.63   5 2.39   8 2.40   3 2.48
  19  0.521  0.750  0.808-  11 1.63   8 2.39   5 2.40   2 2.48
  20  0.021  0.750  0.308-  12 1.63   7 2.39   6 2.40   1 2.48
  21  0.013  0.166  0.138-   9 1.64   6 2.39   3 2.42   1 2.53
  22  0.513  0.334  0.638-  10 1.64   5 2.39   4 2.42   2 2.53
  23  0.987  0.834  0.862-  11 1.64   8 2.39   1 2.42   3 2.53
  24  0.487  0.666  0.362-  12 1.64   7 2.39   2 2.42   4 2.53
  25  0.348  0.172  0.926-   9 1.65   3 2.35   8 2.45
  26  0.848  0.328  0.426-  10 1.65   4 2.35   7 2.45
  27  0.652  0.828  0.074-  11 1.65   1 2.35   6 2.45
  28  0.152  0.672  0.574-  12 1.65   2 2.35   5 2.45
 

IMPORTANT INFORMATION: All symmetrisations will be switched off!
NOSYMM: (Re-)initialisation of all symmetry stuff for point group C_1.


----------------------------------------------------------------------------------------

                                     Primitive cell                                     

  volume of cell :     343.4862

  direct lattice vectors                    reciprocal lattice vectors
     5.486766856 -0.000000025  0.464997241     0.182339828  0.000000000 -0.000980925
    -0.000000017  6.745852307  0.000000048     0.000000001  0.148239237 -0.000000001
     0.049946883  0.000000054  9.284404810    -0.009132251 -0.000000001  0.107756625

  length of vectors
     5.506435596  6.745852307  9.284539157     0.182342467  0.148239237  0.108142907

  position of ions in fractional coordinates (direct lattice)
     0.225972557  0.843065647  0.068538649
     0.725972549  0.656934345  0.568538657
     0.774025483  0.156939789  0.931458932
     0.274025492  0.343060210  0.431458916
     0.215566979  0.498436549  0.798937154
     0.715566997  0.001563446  0.298937149
     0.784432526  0.501563388  0.201062671
     0.284432510  0.998436621  0.701062670
     0.267709111  0.280802050  0.081774070
     0.767709095  0.219197961  0.581774065
     0.732291477  0.719197124  0.918226250
     0.232291484  0.780802891  0.418226246
     0.214985201  0.512662991  0.059888951
     0.714985224  0.987337085  0.559888927
     0.785018464  0.487337476  0.940110946
     0.285018461  0.012662556  0.440110984
     0.479122415  0.249675984  0.191835893
     0.979122348  0.250323996  0.691835857
     0.520874724  0.750324431  0.808165938
     0.020874692  0.749675572  0.308165925
     0.012981821  0.166192830  0.137506035
     0.512981914  0.333807114  0.637506025
     0.987018796  0.833809436  0.862492836
     0.487018835  0.666190560  0.362492818
     0.348496544  0.171536763  0.926391308
     0.848496501  0.328463205  0.426391343
     0.651503905  0.828463578  0.073610373
     0.151503895  0.671536401  0.573610413

  ion indices of the primitive-cell ions
   primitive index   ion index
                 1           1
                 2           2
                 3           3
                 4           4
                 5           5
                 6           6
                 7           7
                 8           8
                 9           9
                10          10
                11          11
                12          12
                13          13
                14          14
                15          15
                16          16
                17          17
                18          18
                19          19
                20          20
                21          21
                22          22
                23          23
                24          24
                25          25
                26          26
                27          27
                28          28

----------------------------------------------------------------------------------------

 
 
 KPOINTS: K-points file                           

Automatic generation of k-mesh.
Space group operators:
 irot       det(A)        alpha          n_x          n_y          n_z        tau_x        tau_y        tau_z
    1     1.000000     0.000001     1.000000     0.000000     0.000000     0.000000     0.000000     0.000000
 
 Subroutine IBZKPT returns following result:
 ===========================================
 
 Found     62 irreducible k-points:
 
 Following reciprocal coordinates:
            Coordinates               Weight
  0.000000  0.000000  0.000000      1.000000
  0.166667 -0.000000 -0.000000      2.000000
  0.333333  0.000000  0.000000      2.000000
  0.500000 -0.000000  0.000000      1.000000
 -0.000000  0.200000 -0.000000      2.000000
  0.166667  0.200000  0.000000      2.000000
 -0.166667  0.200000 -0.000000      2.000000
  0.333333  0.200000  0.000000      2.000000
 -0.333333  0.200000 -0.000000      2.000000
  0.500000  0.200000 -0.000000      2.000000
 -0.000000  0.400000  0.000000      2.000000
  0.166667  0.400000 -0.000000      2.000000
 -0.166667  0.400000  0.000000      2.000000
  0.333333  0.400000 -0.000000      2.000000
 -0.333333  0.400000 -0.000000      2.000000
  0.500000  0.400000  0.000000      2.000000
 -0.000000 -0.000000  0.250000      2.000000
  0.166667 -0.000000  0.250000      2.000000
  0.333333 -0.000000  0.250000      2.000000
  0.500000 -0.000000  0.250000      2.000000
 -0.333333  0.000000  0.250000      2.000000
 -0.166667 -0.000000  0.250000      2.000000
 -0.000000  0.200000  0.250000      2.000000
  0.000000  0.200000 -0.250000      2.000000
  0.166667  0.200000  0.250000      2.000000
 -0.166667  0.200000 -0.250000      2.000000
  0.333333  0.200000  0.250000      2.000000
 -0.333333  0.200000 -0.250000      2.000000
  0.500000  0.200000  0.250000      2.000000
  0.500000  0.200000 -0.250000      2.000000
 -0.333333  0.200000  0.250000      2.000000
  0.333333  0.200000 -0.250000      2.000000
 -0.166667  0.200000  0.250000      2.000000
  0.166667  0.200000 -0.250000      2.000000
  0.000000  0.400000  0.250000      2.000000
 -0.000000  0.400000 -0.250000      2.000000
  0.166667  0.400000  0.250000      2.000000
 -0.166667  0.400000 -0.250000      2.000000
  0.333333  0.400000  0.250000      2.000000
 -0.333333  0.400000 -0.250000      2.000000
  0.500000  0.400000  0.250000      2.000000
  0.500000  0.400000 -0.250000      2.000000
 -0.333333  0.400000  0.250000      2.000000
  0.333333  0.400000 -0.250000      2.000000
 -0.166667  0.400000  0.250000      2.000000
  0.166667  0.400000 -0.250000      2.000000
 -0.000000 -0.000000  0.500000      1.000000
  0.166667 -0.000000  0.500000      2.000000
  0.333333 -0.000000  0.500000      2.000000
  0.500000 -0.000000  0.500000      1.000000
  0.000000  0.200000  0.500000      2.000000
  0.166667  0.200000  0.500000      2.000000
 -0.166667  0.200000  0.500000      2.000000
  0.333333  0.200000  0.500000      2.000000
 -0.333333  0.200000  0.500000      2.000000
  0.500000  0.200000  0.500000      2.000000
 -0.000000  0.400000  0.500000      2.000000
  0.166667  0.400000  0.500000      2.000000
 -0.166667  0.400000  0.500000      2.000000
  0.333333  0.400000  0.500000      2.000000
 -0.333333  0.400000  0.500000      2.000000
  0.500000  0.400000  0.500000      2.000000
 
 Following cartesian coordinates:
            Coordinates               Weight
  0.000000  0.000000  0.000000      1.000000
  0.030390  0.000000 -0.000163      2.000000
  0.060780  0.000000 -0.000327      2.000000
  0.091170  0.000000 -0.000490      1.000000
  0.000000  0.029648 -0.000000      2.000000
  0.030390  0.029648 -0.000163      2.000000
 -0.030390  0.029648  0.000163      2.000000
  0.060780  0.029648 -0.000327      2.000000
 -0.060780  0.029648  0.000327      2.000000
  0.091170  0.029648 -0.000490      2.000000
  0.000000  0.059296 -0.000000      2.000000
  0.030390  0.059296 -0.000163      2.000000
 -0.030390  0.059296  0.000163      2.000000
  0.060780  0.059296 -0.000327      2.000000
 -0.060780  0.059296  0.000327      2.000000
  0.091170  0.059296 -0.000490      2.000000
 -0.002283 -0.000000  0.026939      2.000000
  0.028107 -0.000000  0.026776      2.000000
  0.058497 -0.000000  0.026612      2.000000
  0.088887  0.000000  0.026449      2.000000
 -0.063063 -0.000000  0.027266      2.000000
 -0.032673 -0.000000  0.027103      2.000000
 -0.002283  0.029648  0.026939      2.000000
  0.002283  0.029648 -0.026939      2.000000
  0.028107  0.029648  0.026776      2.000000
 -0.028107  0.029648 -0.026776      2.000000
  0.058497  0.029648  0.026612      2.000000
 -0.058497  0.029648 -0.026612      2.000000
  0.088887  0.029648  0.026449      2.000000
  0.093453  0.029648 -0.027430      2.000000
 -0.063063  0.029648  0.027266      2.000000
  0.063063  0.029648 -0.027266      2.000000
 -0.032673  0.029648  0.027103      2.000000
  0.032673  0.029648 -0.027103      2.000000
 -0.002283  0.059296  0.026939      2.000000
  0.002283  0.059296 -0.026939      2.000000
  0.028107  0.059296  0.026776      2.000000
 -0.028107  0.059296 -0.026776      2.000000
  0.058497  0.059296  0.026612      2.000000
 -0.058497  0.059296 -0.026612      2.000000
  0.088887  0.059296  0.026449      2.000000
  0.093453  0.059296 -0.027430      2.000000
 -0.063063  0.059296  0.027266      2.000000
  0.063063  0.059296 -0.027266      2.000000
 -0.032673  0.059296  0.027103      2.000000
  0.032673  0.059296 -0.027103      2.000000
 -0.004566 -0.000000  0.053878      1.000000
  0.025824 -0.000000  0.053715      2.000000
  0.056214 -0.000000  0.053551      2.000000
  0.086604 -0.000000  0.053388      1.000000
 -0.004566  0.029648  0.053878      2.000000
  0.025824  0.029648  0.053715      2.000000
 -0.034956  0.029648  0.054042      2.000000
  0.056214  0.029648  0.053551      2.000000
 -0.065346  0.029648  0.054205      2.000000
  0.086604  0.029648  0.053388      2.000000
 -0.004566  0.059296  0.053878      2.000000
  0.025824  0.059296  0.053715      2.000000
 -0.034956  0.059296  0.054042      2.000000
  0.056214  0.059296  0.053551      2.000000
 -0.065346  0.059296  0.054205      2.000000
  0.086604  0.059296  0.053388      2.000000
 


--------------------------------------------------------------------------------------------------------




 Dimension of arrays:
   k-points           NKPTS =     62   k-points in BZ     NKDIM =     62   number of bands    NBANDS=    116
   number of dos      NEDOS =    301   number of ions     NIONS =     28
   non local maximal  LDIM  =      6   non local SUM 2l+1 LMDIM =     18
   total plane-waves  NPLWV = 147000
   max r-space proj   IRMAX =   7118   max aug-charges    IRDMAX=  20616
   dimension x,y,z NGX =    42 NGY =   50 NGZ =   70
   dimension x,y,z NGXF=    84 NGYF=  100 NGZF=  140
   support grid    NGXF=    84 NGYF=  100 NGZF=  140
   ions per type =               8   4  16
   NGX,Y,Z   is equivalent  to a cutoff of  12.68, 12.32, 12.53 a.u.
   NGXF,Y,Z  is equivalent  to a cutoff of  25.36, 24.64, 25.07 a.u.

 SYSTEM =  unknown system                          
 POSCAR =  Ca8 Si4 O16                             

 Startparameter for this run:
   NWRITE =      2    write-flag & timer
   PREC   = accura    normal or accurate (medium, high low for compatibility)
   ISTART =      0    job   : 0-new  1-cont  2-samecut
   ICHARG =      1    charge: 1-file 2-atom 10-const
   ISPIN  =      2    spin polarized calculation?
   LNONCOLLINEAR =      F non collinear calculations
   LSORBIT =      F    spin-orbit coupling
   INIWAV =      1    electr: 0-lowe 1-rand  2-diag
   LASPH  =      T    aspherical Exc in radial PAW
   METAGGA=      F    non-selfconsistent MetaGGA calc.

 Electronic Relaxation 1
   ENCUT  =  520.0 eV  38.22 Ry    6.18 a.u.  10.24 12.54 17.26*2*pi/ulx,y,z
   ENINI  =  520.0     initial cutoff
   ENAUG  =  605.4 eV  augmentation charge cutoff
   NELM   =    100;   NELMIN=  6; NELMDL= -5     # of ELM steps 
   EDIFF  = 0.1E-04   stopping-criterion for ELM
   LREAL  =      T    real-space projection
   NLSPLINE    = F    spline interpolate recip. space projectors
   LCOMPAT=      F    compatible to vasp.4.4
   GGA_COMPAT  = T    GGA compatible to vasp.4.4-vasp.4.6
   LMAXPAW     = -100 max onsite density
   LMAXMIX     =    4 max onsite mixed and CHGCAR
   VOSKOWN=      0    Vosko Wilk Nusair interpolation
   ROPT   =   -0.00025  -0.00025  -0.00025
 Ionic relaxation
   EDIFFG = -.3E-01   stopping-criterion for IOM
   NSW    =     99    number of steps for IOM
   NBLOCK =      1;   KBLOCK =     99    inner block; outer block 
   IBRION =      2    ionic relax: 0-MD 1-quasi-New 2-CG
   NFREE  =      1    steps in history (QN), initial steepest desc. (CG)
   ISIF   =      3    stress and relaxation
   IWAVPR =     11    prediction:  0-non 1-charg 2-wave 3-comb
   ISYM   =      0    0-nonsym 1-usesym 2-fastsym
   LCORR  =      T    Harris-Foulkes like correction to forces

   POTIM  = 0.5000    time-step for ionic-motion
   TEIN   =    0.0    initial temperature
   TEBEG  =    0.0;   TEEND  =   0.0 temperature during run
   SMASS  =  -3.00    Nose mass-parameter (am)
   estimated Nose-frequenzy (Omega)   =  0.10E-29 period in steps = 0.13E+47 mass=  -0.693E-27a.u.
   SCALEE = 1.0000    scale energy and forces
   NPACO  =    256;   APACO  = 16.0  distance and # of slots for P.C.
   PSTRESS=    0.0 pullay stress

  Mass of Ions in am
   POMASS =  40.08 28.09 16.00
  Ionic Valenz
   ZVAL   =  10.00  4.00  6.00
  Atomic Wigner-Seitz radii
   RWIGS  =  -1.00 -1.00 -1.00
  virtual crystal weights 
   VCA    =   1.00  1.00  1.00
   NELECT =     192.0000    total number of electrons
   NUPDOWN=      -1.0000    fix difference up-down

 DOS related values:
   EMIN   =  10.00;   EMAX   =-10.00  energy-range for DOS
   EFERMI =   0.00
   ISMEAR =     0;   SIGMA  =   0.05  broadening in eV -4-tet -1-fermi 0-gaus

 Electronic relaxation 2 (details)
   IALGO  =     38    algorithm
   LDIAG  =      T    sub-space diagonalisation (order eigenvalues)
   LSUBROT=      F    optimize rotation matrix (better conditioning)
   TURBO    =      0    0=normal 1=particle mesh
   IRESTART =      0    0=no restart 2=restart with 2 vectors
   NREBOOT  =      0    no. of reboots
   NMIN     =      0    reboot dimension
   EREF     =   0.00    reference energy to select bands
   IMIX   =      4    mixing-type and parameters
     AMIX     =   0.40;   BMIX     =  1.00
     AMIX_MAG =   1.60;   BMIX_MAG =  1.00
     AMIN     =   0.10
     WC   =   100.;   INIMIX=   1;  MIXPRE=   1;  MAXMIX= -45

 Intra band minimization:
   WEIMIN = 0.0010     energy-eigenvalue tresh-hold
   EBREAK =  0.22E-07  absolut break condition
   DEPER  =   0.30     relativ break condition  

   TIME   =   0.40     timestep for ELM

  volume/ion in A,a.u.               =      12.27        82.78
  Fermi-wavevector in a.u.,A,eV,Ry     =   1.348566  2.548420 24.743957  1.818630
  Thomas-Fermi vector in A             =   2.476224
 
 Write flags
   LWAVE        =      F    write WAVECAR
   LDOWNSAMPLE  =      F    k-point downsampling of WAVECAR
   LCHARG       =      T    write CHGCAR
   LVTOT        =      F    write LOCPOT, total local potential
   LVHAR        =      F    write LOCPOT, Hartree potential only
   LELF         =      F    write electronic localiz. function (ELF)
   LORBIT       =     11    0 simple, 1 ext, 2 COOP (PROOUT), +10 PAW based schemes


 Dipole corrections
   LMONO  =      F    monopole corrections only (constant potential shift)
   LDIPOL =      F    correct potential (dipole corrections)
   IDIPOL =      0    1-x, 2-y, 3-z, 4-all directions 
   EPSILON=  1.0000000 bulk dielectric constant

 LDA+U is selected, type is set to LDAUTYPE =  2
   angular momentum for each species LDAUL =    -1   -1   -1
   U (eV)           for each species LDAUU =   0.0  0.0  0.0
   J (eV)           for each species LDAUJ =   0.0  0.0  0.0
 Exchange correlation treatment:
   GGA     =    --    GGA type
   LEXCH   =     8    internal setting for exchange type
   VOSKOWN=      0    Vosko Wilk Nusair interpolation
   LHFCALC =     F    Hartree Fock is set to
   LHFONE  =     F    Hartree Fock one center treatment
   AEXX    =    0.0000 exact exchange contribution

 Linear response parameters
   LEPSILON=     F    determine dielectric tensor
   LRPA    =     F    only Hartree local field effects (RPA)
   LNABLA  =     F    use nabla operator in PAW spheres
   LVEL    =     F    velocity operator in full k-point grid
   LINTERFAST=   F  fast interpolation
   KINTER  =     0    interpolate to denser k-point grid
   CSHIFT  =0.1000    complex shift for real part using Kramers Kronig
   OMEGAMAX=  -1.0    maximum frequency
   DEG_THRESHOLD= 0.2000000E-02 threshold for treating states as degnerate
   RTIME   =   -0.100 relaxation time in fs
  (WPLASMAI=    0.000 imaginary part of plasma frequency in eV, 0.658/RTIME)
   DFIELD  = 0.0000000 0.0000000 0.0000000 field for delta impulse in time
 
 Orbital magnetization related:
   ORBITALMAG=     F  switch on orbital magnetization
   LCHIMAG   =     F  perturbation theory with respect to B field
   DQ        =  0.001000  dq finite difference perturbation B field
   LLRAUG    =     F  two centre corrections for induced B field



--------------------------------------------------------------------------------------------------------


 conjugate gradient relaxation of ions
 charge density and potential will be updated during run
 spin polarized calculation
 Variant of blocked Davidson
 Davidson routine will perform the subspace rotation
 perform sub-space diagonalisation
    after iterative eigenvector-optimisation
 modified Broyden-mixing scheme, WC =      100.0
 initial mixing is a Kerker type mixing with AMIX =  0.4000 and BMIX =      1.0000
 Hartree-type preconditioning will be used
 using additional bands           20
 real space projection scheme for non local part
 use partial core corrections
 calculate Harris-corrections to forces 
   (improved forces if not selfconsistent)
 use gradient corrections 
 use of overlap-Matrix (Vanderbilt PP)
 Gauss-broadening in eV      SIGMA  =   0.05


--------------------------------------------------------------------------------------------------------


  energy-cutoff  :      520.00
  volume of cell :      343.49
      direct lattice vectors                 reciprocal lattice vectors
     5.486766856 -0.000000025  0.464997241     0.182339828  0.000000000 -0.000980925
    -0.000000017  6.745852307  0.000000048     0.000000001  0.148239237 -0.000000001
     0.049946883  0.000000054  9.284404810    -0.009132251 -0.000000001  0.107756625

  length of vectors
     5.506435596  6.745852307  9.284539157     0.182342467  0.148239237  0.108142907


 
 k-points in units of 2pi/SCALE and weight: K-points file                           
   0.00000000  0.00000000  0.00000000       0.008
   0.03038997  0.00000000 -0.00016349       0.017
   0.06077994  0.00000000 -0.00032698       0.017
   0.09116991  0.00000000 -0.00049046       0.008
   0.00000000  0.02964785 -0.00000000       0.017
   0.03038997  0.02964785 -0.00016349       0.017
  -0.03038997  0.02964785  0.00016349       0.017
   0.06077994  0.02964785 -0.00032698       0.017
  -0.06077994  0.02964785  0.00032697       0.017
   0.09116991  0.02964785 -0.00049046       0.017
   0.00000000  0.05929569 -0.00000000       0.017
   0.03038997  0.05929569 -0.00016349       0.017
  -0.03038997  0.05929569  0.00016349       0.017
   0.06077994  0.05929570 -0.00032698       0.017
  -0.06077994  0.05929569  0.00032697       0.017
   0.09116991  0.05929570 -0.00049046       0.017
  -0.00228306 -0.00000000  0.02693916       0.017
   0.02810691 -0.00000000  0.02677567       0.017
   0.05849688 -0.00000000  0.02661218       0.017
   0.08888685  0.00000000  0.02644869       0.017
  -0.06306301 -0.00000000  0.02726613       0.017
  -0.03267303 -0.00000000  0.02710264       0.017
  -0.00228306  0.02964785  0.02693916       0.017
   0.00228306  0.02964785 -0.02693916       0.017
   0.02810691  0.02964785  0.02677567       0.017
  -0.02810691  0.02964785 -0.02677567       0.017
   0.05849688  0.02964785  0.02661218       0.017
  -0.05849688  0.02964785 -0.02661218       0.017
   0.08888685  0.02964785  0.02644869       0.017
   0.09345298  0.02964785 -0.02742962       0.017
  -0.06306301  0.02964785  0.02726613       0.017
   0.06306301  0.02964785 -0.02726613       0.017
  -0.03267303  0.02964785  0.02710264       0.017
   0.03267303  0.02964785 -0.02710264       0.017
  -0.00228306  0.05929569  0.02693916       0.017
   0.00228306  0.05929570 -0.02693916       0.017
   0.02810691  0.05929569  0.02677567       0.017
  -0.02810691  0.05929569 -0.02677567       0.017
   0.05849688  0.05929569  0.02661218       0.017
  -0.05849688  0.05929569 -0.02661218       0.017
   0.08888685  0.05929569  0.02644869       0.017
   0.09345298  0.05929570 -0.02742962       0.017
  -0.06306301  0.05929569  0.02726613       0.017
   0.06306301  0.05929570 -0.02726613       0.017
  -0.03267303  0.05929569  0.02710264       0.017
   0.03267303  0.05929570 -0.02710264       0.017
  -0.00456613 -0.00000000  0.05387831       0.008
   0.02582385 -0.00000000  0.05371482       0.017
   0.05621382 -0.00000000  0.05355134       0.017
   0.08660379 -0.00000000  0.05338785       0.008
  -0.00456613  0.02964785  0.05387831       0.017
   0.02582385  0.02964785  0.05371482       0.017
  -0.03495610  0.02964785  0.05404180       0.017
   0.05621382  0.02964785  0.05355134       0.017
  -0.06534607  0.02964785  0.05420529       0.017
   0.08660379  0.02964785  0.05338785       0.017
  -0.00456613  0.05929569  0.05387831       0.017
   0.02582385  0.05929569  0.05371482       0.017
  -0.03495610  0.05929569  0.05404180       0.017
   0.05621382  0.05929569  0.05355134       0.017
  -0.06534607  0.05929569  0.05420529       0.017
   0.08660379  0.05929569  0.05338785       0.017
 
 k-points in reciprocal lattice and weights: K-points file                           
   0.00000000  0.00000000  0.00000000       0.008
   0.16666667 -0.00000000 -0.00000000       0.017
   0.33333333  0.00000000  0.00000000       0.017
   0.50000000 -0.00000000  0.00000000       0.008
  -0.00000000  0.20000000 -0.00000000       0.017
   0.16666667  0.20000000  0.00000000       0.017
  -0.16666667  0.20000000 -0.00000000       0.017
   0.33333333  0.20000000  0.00000000       0.017
  -0.33333333  0.20000000 -0.00000000       0.017
   0.50000000  0.20000000 -0.00000000       0.017
  -0.00000000  0.40000000  0.00000000       0.017
   0.16666667  0.40000000 -0.00000000       0.017
  -0.16666667  0.40000000  0.00000000       0.017
   0.33333333  0.40000000 -0.00000000       0.017
  -0.33333333  0.40000000 -0.00000000       0.017
   0.50000000  0.40000000  0.00000000       0.017
  -0.00000000 -0.00000000  0.25000000       0.017
   0.16666667 -0.00000000  0.25000000       0.017
   0.33333333 -0.00000000  0.25000000       0.017
   0.50000000 -0.00000000  0.25000000       0.017
  -0.33333333  0.00000000  0.25000000       0.017
  -0.16666667 -0.00000000  0.25000000       0.017
  -0.00000000  0.20000000  0.25000000       0.017
   0.00000000  0.20000000 -0.25000000       0.017
   0.16666667  0.20000000  0.25000000       0.017
  -0.16666667  0.20000000 -0.25000000       0.017
   0.33333333  0.20000000  0.25000000       0.017
  -0.33333333  0.20000000 -0.25000000       0.017
   0.50000000  0.20000000  0.25000000       0.017
   0.50000000  0.20000000 -0.25000000       0.017
  -0.33333333  0.20000000  0.25000000       0.017
   0.33333333  0.20000000 -0.25000000       0.017
  -0.16666667  0.20000000  0.25000000       0.017
   0.16666667  0.20000000 -0.25000000       0.017
   0.00000000  0.40000000  0.25000000       0.017
  -0.00000000  0.40000000 -0.25000000       0.017
   0.16666667  0.40000000  0.25000000       0.017
  -0.16666667  0.40000000 -0.25000000       0.017
   0.33333333  0.40000000  0.25000000       0.017
  -0.33333333  0.40000000 -0.25000000       0.017
   0.50000000  0.40000000  0.25000000       0.017
   0.50000000  0.40000000 -0.25000000       0.017
  -0.33333333  0.40000000  0.25000000       0.017
   0.33333333  0.40000000 -0.25000000       0.017
  -0.16666667  0.40000000  0.25000000       0.017
   0.16666667  0.40000000 -0.25000000       0.017
  -0.00000000 -0.00000000  0.50000000       0.008
   0.16666667 -0.00000000  0.50000000       0.017
   0.33333333 -0.00000000  0.50000000       0.017
   0.50000000 -0.00000000  0.50000000       0.008
   0.00000000  0.20000000  0.50000000       0.017
   0.16666667  0.20000000  0.50000000       0.017
  -0.16666667  0.20000000  0.50000000       0.017
   0.33333333  0.20000000  0.50000000       0.017
  -0.33333333  0.20000000  0.50000000       0.017
   0.50000000  0.20000000  0.50000000       0.017
  -0.00000000  0.40000000  0.50000000       0.017
   0.16666667  0.40000000  0.50000000       0.017
  -0.16666667  0.40000000  0.50000000       0.017
   0.33333333  0.40000000  0.50000000       0.017
  -0.33333333  0.40000000  0.50000000       0.017
   0.50000000  0.40000000  0.50000000       0.017
 
 position of ions in fractional coordinates (direct lattice) 
   0.22597256  0.84306565  0.06853865
   0.72597255  0.65693434  0.56853866
   0.77402548  0.15693979  0.93145893
   0.27402549  0.34306021  0.43145892
   0.21556698  0.49843655  0.79893715
   0.71556700  0.00156345  0.29893715
   0.78443253  0.50156339  0.20106267
   0.28443251  0.99843662  0.70106267
   0.26770911  0.28080205  0.08177407
   0.76770909  0.21919796  0.58177406
   0.73229148  0.71919712  0.91822625
   0.23229148  0.78080289  0.41822625
   0.21498520  0.51266299  0.05988895
   0.71498522  0.98733708  0.55988893
   0.78501846  0.48733748  0.94011095
   0.28501846  0.01266256  0.44011098
   0.47912242  0.24967598  0.19183589
   0.97912235  0.25032400  0.69183586
   0.52087472  0.75032443  0.80816594
   0.02087469  0.74967557  0.30816593
   0.01298182  0.16619283  0.13750604
   0.51298191  0.33380711  0.63750602
   0.98701880  0.83380944  0.86249284
   0.48701883  0.66619056  0.36249282
   0.34849654  0.17153676  0.92639131
   0.84849650  0.32846320  0.42639134
   0.65150391  0.82846358  0.07361037
   0.15150390  0.67153640  0.57361041
 
 position of ions in cartesian coordinates  (Angst):
   1.24328201  5.68719634  0.74141722
   4.01163884  4.43158208  5.61611831
   4.29342083  1.05869267  9.00796151
   1.52506401  2.31423352  4.13326035
   1.22267017  3.36237938  7.51789403
   3.94108026  0.01054678  3.10819018
   4.31404083  3.38347253  2.23150622
   1.59563075  6.73530602  6.64121001
   1.47294183  1.89424916  0.88370758
   4.24129861  1.47867708  5.75840855
   4.06377513  4.85159761  8.86569776
   1.29541830  5.26718100  3.99099671
   1.18256493  3.45834882  0.65600081
   3.95092192  6.66043016  5.53070165
   4.35416889  3.28750667  9.09340203
   1.58581202  0.08541975  4.21870133
   2.63841459  1.68427731  2.00387270
   5.40677109  1.68864872  6.87857336
   2.89828353  5.06157782  7.74554507
   0.12992648  5.05720070  2.87084391
   0.07809622  1.12111230  1.28269821
   2.84645359  2.25181351  6.15739919
   5.45862083  5.62475533  8.46669369
   2.69026418  4.49402313  3.59199251
   1.95838964  1.15716171  8.76304186
   4.67679939  2.21576427  4.35333839
   3.57832663  5.58869292  0.98637606
   0.85991659  4.53008541  5.39608020
 


--------------------------------------------------------------------------------------------------------


 k-point   1 :   0.0000 0.0000 0.0000  plane waves:    9259
 k-point   2 :   0.1667-0.0000-0.0000  plane waves:    9268
 k-point   3 :   0.3333 0.0000 0.0000  plane waves:    9265
 k-point   4 :   0.5000-0.0000 0.0000  plane waves:    9280
 k-point   5 :  -0.0000 0.2000-0.0000  plane waves:    9243
 k-point   6 :   0.1667 0.2000 0.0000  plane waves:    9255
 k-point   7 :  -0.1667 0.2000-0.0000  plane waves:    9255
 k-point   8 :   0.3333 0.2000 0.0000  plane waves:    9249
 k-point   9 :  -0.3333 0.2000-0.0000  plane waves:    9249
 k-point  10 :   0.5000 0.2000-0.0000  plane waves:    9250
 k-point  11 :  -0.0000 0.4000 0.0000  plane waves:    9247
 k-point  12 :   0.1667 0.4000-0.0000  plane waves:    9241
 k-point  13 :  -0.1667 0.4000 0.0000  plane waves:    9241
 k-point  14 :   0.3333 0.4000-0.0000  plane waves:    9251
 k-point  15 :  -0.3333 0.4000-0.0000  plane waves:    9251
 k-point  16 :   0.5000 0.4000 0.0000  plane waves:    9232
 k-point  17 :  -0.0000-0.0000 0.2500  plane waves:    9233
 k-point  18 :   0.1667-0.0000 0.2500  plane waves:    9266
 k-point  19 :   0.3333-0.0000 0.2500  plane waves:    9260
 k-point  20 :   0.5000-0.0000 0.2500  plane waves:    9259
 k-point  21 :  -0.3333 0.0000 0.2500  plane waves:    9282
 k-point  22 :  -0.1667-0.0000 0.2500  plane waves:    9255
 k-point  23 :  -0.0000 0.2000 0.2500  plane waves:    9246
 k-point  24 :   0.0000 0.2000-0.2500  plane waves:    9246
 k-point  25 :   0.1667 0.2000 0.2500  plane waves:    9269
 k-point  26 :  -0.1667 0.2000-0.2500  plane waves:    9269
 k-point  27 :   0.3333 0.2000 0.2500  plane waves:    9240
 k-point  28 :  -0.3333 0.2000-0.2500  plane waves:    9240
 k-point  29 :   0.5000 0.2000 0.2500  plane waves:    9241
 k-point  30 :   0.5000 0.2000-0.2500  plane waves:    9241
 k-point  31 :  -0.3333 0.2000 0.2500  plane waves:    9253
 k-point  32 :   0.3333 0.2000-0.2500  plane waves:    9253
 k-point  33 :  -0.1667 0.2000 0.2500  plane waves:    9250
 k-point  34 :   0.1667 0.2000-0.2500  plane waves:    9250
 k-point  35 :   0.0000 0.4000 0.2500  plane waves:    9253
 k-point  36 :  -0.0000 0.4000-0.2500  plane waves:    9253
 k-point  37 :   0.1667 0.4000 0.2500  plane waves:    9242
 k-point  38 :  -0.1667 0.4000-0.2500  plane waves:    9242
 k-point  39 :   0.3333 0.4000 0.2500  plane waves:    9233
 k-point  40 :  -0.3333 0.4000-0.2500  plane waves:    9233
 k-point  41 :   0.5000 0.4000 0.2500  plane waves:    9245
 k-point  42 :   0.5000 0.4000-0.2500  plane waves:    9245
 k-point  43 :  -0.3333 0.4000 0.2500  plane waves:    9225
 k-point  44 :   0.3333 0.4000-0.2500  plane waves:    9225
 k-point  45 :  -0.1667 0.4000 0.2500  plane waves:    9226
 k-point  46 :   0.1667 0.4000-0.2500  plane waves:    9226
 k-point  47 :  -0.0000-0.0000 0.5000  plane waves:    9228
 k-point  48 :   0.1667-0.0000 0.5000  plane waves:    9256
 k-point  49 :   0.3333-0.0000 0.5000  plane waves:    9255
 k-point  50 :   0.5000-0.0000 0.5000  plane waves:    9244
 k-point  51 :   0.0000 0.2000 0.5000  plane waves:    9256
 k-point  52 :   0.1667 0.2000 0.5000  plane waves:    9251
 k-point  53 :  -0.1667 0.2000 0.5000  plane waves:    9251
 k-point  54 :   0.3333 0.2000 0.5000  plane waves:    9256
 k-point  55 :  -0.3333 0.2000 0.5000  plane waves:    9256
 k-point  56 :   0.5000 0.2000 0.5000  plane waves:    9256
 k-point  57 :  -0.0000 0.4000 0.5000  plane waves:    9256
 k-point  58 :   0.1667 0.4000 0.5000  plane waves:    9235
 k-point  59 :  -0.1667 0.4000 0.5000  plane waves:    9235
 k-point  60 :   0.3333 0.4000 0.5000  plane waves:    9243
 k-point  61 :  -0.3333 0.4000 0.5000  plane waves:    9243
 k-point  62 :   0.5000 0.4000 0.5000  plane waves:    9270

 maximum and minimum number of plane-waves per node :      1569     1497

 maximum number of plane-waves:      9282
 maximum index in each direction: 
   IXMAX=   10   IYMAX=   12   IZMAX=   17
   IXMIN=  -10   IYMIN=  -12   IZMIN=  -17


 real space projection operators:
  total allocation   :      11074.00 KBytes
  max/ min on nodes  :       1852.77       1831.47


 parallel 3D FFT for wavefunctions:
    minimum data exchange during FFTs selected (reduces bandwidth)
 parallel 3D FFT for charge:
    minimum data exchange during FFTs selected (reduces bandwidth)


 total amount of memory used by VASP MPI-rank0   140771. kBytes
=======================================================================

   base      :      30000. kBytes
   nonlr-proj:       5634. kBytes
   fftplans  :       2572. kBytes
   grid      :       9432. kBytes
   one-center:        155. kBytes
   wavefun   :      92978. kBytes
 
     INWAV:  cpu time    0.0000: real time    0.0000
 Broyden mixing: mesh for mixing (old mesh)
   NGX = 21   NGY = 25   NGZ = 35
  (NGX  = 84   NGY  =100   NGZ  =140)
  gives a total of  18375 points

 initial charge density was supplied:
 number of electron     192.0000005 magnetization       0.0000258
 keeping initial charge density in first step


--------------------------------------------------------------------------------------------------------


 Maximum index for non-local projection operator         1181
 Maximum index for augmentation-charges          878 (set IRDMAX)


--------------------------------------------------------------------------------------------------------


 First call to EWALD:  gamma=   0.253
 Maximum number of real-space cells 3x 3x 2
 Maximum number of reciprocal cells 2x 3x 3

    FEWALD:  cpu time    0.0020: real time    0.0020


--------------------------------------- Iteration      1(   1)  ---------------------------------------


    POTLOK:  cpu time    0.1300: real time    0.1335
    SETDIJ:  cpu time    1.7388: real time    1.7389
     EDDAV:  cpu time   53.6442: real time   53.6524
       DOS:  cpu time    0.0093: real time    0.0093
    --------------------------------------------
      LOOP:  cpu time   55.5222: real time   55.5341

 eigenvalue-minimisations  : 28784
 total energy-change (2. order) : 0.1923016E+04  (-0.9912935E+04)
 number of electron     192.0000005 magnetization       0.0000258
 augmentation part      192.0000005 magnetization       0.0000258

 Free energy of the ion-electron system (eV)
  ---------------------------------------------------
  alpha Z        PSCENC =       793.63312877
  Ewald energy   TEWEN  =    -11993.71819774
  -Hartree energ DENC   =     -3489.19058336
  -exchange      EXHF   =         0.00000000
  -V(xc)+E(xc)   XCENC  =       916.11295753
  PAW double counting   =     22325.70011912   -22382.02314644
  entropy T*S    EENTRO =        -0.00796506
  eigenvalues    EBANDS =       373.80726363
  atomic energy  EATOM  =     15378.70261268
  Solvation  Ediel_sol  =         0.00000000
  ---------------------------------------------------
  free energy    TOTEN  =      1923.01618913 eV

  energy without entropy =     1923.02415419  energy(sigma->0) =     1923.02017166


--------------------------------------------------------------------------------------------------------




--------------------------------------- Iteration      1(   2)  ---------------------------------------


     EDDAV:  cpu time   58.3695: real time   58.3730
       DOS:  cpu time    0.0075: real time    0.0075
    --------------------------------------------
      LOOP:  cpu time   58.3770: real time   58.3805

 eigenvalue-minimisations  : 32928
 total energy-change (2. order) :-0.2057241E+04  (-0.1981142E+04)
 number of electron     192.0000005 magnetization       0.0000258
 augmentation part      192.0000005 magnetization       0.0000258

 Free energy of the ion-electron system (eV)
  ---------------------------------------------------
  alpha Z        PSCENC =       793.63312877
  Ewald energy   TEWEN  =    -11993.71819774
  -Hartree energ DENC   =     -3489.19058336
  -exchange      EXHF   =         0.00000000
  -V(xc)+E(xc)   XCENC  =       916.11295753
  PAW double counting   =     22325.70011912   -22382.02314644
  entropy T*S    EENTRO =        -0.00044988
  eigenvalues    EBANDS =     -1683.44173581
  atomic energy  EATOM  =     15378.70261268
  Solvation  Ediel_sol  =         0.00000000
  ---------------------------------------------------
  free energy    TOTEN  =      -134.22529513 eV

  energy without entropy =     -134.22484526  energy(sigma->0) =     -134.22507019


--------------------------------------------------------------------------------------------------------




--------------------------------------- Iteration      1(   3)  ---------------------------------------


     EDDAV:  cpu time   62.8074: real time   62.8106
       DOS:  cpu time    0.0035: real time    0.0035
    --------------------------------------------
      LOOP:  cpu time   62.8109: real time   62.8142

 eigenvalue-minimisations  : 36812
 total energy-change (2. order) :-0.2223209E+03  (-0.2208251E+03)
 number of electron     192.0000005 magnetization       0.0000258
 augmentation part      192.0000005 magnetization       0.0000258

 Free energy of the ion-electron system (eV)
  ---------------------------------------------------
  alpha Z        PSCENC =       793.63312877
  Ewald energy   TEWEN  =    -11993.71819774
  -Hartree energ DENC   =     -3489.19058336
  -exchange      EXHF   =         0.00000000
  -V(xc)+E(xc)   XCENC  =       916.11295753
  PAW double counting   =     22325.70011912   -22382.02314644
  entropy T*S    EENTRO =        -0.00000000
  eigenvalues    EBANDS =     -1905.76313376
  atomic energy  EATOM  =     15378.70261268
  Solvation  Ediel_sol  =         0.00000000
  ---------------------------------------------------
  free energy    TOTEN  =      -356.54624320 eV

  energy without entropy =     -356.54624320  energy(sigma->0) =     -356.54624320


--------------------------------------------------------------------------------------------------------




--------------------------------------- Iteration      1(   4)  ---------------------------------------


     EDDAV:  cpu time   74.3251: real time   74.3290
       DOS:  cpu time    0.0034: real time    0.0034
    --------------------------------------------
      LOOP:  cpu time   74.3284: real time   74.3324

 eigenvalue-minimisations  : 46944
 total energy-change (2. order) :-0.1067704E+02  (-0.1064440E+02)
 number of electron     192.0000005 magnetization       0.0000258
 augmentation part      192.0000005 magnetization       0.0000258

 Free energy of the ion-electron system (eV)
  ---------------------------------------------------
  alpha Z        PSCENC =       793.63312877
  Ewald energy   TEWEN  =    -11993.71819774
  -Hartree energ DENC   =     -3489.19058336
  -exchange      EXHF   =         0.00000000
  -V(xc)+E(xc)   XCENC  =       916.11295753
  PAW double counting   =     22325.70011912   -22382.02314644
  entropy T*S    EENTRO =        -0.00000000
  eigenvalues    EBANDS =     -1916.44016962
  atomic energy  EATOM  =     15378.70261268
  Solvation  Ediel_sol  =         0.00000000
  ---------------------------------------------------
  free energy    TOTEN  =      -367.22327906 eV

  energy without entropy =     -367.22327906  energy(sigma->0) =     -367.22327906


--------------------------------------------------------------------------------------------------------




--------------------------------------- Iteration      1(   5)  ---------------------------------------


     EDDAV:  cpu time   72.1377: real time   72.1418
       DOS:  cpu time    0.0034: real time    0.0034
    CHARGE:  cpu time    7.6262: real time    7.6265
    MIXING:  cpu time    0.0014: real time    0.0014
    --------------------------------------------
      LOOP:  cpu time   79.7688: real time   79.7733

 eigenvalue-minimisations  : 45024
 total energy-change (2. order) :-0.8352832E+00  (-0.8348561E+00)
 number of electron     192.0000005 magnetization       0.0000128
 augmentation part       29.4992592 magnetization      -0.0029873

 Broyden mixing:
  rms(total) = 0.46125E+00    rms(broyden)= 0.46104E+00
  rms(prec ) = 0.60622E+00
  weight for this iteration     100.00

 Free energy of the ion-electron system (eV)
  ---------------------------------------------------
  alpha Z        PSCENC =       793.63312877
  Ewald energy   TEWEN  =    -11993.71819774
  -Hartree energ DENC   =     -3489.19058336
  -exchange      EXHF   =         0.00000000
  -V(xc)+E(xc)   XCENC  =       916.11295753
  PAW double counting   =     22325.70011912   -22382.02314644
  entropy T*S    EENTRO =        -0.00000000
  eigenvalues    EBANDS =     -1917.27545282
  atomic energy  EATOM  =     15378.70261268
  Solvation  Ediel_sol  =         0.00000000
  ---------------------------------------------------
  free energy    TOTEN  =      -368.05856227 eV

  energy without entropy =     -368.05856227  energy(sigma->0) =     -368.05856227


--------------------------------------------------------------------------------------------------------




--------------------------------------- Iteration      1(   6)  ---------------------------------------


    POTLOK:  cpu time    0.1248: real time    0.1248
    SETDIJ:  cpu time    1.7412: real time    1.7413
     EDDAV:  cpu time   57.9007: real time   57.9039
       DOS:  cpu time    0.0038: real time    0.0038
    CHARGE:  cpu time    7.6314: real time    7.6317
    MIXING:  cpu time    0.0016: real time    0.0016
    --------------------------------------------
      LOOP:  cpu time   67.4033: real time   67.4069

 eigenvalue-minimisations  : 32388
 total energy-change (2. order) : 0.5756199E+02  (-0.2240835E+01)
 number of electron     192.0000005 magnetization       0.0000094
 augmentation part       31.2063700 magnetization      -0.0012689

 Broyden mixing:
  rms(total) = 0.41851E+00    rms(broyden)= 0.41808E+00
  rms(prec ) = 0.54547E+00
  weight for this iteration     100.00

 eigenvalues of (default mixing * dielectric matrix)
  average eigenvalue GAMMA=   0.5250
  0.5250

 Free energy of the ion-electron system (eV)
  ---------------------------------------------------
  alpha Z        PSCENC =       793.63312877
  Ewald energy   TEWEN  =    -11993.71819774
  -Hartree energ DENC   =     -3449.14860695
  -exchange      EXHF   =         0.00000000
  -V(xc)+E(xc)   XCENC  =       934.38046240
  PAW double counting   =     22382.60064616   -22434.04924088
  entropy T*S    EENTRO =        -0.00000000
  eigenvalues    EBANDS =     -1922.89737295
  atomic energy  EATOM  =     15378.70261268
  Solvation  Ediel_sol  =         0.00000000
  ---------------------------------------------------
  free energy    TOTEN  =      -310.49656851 eV

  energy without entropy =     -310.49656851  energy(sigma->0) =     -310.49656851


--------------------------------------------------------------------------------------------------------




--------------------------------------- Iteration      1(   7)  ---------------------------------------


    POTLOK:  cpu time    0.1242: real time    0.1242
    SETDIJ:  cpu time    1.7410: real time    1.7411
     EDDAV:  cpu time   67.5112: real time   67.5151
       DOS:  cpu time    0.0035: real time    0.0035
    CHARGE:  cpu time    7.6326: real time    7.6329
    MIXING:  cpu time    0.0016: real time    0.0016
    --------------------------------------------
      LOOP:  cpu time   77.0141: real time   77.0183

 eigenvalue-minimisations  : 40896
 total energy-change (2. order) : 0.1397343E+00  (-0.1754003E+00)
 number of electron     192.0000005 magnetization       0.0000070
 augmentation part       31.2802728 magnetization       0.0005926

 Broyden mixing:
  rms(total) = 0.23376E+00    rms(broyden)= 0.23376E+00
  rms(prec ) = 0.30635E+00
  weight for this iteration     100.00

 eigenvalues of (default mixing * dielectric matrix)
  average eigenvalue GAMMA=   0.6432
  0.6432  0.6432

 Free energy of the ion-electron system (eV)
  ---------------------------------------------------
  alpha Z        PSCENC =       793.63312877
  Ewald energy   TEWEN  =    -11993.71819774
  -Hartree energ DENC   =     -3468.59276463
  -exchange      EXHF   =         0.00000000
  -V(xc)+E(xc)   XCENC  =       938.51298836
  PAW double counting   =     22374.48543116   -22426.26750107
  entropy T*S    EENTRO =        -0.00000000
  eigenvalues    EBANDS =     -1907.11253176
  atomic energy  EATOM  =     15378.70261268
  Solvation  Ediel_sol  =         0.00000000
  ---------------------------------------------------
  free energy    TOTEN  =      -310.35683423 eV

  energy without entropy =     -310.35683423  energy(sigma->0) =     -310.35683423


--------------------------------------------------------------------------------------------------------




--------------------------------------- Iteration      1(   8)  ---------------------------------------


    POTLOK:  cpu time    0.1243: real time    0.1243
    SETDIJ:  cpu time    1.7405: real time    1.7406
     EDDAV:  cpu time   65.2291: real time   65.2326
       DOS:  cpu time    0.0035: real time    0.0035
    CHARGE:  cpu time    7.6271: real time    7.6274
    MIXING:  cpu time    0.0016: real time    0.0016
    --------------------------------------------
      LOOP:  cpu time   74.7261: real time   74.7300

 eigenvalue-minimisations  : 38892
 total energy-change (2. order) : 0.1017449E+00  (-0.1412919E-01)
 number of electron     192.0000005 magnetization       0.0000047
 augmentation part       31.2527008 magnetization       0.0000369

 Broyden mixing:
  rms(total) = 0.14583E+00    rms(broyden)= 0.14582E+00
  rms(prec ) = 0.19132E+00
  weight for this iteration     100.00

 eigenvalues of (default mixing * dielectric matrix)
  average eigenvalue GAMMA=   0.8140
  0.6295  0.9063  0.9063

 Free energy of the ion-electron system (eV)
  ---------------------------------------------------
  alpha Z        PSCENC =       793.63312877
  Ewald energy   TEWEN  =    -11993.71819774
  -Hartree energ DENC   =     -3476.16149509
  -exchange      EXHF   =         0.00000000
  -V(xc)+E(xc)   XCENC  =       938.42146688
  PAW double counting   =     22380.65502651   -22433.68364164
  entropy T*S    EENTRO =        -0.00000000
  eigenvalues    EBANDS =     -1898.10398975
  atomic energy  EATOM  =     15378.70261268
  Solvation  Ediel_sol  =         0.00000000
  ---------------------------------------------------
  free energy    TOTEN  =      -310.25508937 eV

  energy without entropy =     -310.25508937  energy(sigma->0) =     -310.25508937


--------------------------------------------------------------------------------------------------------




--------------------------------------- Iteration      1(   9)  ---------------------------------------


    POTLOK:  cpu time    0.1242: real time    0.1242
    SETDIJ:  cpu time    1.7410: real time    1.7410
     EDDAV:  cpu time   61.2647: real time   61.2680
       DOS:  cpu time    0.0036: real time    0.0036
    CHARGE:  cpu time    7.6362: real time    7.6365
    MIXING:  cpu time    0.0016: real time    0.0016
    --------------------------------------------
      LOOP:  cpu time   70.7713: real time   70.7750

 eigenvalue-minimisations  : 35352
 total energy-change (2. order) : 0.4170740E-01  (-0.6130400E-02)
 number of electron     192.0000005 magnetization       0.0000041
 augmentation part       31.2217118 magnetization      -0.0001845

 Broyden mixing:
  rms(total) = 0.80436E-01    rms(broyden)= 0.80427E-01
  rms(prec ) = 0.10578E+00
  weight for this iteration     100.00

 eigenvalues of (default mixing * dielectric matrix)
  average eigenvalue GAMMA=   0.8044
  0.9974  0.9974  0.6114  0.6114

 Free energy of the ion-electron system (eV)
  ---------------------------------------------------
  alpha Z        PSCENC =       793.63312877
  Ewald energy   TEWEN  =    -11993.71819774
  -Hartree energ DENC   =     -3481.50771650
  -exchange      EXHF   =         0.00000000
  -V(xc)+E(xc)   XCENC  =       938.56559270
  PAW double counting   =     22376.85979047   -22431.04336987
  entropy T*S    EENTRO =        -0.00000000
  eigenvalues    EBANDS =     -1891.70522247
  atomic energy  EATOM  =     15378.70261268
  Solvation  Ediel_sol  =         0.00000000
  ---------------------------------------------------
  free energy    TOTEN  =      -310.21338197 eV

  energy without entropy =     -310.21338197  energy(sigma->0) =     -310.21338197


--------------------------------------------------------------------------------------------------------




--------------------------------------- Iteration      1(  10)  ---------------------------------------


    POTLOK:  cpu time    0.1244: real time    0.1244
    SETDIJ:  cpu time    1.7404: real time    1.7404
     EDDAV:  cpu time   68.5843: real time   68.5880
       DOS:  cpu time    0.0036: real time    0.0036
    CHARGE:  cpu time    7.6586: real time    7.6589
    MIXING:  cpu time    0.0017: real time    0.0017
    --------------------------------------------
      LOOP:  cpu time   78.1129: real time   78.1170

 eigenvalue-minimisations  : 41880
 total energy-change (2. order) : 0.4783097E-02  (-0.2675916E-03)
 number of electron     192.0000005 magnetization       0.0000039
 augmentation part       31.2168735 magnetization      -0.0000087

 Broyden mixing:
  rms(total) = 0.73885E-01    rms(broyden)= 0.73885E-01
  rms(prec ) = 0.97048E-01
  weight for this iteration     100.00

 eigenvalues of (default mixing * dielectric matrix)
  average eigenvalue GAMMA=   0.7205
  1.0250  1.0250  0.5690  0.5690  0.4148

 Free energy of the ion-electron system (eV)
  ---------------------------------------------------
  alpha Z        PSCENC =       793.63312877
  Ewald energy   TEWEN  =    -11993.71819774
  -Hartree energ DENC   =     -3482.16449418
  -exchange      EXHF   =         0.00000000
  -V(xc)+E(xc)   XCENC  =       938.42165041
  PAW double counting   =     22369.03480789   -22423.44601136
  entropy T*S    EENTRO =        -0.00000000
  eigenvalues    EBANDS =     -1890.67209535
  atomic energy  EATOM  =     15378.70261268
  Solvation  Ediel_sol  =         0.00000000
  ---------------------------------------------------
  free energy    TOTEN  =      -310.20859887 eV

  energy without entropy =     -310.20859887  energy(sigma->0) =     -310.20859887


--------------------------------------------------------------------------------------------------------




--------------------------------------- Iteration      1(  11)  ---------------------------------------


    POTLOK:  cpu time    0.1243: real time    0.1243
    SETDIJ:  cpu time    1.7428: real time    1.7429
     EDDAV:  cpu time   62.1857: real time   62.1888
       DOS:  cpu time    0.0033: real time    0.0033
    CHARGE:  cpu time    7.6304: real time    7.6308
    MIXING:  cpu time    0.0017: real time    0.0017
    --------------------------------------------
      LOOP:  cpu time   71.6883: real time   71.6919

 eigenvalue-minimisations  : 36168
 total energy-change (2. order) : 0.1871300E-02  (-0.2781492E-04)
 number of electron     192.0000005 magnetization       0.0000029
 augmentation part       31.2144730 magnetization      -0.0000110

 Broyden mixing:
  rms(total) = 0.70007E-01    rms(broyden)= 0.70007E-01
  rms(prec ) = 0.92037E-01
  weight for this iteration     100.00

 eigenvalues of (default mixing * dielectric matrix)
  average eigenvalue GAMMA=   0.7894
  1.1346  1.1346  0.6686  0.6686  0.5650  0.5650

 Free energy of the ion-electron system (eV)
  ---------------------------------------------------
  alpha Z        PSCENC =       793.63312877
  Ewald energy   TEWEN  =    -11993.71819774
  -Hartree energ DENC   =     -3482.55224414
  -exchange      EXHF   =         0.00000000
  -V(xc)+E(xc)   XCENC  =       938.43642910
  PAW double counting   =     22364.76620679   -22419.29320468
  entropy T*S    EENTRO =        -0.00000000
  eigenvalues    EBANDS =     -1890.18145836
  atomic energy  EATOM  =     15378.70261268
  Solvation  Ediel_sol  =         0.00000000
  ---------------------------------------------------
  free energy    TOTEN  =      -310.20672757 eV

  energy without entropy =     -310.20672757  energy(sigma->0) =     -310.20672757


--------------------------------------------------------------------------------------------------------




--------------------------------------- Iteration      1(  12)  ---------------------------------------


    POTLOK:  cpu time    0.1243: real time    0.1243
    SETDIJ:  cpu time    1.7423: real time    1.7423
     EDDAV:  cpu time   59.9462: real time   59.9493
       DOS:  cpu time    0.0032: real time    0.0032
    CHARGE:  cpu time    7.6640: real time    7.6643
    MIXING:  cpu time    0.0018: real time    0.0018
    --------------------------------------------
      LOOP:  cpu time   69.4818: real time   69.4852

 eigenvalue-minimisations  : 34224
 total energy-change (2. order) : 0.7011626E-02  (-0.3550351E-03)
 number of electron     192.0000005 magnetization       0.0000015
 augmentation part       31.2060357 magnetization      -0.0000353

 Broyden mixing:
  rms(total) = 0.53132E-01    rms(broyden)= 0.53132E-01
  rms(prec ) = 0.69817E-01
  weight for this iteration     100.00

 eigenvalues of (default mixing * dielectric matrix)
  average eigenvalue GAMMA=   0.9197
  1.5303  1.5303  0.8099  0.8099  0.6090  0.6090  0.5394

 Free energy of the ion-electron system (eV)
  ---------------------------------------------------
  alpha Z        PSCENC =       793.63312877
  Ewald energy   TEWEN  =    -11993.71819774
  -Hartree energ DENC   =     -3484.19635098
  -exchange      EXHF   =         0.00000000
  -V(xc)+E(xc)   XCENC  =       938.56825571
  PAW double counting   =     22353.87549269   -22408.85890059
  entropy T*S    EENTRO =        -0.00000000
  eigenvalues    EBANDS =     -1888.20575650
  atomic energy  EATOM  =     15378.70261268
  Solvation  Ediel_sol  =         0.00000000
  ---------------------------------------------------
  free energy    TOTEN  =      -310.19971594 eV

  energy without entropy =     -310.19971594  energy(sigma->0) =     -310.19971594


--------------------------------------------------------------------------------------------------------




--------------------------------------- Iteration      1(  13)  ---------------------------------------


    POTLOK:  cpu time    0.1242: real time    0.1242
    SETDIJ:  cpu time    1.7434: real time    1.7434
     EDDAV:  cpu time   60.7399: real time   60.7433
       DOS:  cpu time    0.0033: real time    0.0033
    CHARGE:  cpu time    7.6314: real time    7.6317
    MIXING:  cpu time    0.0018: real time    0.0018
    --------------------------------------------
      LOOP:  cpu time   70.2438: real time   70.2476

 eigenvalue-minimisations  : 34880
 total energy-change (2. order) : 0.8144481E-02  (-0.8410622E-03)
 number of electron     192.0000005 magnetization       0.0000011
 augmentation part       31.1922679 magnetization      -0.0000408

 Broyden mixing:
  rms(total) = 0.27448E-01    rms(broyden)= 0.27444E-01
  rms(prec ) = 0.36050E-01
  weight for this iteration     100.00

 eigenvalues of (default mixing * dielectric matrix)
  average eigenvalue GAMMA=   0.9122
  1.6264  1.6264  0.8368  0.8368  0.6293  0.6293  0.5561  0.5561

 Free energy of the ion-electron system (eV)
  ---------------------------------------------------
  alpha Z        PSCENC =       793.63312877
  Ewald energy   TEWEN  =    -11993.71819774
  -Hartree energ DENC   =     -3486.63281162
  -exchange      EXHF   =         0.00000000
  -V(xc)+E(xc)   XCENC  =       938.73057904
  PAW double counting   =     22338.06760473   -22393.73341034
  entropy T*S    EENTRO =        -0.00000000
  eigenvalues    EBANDS =     -1885.24107698
  atomic energy  EATOM  =     15378.70261268
  Solvation  Ediel_sol  =         0.00000000
  ---------------------------------------------------
  free energy    TOTEN  =      -310.19157146 eV

  energy without entropy =     -310.19157146  energy(sigma->0) =     -310.19157146


--------------------------------------------------------------------------------------------------------




--------------------------------------- Iteration      1(  14)  ---------------------------------------


    POTLOK:  cpu time    0.1242: real time    0.1242
    SETDIJ:  cpu time    1.7427: real time    1.7427
     EDDAV:  cpu time   64.0190: real time   64.0224
       DOS:  cpu time    0.0033: real time    0.0033
    CHARGE:  cpu time    7.6669: real time    7.6673
    MIXING:  cpu time    0.0019: real time    0.0019
    --------------------------------------------
      LOOP:  cpu time   73.5579: real time   73.5618

 eigenvalue-minimisations  : 37824
 total energy-change (2. order) : 0.1578905E-02  (-0.8335460E-04)
 number of electron     192.0000005 magnetization       0.0000007
 augmentation part       31.1872190 magnetization      -0.0000257

 Broyden mixing:
  rms(total) = 0.21028E-01    rms(broyden)= 0.21027E-01
  rms(prec ) = 0.27662E-01
  weight for this iteration     100.00

 eigenvalues of (default mixing * dielectric matrix)
  average eigenvalue GAMMA=   0.9391
  1.8012  1.8012  0.9075  0.9075  0.6793  0.6793  0.5311  0.5725  0.5725

 Free energy of the ion-electron system (eV)
  ---------------------------------------------------
  alpha Z        PSCENC =       793.63312877
  Ewald energy   TEWEN  =    -11993.71819774
  -Hartree energ DENC   =     -3487.16408353
  -exchange      EXHF   =         0.00000000
  -V(xc)+E(xc)   XCENC  =       938.69955746
  PAW double counting   =     22334.93669392   -22390.75565096
  entropy T*S    EENTRO =        -0.00000000
  eigenvalues    EBANDS =     -1884.52405316
  atomic energy  EATOM  =     15378.70261268
  Solvation  Ediel_sol  =         0.00000000
  ---------------------------------------------------
  free energy    TOTEN  =      -310.18999256 eV

  energy without entropy =     -310.18999256  energy(sigma->0) =     -310.18999256


--------------------------------------------------------------------------------------------------------




--------------------------------------- Iteration      1(  15)  ---------------------------------------


    POTLOK:  cpu time    0.1243: real time    0.1243
    SETDIJ:  cpu time    1.7432: real time    1.7432
     EDDAV:  cpu time   59.3822: real time   59.3854
       DOS:  cpu time    0.0031: real time    0.0031
    CHARGE:  cpu time    7.6705: real time    7.6709
    MIXING:  cpu time    0.0020: real time    0.0020
    --------------------------------------------
      LOOP:  cpu time   68.9252: real time   68.9289

 eigenvalue-minimisations  : 33728
 total energy-change (2. order) : 0.1708610E-02  (-0.8054230E-04)
 number of electron     192.0000005 magnetization       0.0000002
 augmentation part       31.1826966 magnetization      -0.0000255

 Broyden mixing:
  rms(total) = 0.13029E-01    rms(broyden)= 0.13028E-01
  rms(prec ) = 0.17150E-01
  weight for this iteration     100.00

 eigenvalues of (default mixing * dielectric matrix)
  average eigenvalue GAMMA=   0.9921
  2.0527  2.0527  1.0222  1.0222  0.7435  0.7435  0.6018  0.6018  0.5402  0.5402

 Free energy of the ion-electron system (eV)
  ---------------------------------------------------
  alpha Z        PSCENC =       793.63312877
  Ewald energy   TEWEN  =    -11993.71819774
  -Hartree energ DENC   =     -3487.95196872
  -exchange      EXHF   =         0.00000000
  -V(xc)+E(xc)   XCENC  =       938.74939455
  PAW double counting   =     22330.58855257   -22386.61932112
  entropy T*S    EENTRO =        -0.00000000
  eigenvalues    EBANDS =     -1883.57248493
  atomic energy  EATOM  =     15378.70261268
  Solvation  Ediel_sol  =         0.00000000
  ---------------------------------------------------
  free energy    TOTEN  =      -310.18828395 eV

  energy without entropy =     -310.18828395  energy(sigma->0) =     -310.18828395


--------------------------------------------------------------------------------------------------------




--------------------------------------- Iteration      1(  16)  ---------------------------------------


    POTLOK:  cpu time    0.1242: real time    0.1242
    SETDIJ:  cpu time    1.7390: real time    1.7390
     EDDAV:  cpu time   60.6211: real time   60.6242
       DOS:  cpu time    0.0031: real time    0.0031
    CHARGE:  cpu time    7.6828: real time    7.6832
    MIXING:  cpu time    0.0020: real time    0.0020
    --------------------------------------------
      LOOP:  cpu time   70.1722: real time   70.1758

 eigenvalue-minimisations  : 34816
 total energy-change (2. order) : 0.1618927E-02  (-0.1301078E-03)
 number of electron     192.0000005 magnetization       0.0000000
 augmentation part       31.1769598 magnetization      -0.0000068

 Broyden mixing:
  rms(total) = 0.29856E-02    rms(broyden)= 0.29803E-02
  rms(prec ) = 0.39402E-02
  weight for this iteration     100.00

 eigenvalues of (default mixing * dielectric matrix)
  average eigenvalue GAMMA=   1.0454
  2.3856  2.3856  1.1288  1.1288  0.7805  0.7805  0.6316  0.6316  0.5555  0.5555
  0.5351

 Free energy of the ion-electron system (eV)
  ---------------------------------------------------
  alpha Z        PSCENC =       793.63312877
  Ewald energy   TEWEN  =    -11993.71819774
  -Hartree energ DENC   =     -3488.90730908
  -exchange      EXHF   =         0.00000000
  -V(xc)+E(xc)   XCENC  =       938.80973487
  PAW double counting   =     22326.08608890   -22382.35981662
  entropy T*S    EENTRO =        -0.00000000
  eigenvalues    EBANDS =     -1882.43290679
  atomic energy  EATOM  =     15378.70261268
  Solvation  Ediel_sol  =         0.00000000
  ---------------------------------------------------
  free energy    TOTEN  =      -310.18666502 eV

  energy without entropy =     -310.18666502  energy(sigma->0) =     -310.18666502


--------------------------------------------------------------------------------------------------------




--------------------------------------- Iteration      1(  17)  ---------------------------------------


    POTLOK:  cpu time    0.1242: real time    0.1242
    SETDIJ:  cpu time    1.7406: real time    1.7407
     EDDAV:  cpu time   63.6246: real time   63.6281
       DOS:  cpu time    0.0030: real time    0.0030
[...]
 -0.000   0.023   0.004   0.020   0.001  -0.003  -0.037  -0.004  -0.002   0.026  -0.000   0.262   0.061   0.001  -0.015  -0.000
  0.002  -0.046  -0.021  -0.002  -0.019   0.037   0.004   0.037  -0.005  -0.009   0.102   0.061   0.504   0.004   0.006  -0.062
 -0.000   0.006  -0.003  -0.002   0.002   0.007   0.002   0.001  -0.110   0.025  -0.020   0.001   0.004   0.061  -0.014   0.011
 -0.001   0.004  -0.001  -0.001  -0.002   0.004   0.005   0.001   0.025  -0.099   0.020  -0.015   0.006  -0.014   0.055  -0.012
  0.000   0.044   0.001  -0.002  -0.008  -0.010   0.004   0.021  -0.020   0.020  -0.182  -0.000  -0.062   0.011  -0.012   0.105
 -0.000  -0.012  -0.002  -0.009   0.001   0.002   0.020   0.002   0.001  -0.015  -0.000  -0.147  -0.034  -0.000   0.008   0.001
  0.000   0.032   0.005   0.001   0.007  -0.023  -0.002  -0.021   0.004   0.006  -0.062  -0.034  -0.293  -0.003  -0.004   0.038
 total augmentation occupancy for first ion, spin component:           2
 -0.000  -0.000  -0.000  -0.000  -0.000  -0.000  -0.000  -0.000  -0.000  -0.000  -0.000   0.000   0.000   0.000   0.000   0.000
 -0.000   0.000  -0.000  -0.000  -0.000  -0.000  -0.000   0.000  -0.000   0.000  -0.000   0.000   0.000  -0.000  -0.000   0.000
 -0.000  -0.000  -0.000  -0.000  -0.000   0.000  -0.000  -0.000   0.000   0.000  -0.000  -0.000  -0.000  -0.000  -0.000   0.000
 -0.000  -0.000  -0.000  -0.000  -0.000  -0.000  -0.000  -0.000  -0.000   0.000  -0.000  -0.000  -0.000  -0.000  -0.000   0.000
 -0.000  -0.000  -0.000  -0.000  -0.000  -0.000  -0.000   0.000  -0.000  -0.000  -0.000   0.000  -0.000   0.000   0.000   0.000
 -0.000  -0.000   0.000  -0.000  -0.000  -0.000   0.000   0.000   0.000  -0.000  -0.000  -0.000  -0.000   0.000   0.000   0.000
 -0.000  -0.000  -0.000  -0.000  -0.000   0.000   0.000   0.000  -0.000   0.000  -0.000  -0.000   0.000   0.000  -0.000  -0.000
 -0.000   0.000  -0.000  -0.000   0.000   0.000   0.000  -0.000   0.000  -0.000   0.000   0.000  -0.000  -0.000   0.000  -0.000
 -0.000  -0.000   0.000  -0.000  -0.000   0.000  -0.000   0.000  -0.000   0.000  -0.000  -0.000  -0.000   0.000   0.000   0.000
 -0.000   0.000   0.000   0.000  -0.000  -0.000   0.000  -0.000   0.000  -0.000  -0.000  -0.000  -0.000  -0.000   0.000   0.000
 -0.000  -0.000  -0.000  -0.000  -0.000  -0.000  -0.000   0.000  -0.000  -0.000  -0.000  -0.000   0.000   0.000   0.000   0.000
  0.000   0.000  -0.000  -0.000   0.000  -0.000  -0.000   0.000  -0.000  -0.000  -0.000  -0.000  -0.000   0.000   0.000   0.000
  0.000   0.000  -0.000  -0.000  -0.000  -0.000   0.000  -0.000  -0.000  -0.000   0.000  -0.000   0.000   0.000   0.000  -0.000
  0.000  -0.000  -0.000  -0.000   0.000   0.000   0.000  -0.000   0.000  -0.000   0.000   0.000   0.000  -0.000  -0.000  -0.000
  0.000  -0.000  -0.000  -0.000   0.000   0.000  -0.000   0.000   0.000   0.000   0.000   0.000   0.000  -0.000  -0.000  -0.000
  0.000   0.000   0.000   0.000   0.000   0.000  -0.000  -0.000   0.000   0.000   0.000   0.000  -0.000  -0.000  -0.000  -0.000
 -0.000  -0.000  -0.000   0.000  -0.000   0.000  -0.000   0.000   0.000   0.000   0.000   0.000   0.000  -0.000  -0.000  -0.000
 -0.000  -0.000   0.000   0.000   0.000  -0.000  -0.000   0.000   0.000   0.000  -0.000   0.000  -0.000  -0.000  -0.000   0.000


------------------------ aborting loop because EDIFF is reached ----------------------------------------


 


 total charge     
 
# of ion       s       p       d       tot
------------------------------------------
    1        2.026   5.869   0.241   8.135
    2        2.026   5.869   0.241   8.135
    3        2.026   5.869   0.241   8.135
    4        2.026   5.869   0.241   8.135
    5        2.021   5.870   0.222   8.113
    6        2.021   5.870   0.222   8.113
    7        2.021   5.870   0.222   8.113
    8        2.021   5.870   0.222   8.113
    9        0.665   1.040   0.000   1.705
   10        0.665   1.040   0.000   1.705
   11        0.665   1.040   0.000   1.705
   12        0.665   1.040   0.000   1.705
   13        1.568   3.615   0.000   5.183
   14        1.568   3.615   0.000   5.183
   15        1.568   3.615   0.000   5.183
   16        1.568   3.615   0.000   5.183
   17        1.564   3.599   0.000   5.163
   18        1.564   3.599   0.000   5.163
   19        1.564   3.599   0.000   5.163
   20        1.564   3.599   0.000   5.163
   21        1.563   3.595   0.000   5.158
   22        1.563   3.595   0.000   5.158
   23        1.563   3.595   0.000   5.158
   24        1.563   3.595   0.000   5.158
   25        1.564   3.590   0.000   5.153
   26        1.564   3.590   0.000   5.153
   27        1.564   3.590   0.000   5.153
   28        1.564   3.590   0.000   5.153
--------------------------------------------------
tot         43.884 108.709   1.850 154.444
 


 magnetization (x)
 
# of ion       s       p       d       tot
------------------------------------------
    1        0.000   0.000   0.000   0.000
    2        0.000   0.000   0.000   0.000
    3        0.000   0.000   0.000   0.000
    4        0.000   0.000   0.000   0.000
    5        0.000  -0.000  -0.000   0.000
    6        0.000  -0.000  -0.000  -0.000
    7        0.000  -0.000  -0.000   0.000
    8        0.000  -0.000   0.000   0.000
    9       -0.000   0.000   0.000   0.000
   10        0.000   0.000   0.000   0.000
   11       -0.000  -0.000   0.000  -0.000
   12       -0.000   0.000   0.000  -0.000
   13        0.000   0.000   0.000   0.000
   14        0.000   0.000   0.000   0.000
   15        0.000   0.000   0.000   0.000
   16        0.000   0.000   0.000   0.000
   17        0.000  -0.000   0.000  -0.000
   18        0.000  -0.000   0.000  -0.000
   19        0.000   0.000   0.000   0.000
   20        0.000   0.000   0.000   0.000
   21        0.000   0.000   0.000   0.000
   22        0.000   0.000   0.000   0.000
   23        0.000   0.000   0.000   0.000
   24        0.000   0.000   0.000   0.000
   25        0.000   0.000   0.000   0.000
   26        0.000   0.000   0.000   0.000
   27        0.000   0.000   0.000   0.000
   28        0.000   0.000   0.000   0.000
--------------------------------------------------
tot          0.000   0.000   0.000   0.000
 
    CHARGE:  cpu time    1.0013: real time    1.0013
    FORLOC:  cpu time    0.0065: real time    0.0065
    FORNL :  cpu time    6.9128: real time    6.9132
    STRESS:  cpu time  146.8957: real time  146.9022
    FORCOR:  cpu time    0.1274: real time    0.1274
    FORHAR:  cpu time    0.0117: real time    0.0117
    MIXING:  cpu time    0.0020: real time    0.0020
    OFIELD:  cpu time    0.0000: real time    0.0000

  FORCE on cell =-STRESS in cart. coord.  units (eV):
  Direction    XX          YY          ZZ          XY          YZ          ZX
  --------------------------------------------------------------------------------------
  Alpha Z   793.63313   793.63313   793.63313
  Ewald   -4137.68936 -3732.73144 -4123.33622    -0.00002     0.00003  -118.23870
  Hartree  1087.90173  1292.63339  1108.68637     0.00001    -0.00001  -102.90735
  E(xc)    -947.42877  -947.79180  -947.43781     0.00000    -0.00000    -0.31896
  Local     167.55078  -434.79651   132.53524     0.00001    -0.00002   225.04108
  n-local  -539.52114  -534.18897  -539.93276    -0.00000     0.00000     2.86863
  augment   323.41373   323.24330   323.55859     0.00000    -0.00000    -0.53882
  Kinetic  3252.11559  3240.12129  3252.39676     0.00001    -0.00001    -5.92790
  Fock        0.00000     0.00000     0.00000     0.00000     0.00000     0.00000
  -------------------------------------------------------------------------------------
  Total      -0.02430     0.12238     0.10330    -0.00000    -0.00000    -0.02201
  in kB      -0.11335     0.57083     0.48182    -0.00000    -0.00001    -0.10265
  external pressure =        0.31 kB  Pullay stress =        0.00 kB


 VOLUME and BASIS-vectors are now :
 -----------------------------------------------------------------------------
  energy-cutoff  :      520.00
  volume of cell :      343.49
      direct lattice vectors                 reciprocal lattice vectors
     5.486766856 -0.000000025  0.464997241     0.182339828  0.000000000 -0.000980925
    -0.000000017  6.745852307  0.000000048     0.000000001  0.148239237 -0.000000001
     0.049946883  0.000000054  9.284404810    -0.009132251 -0.000000001  0.107756625

  length of vectors
     5.506435596  6.745852307  9.284539157     0.182342467  0.148239237  0.108142907


 FORCES acting on ions
    electron-ion (+dipol)            ewald-force                    non-local-force                 convergence-correction
 -----------------------------------------------------------------------------------------------
   -.158E+02 -.254E+02 -.536E+02   0.161E+02 0.230E+02 0.529E+02   -.342E+00 0.249E+01 0.739E+00   -.244E-05 0.206E-03 -.634E-04
   -.158E+02 0.254E+02 -.536E+02   0.161E+02 -.230E+02 0.529E+02   -.342E+00 -.249E+01 0.739E+00   -.611E-05 -.201E-03 -.584E-04
   0.158E+02 0.255E+02 0.536E+02   -.161E+02 -.230E+02 -.529E+02   0.344E+00 -.248E+01 -.738E+00   0.576E-04 -.183E-03 0.354E-04
   0.158E+02 -.255E+02 0.536E+02   -.161E+02 0.230E+02 -.529E+02   0.344E+00 0.248E+01 -.738E+00   0.640E-04 0.179E-03 0.359E-04
   -.625E+01 0.297E+01 0.731E+01   0.696E+01 -.294E+01 -.778E+01   -.696E+00 -.319E-01 0.471E+00   0.484E-04 0.252E-04 -.246E-03
   -.625E+01 -.297E+01 0.731E+01   0.696E+01 0.294E+01 -.778E+01   -.696E+00 0.319E-01 0.471E+00   0.591E-04 -.284E-04 -.269E-03
   0.625E+01 -.297E+01 -.731E+01   -.695E+01 0.294E+01 0.777E+01   0.696E+00 0.314E-01 -.471E+00   -.634E-04 -.362E-04 0.247E-03
   0.625E+01 0.297E+01 -.731E+01   -.695E+01 -.294E+01 0.777E+01   0.696E+00 -.314E-01 -.471E+00   -.746E-04 0.342E-04 0.259E-03
   -.115E+02 -.527E+01 -.211E+02   0.109E+02 0.649E+01 0.205E+02   0.607E+00 -.115E+01 0.532E+00   -.273E-04 -.385E-04 -.117E-04
   -.115E+02 0.527E+01 -.211E+02   0.109E+02 -.649E+01 0.205E+02   0.607E+00 0.115E+01 0.532E+00   -.243E-04 0.399E-04 -.904E-05
   0.115E+02 0.527E+01 0.211E+02   -.109E+02 -.648E+01 -.205E+02   -.607E+00 0.115E+01 -.532E+00   0.281E-04 0.374E-04 0.104E-04
   0.115E+02 -.527E+01 0.211E+02   -.109E+02 0.648E+01 -.205E+02   -.607E+00 -.115E+01 -.532E+00   0.240E-04 -.363E-04 0.110E-04
   -.319E+02 -.270E+02 -.366E+02   0.285E+02 0.506E+02 0.348E+02   0.348E+01 -.236E+02 0.177E+01   -.181E-03 0.403E-03 -.547E-04
   -.319E+02 0.270E+02 -.366E+02   0.285E+02 -.506E+02 0.348E+02   0.348E+01 0.236E+02 0.177E+01   -.179E-03 -.405E-03 -.487E-04
   0.319E+02 0.270E+02 0.366E+02   -.285E+02 -.506E+02 -.348E+02   -.348E+01 0.236E+02 -.177E+01   0.185E-03 -.406E-03 0.588E-04
   0.319E+02 -.270E+02 0.366E+02   -.285E+02 0.506E+02 -.348E+02   -.348E+01 -.236E+02 -.177E+01   0.182E-03 0.409E-03 0.509E-04
   0.400E+01 0.780E+01 -.199E+02   0.122E+02 -.118E+02 0.352E+02   -.162E+02 0.403E+01 -.154E+02   0.440E-03 -.149E-03 0.307E-03
   0.400E+01 -.780E+01 -.199E+02   0.122E+02 0.118E+02 0.352E+02   -.162E+02 -.403E+01 -.154E+02   0.443E-03 0.149E-03 0.310E-03
   -.401E+01 -.780E+01 0.199E+02   -.121E+02 0.118E+02 -.352E+02   0.162E+02 -.403E+01 0.154E+02   -.440E-03 0.157E-03 -.300E-03
   -.401E+01 0.780E+01 0.199E+02   -.121E+02 -.118E+02 -.352E+02   0.162E+02 0.403E+01 0.154E+02   -.446E-03 -.152E-03 -.306E-03
   0.867E+01 0.200E+02 -.529E+02   -.274E+02 -.302E+02 0.608E+02   0.187E+02 0.102E+02 -.783E+01   -.471E-03 -.214E-03 0.758E-04
   0.867E+01 -.200E+02 -.529E+02   -.274E+02 0.302E+02 0.608E+02   0.187E+02 -.102E+02 -.783E+01   -.470E-03 0.209E-03 0.733E-04
   -.867E+01 -.200E+02 0.529E+02   0.274E+02 0.302E+02 -.608E+02   -.187E+02 -.102E+02 0.783E+01   0.467E-03 0.218E-03 -.860E-04
   -.867E+01 0.200E+02 0.529E+02   0.274E+02 -.302E+02 -.608E+02   -.187E+02 0.102E+02 0.783E+01   0.471E-03 -.219E-03 -.808E-04
   -.184E+02 0.131E+02 0.483E+02   0.234E+02 -.229E+02 -.688E+02   -.494E+01 0.988E+01 0.205E+02   0.396E-04 -.238E-03 -.422E-03
   -.184E+02 -.131E+02 0.483E+02   0.234E+02 0.229E+02 -.688E+02   -.494E+01 -.988E+01 0.205E+02   0.444E-04 0.234E-03 -.424E-03
   0.184E+02 -.131E+02 -.483E+02   -.234E+02 0.229E+02 0.688E+02   0.494E+01 -.988E+01 -.205E+02   -.473E-04 0.235E-03 0.426E-03
   0.184E+02 0.131E+02 -.483E+02   -.234E+02 -.229E+02 0.688E+02   0.494E+01 0.988E+01 -.205E+02   -.505E-04 -.233E-03 0.430E-03
 -----------------------------------------------------------------------------------------------
   -.501E-02 0.142E-04 -.167E-02   -.178E-13 0.320E-13 -.284E-13   0.494E-02 -.157E-04 0.168E-02   0.707E-04 -.340E-05 -.503E-04
 
 
 POSITION                                       TOTAL-FORCE (eV/Angst)
 -----------------------------------------------------------------------------------
      1.24328      5.68720      0.74142         0.005511      0.002489      0.002903
      4.01164      4.43158      5.61612         0.005510     -0.002485      0.002903
      4.29342      1.05869      9.00796        -0.005512     -0.002620     -0.002929
      1.52506      2.31423      4.13326        -0.005510      0.002620     -0.002926
      1.22267      3.36238      7.51789         0.009012      0.000514      0.002754
      3.94108      0.01055      3.10819         0.009010     -0.000514      0.002759
      4.31404      3.38347      2.23151        -0.008980     -0.000465     -0.002706
      1.59563      6.73531      6.64121        -0.008979      0.000463     -0.002704
      1.47294      1.89425      0.88371         0.006676      0.010650     -0.005702
      4.24130      1.47868      5.75841         0.006682     -0.010655     -0.005702
      4.06378      4.85160      8.86570        -0.006776     -0.009730      0.005699
      1.29542      5.26718      3.99100        -0.006779      0.009727      0.005704
      1.18256      3.45835      0.65600        -0.006389      0.006663      0.000812
      3.95092      6.66043      5.53070        -0.006393     -0.006686      0.000809
      4.35417      3.28751      9.09340         0.006436     -0.007009     -0.000815
      1.58581      0.08542      4.21870         0.006435      0.006999     -0.000818
      2.63841      1.68428      2.00387        -0.008248     -0.004834      0.007622
      5.40677      1.68865      6.87857        -0.008234      0.004837      0.007637
      2.89828      5.06158      7.74555         0.008487      0.004719     -0.007405
      0.12993      5.05720      2.87084         0.008497     -0.004718     -0.007398
      0.07810      1.12111      1.28270         0.010907      0.015222      0.002893
      2.84645      2.25181      6.15740         0.010884     -0.015208      0.002900
      5.45862      5.62476      8.46669        -0.011288     -0.015446     -0.002736
      2.69026      4.49402      3.59199        -0.011298      0.015451     -0.002733
      1.95839      1.15716      8.76304        -0.008395     -0.007735     -0.005245
      4.67680      2.21576      4.35334        -0.008389      0.007745     -0.005263
      3.57833      5.58869      0.98638         0.008559      0.007540      0.004849
      0.85992      4.53009      5.39608         0.008564     -0.007535      0.004837
 -----------------------------------------------------------------------------------
    total drift:                                0.000009     -0.000005     -0.000043


--------------------------------------------------------------------------------------------------------



  FREE ENERGIE OF THE ION-ELECTRON SYSTEM (eV)
  ---------------------------------------------------
  free  energy   TOTEN  =      -310.18635303 eV

  energy  without entropy=     -310.18635303  energy(sigma->0) =     -310.18635303
 


--------------------------------------------------------------------------------------------------------


    POTLOK:  cpu time    1.8550: real time    1.8550


--------------------------------------------------------------------------------------------------------




--------------------------------------------------------------------------------------------------------


  
 reached required accuracy - stopping structural energy minimisation
     LOOP+:  cpu time 1453.9041: real time 1454.0146
    4ORBIT:  cpu time    0.0000: real time    0.0000
 


 total charge     
 
# of ion       s       p       d       tot
------------------------------------------
    1        2.026   5.869   0.241   8.135
    2        2.026   5.869   0.241   8.135
    3        2.026   5.869   0.241   8.135
    4        2.026   5.869   0.241   8.135
    5        2.021   5.870   0.222   8.113
    6        2.021   5.870   0.222   8.113
    7        2.021   5.870   0.222   8.113
    8        2.021   5.870   0.222   8.113
    9        0.665   1.040   0.000   1.705
   10        0.665   1.040   0.000   1.705
   11        0.665   1.040   0.000   1.705
   12        0.665   1.040   0.000   1.705
   13        1.568   3.615   0.000   5.183
   14        1.568   3.615   0.000   5.183
   15        1.568   3.615   0.000   5.183
   16        1.568   3.615   0.000   5.183
   17        1.564   3.599   0.000   5.163
   18        1.564   3.599   0.000   5.163
   19        1.564   3.599   0.000   5.163
   20        1.564   3.599   0.000   5.163
   21        1.563   3.595   0.000   5.158
   22        1.563   3.595   0.000   5.158
   23        1.563   3.595   0.000   5.158
   24        1.563   3.595   0.000   5.158
   25        1.564   3.590   0.000   5.153
   26        1.564   3.590   0.000   5.153
   27        1.564   3.590   0.000   5.153
   28        1.564   3.590   0.000   5.153
--------------------------------------------------
tot         43.884 108.709   1.850 154.444
 


 magnetization (x)
 
# of ion       s       p       d       tot
------------------------------------------
    1        0.000   0.000   0.000   0.000
    2        0.000   0.000   0.000   0.000
    3        0.000   0.000   0.000   0.000
    4        0.000   0.000   0.000   0.000
    5        0.000  -0.000  -0.000   0.000
    6        0.000  -0.000  -0.000  -0.000
    7        0.000  -0.000  -0.000   0.000
    8        0.000  -0.000   0.000   0.000
    9       -0.000   0.000   0.000   0.000
   10        0.000   0.000   0.000   0.000
   11       -0.000  -0.000   0.000  -0.000
   12       -0.000   0.000   0.000  -0.000
   13        0.000   0.000   0.000   0.000
   14        0.000   0.000   0.000   0.000
   15        0.000   0.000   0.000   0.000
   16        0.000   0.000   0.000   0.000
   17        0.000  -0.000   0.000  -0.000
   18        0.000  -0.000   0.000  -0.000
   19        0.000   0.000   0.000   0.000
   20        0.000   0.000   0.000   0.000
   21        0.000   0.000   0.000   0.000
   22        0.000   0.000   0.000   0.000
   23        0.000   0.000   0.000   0.000
   24        0.000   0.000   0.000   0.000
   25        0.000   0.000   0.000   0.000
   26        0.000   0.000   0.000   0.000
   27        0.000   0.000   0.000   0.000
   28        0.000   0.000   0.000   0.000
--------------------------------------------------
tot          0.000   0.000   0.000   0.000
 

 total amount of memory used by VASP MPI-rank0   140771. kBytes
=======================================================================

   base      :      30000. kBytes
   nonlr-proj:       5634. kBytes
   fftplans  :       2572. kBytes
   grid      :       9432. kBytes
   one-center:        155. kBytes
   wavefun   :      92978. kBytes
 
  
  
 General timing and accounting informations for this job:
 ========================================================
  
                  Total CPU time used (sec):     1471.580
                            User time (sec):     1466.900
                          System time (sec):        4.680
                         Elapsed time (sec):     1472.096
  
                   Maximum memory used (kb):      191372.
                   Average memory used (kb):           0.
  
                          Minor page faults:        47215
                          Major page faults:           13
                 Voluntary context switches:          507
