       N       E                     dE             d eps       ncg     rms          ort
DAV:   1     0.270317067057E+04    0.27032E+04   -0.16099E+05 10962   0.165E+03
DAV:   2    -0.151605831133E+03   -0.28548E+04   -0.26777E+04 10962   0.448E+02
DAV:   3    -0.443430686951E+03   -0.29182E+03   -0.28537E+03 10962   0.161E+02
DAV:   4    -0.454035869493E+03   -0.10605E+02   -0.10308E+02 10962   0.318E+01
DAV:   5    -0.454784086099E+03   -0.74822E+00   -0.74399E+00 10962   0.612E+00
SDA:   6    -0.269100074796E+03    0.18568E+03   -0.74399E+00 10962   0.105E+04 0.000E+00
CGA:   7    -0.334102341541E+03   -0.65002E+02   -0.11055E+03 10962   0.860E+02-0.196E+02
CGA:   8    -0.347240466453E+03   -0.13138E+02   -0.13133E+02 10962   0.208E+02 0.726E-01
CGA:   9    -0.350820192639E+03   -0.35797E+01   -0.35796E+01 10962   0.975E+01-0.351E-01
CGA:  10    -0.352525129966E+03   -0.17049E+01   -0.17061E+01 10962   0.378E+01 0.221E-01
CGA:  11    -0.353241115206E+03   -0.71599E+00   -0.71602E+00 10962   0.141E+01 0.101E-01
CGA:  12    -0.353537039242E+03   -0.29592E+00   -0.29566E+00 10962   0.524E+00 0.151E-01
CGA:  13    -0.353645279796E+03   -0.10824E+00   -0.10800E+00 10962   0.163E+00 0.201E-01
CGA:  14    -0.353682914952E+03   -0.37635E-01   -0.37379E-01 10962   0.501E-01 0.950E-02
CGA:  15    -0.353695784076E+03   -0.12869E-01   -0.12745E-01 10962   0.172E-01 0.274E-02
CGA:  16    -0.353700693565E+03   -0.49095E-02   -0.48192E-02 10962   0.641E-02 0.134E-02
CGA:  17    -0.353702987846E+03   -0.22943E-02   -0.24610E-02 10962   0.388E-02-0.106E-02
CGA:  18    -0.353703919813E+03   -0.93197E-03   -0.93410E-03 10962   0.152E-02-0.302E-04
CGA:  19    -0.353704297744E+03   -0.37793E-03   -0.81623E-03 10962   0.240E-02-0.134E-02
CGA:  20    -0.353704722630E+03   -0.42489E-03   -0.43951E-03 10962   0.305E-03 0.324E-03
CGA:  21    -0.353704886932E+03   -0.16430E-03    0.80015E-03 10962   0.110E-03 0.644E-04
CGA:  22    -0.353704711065E+03    0.17587E-03   -0.10735E-03 10962   0.109E-02-0.324E-03
CGA:  23    -0.353705011201E+03   -0.30014E-03   -0.29686E-03 10962   0.260E-03-0.236E-04
CGA:  24    -0.353705016426E+03   -0.52243E-05   -0.33898E-04 10962   0.722E-04 0.105E-03
CGA:  25    -0.353705020211E+03   -0.37851E-05   -0.14272E-04 10962   0.339E-04 0.418E-04
CGA:  26    -0.353705060953E+03   -0.40742E-04    0.10990E-04 10962   0.425E-04-0.698E-05
CGA:  27    -0.353705058579E+03    0.23743E-05   -0.34418E-05 10962   0.225E-04 0.210E-04
   1 F= -.35370506E+03 E0= -.35370506E+03  d E =-.353705E+03  mag=     8.0000
       N       E                     dE             d eps       ncg     rms          ort
SDA:   1    -0.353707283883E+03   -0.22229E-02    0.00000E+00 10962   0.632E-03 0.000E+00
CGA:   2    -0.353707421146E+03   -0.13726E-03   -0.14095E-03 10962   0.290E-03 0.290E-04
CGA:   3    -0.353707472916E+03   -0.51770E-04   -0.48813E-04 10962   0.144E-03-0.163E-04
CGA:   4    -0.353707506726E+03   -0.33810E-04   -0.27023E-04 10962   0.780E-04-0.504E-04
CGA:   5    -0.353707519598E+03   -0.12872E-04   -0.87697E-05 10962   0.318E-04-0.266E-04
CGA:   6    -0.353707521584E+03   -0.19856E-05   -0.26893E-05 10962   0.116E-04 0.368E-05
   2 F= -.35370752E+03 E0= -.35370752E+03  d E =-.246300E-02  mag=     8.0000
       N       E                     dE             d eps       ncg     rms          ort
SDA:   1    -0.353394698644E+03    0.31282E+00    0.00000E+00 10962   0.112E+01 0.000E+00
CGA:   2    -0.353659258394E+03   -0.26456E+00   -0.26468E+00 10962   0.510E+00 0.189E-02
CGA:   3    -0.353742241346E+03   -0.82983E-01   -0.82853E-01 10962   0.200E+00-0.118E-02
CGA:   4    -0.353773832650E+03   -0.31591E-01   -0.31393E-01 10962   0.548E-01-0.154E-02
CGA:   5    -0.353782339052E+03   -0.85064E-02   -0.84567E-02 10962   0.155E-01-0.396E-03
CGA:   6    -0.353784976042E+03   -0.26370E-02   -0.26464E-02 10962   0.535E-02 0.893E-04
CGA:   7    -0.353786164120E+03   -0.11881E-02   -0.11831E-02 10962   0.245E-02-0.953E-04
CGA:   8    -0.353786855561E+03   -0.69144E-03   -0.70294E-03 10962   0.160E-02-0.508E-03
CGA:   9    -0.353787205342E+03   -0.34978E-03   -0.35222E-03 10962   0.879E-03-0.358E-03
CGA:  10    -0.353787374692E+03   -0.16935E-03   -0.16783E-03 10962   0.312E-03-0.606E-04
CGA:  11    -0.353787421926E+03   -0.47235E-04   -0.53721E-04 10962   0.113E-03 0.765E-04
CGA:  12    -0.353787431592E+03   -0.96659E-05   -0.18883E-04 10962   0.538E-04 0.700E-04
   3 F= -.35378743E+03 E0= -.35378743E+03  d E =-.799100E-01  mag=     8.0000
       N       E                     dE             d eps       ncg     rms          ort
SDA:   1    -0.352530757999E+03    0.12567E+01    0.00000E+00 10962   0.400E+01 0.000E+00
CGA:   2    -0.353428841772E+03   -0.89808E+00   -0.89826E+00 10962   0.184E+01 0.409E-02
CGA:   3    -0.353723800197E+03   -0.29496E+00   -0.29479E+00 10962   0.703E+00-0.259E-02
CGA:   4    -0.353833197341E+03   -0.10940E+00   -0.10915E+00 10962   0.191E+00-0.287E-02
CGA:   5    -0.353862358741E+03   -0.29161E-01   -0.29106E-01 10962   0.515E-01-0.681E-03
CGA:   6    -0.353871061223E+03   -0.87025E-02   -0.87148E-02 10962   0.175E-01 0.174E-03
CGA:   7    -0.353874905303E+03   -0.38441E-02   -0.38422E-02 10962   0.799E-02-0.113E-03
CGA:   8    -0.353877063135E+03   -0.21578E-02   -0.21874E-02 10962   0.483E-02-0.717E-03
CGA:   9    -0.353878288406E+03   -0.12253E-02   -0.12563E-02 10962   0.274E-02-0.627E-03
CGA:  10    -0.353878916758E+03   -0.62835E-03   -0.63239E-03 10962   0.105E-02-0.156E-03
CGA:  11    -0.353879130695E+03   -0.21394E-03   -0.21714E-03 10962   0.336E-03 0.150E-03
CGA:  12    -0.353879191447E+03   -0.60752E-04   -0.69250E-04 10962   0.136E-03 0.145E-03
CGA:  13    -0.353879213285E+03   -0.21838E-04   -0.29928E-04 10962   0.682E-04 0.982E-04
CGA:  14    -0.353879227023E+03   -0.13738E-04   -0.14505E-04 10962   0.353E-04 0.398E-04
CGA:  15    -0.353879230475E+03   -0.34515E-05   -0.55906E-05 10962   0.271E-04 0.295E-04
   4 F= -.35387923E+03 E0= -.35387923E+03  d E =-.917989E-01  mag=     8.0000
       N       E                     dE             d eps       ncg     rms          ort
SDA:   1    -0.353019657992E+03    0.85957E+00    0.00000E+00 10962   0.268E+01 0.000E+00
CGA:   2    -0.353625241412E+03   -0.60558E+00   -0.60557E+00 10962   0.124E+01 0.556E-02
CGA:   3    -0.353824350635E+03   -0.19911E+00   -0.19905E+00 10962   0.478E+00-0.115E-02
CGA:   4    -0.353897202490E+03   -0.72852E-01   -0.72736E-01 10962   0.126E+00-0.183E-02
CGA:   5    -0.353916284742E+03   -0.19082E-01   -0.19044E-01 10962   0.341E-01-0.634E-03
CGA:   6    -0.353922030822E+03   -0.57461E-02   -0.57484E-02 10962   0.116E-01 0.472E-04
CGA:   7    -0.353924497071E+03   -0.24662E-02   -0.24662E-02 10962   0.514E-02 0.202E-03
CGA:   8    -0.353925853883E+03   -0.13568E-02   -0.13590E-02 10962   0.290E-02-0.460E-04
CGA:   9    -0.353926682846E+03   -0.82896E-03   -0.84691E-03 10962   0.175E-02-0.225E-03
CGA:  10    -0.353927117209E+03   -0.43436E-03   -0.43720E-03 10962   0.715E-03-0.556E-04
CGA:  11    -0.353927290604E+03   -0.17339E-03   -0.17248E-03 10962   0.240E-03 0.326E-04
CGA:  12    -0.353927346379E+03   -0.55775E-04   -0.55760E-04 10962   0.873E-04 0.587E-04
CGA:  13    -0.353927369068E+03   -0.22689E-04   -0.23080E-04 10962   0.389E-04 0.387E-04
CGA:  14    -0.353927382066E+03   -0.12997E-04   -0.12853E-04 10962   0.194E-04 0.203E-04
CGA:  15    -0.353927388343E+03   -0.62778E-05   -0.58599E-05 10962   0.849E-05 0.523E-05
   5 F= -.35392739E+03 E0= -.35392739E+03  d E =-.481579E-01  mag=     8.0000
       N       E                     dE             d eps       ncg     rms          ort
SDA:   1    -0.351641929353E+03    0.22855E+01    0.00000E+00 10962   0.651E+01 0.000E+00
CGA:   2    -0.353194414314E+03   -0.15525E+01   -0.15524E+01 10962   0.328E+01 0.810E-02
CGA:   3    -0.353717017595E+03   -0.52260E+00   -0.52242E+00 10962   0.120E+01-0.203E-02
CGA:   4    -0.353892786689E+03   -0.17577E+00   -0.17566E+00 10962   0.296E+00-0.178E-02
CGA:   5    -0.353937315321E+03   -0.44529E-01   -0.44517E-01 10962   0.798E-01-0.338E-03
CGA:   6    -0.353950953457E+03   -0.13638E-01   -0.13637E-01 10962   0.272E-01-0.493E-04
CGA:   7    -0.353956610432E+03   -0.56570E-02   -0.56587E-02 10962   0.114E-01 0.234E-03
CGA:   8    -0.353959401895E+03   -0.27915E-02   -0.27863E-02 10962   0.580E-02 0.184E-03
CGA:   9    -0.353961088458E+03   -0.16866E-02   -0.17010E-02 10962   0.339E-02-0.203E-03
CGA:  10    -0.353961992012E+03   -0.90355E-03   -0.90619E-03 10962   0.147E-02-0.480E-04
CGA:  11    -0.353962385118E+03   -0.39311E-03   -0.39397E-03 10962   0.549E-03-0.176E-04
CGA:  12    -0.353962540642E+03   -0.15552E-03   -0.15487E-03 10962   0.231E-03 0.109E-04
CGA:  13    -0.353962607356E+03   -0.66715E-04   -0.64789E-04 10962   0.966E-04 0.408E-04
CGA:  14    -0.353962649866E+03   -0.42509E-04   -0.43719E-04 10962   0.609E-04-0.795E-05
CGA:  15    -0.353962660764E+03   -0.10899E-04   -0.11557E-04 10962   0.263E-04 0.206E-04
CGA:  16    -0.353962667147E+03   -0.63828E-05   -0.68113E-05 10962   0.925E-05 0.990E-05
   6 F= -.35396267E+03 E0= -.35396267E+03  d E =-.352788E-01  mag=     8.0000
       N       E                     dE             d eps       ncg     rms          ort
SDA:   1    -0.350061186270E+03    0.39015E+01    0.00000E+00 10962   0.105E+02 0.000E+00
CGA:   2    -0.352796690964E+03   -0.27355E+01   -0.27352E+01 10962   0.531E+01 0.819E-02
CGA:   3    -0.353614735667E+03   -0.81804E+00   -0.81796E+00 10962   0.184E+01-0.159E-02
CGA:   4    -0.353880925510E+03   -0.26619E+00   -0.26605E+00 10962   0.444E+00-0.184E-02
CGA:   5    -0.353947993272E+03   -0.67068E-01   -0.67049E-01 10962   0.122E+00-0.373E-03
CGA:   6    -0.353968839800E+03   -0.20847E-01   -0.20842E-01 10962   0.405E-01-0.103E-03
CGA:   7    -0.353977133299E+03   -0.82935E-02   -0.82921E-02 10962   0.161E-01-0.780E-04
CGA:   8    -0.353981078088E+03   -0.39448E-02   -0.39505E-02 10962   0.827E-02-0.267E-03
CGA:   9    -0.353983377748E+03   -0.22997E-02   -0.23252E-02 10962   0.471E-02-0.423E-03
CGA:  10    -0.353984602724E+03   -0.12250E-02   -0.12292E-02 10962   0.200E-02-0.915E-04
CGA:  11    -0.353985149041E+03   -0.54632E-03   -0.54871E-03 10962   0.774E-03-0.497E-04
CGA:  12    -0.353985366795E+03   -0.21775E-03   -0.21637E-03 10962   0.329E-03 0.256E-04
CGA:  13    -0.353985466589E+03   -0.99794E-04   -0.96912E-04 10962   0.145E-03 0.582E-04
CGA:  14    -0.353985523420E+03   -0.56831E-04   -0.54808E-04 10962   0.722E-04 0.240E-04
CGA:  15    -0.353985543041E+03   -0.19621E-04   -0.19842E-04 10962   0.292E-04 0.324E-04
CGA:  16    -0.353985554893E+03   -0.11852E-04   -0.11561E-04 10962   0.129E-04 0.944E-05
CGA:  17    -0.353985562121E+03   -0.72275E-05   -0.72722E-05 10962   0.982E-05-0.278E-06
   7 F= -.35398556E+03 E0= -.35398556E+03  d E =-.228950E-01  mag=     8.0000
       N       E                     dE             d eps       ncg     rms          ort
SDA:   1    -0.353668374783E+03    0.31718E+00    0.00000E+00 10962   0.965E+00 0.000E+00
CGA:   2    -0.353875448830E+03   -0.20707E+00   -0.20709E+00 10962   0.533E+00-0.488E-04
CGA:   3    -0.353962275492E+03   -0.86827E-01   -0.86808E-01 10962   0.189E+00-0.353E-03
CGA:   4    -0.353989331977E+03   -0.27056E-01   -0.27057E-01 10962   0.473E-01-0.466E-04
CGA:   5    -0.353996541702E+03   -0.72097E-02   -0.72209E-02 10962   0.134E-01 0.112E-03
CGA:   6    -0.353998770843E+03   -0.22291E-02   -0.22335E-02 10962   0.406E-02 0.593E-04
CGA:   7    -0.353999612209E+03   -0.84137E-03   -0.83938E-03 10962   0.162E-02-0.821E-04
CGA:   8    -0.354000004381E+03   -0.39217E-03   -0.39439E-03 10962   0.839E-03-0.113E-03
CGA:   9    -0.354000212261E+03   -0.20788E-03   -0.21038E-03 10962   0.428E-03-0.639E-04
CGA:  10    -0.354000315562E+03   -0.10330E-03   -0.10330E-03 10962   0.168E-03-0.735E-07
CGA:  11    -0.354000355787E+03   -0.40225E-04   -0.40126E-04 10962   0.574E-04 0.208E-04
CGA:  12    -0.354000372802E+03   -0.17014E-04   -0.16761E-04 10962   0.244E-04 0.968E-05
CGA:  13    -0.354000380739E+03   -0.79371E-05   -0.77159E-05 10962   0.120E-04 0.634E-05
   8 F= -.35400038E+03 E0= -.35400038E+03  d E =-.148186E-01  mag=     8.0000
       N       E                     dE             d eps       ncg     rms          ort
SDA:   1    -0.353801075780E+03    0.19930E+00    0.00000E+00 10962   0.571E+00 0.000E+00
CGA:   2    -0.353936847412E+03   -0.13577E+00   -0.13577E+00 10962   0.335E+00 0.363E-03
CGA:   3    -0.353989556715E+03   -0.52709E-01   -0.52717E-01 10962   0.111E+00 0.209E-04
CGA:   4    -0.354005178638E+03   -0.15622E-01   -0.15618E-01 10962   0.268E-01-0.786E-04
CGA:   5    -0.354009280170E+03   -0.41015E-02   -0.41017E-02 10962   0.765E-02-0.849E-05
CGA:   6    -0.354010574326E+03   -0.12942E-02   -0.12958E-02 10962   0.238E-02 0.265E-04
CGA:   7    -0.354011050323E+03   -0.47600E-03   -0.47662E-03 10962   0.907E-03 0.257E-04
CGA:   8    -0.354011265412E+03   -0.21509E-03   -0.21496E-03 10962   0.422E-03 0.101E-04
CGA:   9    -0.354011380683E+03   -0.11527E-03   -0.11584E-03 10962   0.218E-03-0.117E-04
CGA:  10    -0.354011438524E+03   -0.57841E-04   -0.57928E-04 10962   0.922E-04-0.190E-05
CGA:  11    -0.354011464914E+03   -0.26390E-04   -0.26870E-04 10962   0.399E-04-0.722E-05
CGA:  12    -0.354011476682E+03   -0.11767E-04   -0.12555E-04 10962   0.223E-04-0.713E-05
CGA:  13    -0.354011482543E+03   -0.58611E-05   -0.96091E-05 10962   0.278E-04-0.130E-04
   9 F= -.35401148E+03 E0= -.35401148E+03  d E =-.111018E-01  mag=     8.0000
       N       E                     dE             d eps       ncg     rms          ort
SDA:   1    -0.353066877886E+03    0.94460E+00    0.00000E+00 10962   0.249E+01 0.000E+00
CGA:   2    -0.353726317082E+03   -0.65944E+00   -0.65938E+00 10962   0.141E+01 0.358E-02
CGA:   3    -0.353936327068E+03   -0.21001E+00   -0.21001E+00 10962   0.434E+00-0.323E-03
CGA:   4    -0.353997526475E+03   -0.61199E-01   -0.61103E-01 10962   0.105E+00-0.988E-03
CGA:   5    -0.354013327460E+03   -0.15801E-01   -0.15772E-01 10962   0.290E-01-0.355E-03
CGA:   6    -0.354018168394E+03   -0.48409E-02   -0.48399E-02 10962   0.893E-02-0.222E-04
CGA:   7    -0.354019877144E+03   -0.17088E-02   -0.17123E-02 10962   0.302E-02 0.842E-04
CGA:   8    -0.354020580021E+03   -0.70288E-03   -0.70288E-03 10962   0.136E-02 0.201E-04
CGA:   9    -0.354020960160E+03   -0.38014E-03   -0.38338E-03 10962   0.739E-03-0.659E-04
CGA:  10    -0.354021150905E+03   -0.19074E-03   -0.19110E-03 10962   0.313E-03-0.947E-05
CGA:  11    -0.354021239732E+03   -0.88828E-04   -0.90400E-04 10962   0.128E-03-0.276E-04
CGA:  12    -0.354021273486E+03   -0.33754E-04   -0.33988E-04 10962   0.541E-04-0.452E-05
CGA:  13    -0.354021290897E+03   -0.17411E-04   -0.17456E-04 10962   0.284E-04-0.507E-06
CGA:  14    -0.354021299299E+03   -0.84020E-05   -0.20123E-04 10962   0.642E-04-0.250E-04
CGA:  15    -0.354021308015E+03   -0.87163E-05   -0.10547E-04 10962   0.954E-05 0.175E-04
  10 F= -.35402131E+03 E0= -.35402131E+03  d E =-.982547E-02  mag=     8.0000
       N       E                     dE             d eps       ncg     rms          ort
SDA:   1    -0.346149352194E+03    0.78719E+01    0.00000E+00 10962   0.198E+02 0.000E+00
CGA:   2    -0.351647311272E+03   -0.54980E+01   -0.54979E+01 10962   0.111E+02 0.214E-01
CGA:   3    -0.353290376298E+03   -0.16431E+01   -0.16440E+01 10962   0.342E+01 0.372E-02
CGA:   4    -0.353772147735E+03   -0.48177E+00   -0.48121E+00 10962   0.810E+00-0.359E-02
CGA:   5    -0.353896476620E+03   -0.12433E+00   -0.12421E+00 10962   0.233E+00-0.132E-02
CGA:   6    -0.353936871678E+03   -0.40395E-01   -0.40394E-01 10962   0.763E-01-0.825E-04
CGA:   7    -0.353952002342E+03   -0.15131E-01   -0.15140E-01 10962   0.282E-01 0.138E-03
CGA:   8    -0.353958691638E+03   -0.66893E-02   -0.66888E-02 10962   0.129E-01-0.457E-04
CGA:   9    -0.353962159702E+03   -0.34681E-02   -0.34749E-02 10962   0.639E-02-0.365E-03
CGA:  10    -0.353963829073E+03   -0.16694E-02   -0.16730E-02 10962   0.252E-02-0.201E-03
CGA:  11    -0.353964501697E+03   -0.67262E-03   -0.67556E-03 10962   0.918E-03-0.124E-03
CGA:  12    -0.353964758605E+03   -0.25691E-03   -0.25840E-03 10962   0.390E-03-0.356E-04
CGA:  13    -0.353964887913E+03   -0.12931E-03   -0.12955E-03 10962   0.214E-03-0.289E-05
CGA:  14    -0.353964973556E+03   -0.85643E-04   -0.87773E-04 10962   0.141E-03-0.140E-04
CGA:  15    -0.353965009074E+03   -0.35518E-04   -0.35486E-04 10962   0.553E-04 0.336E-04
CGA:  16    -0.353965030239E+03   -0.21165E-04   -0.21010E-04 10962   0.236E-04 0.392E-05
CGA:  17    -0.353965035956E+03   -0.57172E-05   -0.60064E-05 10962   0.101E-04 0.881E-05
  11 F= -.35396504E+03 E0= -.35396504E+03  d E =0.562721E-01  mag=     8.0000
       N       E                     dE             d eps       ncg     rms          ort
SDA:   1    -0.350200288992E+03    0.37647E+01    0.00000E+00 10962   0.101E+02 0.000E+00
CGA:   2    -0.352867574135E+03   -0.26673E+01   -0.26674E+01 10962   0.523E+01 0.103E-01
CGA:   3    -0.353653070451E+03   -0.78550E+00   -0.78544E+00 10962   0.177E+01 0.713E-03
CGA:   4    -0.353910983303E+03   -0.25791E+00   -0.25759E+00 10962   0.449E+00-0.233E-02
CGA:   5    -0.353979281918E+03   -0.68299E-01   -0.68257E-01 10962   0.127E+00-0.587E-03
CGA:   6    -0.354001236243E+03   -0.21954E-01   -0.21942E-01 10962   0.411E-01-0.176E-03
CGA:   7    -0.354009459294E+03   -0.82231E-02   -0.82167E-02 10962   0.160E-01-0.135E-03
CGA:   8    -0.354013186488E+03   -0.37272E-02   -0.37263E-02 10962   0.680E-02-0.671E-04
CGA:   9    -0.354014961728E+03   -0.17752E-02   -0.17774E-02 10962   0.330E-02-0.149E-03
CGA:  10    -0.354015811902E+03   -0.85017E-03   -0.85086E-03 10962   0.128E-02-0.459E-04
CGA:  11    -0.354016151556E+03   -0.33965E-03   -0.33949E-03 10962   0.473E-03 0.778E-05
CGA:  12    -0.354016301216E+03   -0.14966E-03   -0.15224E-03 10962   0.236E-03-0.375E-04
CGA:  13    -0.354016371825E+03   -0.70609E-04   -0.69664E-04 10962   0.120E-03 0.142E-04
CGA:  14    -0.354016418672E+03   -0.46847E-04   -0.46222E-04 10962   0.695E-04 0.578E-05
CGA:  15    -0.354016441130E+03   -0.22457E-04   -0.21801E-04 10962   0.305E-04 0.180E-04
CGA:  16    -0.354016455149E+03   -0.14020E-04   -0.13778E-04 10962   0.163E-04 0.254E-05
CGA:  17    -0.354016463134E+03   -0.79842E-05   -0.10461E-04 10962   0.198E-04-0.771E-05
  12 F= -.35401646E+03 E0= -.35401646E+03  d E =-.514272E-01  mag=     8.0000
       N       E                     dE             d eps       ncg     rms          ort
SDA:   1    -0.352510425071E+03    0.15060E+01    0.00000E+00 10962   0.416E+01 0.000E+00
CGA:   2    -0.353490733400E+03   -0.98031E+00   -0.98052E+00 10962   0.253E+01 0.134E-02
CGA:   3    -0.353884098257E+03   -0.39336E+00   -0.39319E+00 10962   0.813E+00-0.950E-03
CGA:   4    -0.353997347185E+03   -0.11325E+00   -0.11325E+00 10962   0.190E+00-0.114E-03
CGA:   5    -0.354026118496E+03   -0.28771E-01   -0.28827E-01 10962   0.534E-01 0.397E-03
CGA:   6    -0.354035168333E+03   -0.90498E-02   -0.90687E-02 10962   0.168E-01 0.181E-03
CGA:   7    -0.354038462882E+03   -0.32945E-02   -0.32950E-02 10962   0.583E-02 0.132E-05
CGA:   8    -0.354039741508E+03   -0.12786E-02   -0.12858E-02 10962   0.243E-02 0.193E-03
CGA:   9    -0.354040368909E+03   -0.62740E-03   -0.62796E-03 10962   0.110E-02 0.110E-03
CGA:  10    -0.354040703206E+03   -0.33430E-03   -0.33650E-03 10962   0.528E-03-0.596E-04
CGA:  11    -0.354040828981E+03   -0.12578E-03   -0.12589E-03 10962   0.184E-03 0.222E-04
CGA:  12    -0.354040892773E+03   -0.63792E-04   -0.68512E-04 10962   0.113E-03-0.475E-04
CGA:  13    -0.354040915192E+03   -0.22418E-04   -0.22395E-04 10962   0.535E-04 0.388E-05
CGA:  14    -0.354040932701E+03   -0.17509E-04   -0.17659E-04 10962   0.296E-04-0.264E-05
CGA:  15    -0.354040942884E+03   -0.10183E-04   -0.13865E-04 10962   0.330E-04-0.162E-04
CGA:  16    -0.354040946149E+03   -0.32651E-05   -0.49348E-05 10962   0.706E-05 0.131E-04
  13 F= -.35404095E+03 E0= -.35404095E+03  d E =-.244830E-01  mag=     8.0000
       N       E                     dE             d eps       ncg     rms          ort
SDA:   1    -0.354010275616E+03    0.30667E-01    0.00000E+00 10962   0.831E-01 0.000E+00
CGA:   2    -0.354035020851E+03   -0.24745E-01   -0.24753E-01 10962   0.397E-01-0.272E-03
CGA:   3    -0.354041425883E+03   -0.64050E-02   -0.64014E-02 10962   0.153E-01-0.427E-04
CGA:   4    -0.354043639863E+03   -0.22140E-02   -0.22152E-02 10962   0.397E-02 0.581E-05
CGA:   5    -0.354044292972E+03   -0.65311E-03   -0.65320E-03 10962   0.136E-02 0.485E-07
CGA:   6    -0.354044540432E+03   -0.24746E-03   -0.24555E-03 10962   0.505E-03-0.263E-04
CGA:   7    -0.354044657859E+03   -0.11743E-03   -0.11656E-03 10962   0.274E-03-0.614E-04
CGA:   8    -0.354044724552E+03   -0.66693E-04   -0.70277E-04 10962   0.171E-03-0.839E-04
CGA:   9    -0.354044750233E+03   -0.25681E-04   -0.25028E-04 10962   0.629E-04-0.160E-04
CGA:  10    -0.354044758394E+03   -0.81610E-05   -0.94475E-05 10962   0.212E-04 0.154E-04
  14 F= -.35404476E+03 E0= -.35404476E+03  d E =-.381225E-02  mag=     8.0000
       N       E                     dE             d eps       ncg     rms          ort
SDA:   1    -0.353978987117E+03    0.65763E-01    0.00000E+00 10962   0.173E+00 0.000E+00
CGA:   2    -0.354024867097E+03   -0.45880E-01   -0.45851E-01 10962   0.102E+00 0.107E-02
CGA:   3    -0.354039958477E+03   -0.15091E-01   -0.15093E-01 10962   0.304E-01 0.139E-05
CGA:   4    -0.354044298385E+03   -0.43399E-02   -0.43142E-02 10962   0.738E-02-0.280E-03
CGA:   5    -0.354045421805E+03   -0.11234E-02   -0.11125E-02 10962   0.207E-02-0.140E-03
CGA:   6    -0.354045769416E+03   -0.34761E-03   -0.34524E-03 10962   0.644E-03-0.417E-04
CGA:   7    -0.354045883711E+03   -0.11430E-03   -0.11536E-03 10962   0.204E-03 0.255E-04
CGA:   8    -0.354045926116E+03   -0.42404E-04   -0.42974E-04 10962   0.768E-04 0.296E-04
CGA:   9    -0.354045947364E+03   -0.21248E-04   -0.21012E-04 10962   0.373E-04 0.134E-04
CGA:  10    -0.354045958843E+03   -0.11479E-04   -0.11243E-04 10962   0.174E-04 0.688E-05
CGA:  11    -0.354045965571E+03   -0.67281E-05   -0.70849E-05 10962   0.112E-04-0.296E-05
  15 F= -.35404597E+03 E0= -.35404597E+03  d E =-.120718E-02  mag=     8.0000
       N       E                     dE             d eps       ncg     rms          ort
SDA:   1    -0.350357550847E+03    0.36884E+01    0.00000E+00 10962   0.104E+02 0.000E+00
CGA:   2    -0.352579244463E+03   -0.22217E+01   -0.22223E+01 10962   0.665E+01 0.120E-01
CGA:   3    -0.353661366011E+03   -0.10821E+01   -0.10818E+01 10962   0.215E+01-0.274E-02
CGA:   4    -0.353950801851E+03   -0.28944E+00   -0.28918E+00 10962   0.458E+00-0.231E-02
CGA:   5    -0.354019174078E+03   -0.68372E-01   -0.68423E-01 10962   0.132E+00 0.366E-03
CGA:   6    -0.354041475834E+03   -0.22302E-01   -0.22317E-01 10962   0.406E-01 0.216E-03
CGA:   7    -0.354049211764E+03   -0.77359E-02   -0.77304E-02 10962   0.127E-01-0.166E-03
CGA:   8    -0.354051899555E+03   -0.26878E-02   -0.26915E-02 10962   0.490E-02 0.321E-03
CGA:   9    -0.354053157845E+03   -0.12583E-02   -0.12549E-02 10962   0.218E-02 0.132E-03
CGA:  10    -0.354053779443E+03   -0.62160E-03   -0.62633E-03 10962   0.978E-03-0.858E-04
CGA:  11    -0.354054016674E+03   -0.23723E-03   -0.23582E-03 10962   0.333E-03 0.604E-04
CGA:  12    -0.354054134055E+03   -0.11738E-03   -0.13826E-03 10962   0.253E-03-0.129E-03
CGA:  13    -0.354054166157E+03   -0.32101E-04   -0.32680E-04 10962   0.133E-03 0.224E-04
CGA:  14    -0.354054195078E+03   -0.28921E-04   -0.29743E-04 10962   0.656E-04 0.266E-04
CGA:  15    -0.354054221001E+03   -0.25923E-04   -0.27560E-04 10962   0.542E-04-0.142E-04
CGA:  16    -0.354054227281E+03   -0.62803E-05   -0.74195E-05 10962   0.404E-04 0.174E-04
  16 F= -.35405423E+03 E0= -.35405423E+03  d E =-.826171E-02  mag=     8.0000
       N       E                     dE             d eps       ncg     rms          ort
SDA:   1    -0.335242091219E+03    0.18812E+02    0.00000E+00 10962   0.403E+02 0.000E+00
CGA:   2    -0.346491601230E+03   -0.11250E+02   -0.11219E+02 10962   0.190E+02 0.461E+00
CGA:   3    -0.349835394688E+03   -0.33438E+01   -0.33508E+01 10962   0.816E+01 0.324E-01
CGA:   4    -0.351028849302E+03   -0.11935E+01   -0.11949E+01 10962   0.216E+01 0.334E-03
CGA:   5    -0.351395048473E+03   -0.36620E+00   -0.36612E+00 10962   0.793E+00-0.239E-02
CGA:   6    -0.351540135022E+03   -0.14509E+00   -0.14515E+00 10962   0.287E+00 0.925E-03
CGA:   7    -0.351601145347E+03   -0.61010E-01   -0.61028E-01 10962   0.128E+00 0.140E-02
CGA:   8    -0.351631485572E+03   -0.30340E-01   -0.30340E-01 10962   0.501E-01 0.131E-04
CGA:   9    -0.351643433793E+03   -0.11948E-01   -0.11950E-01 10962   0.194E-01-0.151E-03
CGA:  10    -0.351648332611E+03   -0.48988E-02   -0.49042E-02 10962   0.650E-02-0.184E-03
CGA:  11    -0.351650055245E+03   -0.17226E-02   -0.17379E-02 10962   0.223E-02-0.347E-03
CGA:  12    -0.351650610839E+03   -0.55559E-03   -0.55602E-03 10962   0.674E-03-0.129E-04
CGA:  13    -0.351650824240E+03   -0.21340E-03   -0.22580E-03 10962   0.310E-03-0.116E-03
CGA:  14    -0.351650896149E+03   -0.71910E-04   -0.71211E-04 10962   0.126E-03 0.163E-04
CGA:  15    -0.351650923517E+03   -0.27368E-04   -0.90580E-04 10962   0.334E-03-0.142E-03
CGA:  16    -0.351650959735E+03   -0.36218E-04   -0.48971E-04 10962   0.607E-04 0.113E-03
CGA:  17    -0.351650978877E+03   -0.19141E-04   -0.19095E-04 10962   0.183E-04-0.248E-05
CGA:  18    -0.351650988062E+03   -0.91859E-05    0.66777E-04 10962   0.109E-04 0.582E-05
  17 F= -.35165099E+03 E0= -.35165099E+03  d E =0.240324E+01  mag=     8.0000
       N       E                     dE             d eps       ncg     rms          ort
SDA:   1    -0.345023742644E+03    0.66272E+01    0.00000E+00 10962   0.215E+02 0.000E+00
CGA:   2    -0.351926562602E+03   -0.69028E+01   -0.69280E+01 10962   0.662E+01-0.321E+00
CGA:   3    -0.353370809904E+03   -0.14442E+01   -0.14449E+01 10962   0.217E+01 0.210E-03
CGA:   4    -0.353673576667E+03   -0.30277E+00   -0.30213E+00 10962   0.720E+00-0.480E-02
CGA:   5    -0.353809327278E+03   -0.13575E+00   -0.13551E+00 10962   0.262E+00-0.344E-02
CGA:   6    -0.353855091447E+03   -0.45764E-01   -0.45777E-01 10962   0.106E+00 0.797E-04
CGA:   7    -0.353880774140E+03   -0.25683E-01   -0.25689E-01 10962   0.503E-01-0.157E-02
CGA:   8    -0.353891413419E+03   -0.10639E-01   -0.10602E-01 10962   0.204E-01-0.158E-02
CGA:   9    -0.353896234792E+03   -0.48214E-02   -0.48177E-02 10962   0.696E-02 0.504E-03
CGA:  10    -0.353897883901E+03   -0.16491E-02   -0.16499E-02 10962   0.223E-02 0.152E-03
CGA:  11    -0.353898518437E+03   -0.63454E-03   -0.64522E-03 10962   0.914E-03-0.227E-03
CGA:  12    -0.353898675226E+03   -0.15679E-03   -0.16370E-03 10962   0.287E-03 0.175E-03
CGA:  13    -0.353898746495E+03   -0.71269E-04   -0.73061E-04 10962   0.122E-03 0.761E-04
CGA:  14    -0.353898800150E+03   -0.53654E-04   -0.61687E-04 10962   0.153E-03-0.497E-04
CGA:  15    -0.353898800839E+03   -0.68895E-06   -0.79772E-05 10962   0.118E-03 0.466E-04
CGA:  16    -0.353898803692E+03   -0.28533E-05   -0.13794E-04 10962   0.565E-04 0.745E-04
CGA:  17    -0.353898795583E+03    0.81095E-05   -0.55954E-04 10962   0.223E-03-0.841E-04
CGA:  18    -0.353898834706E+03   -0.39123E-04   -0.43110E-04 10962   0.271E-04 0.543E-04
CGA:  19    -0.353898846135E+03   -0.11429E-04   -0.13221E-04 10962   0.160E-04-0.140E-04
CGA:  20    -0.353898846697E+03   -0.56224E-06   -0.18977E-05 10962   0.562E-05 0.884E-05
  18 F= -.35389885E+03 E0= -.35389885E+03  d E =-.224786E+01  mag=     8.0000
       N       E                     dE             d eps       ncg     rms          ort
SDA:   1    -0.353156323216E+03    0.74252E+00    0.00000E+00 10962   0.203E+01 0.000E+00
CGA:   2    -0.353811002149E+03   -0.65468E+00   -0.65498E+00 10962   0.638E+00-0.440E-02
CGA:   3    -0.353957121908E+03   -0.14612E+00   -0.14614E+00 10962   0.219E+00 0.494E-03
CGA:   4    -0.353987554200E+03   -0.30432E-01   -0.30377E-01 10962   0.710E-01-0.415E-03
CGA:   5    -0.354000483553E+03   -0.12929E-01   -0.12916E-01 10962   0.238E-01-0.154E-03
CGA:   6    -0.354004544232E+03   -0.40607E-02   -0.40601E-02 10962   0.952E-02-0.120E-04
CGA:   7    -0.354006859671E+03   -0.23154E-02   -0.23139E-02 10962   0.459E-02-0.225E-03
CGA:   8    -0.354007802755E+03   -0.94308E-03   -0.93964E-03 10962   0.180E-02-0.861E-04
CGA:   9    -0.354008225593E+03   -0.42284E-03   -0.42349E-03 10962   0.636E-03 0.803E-04
CGA:  10    -0.354008382537E+03   -0.15694E-03   -0.15710E-03 10962   0.219E-03 0.150E-04
CGA:  11    -0.354008436598E+03   -0.54061E-04   -0.54137E-04 10962   0.723E-04 0.142E-04
CGA:  12    -0.354008453724E+03   -0.17126E-04   -0.17353E-04 10962   0.249E-04 0.108E-04
CGA:  13    -0.354008462006E+03   -0.82820E-05   -0.81981E-05 10962   0.114E-04 0.201E-05
  19 F= -.35400846E+03 E0= -.35400846E+03  d E =-.109615E+00  mag=     8.0000
       N       E                     dE             d eps       ncg     rms          ort
SDA:   1    -0.353872525919E+03    0.13593E+00    0.00000E+00 10962   0.358E+00 0.000E+00
CGA:   2    -0.353979758360E+03   -0.10723E+00   -0.10719E+00 10962   0.152E+00 0.643E-03
CGA:   3    -0.354005697875E+03   -0.25940E-01   -0.25955E-01 10962   0.637E-01 0.157E-03
CGA:   4    -0.354014945311E+03   -0.92474E-02   -0.92391E-02 10962   0.164E-01-0.938E-04
CGA:   5    -0.354017672109E+03   -0.27268E-02   -0.27253E-02 10962   0.585E-02-0.245E-04
CGA:   6    -0.354018702544E+03   -0.10304E-02   -0.10319E-02 10962   0.203E-02 0.251E-04
CGA:   7    -0.354019137705E+03   -0.43516E-03   -0.43557E-03 10962   0.928E-03 0.244E-04
CGA:   8    -0.354019346758E+03   -0.20905E-03   -0.20943E-03 10962   0.348E-03 0.560E-04
CGA:   9    -0.354019428377E+03   -0.81619E-04   -0.81920E-04 10962   0.133E-03 0.406E-04
CGA:  10    -0.354019466397E+03   -0.38020E-04   -0.37802E-04 10962   0.494E-04 0.856E-05
CGA:  11    -0.354019478280E+03   -0.11883E-04   -0.11914E-04 10962   0.163E-04 0.830E-05
CGA:  12    -0.354019483493E+03   -0.52130E-05   -0.51679E-05 10962   0.672E-05 0.110E-05
  20 F= -.35401948E+03 E0= -.35401948E+03  d E =-.110215E-01  mag=     8.0000
       N       E                     dE             d eps       ncg     rms          ort
SDA:   1    -0.353973658337E+03    0.45820E-01    0.00000E+00 10962   0.166E+00 0.000E+00
CGA:   2    -0.354021877171E+03   -0.48219E-01   -0.48191E-01 10962   0.788E-01 0.732E-03
CGA:   3    -0.354034587048E+03   -0.12710E-01   -0.12726E-01 10962   0.316E-01 0.147E-03
CGA:   4    -0.354039265269E+03   -0.46782E-02   -0.46704E-02 10962   0.846E-02-0.782E-04
CGA:   5    -0.354040585875E+03   -0.13206E-02   -0.13180E-02 10962   0.274E-02-0.308E-04
CGA:   6    -0.354041066277E+03   -0.48040E-03   -0.48355E-03 10962   0.916E-03 0.469E-04
CGA:   7    -0.354041259197E+03   -0.19292E-03   -0.19548E-03 10962   0.375E-03 0.841E-04
CGA:   8    -0.354041337252E+03   -0.78055E-04   -0.81306E-04 10962   0.135E-03 0.815E-04
CGA:   9    -0.354041371133E+03   -0.33881E-04   -0.34789E-04 10962   0.565E-04 0.362E-04
CGA:  10    -0.354041392177E+03   -0.21044E-04   -0.21081E-04 10962   0.279E-04-0.620E-06
CGA:  11    -0.354041398157E+03   -0.59806E-05   -0.60307E-05 10962   0.880E-05 0.252E-05
  21 F= -.35404140E+03 E0= -.35404140E+03  d E =-.219147E-01  mag=     8.0000
       N       E                     dE             d eps       ncg     rms          ort
SDA:   1    -0.353950173057E+03    0.91219E-01    0.00000E+00 10962   0.256E+00 0.000E+00
CGA:   2    -0.354022569682E+03   -0.72397E-01   -0.72345E-01 10962   0.125E+00 0.113E-02
CGA:   3    -0.354042601351E+03   -0.20032E-01   -0.20052E-01 10962   0.487E-01 0.200E-03
CGA:   4    -0.354049979178E+03   -0.73778E-02   -0.73670E-02 10962   0.130E-01-0.127E-03
CGA:   5    -0.354052058611E+03   -0.20794E-02   -0.20766E-02 10962   0.411E-02-0.416E-04
CGA:   6    -0.354052765932E+03   -0.70732E-03   -0.71121E-03 10962   0.149E-02 0.652E-04
CGA:   7    -0.354053063956E+03   -0.29802E-03   -0.30137E-03 10962   0.605E-03 0.111E-03
CGA:   8    -0.354053193201E+03   -0.12925E-03   -0.13212E-03 10962   0.219E-03 0.117E-03
CGA:   9    -0.354053247857E+03   -0.54656E-04   -0.55388E-04 10962   0.913E-04 0.518E-04
CGA:  10    -0.354053281204E+03   -0.33347E-04   -0.33785E-04 10962   0.490E-04-0.598E-05
CGA:  11    -0.354053291457E+03   -0.10253E-04   -0.10256E-04 10962   0.162E-04 0.655E-06
CGA:  12    -0.354053296205E+03   -0.47484E-05   -0.51436E-05 10962   0.767E-05-0.470E-05
  22 F= -.35405330E+03 E0= -.35405330E+03  d E =-.118980E-01  mag=     8.0000
       N       E                     dE             d eps       ncg     rms          ort
SDA:   1    -0.354041445591E+03    0.11846E-01    0.00000E+00 10962   0.402E-01 0.000E+00
CGA:   2    -0.354049844214E+03   -0.83986E-02   -0.84094E-02 10962   0.225E-01 0.423E-03
CGA:   3    -0.354053555240E+03   -0.37110E-02   -0.37237E-02 10962   0.834E-02 0.179E-03
CGA:   4    -0.354054806225E+03   -0.12510E-02   -0.12458E-02 10962   0.224E-02-0.674E-04
CGA:   5    -0.354055152764E+03   -0.34654E-03   -0.34370E-03 10962   0.663E-03-0.413E-04
CGA:   6    -0.354055259604E+03   -0.10684E-03   -0.10726E-03 10962   0.207E-03 0.730E-05
CGA:   7    -0.354055295076E+03   -0.35473E-04   -0.36835E-04 10962   0.675E-04 0.323E-04
CGA:   8    -0.354055302313E+03   -0.72370E-05   -0.10330E-04 10962   0.283E-04 0.368E-04
  23 F= -.35405530E+03 E0= -.35405530E+03  d E =-.200611E-02  mag=     8.0000
       N       E                     dE             d eps       ncg     rms          ort
SDA:   1    -0.353896190664E+03    0.15910E+00    0.00000E+00 10962   0.510E+00 0.000E+00
CGA:   2    -0.353991639353E+03   -0.95449E-01   -0.95493E-01 10962   0.276E+00 0.178E-02
CGA:   3    -0.354039519261E+03   -0.47880E-01   -0.47903E-01 10962   0.110E+00 0.580E-03
CGA:   4    -0.354055419314E+03   -0.15900E-01   -0.15880E-01 10962   0.262E-01-0.357E-03
CGA:   5    -0.354059355427E+03   -0.39361E-02   -0.39302E-02 10962   0.736E-02-0.125E-03
CGA:   6    -0.354060600629E+03   -0.12452E-02   -0.12457E-02 10962   0.236E-02 0.132E-04
CGA:   7    -0.354061056377E+03   -0.45575E-03   -0.45607E-03 10962   0.802E-03 0.653E-04
CGA:   8    -0.354061206135E+03   -0.14976E-03   -0.15197E-03 10962   0.283E-03 0.163E-03
CGA:   9    -0.354061268640E+03   -0.62505E-04   -0.63678E-04 10962   0.121E-03 0.112E-03
CGA:  10    -0.354061309023E+03   -0.40383E-04   -0.39055E-04 10962   0.641E-04 0.387E-04
CGA:  11    -0.354061333046E+03   -0.24022E-04   -0.23215E-04 10962   0.349E-04 0.106E-04
CGA:  12    -0.354061343525E+03   -0.10479E-04   -0.10156E-04 10962   0.147E-04 0.680E-05
CGA:  13    -0.354061297768E+03    0.45757E-04   -0.24893E-04 10962   0.237E-03-0.608E-04
CGA:  14    -0.354061340290E+03   -0.42522E-04   -0.46483E-04 10962   0.305E-04 0.223E-04
CGA:  15    -0.354061336324E+03    0.39667E-05   -0.29821E-04 10962   0.169E-03-0.638E-04
CGA:  16    -0.354061344867E+03   -0.85436E-05   -0.23962E-04 10962   0.316E-04 0.619E-04
  24 F= -.35406134E+03 E0= -.35406134E+03  d E =-.604255E-02  mag=     8.0000
       N       E                     dE             d eps       ncg     rms          ort
SDA:   1    -0.353925040784E+03    0.13630E+00    0.00000E+00 10962   0.420E+00 0.000E+00
CGA:   2    -0.354011187423E+03   -0.86147E-01   -0.86307E-01 10962   0.239E+00 0.675E-03
CGA:   3    -0.354050878714E+03   -0.39691E-01   -0.39722E-01 10962   0.869E-01 0.987E-04
CGA:   4    -0.354063155883E+03   -0.12277E-01   -0.12230E-01 10962   0.192E-01-0.237E-03
CGA:   5    -0.354066059737E+03   -0.29039E-02   -0.28931E-02 10962   0.520E-02-0.642E-04
CGA:   6    -0.354066946712E+03   -0.88698E-03   -0.88698E-03 10962   0.162E-02-0.178E-05
CGA:   7    -0.354067267568E+03   -0.32086E-03   -0.32016E-03 10962   0.555E-03-0.609E-05
CGA:   8    -0.354067378647E+03   -0.11108E-03   -0.11600E-03 10962   0.227E-03 0.452E-04
CGA:   9    -0.354067435397E+03   -0.56750E-04   -0.59254E-04 10962   0.106E-03 0.351E-04
CGA:  10    -0.354067475382E+03   -0.39984E-04   -0.40118E-04 10962   0.714E-04-0.701E-05
CGA:  11    -0.354067492127E+03   -0.16745E-04   -0.17035E-04 10962   0.309E-04 0.529E-05
CGA:  12    -0.354067503118E+03   -0.10991E-04   -0.11199E-04 10962   0.188E-04-0.682E-05
CGA:  13    -0.354067507363E+03   -0.42446E-05   -0.80707E-05 10962   0.307E-04-0.159E-04
  25 F= -.35406751E+03 E0= -.35406751E+03  d E =-.616250E-02  mag=     8.0000
       N       E                     dE             d eps       ncg     rms          ort
SDA:   1    -0.346735133674E+03    0.73324E+01    0.00000E+00 10962   0.192E+02 0.000E+00
CGA:   2    -0.351762917038E+03   -0.50278E+01   -0.50298E+01 10962   0.108E+02 0.174E-01
CGA:   3    -0.353415959886E+03   -0.16530E+01   -0.16533E+01 10962   0.343E+01 0.672E-02
CGA:   4    -0.353892039797E+03   -0.47608E+00   -0.47544E+00 10962   0.771E+00-0.172E-02
CGA:   5    -0.354009348797E+03   -0.11731E+00   -0.11723E+00 10962   0.222E+00-0.850E-03
CGA:   6    -0.354047145975E+03   -0.37797E-01   -0.37811E-01 10962   0.713E-01 0.395E-04
CGA:   7    -0.354061349259E+03   -0.14203E-01   -0.14191E-01 10962   0.258E-01-0.180E-03
CGA:   8    -0.354067421193E+03   -0.60719E-02   -0.60799E-02 10962   0.127E-01 0.183E-03
CGA:   9    -0.354070924378E+03   -0.35032E-02   -0.35032E-02 10962   0.681E-02-0.770E-05
CGA:  10    -0.354072934680E+03   -0.20103E-02   -0.20177E-02 10962   0.340E-02-0.343E-03
CGA:  11    -0.354073823171E+03   -0.88849E-03   -0.88848E-03 10962   0.132E-02-0.937E-05
CGA:  12    -0.354074247382E+03   -0.42421E-03   -0.43142E-03 10962   0.694E-03-0.138E-03
CGA:  13    -0.354074444366E+03   -0.19698E-03   -0.19574E-03 10962   0.337E-03 0.338E-04
CGA:  14    -0.354074561707E+03   -0.11734E-03   -0.11603E-03 10962   0.158E-03 0.272E-04
CGA:  15    -0.354074624372E+03   -0.62666E-04   -0.62976E-04 10962   0.751E-04-0.370E-05
CGA:  16    -0.354074644710E+03   -0.20338E-04   -0.20443E-04 10962   0.259E-04 0.124E-04
CGA:  17    -0.354074497580E+03    0.14713E-03   -0.79459E-04 10962   0.688E-03-0.134E-03
CGA:  18    -0.354074626854E+03   -0.12927E-03   -0.15815E-03 10962   0.809E-04 0.983E-04
CGA:  19    -0.354074727999E+03   -0.10115E-03    0.30826E-03 10962   0.191E-03-0.881E-04
CGA:  20    -0.354074702082E+03    0.25917E-04   -0.14029E-04 10962   0.486E-04 0.918E-04
CGA:  21    -0.354074687761E+03    0.14321E-04   -0.35741E-05 10962   0.200E-04 0.409E-04
CGA:  22    -0.354074684443E+03    0.33179E-05   -0.18914E-05 10962   0.103E-04 0.141E-04
  26 F= -.35407468E+03 E0= -.35407468E+03  d E =-.717708E-02  mag=     8.0000
       N       E                     dE             d eps       ncg     rms          ort
SDA:   1    -0.352547180012E+03    0.15275E+01    0.00000E+00 10962   0.401E+01 0.000E+00
CGA:   2    -0.353578284699E+03   -0.10311E+01   -0.10317E+01 10962   0.255E+01 0.631E-03
CGA:   3    -0.353957817780E+03   -0.37953E+00   -0.37933E+00 10962   0.737E+00 0.360E-02
CGA:   4    -0.354060901263E+03   -0.10308E+00   -0.10309E+00 10962   0.177E+00 0.526E-04
CGA:   5    -0.354088139375E+03   -0.27238E-01   -0.27222E-01 10962   0.530E-01-0.110E-03
CGA:   6    -0.354097317387E+03   -0.91780E-02   -0.91720E-02 10962   0.168E-01-0.419E-04
CGA:   7    -0.354100501620E+03   -0.31842E-02   -0.32175E-02 10962   0.583E-02 0.177E-03
CGA:   8    -0.354101770307E+03   -0.12687E-02   -0.13000E-02 10962   0.233E-02 0.214E-03
CGA:   9    -0.354102363192E+03   -0.59289E-03   -0.60124E-03 10962   0.102E-02 0.763E-04
CGA:  10    -0.354102638078E+03   -0.27489E-03   -0.27624E-03 10962   0.396E-03 0.149E-04
CGA:  11    -0.354102755100E+03   -0.11702E-03   -0.11532E-03 10962   0.159E-03-0.277E-04
CGA:  12    -0.354102802742E+03   -0.47642E-04   -0.46892E-04 10962   0.724E-04-0.256E-04
CGA:  13    -0.354102820514E+03   -0.17772E-04   -0.17893E-04 10962   0.315E-04 0.238E-05
CGA:  14    -0.354102807570E+03    0.12944E-04   -0.36571E-04 10962   0.238E-03-0.635E-04
CGA:  15    -0.354102848621E+03   -0.41051E-04   -0.47172E-04 10962   0.254E-04 0.335E-04
CGA:  16    -0.354102810928E+03    0.37693E-04   -0.35228E-04 10962   0.297E-03-0.864E-04
CGA:  17    -0.354102834921E+03   -0.23993E-04   -0.47961E-04 10962   0.561E-04 0.948E-04
CGA:  18    -0.354102856548E+03   -0.21627E-04   -0.20541E-04 10962   0.962E-05-0.880E-05
CGA:  19    -0.354102870470E+03   -0.13922E-04    0.13656E-05 10962   0.766E-05-0.473E-05
CGA:  20    -0.354102869404E+03    0.10662E-05   -0.12805E-06 10962   0.638E-05 0.330E-05
  27 F= -.35410287E+03 E0= -.35410287E+03  d E =-.281850E-01  mag=     8.0000
       N       E                     dE             d eps       ncg     rms          ort
SDA:   1    -0.352807977776E+03    0.12949E+01    0.00000E+00 10962   0.353E+01 0.000E+00
CGA:   2    -0.353649865728E+03   -0.84189E+00   -0.84200E+00 10962   0.202E+01-0.127E-02
CGA:   3    -0.353965298313E+03   -0.31543E+00   -0.31529E+00 10962   0.682E+00-0.330E-03
CGA:   4    -0.354060815082E+03   -0.95517E-01   -0.95609E-01 10962   0.156E+00 0.295E-03
CGA:   5    -0.354084173693E+03   -0.23359E-01   -0.23442E-01 10962   0.433E-01 0.399E-03
CGA:   6    -0.354091531650E+03   -0.73580E-02   -0.73685E-02 10962   0.139E-01 0.603E-04
CGA:   7    -0.354094344743E+03   -0.28131E-02   -0.28007E-02 10962   0.513E-02-0.112E-03
CGA:   8    -0.354095601561E+03   -0.12568E-02   -0.12440E-02 10962   0.267E-02-0.195E-03
CGA:   9    -0.354096339355E+03   -0.73779E-03   -0.73311E-03 10962   0.154E-02-0.215E-03
CGA:  10    -0.354096721422E+03   -0.38207E-03   -0.38154E-03 10962   0.658E-03-0.148E-04
CGA:  11    -0.354096893483E+03   -0.17206E-03   -0.17315E-03 10962   0.246E-03 0.276E-04
CGA:  12    -0.354096961785E+03   -0.68301E-04   -0.69217E-04 10962   0.104E-03 0.279E-04
CGA:  13    -0.354096990859E+03   -0.29075E-04   -0.30266E-04 10962   0.486E-04 0.301E-04
CGA:  14    -0.354097011194E+03   -0.20335E-04   -0.20098E-04 10962   0.278E-04 0.111E-04
CGA:  15    -0.354097018507E+03   -0.73130E-05   -0.81479E-05 10962   0.126E-04 0.135E-04
  28 F= -.35409702E+03 E0= -.35409702E+03  d E =0.585090E-02  mag=     8.0000
       N       E                     dE             d eps       ncg     rms          ort
SDA:   1    -0.353945881949E+03    0.15113E+00    0.00000E+00 10962   0.394E+00 0.000E+00
CGA:   2    -0.354042512005E+03   -0.96630E-01   -0.96575E-01 10962   0.226E+00-0.136E-02
CGA:   3    -0.354077007044E+03   -0.34495E-01   -0.34487E-01 10962   0.765E-01-0.102E-03
CGA:   4    -0.354087948326E+03   -0.10941E-01   -0.10970E-01 10962   0.186E-01 0.182E-03
CGA:   5    -0.354090759338E+03   -0.28110E-02   -0.28286E-02 10962   0.536E-02 0.137E-03
CGA:   6    -0.354091683942E+03   -0.92460E-03   -0.92988E-03 10962   0.179E-02 0.535E-04
CGA:   7    -0.354092076680E+03   -0.39274E-03   -0.38894E-03 10962   0.761E-03-0.773E-04
CGA:   8    -0.354092275163E+03   -0.19848E-03   -0.20052E-03 10962   0.470E-03-0.148E-03
CGA:   9    -0.354092368801E+03   -0.93638E-04   -0.92909E-04 10962   0.212E-03-0.426E-04
CGA:  10    -0.354092413553E+03   -0.44752E-04   -0.44990E-04 10962   0.727E-04 0.849E-05
CGA:  11    -0.354092430254E+03   -0.16701E-04   -0.17049E-04 10962   0.267E-04 0.999E-05
CGA:  12    -0.354092434272E+03   -0.40183E-05   -0.51531E-05 10962   0.116E-04 0.127E-04
  29 F= -.35409243E+03 E0= -.35409243E+03  d E =0.458424E-02  mag=     8.0000
       N       E                     dE             d eps       ncg     rms          ort
SDA:   1    -0.353877223502E+03    0.21521E+00    0.00000E+00 10962   0.523E+00 0.000E+00
CGA:   2    -0.354052256922E+03   -0.17503E+00   -0.17493E+00 10962   0.206E+00 0.109E-02
CGA:   3    -0.354084471354E+03   -0.32214E-01   -0.32204E-01 10962   0.673E-01-0.159E-03
CGA:   4    -0.354093534684E+03   -0.90633E-02   -0.90359E-02 10962   0.152E-01-0.261E-03
CGA:   5    -0.354095980011E+03   -0.24453E-02   -0.24294E-02 10962   0.491E-02-0.199E-03
CGA:   6    -0.354096785409E+03   -0.80540E-03   -0.80769E-03 10962   0.145E-02 0.308E-04
CGA:   7    -0.354097051482E+03   -0.26607E-03   -0.27046E-03 10962   0.485E-03 0.892E-04
CGA:   8    -0.354097161733E+03   -0.11025E-03   -0.11126E-03 10962   0.210E-03 0.617E-04
CGA:   9    -0.354097215195E+03   -0.53462E-04   -0.53721E-04 10962   0.959E-04 0.522E-04
CGA:  10    -0.354097250206E+03   -0.35010E-04   -0.34486E-04 10962   0.527E-04 0.925E-05
CGA:  11    -0.354097268908E+03   -0.18702E-04   -0.20142E-04 10962   0.351E-04-0.126E-04
CGA:  12    -0.354097273603E+03   -0.46952E-05   -0.49735E-05 10962   0.144E-04 0.516E-05
  30 F= -.35409727E+03 E0= -.35409727E+03  d E =-.483933E-02  mag=     8.0000
       N       E                     dE             d eps       ncg     rms          ort
SDA:   1    -0.347067208814E+03    0.70301E+01    0.00000E+00 10962   0.164E+02 0.000E+00
CGA:   2    -0.352712520181E+03   -0.56453E+01   -0.56457E+01 10962   0.679E+01-0.477E-02
CGA:   3    -0.353689895636E+03   -0.97738E+00   -0.97820E+00 10962   0.205E+01 0.788E-03
CGA:   4    -0.353971752560E+03   -0.28186E+00   -0.28173E+00 10962   0.485E+00-0.177E-02
CGA:   5    -0.354048915526E+03   -0.77163E-01   -0.77020E-01 10962   0.153E+00-0.194E-02
CGA:   6    -0.354074584439E+03   -0.25669E-01   -0.25684E-01 10962   0.475E-01 0.201E-03
CGA:   7    -0.354083665292E+03   -0.90809E-02   -0.90898E-02 10962   0.162E-01 0.249E-03
CGA:   8    -0.354087600380E+03   -0.39351E-02   -0.39396E-02 10962   0.802E-02-0.240E-03
CGA:   9    -0.354089626526E+03   -0.20261E-02   -0.20214E-02 10962   0.367E-02 0.155E-03
CGA:  10    -0.354090712226E+03   -0.10857E-02   -0.11075E-02 10962   0.173E-02-0.312E-03
CGA:  11    -0.354091160896E+03   -0.44867E-03   -0.46675E-03 10962   0.728E-03-0.280E-03
CGA:  12    -0.354091308432E+03   -0.14754E-03   -0.14712E-03 10962   0.257E-03 0.511E-04
CGA:  13    -0.354091408482E+03   -0.10005E-03   -0.10782E-03 10962   0.220E-03-0.493E-04
CGA:  14    -0.354091462851E+03   -0.54369E-04   -0.53043E-04 10962   0.146E-03 0.229E-04
CGA:  15    -0.354091516236E+03   -0.53385E-04   -0.52748E-04 10962   0.856E-04 0.733E-05
CGA:  16    -0.354091542836E+03   -0.26600E-04   -0.54320E-04 10962   0.150E-03-0.784E-04
CGA:  17    -0.354091556748E+03   -0.13912E-04   -0.21798E-04 10962   0.357E-04 0.653E-04
CGA:  18    -0.354091566294E+03   -0.95455E-05   -0.10107E-04 10962   0.109E-04 0.894E-05
  31 F= -.35409157E+03 E0= -.35409157E+03  d E =0.570731E-02  mag=     8.0000
       N       E                     dE             d eps       ncg     rms          ort
SDA:   1    -0.340540899652E+03    0.13551E+02    0.00000E+00 10962   0.331E+02 0.000E+00
CGA:   2    -0.348409509694E+03   -0.78686E+01   -0.78710E+01 10962   0.199E+02 0.451E-01
CGA:   3    -0.351599373059E+03   -0.31899E+01   -0.31894E+01 10962   0.702E+01 0.182E-01
CGA:   4    -0.352604444595E+03   -0.10051E+01   -0.10052E+01 10962   0.177E+01 0.220E-02
CGA:   5    -0.352888695246E+03   -0.28425E+00   -0.28458E+00 10962   0.568E+00 0.114E-02
CGA:   6    -0.352989128223E+03   -0.10043E+00   -0.10049E+00 10962   0.195E+00 0.730E-03
CGA:   7    -0.353029105240E+03   -0.39977E-01   -0.39952E-01 10962   0.790E-01-0.712E-03
CGA:   8    -0.353048160906E+03   -0.19056E-01   -0.19061E-01 10962   0.350E-01-0.894E-03
CGA:   9    -0.353056429489E+03   -0.82686E-02   -0.82699E-02 10962   0.136E-01-0.622E-03
CGA:  10    -0.353059862298E+03   -0.34328E-02   -0.34362E-02 10962   0.471E-02-0.166E-03
CGA:  11    -0.353061005400E+03   -0.11431E-02   -0.11422E-02 10962   0.146E-02 0.118E-03
CGA:  12    -0.353061414003E+03   -0.40860E-03   -0.40768E-03 10962   0.499E-03 0.267E-04
CGA:  13    -0.353061550356E+03   -0.13635E-03   -0.13459E-03 10962   0.193E-03 0.712E-04
CGA:  14    -0.353061621959E+03   -0.71602E-04   -0.69697E-04 10962   0.103E-03 0.251E-04
CGA:  15    -0.353061656096E+03   -0.34137E-04   -0.32697E-04 10962   0.561E-04 0.388E-04
CGA:  16    -0.353061677488E+03   -0.21392E-04   -0.20766E-04 10962   0.312E-04 0.288E-04
CGA:  17    -0.353061690227E+03   -0.12739E-04   -0.23771E-04 10962   0.833E-04-0.216E-04
CGA:  18    -0.353061702719E+03   -0.12492E-04   -0.14318E-04 10962   0.118E-04 0.179E-04
CGA:  19    -0.353061711024E+03   -0.83048E-05    0.24611E-04 10962   0.873E-05 0.386E-05
  32 F= -.35306171E+03 E0= -.35306171E+03  d E =0.102986E+01  mag=     8.0000
       N       E                     dE             d eps       ncg     rms          ort
SDA:   1    -0.349922452316E+03    0.31393E+01    0.00000E+00 10962   0.971E+01 0.000E+00
CGA:   2    -0.352975149637E+03   -0.30527E+01   -0.30542E+01 10962   0.334E+01-0.294E-01
CGA:   3    -0.353691735381E+03   -0.71659E+00   -0.71651E+00 10962   0.125E+01-0.318E-02
CGA:   4    -0.353853844208E+03   -0.16211E+00   -0.16207E+00 10962   0.344E+00-0.427E-03
CGA:   5    -0.353918304874E+03   -0.64461E-01   -0.64441E-01 10962   0.121E+00-0.197E-03
CGA:   6    -0.353938944419E+03   -0.20640E-01   -0.20613E-01 10962   0.461E-01-0.289E-03
CGA:   7    -0.353949743158E+03   -0.10799E-01   -0.10786E-01 10962   0.224E-01-0.532E-03
CGA:   8    -0.353954728003E+03   -0.49848E-02   -0.49762E-02 10962   0.881E-02-0.265E-03
CGA:   9    -0.353956925970E+03   -0.21980E-02   -0.21976E-02 10962   0.361E-02-0.101E-03
CGA:  10    -0.353957802562E+03   -0.87659E-03   -0.87559E-03 10962   0.121E-02-0.965E-04
CGA:  11    -0.353958098090E+03   -0.29553E-03   -0.29559E-03 10962   0.372E-03 0.213E-04
CGA:  12    -0.353958208648E+03   -0.11056E-03   -0.11114E-03 10962   0.163E-03-0.153E-04
CGA:  13    -0.353958254211E+03   -0.45563E-04   -0.45057E-04 10962   0.719E-04 0.160E-04
CGA:  14    -0.353958279016E+03   -0.24805E-04   -0.24076E-04 10962   0.399E-04 0.156E-04
CGA:  15    -0.353958300914E+03   -0.21898E-04   -0.26084E-04 10962   0.523E-04-0.152E-04
CGA:  16    -0.353958307636E+03   -0.67219E-05   -0.69925E-05 10962   0.362E-04 0.456E-05
  33 F= -.35395831E+03 E0= -.35395831E+03  d E =-.896597E+00  mag=     8.0000
       N       E                     dE             d eps       ncg     rms          ort
SDA:   1    -0.353385254735E+03    0.57305E+00    0.00000E+00 10962   0.164E+01 0.000E+00
CGA:   2    -0.353886635407E+03   -0.50138E+00   -0.50123E+00 10962   0.642E+00 0.344E-02
CGA:   3    -0.354006340496E+03   -0.11971E+00   -0.11969E+00 10962   0.279E+00-0.469E-03
CGA:   4    -0.354044110904E+03   -0.37770E-01   -0.37739E-01 10962   0.683E-01-0.287E-03
CGA:   5    -0.354056186570E+03   -0.12076E-01   -0.12069E-01 10962   0.250E-01-0.973E-04
CGA:   6    -0.354060543754E+03   -0.43572E-02   -0.43574E-02 10962   0.874E-02-0.217E-05
CGA:   7    -0.354062482145E+03   -0.19384E-02   -0.19419E-02 10962   0.416E-02 0.117E-03
CGA:   8    -0.354063427069E+03   -0.94492E-03   -0.94890E-03 10962   0.158E-02 0.156E-03
CGA:   9    -0.354063829637E+03   -0.40257E-03   -0.40269E-03 10962   0.663E-03 0.276E-04
CGA:  10    -0.354064006206E+03   -0.17657E-03   -0.17703E-03 10962   0.243E-03-0.350E-04
CGA:  11    -0.354064065778E+03   -0.59572E-04   -0.59641E-04 10962   0.775E-04-0.716E-05
CGA:  12    -0.354064090061E+03   -0.24283E-04   -0.27292E-04 10962   0.510E-04-0.268E-04
CGA:  13    -0.354064100819E+03   -0.10758E-04   -0.11543E-04 10962   0.277E-04-0.878E-05
CGA:  14    -0.354064104143E+03   -0.33242E-05   -0.16605E-04 10962   0.758E-04-0.288E-04
CGA:  15    -0.354064118318E+03   -0.14175E-04   -0.14967E-04 10962   0.871E-05 0.918E-05
CGA:  16    -0.354064121145E+03   -0.28270E-05   -0.28178E-05 10962   0.399E-05 0.983E-06
  34 F= -.35406412E+03 E0= -.35406412E+03  d E =-.105814E+00  mag=     8.0000
       N       E                     dE             d eps       ncg     rms          ort
SDA:   1    -0.353812370134E+03    0.25175E+00    0.00000E+00 10962   0.680E+00 0.000E+00
CGA:   2    -0.354001490985E+03   -0.18912E+00   -0.18911E+00 10962   0.335E+00 0.267E-02
CGA:   3    -0.354054163612E+03   -0.52673E-01   -0.52698E-01 10962   0.132E+00 0.150E-03
CGA:   4    -0.354074033224E+03   -0.19870E-01   -0.19848E-01 10962   0.364E-01-0.205E-03
CGA:   5    -0.354079843132E+03   -0.58099E-02   -0.57976E-02 10962   0.115E-01-0.134E-03
CGA:   6    -0.354081864029E+03   -0.20209E-02   -0.20219E-02 10962   0.423E-02 0.892E-05
CGA:   7    -0.354082710563E+03   -0.84653E-03   -0.85780E-03 10962   0.171E-02 0.221E-03
CGA:   8    -0.354083070209E+03   -0.35965E-03   -0.37193E-03 10962   0.632E-03 0.283E-03
CGA:   9    -0.354083227516E+03   -0.15731E-03   -0.16088E-03 10962   0.252E-03 0.118E-03
CGA:  10    -0.354083309159E+03   -0.81643E-04   -0.81476E-04 10962   0.112E-03 0.654E-05
CGA:  11    -0.354083338343E+03   -0.29184E-04   -0.29203E-04 10962   0.398E-04-0.286E-05
CGA:  12    -0.354083345763E+03   -0.74200E-05   -0.21721E-04 10962   0.829E-04-0.460E-04
CGA:  13    -0.354083359010E+03   -0.13248E-04   -0.14086E-04 10962   0.992E-05 0.887E-05
CGA:  14    -0.354083364898E+03   -0.58876E-05    0.43111E-04 10962   0.309E-05 0.135E-05
  35 F= -.35408336E+03 E0= -.35408336E+03  d E =-.192438E-01  mag=     8.0000
       N       E                     dE             d eps       ncg     rms          ort
SDA:   1    -0.353978400982E+03    0.10496E+00    0.00000E+00 10962   0.317E+00 0.000E+00
CGA:   2    -0.354053546231E+03   -0.75145E-01   -0.75188E-01 10962   0.183E+00 0.156E-02
CGA:   3    -0.354082070845E+03   -0.28525E-01   -0.28562E-01 10962   0.660E-01 0.337E-03
CGA:   4    -0.354091986822E+03   -0.99160E-02   -0.99088E-02 10962   0.187E-01-0.809E-04
CGA:   5    -0.354094947935E+03   -0.29611E-02   -0.29554E-02 10962   0.563E-02-0.694E-04
CGA:   6    -0.354095896939E+03   -0.94900E-03   -0.94871E-03 10962   0.195E-02-0.602E-05
CGA:   7    -0.354096273081E+03   -0.37614E-03   -0.38275E-03 10962   0.732E-03 0.148E-03
CGA:   8    -0.354096402472E+03   -0.12939E-03   -0.14185E-03 10962   0.263E-03 0.211E-03
CGA:   9    -0.354096453918E+03   -0.51446E-04   -0.58774E-04 10962   0.107E-03 0.117E-03
CGA:  10    -0.354096485918E+03   -0.32001E-04   -0.32878E-04 10962   0.494E-04 0.414E-04
CGA:  11    -0.354096502879E+03   -0.16960E-04   -0.16813E-04 10962   0.198E-04 0.110E-04
CGA:  12    -0.354096509806E+03   -0.69271E-05   -0.69542E-05 10962   0.772E-05-0.498E-06
  36 F= -.35409651E+03 E0= -.35409651E+03  d E =-.131449E-01  mag=     8.0000
       N       E                     dE             d eps       ncg     rms          ort
SDA:   1    -0.354053185624E+03    0.43317E-01    0.00000E+00 10962   0.131E+00 0.000E+00
CGA:   2    -0.354081283040E+03   -0.28097E-01   -0.28106E-01 10962   0.780E-01 0.347E-03
CGA:   3    -0.354094146974E+03   -0.12864E-01   -0.12871E-01 10962   0.293E-01 0.878E-04
CGA:   4    -0.354098316787E+03   -0.41698E-02   -0.41701E-02 10962   0.720E-02-0.375E-05
CGA:   5    -0.354099435346E+03   -0.11186E-02   -0.11210E-02 10962   0.223E-02 0.320E-04
CGA:   6    -0.354099816776E+03   -0.38143E-03   -0.38211E-03 10962   0.738E-03 0.123E-04
CGA:   7    -0.354099959656E+03   -0.14288E-03   -0.14374E-03 10962   0.263E-03 0.322E-04
CGA:   8    -0.354100007807E+03   -0.48151E-04   -0.50531E-04 10962   0.968E-04 0.678E-04
CGA:   9    -0.354100026585E+03   -0.18778E-04   -0.20755E-04 10962   0.382E-04 0.423E-04
CGA:  10    -0.354100038116E+03   -0.11531E-04   -0.11586E-04 10962   0.184E-04 0.140E-04
CGA:  11    -0.354100044327E+03   -0.62110E-05   -0.60882E-05 10962   0.777E-05 0.450E-05
  37 F= -.35410004E+03 E0= -.35410004E+03  d E =-.353452E-02  mag=     8.0000
       N       E                     dE             d eps       ncg     rms          ort
SDA:   1    -0.354088167829E+03    0.11870E-01    0.00000E+00 10962   0.372E-01 0.000E+00
CGA:   2    -0.354094552344E+03   -0.63845E-02   -0.63831E-02 10962   0.190E-01-0.523E-04
CGA:   3    -0.354098031828E+03   -0.34795E-02   -0.34770E-02 10962   0.877E-02-0.869E-04
CGA:   4    -0.354099258504E+03   -0.12267E-02   -0.12259E-02 10962   0.188E-02-0.126E-04
CGA:   5    -0.354099524443E+03   -0.26594E-03   -0.26945E-03 10962   0.496E-03 0.532E-04
CGA:   6    -0.354099608621E+03   -0.84177E-04   -0.85155E-04 10962   0.156E-03 0.253E-04
CGA:   7    -0.354099643645E+03   -0.35024E-04   -0.35118E-04 10962   0.605E-04-0.920E-05
CGA:   8    -0.354099655591E+03   -0.11946E-04   -0.11944E-04 10962   0.246E-04 0.381E-06
CGA:   9    -0.354099661089E+03   -0.54983E-05   -0.54502E-05 10962   0.935E-05 0.304E-05
  38 F= -.35409966E+03 E0= -.35409966E+03  d E =0.383238E-03  mag=     8.0000
       N       E                     dE             d eps       ncg     rms          ort
SDA:   1    -0.354076551489E+03    0.23104E-01    0.00000E+00 10962   0.761E-01 0.000E+00
CGA:   2    -0.354088832715E+03   -0.12281E-01   -0.12280E-01 10962   0.360E-01-0.625E-04
CGA:   3    -0.354095616488E+03   -0.67838E-02   -0.67805E-02 10962   0.179E-01-0.185E-03
CGA:   4    -0.354098135970E+03   -0.25195E-02   -0.25159E-02 10962   0.381E-02-0.604E-04
CGA:   5    -0.354098654903E+03   -0.51893E-03   -0.52410E-03 10962   0.978E-03 0.776E-04
CGA:   6    -0.354098817562E+03   -0.16266E-03   -0.16445E-03 10962   0.298E-03 0.500E-04
CGA:   7    -0.354098882679E+03   -0.65117E-04   -0.65222E-04 10962   0.104E-03-0.112E-04
CGA:   8    -0.354098904750E+03   -0.22072E-04   -0.22252E-04 10962   0.461E-04-0.811E-05
CGA:   9    -0.354098915580E+03   -0.10830E-04   -0.11043E-04 10962   0.222E-04-0.361E-05
CGA:  10    -0.354098921471E+03   -0.58914E-05   -0.64024E-05 10962   0.127E-04-0.466E-05
  39 F= -.35409892E+03 E0= -.35409892E+03  d E =0.739618E-03  mag=     8.0000
       N       E                     dE             d eps       ncg     rms          ort
SDA:   1    -0.353989697752E+03    0.10922E+00    0.00000E+00 10962   0.355E+00 0.000E+00
CGA:   2    -0.354048652412E+03   -0.58955E-01   -0.58965E-01 10962   0.174E+00-0.368E-06
CGA:   3    -0.354081028457E+03   -0.32376E-01   -0.32367E-01 10962   0.829E-01-0.572E-03
CGA:   4    -0.354092583689E+03   -0.11555E-01   -0.11545E-01 10962   0.173E-01-0.193E-03
CGA:   5    -0.354095011081E+03   -0.24274E-02   -0.24402E-02 10962   0.452E-02 0.216E-03
CGA:   6    -0.354095769078E+03   -0.75800E-03   -0.76204E-03 10962   0.140E-02 0.133E-03
CGA:   7    -0.354096060216E+03   -0.29114E-03   -0.29142E-03 10962   0.469E-03-0.413E-04
CGA:   8    -0.354096161937E+03   -0.10172E-03   -0.10303E-03 10962   0.212E-03-0.422E-04
CGA:   9    -0.354096212281E+03   -0.50344E-04   -0.52380E-04 10962   0.111E-03-0.274E-04
CGA:  10    -0.354096239113E+03   -0.26832E-04   -0.28513E-04 10962   0.564E-04-0.179E-04
CGA:  11    -0.354096247104E+03   -0.79908E-05   -0.83909E-05 10962   0.194E-04 0.143E-04
  40 F= -.35409625E+03 E0= -.35409625E+03  d E =0.267437E-02  mag=     8.0000
       N       E                     dE             d eps       ncg     rms          ort
SDA:   1    -0.353808526562E+03    0.28771E+00    0.00000E+00 10962   0.839E+00 0.000E+00
CGA:   2    -0.353972954345E+03   -0.16443E+00   -0.16443E+00 10962   0.490E+00-0.508E-04
CGA:   3    -0.354056114342E+03   -0.83160E-01   -0.83135E-01 10962   0.188E+00-0.958E-03
CGA:   4    -0.354081379419E+03   -0.25265E-01   -0.25267E-01 10962   0.390E-01-0.334E-04
CGA:   5    -0.354087093861E+03   -0.57144E-02   -0.57343E-02 10962   0.107E-01 0.394E-03
CGA:   6    -0.354088905311E+03   -0.18114E-02   -0.18159E-02 10962   0.333E-02 0.170E-03
CGA:   7    -0.354089577090E+03   -0.67178E-03   -0.67234E-03 10962   0.114E-02-0.839E-04
CGA:   8    -0.354089830215E+03   -0.25313E-03   -0.25529E-03 10962   0.533E-03-0.598E-04
CGA:   9    -0.354089964937E+03   -0.13472E-03   -0.13715E-03 10962   0.278E-03-0.317E-04
CGA:  10    -0.354090040592E+03   -0.75655E-04   -0.78893E-04 10962   0.147E-03-0.312E-04
CGA:  11    -0.354090068795E+03   -0.28203E-04   -0.27936E-04 10962   0.496E-04 0.251E-04
CGA:  12    -0.354090080621E+03   -0.11826E-04   -0.11828E-04 10962   0.202E-04 0.160E-04
CGA:  13    -0.354090087577E+03   -0.69555E-05   -0.67199E-05 10962   0.108E-04 0.492E-05
  41 F= -.35409009E+03 E0= -.35409009E+03  d E =0.615953E-02  mag=     8.0000
       N       E                     dE             d eps       ncg     rms          ort
SDA:   1    -0.353192680171E+03    0.89740E+00    0.00000E+00 10962   0.237E+01 0.000E+00
CGA:   2    -0.353765294622E+03   -0.57261E+00   -0.57255E+00 10962   0.149E+01 0.325E-03
CGA:   3    -0.353993217409E+03   -0.22792E+00   -0.22786E+00 10962   0.465E+00-0.142E-02
CGA:   4    -0.354055149020E+03   -0.61932E-01   -0.61949E-01 10962   0.102E+00 0.109E-03
CGA:   5    -0.354070491729E+03   -0.15343E-01   -0.15372E-01 10962   0.288E-01 0.558E-03
CGA:   6    -0.354075362440E+03   -0.48707E-02   -0.48739E-02 10962   0.878E-02 0.102E-03
CGA:   7    -0.354077103571E+03   -0.17411E-02   -0.17415E-02 10962   0.304E-02-0.197E-03
CGA:   8    -0.354077786442E+03   -0.68287E-03   -0.68653E-03 10962   0.143E-02-0.106E-03
CGA:   9    -0.354078163024E+03   -0.37658E-03   -0.38306E-03 10962   0.773E-03-0.821E-04
CGA:  10    -0.354078372561E+03   -0.20954E-03   -0.21599E-03 10962   0.390E-03-0.681E-04
CGA:  11    -0.354078460533E+03   -0.87972E-04   -0.86875E-04 10962   0.133E-03 0.288E-04
CGA:  12    -0.354078498348E+03   -0.37814E-04   -0.36899E-04 10962   0.544E-04 0.181E-04
CGA:  13    -0.354078516073E+03   -0.17725E-04   -0.16896E-04 10962   0.289E-04 0.132E-04
CGA:  14    -0.354078522907E+03   -0.68345E-05   -0.71190E-05 10962   0.157E-04 0.185E-04
  42 F= -.35407852E+03 E0= -.35407852E+03  d E =0.115647E-01  mag=     8.0000
       N       E                     dE             d eps       ncg     rms          ort
SDA:   1    -0.353967249653E+03    0.11127E+00    0.00000E+00 10962   0.385E+00 0.000E+00
CGA:   2    -0.354029725991E+03   -0.62476E-01   -0.62523E-01 10962   0.184E+00 0.626E-03
CGA:   3    -0.354063921078E+03   -0.34195E-01   -0.34201E-01 10962   0.900E-01 0.154E-03
CGA:   4    -0.354076746771E+03   -0.12826E-01   -0.12828E-01 10962   0.195E-01 0.765E-05
CGA:   5    -0.354079580249E+03   -0.28335E-02   -0.28313E-02 10962   0.514E-02-0.408E-04
CGA:   6    -0.354080448150E+03   -0.86790E-03   -0.86654E-03 10962   0.162E-02-0.396E-04
CGA:   7    -0.354080755275E+03   -0.30712E-03   -0.30742E-03 10962   0.492E-03 0.238E-04
CGA:   8    -0.354080854326E+03   -0.99051E-04   -0.99159E-04 10962   0.165E-03 0.255E-04
CGA:   9    -0.354080900354E+03   -0.46027E-04   -0.47029E-04 10962   0.834E-04-0.147E-04
CGA:  10    -0.354080916613E+03   -0.16260E-04   -0.16190E-04 10962   0.285E-04 0.977E-05
CGA:  11    -0.354080922945E+03   -0.63315E-05   -0.63773E-05 10962   0.974E-05 0.800E-05
  43 F= -.35408092E+03 E0= -.35408092E+03  d E =-.240004E-02  mag=     8.0000
       N       E                     dE             d eps       ncg     rms          ort
SDA:   1    -0.353998821874E+03    0.82095E-01    0.00000E+00 10962   0.326E+00 0.000E+00
CGA:   2    -0.354046432620E+03   -0.47611E-01   -0.47693E-01 10962   0.127E+00 0.109E-02
CGA:   3    -0.354070502045E+03   -0.24069E-01   -0.24078E-01 10962   0.713E-01 0.479E-03
CGA:   4    -0.354081348509E+03   -0.10846E-01   -0.10846E-01 10962   0.173E-01-0.315E-04
CGA:   5    -0.354083852886E+03   -0.25044E-02   -0.24966E-02 10962   0.444E-02-0.143E-03
CGA:   6    -0.354084590893E+03   -0.73801E-03   -0.73553E-03 10962   0.140E-02-0.806E-04
CGA:   7    -0.354084842354E+03   -0.25146E-03   -0.25220E-03 10962   0.411E-03 0.548E-04
CGA:   8    -0.354084914350E+03   -0.71997E-04   -0.73965E-04 10962   0.130E-03 0.850E-04
CGA:   9    -0.354084945615E+03   -0.31264E-04   -0.31132E-04 10962   0.582E-04 0.423E-04
CGA:  10    -0.354084963386E+03   -0.17771E-04   -0.17194E-04 10962   0.319E-04 0.208E-04
CGA:  11    -0.354084973517E+03   -0.10130E-04   -0.97388E-05 10962   0.164E-04 0.139E-04
CGA:  12    -0.354084980959E+03   -0.74420E-05   -0.72636E-05 10962   0.100E-04 0.162E-05
  44 F= -.35408498E+03 E0= -.35408498E+03  d E =-.405801E-02  mag=     8.0000
       N       E                     dE             d eps       ncg     rms          ort
SDA:   1    -0.353950943698E+03    0.13403E+00    0.00000E+00 10962   0.312E+00 0.000E+00
CGA:   2    -0.354055367795E+03   -0.10442E+00   -0.10444E+00 10962   0.138E+00-0.144E-03
CGA:   3    -0.354075114218E+03   -0.19746E-01   -0.19749E-01 10962   0.410E-01 0.328E-05
CGA:   4    -0.354080766430E+03   -0.56522E-02   -0.56559E-02 10962   0.956E-02 0.402E-04
CGA:   5    -0.354082276989E+03   -0.15106E-02   -0.15083E-02 10962   0.289E-02-0.461E-04
CGA:   6    -0.354082765085E+03   -0.48810E-03   -0.48710E-03 10962   0.893E-03-0.272E-04
CGA:   7    -0.354082931877E+03   -0.16679E-03   -0.16681E-03 10962   0.284E-03 0.103E-05
CGA:   8    -0.354083001895E+03   -0.70018E-04   -0.71047E-04 10962   0.148E-03-0.223E-04
CGA:   9    -0.354083037754E+03   -0.35859E-04   -0.36593E-04 10962   0.748E-04-0.119E-04
CGA:  10    -0.354083056690E+03   -0.18936E-04   -0.19508E-04 10962   0.317E-04-0.774E-05
CGA:  11    -0.354083064696E+03   -0.80059E-05   -0.85370E-05 10962   0.132E-04-0.611E-05
  45 F= -.35408306E+03 E0= -.35408306E+03  d E =0.191626E-02  mag=     8.0000
       N       E                     dE             d eps       ncg     rms          ort
SDA:   1    -0.332352291367E+03    0.21731E+02    0.00000E+00 10962   0.782E+02 0.000E+00
CGA:   2    -0.344588302915E+03   -0.12236E+02   -0.12344E+02 10962   0.324E+02 0.417E+00
CGA:   3    -0.350699386310E+03   -0.61111E+01   -0.61097E+01 10962   0.161E+02-0.148E-01
CGA:   4    -0.353030569165E+03   -0.23312E+01   -0.23284E+01 10962   0.394E+01 0.746E-02
CGA:   5    -0.353614746552E+03   -0.58418E+00   -0.58583E+00 10962   0.107E+01 0.938E-02
CGA:   6    -0.353793088968E+03   -0.17834E+00   -0.17862E+00 10962   0.334E+00 0.571E-02
CGA:   7    -0.353858802806E+03   -0.65714E-01   -0.65723E-01 10962   0.113E+00 0.149E-02
CGA:   8    -0.353883315230E+03   -0.24512E-01   -0.24444E-01 10962   0.470E-01 0.475E-02
CGA:   9    -0.353895733250E+03   -0.12418E-01   -0.12316E-01 10962   0.224E-01 0.206E-02
CGA:  10    -0.353902413173E+03   -0.66799E-02   -0.66879E-02 10962   0.119E-01-0.113E-03
CGA:  11    -0.353905436511E+03   -0.30233E-02   -0.29641E-02 10962   0.473E-02 0.144E-02
CGA:  12    -0.353907024591E+03   -0.15881E-02   -0.15706E-02 10962   0.221E-02 0.200E-03
CGA:  13    -0.353907742560E+03   -0.71797E-03   -0.71351E-03 10962   0.111E-02 0.441E-04
CGA:  14    -0.353908046282E+03   -0.30372E-03   -0.29445E-03 10962   0.454E-03 0.234E-03
CGA:  15    -0.353908102561E+03   -0.56279E-04   -0.40382E-03 10962   0.160E-02-0.679E-03
CGA:  16    -0.353908320413E+03   -0.21785E-03   -0.25378E-03 10962   0.217E-03 0.402E-03
CGA:  17    -0.353908401517E+03   -0.81104E-04   -0.87121E-04 10962   0.100E-03-0.770E-04
CGA:  18    -0.353908410310E+03   -0.87930E-05   -0.10683E-04 10962   0.513E-04 0.232E-04
CGA:  19    -0.353908419470E+03   -0.91602E-05   -0.10389E-04 10962   0.198E-04 0.156E-04
  46 F= -.35390842E+03 E0= -.35390842E+03  d E =0.174645E+00  mag=     8.0000
       N       E                     dE             d eps       ncg     rms          ort
SDA:   1    -0.352040348981E+03    0.18681E+01    0.00000E+00 10962   0.523E+01 0.000E+00
CGA:   2    -0.353372343709E+03   -0.13320E+01   -0.13319E+01 10962   0.300E+01 0.222E-02
CGA:   3    -0.353839950582E+03   -0.46761E+00   -0.46766E+00 10962   0.107E+01 0.461E-03
CGA:   4    -0.353996685809E+03   -0.15674E+00   -0.15688E+00 10962   0.284E+00 0.122E-02
CGA:   5    -0.354042347219E+03   -0.45661E-01   -0.45686E-01 10962   0.923E-01 0.323E-03
CGA:   6    -0.354058370583E+03   -0.16023E-01   -0.16018E-01 10962   0.313E-01-0.118E-03
CGA:   7    -0.354064829354E+03   -0.64588E-02   -0.64578E-02 10962   0.129E-01-0.612E-04
CGA:   8    -0.354067950778E+03   -0.31214E-02   -0.31208E-02 10962   0.573E-02 0.296E-04
CGA:   9    -0.354069289094E+03   -0.13383E-02   -0.13387E-02 10962   0.220E-02-0.521E-04
CGA:  10    -0.354069837180E+03   -0.54809E-03   -0.54681E-03 10962   0.719E-03 0.508E-04
CGA:  11    -0.354070017192E+03   -0.18001E-03   -0.17954E-03 10962   0.223E-03 0.269E-04
CGA:  12    -0.354070087033E+03   -0.69841E-04   -0.72477E-04 10962   0.946E-04-0.309E-04
CGA:  13    -0.354070104781E+03   -0.17749E-04   -0.17956E-04 10962   0.335E-04 0.178E-04
CGA:  14    -0.354070118444E+03   -0.13662E-04   -0.15675E-04 10962   0.322E-04-0.124E-04
CGA:  15    -0.354070122858E+03   -0.44146E-05   -0.44660E-05 10962   0.235E-04 0.273E-05
  47 F= -.35407012E+03 E0= -.35407012E+03  d E =-.161703E+00  mag=     8.0000
       N       E                     dE             d eps       ncg     rms          ort
SDA:   1    -0.354034962227E+03    0.35156E-01    0.00000E+00 10962   0.142E+00 0.000E+00
CGA:   2    -0.354061900151E+03   -0.26938E-01   -0.26930E-01 10962   0.780E-01-0.240E-03
CGA:   3    -0.354075406226E+03   -0.13506E-01   -0.13496E-01 10962   0.336E-01-0.173E-03
CGA:   4    -0.354080180019E+03   -0.47738E-02   -0.47913E-02 10962   0.806E-02 0.190E-03
CGA:   5    -0.354081394639E+03   -0.12146E-02   -0.12227E-02 10962   0.247E-02 0.103E-03
CGA:   6    -0.354081828686E+03   -0.43405E-03   -0.43370E-03 10962   0.820E-03-0.765E-05
CGA:   7    -0.354081992437E+03   -0.16375E-03   -0.16362E-03 10962   0.292E-03-0.656E-05
CGA:   8    -0.354082056572E+03   -0.64134E-04   -0.64107E-04 10962   0.120E-03 0.123E-04
CGA:   9    -0.354082091028E+03   -0.34456E-04   -0.36099E-04 10962   0.674E-04-0.241E-04
CGA:  10    -0.354082103110E+03   -0.12082E-04   -0.12081E-04 10962   0.238E-04 0.782E-06
CGA:  11    -0.354082108095E+03   -0.49841E-05   -0.50315E-05 10962   0.772E-05 0.349E-05
  48 F= -.35408211E+03 E0= -.35408211E+03  d E =-.119852E-01  mag=     8.0000
       N       E                     dE             d eps       ncg     rms          ort
SDA:   1    -0.353935596066E+03    0.14651E+00    0.00000E+00 10962   0.571E+00 0.000E+00
CGA:   2    -0.354022740391E+03   -0.87144E-01   -0.87163E-01 10962   0.245E+00-0.205E-03
CGA:   3    -0.354069092386E+03   -0.46352E-01   -0.46328E-01 10962   0.131E+00-0.645E-03
CGA:   4    -0.354088228972E+03   -0.19137E-01   -0.19166E-01 10962   0.297E-01 0.335E-03
CGA:   5    -0.354092436393E+03   -0.42074E-02   -0.42382E-02 10962   0.796E-02 0.366E-03
CGA:   6    -0.354093760925E+03   -0.13245E-02   -0.13295E-02 10962   0.242E-02 0.873E-04
CGA:   7    -0.354094235142E+03   -0.47422E-03   -0.47432E-03 10962   0.753E-03 0.342E-05
CGA:   8    -0.354094387009E+03   -0.15187E-03   -0.15229E-03 10962   0.275E-03 0.315E-04
CGA:   9    -0.354094464150E+03   -0.77141E-04   -0.78810E-04 10962   0.143E-03-0.276E-04
CGA:  10    -0.354094496494E+03   -0.32345E-04   -0.32396E-04 10962   0.593E-04-0.153E-05
CGA:  11    -0.354094507491E+03   -0.10997E-04   -0.11410E-04 10962   0.201E-04 0.166E-04
CGA:  12    -0.354094513502E+03   -0.60110E-05   -0.59550E-05 10962   0.921E-05 0.405E-05
  49 F= -.35409451E+03 E0= -.35409451E+03  d E =-.124054E-01  mag=     8.0000
       N       E                     dE             d eps       ncg     rms          ort
SDA:   1    -0.354001294836E+03    0.93213E-01    0.00000E+00 10962   0.356E+00 0.000E+00
CGA:   2    -0.354056536870E+03   -0.55242E-01   -0.55231E-01 10962   0.157E+00-0.385E-03
CGA:   3    -0.354085863624E+03   -0.29327E-01   -0.29311E-01 10962   0.822E-01-0.515E-03
CGA:   4    -0.354097698144E+03   -0.11835E-01   -0.11860E-01 10962   0.185E-01 0.326E-03
CGA:   5    -0.354100308333E+03   -0.26102E-02   -0.26335E-02 10962   0.490E-02 0.311E-03
CGA:   6    -0.354101128151E+03   -0.81982E-03   -0.82401E-03 10962   0.146E-02 0.887E-04
CGA:   7    -0.354101420026E+03   -0.29188E-03   -0.29202E-03 10962   0.463E-03 0.100E-04
CGA:   8    -0.354101517062E+03   -0.97036E-04   -0.97038E-04 10962   0.181E-03 0.132E-04
CGA:   9    -0.354101568649E+03   -0.51587E-04   -0.53404E-04 10962   0.104E-03-0.234E-04
CGA:  10    -0.354101589924E+03   -0.21275E-04   -0.21152E-04 10962   0.413E-04 0.569E-05
CGA:  11    -0.354101597329E+03   -0.74047E-05   -0.78944E-05 10962   0.155E-04 0.152E-04
  50 F= -.35410160E+03 E0= -.35410160E+03  d E =-.708383E-02  mag=     8.0000
       N       E                     dE             d eps       ncg     rms          ort
SDA:   1    -0.353291680594E+03    0.80991E+00    0.00000E+00 10962   0.302E+01 0.000E+00
CGA:   2    -0.353742211889E+03   -0.45053E+00   -0.45098E+00 10962   0.124E+01 0.249E-02
CGA:   3    -0.353978209768E+03   -0.23600E+00   -0.23596E+00 10962   0.682E+00-0.223E-02
CGA:   4    -0.354078719624E+03   -0.10051E+00   -0.10054E+00 10962   0.156E+00 0.335E-03
CGA:   5    -0.354100734227E+03   -0.22015E-01   -0.22108E-01 10962   0.405E-01 0.139E-02
CGA:   6    -0.354107441739E+03   -0.67075E-02   -0.67282E-02 10962   0.122E-01 0.551E-03
CGA:   7    -0.354109838250E+03   -0.23965E-02   -0.23970E-02 10962   0.376E-02 0.757E-04
CGA:   8    -0.354110590313E+03   -0.75206E-03   -0.75205E-03 10962   0.136E-02 0.186E-03
CGA:   9    -0.354110949554E+03   -0.35924E-03   -0.35815E-03 10962   0.622E-03 0.201E-04
CGA:  10    -0.354111120963E+03   -0.17141E-03   -0.17046E-03 10962   0.291E-03 0.134E-04
CGA:  11    -0.354111178535E+03   -0.57571E-04   -0.58359E-04 10962   0.107E-03 0.950E-04
CGA:  12    -0.354111208492E+03   -0.29957E-04   -0.29743E-04 10962   0.493E-04 0.416E-04
CGA:  13    -0.354111229822E+03   -0.21330E-04   -0.20831E-04 10962   0.315E-04 0.494E-05
CGA:  14    -0.354111232768E+03   -0.29458E-05   -0.45605E-05 10962   0.194E-04 0.207E-04
  51 F= -.35411123E+03 E0= -.35411123E+03  d E =-.963544E-02  mag=     8.0000
       N       E                     dE             d eps       ncg     rms          ort
SDA:   1    -0.353353066193E+03    0.75816E+00    0.00000E+00 10962   0.271E+01 0.000E+00
CGA:   2    -0.353771707685E+03   -0.41864E+00   -0.41893E+00 10962   0.116E+01 0.213E-02
CGA:   3    -0.353989213211E+03   -0.21751E+00   -0.21748E+00 10962   0.614E+00-0.201E-02
CGA:   4    -0.354078592963E+03   -0.89380E-01   -0.89412E-01 10962   0.141E+00 0.387E-03
CGA:   5    -0.354098448948E+03   -0.19856E-01   -0.19939E-01 10962   0.365E-01 0.137E-02
CGA:   6    -0.354104495144E+03   -0.60462E-02   -0.60634E-02 10962   0.110E-01 0.522E-03
CGA:   7    -0.354106685389E+03   -0.21902E-02   -0.21902E-02 10962   0.353E-02 0.456E-04
CGA:   8    -0.354107412876E+03   -0.72749E-03   -0.72607E-03 10962   0.136E-02 0.144E-03
CGA:   9    -0.354107782081E+03   -0.36921E-03   -0.36925E-03 10962   0.676E-03-0.158E-05
CGA:  10    -0.354107967391E+03   -0.18531E-03   -0.18375E-03 10962   0.323E-03 0.209E-04
CGA:  11    -0.354108039195E+03   -0.71804E-04   -0.70837E-04 10962   0.121E-03 0.923E-04
CGA:  12    -0.354108078084E+03   -0.38889E-04   -0.37594E-04 10962   0.567E-04 0.328E-04
CGA:  13    -0.354108101220E+03   -0.23136E-04   -0.22639E-04 10962   0.344E-04 0.447E-05
CGA:  14    -0.354108107108E+03   -0.58880E-05   -0.65156E-05 10962   0.178E-04 0.179E-04
CGA:  15    -0.354108112989E+03   -0.58805E-05   -0.11664E-04 10962   0.326E-04-0.130E-04
  52 F= -.35410811E+03 E0= -.35410811E+03  d E =0.311978E-02  mag=     8.0000
       N       E                     dE             d eps       ncg     rms          ort
SDA:   1    -0.353487305008E+03    0.62080E+00    0.00000E+00 10962   0.219E+01 0.000E+00
CGA:   2    -0.353828037743E+03   -0.34073E+00   -0.34101E+00 10962   0.947E+00 0.112E-02
CGA:   3    -0.354004793536E+03   -0.17676E+00   -0.17671E+00 10962   0.500E+00-0.137E-02
CGA:   4    -0.354077168392E+03   -0.72375E-01   -0.72409E-01 10962   0.114E+00 0.291E-03
CGA:   5    -0.354093190706E+03   -0.16022E-01   -0.16102E-01 10962   0.290E-01 0.947E-03
CGA:   6    -0.354097999685E+03   -0.48090E-02   -0.48284E-02 10962   0.880E-02 0.373E-03
CGA:   7    -0.354099765104E+03   -0.17654E-02   -0.17659E-02 10962   0.288E-02 0.251E-04
CGA:   8    -0.354100362843E+03   -0.59774E-03   -0.59812E-03 10962   0.113E-02 0.726E-04
CGA:   9    -0.354100667379E+03   -0.30454E-03   -0.30597E-03 10962   0.580E-03-0.284E-04
CGA:  10    -0.354100825042E+03   -0.15766E-03   -0.15766E-03 10962   0.285E-03-0.243E-06
CGA:  11    -0.354100889796E+03   -0.64754E-04   -0.64242E-04 10962   0.106E-03 0.629E-04
CGA:  12    -0.354100923786E+03   -0.33990E-04   -0.33141E-04 10962   0.488E-04 0.222E-04
CGA:  13    -0.354100941330E+03   -0.17544E-04   -0.16999E-04 10962   0.260E-04 0.796E-05
CGA:  14    -0.354100948458E+03   -0.71272E-05   -0.70274E-05 10962   0.123E-04 0.108E-04
  53 F= -.35410095E+03 E0= -.35410095E+03  d E =0.716453E-02  mag=     8.0000
       N       E                     dE             d eps       ncg     rms          ort
SDA:   1    -0.354067079432E+03    0.33862E-01    0.00000E+00 10962   0.101E+00 0.000E+00
CGA:   2    -0.354086657497E+03   -0.19578E-01   -0.19575E-01 10962   0.609E-01-0.116E-03
CGA:   3    -0.354097154839E+03   -0.10497E-01   -0.10490E-01 10962   0.243E-01-0.127E-03
CGA:   4    -0.354100415223E+03   -0.32604E-02   -0.32642E-02 10962   0.528E-02 0.329E-04
CGA:   5    -0.354101186483E+03   -0.77126E-03   -0.77495E-03 10962   0.150E-02 0.452E-04
CGA:   6    -0.354101449234E+03   -0.26275E-03   -0.26290E-03 10962   0.493E-03 0.253E-05
CGA:   7    -0.354101548966E+03   -0.99732E-04   -0.99289E-04 10962   0.179E-03-0.243E-04
CGA:   8    -0.354101588055E+03   -0.39089E-04   -0.39253E-04 10962   0.782E-04-0.129E-04
CGA:   9    -0.354101605611E+03   -0.17557E-04   -0.17639E-04 10962   0.319E-04-0.346E-05
CGA:  10    -0.354101613934E+03   -0.83224E-05   -0.85307E-05 10962   0.136E-04-0.350E-05
  54 F= -.35410161E+03 E0= -.35410161E+03  d E =-.665476E-03  mag=     8.0000
       N       E                     dE             d eps       ncg     rms          ort
SDA:   1    -0.354080268225E+03    0.21337E-01    0.00000E+00 10962   0.746E-01 0.000E+00
CGA:   2    -0.354092320071E+03   -0.12052E-01   -0.12070E-01 10962   0.359E-01 0.257E-03
CGA:   3    -0.354099034627E+03   -0.67146E-02   -0.67145E-02 10962   0.174E-01-0.129E-04
CGA:   4    -0.354101510290E+03   -0.24757E-02   -0.24648E-02 10962   0.377E-02-0.148E-03
CGA:   5    -0.354102062997E+03   -0.55271E-03   -0.54957E-03 10962   0.106E-02-0.483E-04
CGA:   6    -0.354102240969E+03   -0.17797E-03   -0.17721E-03 10962   0.330E-03-0.188E-04
CGA:   7    -0.354102304202E+03   -0.63233E-04   -0.63030E-04 10962   0.102E-03-0.139E-04
CGA:   8    -0.354102322685E+03   -0.18483E-04   -0.18575E-04 10962   0.330E-04 0.526E-05
CGA:   9    -0.354102330082E+03   -0.73976E-05   -0.73746E-05 10962   0.113E-04 0.452E-05
  55 F= -.35410233E+03 E0= -.35410233E+03  d E =-.716149E-03  mag=     8.0000
       N       E                     dE             d eps       ncg     rms          ort
SDA:   1    -0.354054294915E+03    0.48028E-01    0.00000E+00 10962   0.135E+00 0.000E+00
CGA:   2    -0.354081392422E+03   -0.27098E-01   -0.27093E-01 10962   0.834E-01-0.325E-03
CGA:   3    -0.354095191990E+03   -0.13800E-01   -0.13791E-01 10962   0.309E-01-0.174E-03
CGA:   4    -0.354099240944E+03   -0.40490E-02   -0.40587E-02 10962   0.656E-02 0.109E-03
CGA:   5    -0.354100188242E+03   -0.94730E-03   -0.95207E-03 10962   0.177E-02 0.697E-04
CGA:   6    -0.354100491142E+03   -0.30290E-03   -0.30377E-03 10962   0.533E-03 0.221E-04
CGA:   7    -0.354100596925E+03   -0.10578E-03   -0.10570E-03 10962   0.177E-03-0.875E-05
CGA:   8    -0.354100638693E+03   -0.41767E-04   -0.42762E-04 10962   0.901E-04-0.251E-04
CGA:   9    -0.354100658526E+03   -0.19833E-04   -0.20503E-04 10962   0.466E-04-0.117E-04
CGA:  10    -0.354100669405E+03   -0.10880E-04   -0.11175E-04 10962   0.199E-04-0.456E-05
CGA:  11    -0.354100673910E+03   -0.45050E-05   -0.44821E-05 10962   0.691E-05 0.621E-06
  56 F= -.35410067E+03 E0= -.35410067E+03  d E =0.165617E-02  mag=     8.0000
       N       E                     dE             d eps       ncg     rms          ort
SDA:   1    -0.353693035237E+03    0.40763E+00    0.00000E+00 10962   0.114E+01 0.000E+00
CGA:   2    -0.353931776823E+03   -0.23874E+00   -0.23874E+00 10962   0.733E+00 0.332E-03
CGA:   3    -0.354051809206E+03   -0.12003E+00   -0.12000E+00 10962   0.247E+00-0.767E-03
CGA:   4    -0.354084135332E+03   -0.32326E-01   -0.32314E-01 10962   0.510E-01-0.204E-03
CGA:   5    -0.354091659024E+03   -0.75237E-02   -0.75337E-02 10962   0.146E-01 0.153E-03
CGA:   6    -0.354094154721E+03   -0.24957E-02   -0.24986E-02 10962   0.440E-02 0.814E-04
[...]
CGA:   6    -0.354137046218E+03   -0.26952E-03   -0.26951E-03 10962   0.520E-03-0.602E-06
CGA:   7    -0.354137156708E+03   -0.11049E-03   -0.11104E-03 10962   0.217E-03-0.309E-04
CGA:   8    -0.354137209862E+03   -0.53154E-04   -0.56314E-04 10962   0.137E-03-0.398E-04
CGA:   9    -0.354137239146E+03   -0.29285E-04   -0.39180E-04 10962   0.133E-03-0.656E-04
CGA:  10    -0.354137255431E+03   -0.16285E-04   -0.20107E-04 10962   0.737E-04-0.455E-04
CGA:  11    -0.354137263482E+03   -0.80514E-05   -0.83880E-05 10962   0.330E-04 0.860E-05
  98 F= -.35413726E+03 E0= -.35413726E+03  d E =0.419622E-03  mag=     8.0000
       N       E                     dE             d eps       ncg     rms          ort
SDA:   1    -0.354107245899E+03    0.30010E-01    0.00000E+00 10962   0.118E+00 0.000E+00
CGA:   2    -0.354124151530E+03   -0.16906E-01   -0.16939E-01 10962   0.451E-01 0.457E-03
CGA:   3    -0.354132966899E+03   -0.88154E-02   -0.88165E-02 10962   0.258E-01 0.113E-03
CGA:   4    -0.354136959575E+03   -0.39927E-02   -0.39853E-02 10962   0.611E-02-0.165E-03
CGA:   5    -0.354137844739E+03   -0.88516E-03   -0.87774E-03 10962   0.160E-02-0.136E-03
CGA:   6    -0.354138101988E+03   -0.25725E-03   -0.25645E-03 10962   0.499E-03-0.247E-04
CGA:   7    -0.354138189540E+03   -0.87552E-04   -0.88018E-04 10962   0.133E-03 0.274E-04
CGA:   8    -0.354138217231E+03   -0.27691E-04   -0.27662E-04 10962   0.446E-04 0.107E-04
CGA:   9    -0.354138227995E+03   -0.10764E-04   -0.10621E-04 10962   0.181E-04 0.570E-05
CGA:  10    -0.354138232393E+03   -0.43977E-05   -0.43155E-05 10962   0.716E-05 0.535E-05
  99 F= -.35413823E+03 E0= -.35413823E+03  d E =-.968910E-03  mag=     8.0000
       N       E                     dE             d eps       ncg     rms          ort
SDA:   1    -0.354127145823E+03    0.11082E-01    0.00000E+00 10962   0.312E-01 0.000E+00
CGA:   2    -0.354133537528E+03   -0.63917E-02   -0.63910E-02 10962   0.185E-01 0.102E-03
CGA:   3    -0.354136656582E+03   -0.31191E-02   -0.31172E-02 10962   0.662E-02-0.629E-04
CGA:   4    -0.354137574541E+03   -0.91796E-03   -0.91392E-03 10962   0.142E-02-0.705E-04
CGA:   5    -0.354137792610E+03   -0.21807E-03   -0.21617E-03 10962   0.413E-03-0.466E-04
CGA:   6    -0.354137856441E+03   -0.63831E-04   -0.64075E-04 10962   0.120E-03 0.742E-05
CGA:   7    -0.354137878752E+03   -0.22311E-04   -0.22359E-04 10962   0.346E-04 0.598E-05
CGA:   8    -0.354137888287E+03   -0.95345E-05   -0.10816E-04 10962   0.274E-04-0.120E-04
 100 F= -.35413789E+03 E0= -.35413789E+03  d E =0.344106E-03  mag=     8.0000
       N       E                     dE             d eps       ncg     rms          ort
SDA:   1    -0.353874122852E+03    0.26376E+00    0.00000E+00 10962   0.756E+00 0.000E+00
CGA:   2    -0.354033068390E+03   -0.15895E+00   -0.15892E+00 10962   0.436E+00 0.202E-02
CGA:   3    -0.354104634589E+03   -0.71566E-01   -0.71563E-01 10962   0.153E+00-0.226E-03
CGA:   4    -0.354126549328E+03   -0.21915E-01   -0.21878E-01 10962   0.342E-01-0.707E-03
CGA:   5    -0.354131744258E+03   -0.51949E-02   -0.51826E-02 10962   0.948E-02-0.291E-03
CGA:   6    -0.354133278520E+03   -0.15343E-02   -0.15347E-02 10962   0.302E-02 0.110E-04
CGA:   7    -0.354133851127E+03   -0.57261E-03   -0.57276E-03 10962   0.956E-03 0.498E-04
CGA:   8    -0.354134068757E+03   -0.21763E-03   -0.21697E-03 10962   0.403E-03 0.206E-04
CGA:   9    -0.354134183289E+03   -0.11453E-03   -0.11748E-03 10962   0.238E-03-0.324E-04
CGA:  10    -0.354134248709E+03   -0.65420E-04   -0.78415E-04 10962   0.181E-03-0.813E-04
CGA:  11    -0.354134273289E+03   -0.24580E-04   -0.24579E-04 10962   0.699E-04 0.257E-05
CGA:  12    -0.354134284185E+03   -0.10896E-04   -0.11702E-04 10962   0.303E-04 0.196E-04
CGA:  13    -0.354134289702E+03   -0.55176E-05   -0.61586E-05 10962   0.142E-04 0.141E-04
 101 F= -.35413429E+03 E0= -.35413429E+03  d E =0.359858E-02  mag=     8.0000
       N       E                     dE             d eps       ncg     rms          ort
SDA:   1    -0.353219314914E+03    0.91497E+00    0.00000E+00 10962   0.283E+01 0.000E+00
CGA:   2    -0.353751333681E+03   -0.53202E+00   -0.53216E+00 10962   0.151E+01 0.874E-02
CGA:   3    -0.354011177197E+03   -0.25984E+00   -0.25985E+00 10962   0.593E+00 0.324E-05
CGA:   4    -0.354097331084E+03   -0.86154E-01   -0.86038E-01 10962   0.136E+00-0.234E-02
CGA:   5    -0.354117685605E+03   -0.20355E-01   -0.20320E-01 10962   0.361E-01-0.808E-03
CGA:   6    -0.354123576448E+03   -0.58908E-02   -0.58891E-02 10962   0.115E-01-0.690E-04
CGA:   7    -0.354125757614E+03   -0.21812E-02   -0.21814E-02 10962   0.360E-02 0.165E-03
CGA:   8    -0.354126533609E+03   -0.77599E-03   -0.77211E-03 10962   0.137E-02 0.193E-03
CGA:   9    -0.354126916769E+03   -0.38316E-03   -0.38276E-03 10962   0.706E-03 0.502E-05
CGA:  10    -0.354127124803E+03   -0.20803E-03   -0.21919E-03 10962   0.398E-03-0.987E-04
CGA:  11    -0.354127211543E+03   -0.86740E-04   -0.86671E-04 10962   0.149E-03 0.135E-05
CGA:  12    -0.354127247000E+03   -0.35457E-04   -0.34760E-04 10962   0.535E-04 0.249E-04
CGA:  13    -0.354127261124E+03   -0.14125E-04   -0.13851E-04 10962   0.241E-04 0.171E-04
CGA:  14    -0.354127270255E+03   -0.91311E-05   -0.86200E-05 10962   0.138E-04 0.789E-05
CGA:  15    -0.354127277695E+03   -0.74397E-05   -0.10519E-04 10962   0.218E-04-0.851E-05
 102 F= -.35412728E+03 E0= -.35412728E+03  d E =0.701201E-02  mag=     8.0000
       N       E                     dE             d eps       ncg     rms          ort
SDA:   1    -0.353564958553E+03    0.56231E+00    0.00000E+00 10962   0.154E+01 0.000E+00
CGA:   2    -0.353946310475E+03   -0.38135E+00   -0.38129E+00 10962   0.748E+00 0.188E-02
CGA:   3    -0.354066472622E+03   -0.12016E+00   -0.12017E+00 10962   0.293E+00-0.393E-04
CGA:   4    -0.354108808361E+03   -0.42336E-01   -0.42322E-01 10962   0.688E-01-0.267E-03
CGA:   5    -0.354119219836E+03   -0.10411E-01   -0.10418E-01 10962   0.200E-01 0.634E-04
CGA:   6    -0.354122672907E+03   -0.34531E-02   -0.34533E-02 10962   0.696E-02-0.885E-06
CGA:   7    -0.354124129504E+03   -0.14566E-02   -0.14564E-02 10962   0.293E-02-0.523E-04
CGA:   8    -0.354124859778E+03   -0.73027E-03   -0.73277E-03 10962   0.151E-02-0.661E-04
CGA:   9    -0.354125252009E+03   -0.39223E-03   -0.39441E-03 10962   0.797E-03-0.426E-04
CGA:  10    -0.354125458475E+03   -0.20647E-03   -0.20567E-03 10962   0.324E-03 0.164E-04
CGA:  11    -0.354125555338E+03   -0.96863E-04   -0.97513E-04 10962   0.153E-03-0.891E-05
CGA:  12    -0.354125606445E+03   -0.51107E-04   -0.56036E-04 10962   0.109E-03-0.325E-04
CGA:  13    -0.354125634888E+03   -0.28443E-04   -0.29935E-04 10962   0.596E-04-0.129E-04
CGA:  14    -0.354125650587E+03   -0.15699E-04   -0.15665E-04 10962   0.232E-04 0.517E-06
CGA:  15    -0.354125656133E+03   -0.55454E-05   -0.55567E-05 10962   0.754E-05 0.442E-05
 103 F= -.35412566E+03 E0= -.35412566E+03  d E =0.162156E-02  mag=     8.0000
       N       E                     dE             d eps       ncg     rms          ort
SDA:   1    -0.353725485178E+03    0.40017E+00    0.00000E+00 10962   0.131E+01 0.000E+00
CGA:   2    -0.353965271597E+03   -0.23979E+00   -0.23982E+00 10962   0.664E+00-0.658E-03
CGA:   3    -0.354081225916E+03   -0.11595E+00   -0.11589E+00 10962   0.280E+00-0.994E-03
CGA:   4    -0.354122377677E+03   -0.41152E-01   -0.41204E-01 10962   0.666E-01 0.463E-03
CGA:   5    -0.354132259595E+03   -0.98819E-02   -0.99464E-02 10962   0.178E-01 0.686E-03
CGA:   6    -0.354135240549E+03   -0.29810E-02   -0.29919E-02 10962   0.583E-02 0.156E-03
CGA:   7    -0.354136420529E+03   -0.11800E-02   -0.11769E-02 10962   0.209E-02-0.104E-03
CGA:   8    -0.354136885284E+03   -0.46476E-03   -0.46481E-03 10962   0.900E-03 0.173E-04
CGA:   9    -0.354137119481E+03   -0.23420E-03   -0.23406E-03 10962   0.436E-03 0.430E-05
CGA:  10    -0.354137234696E+03   -0.11522E-03   -0.11450E-03 10962   0.184E-03 0.233E-04
CGA:  11    -0.354137280264E+03   -0.45568E-04   -0.45458E-04 10962   0.685E-04 0.384E-04
CGA:  12    -0.354137309728E+03   -0.29464E-04   -0.31953E-04 10962   0.573E-04-0.163E-04
CGA:  13    -0.354137319775E+03   -0.10047E-04   -0.10100E-04 10962   0.312E-04 0.581E-05
CGA:  14    -0.354137326234E+03   -0.64587E-05   -0.67851E-05 10962   0.141E-04 0.777E-05
 104 F= -.35413733E+03 E0= -.35413733E+03  d E =-.116701E-01  mag=     8.0000
       N       E                     dE             d eps       ncg     rms          ort
SDA:   1    -0.354067792037E+03    0.69528E-01    0.00000E+00 10962   0.242E+00 0.000E+00
CGA:   2    -0.354105848453E+03   -0.38056E-01   -0.38109E-01 10962   0.111E+00 0.492E-03
CGA:   3    -0.354127154761E+03   -0.21306E-01   -0.21313E-01 10962   0.557E-01 0.115E-03
CGA:   4    -0.354135214682E+03   -0.80599E-02   -0.80627E-02 10962   0.119E-01 0.116E-04
CGA:   5    -0.354136913598E+03   -0.16989E-02   -0.17032E-02 10962   0.311E-02 0.449E-04
CGA:   6    -0.354137433004E+03   -0.51941E-03   -0.51913E-03 10962   0.102E-02-0.611E-05
CGA:   7    -0.354137625299E+03   -0.19229E-03   -0.19255E-03 10962   0.299E-03 0.759E-05
CGA:   8    -0.354137672433E+03   -0.47134E-04   -0.50418E-04 10962   0.883E-04 0.626E-04
CGA:   9    -0.354137688941E+03   -0.16509E-04   -0.18148E-04 10962   0.340E-04 0.349E-04
CGA:  10    -0.354137698681E+03   -0.97399E-05   -0.98276E-05 10962   0.165E-04 0.119E-04
 105 F= -.35413770E+03 E0= -.35413770E+03  d E =-.372448E-03  mag=     8.0000
       N       E                     dE             d eps       ncg     rms          ort
SDA:   1    -0.353928973582E+03    0.20872E+00    0.00000E+00 10962   0.706E+00 0.000E+00
CGA:   2    -0.354044104734E+03   -0.11513E+00   -0.11523E+00 10962   0.339E+00 0.147E-02
CGA:   3    -0.354108016148E+03   -0.63911E-01   -0.63913E-01 10962   0.161E+00-0.230E-04
CGA:   4    -0.354131255630E+03   -0.23239E-01   -0.23226E-01 10962   0.341E-01-0.234E-03
CGA:   5    -0.354136138439E+03   -0.48828E-02   -0.48892E-02 10962   0.874E-02 0.879E-04
CGA:   6    -0.354137583377E+03   -0.14449E-02   -0.14463E-02 10962   0.284E-02 0.317E-04
CGA:   7    -0.354138133493E+03   -0.55012E-03   -0.55007E-03 10962   0.861E-03-0.636E-05
CGA:   8    -0.354138296079E+03   -0.16259E-03   -0.16349E-03 10962   0.274E-03 0.835E-04
CGA:   9    -0.354138364310E+03   -0.68232E-04   -0.67391E-04 10962   0.113E-03 0.359E-04
CGA:  10    -0.354138400064E+03   -0.35754E-04   -0.35545E-04 10962   0.576E-04 0.265E-05
CGA:  11    -0.354138411083E+03   -0.11019E-04   -0.11291E-04 10962   0.224E-04 0.192E-04
CGA:  12    -0.354138418411E+03   -0.73280E-05   -0.71606E-05 10962   0.112E-04 0.478E-05
CGA:  13    -0.354138384422E+03    0.33989E-04   -0.18574E-04 10962   0.195E-03-0.464E-04
CGA:  14    -0.354138408043E+03   -0.23621E-04   -0.31827E-04 10962   0.292E-04 0.383E-04
CGA:  15    -0.354138421272E+03   -0.13229E-04   -0.20149E-04 10962   0.469E-04-0.328E-04
CGA:  16    -0.354138421155E+03    0.11746E-06   -0.58557E-05 10962   0.131E-04 0.237E-04
 106 F= -.35413842E+03 E0= -.35413842E+03  d E =-.722473E-03  mag=     8.0000
       N       E                     dE             d eps       ncg     rms          ort
SDA:   1    -0.352736855761E+03    0.14016E+01    0.00000E+00 10962   0.369E+01 0.000E+00
CGA:   2    -0.353687923302E+03   -0.95107E+00   -0.95142E+00 10962   0.202E+01 0.101E-02
CGA:   3    -0.353996853143E+03   -0.30893E+00   -0.30874E+00 10962   0.678E+00 0.154E-05
CGA:   4    -0.354092723455E+03   -0.95870E-01   -0.95800E-01 10962   0.160E+00-0.316E-03
CGA:   5    -0.354116694406E+03   -0.23971E-01   -0.23995E-01 10962   0.444E-01 0.823E-04
CGA:   6    -0.354124297641E+03   -0.76032E-02   -0.76046E-02 10962   0.150E-01 0.656E-07
CGA:   7    -0.354127390740E+03   -0.30931E-02   -0.30575E-02 10962   0.578E-02-0.293E-03
CGA:   8    -0.354128792437E+03   -0.14017E-02   -0.13814E-02 10962   0.289E-02-0.264E-03
CGA:   9    -0.354129563501E+03   -0.77106E-03   -0.76301E-03 10962   0.157E-02-0.197E-03
CGA:  10    -0.354129977529E+03   -0.41403E-03   -0.41078E-03 10962   0.694E-03-0.911E-04
CGA:  11    -0.354130136245E+03   -0.15872E-03   -0.16219E-03 10962   0.245E-03 0.526E-04
CGA:  12    -0.354130216363E+03   -0.80118E-04   -0.80147E-04 10962   0.127E-03 0.423E-05
CGA:  13    -0.354130253377E+03   -0.37014E-04   -0.37458E-04 10962   0.653E-04 0.227E-04
CGA:  14    -0.354130269981E+03   -0.16604E-04   -0.18500E-04 10962   0.298E-04 0.275E-04
CGA:  15    -0.354130280535E+03   -0.10553E-04   -0.11096E-04 10962   0.145E-04 0.124E-04
CGA:  16    -0.354130287473E+03   -0.69380E-05   -0.68327E-05 10962   0.799E-05 0.347E-05
CGA:  17    -0.354130274116E+03    0.13356E-04   -0.13977E-04 10962   0.849E-04-0.248E-04
CGA:  18    -0.354130294666E+03   -0.20550E-04   -0.20940E-04 10962   0.148E-04 0.340E-05
CGA:  19    -0.354130296937E+03   -0.22704E-05   -0.29791E-05 10962   0.560E-05 0.440E-05
CGA:  20    -0.354130283596E+03    0.13341E-04   -0.10823E-04 10962   0.840E-04-0.212E-04
CGA:  21    -0.354130298230E+03   -0.14634E-04   -0.17209E-04 10962   0.132E-04 0.129E-04
CGA:  22    -0.354130303044E+03   -0.48137E-05   -0.46673E-05 10962   0.726E-05-0.169E-05
 107 F= -.35413030E+03 E0= -.35413030E+03  d E =0.811811E-02  mag=     8.0000
       N       E                     dE             d eps       ncg     rms          ort
SDA:   1    -0.353620248232E+03    0.51005E+00    0.00000E+00 10962   0.181E+01 0.000E+00
CGA:   2    -0.353903952956E+03   -0.28370E+00   -0.28438E+00 10962   0.809E+00 0.669E-03
CGA:   3    -0.354057935575E+03   -0.15398E+00   -0.15399E+00 10962   0.411E+00 0.224E-04
CGA:   4    -0.354119686736E+03   -0.61751E-01   -0.61725E-01 10962   0.947E-01-0.954E-04
CGA:   5    -0.354133514815E+03   -0.13828E-01   -0.13856E-01 10962   0.249E-01 0.871E-04
CGA:   6    -0.354137623874E+03   -0.41091E-02   -0.41217E-02 10962   0.822E-02 0.648E-04
CGA:   7    -0.354139185462E+03   -0.15616E-02   -0.15737E-02 10962   0.256E-02 0.860E-04
CGA:   8    -0.354139703401E+03   -0.51794E-03   -0.53492E-03 10962   0.909E-03 0.148E-03
CGA:   9    -0.354139908789E+03   -0.20539E-03   -0.21371E-03 10962   0.350E-03 0.896E-04
CGA:  10    -0.354140005900E+03   -0.97111E-04   -0.98437E-04 10962   0.142E-03 0.243E-04
CGA:  11    -0.354140044561E+03   -0.38661E-04   -0.39261E-04 10962   0.545E-04 0.120E-04
CGA:  12    -0.354140061035E+03   -0.16474E-04   -0.16584E-04 10962   0.228E-04 0.445E-05
CGA:  13    -0.354140066813E+03   -0.57780E-05   -0.61042E-05 10962   0.917E-05 0.573E-05
 108 F= -.35414007E+03 E0= -.35414007E+03  d E =-.976377E-02  mag=     8.0000
       N       E                     dE             d eps       ncg     rms          ort
SDA:   1    -0.354053576142E+03    0.86485E-01    0.00000E+00 10962   0.246E+00 0.000E+00
CGA:   2    -0.354108449717E+03   -0.54874E-01   -0.54897E-01 10962   0.152E+00 0.172E-03
CGA:   3    -0.354132425796E+03   -0.23976E-01   -0.23990E-01 10962   0.506E-01 0.825E-04
CGA:   4    -0.354139539400E+03   -0.71136E-02   -0.71245E-02 10962   0.119E-01 0.585E-04
CGA:   5    -0.354141376131E+03   -0.18367E-02   -0.18422E-02 10962   0.348E-02 0.376E-04
CGA:   6    -0.354141961671E+03   -0.58554E-03   -0.58772E-03 10962   0.115E-02 0.189E-04
CGA:   7    -0.354142168375E+03   -0.20670E-03   -0.21371E-03 10962   0.379E-03 0.800E-04
CGA:   8    -0.354142236985E+03   -0.68610E-04   -0.76128E-04 10962   0.142E-03 0.947E-04
CGA:   9    -0.354142268461E+03   -0.31476E-04   -0.34914E-04 10962   0.638E-04 0.514E-04
CGA:  10    -0.354142285654E+03   -0.17193E-04   -0.18465E-04 10962   0.307E-04 0.270E-04
CGA:  11    -0.354142295486E+03   -0.98325E-05   -0.10139E-04 10962   0.143E-04 0.121E-04
 109 F= -.35414230E+03 E0= -.35414230E+03  d E =-.222867E-02  mag=     8.0000
       N       E                     dE             d eps       ncg     rms          ort
SDA:   1    -0.354055421996E+03    0.86864E-01    0.00000E+00 10962   0.288E+00 0.000E+00
CGA:   2    -0.354103415168E+03   -0.47993E-01   -0.48105E-01 10962   0.141E+00 0.978E-03
CGA:   3    -0.354129443863E+03   -0.26029E-01   -0.26053E-01 10962   0.656E-01 0.263E-03
CGA:   4    -0.354138884105E+03   -0.94402E-02   -0.94135E-02 10962   0.148E-01-0.261E-03
CGA:   5    -0.354141097681E+03   -0.22136E-02   -0.21970E-02 10962   0.403E-02-0.170E-03
CGA:   6    -0.354141762023E+03   -0.66434E-03   -0.66358E-03 10962   0.127E-02-0.112E-04
CGA:   7    -0.354141983777E+03   -0.22175E-03   -0.22741E-03 10962   0.364E-03 0.915E-04
CGA:   8    -0.354142046240E+03   -0.62463E-04   -0.67846E-04 10962   0.116E-03 0.840E-04
CGA:   9    -0.354142070274E+03   -0.24034E-04   -0.26242E-04 10962   0.477E-04 0.431E-04
CGA:  10    -0.354142082444E+03   -0.12170E-04   -0.12898E-04 10962   0.219E-04 0.210E-04
CGA:  11    -0.354142088680E+03   -0.62360E-05   -0.64927E-05 10962   0.990E-05 0.107E-04
 110 F= -.35414209E+03 E0= -.35414209E+03  d E =0.206807E-03  mag=     8.0000
       N       E                     dE             d eps       ncg     rms          ort
SDA:   1    -0.354107951165E+03    0.34131E-01    0.00000E+00 10962   0.860E-01 0.000E+00
CGA:   2    -0.354131473820E+03   -0.23523E-01   -0.23524E-01 10962   0.527E-01-0.614E-04
CGA:   3    -0.354139320223E+03   -0.78464E-02   -0.78333E-02 10962   0.151E-01-0.171E-03
CGA:   4    -0.354141471422E+03   -0.21512E-02   -0.21413E-02 10962   0.363E-02-0.121E-03
CGA:   5    -0.354142053067E+03   -0.58165E-03   -0.57982E-03 10962   0.112E-02-0.305E-04
CGA:   6    -0.354142240540E+03   -0.18747E-03   -0.18838E-03 10962   0.367E-03 0.181E-04
CGA:   7    -0.354142320200E+03   -0.79659E-04   -0.79564E-04 10962   0.158E-03-0.268E-04
CGA:   8    -0.354142360154E+03   -0.39954E-04   -0.54721E-04 10962   0.202E-03-0.938E-04
CGA:   9    -0.354142384339E+03   -0.24185E-04   -0.25893E-04 10962   0.315E-04 0.176E-04
CGA:  10    -0.354142392328E+03   -0.79896E-05   -0.79532E-05 10962   0.106E-04 0.305E-05
 111 F= -.35414239E+03 E0= -.35414239E+03  d E =-.303649E-03  mag=     8.0000
       N       E                     dE             d eps       ncg     rms          ort
SDA:   1    -0.354089390481E+03    0.52994E-01    0.00000E+00 10962   0.169E+00 0.000E+00
CGA:   2    -0.354119921222E+03   -0.30531E-01   -0.30510E-01 10962   0.893E-01-0.473E-03
CGA:   3    -0.354135522323E+03   -0.15601E-01   -0.15580E-01 10962   0.371E-01-0.393E-03
CGA:   4    -0.354140694686E+03   -0.51724E-02   -0.51826E-02 10962   0.877E-02 0.106E-03
CGA:   5    -0.354141975061E+03   -0.12804E-02   -0.12940E-02 10962   0.237E-02 0.175E-03
CGA:   6    -0.354142374478E+03   -0.39942E-03   -0.40177E-03 10962   0.721E-03 0.429E-04
CGA:   7    -0.354142534659E+03   -0.16018E-03   -0.16026E-03 10962   0.297E-03-0.754E-04
CGA:   8    -0.354142598839E+03   -0.64180E-04   -0.66049E-04 10962   0.156E-03-0.597E-04
CGA:   9    -0.354142629509E+03   -0.30671E-04   -0.31372E-04 10962   0.684E-04-0.217E-04
CGA:  10    -0.354142644243E+03   -0.14734E-04   -0.14931E-04 10962   0.247E-04-0.598E-05
CGA:  11    -0.354142647046E+03   -0.28029E-05   -0.34163E-05 10962   0.852E-05 0.868E-05
 112 F= -.35414265E+03 E0= -.35414265E+03  d E =-.254717E-03  mag=     8.0000
       N       E                     dE             d eps       ncg     rms          ort
SDA:   1    -0.354130098963E+03    0.12545E-01    0.00000E+00 10962   0.345E-01 0.000E+00
CGA:   2    -0.354138670934E+03   -0.85720E-02   -0.85697E-02 10962   0.217E-01 0.537E-04
CGA:   3    -0.354141930294E+03   -0.32594E-02   -0.32674E-02 10962   0.670E-02 0.118E-03
CGA:   4    -0.354142856155E+03   -0.92586E-03   -0.92940E-03 10962   0.161E-02 0.459E-04
CGA:   5    -0.354143107763E+03   -0.25161E-03   -0.25205E-03 10962   0.485E-03 0.778E-05
CGA:   6    -0.354143189609E+03   -0.81846E-04   -0.82113E-04 10962   0.154E-03 0.702E-05
CGA:   7    -0.354143213706E+03   -0.24097E-04   -0.25399E-04 10962   0.461E-04 0.312E-04
CGA:   8    -0.354143220318E+03   -0.66125E-05   -0.79589E-05 10962   0.194E-04 0.232E-04
 113 F= -.35414322E+03 E0= -.35414322E+03  d E =-.573273E-03  mag=     8.0000
