       N       E                     dE             d eps       ncg     rms          ort
DAV:   1     0.221897470855E+04    0.22190E+04   -0.13342E+05  9828   0.153E+03
DAV:   2    -0.253358438149E+03   -0.24723E+04   -0.23666E+04  9828   0.406E+02
DAV:   3    -0.475405783637E+03   -0.22205E+03   -0.21791E+03  9828   0.141E+02
DAV:   4    -0.484050608512E+03   -0.86448E+01   -0.85494E+01  9828   0.309E+01
DAV:   5    -0.484418685179E+03   -0.36808E+00   -0.36741E+00  9828   0.465E+00
SDA:   6    -0.250209558744E+03    0.23421E+03   -0.36741E+00  9828   0.691E+03 0.000E+00
CGA:   7    -0.324214208569E+03   -0.74005E+02   -0.82851E+02  9828   0.368E+03 0.116E+01
CGA:   8    -0.326315054210E+03   -0.21008E+01   -0.28175E+02  9828   0.472E+03 0.295E+02
CGA:   9    -0.342108998030E+03   -0.15794E+02   -0.28832E+02  9828   0.203E+03-0.259E+03
CGA:  10    -0.361009618275E+03   -0.18901E+02   -0.13004E+02  9828   0.734E+02 0.263E+02
CGA:  11    -0.363203631949E+03   -0.21940E+01   -0.45472E+01  9828   0.207E+03-0.532E+02
CGA:  12    -0.363585836649E+03   -0.38220E+00   -0.16643E+02  9828   0.654E+02-0.344E+02
CGA:  13    -0.367557124340E+03   -0.39713E+01   -0.15955E+01  9828   0.818E+02 0.100E+03
CGA:  14    -0.370975457243E+03   -0.34183E+01   -0.27459E+01  9828   0.125E+02-0.182E+02
CGA:  15    -0.372479146952E+03   -0.15037E+01   -0.15038E+01  9828   0.235E+02-0.672E-01
CGA:  16    -0.374496722332E+03   -0.20176E+01   -0.18067E+01  9828   0.626E+01 0.205E+00
CGA:  17    -0.374939356550E+03   -0.44263E+00   -0.42232E+00  9828   0.318E+01 0.218E+00
CGA:  18    -0.375299782722E+03   -0.36043E+00   -0.35559E+00  9828   0.316E+01-0.142E-01
CGA:  19    -0.375543134773E+03   -0.24335E+00   -0.25972E+00  9828   0.123E+01-0.746E-01
CGA:  20    -0.375629616998E+03   -0.86482E-01   -0.84840E-01  9828   0.875E+00-0.132E-01
CGA:  21    -0.375782105333E+03   -0.15249E+00   -0.15015E+00  9828   0.123E+01 0.197E-01
CGA:  22    -0.375848239932E+03   -0.66135E-01   -0.44173E-01  9828   0.327E+00 0.417E+00
CGA:  23    -0.375902764147E+03   -0.54524E-01   -0.52480E-01  9828   0.131E+01-0.943E-01
CGA:  24    -0.375927386455E+03   -0.24622E-01   -0.17465E-01  9828   0.166E+01 0.726E-01
CGA:  25    -0.375962759214E+03   -0.35373E-01   -0.36126E-01  9828   0.140E+01-0.450E+00
CGA:  26    -0.375975485595E+03   -0.12726E-01   -0.13597E-01  9828   0.121E+01-0.258E+00
CGA:  27    -0.375987093445E+03   -0.11608E-01   -0.12232E-01  9828   0.953E+00-0.183E+00
CGA:  28    -0.375996511108E+03   -0.94177E-02   -0.96987E-02  9828   0.692E+00-0.124E+00
CGA:  29    -0.376004231384E+03   -0.77203E-02   -0.82336E-02  9828   0.491E+00-0.135E+00
CGA:  30    -0.376011014196E+03   -0.67828E-02   -0.74835E-02  9828   0.489E+00-0.142E+00
CGA:  31    -0.376021507050E+03   -0.10493E-01   -0.10429E-01  9828   0.785E+00-0.131E+00
CGA:  32    -0.376043465961E+03   -0.21959E-01   -0.20978E-01  9828   0.981E+00-0.163E+00
CGA:  33    -0.376070008889E+03   -0.26543E-01   -0.26210E-01  9828   0.626E+00-0.128E+00
CGA:  34    -0.376087593174E+03   -0.17584E-01   -0.15993E-01  9828   0.295E+00-0.143E-01
CGA:  35    -0.376098758676E+03   -0.11166E-01   -0.10260E-01  9828   0.268E+00-0.584E-02
CGA:  36    -0.376116336629E+03   -0.17578E-01   -0.17152E-01  9828   0.516E+00-0.291E-01
CGA:  37    -0.376143204143E+03   -0.26868E-01   -0.25773E-01  9828   0.448E+00-0.621E-01
CGA:  38    -0.376161695087E+03   -0.18491E-01   -0.18808E-01  9828   0.213E+00-0.663E-01
CGA:  39    -0.376178030405E+03   -0.16335E-01   -0.16381E-01  9828   0.140E+00-0.145E-01
CGA:  40    -0.376190920701E+03   -0.12890E-01   -0.13164E-01  9828   0.105E+00-0.666E-02
CGA:  41    -0.376204866254E+03   -0.13946E-01   -0.13893E-01  9828   0.135E+00 0.326E-02
CGA:  42    -0.376218263770E+03   -0.13398E-01   -0.13291E-01  9828   0.763E-01 0.758E-02
CGA:  43    -0.376229644568E+03   -0.11381E-01   -0.10873E-01  9828   0.582E-01 0.112E-01
SDA:  44    -0.376239354689E+03   -0.97101E-02   -0.90791E-02  9828   0.331E-01 0.137E-01
CGA:  45    -0.376248575847E+03   -0.92212E-02   -0.83560E-02  9828   0.208E-01 0.574E-02
CGA:  46    -0.376256848179E+03   -0.82723E-02   -0.67727E-02  9828   0.688E-02 0.922E-02
CGA:  47    -0.376258654477E+03   -0.18063E-02   -0.15221E-02  9828   0.357E-02 0.614E-02
CGA:  48    -0.376259429179E+03   -0.77470E-03   -0.61218E-03  9828   0.243E-02 0.261E-02
CGA:  49    -0.376259850548E+03   -0.42137E-03   -0.35145E-03  9828   0.198E-02 0.214E-02
CGA:  50    -0.376260189537E+03   -0.33899E-03   -0.28458E-03  9828   0.168E-02 0.181E-02
CGA:  51    -0.376260423704E+03   -0.23417E-03   -0.21460E-03  9828   0.147E-02 0.156E-02
CGA:  52    -0.376260610206E+03   -0.18650E-03   -0.17873E-03  9828   0.131E-02 0.138E-02
CGA:  53    -0.376260756011E+03   -0.14581E-03   -0.14852E-03  9828   0.117E-02 0.123E-02
CGA:  54    -0.376260874084E+03   -0.11807E-03   -0.12657E-03  9828   0.106E-02 0.111E-02
CGA:  55    -0.376260970833E+03   -0.96749E-04   -0.10906E-03  9828   0.961E-03 0.100E-02
CGA:  56    -0.376261051247E+03   -0.80414E-04   -0.95023E-04  9828   0.879E-03 0.916E-03
CGA:  57    -0.376261118862E+03   -0.67615E-04   -0.83552E-04  9828   0.808E-03 0.840E-03
CGA:  58    -0.376261176325E+03   -0.57462E-04   -0.74069E-04  9828   0.747E-03 0.775E-03
CGA:  59    -0.376261225663E+03   -0.49338E-04   -0.66157E-04  9828   0.693E-03 0.718E-03
CGA:  60    -0.376261268446E+03   -0.42783E-04   -0.59505E-04  9828   0.646E-03 0.668E-03
CGA:  61    -0.376261305889E+03   -0.37443E-04   -0.53858E-04  9828   0.605E-03 0.624E-03
CGA:  62    -0.376261338961E+03   -0.33072E-04   -0.49037E-04  9828   0.569E-03 0.586E-03
CGA:  63    -0.376261368440E+03   -0.29479E-04   -0.44900E-04  9828   0.536E-03 0.551E-03
CGA:  64    -0.376261394939E+03   -0.26499E-04   -0.41324E-04  9828   0.507E-03 0.521E-03
CGA:  65    -0.376261418969E+03   -0.24030E-04   -0.38225E-04  9828   0.481E-03 0.494E-03
CGA:  66    -0.376261440939E+03   -0.21970E-04   -0.35521E-04  9828   0.458E-03 0.469E-03
CGA:  67    -0.376261461186E+03   -0.20247E-04   -0.33150E-04  9828   0.437E-03 0.447E-03
CGA:  68    -0.376261479986E+03   -0.18801E-04   -0.31062E-04  9828   0.418E-03 0.427E-03
CGA:  69    -0.376261497570E+03   -0.17584E-04   -0.29214E-04  9828   0.400E-03 0.409E-03
CGA:  70    -0.376261514124E+03   -0.16554E-04   -0.27571E-04  9828   0.384E-03 0.392E-03
CGA:  71    -0.376261529802E+03   -0.15679E-04   -0.26103E-04  9828   0.370E-03 0.377E-03
CGA:  72    -0.376261544742E+03   -0.14940E-04   -0.24790E-04  9828   0.356E-03 0.363E-03
CGA:  73    -0.376261559052E+03   -0.14310E-04   -0.23608E-04  9828   0.344E-03 0.350E-03
CGA:  74    -0.376261572835E+03   -0.13783E-04   -0.22545E-04  9828   0.332E-03 0.338E-03
CGA:  75    -0.376261586162E+03   -0.13327E-04   -0.21582E-04  9828   0.322E-03 0.327E-03
CGA:  76    -0.376261599107E+03   -0.12945E-04   -0.20710E-04  9828   0.312E-03 0.316E-03
CGA:  77    -0.376261611745E+03   -0.12638E-04   -0.19924E-04  9828   0.302E-03 0.307E-03
CGA:  78    -0.376261624139E+03   -0.12394E-04   -0.19215E-04  9828   0.293E-03 0.298E-03
CGA:  79    -0.376261636273E+03   -0.12134E-04   -0.18541E-04  9828   0.286E-03 0.289E-03
CGA:  80    -0.376261648240E+03   -0.11966E-04   -0.17953E-04  9828   0.280E-03 0.280E-03
CGA:  81    -0.376261659667E+03   -0.11427E-04   -0.17233E-04  9828   0.278E-03 0.269E-03
CGA:  82    -0.376261670775E+03   -0.11108E-04   -0.16708E-04  9828   0.281E-03 0.254E-03
CGA:  83    -0.376261681068E+03   -0.10293E-04   -0.16026E-04  9828   0.281E-03 0.238E-03
CGA:  84    -0.376261691774E+03   -0.10706E-04   -0.15986E-04  9828   0.274E-03 0.230E-03
CGA:  85    -0.376261702424E+03   -0.10650E-04   -0.15618E-04  9828   0.261E-03 0.229E-03
CGA:  86    -0.376261713726E+03   -0.11302E-04   -0.15498E-04  9828   0.248E-03 0.232E-03
CGA:  87    -0.376261725024E+03   -0.11298E-04   -0.15037E-04  9828   0.238E-03 0.232E-03
CGA:  88    -0.376261736590E+03   -0.11566E-04   -0.14757E-04  9828   0.230E-03 0.231E-03
CGA:  89    -0.376261748149E+03   -0.11559E-04   -0.14418E-04  9828   0.225E-03 0.227E-03
CGA:  90    -0.376261759834E+03   -0.11685E-04   -0.14201E-04  9828   0.220E-03 0.222E-03
CGA:  91    -0.376261771620E+03   -0.11786E-04   -0.14005E-04  9828   0.215E-03 0.217E-03
CGA:  92    -0.376261783557E+03   -0.11937E-04   -0.13853E-04  9828   0.210E-03 0.213E-03
CGA:  93    -0.376261795661E+03   -0.12104E-04   -0.13723E-04  9828   0.206E-03 0.208E-03
CGA:  94    -0.376261807964E+03   -0.12302E-04   -0.13623E-04  9828   0.202E-03 0.204E-03
CGA:  95    -0.376261820489E+03   -0.12525E-04   -0.13548E-04  9828   0.198E-03 0.200E-03
CGA:  96    -0.376261833272E+03   -0.12783E-04   -0.13503E-04  9828   0.193E-03 0.195E-03
CGA:  97    -0.376261846345E+03   -0.13073E-04   -0.13486E-04  9828   0.190E-03 0.191E-03
CGA:  98    -0.376261859745E+03   -0.13400E-04   -0.13500E-04  9828   0.186E-03 0.188E-03
CGA:  99    -0.376261873514E+03   -0.13768E-04   -0.13544E-04  9828   0.182E-03 0.184E-03
CGA: 100    -0.376261887698E+03   -0.14185E-04   -0.13624E-04  9828   0.178E-03 0.180E-03
CGA: 101    -0.376261902349E+03   -0.14651E-04   -0.13739E-04  9828   0.175E-03 0.176E-03
CGA: 102    -0.376261917526E+03   -0.15177E-04   -0.13894E-04  9828   0.171E-03 0.173E-03
CGA: 103    -0.376261933294E+03   -0.15768E-04   -0.14092E-04  9828   0.167E-03 0.169E-03
CGA: 104    -0.376261949737E+03   -0.16443E-04   -0.14343E-04  9828   0.164E-03 0.165E-03
CGA: 105    -0.376261966950E+03   -0.17213E-04   -0.14651E-04  9828   0.160E-03 0.162E-03
CGA: 106    -0.376261985044E+03   -0.18094E-04   -0.15026E-04  9828   0.157E-03 0.158E-03
CGA: 107    -0.376262004156E+03   -0.19112E-04   -0.15480E-04  9828   0.153E-03 0.155E-03
CGA: 108    -0.376262024455E+03   -0.20299E-04   -0.16031E-04  9828   0.149E-03 0.151E-03
CGA: 109    -0.376262046151E+03   -0.21696E-04   -0.16699E-04  9828   0.146E-03 0.147E-03
CGA: 110    -0.376262069510E+03   -0.23359E-04   -0.17515E-04  9828   0.142E-03 0.144E-03
CGA: 111    -0.376262094882E+03   -0.25372E-04   -0.18522E-04  9828   0.138E-03 0.140E-03
CGA: 112    -0.376262122742E+03   -0.27860E-04   -0.19785E-04  9828   0.134E-03 0.136E-03
CGA: 113    -0.376262153748E+03   -0.31007E-04   -0.21398E-04  9828   0.129E-03 0.132E-03
CGA: 114    -0.376262188867E+03   -0.35119E-04   -0.23524E-04  9828   0.125E-03 0.127E-03
CGA: 115    -0.376262229601E+03   -0.40734E-04   -0.26440E-04  9828   0.120E-03 0.122E-03
CGA: 116    -0.376262278492E+03   -0.48890E-04   -0.30686E-04  9828   0.114E-03 0.117E-03
CGA: 117    -0.376262340433E+03   -0.61941E-04   -0.37489E-04  9828   0.107E-03 0.111E-03
CGA: 118    -0.376262427215E+03   -0.86782E-04   -0.50464E-04  9828   0.988E-04 0.103E-03
CGA: 119    -0.376262584919E+03   -0.15770E-03   -0.99665E-03  9828   0.876E-04 0.907E-04
CGA: 120    -0.376262787349E+03   -0.20243E-03   -0.69203E-04  9828   0.584E-03 0.321E-04
CGA: 121    -0.376263295048E+03   -0.50770E-03   -0.52348E-03  9828   0.129E-02-0.883E-04
CGA: 122    -0.376263798433E+03   -0.50338E-03   -0.50118E-03  9828   0.370E-03-0.331E-03
CGA: 123    -0.376263851187E+03   -0.52754E-04   -0.43384E-04  9828   0.752E-04-0.340E-04
CGA: 124    -0.376263876472E+03   -0.25285E-04   -0.26687E-04  9828   0.994E-04 0.215E-04
CGA: 125    -0.376263916135E+03   -0.39664E-04   -0.44415E-04  9828   0.608E-04 0.475E-04
CGA: 126    -0.376263974647E+03   -0.58512E-04   -0.55574E-04  9828   0.930E-04 0.143E-04
CGA: 127    -0.376264031499E+03   -0.56852E-04   -0.59473E-04  9828   0.955E-04-0.231E-04
CGA: 128    -0.376264101106E+03   -0.69607E-04    0.24882E-03  9828   0.123E-03-0.763E-04
CGA: 129    -0.376264102408E+03   -0.13020E-05   -0.18135E-04  9828   0.444E-04 0.469E-04
CGA: 130    -0.376264132597E+03   -0.30189E-04   -0.35988E-04  9828   0.115E-03-0.389E-04
CGA: 131    -0.376264176516E+03   -0.43919E-04   -0.40028E-04  9828   0.433E-04-0.416E-04
CGA: 132    -0.376264222399E+03   -0.45883E-04    0.68937E-05  9828   0.949E-04-0.243E-04
CGA: 133    -0.376264217598E+03    0.48010E-05   -0.76507E-05  9828   0.170E-04 0.351E-04
   1 F= -.37626422E+03 E0= -.37626419E+03  d E =-.376264E+03  mag=     4.0000
       N       E                     dE             d eps       ncg     rms          ort
SDA:   1    -0.376321436144E+03   -0.57214E-01    0.00000E+00  9828   0.132E-01 0.000E+00
CGA:   2    -0.376324229560E+03   -0.27934E-02   -0.29309E-02  9828   0.277E-02 0.744E-03
CGA:   3    -0.376325160238E+03   -0.93068E-03   -0.89789E-03  9828   0.120E-02-0.364E-03
CGA:   4    -0.376325302289E+03   -0.14205E-03   -0.15895E-03  9828   0.278E-03 0.735E-04
CGA:   5    -0.376325391899E+03   -0.89610E-04   -0.80307E-04  9828   0.142E-03-0.855E-04
CGA:   6    -0.376325426489E+03   -0.34590E-04   -0.32202E-04  9828   0.100E-03-0.493E-04
CGA:   7    -0.376325444398E+03   -0.17910E-04   -0.17477E-04  9828   0.515E-04-0.408E-05
CGA:   8    -0.376325460883E+03   -0.16485E-04   -0.15555E-04  9828   0.311E-04-0.175E-04
CGA:   9    -0.376325462296E+03   -0.14125E-05   -0.29278E-05  9828   0.158E-04 0.683E-05
   2 F= -.37632546E+03 E0= -.37632544E+03  d E =-.612447E-01  mag=     4.0000
       N       E                     dE             d eps       ncg     rms          ort
SDA:   1    -0.367821663872E+03    0.85038E+01    0.00000E+00  9828   0.337E+02 0.000E+00
CGA:   2    -0.375912257187E+03   -0.80906E+01   -0.81110E+01  9828   0.750E+01 0.130E-01
CGA:   3    -0.377897129308E+03   -0.19849E+01   -0.19823E+01  9828   0.214E+01-0.259E-01
CGA:   4    -0.378337811041E+03   -0.44068E+00   -0.44022E+00  9828   0.573E+00-0.518E-02
CGA:   5    -0.378465082490E+03   -0.12727E+00   -0.12690E+00  9828   0.180E+00-0.286E-02
CGA:   6    -0.378517861682E+03   -0.52779E-01   -0.52764E-01  9828   0.834E-01-0.618E-03
CGA:   7    -0.378544123935E+03   -0.26262E-01   -0.26268E-01  9828   0.355E-01 0.330E-03
CGA:   8    -0.378555032199E+03   -0.10908E-01   -0.10915E-01  9828   0.121E-01 0.289E-03
CGA:   9    -0.378558930825E+03   -0.38986E-02   -0.39000E-02  9828   0.431E-02 0.137E-03
CGA:  10    -0.378560507282E+03   -0.15765E-02   -0.15848E-02  9828   0.220E-02-0.236E-03
CGA:  11    -0.378561146536E+03   -0.63925E-03   -0.64306E-03  9828   0.102E-02 0.181E-03
CGA:  12    -0.378561515136E+03   -0.36860E-03   -0.36870E-03  9828   0.514E-03-0.218E-04
CGA:  13    -0.378561640275E+03   -0.12514E-03   -0.13205E-03  9828   0.180E-03 0.104E-03
CGA:  14    -0.378561706515E+03   -0.66240E-04   -0.66946E-04  9828   0.911E-04 0.422E-04
CGA:  15    -0.378561737759E+03   -0.31243E-04   -0.32811E-04  9828   0.654E-04 0.466E-04
CGA:  16    -0.378561746441E+03   -0.86828E-05   -0.13224E-04  9828   0.375E-04 0.374E-04
CGA:  17    -0.378561777393E+03   -0.30952E-04   -0.25467E-04  9828   0.761E-04 0.148E-04
CGA:  18    -0.378561791810E+03   -0.14417E-04   -0.22979E-04  9828   0.302E-04 0.713E-04
CGA:  19    -0.378561800033E+03   -0.82225E-05   -0.89826E-05  9828   0.229E-04 0.233E-04
   3 F= -.37856180E+03 E0= -.37856180E+03  d E =-.223634E+01  mag=     4.0000
       N       E                     dE             d eps       ncg     rms          ort
SDA:   1    -0.367361540710E+03    0.11200E+02    0.00000E+00  9828   0.412E+02 0.000E+00
CGA:   2    -0.376621805571E+03   -0.92603E+01   -0.93011E+01  9828   0.861E+01 0.677E-01
CGA:   3    -0.378917155424E+03   -0.22953E+01   -0.22926E+01  9828   0.251E+01-0.367E-01
CGA:   4    -0.379429707955E+03   -0.51255E+00   -0.51165E+00  9828   0.647E+00-0.783E-02
CGA:   5    -0.379567969845E+03   -0.13826E+00   -0.13832E+00  9828   0.191E+00 0.330E-03
CGA:   6    -0.379623312541E+03   -0.55343E-01   -0.55370E-01  9828   0.882E-01 0.106E-02
CGA:   7    -0.379652771968E+03   -0.29459E-01   -0.29463E-01  9828   0.431E-01-0.208E-03
CGA:   8    -0.379666683785E+03   -0.13912E-01   -0.13917E-01  9828   0.159E-01-0.512E-03
CGA:   9    -0.379671878341E+03   -0.51946E-02   -0.51981E-02  9828   0.565E-02-0.210E-03
CGA:  10    -0.379673817168E+03   -0.19388E-02   -0.19378E-02  9828   0.223E-02 0.262E-04
CGA:  11    -0.379674673446E+03   -0.85628E-03   -0.84821E-03  9828   0.955E-03 0.125E-03
CGA:  12    -0.379675104092E+03   -0.43065E-03   -0.43148E-03  9828   0.482E-03-0.114E-04
CGA:  13    -0.379675292718E+03   -0.18863E-03   -0.18792E-03  9828   0.291E-03 0.635E-05
CGA:  14    -0.379675394212E+03   -0.10149E-03   -0.10079E-03  9828   0.214E-03 0.492E-04
CGA:  15    -0.379675491517E+03   -0.97305E-04   -0.93107E-04  9828   0.152E-03 0.922E-04
CGA:  16    -0.379675630402E+03   -0.13889E-03   -0.12061E-03  9828   0.166E-03 0.727E-04
CGA:  17    -0.379675793415E+03   -0.16301E-03   -0.16143E-03  9828   0.369E-03-0.149E-04
CGA:  18    -0.379675911587E+03   -0.11817E-03   -0.11773E-03  9828   0.289E-03-0.122E-03
CGA:  19    -0.379675979508E+03   -0.67921E-04   -0.66963E-04  9828   0.272E-03-0.132E-03
CGA:  20    -0.379676022556E+03   -0.43048E-04   -0.29288E-04  9828   0.122E-03-0.108E-03
CGA:  21    -0.379676045866E+03   -0.23310E-04   -0.31599E-04  9828   0.201E-03-0.111E-03
CGA:  22    -0.379676076311E+03   -0.30445E-04   -0.34449E-04  9828   0.561E-04 0.230E-04
CGA:  23    -0.379676092709E+03   -0.16398E-04   -0.18256E-04  9828   0.375E-04 0.357E-04
CGA:  24    -0.379676103471E+03   -0.10762E-04   -0.11278E-04  9828   0.372E-04 0.128E-04
CGA:  25    -0.379676118326E+03   -0.14855E-04   -0.15773E-04  9828   0.228E-04 0.388E-04
CGA:  26    -0.379676121245E+03   -0.29196E-05   -0.47784E-05  9828   0.168E-04 0.144E-04
   4 F= -.37967612E+03 E0= -.37967612E+03  d E =-.111432E+01  mag=     4.0000
       N       E                     dE             d eps       ncg     rms          ort
SDA:   1    -0.374674490166E+03    0.50016E+01    0.00000E+00  9828   0.174E+02 0.000E+00
CGA:   2    -0.378589352386E+03   -0.39149E+01   -0.39246E+01  9828   0.388E+01 0.159E-01
CGA:   3    -0.379656425047E+03   -0.10671E+01   -0.10662E+01  9828   0.106E+01-0.100E-01
CGA:   4    -0.379874188122E+03   -0.21776E+00   -0.21763E+00  9828   0.268E+00-0.134E-02
CGA:   5    -0.379930036632E+03   -0.55849E-01   -0.55833E-01  9828   0.785E-01-0.224E-03
CGA:   6    -0.379953126100E+03   -0.23089E-01   -0.23096E-01  9828   0.374E-01 0.336E-03
CGA:   7    -0.379965752087E+03   -0.12626E-01   -0.12622E-01  9828   0.193E-01 0.176E-03
CGA:   8    -0.379972003391E+03   -0.62513E-02   -0.62525E-02  9828   0.731E-02-0.194E-03
CGA:   9    -0.379974282673E+03   -0.22793E-02   -0.22792E-02  9828   0.244E-02-0.288E-04
CGA:  10    -0.379975060937E+03   -0.77826E-03   -0.77859E-03  9828   0.935E-03-0.948E-04
CGA:  11    -0.379975323131E+03   -0.26219E-03   -0.26373E-03  9828   0.360E-03 0.679E-04
CGA:  12    -0.379975470211E+03   -0.14708E-03   -0.15252E-03  9828   0.239E-03-0.681E-04
CGA:  13    -0.379975527215E+03   -0.57004E-04   -0.56785E-04  9828   0.109E-03-0.757E-05
CGA:  14    -0.379975569366E+03   -0.42150E-04   -0.48171E-04  9828   0.106E-03-0.430E-04
CGA:  15    -0.379975592939E+03   -0.23574E-04   -0.41945E-04  9828   0.199E-03-0.549E-04
CGA:  16    -0.379975645848E+03   -0.52909E-04   -0.52576E-04  9828   0.903E-04-0.358E-05
CGA:  17    -0.379975674671E+03   -0.28823E-04   -0.28542E-04  9828   0.449E-04-0.170E-04
CGA:  18    -0.379975566610E+03    0.10806E-03   -0.61150E-04  9828   0.950E-03-0.105E-03
CGA:  19    -0.379975704853E+03   -0.13824E-03   -0.14631E-03  9828   0.147E-03 0.273E-04
CGA:  20    -0.379975767794E+03   -0.62941E-04   -0.59653E-04  9828   0.539E-04-0.164E-04
CGA:  21    -0.379975789824E+03   -0.22029E-04   -0.22129E-04  9828   0.192E-04 0.858E-06
CGA:  22    -0.379975800600E+03   -0.10777E-04   -0.10484E-04  9828   0.341E-04-0.750E-05
CGA:  23    -0.379975807601E+03   -0.70004E-05   -0.65950E-05  9828   0.265E-04-0.147E-05
CGA:  24    -0.379975821700E+03   -0.14099E-04   -0.13805E-04  9828   0.740E-04-0.181E-04
CGA:  25    -0.379975842568E+03   -0.20869E-04   -0.15705E-04  9828   0.226E-04-0.145E-04
CGA:  26    -0.379975849928E+03   -0.73591E-05   -0.75297E-05  9828   0.957E-05 0.141E-05
CGA:  27    -0.379975863690E+03   -0.13763E-04    0.10432E-04  9828   0.105E-04-0.940E-06
CGA:  28    -0.379975868720E+03   -0.50291E-05   -0.50343E-05  9828   0.106E-04 0.907E-06
CGA:  29    -0.379975664073E+03    0.20465E-03   -0.11079E-03  9828   0.156E-02-0.851E-04
CGA:  30    -0.379975895719E+03   -0.23165E-03   -0.23729E-03  9828   0.111E-03 0.263E-04
CGA:  31    -0.379975939088E+03   -0.43369E-04   -0.34328E-04  9828   0.322E-04-0.141E-04
CGA:  32    -0.379975955783E+03   -0.16695E-04   -0.17380E-04  9828   0.136E-04 0.250E-05
CGA:  33    -0.379975964071E+03   -0.82880E-05   -0.56835E-05  9828   0.137E-04-0.511E-05
   5 F= -.37997596E+03 E0= -.37997596E+03  d E =-.299843E+00  mag=     4.0000
       N       E                     dE             d eps       ncg     rms          ort
SDA:   1    -0.375511741401E+03    0.44642E+01    0.00000E+00  9828   0.139E+02 0.000E+00
CGA:   2    -0.378888362415E+03   -0.33766E+01   -0.34042E+01  9828   0.371E+01 0.234E+00
CGA:   3    -0.379822522485E+03   -0.93416E+00   -0.93442E+00  9828   0.105E+01 0.199E-01
CGA:   4    -0.380020910773E+03   -0.19839E+00   -0.19910E+00  9828   0.230E+00 0.281E-02
CGA:   5    -0.380069785746E+03   -0.48875E-01   -0.48985E-01  9828   0.640E-01 0.150E-03
CGA:   6    -0.380087729577E+03   -0.17944E-01   -0.17908E-01  9828   0.294E-01-0.531E-04
CGA:   7    -0.380097619831E+03   -0.98903E-02   -0.98492E-02  9828   0.157E-01-0.103E-03
CGA:   8    -0.380102886213E+03   -0.52664E-02   -0.52582E-02  9828   0.648E-02-0.228E-04
CGA:   9    -0.380104940466E+03   -0.20543E-02   -0.20558E-02  9828   0.214E-02 0.631E-05
CGA:  10    -0.380105651107E+03   -0.71064E-03   -0.69996E-03  9828   0.792E-03-0.334E-04
CGA:  11    -0.380105948978E+03   -0.29787E-03   -0.29177E-03  9828   0.424E-03-0.240E-04
CGA:  12    -0.380106097045E+03   -0.14807E-03   -0.14894E-03  9828   0.271E-03 0.330E-05
CGA:  13    -0.380106199516E+03   -0.10247E-03   -0.10267E-03  9828   0.190E-03 0.659E-06
CGA:  14    -0.380106292897E+03   -0.93381E-04   -0.93090E-04  9828   0.192E-03-0.374E-05
CGA:  15    -0.380106400728E+03   -0.10783E-03   -0.10771E-03  9828   0.270E-03-0.109E-04
CGA:  16    -0.380106515191E+03   -0.11446E-03   -0.11310E-03  9828   0.251E-03-0.114E-04
CGA:  17    -0.380106631843E+03   -0.11665E-03   -0.11257E-03  9828   0.161E-03-0.384E-04
CGA:  18    -0.380106685378E+03   -0.53535E-04   -0.51220E-04  9828   0.805E-04-0.123E-04
CGA:  19    -0.380106706585E+03   -0.21207E-04   -0.22503E-04  9828   0.337E-04 0.466E-05
CGA:  20    -0.380106713620E+03   -0.70350E-05   -0.10315E-04  9828   0.156E-04 0.124E-04
   6 F= -.38010671E+03 E0= -.38010671E+03  d E =-.130750E+00  mag=     4.0000
       N       E                     dE             d eps       ncg     rms          ort
SDA:   1    -0.369308931596E+03    0.10798E+02    0.00000E+00  9828   0.279E+02 0.000E+00
CGA:   2    -0.377242792788E+03   -0.79339E+01   -0.78507E+01  9828   0.109E+02 0.292E+00
CGA:   3    -0.379565295330E+03   -0.23225E+01   -0.23301E+01  9828   0.228E+01 0.198E-01
CGA:   4    -0.379980203091E+03   -0.41491E+00   -0.39894E+00  9828   0.414E+00 0.973E-01
CGA:   5    -0.380077232878E+03   -0.97030E-01   -0.97174E-01  9828   0.116E+00 0.549E-03
CGA:   6    -0.380106198739E+03   -0.28966E-01   -0.28863E-01  9828   0.422E-01-0.428E-03
CGA:   7    -0.380118065844E+03   -0.11867E-01   -0.11853E-01  9828   0.188E-01 0.810E-04
CGA:   8    -0.380124233477E+03   -0.61676E-02   -0.60896E-02  9828   0.100E-01-0.631E-03
CGA:   9    -0.380126814747E+03   -0.25813E-02   -0.26257E-02  9828   0.385E-02 0.335E-03
CGA:  10    -0.380128055280E+03   -0.12405E-02   -0.12149E-02  9828   0.162E-02-0.197E-03
CGA:  11    -0.380128509538E+03   -0.45426E-03   -0.46709E-03  9828   0.763E-03 0.108E-03
CGA:  12    -0.380128843040E+03   -0.33350E-03   -0.33269E-03  9828   0.627E-03-0.641E-04
CGA:  13    -0.380129037523E+03   -0.19448E-03   -0.19832E-03  9828   0.411E-03 0.503E-04
CGA:  14    -0.380129250835E+03   -0.21331E-03   -0.21773E-03  9828   0.367E-03-0.634E-04
CGA:  15    -0.380129384146E+03   -0.13331E-03   -0.13313E-03  9828   0.310E-03 0.217E-04
CGA:  16    -0.380129565958E+03   -0.18181E-03   -0.23227E-03  9828   0.717E-03-0.184E-03
CGA:  17    -0.380129664575E+03   -0.98617E-04   -0.12654E-03  9828   0.203E-03 0.113E-03
CGA:  18    -0.380129765203E+03   -0.10063E-03   -0.10159E-03  9828   0.200E-03-0.101E-03
CGA:  19    -0.380129788013E+03   -0.22809E-04   -0.26366E-04  9828   0.162E-03 0.215E-04
CGA:  20    -0.380129837060E+03   -0.49047E-04   -0.51630E-04  9828   0.884E-04 0.190E-04
CGA:  21    -0.380129678188E+03    0.15887E-03   -0.11682E-03  9828   0.210E-02-0.358E-03
CGA:  22    -0.380129873985E+03   -0.19580E-03   -0.26526E-03  9828   0.254E-03 0.269E-03
CGA:  23    -0.380129955549E+03   -0.81564E-04   -0.83669E-04  9828   0.738E-04 0.150E-04
CGA:  24    -0.380129941727E+03    0.13822E-04   -0.53719E-04  9828   0.112E-02-0.256E-03
CGA:  25    -0.380130006234E+03   -0.64507E-04   -0.11730E-03  9828   0.644E-04 0.185E-03
CGA:  26    -0.380130005661E+03    0.57315E-06   -0.86677E-05  9828   0.294E-04 0.306E-04
CGA:  27    -0.380130015753E+03   -0.10092E-04   -0.10635E-04  9828   0.168E-04 0.330E-05
CGA:  28    -0.380130041904E+03   -0.26151E-04    0.48568E-05  9828   0.623E-04-0.250E-04
CGA:  29    -0.380130038380E+03    0.35241E-05   -0.54863E-05  9828   0.185E-04 0.295E-04
   7 F= -.38013004E+03 E0= -.38013004E+03  d E =-.233248E-01  mag=     4.0000
       N       E                     dE             d eps       ncg     rms          ort
SDA:   1    -0.377817554722E+03    0.23125E+01    0.00000E+00  9828   0.579E+01 0.000E+00
CGA:   2    -0.379760384546E+03   -0.19428E+01   -0.19426E+01  9828   0.197E+01-0.761E-02
CGA:   3    -0.380161754286E+03   -0.40137E+00   -0.40184E+00  9828   0.408E+00 0.232E-02
CGA:   4    -0.380238130717E+03   -0.76376E-01   -0.76477E-01  9828   0.835E-01 0.245E-03
CGA:   5    -0.380255980373E+03   -0.17850E-01   -0.17828E-01  9828   0.222E-01-0.151E-03
CGA:   6    -0.380261574706E+03   -0.55943E-02   -0.55725E-02  9828   0.750E-02-0.240E-03
CGA:   7    -0.380263692065E+03   -0.21174E-02   -0.21001E-02  9828   0.301E-02-0.313E-03
CGA:   8    -0.380264672122E+03   -0.98006E-03   -0.98145E-03  9828   0.133E-02-0.264E-03
CGA:   9    -0.380265065906E+03   -0.39378E-03   -0.39207E-03  9828   0.487E-03-0.144E-03
CGA:  10    -0.380265219152E+03   -0.15325E-03   -0.15658E-03  9828   0.254E-03-0.127E-03
CGA:  11    -0.380265287706E+03   -0.68554E-04   -0.72122E-04  9828   0.193E-03-0.745E-04
CGA:  12    -0.380265305198E+03   -0.17492E-04   -0.99187E-04  9828   0.682E-03-0.207E-03
CGA:  13    -0.380265399073E+03   -0.93876E-04   -0.10306E-03  9828   0.102E-03 0.484E-04
CGA:  14    -0.380265432828E+03   -0.33754E-04   -0.33738E-04  9828   0.303E-04-0.339E-06
CGA:  15    -0.380265439534E+03   -0.67059E-05   -0.78737E-05  9828   0.141E-04 0.138E-04
   8 F= -.38026544E+03 E0= -.38026544E+03  d E =-.135401E+00  mag=     4.0000
       N       E                     dE             d eps       ncg     rms          ort
SDA:   1    -0.379118461106E+03    0.11470E+01    0.00000E+00  9828   0.307E+01 0.000E+00
CGA:   2    -0.380054669441E+03   -0.93621E+00   -0.93592E+00  9828   0.936E+00-0.111E-01
CGA:   3    -0.380268937071E+03   -0.21427E+00   -0.21488E+00  9828   0.188E+00 0.596E-02
CGA:   4    -0.380304289451E+03   -0.35352E-01   -0.35565E-01  9828   0.410E-01 0.150E-02
CGA:   5    -0.380312938608E+03   -0.86492E-02   -0.86647E-02  9828   0.103E-01 0.161E-03
CGA:   6    -0.380315697668E+03   -0.27591E-02   -0.27483E-02  9828   0.390E-02-0.215E-03
CGA:   7    -0.380316852728E+03   -0.11551E-02   -0.11536E-02  9828   0.182E-02-0.145E-03
CGA:   8    -0.380317398427E+03   -0.54570E-03   -0.54572E-03  9828   0.710E-03 0.921E-04
CGA:   9    -0.380317623730E+03   -0.22530E-03   -0.22579E-03  9828   0.243E-03 0.552E-04
CGA:  10    -0.380317711257E+03   -0.87526E-04   -0.87708E-04  9828   0.106E-03-0.747E-05
CGA:  11    -0.380317753366E+03   -0.42109E-04   -0.53797E-04  9828   0.146E-03-0.546E-04
CGA:  12    -0.380317773223E+03   -0.19857E-04   -0.23425E-04  9828   0.300E-04 0.224E-04
CGA:  13    -0.380317782732E+03   -0.95090E-05   -0.97142E-05  9828   0.138E-04 0.612E-05
CGA:  14    -0.380317770563E+03    0.12168E-04   -0.25168E-04  9828   0.178E-03-0.309E-04
CGA:  15    -0.380317798793E+03   -0.28229E-04   -0.31424E-04  9828   0.418E-04 0.169E-04
CGA:  16    -0.380317814104E+03   -0.15311E-04   -0.15231E-04  9828   0.162E-04-0.251E-05
CGA:  17    -0.380317819552E+03   -0.54479E-05   -0.54497E-05  9828   0.701E-05 0.560E-06
   9 F= -.38031782E+03 E0= -.38031782E+03  d E =-.523800E-01  mag=     4.0000
       N       E                     dE             d eps       ncg     rms          ort
SDA:   1    -0.376347021890E+03    0.39708E+01    0.00000E+00  9828   0.951E+01 0.000E+00
CGA:   2    -0.379610001747E+03   -0.32630E+01   -0.32628E+01  9828   0.293E+01-0.107E-01
CGA:   3    -0.380204332913E+03   -0.59433E+00   -0.59568E+00  9828   0.551E+00 0.590E-02
CGA:   4    -0.380309766368E+03   -0.10543E+00   -0.10578E+00  9828   0.117E+00 0.218E-02
CGA:   5    -0.380334658463E+03   -0.24892E-01   -0.24868E-01  9828   0.287E-01-0.167E-03
CGA:   6    -0.380341667826E+03   -0.70094E-02   -0.69650E-02  9828   0.867E-02-0.454E-03
CGA:   7    -0.380344083879E+03   -0.24161E-02   -0.24104E-02  9828   0.330E-02-0.104E-03
CGA:   8    -0.380345118289E+03   -0.10344E-02   -0.10364E-02  9828   0.129E-02 0.130E-03
CGA:   9    -0.380345539215E+03   -0.42093E-03   -0.42164E-03  9828   0.427E-03 0.426E-04
CGA:  10    -0.380345698128E+03   -0.15891E-03   -0.16074E-03  9828   0.196E-03-0.552E-04
CGA:  11    -0.380345764598E+03   -0.66470E-04   -0.68763E-04  9828   0.139E-03-0.330E-04
CGA:  12    -0.380345810373E+03   -0.45775E-04   -0.46728E-04  9828   0.123E-03-0.139E-04
CGA:  13    -0.380345858842E+03   -0.48470E-04   -0.49617E-04  9828   0.106E-03-0.106E-04
CGA:  14    -0.380345908480E+03   -0.49637E-04   -0.63876E-04  9828   0.165E-03-0.455E-04
CGA:  15    -0.380345931856E+03   -0.23376E-04   -0.23490E-04  9828   0.105E-03 0.902E-06
CGA:  16    -0.380345960776E+03   -0.28920E-04   -0.29960E-04  9828   0.706E-04 0.139E-04
CGA:  17    -0.380345982844E+03   -0.22068E-04   -0.22123E-04  9828   0.573E-04 0.453E-06
CGA:  18    -0.380346007528E+03   -0.24684E-04   -0.24611E-04  9828   0.483E-04 0.210E-06
CGA:  19    -0.380346023520E+03   -0.15992E-04   -0.16041E-04  9828   0.462E-04 0.179E-05
CGA:  20    -0.380346037517E+03   -0.13997E-04   -0.14015E-04  9828   0.229E-04-0.220E-06
CGA:  21    -0.380346043110E+03   -0.55930E-05   -0.61137E-05  9828   0.127E-04 0.634E-05
  10 F= -.38034604E+03 E0= -.38034604E+03  d E =-.282236E-01  mag=     4.0000
       N       E                     dE             d eps       ncg     rms          ort
SDA:   1    -0.332117656322E+03    0.48228E+02    0.00000E+00  9828   0.111E+03 0.000E+00
CGA:   2    -0.365117852536E+03   -0.33000E+02   -0.31722E+02  9828   0.714E+02-0.410E+01
CGA:   3    -0.371752594857E+03   -0.66347E+01   -0.88280E+01  9828   0.205E+02 0.419E+01
CGA:   4    -0.374277556364E+03   -0.25250E+01   -0.14425E+01  9828   0.958E+01 0.170E+02
CGA:   5    -0.375026576237E+03   -0.74902E+00   -0.49616E+00  9828   0.525E+01 0.303E+01
CGA:   6    -0.375921485304E+03   -0.89491E+00   -0.86930E+00  9828   0.149E+02 0.736E-01
CGA:   7    -0.376329726250E+03   -0.40824E+00   -0.52246E+00  9828   0.260E+01-0.268E+01
CGA:   8    -0.376404214845E+03   -0.74489E-01   -0.19059E+00  9828   0.502E+01-0.831E+00
CGA:   9    -0.376577203576E+03   -0.17299E+00   -0.14271E+00  9828   0.317E+01 0.524E+00
CGA:  10    -0.376744758371E+03   -0.16755E+00   -0.15066E+00  9828   0.345E+01 0.164E+00
CGA:  11    -0.376826318032E+03   -0.81560E-01   -0.10769E+00  9828   0.383E+01-0.125E+01
CGA:  12    -0.376834895007E+03   -0.85770E-02   -0.67614E-01  9828   0.411E+01-0.193E+01
CGA:  13    -0.376904840916E+03   -0.69946E-01   -0.27665E+00  9828   0.255E+01-0.171E+01
CGA:  14    -0.376960787107E+03   -0.55946E-01   -0.77892E-01  9828   0.234E+01-0.368E+00
CGA:  15    -0.377031718084E+03   -0.70931E-01   -0.58837E-01  9828   0.804E+00 0.334E+00
CGA:  16    -0.377052352544E+03   -0.20634E-01   -0.38927E-01  9828   0.473E+00-0.424E+00
CGA:  17    -0.377068559568E+03   -0.16207E-01   -0.13635E-01  9828   0.856E-01 0.115E+00
CGA:  18    -0.377074726373E+03   -0.61668E-02   -0.60989E-02  9828   0.117E+00 0.668E-02
CGA:  19    -0.377090090675E+03   -0.15364E-01   -0.15518E-01  9828   0.356E+00 0.548E-03
CGA:  20    -0.377106397296E+03   -0.16307E-01   -0.15599E-01  9828   0.124E+00 0.227E-01
CGA:  21    -0.377109384523E+03   -0.29872E-02   -0.27179E-02  9828   0.359E-01 0.256E-01
CGA:  22    -0.377110960025E+03   -0.15755E-02   -0.16855E-02  9828   0.539E-01 0.399E-02
CGA:  23    -0.377115219653E+03   -0.42596E-02   -0.45200E-02  9828   0.163E+00 0.392E-02
CGA:  24    -0.377120828286E+03   -0.56086E-02   -0.57907E-02  9828   0.965E-01 0.125E-01
CGA:  25    -0.377122862458E+03   -0.20342E-02   -0.22521E-02  9828   0.358E-01 0.376E-02
CGA:  26    -0.377123714201E+03   -0.85174E-03   -0.99156E-03  9828   0.275E-01 0.410E-02
CGA:  27    -0.377124616439E+03   -0.90224E-03   -0.10730E-02  9828   0.348E-01 0.377E-02
CGA:  28    -0.377126120734E+03   -0.15043E-02   -0.17675E-02  9828   0.547E-01 0.234E-02
CGA:  29    -0.377127925968E+03   -0.18052E-02   -0.20173E-02  9828   0.469E-01 0.147E-02
CGA:  30    -0.377128983194E+03   -0.10572E-02   -0.12072E-02  9828   0.230E-01 0.417E-04
CGA:  31    -0.377129455667E+03   -0.47247E-03   -0.56681E-03  9828   0.180E-01 0.200E-02
CGA:  32    -0.377129993118E+03   -0.53745E-03   -0.72183E-03  9828   0.296E-01 0.279E-02
CGA:  33    -0.377131109862E+03   -0.11167E-02   -0.15263E-02  9828   0.398E-01 0.484E-02
CGA:  34    -0.377131985853E+03   -0.87599E-03   -0.12047E-02  9828   0.126E-01 0.327E-02
CGA:  35    -0.377132235063E+03   -0.24921E-03   -0.31748E-03  9828   0.551E-02 0.569E-03
CGA:  36    -0.377132445112E+03   -0.21005E-03   -0.24004E-03  9828   0.854E-02 0.557E-03
CGA:  37    -0.377132873898E+03   -0.42879E-03   -0.50061E-03  9828   0.139E-01 0.184E-02
CGA:  38    -0.377133293666E+03   -0.41977E-03   -0.58552E-03  9828   0.705E-02 0.267E-02
CGA:  39    -0.377133424369E+03   -0.13070E-03   -0.23483E-03  9828   0.300E-02 0.122E-02
CGA:  40    -0.377133514437E+03   -0.90068E-04   -0.13780E-03  9828   0.345E-02 0.964E-03
CGA:  41    -0.377133773675E+03   -0.25924E-03   -0.29216E-03  9828   0.564E-02 0.169E-02
CGA:  42    -0.377134128909E+03   -0.35523E-03   -0.41736E-03  9828   0.351E-02 0.203E-02
CGA:  43    -0.377134288338E+03   -0.15943E-03   -0.20621E-03  9828   0.247E-02 0.123E-02
CGA:  44    -0.377134421154E+03   -0.13282E-03   -0.16570E-03  9828   0.267E-02 0.104E-02
CGA:  45    -0.377134692512E+03   -0.27136E-03   -0.27737E-03  9828   0.417E-02 0.138E-02
CGA:  46    -0.377134889638E+03   -0.19713E-03   -0.18702E-03  9828   0.128E-02-0.347E-03
CGA:  47    -0.377134932090E+03   -0.42451E-04   -0.83255E-04  9828   0.147E-01-0.147E-02
CGA:  48    -0.377135442659E+03   -0.51057E-03   -0.50964E-03  9828   0.148E-02 0.357E-03
CGA:  49    -0.377135652111E+03   -0.20945E-03   -0.20948E-03  9828   0.163E-02-0.107E-04
CGA:  50    -0.377135781551E+03   -0.12944E-03   -0.12899E-03  9828   0.423E-03-0.758E-05
CGA:  51    -0.377135892381E+03   -0.11083E-03    0.25582E-02  9828   0.680E-03 0.245E-03
CGA:  52    -0.377135969280E+03   -0.76898E-04   -0.64969E-04  9828   0.138E-02-0.351E-03
CGA:  53    -0.377136012746E+03   -0.43467E-04   -0.51120E-04  9828   0.265E-03 0.813E-04
CGA:  54    -0.377136086786E+03   -0.74040E-04    0.26929E-03  9828   0.394E-03 0.188E-03
CGA:  55    -0.377136133472E+03   -0.46686E-04   -0.65876E-04  9828   0.244E-02-0.447E-03
CGA:  56    -0.377136205484E+03   -0.72011E-04   -0.89366E-04  9828   0.226E-03 0.200E-03
CGA:  57    -0.377136241949E+03   -0.36466E-04   -0.89857E-04  9828   0.370E-02-0.224E-03
CGA:  58    -0.377136426093E+03   -0.18414E-03   -0.17188E-03  9828   0.254E-03-0.249E-03
CGA:  59    -0.377136462675E+03   -0.36582E-04   -0.95463E-04  9828   0.485E-02-0.219E-03
CGA:  60    -0.377136627125E+03   -0.16445E-03   -0.15838E-03  9828   0.192E-03-0.112E-03
CGA:  61    -0.377136686677E+03   -0.59552E-04    0.85766E-04  9828   0.273E-03 0.116E-03
CGA:  62    -0.377136705935E+03   -0.19258E-04   -0.21004E-04  9828   0.299E-03 0.278E-04
CGA:  63    -0.377136809359E+03   -0.10342E-03    0.13200E-03  9828   0.361E-03 0.273E-03
CGA:  64    -0.377136848562E+03   -0.39203E-04   -0.34159E-04  9828   0.489E-03-0.130E-03
CGA:  65    -0.377136949529E+03   -0.10097E-03    0.95890E-04  9828   0.667E-03 0.283E-03
CGA:  66    -0.377136979977E+03   -0.30447E-04   -0.33103E-04  9828   0.149E-03 0.363E-04
CGA:  67    -0.377137027635E+03   -0.47658E-04    0.54856E-04  9828   0.188E-03 0.147E-03
CGA:  68    -0.377137047684E+03   -0.20049E-04   -0.51120E-04  9828   0.207E-02-0.217E-03
CGA:  69    -0.377137127387E+03   -0.79703E-04   -0.84581E-04  9828   0.158E-03 0.700E-04
CGA:  70    -0.377137152069E+03   -0.24683E-04   -0.25321E-04  9828   0.666E-03-0.279E-04
CGA:  71    -0.377137316219E+03   -0.16415E-03    0.27006E-03  9828   0.165E-02 0.401E-03
CGA:  72    -0.377137387245E+03   -0.71026E-04   -0.64762E-04  9828   0.159E-03-0.600E-04
CGA:  73    -0.377137410014E+03   -0.22769E-04   -0.29016E-04  9828   0.987E-03-0.101E-03
CGA:  74    -0.377137445103E+03   -0.35089E-04   -0.37053E-04  9828   0.122E-03 0.155E-04
CGA:  75    -0.377137470282E+03   -0.25179E-04   -0.27017E-04  9828   0.655E-03-0.217E-04
CGA:  76    -0.377137629241E+03   -0.15896E-03    0.27082E-03  9828   0.139E-02 0.410E-03
CGA:  77    -0.377137694813E+03   -0.65572E-04   -0.59909E-04  9828   0.118E-03-0.708E-04
CGA:  78    -0.377137710372E+03   -0.15559E-04   -0.16569E-04  9828   0.496E-03-0.480E-04
CGA:  79    -0.377137792104E+03   -0.81732E-04    0.20883E-03  9828   0.145E-02 0.186E-03
CGA:  80    -0.377138047236E+03   -0.25513E-03   -0.25523E-03  9828   0.296E-02-0.365E-03
CGA:  81    -0.377127739307E+03    0.10308E-01   -0.11260E-02  9828   0.291E+00-0.388E-01
CGA:  82    -0.377138127406E+03   -0.10388E-01   -0.91402E-02  9828   0.762E-02 0.393E-01
CGA:  83    -0.377138420982E+03   -0.29358E-03   -0.29863E-03  9828   0.820E-03 0.382E-03
CGA:  84    -0.377138465908E+03   -0.44926E-04   -0.59549E-04  9828   0.737E-03 0.213E-03
CGA:  85    -0.377138508966E+03   -0.43058E-04   -0.74454E-04  9828   0.683E-03 0.605E-03
CGA:  86    -0.377138525613E+03   -0.16646E-04   -0.32604E-04  9828   0.317E-03 0.194E-03
CGA:  87    -0.377138536824E+03   -0.11212E-04   -0.29279E-04  9828   0.406E-03 0.338E-03
CGA:  88    -0.377138553648E+03   -0.16824E-04   -0.26036E-04  9828   0.307E-03 0.156E-03
CGA:  89    -0.377138566744E+03   -0.13095E-04   -0.31147E-04  9828   0.325E-03 0.386E-03
CGA:  90    -0.377138573828E+03   -0.70849E-05   -0.18118E-04  9828   0.226E-03 0.179E-03
CGA:  91    -0.377138582173E+03   -0.83445E-05   -0.16396E-04  9828   0.215E-03 0.192E-03
CGA:  92    -0.377138586749E+03   -0.45758E-05   -0.13674E-04  9828   0.203E-03 0.186E-03
CGA:  93    -0.377138593453E+03   -0.67046E-05   -0.14001E-04  9828   0.196E-03 0.179E-03
CGA:  94    -0.377138597241E+03   -0.37874E-05   -0.11909E-04  9828   0.186E-03 0.173E-03
CGA:  95    -0.377138602983E+03   -0.57423E-05   -0.12286E-04  9828   0.179E-03 0.167E-03
CGA:  96    -0.377138606213E+03   -0.32303E-05   -0.10497E-04  9828   0.170E-03 0.162E-03
CGA:  97    -0.377138611247E+03   -0.50336E-05   -0.10885E-04  9828   0.164E-03 0.157E-03
  11 F= -.37713861E+03 E0= -.37712990E+03  d E =0.320743E+01  mag=     4.0000
       N       E                     dE             d eps       ncg     rms          ort
SDA:   1    -0.328918434072E+03    0.48220E+02    0.00000E+00  9828   0.244E+03 0.000E+00
CGA:   2    -0.354060584769E+03   -0.25142E+02   -0.33950E+02  9828   0.132E+03-0.417E+02
CGA:   3    -0.368209834563E+03   -0.14149E+02   -0.68115E+01  9828   0.351E+02 0.262E+02
CGA:   4    -0.375820554936E+03   -0.76107E+01   -0.77026E+01  9828   0.185E+02-0.863E+00
CGA:   5    -0.377651760837E+03   -0.18312E+01   -0.16046E+01  9828   0.127E+02-0.485E+01
CGA:   6    -0.378649325736E+03   -0.99756E+00   -0.99490E+00  9828   0.183E+02 0.291E+00
CGA:   7    -0.379131519826E+03   -0.48219E+00   -0.71079E+00  9828   0.263E+01-0.465E+01
CGA:   8    -0.379477420608E+03   -0.34590E+00   -0.34458E+00  9828   0.106E+01 0.157E-01
CGA:   9    -0.379630138381E+03   -0.15272E+00   -0.16352E+00  9828   0.168E+01-0.186E+00
CGA:  10    -0.379748821117E+03   -0.11868E+00   -0.12052E+00  9828   0.668E+00 0.116E-01
CGA:  11    -0.379823057546E+03   -0.74236E-01   -0.73130E-01  9828   0.273E+00 0.107E+00
CGA:  12    -0.379879040679E+03   -0.55983E-01   -0.56524E-01  9828   0.744E-01-0.486E-02
CGA:  13    -0.379899349415E+03   -0.20309E-01   -0.21002E-01  9828   0.470E-01-0.344E-02
CGA:  14    -0.379908673470E+03   -0.93241E-02   -0.10057E-01  9828   0.198E-01-0.640E-02
CGA:  15    -0.379912954577E+03   -0.42811E-02   -0.74316E-02  9828   0.182E-01-0.984E-02
CGA:  16    -0.379915102734E+03   -0.21482E-02   -0.24713E-02  9828   0.111E-01-0.236E-02
CGA:  17    -0.379917514511E+03   -0.24118E-02   -0.25594E-02  9828   0.683E-02-0.119E-02
CGA:  18    -0.379919417910E+03   -0.19034E-02   -0.21064E-02  9828   0.505E-02-0.103E-02
CGA:  19    -0.379920391794E+03   -0.97388E-03   -0.97292E-03  9828   0.257E-02 0.255E-04
CGA:  20    -0.379921163746E+03   -0.77195E-03   -0.75070E-03  9828   0.177E-02 0.165E-03
CGA:  21    -0.379921571700E+03   -0.40795E-03   -0.39624E-03  9828   0.888E-03 0.288E-03
CGA:  22    -0.379921769628E+03   -0.19793E-03   -0.19092E-03  9828   0.629E-03 0.532E-03
CGA:  23    -0.379921895004E+03   -0.12538E-03   -0.12064E-03  9828   0.264E-03 0.245E-03
CGA:  24    -0.379921986411E+03   -0.91408E-04   -0.80910E-04  9828   0.180E-03 0.219E-03
CGA:  25    -0.379922045671E+03   -0.59259E-04   -0.49597E-04  9828   0.143E-03 0.953E-04
CGA:  26    -0.379922075826E+03   -0.30156E-04   -0.28428E-04  9828   0.109E-03 0.962E-04
CGA:  27    -0.379922137053E+03   -0.61227E-04   -0.43510E-04  9828   0.111E-03 0.811E-04
CGA:  28    -0.379922153112E+03   -0.16059E-04   -0.18205E-04  9828   0.830E-04 0.768E-04
CGA:  29    -0.379922225795E+03   -0.72683E-04   -0.47105E-04  9828   0.886E-04 0.671E-04
CGA:  30    -0.379922236354E+03   -0.10559E-04   -0.13829E-04  9828   0.657E-04 0.609E-04
CGA:  31    -0.379922375692E+03   -0.13934E-03   -0.12282E-03  9828   0.157E-03 0.417E-04
CGA:  32    -0.379922381303E+03   -0.56110E-05   -0.18526E-04  9828   0.447E-04 0.508E-04
CGA:  33    -0.379922390833E+03   -0.95296E-05   -0.13859E-04  9828   0.797E-04 0.331E-04
CGA:  34    -0.379922086407E+03    0.30443E-03   -0.11710E-03  9828   0.447E-02-0.375E-03
CGA:  35    -0.379922531276E+03   -0.44487E-03   -0.51379E-03  9828   0.577E-04 0.370E-03
CGA:  36    -0.379922533274E+03   -0.19984E-05   -0.81392E-05  9828   0.301E-04 0.231E-04
CGA:  37    -0.379922557490E+03   -0.24216E-04   -0.21664E-04  9828   0.121E-03 0.195E-04
CGA:  38    -0.379922596238E+03   -0.38748E-04   -0.29043E-04  9828   0.102E-03-0.625E-04
CGA:  39    -0.379922600089E+03   -0.38517E-05   -0.11729E-04  9828   0.238E-04 0.299E-04
  12 F= -.37992260E+03 E0= -.37992260E+03  d E =-.278399E+01  mag=     4.0000
       N       E                     dE             d eps       ncg     rms          ort
SDA:   1    -0.379827741219E+03    0.94855E-01    0.00000E+00  9828   0.672E+00 0.000E+00
CGA:   2    -0.380054026084E+03   -0.22628E+00   -0.22622E+00  9828   0.195E+00-0.237E-02
CGA:   3    -0.380098487768E+03   -0.44462E-01   -0.44651E-01  9828   0.483E-01 0.109E-02
CGA:   4    -0.380107640012E+03   -0.91522E-02   -0.92680E-02  9828   0.971E-02 0.759E-03
CGA:   5    -0.380109924231E+03   -0.22842E-02   -0.22711E-02  9828   0.321E-02-0.109E-03
CGA:   6    -0.380110800369E+03   -0.87614E-03   -0.86536E-03  9828   0.133E-02-0.157E-03
CGA:   7    -0.380111153802E+03   -0.35343E-03   -0.35239E-03  9828   0.516E-03-0.171E-04
CGA:   8    -0.380111324672E+03   -0.17087E-03   -0.17090E-03  9828   0.250E-03-0.525E-04
CGA:   9    -0.380111376978E+03   -0.52306E-04   -0.55122E-04  9828   0.855E-04 0.319E-04
CGA:  10    -0.380111417451E+03   -0.40473E-04   -0.58763E-04  9828   0.183E-03-0.655E-04
CGA:  11    -0.380111455586E+03   -0.38135E-04   -0.40501E-04  9828   0.337E-04 0.192E-04
CGA:  12    -0.380111478652E+03   -0.23067E-04   -0.29589E-04  9828   0.969E-04-0.143E-04
CGA:  13    -0.380111484648E+03   -0.59960E-05   -0.10274E-04  9828   0.105E-03 0.243E-04
CGA:  14    -0.380111508926E+03   -0.24278E-04   -0.30146E-04  9828   0.772E-04 0.481E-04
CGA:  15    -0.380111559112E+03   -0.50186E-04   -0.53639E-04  9828   0.133E-03-0.267E-04
CGA:  16    -0.380111570785E+03   -0.11673E-04   -0.16443E-04  9828   0.165E-03 0.283E-04
CGA:  17    -0.380111594291E+03   -0.23505E-04   -0.36993E-04  9828   0.110E-03 0.827E-04
CGA:  18    -0.380111643326E+03   -0.49035E-04   -0.50744E-04  9828   0.352E-04-0.138E-04
CGA:  19    -0.380111641178E+03    0.21478E-05   -0.28181E-05  9828   0.186E-04 0.198E-04
  13 F= -.38011164E+03 E0= -.38011164E+03  d E =-.189041E+00  mag=     4.0000
       N       E                     dE             d eps       ncg     rms          ort
SDA:   1    -0.376111732936E+03    0.39999E+01    0.00000E+00  9828   0.101E+02 0.000E+00
CGA:   2    -0.379493304025E+03   -0.33816E+01   -0.33815E+01  9828   0.283E+01-0.559E-02
CGA:   3    -0.380181382319E+03   -0.68808E+00   -0.68912E+00  9828   0.680E+00 0.120E-01
CGA:   4    -0.380311550216E+03   -0.13017E+00   -0.13056E+00  9828   0.154E+00 0.269E-02
CGA:   5    -0.380345507438E+03   -0.33957E-01   -0.33969E-01  9828   0.486E-01 0.158E-03
CGA:   6    -0.380358864587E+03   -0.13357E-01   -0.13339E-01  9828   0.192E-01-0.579E-03
CGA:   7    -0.380364438520E+03   -0.55739E-02   -0.55717E-02  9828   0.771E-02-0.225E-03
CGA:   8    -0.380366656582E+03   -0.22181E-02   -0.22221E-02  9828   0.264E-02 0.329E-03
CGA:   9    -0.380367524884E+03   -0.86830E-03   -0.86808E-03  9828   0.106E-02 0.189E-04
CGA:  10    -0.380367880810E+03   -0.35593E-03   -0.35518E-03  9828   0.564E-03 0.239E-04
CGA:  11    -0.380368172764E+03   -0.29195E-03   -0.30864E-03  9828   0.729E-03-0.765E-04
CGA:  12    -0.380368461512E+03   -0.28875E-03   -0.27743E-03  9828   0.704E-03 0.790E-04
CGA:  13    -0.380368836398E+03   -0.37489E-03   -0.36066E-03  9828   0.547E-03 0.806E-04
CGA:  14    -0.380369163871E+03   -0.32747E-03   -0.32552E-03  9828   0.434E-03-0.123E-04
CGA:  15    -0.380369348904E+03   -0.18503E-03   -0.18124E-03  9828   0.286E-03 0.297E-04
CGA:  16    -0.380369503820E+03   -0.15492E-03   -0.17561E-03  9828   0.417E-03-0.984E-04
CGA:  17    -0.380369577710E+03   -0.73890E-04   -0.74938E-04  9828   0.304E-03 0.540E-05
CGA:  18    -0.380369679028E+03   -0.10132E-03   -0.10150E-03  9828   0.261E-03 0.119E-05
CGA:  19    -0.380369771941E+03   -0.92913E-04   -0.93347E-04  9828   0.256E-03-0.954E-04
CGA:  20    -0.380369821426E+03   -0.49485E-04   -0.49410E-04  9828   0.201E-03-0.740E-05
CGA:  21    -0.380369855501E+03   -0.34075E-04   -0.38977E-04  9828   0.115E-03 0.300E-04
CGA:  22    -0.380369899091E+03   -0.43590E-04   -0.43531E-04  9828   0.808E-04-0.776E-05
CGA:  23    -0.380369907167E+03   -0.80768E-05   -0.53865E-04  9828   0.374E-03-0.127E-03
CGA:  24    -0.380369953210E+03   -0.46043E-04   -0.59167E-04  9828   0.717E-04 0.678E-04
CGA:  25    -0.380369980589E+03   -0.27378E-04   -0.27636E-04  9828   0.262E-04 0.112E-04
CGA:  26    -0.380369975259E+03    0.53294E-05   -0.23994E-04  9828   0.292E-03-0.658E-04
CGA:  27    -0.380369999816E+03   -0.24557E-04   -0.36493E-04  9828   0.232E-04 0.511E-04
CGA:  28    -0.380370002771E+03   -0.29552E-05   -0.47264E-05  9828   0.131E-04 0.964E-05
CGA:  29    -0.380370007662E+03   -0.48902E-05   -0.13234E-04  9828   0.356E-04-0.228E-04
CGA:  30    -0.380370017963E+03   -0.10301E-04   -0.10909E-04  9828   0.546E-05 0.101E-04
CGA:  31    -0.380370015830E+03    0.21332E-05   -0.80510E-05  9828   0.473E-04-0.130E-04
  14 F= -.38037002E+03 E0= -.38037002E+03  d E =-.258375E+00  mag=     4.0000
       N       E                     dE             d eps       ncg     rms          ort
SDA:   1    -0.380238561908E+03    0.13146E+00    0.00000E+00  9828   0.387E+00 0.000E+00
CGA:   2    -0.380371329996E+03   -0.13277E+00   -0.13274E+00  9828   0.126E+00-0.467E-03
CGA:   3    -0.380398023299E+03   -0.26693E-01   -0.26700E-01  9828   0.302E-01-0.193E-06
CGA:   4    -0.380403915864E+03   -0.58926E-02   -0.58437E-02  9828   0.611E-02-0.262E-03
CGA:   5    -0.380405256330E+03   -0.13405E-02   -0.13350E-02  9828   0.186E-02-0.358E-04
CGA:   6    -0.380405709487E+03   -0.45316E-03   -0.45784E-03  9828   0.637E-03 0.406E-04
CGA:   7    -0.380405897589E+03   -0.18810E-03   -0.18678E-03  9828   0.260E-03-0.188E-04
CGA:   8    -0.380405976708E+03   -0.79120E-04   -0.78841E-04  9828   0.976E-04-0.674E-05
CGA:   9    -0.380406012875E+03   -0.36166E-04   -0.37331E-04  9828   0.577E-04-0.281E-04
CGA:  10    -0.380406022825E+03   -0.99497E-05   -0.10289E-04  9828   0.206E-04 0.329E-05
  15 F= -.38040602E+03 E0= -.38040602E+03  d E =-.360070E-01  mag=     4.0000
       N       E                     dE             d eps       ncg     rms          ort
SDA:   1    -0.380103081830E+03    0.30293E+00    0.00000E+00  9828   0.791E+00 0.000E+00
CGA:   2    -0.380346544842E+03   -0.24346E+00   -0.24335E+00  9828   0.283E+00-0.311E-02
CGA:   3    -0.380406969715E+03   -0.60425E-01   -0.60592E-01  9828   0.615E-01 0.129E-02
CGA:   4    -0.380418183200E+03   -0.11213E-01   -0.11286E-01  9828   0.124E-01 0.492E-03
CGA:   5    -0.380420805929E+03   -0.26227E-02   -0.26207E-02  9828   0.323E-02-0.152E-04
CGA:   6    -0.380421651253E+03   -0.84532E-03   -0.84050E-03  9828   0.112E-02-0.775E-04
CGA:   7    -0.380421970395E+03   -0.31914E-03   -0.31838E-03  9828   0.452E-03-0.264E-04
CGA:   8    -0.380422107899E+03   -0.13750E-03   -0.13763E-03  9828   0.171E-03 0.200E-04
CGA:   9    -0.380422167553E+03   -0.59654E-04   -0.59664E-04  9828   0.640E-04-0.655E-06
CGA:  10    -0.380422189320E+03   -0.21767E-04   -0.21797E-04  9828   0.250E-04-0.130E-05
CGA:  11    -0.380422200312E+03   -0.10992E-04   -0.12671E-04  9828   0.258E-04-0.853E-05
CGA:  12    -0.380422149431E+03    0.50881E-04   -0.26251E-04  9828   0.348E-03-0.637E-04
CGA:  13    -0.380422205649E+03   -0.56218E-04   -0.58205E-04  9828   0.611E-04 0.103E-04
CGA:  14    -0.380422221830E+03   -0.16181E-04   -0.17052E-04  9828   0.163E-04 0.815E-05
CGA:  15    -0.380422229499E+03   -0.76685E-05   -0.75749E-05  9828   0.881E-05 0.265E-05
  16 F= -.38042223E+03 E0= -.38042223E+03  d E =-.162067E-01  mag=     4.0000
       N       E                     dE             d eps       ncg     rms          ort
SDA:   1    -0.379821991002E+03    0.60023E+00    0.00000E+00  9828   0.154E+01 0.000E+00
CGA:   2    -0.380294322256E+03   -0.47233E+00   -0.47210E+00  9828   0.537E+00-0.295E-02
CGA:   3    -0.380408690987E+03   -0.11437E+00   -0.11456E+00  9828   0.108E+00 0.964E-03
CGA:   4    -0.380428659189E+03   -0.19968E-01   -0.20075E-01  9828   0.218E-01 0.533E-03
CGA:   5    -0.380433299375E+03   -0.46402E-02   -0.46191E-02  9828   0.563E-02-0.134E-03
CGA:   6    -0.380434687462E+03   -0.13881E-02   -0.13753E-02  9828   0.182E-02-0.119E-03
CGA:   7    -0.380435171410E+03   -0.48395E-03   -0.48762E-03  9828   0.684E-03 0.503E-04
CGA:   8    -0.380435417410E+03   -0.24600E-03   -0.24600E-03  9828   0.330E-03-0.657E-06
CGA:   9    -0.380435529083E+03   -0.11167E-03   -0.11165E-03  9828   0.136E-03-0.426E-05
CGA:  10    -0.380435574409E+03   -0.45326E-04   -0.45296E-04  9828   0.610E-04-0.574E-05
CGA:  11    -0.380435594302E+03   -0.19892E-04   -0.19905E-04  9828   0.361E-04 0.445E-05
CGA:  12    -0.380435613310E+03   -0.19009E-04   -0.20301E-04  9828   0.487E-04-0.727E-05
CGA:  13    -0.380435631011E+03   -0.17701E-04   -0.19336E-04  9828   0.533E-04-0.116E-04
CGA:  14    -0.380435645625E+03   -0.14614E-04   -0.14614E-04  9828   0.338E-04-0.647E-06
CGA:  15    -0.380435657623E+03   -0.11998E-04   -0.11998E-04  9828   0.244E-04 0.672E-05
CGA:  16    -0.380435670154E+03   -0.12531E-04   -0.12248E-04  9828   0.256E-04 0.440E-05
CGA:  17    -0.380435681054E+03   -0.10900E-04   -0.10909E-04  9828   0.182E-04 0.604E-05
CGA:  18    -0.380435687016E+03   -0.59612E-05   -0.65937E-05  9828   0.922E-05 0.893E-05
  17 F= -.38043569E+03 E0= -.38043569E+03  d E =-.134575E-01  mag=     4.0000
       N       E                     dE             d eps       ncg     rms          ort
SDA:   1    -0.379435035918E+03    0.10006E+01    0.00000E+00  9828   0.237E+01 0.000E+00
CGA:   2    -0.380248305852E+03   -0.81327E+00   -0.81324E+00  9828   0.801E+00-0.207E-02
CGA:   3    -0.380404917043E+03   -0.15661E+00   -0.15678E+00  9828   0.149E+00 0.881E-03
CGA:   4    -0.380432340898E+03   -0.27424E-01   -0.27471E-01  9828   0.312E-01 0.336E-03
CGA:   5    -0.380438954933E+03   -0.66140E-02   -0.66003E-02  9828   0.788E-02-0.105E-03
CGA:   6    -0.380440839010E+03   -0.18841E-02   -0.18727E-02  9828   0.218E-02-0.121E-03
CGA:   7    -0.380441441430E+03   -0.60242E-03   -0.60157E-03  9828   0.832E-03-0.172E-04
CGA:   8    -0.380441715842E+03   -0.27441E-03   -0.27432E-03  9828   0.359E-03 0.147E-04
CGA:   9    -0.380441847007E+03   -0.13116E-03   -0.13169E-03  9828   0.159E-03-0.160E-04
CGA:  10    -0.380441905700E+03   -0.58692E-04   -0.59206E-04  9828   0.876E-04-0.918E-05
CGA:  11    -0.380441953333E+03   -0.47633E-04   -0.60310E-04  9828   0.168E-03-0.334E-04
CGA:  12    -0.380441963790E+03   -0.10457E-04   -0.12333E-03  9828   0.682E-03-0.150E-03
CGA:  13    -0.380442135759E+03   -0.17197E-03   -0.17661E-03  9828   0.218E-03 0.357E-04
CGA:  14    -0.380442187586E+03   -0.51827E-04   -0.55652E-04  9828   0.694E-04 0.272E-04
CGA:  15    -0.380442214539E+03   -0.26953E-04   -0.27377E-04  9828   0.294E-04 0.148E-04
CGA:  16    -0.380442231715E+03   -0.17175E-04   -0.16704E-04  9828   0.266E-04 0.501E-05
CGA:  17    -0.380442238830E+03   -0.71151E-05   -0.82933E-05  9828   0.149E-04 0.100E-04
CGA:  18    -0.380442250839E+03   -0.12010E-04   -0.11349E-04  9828   0.178E-04 0.335E-05
CGA:  19    -0.380442102315E+03    0.14852E-03   -0.79682E-04  9828   0.106E-02-0.983E-04
CGA:  20    -0.380442255781E+03   -0.15347E-03   -0.16389E-03  9828   0.112E-03 0.289E-04
CGA:  21    -0.380442313172E+03   -0.57390E-04   -0.56432E-04  9828   0.568E-04-0.525E-05
CGA:  22    -0.380442337208E+03   -0.24036E-04   -0.21012E-04  9828   0.420E-04-0.109E-04
CGA:  23    -0.380442354997E+03   -0.17789E-04   -0.15356E-04  9828   0.346E-04-0.122E-04
CGA:  24    -0.380442366494E+03   -0.11497E-04   -0.89039E-05  9828   0.199E-04-0.926E-05
CGA:  25    -0.380442372816E+03   -0.63223E-05   -0.57245E-05  9828   0.676E-05-0.257E-05
  18 F= -.38044237E+03 E0= -.38044237E+03  d E =-.668580E-02  mag=     4.0000
       N       E                     dE             d eps       ncg     rms          ort
SDA:   1    -0.355542863403E+03    0.24900E+02    0.00000E+00  9828   0.588E+02 0.000E+00
CGA:   2    -0.375471269308E+03   -0.19928E+02   -0.19363E+02  9828   0.185E+02 0.214E+01
CGA:   3    -0.379269117345E+03   -0.37978E+01   -0.37795E+01  9828   0.373E+01 0.335E+00
CGA:   4    -0.379963384377E+03   -0.69427E+00   -0.56506E+00  9828   0.673E+00 0.892E+00
CGA:   5    -0.380163378904E+03   -0.19999E+00   -0.20098E+00  9828   0.292E+00 0.277E-02
CGA:   6    -0.380226996629E+03   -0.63618E-01   -0.63295E-01  9828   0.102E+00-0.187E-02
CGA:   7    -0.380250963778E+03   -0.23967E-01   -0.23797E-01  9828   0.424E-01 0.796E-04
CGA:   8    -0.380262908891E+03   -0.11945E-01   -0.11892E-01  9828   0.193E-01-0.319E-03
CGA:   9    -0.380268269305E+03   -0.53604E-02   -0.53201E-02  9828   0.871E-02-0.192E-03
CGA:  10    -0.380270140841E+03   -0.18715E-02   -0.19298E-02  9828   0.298E-02 0.283E-03
CGA:  11    -0.380271031333E+03   -0.89049E-03   -0.85193E-03  9828   0.108E-02-0.195E-03
CGA:  12    -0.380271373706E+03   -0.34237E-03   -0.34333E-03  9828   0.679E-03 0.977E-05
CGA:  13    -0.380271589495E+03   -0.21579E-03   -0.22373E-03  9828   0.522E-03 0.637E-04
CGA:  14    -0.380271843766E+03   -0.25427E-03   -0.25415E-03  9828   0.425E-03-0.176E-04
CGA:  15    -0.380271937270E+03   -0.93504E-04   -0.11572E-03  9828   0.243E-03 0.134E-03
CGA:  16    -0.380272016171E+03   -0.78901E-04   -0.91246E-04  9828   0.130E-03 0.791E-04
CGA:  17    -0.380272060732E+03   -0.44561E-04   -0.52196E-04  9828   0.895E-04 0.583E-04
CGA:  18    -0.380272088774E+03   -0.28041E-04   -0.36308E-04  9828   0.552E-04 0.557E-04
CGA:  19    -0.380271644153E+03    0.44462E-03   -0.23928E-03  9828   0.287E-02-0.264E-03
CGA:  20    -0.380271990813E+03   -0.34666E-03   -0.44604E-03  9828   0.538E-03 0.266E-03
CGA:  21    -0.380272173527E+03   -0.18271E-03   -0.16248E-03  9828   0.783E-04-0.432E-04
CGA:  22    -0.380272177391E+03   -0.38637E-05   -0.14017E-04  9828   0.185E-04 0.197E-04
  19 F= -.38027218E+03 E0= -.38027218E+03  d E =0.170195E+00  mag=     4.0000
       N       E                     dE             d eps       ncg     rms          ort
SDA:   1    -0.375049725937E+03    0.52224E+01    0.00000E+00  9828   0.128E+02 0.000E+00
CGA:   2    -0.379350869923E+03   -0.43011E+01   -0.43120E+01  9828   0.443E+01 0.361E-02
CGA:   3    -0.380221671723E+03   -0.87080E+00   -0.87050E+00  9828   0.866E+00 0.103E-01
CGA:   4    -0.380389309156E+03   -0.16764E+00   -0.16725E+00  9828   0.167E+00 0.240E-02
CGA:   5    -0.380426137506E+03   -0.36828E-01   -0.36976E-01  9828   0.475E-01 0.424E-03
CGA:   6    -0.380437415209E+03   -0.11278E-01   -0.11281E-01  9828   0.153E-01-0.141E-04
CGA:   7    -0.380441874069E+03   -0.44589E-02   -0.43915E-02  9828   0.631E-02-0.241E-03
CGA:   8    -0.380444024052E+03   -0.21500E-02   -0.21017E-02  9828   0.288E-02-0.225E-03
CGA:   9    -0.380444889414E+03   -0.86536E-03   -0.84841E-03  9828   0.100E-02-0.689E-04
CGA:  10    -0.380445213104E+03   -0.32369E-03   -0.31328E-03  9828   0.365E-03-0.494E-04
CGA:  11    -0.380445338315E+03   -0.12521E-03   -0.12287E-03  9828   0.199E-03-0.141E-04
CGA:  12    -0.380445425366E+03   -0.87050E-04   -0.84706E-04  9828   0.180E-03-0.340E-04
CGA:  13    -0.380445479051E+03   -0.53686E-04   -0.53526E-04  9828   0.102E-03-0.169E-05
CGA:  14    -0.380445504223E+03   -0.25171E-04   -0.30375E-04  9828   0.416E-04 0.253E-04
CGA:  15    -0.380445508797E+03   -0.45745E-05   -0.11728E-04  9828   0.237E-04 0.267E-04
  20 F= -.38044551E+03 E0= -.38044551E+03  d E =-.173331E+00  mag=     4.0000
       N       E                     dE             d eps       ncg     rms          ort
SDA:   1    -0.378206929701E+03    0.22386E+01    0.00000E+00  9828   0.562E+01 0.000E+00
CGA:   2    -0.379979327727E+03   -0.17724E+01   -0.17732E+01  9828   0.201E+01 0.993E-03
CGA:   3    -0.380382872777E+03   -0.40355E+00   -0.40358E+00  9828   0.425E+00-0.848E-03
CGA:   4    -0.380462777908E+03   -0.79905E-01   -0.79909E-01  9828   0.888E-01 0.158E-03
CGA:   5    -0.380480843385E+03   -0.18065E-01   -0.18105E-01  9828   0.221E-01 0.184E-03
CGA:   6    -0.380486322938E+03   -0.54796E-02   -0.54548E-02  9828   0.668E-02-0.141E-03
CGA:   7    -0.380488251884E+03   -0.19289E-02   -0.19028E-02  9828   0.251E-02-0.206E-03
CGA:   8    -0.380489068930E+03   -0.81705E-03   -0.81015E-03  9828   0.101E-02-0.934E-04
CGA:   9    -0.380489384233E+03   -0.31530E-03   -0.31139E-03  9828   0.312E-03-0.471E-04
CGA:  10    -0.380489490114E+03   -0.10588E-03   -0.10371E-03  9828   0.112E-03-0.432E-04
CGA:  11    -0.380489521541E+03   -0.31426E-04   -0.31514E-04  9828   0.426E-04 0.119E-05
CGA:  12    -0.380489531740E+03   -0.10200E-04   -0.11910E-04  9828   0.215E-04 0.146E-04
CGA:  13    -0.380489536724E+03   -0.49838E-05   -0.71322E-05  9828   0.132E-04 0.152E-04
  21 F= -.38048954E+03 E0= -.38048954E+03  d E =-.440279E-01  mag=     4.0000
       N       E                     dE             d eps       ncg     rms          ort
SDA:   1    -0.379683172616E+03    0.80636E+00    0.00000E+00  9828   0.190E+01 0.000E+00
CGA:   2    -0.380364412783E+03   -0.68124E+00   -0.68125E+00  9828   0.535E+00 0.478E-03
CGA:   3    -0.380477392249E+03   -0.11298E+00   -0.11277E+00  9828   0.947E-01-0.128E-02
CGA:   4    -0.380495342871E+03   -0.17951E-01   -0.18030E-01  9828   0.210E-01 0.477E-03
CGA:   5    -0.380499772302E+03   -0.44294E-02   -0.44760E-02  9828   0.516E-02 0.315E-03
CGA:   6    -0.380501048934E+03   -0.12766E-02   -0.12758E-02  9828   0.162E-02-0.701E-05
CGA:   7    -0.380501519167E+03   -0.47023E-03   -0.46898E-03  9828   0.716E-03-0.206E-04
CGA:   8    -0.380501736420E+03   -0.21725E-03   -0.21878E-03  9828   0.282E-03 0.429E-04
CGA:   9    -0.380501813324E+03   -0.76904E-04   -0.80937E-04  9828   0.858E-04 0.556E-04
CGA:  10    -0.380501839625E+03   -0.26301E-04   -0.27815E-04  9828   0.285E-04 0.218E-04
CGA:  11    -0.380501853622E+03   -0.13997E-04   -0.13933E-04  9828   0.179E-04 0.114E-05
CGA:  12    -0.380501857932E+03   -0.43107E-05   -0.48553E-05  9828   0.935E-05 0.691E-05
  22 F= -.38050186E+03 E0= -.38050186E+03  d E =-.123212E-01  mag=     4.0000
       N       E                     dE             d eps       ncg     rms          ort
SDA:   1    -0.357880052554E+03    0.22622E+02    0.00000E+00  9828   0.529E+02 0.000E+00
CGA:   2    -0.376601450114E+03   -0.18721E+02   -0.18723E+02  9828   0.155E+02-0.280E-01
CGA:   3    -0.379708080526E+03   -0.31066E+01   -0.31070E+01  9828   0.278E+01-0.437E-02
CGA:   4    -0.380255480803E+03   -0.54740E+00   -0.54788E+00  9828   0.636E+00 0.686E-02
CGA:   5    -0.380391563089E+03   -0.13608E+00   -0.13633E+00  9828   0.173E+00 0.244E-02
CGA:   6    -0.380433771086E+03   -0.42208E-01   -0.42133E-01  9828   0.544E-01-0.111E-02
CGA:   7    -0.380450314870E+03   -0.16544E-01   -0.16542E-01  9828   0.236E-01-0.111E-02
CGA:   8    -0.380457987195E+03   -0.76723E-02   -0.76852E-02  9828   0.954E-02-0.509E-03
CGA:   9    -0.380460848162E+03   -0.28610E-02   -0.28603E-02  9828   0.300E-02-0.244E-03
CGA:  10    -0.380461726297E+03   -0.87814E-03   -0.87705E-03  9828   0.922E-03-0.117E-03
CGA:  11    -0.380462063358E+03   -0.33706E-03   -0.35943E-03  9828   0.632E-03-0.230E-03
CGA:  12    -0.380462222042E+03   -0.15868E-03   -0.16015E-03  9828   0.375E-03-0.593E-04
CGA:  13    -0.380462361699E+03   -0.13966E-03   -0.15308E-03  9828   0.288E-03-0.993E-04
CGA:  14    -0.380462417542E+03   -0.55842E-04   -0.57784E-04  9828   0.116E-03 0.396E-04
CGA:  15    -0.380462444635E+03   -0.27094E-04   -0.30386E-04  9828   0.491E-04 0.372E-04
CGA:  16    -0.380462458518E+03   -0.13883E-04   -0.15476E-04  9828   0.275E-04 0.207E-04
CGA:  17    -0.380462462597E+03   -0.40794E-05   -0.72363E-05  9828   0.206E-04 0.249E-04
  23 F= -.38046246E+03 E0= -.38046246E+03  d E =0.393953E-01  mag=     4.0000
       N       E                     dE             d eps       ncg     rms          ort
SDA:   1    -0.329299597427E+03    0.51163E+02    0.00000E+00  9828   0.121E+03 0.000E+00
CGA:   2    -0.361298545098E+03   -0.31999E+02   -0.29650E+02  9828   0.105E+03-0.152E+02
CGA:   3    -0.370894559341E+03   -0.95960E+01   -0.12835E+02  9828   0.223E+02-0.301E+01
CGA:   4    -0.374425452023E+03   -0.35309E+01   -0.23612E+01  9828   0.584E+01 0.956E+01
CGA:   5    -0.375208599148E+03   -0.78315E+00   -0.69136E+00  9828   0.139E+02 0.201E+00
CGA:   6    -0.375823395063E+03   -0.61480E+00   -0.61312E+00  9828   0.779E+01 0.588E+00
CGA:   7    -0.375810769896E+03    0.12625E-01   -0.38592E+00  9828   0.412E+01-0.572E+01
CGA:   8    -0.376049322940E+03   -0.23855E+00   -0.16355E+00  9828   0.153E+01 0.162E+01
CGA:   9    -0.376267781642E+03   -0.21846E+00   -0.20874E+00  9828   0.344E+01 0.863E-01
CGA:  10    -0.376389033767E+03   -0.12125E+00   -0.14168E+00  9828   0.702E+00-0.515E+00
CGA:  11    -0.376401182290E+03   -0.12149E-01   -0.32816E-01  9828   0.613E+00-0.337E+00
CGA:  12    -0.376452712754E+03   -0.51530E-01   -0.51472E-01  9828   0.770E+00-0.989E-03
CGA:  13    -0.376483704848E+03   -0.30992E-01   -0.22398E-01  9828   0.239E+00 0.339E+00
CGA:  14    -0.376496654463E+03   -0.12950E-01   -0.11360E-01  9828   0.184E+00 0.882E-01
CGA:  15    -0.376517824908E+03   -0.21170E-01   -0.22005E-01  9828   0.459E+00 0.136E-01
CGA:  16    -0.376532843659E+03   -0.15019E-01   -0.16104E-01  9828   0.212E+00-0.174E-01
CGA:  17    -0.376537814396E+03   -0.49707E-02   -0.58386E-02  9828   0.781E-01-0.506E-01
CGA:  18    -0.376540808884E+03   -0.29945E-02   -0.27366E-02  9828   0.831E-01-0.550E-02
CGA:  19    -0.376544418068E+03   -0.36092E-02   -0.35039E-02  9828   0.524E-01 0.393E-02
CGA:  20    -0.376546222471E+03   -0.18044E-02   -0.18973E-02  9828   0.424E-01 0.941E-02
CGA:  21    -0.376549123891E+03   -0.29014E-02   -0.32041E-02  9828   0.699E-01 0.467E-02
CGA:  22    -0.376552092323E+03   -0.29684E-02   -0.30060E-02  9828   0.334E-01 0.139E-02
CGA:  23    -0.376553370852E+03   -0.12785E-02   -0.12035E-02  9828   0.208E-01-0.370E-02
CGA:  24    -0.376554340456E+03   -0.96960E-03   -0.95324E-03  9828   0.225E-01 0.667E-04
CGA:  25    -0.376554909901E+03   -0.56944E-03   -0.75178E-03  9828   0.115E-01 0.271E-02
CGA:  26    -0.376555152618E+03   -0.24272E-03   -0.41854E-03  9828   0.101E-01 0.256E-02
CGA:  27    -0.376555673074E+03   -0.52046E-03   -0.67037E-03  9828   0.156E-01 0.241E-02
CGA:  28    -0.376556408321E+03   -0.73525E-03   -0.78143E-03  9828   0.603E-02 0.592E-03
CGA:  29    -0.376556671450E+03   -0.26313E-03   -0.21963E-03  9828   0.386E-02-0.647E-03
CGA:  30    -0.376556883169E+03   -0.21172E-03   -0.24612E-03  9828   0.749E-02 0.852E-03
CGA:  31    -0.376557083940E+03   -0.20077E-03   -0.41738E-03  9828   0.252E-02 0.340E-02
CGA:  32    -0.376557086379E+03   -0.24387E-05   -0.11063E-03  9828   0.121E-02 0.147E-02
CGA:  33    -0.376557343004E+03   -0.25662E-03    0.23423E-02  9828   0.896E-03 0.785E-03
CGA:  34    -0.376557354582E+03   -0.11579E-04   -0.41995E-04  9828   0.614E-03 0.543E-03
CGA:  35    -0.376557480685E+03   -0.12610E-03    0.13186E-02  9828   0.613E-03 0.406E-03
CGA:  36    -0.376557475931E+03    0.47539E-05   -0.21164E-04  9828   0.385E-03 0.396E-03
CGA:  37    -0.376557585180E+03   -0.10925E-03   -0.77200E-04  9828   0.291E-03 0.312E-03
CGA:  38    -0.376557584754E+03    0.42521E-06   -0.13529E-04  9828   0.256E-03 0.251E-03
CGA:  39    -0.376557674325E+03   -0.89571E-04   -0.62283E-04  9828   0.392E-03 0.192E-03
CGA:  40    -0.376557662453E+03    0.11872E-04   -0.90670E-05  9828   0.211E-03 0.252E-03
CGA:  41    -0.376557659269E+03    0.31838E-05   -0.85492E-05  9828   0.192E-03 0.189E-03
CGA:  42    -0.376557687951E+03   -0.28681E-04   -0.24065E-04  9828   0.185E-03 0.180E-03
CGA:  43    -0.376557685861E+03    0.20891E-05   -0.78772E-05  9828   0.174E-03 0.172E-03
CGA:  44    -0.376557708983E+03   -0.23121E-04   -0.20183E-04  9828   0.169E-03 0.165E-03
CGA:  45    -0.376557707251E+03    0.17315E-05   -0.71866E-05  9828   0.162E-03 0.159E-03
CGA:  46    -0.376557725738E+03   -0.18486E-04   -0.17028E-04  9828   0.157E-03 0.154E-03
CGA:  47    -0.376557725031E+03    0.70643E-06   -0.70070E-05  9828   0.152E-03 0.149E-03
CGA:  48    -0.376557741061E+03   -0.16030E-04   -0.15161E-04  9828   0.148E-03 0.145E-03
CGA:  49    -0.376557740582E+03    0.47905E-06   -0.65540E-05  9828   0.144E-03 0.142E-03
CGA:  50    -0.376557753972E+03   -0.13390E-04   -0.13281E-04  9828   0.139E-03 0.138E-03
CGA:  51    -0.376557754156E+03   -0.18379E-06   -0.63757E-05  9828   0.136E-03 0.135E-03
CGA:  52    -0.376557765506E+03   -0.11350E-04   -0.11765E-04  9828   0.132E-03 0.132E-03
CGA:  53    -0.376557766111E+03   -0.60508E-06   -0.61259E-05  9828   0.130E-03 0.129E-03
CGA:  54    -0.376557775571E+03   -0.94594E-05   -0.10366E-04  9828   0.126E-03 0.126E-03
  24 F= -.37655778E+03 E0= -.37655412E+03  d E =0.390469E+01  mag=     4.0000
       N       E                     dE             d eps       ncg     rms          ort
SDA:   1    -0.368469082138E+03    0.80887E+01    0.00000E+00  9828   0.271E+02 0.000E+00
CGA:   2    -0.376969093790E+03   -0.85000E+01   -0.84866E+01  9828   0.919E+01 0.769E-01
CGA:   3    -0.378408505418E+03   -0.14394E+01   -0.15351E+01  9828   0.101E+02-0.130E+01
CGA:   4    -0.378979413594E+03   -0.57091E+00   -0.62423E+00  9828   0.202E+01 0.238E+00
CGA:   5    -0.379213814576E+03   -0.23440E+00   -0.23087E+00  9828   0.734E+00 0.146E+00
CGA:   6    -0.379304430371E+03   -0.90616E-01   -0.92685E-01  9828   0.470E+00-0.606E-01
CGA:   7    -0.379353160228E+03   -0.48730E-01   -0.48594E-01  9828   0.150E+00 0.321E-02
CGA:   8    -0.379378813652E+03   -0.25653E-01   -0.26175E-01  9828   0.124E+00-0.754E-02
CGA:   9    -0.379392326831E+03   -0.13513E-01   -0.13502E-01  9828   0.343E-01 0.367E-02
CGA:  10    -0.379399703052E+03   -0.73762E-02   -0.74922E-02  9828   0.390E-01-0.101E-02
CGA:  11    -0.379404631832E+03   -0.49288E-02   -0.52723E-02  9828   0.177E-01-0.124E-01
CGA:  12    -0.379405380771E+03   -0.74894E-03   -0.57462E-02  9828   0.210E-01-0.136E-01
CGA:  13    -0.379410067247E+03   -0.46865E-02   -0.50668E-02  9828   0.915E-02-0.331E-02
CGA:  14    -0.379411176803E+03   -0.11096E-02   -0.10989E-02  9828   0.239E-02 0.152E-02
CGA:  15    -0.379411715127E+03   -0.53832E-03   -0.84183E-03  9828   0.426E-02-0.178E-02
CGA:  16    -0.379412245646E+03   -0.53052E-03   -0.53158E-03  9828   0.361E-03 0.109E-03
CGA:  17    -0.379412434012E+03   -0.18837E-03    0.34180E-04  9828   0.230E-03 0.210E-03
CGA:  18    -0.379412426500E+03    0.75119E-05   -0.37839E-04  9828   0.286E-02-0.298E-03
CGA:  19    -0.379413010654E+03   -0.58415E-03   -0.42910E-03  9828   0.109E-02-0.143E-02
CGA:  20    -0.379413017905E+03   -0.72511E-05   -0.46374E-04  9828   0.389E-03 0.238E-03
CGA:  21    -0.379413003773E+03    0.14132E-04   -0.22680E-04  9828   0.105E-03 0.191E-03
CGA:  22    -0.379413000258E+03    0.35149E-05   -0.81390E-05  9828   0.489E-04 0.637E-04
  25 F= -.37941300E+03 E0= -.37941292E+03  d E =-.285522E+01  mag=     4.0000
       N       E                     dE             d eps       ncg     rms          ort
SDA:   1    -0.376400213201E+03    0.30128E+01    0.00000E+00  9828   0.938E+01 0.000E+00
CGA:   2    -0.379379762221E+03   -0.29795E+01   -0.29688E+01  9828   0.329E+01 0.842E-01
CGA:   3    -0.380028089685E+03   -0.64833E+00   -0.64775E+00  9828   0.886E+00-0.534E-02
CGA:   4    -0.380202246436E+03   -0.17416E+00   -0.17472E+00  9828   0.161E+00 0.706E-03
CGA:   5    -0.380238557792E+03   -0.36311E-01   -0.36307E-01  9828   0.486E-01-0.120E-02
CGA:   6    -0.380250836426E+03   -0.12279E-01   -0.12291E-01  9828   0.180E-01-0.464E-03
CGA:   7    -0.380256038125E+03   -0.52017E-02   -0.53242E-02  9828   0.795E-02-0.175E-02
CGA:   8    -0.380258414580E+03   -0.23765E-02   -0.25516E-02  9828   0.393E-02-0.143E-02
CGA:   9    -0.380259414143E+03   -0.99956E-03   -0.11958E-02  9828   0.263E-02-0.147E-02
CGA:  10    -0.380259887587E+03   -0.47344E-03   -0.55586E-03  9828   0.154E-02-0.889E-03
CGA:  11    -0.380259436480E+03    0.45111E-03   -0.93217E-03  9828   0.721E-02-0.206E-02
CGA:  12    -0.380260701610E+03   -0.12651E-02   -0.12964E-02  9828   0.109E-02 0.317E-03
CGA:  13    -0.380260971310E+03   -0.26970E-03   -0.27450E-03  9828   0.295E-03 0.132E-03
CGA:  14    -0.380261059167E+03   -0.87857E-04   -0.88966E-04  9828   0.120E-03 0.133E-03
CGA:  15    -0.380261089029E+03   -0.29862E-04   -0.36249E-04  9828   0.676E-04 0.937E-04
CGA:  16    -0.380261102219E+03   -0.13189E-04   -0.15211E-04  9828   0.437E-04 0.420E-04
CGA:  17    -0.380261107656E+03   -0.54369E-05   -0.82933E-05  9828   0.354E-04 0.354E-04
  26 F= -.38026111E+03 E0= -.38026111E+03  d E =-.848107E+00  mag=     4.0000
       N       E                     dE             d eps       ncg     rms          ort
SDA:   1    -0.379019675720E+03    0.12414E+01    0.00000E+00  9828   0.349E+01 0.000E+00
CGA:   2    -0.380114374602E+03   -0.10947E+01   -0.10950E+01  9828   0.134E+01-0.548E-02
CGA:   3    -0.380382074336E+03   -0.26770E+00   -0.26779E+00  9828   0.316E+00 0.131E-02
CGA:   4    -0.380445694002E+03   -0.63620E-01   -0.63683E-01  9828   0.624E-01 0.172E-02
CGA:   5    -0.380458554722E+03   -0.12861E-01   -0.12867E-01  9828   0.184E-01 0.123E-03
CGA:   6    -0.380463362413E+03   -0.48077E-02   -0.48084E-02  9828   0.669E-02-0.449E-03
CGA:   7    -0.380465218674E+03   -0.18563E-02   -0.18622E-02  9828   0.248E-02-0.221E-03
CGA:   8    -0.380465976847E+03   -0.75817E-03   -0.76152E-03  9828   0.929E-03-0.596E-04
CGA:   9    -0.380466259384E+03   -0.28254E-03   -0.28496E-03  9828   0.342E-03-0.472E-04
CGA:  10    -0.380466375973E+03   -0.11659E-03   -0.15818E-03  9828   0.393E-03-0.188E-03
CGA:  11    -0.380466464474E+03   -0.88501E-04   -0.86679E-04  9828   0.114E-03-0.315E-04
CGA:  12    -0.380466482150E+03   -0.17677E-04   -0.88656E-04  9828   0.589E-03-0.124E-03
CGA:  13    -0.380466581285E+03   -0.99134E-04   -0.97781E-04  9828   0.914E-04-0.641E-05
CGA:  14    -0.380466615921E+03   -0.34636E-04   -0.57524E-04  9828   0.179E-03-0.672E-04
CGA:  15    -0.380466659092E+03   -0.43171E-04   -0.42611E-04  9828   0.673E-04-0.671E-05
CGA:  16    -0.380466672605E+03   -0.13513E-04   -0.46517E-04  9828   0.305E-03-0.804E-04
CGA:  17    -0.380466729431E+03   -0.56825E-04   -0.56361E-04  9828   0.667E-04-0.130E-05
CGA:  18    -0.380466750577E+03   -0.21146E-04   -0.46868E-04  9828   0.183E-03-0.670E-04
CGA:  19    -0.380466792722E+03   -0.42145E-04   -0.42068E-04  9828   0.598E-04 0.219E-06
CGA:  20    -0.380466816460E+03   -0.23738E-04   -0.29660E-04  9828   0.924E-04-0.371E-04
CGA:  21    -0.380466840234E+03   -0.23774E-04   -0.22969E-04  9828   0.461E-04-0.785E-05
CGA:  22    -0.380466602842E+03    0.23739E-03   -0.12839E-03  9828   0.179E-02-0.183E-03
CGA:  23    -0.380466926307E+03   -0.32347E-03   -0.32806E-03  9828   0.310E-03 0.277E-04
CGA:  24    -0.380467014771E+03   -0.88464E-04   -0.87140E-04  9828   0.186E-04-0.361E-05
CGA:  25    -0.380467037467E+03   -0.22696E-04    0.81050E-04  9828   0.155E-04 0.866E-05
CGA:  26    -0.380467078866E+03   -0.41399E-04    0.11513E-04  9828   0.186E-04 0.195E-04
CGA:  27    -0.380467092238E+03   -0.13372E-04   -0.20649E-04  9828   0.140E-03-0.138E-04
CGA:  28    -0.380467121716E+03   -0.29479E-04   -0.24665E-04  9828   0.251E-04-0.105E-04
CGA:  29    -0.380466861572E+03    0.26014E-03   -0.13995E-03  9828   0.171E-02-0.109E-03
CGA:  30    -0.380467210751E+03   -0.34918E-03   -0.34485E-03  9828   0.346E-03-0.445E-05
CGA:  31    -0.380467291741E+03   -0.80990E-04   -0.87507E-04  9828   0.188E-04 0.938E-05
CGA:  32    -0.380467313183E+03   -0.21442E-04   -0.33562E-04  9828   0.971E-04-0.163E-04
CGA:  33    -0.380467369363E+03   -0.56180E-04   -0.48299E-04  9828   0.350E-04-0.150E-04
CGA:  34    -0.380467377755E+03   -0.83916E-05   -0.99856E-05  9828   0.269E-04 0.260E-05
CGA:  35    -0.380467401195E+03   -0.23440E-04   -0.22773E-04  9828   0.642E-04-0.396E-05
CGA:  36    -0.380467540942E+03   -0.13975E-03    0.77697E-04  9828   0.129E-03 0.189E-04
CGA:  37    -0.380466699931E+03    0.84101E-03   -0.44993E-03  9828   0.344E-02-0.751E-03
CGA:  38    -0.380467399385E+03   -0.69945E-03   -0.79701E-03  9828   0.596E-03 0.155E-03
CGA:  39    -0.380467506603E+03   -0.10722E-03   -0.15551E-03  9828   0.121E-03 0.679E-04
CGA:  40    -0.380467565551E+03   -0.58948E-04   -0.78366E-04  9828   0.128E-03 0.542E-04
CGA:  41    -0.380467618820E+03   -0.53268E-04   -0.84033E-04  9828   0.117E-03 0.670E-04
CGA:  42    -0.380467644707E+03   -0.25887E-04   -0.33117E-04  9828   0.708E-04 0.118E-04
CGA:  43    -0.380467673323E+03   -0.28616E-04   -0.39745E-04  9828   0.494E-04 0.300E-04
CGA:  44    -0.380467740583E+03   -0.67259E-04   -0.66457E-04  9828   0.135E-03 0.115E-04
CGA:  45    -0.380467793048E+03   -0.52466E-04   -0.67256E-04  9828   0.837E-04 0.277E-04
CGA:  46    -0.380467795904E+03   -0.28562E-05   -0.27145E-04  9828   0.246E-04 0.397E-04
  27 F= -.38046780E+03 E0= -.38046780E+03  d E =-.206688E+00  mag=     4.0000
       N       E                     dE             d eps       ncg     rms          ort
SDA:   1    -0.380319058477E+03    0.14873E+00    0.00000E+00  9828   0.443E+00 0.000E+00
CGA:   2    -0.380450736284E+03   -0.13168E+00   -0.13100E+00  9828   0.167E+00-0.960E-03
CGA:   3    -0.380485789281E+03   -0.35053E-01   -0.35476E-01  9828   0.402E-01 0.769E-03
CGA:   4    -0.380493191437E+03   -0.74022E-02   -0.77272E-02  9828   0.783E-02 0.704E-03
CGA:   5    -0.380494797242E+03   -0.16058E-02   -0.16587E-02  9828   0.217E-02 0.104E-03
CGA:   6    -0.380495416496E+03   -0.61925E-03   -0.58157E-03  9828   0.858E-03-0.900E-04
CGA:   7    -0.380495670442E+03   -0.25395E-03   -0.23772E-03  9828   0.325E-03-0.430E-04
CGA:   8    -0.380495743674E+03   -0.73232E-04   -0.84962E-04  9828   0.101E-03 0.318E-04
CGA:   9    -0.380495757450E+03   -0.13776E-04   -0.25955E-04  9828   0.303E-04 0.311E-04
CGA:  10    -0.380495762900E+03   -0.54504E-05   -0.95673E-05  9828   0.117E-04 0.113E-04
  28 F= -.38049576E+03 E0= -.38049576E+03  d E =-.279670E-01  mag=     4.0000
       N       E                     dE             d eps       ncg     rms          ort
SDA:   1    -0.380236240760E+03    0.25952E+00    0.00000E+00  9828   0.717E+00 0.000E+00
CGA:   2    -0.380441845404E+03   -0.20560E+00   -0.20498E+00  9828   0.239E+00-0.276E-02
CGA:   3    -0.380497364438E+03   -0.55519E-01   -0.56067E-01  9828   0.545E-01 0.162E-02
CGA:   4    -0.380507302425E+03   -0.99380E-02   -0.10265E-01  9828   0.118E-01 0.894E-03
CGA:   5    -0.380509745294E+03   -0.24429E-02   -0.25094E-02  9828   0.307E-02 0.206E-03
CGA:   6    -0.380510645357E+03   -0.90006E-03   -0.86845E-03  9828   0.129E-02-0.134E-03
CGA:   7    -0.380511036485E+03   -0.39113E-03   -0.37360E-03  9828   0.559E-03-0.881E-04
CGA:   8    -0.380511164168E+03   -0.12768E-03   -0.14148E-03  9828   0.182E-03 0.625E-04
CGA:   9    -0.380511194260E+03   -0.30091E-04   -0.46093E-04  9828   0.589E-04 0.631E-04
CGA:  10    -0.380511208299E+03   -0.14039E-04   -0.19344E-04  9828   0.255E-04 0.236E-04
CGA:  11    -0.380511222903E+03   -0.14605E-04   -0.14619E-04  9828   0.209E-04 0.247E-06
CGA:  12    -0.380511226730E+03   -0.38267E-05   -0.53061E-05  9828   0.136E-04 0.722E-05
  29 F= -.38051123E+03 E0= -.38051123E+03  d E =-.154638E-01  mag=     4.0000
       N       E                     dE             d eps       ncg     rms          ort
SDA:   1    -0.380474175295E+03    0.37048E-01    0.00000E+00  9828   0.115E+00 0.000E+00
CGA:   2    -0.380503455521E+03   -0.29280E-01   -0.29116E-01  9828   0.360E-01-0.101E-02
CGA:   3    -0.380512276935E+03   -0.88214E-02   -0.89042E-02  9828   0.759E-02 0.476E-03
CGA:   4    -0.380513605246E+03   -0.13283E-02   -0.13874E-02  9828   0.162E-02 0.252E-03
CGA:   5    -0.380513924181E+03   -0.31894E-03   -0.33742E-03  9828   0.384E-03 0.925E-04
CGA:   6    -0.380514043683E+03   -0.11950E-03   -0.11735E-03  9828   0.181E-03-0.211E-04
CGA:   7    -0.380514107218E+03   -0.63535E-04   -0.62760E-04  9828   0.125E-03-0.390E-04
CGA:   8    -0.380514127603E+03   -0.20385E-04   -0.23235E-04  9828   0.465E-04 0.190E-04
CGA:   9    -0.380514132613E+03   -0.50099E-05   -0.93044E-05  9828   0.190E-04 0.210E-04
  30 F= -.38051413E+03 E0= -.38051413E+03  d E =-.290588E-02  mag=     4.0000
       N       E                     dE             d eps       ncg     rms          ort
SDA:   1    -0.379768985691E+03    0.74514E+00    0.00000E+00  9828   0.220E+01 0.000E+00
CGA:   2    -0.380315480531E+03   -0.54649E+00   -0.54646E+00  9828   0.697E+00-0.301E-02
CGA:   3    -0.380489530285E+03   -0.17405E+00   -0.17416E+00  9828   0.150E+00 0.103E-02
CGA:   4    -0.380515944882E+03   -0.26415E-01   -0.26528E-01  9828   0.306E-01 0.626E-03
CGA:   5    -0.380522298134E+03   -0.63533E-02   -0.63802E-02  9828   0.743E-02 0.207E-03
CGA:   6    -0.380524241333E+03   -0.19432E-02   -0.19378E-02  9828   0.282E-02-0.746E-04
CGA:   7    -0.380525141387E+03   -0.90005E-03   -0.89909E-03  9828   0.150E-02-0.134E-03
[...]
CGA:   8    -0.380609544676E+03   -0.85417E-04   -0.84564E-04  9828   0.118E-03 0.246E-04
CGA:   9    -0.380609593551E+03   -0.48875E-04   -0.49967E-04  9828   0.660E-04-0.920E-05
CGA:  10    -0.380609610646E+03   -0.17095E-04   -0.17071E-04  9828   0.282E-04 0.141E-04
CGA:  11    -0.380609619182E+03   -0.85362E-05   -0.88316E-05  9828   0.169E-04 0.141E-04
  92 F= -.38060962E+03 E0= -.38060962E+03  d E =-.417209E-03  mag=     4.0000
       N       E                     dE             d eps       ncg     rms          ort
SDA:   1    -0.380534861608E+03    0.74749E-01    0.00000E+00  9828   0.197E+00 0.000E+00
CGA:   2    -0.380587805716E+03   -0.52944E-01   -0.52957E-01  9828   0.866E-01 0.116E-02
CGA:   3    -0.380605850987E+03   -0.18045E-01   -0.18060E-01  9828   0.178E-01 0.186E-03
CGA:   4    -0.380609203964E+03   -0.33530E-02   -0.32953E-02  9828   0.364E-02-0.618E-03
CGA:   5    -0.380609989063E+03   -0.78510E-03   -0.76906E-03  9828   0.103E-02-0.305E-03
CGA:   6    -0.380610192284E+03   -0.20322E-03   -0.20433E-03  9828   0.262E-03 0.215E-04
CGA:   7    -0.380610243073E+03   -0.50789E-04   -0.54883E-04  9828   0.729E-04 0.671E-04
CGA:   8    -0.380610270571E+03   -0.27498E-04   -0.27236E-04  9828   0.421E-04 0.760E-05
CGA:   9    -0.380610054959E+03    0.21561E-03   -0.11632E-03  9828   0.108E-02-0.208E-03
CGA:  10    -0.380610240258E+03   -0.18530E-03   -0.19784E-03  9828   0.168E-03 0.426E-04
CGA:  11    -0.380610293106E+03   -0.52847E-04   -0.56458E-04  9828   0.592E-04 0.250E-04
CGA:  12    -0.380610314059E+03   -0.20954E-04   -0.21944E-04  9828   0.251E-04 0.722E-05
CGA:  13    -0.380610323117E+03   -0.90571E-05   -0.91599E-05  9828   0.854E-05 0.823E-06
  93 F= -.38061032E+03 E0= -.38061032E+03  d E =-.703934E-03  mag=     4.0000
       N       E                     dE             d eps       ncg     rms          ort
SDA:   1    -0.380585212649E+03    0.25101E-01    0.00000E+00  9828   0.646E-01 0.000E+00
CGA:   2    -0.380603894750E+03   -0.18682E-01   -0.18708E-01  9828   0.283E-01 0.187E-03
CGA:   3    -0.380609455368E+03   -0.55606E-02   -0.55923E-02  9828   0.529E-02 0.139E-03
CGA:   4    -0.380610430724E+03   -0.97536E-03   -0.95428E-03  9828   0.110E-02-0.887E-04
CGA:   5    -0.380610680170E+03   -0.24945E-03   -0.23679E-03  9828   0.293E-03-0.686E-04
CGA:   6    -0.380610744741E+03   -0.64571E-04   -0.62982E-04  9828   0.773E-04-0.966E-05
CGA:   7    -0.380610759799E+03   -0.15057E-04   -0.16814E-04  9828   0.203E-04 0.110E-04
CGA:   8    -0.380610767340E+03   -0.75413E-05   -0.75803E-05  9828   0.102E-04 0.786E-06
CGA:   9    -0.380610655106E+03    0.11223E-03   -0.60522E-04  9828   0.529E-03-0.687E-04
CGA:  10    -0.380610752155E+03   -0.97050E-04   -0.10234E-03  9828   0.722E-04 0.110E-04
CGA:  11    -0.380610775777E+03   -0.23621E-04   -0.25686E-04  9828   0.242E-04 0.668E-05
CGA:  12    -0.380610782009E+03   -0.62325E-05   -0.83409E-05  9828   0.765E-05 0.644E-05
  94 F= -.38061078E+03 E0= -.38061078E+03  d E =-.458893E-03  mag=     4.0000
       N       E                     dE             d eps       ncg     rms          ort
SDA:   1    -0.380522137103E+03    0.88639E-01    0.00000E+00  9828   0.212E+00 0.000E+00
CGA:   2    -0.380592156076E+03   -0.70019E-01   -0.69926E-01  9828   0.809E-01-0.364E-03
CGA:   3    -0.380607197861E+03   -0.15042E-01   -0.15242E-01  9828   0.149E-01 0.489E-03
CGA:   4    -0.380609877934E+03   -0.26801E-02   -0.27011E-02  9828   0.324E-02 0.539E-04
CGA:   5    -0.380610591297E+03   -0.71336E-03   -0.68625E-03  9828   0.790E-03-0.774E-04
CGA:   6    -0.380610797984E+03   -0.20669E-03   -0.19049E-03  9828   0.236E-03-0.548E-04
CGA:   7    -0.380610857397E+03   -0.59413E-04   -0.58482E-04  9828   0.771E-04-0.353E-05
CGA:   8    -0.380610878387E+03   -0.20990E-04   -0.22557E-04  9828   0.276E-04 0.722E-05
CGA:   9    -0.380610893713E+03   -0.15327E-04   -0.15435E-04  9828   0.274E-04-0.137E-04
CGA:  10    -0.380610895454E+03   -0.17406E-05   -0.10340E-04  9828   0.645E-04-0.351E-04
CGA:  11    -0.380610905358E+03   -0.99040E-05   -0.13457E-04  9828   0.144E-04 0.116E-04
  95 F= -.38061091E+03 E0= -.38061091E+03  d E =-.123349E-03  mag=     4.0000
       N       E                     dE             d eps       ncg     rms          ort
SDA:   1    -0.380122726180E+03    0.48817E+00    0.00000E+00  9828   0.114E+01 0.000E+00
CGA:   2    -0.380505846702E+03   -0.38312E+00   -0.38335E+00  9828   0.412E+00 0.154E-02
CGA:   3    -0.380584982958E+03   -0.79136E-01   -0.79108E-01  9828   0.782E-01-0.200E-03
CGA:   4    -0.380599849031E+03   -0.14866E-01   -0.14643E-01  9828   0.167E-01-0.772E-03
CGA:   5    -0.380603435180E+03   -0.35861E-02   -0.34937E-02  9828   0.423E-02-0.382E-03
CGA:   6    -0.380604374404E+03   -0.93922E-03   -0.94224E-03  9828   0.114E-02 0.145E-04
CGA:   7    -0.380604647665E+03   -0.27326E-03   -0.28762E-03  9828   0.368E-03 0.815E-04
CGA:   8    -0.380604807384E+03   -0.15972E-03   -0.15863E-03  9828   0.245E-03-0.645E-04
CGA:   9    -0.380604894984E+03   -0.87600E-04   -0.93635E-04  9828   0.210E-03-0.134E-03
CGA:  10    -0.380604934536E+03   -0.39552E-04   -0.41905E-04  9828   0.396E-04 0.107E-04
CGA:  11    -0.380604943480E+03   -0.89440E-05   -0.10655E-04  9828   0.123E-04 0.112E-04
  96 F= -.38060494E+03 E0= -.38060494E+03  d E =0.596188E-02  mag=     4.0000
       N       E                     dE             d eps       ncg     rms          ort
SDA:   1    -0.380536039690E+03    0.68895E-01    0.00000E+00  9828   0.176E+00 0.000E+00
CGA:   2    -0.380590523906E+03   -0.54484E-01   -0.54483E-01  9828   0.707E-01 0.382E-04
CGA:   3    -0.380604584285E+03   -0.14060E-01   -0.14032E-01  9828   0.154E-01-0.104E-03
CGA:   4    -0.380607534278E+03   -0.29500E-02   -0.29464E-02  9828   0.316E-02-0.623E-05
CGA:   5    -0.380608169940E+03   -0.63566E-03   -0.64386E-03  9828   0.818E-03 0.473E-04
CGA:   6    -0.380608368410E+03   -0.19847E-03   -0.20130E-03  9828   0.272E-03 0.225E-04
CGA:   7    -0.380608451074E+03   -0.82664E-04   -0.81883E-04  9828   0.109E-03-0.110E-04
CGA:   8    -0.380608481028E+03   -0.29954E-04   -0.30257E-04  9828   0.376E-04 0.435E-05
CGA:   9    -0.380608489781E+03   -0.87530E-05   -0.96256E-05  9828   0.992E-05 0.797E-05
  97 F= -.38060849E+03 E0= -.38060849E+03  d E =-.354630E-02  mag=     4.0000
       N       E                     dE             d eps       ncg     rms          ort
SDA:   1    -0.380542370152E+03    0.66111E-01    0.00000E+00  9828   0.164E+00 0.000E+00
CGA:   2    -0.380596827783E+03   -0.54458E-01   -0.54435E-01  9828   0.592E-01-0.140E-02
CGA:   3    -0.380608318869E+03   -0.11491E-01   -0.11523E-01  9828   0.119E-01 0.211E-03
CGA:   4    -0.380610320663E+03   -0.20018E-02   -0.21024E-02  9828   0.229E-02 0.615E-03
CGA:   5    -0.380610757256E+03   -0.43659E-03   -0.46717E-03  9828   0.547E-03 0.222E-03
CGA:   6    -0.380610924828E+03   -0.16757E-03   -0.16583E-03  9828   0.205E-03-0.359E-04
CGA:   7    -0.380610988077E+03   -0.63249E-04   -0.63813E-04  9828   0.110E-03-0.508E-04
CGA:   8    -0.380610999559E+03   -0.11482E-04   -0.15220E-04  9828   0.404E-04 0.270E-04
CGA:   9    -0.380611000584E+03   -0.10248E-05   -0.59578E-05  9828   0.173E-04 0.250E-04
  98 F= -.38061100E+03 E0= -.38061100E+03  d E =-.251080E-02  mag=     4.0000
       N       E                     dE             d eps       ncg     rms          ort
SDA:   1    -0.380602550000E+03    0.84496E-02    0.00000E+00  9828   0.207E-01 0.000E+00
CGA:   2    -0.380609735681E+03   -0.71857E-02   -0.72289E-02  9828   0.674E-02-0.836E-03
CGA:   3    -0.380610899686E+03   -0.11640E-02   -0.12303E-02  9828   0.128E-02 0.604E-03
CGA:   4    -0.380611089757E+03   -0.19007E-03   -0.22458E-03  9828   0.237E-03 0.259E-03
CGA:   5    -0.380611140937E+03   -0.51180E-04   -0.56027E-04  9828   0.651E-04 0.527E-04
CGA:   6    -0.380611168263E+03   -0.27326E-04   -0.37830E-04  9828   0.920E-04-0.547E-04
CGA:   7    -0.380611182162E+03   -0.13899E-04   -0.15388E-04  9828   0.129E-04 0.119E-04
CGA:   8    -0.380611182323E+03   -0.16088E-06   -0.16682E-05  9828   0.568E-05 0.876E-05
  99 F= -.38061118E+03 E0= -.38061118E+03  d E =-.181739E-03  mag=     4.0000
       N       E                     dE             d eps       ncg     rms          ort
SDA:   1    -0.380580498108E+03    0.30684E-01    0.00000E+00  9828   0.708E-01 0.000E+00
CGA:   2    -0.380605987189E+03   -0.25489E-01   -0.25487E-01  9828   0.194E-01 0.300E-04
CGA:   3    -0.380610011751E+03   -0.40246E-02   -0.40307E-02  9828   0.369E-02 0.955E-04
CGA:   4    -0.380610705198E+03   -0.69345E-03   -0.69302E-03  9828   0.820E-03-0.358E-05
CGA:   5    -0.380610885159E+03   -0.17996E-03   -0.17863E-03  9828   0.211E-03-0.272E-04
CGA:   6    -0.380610935343E+03   -0.50184E-04   -0.49911E-04  9828   0.649E-04-0.134E-04
CGA:   7    -0.380610949473E+03   -0.14130E-04   -0.14320E-04  9828   0.199E-04 0.683E-05
CGA:   8    -0.380610954281E+03   -0.48087E-05   -0.50495E-05  9828   0.716E-05 0.735E-05
 100 F= -.38061095E+03 E0= -.38061095E+03  d E =0.228041E-03  mag=     4.0000
       N       E                     dE             d eps       ncg     rms          ort
SDA:   1    -0.380457066822E+03    0.15388E+00    0.00000E+00  9828   0.352E+00 0.000E+00
CGA:   2    -0.380584873589E+03   -0.12781E+00   -0.12782E+00  9828   0.983E-01-0.634E-04
CGA:   3    -0.380604801933E+03   -0.19928E-01   -0.19941E-01  9828   0.183E-01 0.217E-03
CGA:   4    -0.380608276840E+03   -0.34749E-02   -0.34710E-02  9828   0.408E-02-0.504E-04
CGA:   5    -0.380609172708E+03   -0.89587E-03   -0.89075E-03  9828   0.103E-02-0.125E-03
CGA:   6    -0.380609413100E+03   -0.24039E-03   -0.23955E-03  9828   0.302E-03-0.499E-04
CGA:   7    -0.380609489022E+03   -0.75922E-04   -0.75893E-04  9828   0.105E-03 0.424E-05
CGA:   8    -0.380609520381E+03   -0.31358E-04   -0.30933E-04  9828   0.360E-04 0.128E-04
CGA:   9    -0.380609535461E+03   -0.15081E-04   -0.23021E-04  9828   0.508E-04-0.255E-04
CGA:  10    -0.380609547189E+03   -0.11727E-04   -0.11472E-04  9828   0.790E-05-0.527E-05
CGA:  11    -0.380609549021E+03   -0.18323E-05   -0.18430E-05  9828   0.235E-05 0.908E-06
 101 F= -.38060955E+03 E0= -.38060955E+03  d E =0.140526E-02  mag=     4.0000
       N       E                     dE             d eps       ncg     rms          ort
SDA:   1    -0.380506726311E+03    0.10282E+00    0.00000E+00  9828   0.237E+00 0.000E+00
CGA:   2    -0.380589169604E+03   -0.82443E-01   -0.82572E-01  9828   0.765E-01-0.155E-02
CGA:   3    -0.380604053537E+03   -0.14884E-01   -0.15010E-01  9828   0.151E-01 0.174E-02
CGA:   4    -0.380606894203E+03   -0.28407E-02   -0.28782E-02  9828   0.311E-02 0.469E-03
CGA:   5    -0.380607611654E+03   -0.71745E-03   -0.71480E-03  9828   0.921E-03-0.663E-04
CGA:   6    -0.380607858273E+03   -0.24662E-03   -0.24876E-03  9828   0.371E-03-0.139E-03
CGA:   7    -0.380607937075E+03   -0.78802E-04   -0.78812E-04  9828   0.116E-03 0.950E-06
CGA:   8    -0.380607959409E+03   -0.22334E-04   -0.24319E-04  9828   0.368E-04 0.384E-04
CGA:   9    -0.380607966316E+03   -0.69073E-05   -0.86015E-05  9828   0.146E-04 0.204E-04
 102 F= -.38060797E+03 E0= -.38060797E+03  d E =0.158270E-02  mag=     4.0000
       N       E                     dE             d eps       ncg     rms          ort
SDA:   1    -0.380530158987E+03    0.77800E-01    0.00000E+00  9828   0.188E+00 0.000E+00
CGA:   2    -0.380594733012E+03   -0.64574E-01   -0.64421E-01  9828   0.575E-01 0.211E-02
CGA:   3    -0.380607520595E+03   -0.12788E-01   -0.12675E-01  9828   0.137E-01-0.207E-02
CGA:   4    -0.380610017024E+03   -0.24964E-02   -0.24558E-02  9828   0.289E-02-0.483E-03
CGA:   5    -0.380610566176E+03   -0.54915E-03   -0.55647E-03  9828   0.670E-03 0.112E-03
CGA:   6    -0.380610704199E+03   -0.13802E-03   -0.14483E-03  9828   0.182E-03 0.126E-03
CGA:   7    -0.380610754214E+03   -0.50015E-04   -0.51068E-04  9828   0.686E-04 0.457E-04
CGA:   8    -0.380610785959E+03   -0.31745E-04   -0.47001E-04  9828   0.111E-03-0.527E-04
CGA:   9    -0.380610805950E+03   -0.19991E-04   -0.20430E-04  9828   0.130E-04 0.499E-05
CGA:  10    -0.380610808998E+03   -0.30480E-05   -0.31578E-05  9828   0.254E-05 0.310E-05
 103 F= -.38061081E+03 E0= -.38061081E+03  d E =-.284268E-02  mag=     4.0000
       N       E                     dE             d eps       ncg     rms          ort
SDA:   1    -0.380604297371E+03    0.65086E-02    0.00000E+00  9828   0.160E-01 0.000E+00
CGA:   2    -0.380608864558E+03   -0.45672E-02   -0.46404E-02  9828   0.614E-02 0.375E-03
CGA:   3    -0.380610295576E+03   -0.14310E-02   -0.13477E-02  9828   0.182E-02-0.318E-03
CGA:   4    -0.380610704571E+03   -0.40900E-03   -0.34976E-03  9828   0.432E-03-0.226E-03
CGA:   5    -0.380610782908E+03   -0.78337E-04   -0.72680E-04  9828   0.975E-04-0.219E-04
CGA:   6    -0.380610791359E+03   -0.84515E-05   -0.15868E-04  9828   0.269E-04 0.279E-04
 104 F= -.38061079E+03 E0= -.38061079E+03  d E =0.176382E-04  mag=     4.0000
       N       E                     dE             d eps       ncg     rms          ort
SDA:   1    -0.380607303544E+03    0.34794E-02    0.00000E+00  9828   0.829E-02 0.000E+00
CGA:   2    -0.380610200173E+03   -0.28966E-02   -0.29012E-02  9828   0.270E-02 0.770E-04
CGA:   3    -0.380610715944E+03   -0.51577E-03   -0.51761E-03  9828   0.493E-03 0.929E-05
CGA:   4    -0.380610823496E+03   -0.10755E-03   -0.10019E-03  9828   0.124E-03-0.378E-04
CGA:   5    -0.380610853114E+03   -0.29619E-04   -0.26581E-04  9828   0.387E-04-0.197E-04
CGA:   6    -0.380610859307E+03   -0.61930E-05   -0.63672E-05  9828   0.819E-05 0.955E-06
 105 F= -.38061086E+03 E0= -.38061086E+03  d E =-.679480E-04  mag=     4.0000
       N       E                     dE             d eps       ncg     rms          ort
SDA:   1    -0.378865856762E+03    0.17450E+01    0.00000E+00  9828   0.394E+01 0.000E+00
CGA:   2    -0.380319374695E+03   -0.14535E+01   -0.14535E+01  9828   0.110E+01-0.307E-02
CGA:   3    -0.380538442989E+03   -0.21907E+00   -0.21962E+00  9828   0.211E+00 0.385E-02
CGA:   4    -0.380578132890E+03   -0.39690E-01   -0.39860E-01  9828   0.462E-01 0.112E-02
CGA:   5    -0.380588400971E+03   -0.10268E-01   -0.10214E-01  9828   0.118E-01-0.421E-03
CGA:   6    -0.380591242974E+03   -0.28420E-02   -0.28088E-02  9828   0.376E-02-0.339E-03
CGA:   7    -0.380592193461E+03   -0.95049E-03   -0.95464E-03  9828   0.135E-02 0.632E-04
CGA:   8    -0.380592622435E+03   -0.42897E-03   -0.42973E-03  9828   0.519E-03 0.496E-04
CGA:   9    -0.380592786029E+03   -0.16359E-03   -0.16401E-03  9828   0.160E-03 0.190E-04
CGA:  10    -0.380592850618E+03   -0.64588E-04   -0.77364E-04  9828   0.135E-03-0.919E-04
CGA:  11    -0.380592872401E+03   -0.21783E-04   -0.24332E-04  9828   0.153E-04 0.167E-04
CGA:  12    -0.380592876659E+03   -0.42577E-05   -0.45231E-05  9828   0.593E-05 0.425E-05
 106 F= -.38059288E+03 E0= -.38059288E+03  d E =0.179826E-01  mag=     4.0000
       N       E                     dE             d eps       ncg     rms          ort
SDA:   1    -0.380093230436E+03    0.49964E+00    0.00000E+00  9828   0.124E+01 0.000E+00
CGA:   2    -0.380477608101E+03   -0.38438E+00   -0.38443E+00  9828   0.459E+00 0.555E-02
CGA:   3    -0.380572644870E+03   -0.95037E-01   -0.94515E-01  9828   0.115E+00-0.495E-02
CGA:   4    -0.380595631347E+03   -0.22986E-01   -0.22658E-01  9828   0.220E-01-0.278E-02
CGA:   5    -0.380600045658E+03   -0.44143E-02   -0.44084E-02  9828   0.605E-02-0.551E-04
CGA:   6    -0.380601402808E+03   -0.13572E-02   -0.13852E-02  9828   0.185E-02 0.384E-03
CGA:   7    -0.380601939646E+03   -0.53684E-03   -0.53974E-03  9828   0.688E-03 0.116E-03
CGA:   8    -0.380602214938E+03   -0.27529E-03   -0.29558E-03  9828   0.504E-03-0.191E-03
CGA:   9    -0.380602335313E+03   -0.12038E-03   -0.13094E-03  9828   0.253E-03-0.187E-03
CGA:  10    -0.380602381824E+03   -0.46511E-04   -0.46071E-04  9828   0.998E-04-0.276E-04
CGA:  11    -0.380602404712E+03   -0.22887E-04   -0.23639E-04  9828   0.564E-04 0.191E-04
CGA:  12    -0.380602423206E+03   -0.18494E-04   -0.18926E-04  9828   0.323E-04 0.199E-04
CGA:  13    -0.380602438563E+03   -0.15358E-04   -0.15014E-04  9828   0.194E-04 0.835E-05
CGA:  14    -0.380602448368E+03   -0.98041E-05   -0.97765E-05  9828   0.122E-04 0.216E-06
 107 F= -.38060245E+03 E0= -.38060245E+03  d E =-.957171E-02  mag=     4.0000
       N       E                     dE             d eps       ncg     rms          ort
SDA:   1    -0.380005609976E+03    0.59683E+00    0.00000E+00  9828   0.138E+01 0.000E+00
CGA:   2    -0.380521193860E+03   -0.51558E+00   -0.51581E+00  9828   0.350E+00-0.312E-02
CGA:   3    -0.380594449735E+03   -0.73256E-01   -0.73309E-01  9828   0.624E-01 0.626E-03
CGA:   4    -0.380606122083E+03   -0.11672E-01   -0.11780E-01  9828   0.144E-01 0.965E-03
CGA:   5    -0.380609172378E+03   -0.30503E-02   -0.30682E-02  9828   0.339E-02 0.210E-03
CGA:   6    -0.380610057696E+03   -0.88532E-03   -0.87879E-03  9828   0.109E-02-0.184E-03
CGA:   7    -0.380610357516E+03   -0.29982E-03   -0.30003E-03  9828   0.453E-03-0.760E-04
CGA:   8    -0.380610470793E+03   -0.11328E-03   -0.11417E-03  9828   0.139E-03 0.488E-04
CGA:   9    -0.380610513009E+03   -0.42216E-04   -0.42501E-04  9828   0.416E-04 0.237E-04
CGA:  10    -0.380610523794E+03   -0.10785E-04   -0.11477E-04  9828   0.120E-04 0.132E-04
CGA:  11    -0.380610527195E+03   -0.34011E-05   -0.36857E-05  9828   0.477E-05 0.537E-05
 108 F= -.38061053E+03 E0= -.38061053E+03  d E =-.807883E-02  mag=     4.0000
       N       E                     dE             d eps       ncg     rms          ort
SDA:   1    -0.380369784890E+03    0.24074E+00    0.00000E+00  9828   0.572E+00 0.000E+00
CGA:   2    -0.380546580315E+03   -0.17680E+00   -0.17685E+00  9828   0.215E+00-0.543E-02
CGA:   3    -0.380589410829E+03   -0.42831E-01   -0.43173E-01  9828   0.513E-01 0.353E-02
CGA:   4    -0.380598875047E+03   -0.94642E-02   -0.97479E-02  9828   0.905E-02 0.269E-02
CGA:   5    -0.380600769953E+03   -0.18949E-02   -0.19337E-02  9828   0.244E-02 0.451E-03
CGA:   6    -0.380601516220E+03   -0.74627E-03   -0.74819E-03  9828   0.108E-02-0.268E-03
CGA:   7    -0.380601777957E+03   -0.26174E-03   -0.26113E-03  9828   0.375E-03-0.420E-04
CGA:   8    -0.380601852210E+03   -0.74253E-04   -0.80141E-04  9828   0.114E-03 0.941E-04
CGA:   9    -0.380601865151E+03   -0.12941E-04   -0.21902E-04  9828   0.467E-04 0.699E-04
CGA:  10    -0.380601869265E+03   -0.41141E-05   -0.74667E-05  9828   0.226E-04 0.291E-04
 109 F= -.38060187E+03 E0= -.38060187E+03  d E =0.865793E-02  mag=     4.0000
       N       E                     dE             d eps       ncg     rms          ort
SDA:   1    -0.380428032186E+03    0.17383E+00    0.00000E+00  9828   0.443E+00 0.000E+00
CGA:   2    -0.380566113120E+03   -0.13808E+00   -0.13785E+00  9828   0.159E+00 0.484E-02
CGA:   3    -0.380600318186E+03   -0.34205E-01   -0.34003E-01  9828   0.408E-01-0.367E-02
CGA:   4    -0.380608532541E+03   -0.82144E-02   -0.80610E-02  9828   0.808E-02-0.251E-02
CGA:   5    -0.380610054268E+03   -0.15217E-02   -0.15104E-02  9828   0.208E-02-0.185E-03
CGA:   6    -0.380610464429E+03   -0.41016E-03   -0.42390E-03  9828   0.533E-03 0.284E-03
CGA:   7    -0.380610607848E+03   -0.14342E-03   -0.14506E-03  9828   0.192E-03 0.109E-03
CGA:   8    -0.380610694249E+03   -0.86400E-04   -0.10491E-03  9828   0.216E-03-0.932E-04
CGA:   9    -0.380610707562E+03   -0.13313E-04   -0.48824E-04  9828   0.214E-03-0.204E-03
CGA:  10    -0.380610767607E+03   -0.60045E-04   -0.59991E-04  9828   0.712E-04 0.719E-05
CGA:  11    -0.380610790902E+03   -0.23295E-04   -0.23163E-04  9828   0.184E-04 0.320E-05
CGA:  12    -0.380610802571E+03   -0.11668E-04    0.25238E-04  9828   0.507E-05 0.464E-05
CGA:  13    -0.380610804022E+03   -0.14517E-05   -0.15262E-05  9828   0.184E-05 0.214E-05
 110 F= -.38061080E+03 E0= -.38061080E+03  d E =-.893476E-02  mag=     4.0000
