       N       E                     dE             d eps       ncg     rms          ort
DAV:   1     0.283950553094E+04    0.28395E+04   -0.13334E+05 10584   0.173E+03
DAV:   2    -0.626022582424E+02   -0.29021E+04   -0.26081E+04 10584   0.448E+02
DAV:   3    -0.475027448973E+03   -0.41243E+03   -0.40344E+03 10584   0.193E+02
DAV:   4    -0.493313435272E+03   -0.18286E+02   -0.18087E+02 10584   0.402E+01
DAV:   5    -0.493865093603E+03   -0.55166E+00   -0.54954E+00 10584   0.579E+00
SDA:   6    -0.169616637076E+03    0.32425E+03   -0.54954E+00 10584   0.100E+04 0.000E+00
CGA:   7    -0.298122587174E+03   -0.12851E+03   -0.13448E+03 10584   0.156E+03 0.118E+02
CGA:   8    -0.325756380352E+03   -0.27634E+02   -0.27181E+02 10584   0.709E+02-0.531E+01
CGA:   9    -0.336108392622E+03   -0.10352E+02   -0.99588E+01 10584   0.474E+02-0.119E+01
CGA:  10    -0.343695040857E+03   -0.75866E+01   -0.75980E+01 10584   0.294E+02 0.142E+00
CGA:  11    -0.347220828930E+03   -0.35258E+01   -0.35245E+01 10584   0.127E+02-0.312E-02
CGA:  12    -0.349079273428E+03   -0.18584E+01   -0.18548E+01 10584   0.632E+01-0.966E-01
CGA:  13    -0.349903798049E+03   -0.82452E+00   -0.81779E+00 10584   0.266E+01-0.547E-01
CGA:  14    -0.350338720899E+03   -0.43492E+00   -0.43453E+00 10584   0.178E+01-0.123E-01
CGA:  15    -0.350621778901E+03   -0.28306E+00   -0.28332E+00 10584   0.969E+00 0.146E-01
CGA:  16    -0.350788025681E+03   -0.16625E+00   -0.16614E+00 10584   0.671E+00-0.846E-03
CGA:  17    -0.350902067230E+03   -0.11404E+00   -0.11368E+00 10584   0.393E+00-0.210E-01
CGA:  18    -0.350967140635E+03   -0.65073E-01   -0.64969E-01 10584   0.333E+00-0.123E-01
CGA:  19    -0.351020745993E+03   -0.53605E-01   -0.53181E-01 10584   0.165E+00-0.229E-01
CGA:  20    -0.351052025580E+03   -0.31280E-01   -0.32055E-01 10584   0.190E+00-0.258E-01
CGA:  21    -0.351071617087E+03   -0.19592E-01   -0.18206E-01 10584   0.862E-01-0.180E-01
CGA:  22    -0.351085158797E+03   -0.13542E-01   -0.13441E-01 10584   0.993E-01-0.207E-01
CGA:  23    -0.351094396731E+03   -0.92379E-02   -0.81764E-02 10584   0.609E-01-0.142E-01
CGA:  24    -0.351099553273E+03   -0.51565E-02   -0.48367E-02 10584   0.391E-01-0.417E-02
CGA:  25    -0.351103975359E+03   -0.44221E-02   -0.43973E-02 10584   0.414E-01-0.699E-03
CGA:  26    -0.351108950516E+03   -0.49752E-02   -0.48436E-02 10584   0.214E-01-0.271E-02
CGA:  27    -0.351110899868E+03   -0.19494E-02   -0.18210E-02 10584   0.171E-01-0.130E-02
CGA:  28    -0.351113119171E+03   -0.22193E-02   -0.22672E-02 10584   0.191E-01 0.236E-02
CGA:  29    -0.351114373781E+03   -0.12546E-02   -0.16355E-02 10584   0.701E-02 0.358E-02
CGA:  30    -0.351115312665E+03   -0.93888E-03   -0.10316E-02 10584   0.822E-02 0.276E-02
CGA:  31    -0.351116801219E+03   -0.14886E-02   -0.14795E-02 10584   0.383E-02 0.144E-03
CGA:  32    -0.351117373036E+03   -0.57182E-03   -0.57461E-03 10584   0.323E-02 0.407E-03
CGA:  33    -0.351117675841E+03   -0.30281E-03   -0.36585E-03 10584   0.210E-02 0.108E-02
CGA:  34    -0.351117964927E+03   -0.28909E-03   -0.31885E-03 10584   0.135E-02 0.772E-03
CGA:  35    -0.351118235332E+03   -0.27040E-03   -0.27106E-03 10584   0.121E-02 0.298E-03
CGA:  36    -0.351118313567E+03   -0.78234E-04   -0.11283E-03 10584   0.715E-03 0.441E-03
SDA:  37    -0.351118362970E+03   -0.49403E-04   -0.79954E-04 10584   0.710E-03 0.466E-03
CGA:  38    -0.351118500858E+03   -0.13789E-03   -0.14157E-03 10584   0.156E-02-0.723E-04
CGA:  39    -0.351118575365E+03   -0.74507E-04   -0.11668E-03 10584   0.673E-03 0.645E-03
CGA:  40    -0.351118597643E+03   -0.22278E-04   -0.48164E-04 10584   0.192E-03 0.271E-03
CGA:  41    -0.351117917319E+03    0.68032E-03   -0.31641E-03 10584   0.144E-01-0.149E-02
CGA:  42    -0.351118620730E+03   -0.70341E-03   -0.94058E-03 10584   0.278E-03 0.101E-02
CGA:  43    -0.351118653002E+03   -0.32272E-04   -0.34128E-04 10584   0.156E-03 0.144E-04
CGA:  44    -0.351118508489E+03    0.14451E-03   -0.11497E-03 10584   0.337E-02-0.568E-03
CGA:  45    -0.351118775624E+03   -0.26714E-03   -0.23959E-03 10584   0.862E-03-0.101E-03
CGA:  46    -0.351118771952E+03    0.36725E-05   -0.53040E-04 10584   0.168E-03 0.306E-03
CGA:  47    -0.351118765069E+03    0.68823E-05   -0.11388E-04 10584   0.727E-04 0.966E-04
CGA:  48    -0.351118801898E+03   -0.36829E-04    0.79479E-04 10584   0.169E-03-0.284E-04
CGA:  49    -0.351118792415E+03    0.94830E-05   -0.26003E-05 10584   0.111E-03 0.592E-04
   1 F= -.35111879E+03 E0= -.35111552E+03  d E =-.351119E+03  mag=    20.0000
       N       E                     dE             d eps       ncg     rms          ort
SDA:   1    -0.351175202841E+03   -0.56401E-01    0.00000E+00 10584   0.347E-01 0.000E+00
CGA:   2    -0.351177835998E+03   -0.26332E-02   -0.21793E-02 10584   0.103E-01-0.193E-02
CGA:   3    -0.351179416883E+03   -0.15809E-02   -0.16021E-02 10584   0.345E-02 0.552E-03
CGA:   4    -0.351179737983E+03   -0.32110E-03   -0.36350E-03 10584   0.110E-02 0.416E-03
CGA:   5    -0.351180071036E+03   -0.33305E-03   -0.37045E-03 10584   0.725E-03-0.358E-03
CGA:   6    -0.351180163286E+03   -0.92250E-04   -0.59760E-04 10584   0.804E-03-0.416E-03
CGA:   7    -0.351180155141E+03    0.81455E-05   -0.31569E-04 10584   0.161E-03 0.249E-03
   2 F= -.35118016E+03 E0= -.35117691E+03  d E =-.613627E-01  mag=    20.0000
       N       E                     dE             d eps       ncg     rms          ort
SDA:   1    -0.345770152924E+03    0.54100E+01    0.00000E+00 10584   0.235E+02 0.000E+00
CGA:   2    -0.350279063635E+03   -0.45089E+01   -0.45437E+01 10584   0.271E+02-0.168E+01
CGA:   3    -0.351887984623E+03   -0.16089E+01   -0.19934E+01 10584   0.513E+01-0.250E+01
CGA:   4    -0.352853644785E+03   -0.96566E+00   -0.97046E+00 10584   0.251E+01-0.123E+00
CGA:   5    -0.353086549770E+03   -0.23290E+00   -0.24375E+00 10584   0.625E+00-0.516E-02
CGA:   6    -0.353201268165E+03   -0.11472E+00   -0.11493E+00 10584   0.300E+00-0.182E-01
CGA:   7    -0.353231629014E+03   -0.30361E-01   -0.31344E-01 10584   0.158E+00 0.489E-02
CGA:   8    -0.353258610301E+03   -0.26981E-01   -0.26973E-01 10584   0.865E-01-0.172E-02
CGA:   9    -0.353271732177E+03   -0.13122E-01   -0.13178E-01 10584   0.596E-01 0.268E-02
CGA:  10    -0.353281100161E+03   -0.93680E-02   -0.93367E-02 10584   0.241E-01-0.172E-02
CGA:  11    -0.353284747750E+03   -0.36476E-02   -0.36852E-02 10584   0.134E-01 0.293E-02
CGA:  12    -0.353287220618E+03   -0.24729E-02   -0.24620E-02 10584   0.122E-01-0.226E-02
CGA:  13    -0.353288017937E+03   -0.79732E-03   -0.90824E-03 10584   0.334E-02 0.130E-02
CGA:  14    -0.353288423281E+03   -0.40534E-03   -0.45261E-03 10584   0.298E-02 0.110E-02
CGA:  15    -0.353289021588E+03   -0.59831E-03   -0.58905E-03 10584   0.219E-02-0.672E-03
CGA:  16    -0.353289163889E+03   -0.14230E-03   -0.15928E-03 10584   0.972E-03 0.243E-03
CGA:  17    -0.353289245792E+03   -0.81903E-04   -0.10691E-03 10584   0.835E-03 0.416E-03
CGA:  18    -0.353289396769E+03   -0.15098E-03   -0.15454E-03 10584   0.296E-03 0.135E-03
CGA:  19    -0.353289463160E+03   -0.66391E-04   -0.64406E-04 10584   0.142E-03 0.586E-04
CGA:  20    -0.353289472196E+03   -0.90358E-05   -0.15697E-04 10584   0.926E-04 0.104E-03
CGA:  21    -0.353289487441E+03   -0.15245E-04   -0.48264E-04 10584   0.481E-03-0.902E-04
CGA:  22    -0.353289487499E+03   -0.58564E-07   -0.20830E-04 10584   0.850E-04 0.159E-03
   3 F= -.35328949E+03 E0= -.35328760E+03  d E =-.210933E+01  mag=    20.0000
       N       E                     dE             d eps       ncg     rms          ort
SDA:   1    -0.344879963770E+03    0.84095E+01    0.00000E+00 10584   0.307E+02 0.000E+00
CGA:   2    -0.351539845714E+03   -0.66599E+01   -0.66485E+01 10584   0.143E+02 0.601E-01
CGA:   3    -0.353031780758E+03   -0.14919E+01   -0.15261E+01 10584   0.561E+01 0.714E-01
CGA:   4    -0.354071164601E+03   -0.10394E+01   -0.10466E+01 10584   0.204E+01-0.205E+00
CGA:   5    -0.354281597212E+03   -0.21043E+00   -0.21753E+00 10584   0.725E+00 0.308E-01
CGA:   6    -0.354397596566E+03   -0.11600E+00   -0.11600E+00 10584   0.231E+00-0.237E-01
CGA:   7    -0.354437825687E+03   -0.40229E-01   -0.39903E-01 10584   0.123E+00 0.134E-01
CGA:   8    -0.354459815520E+03   -0.21990E-01   -0.22080E-01 10584   0.998E-01-0.722E-02
CGA:   9    -0.354474991910E+03   -0.15176E-01   -0.15165E-01 10584   0.382E-01 0.453E-02
CGA:  10    -0.354483316315E+03   -0.83244E-02   -0.82938E-02 10584   0.234E-01 0.558E-03
CGA:  11    -0.354487076715E+03   -0.37604E-02   -0.37581E-02 10584   0.137E-01-0.784E-03
CGA:  12    -0.354489320494E+03   -0.22438E-02   -0.22384E-02 10584   0.481E-02 0.684E-03
CGA:  13    -0.354490087111E+03   -0.76662E-03   -0.77596E-03 10584   0.288E-02 0.107E-02
CGA:  14    -0.354490876998E+03   -0.78989E-03   -0.85810E-03 10584   0.264E-02-0.838E-03
CGA:  15    -0.354490980342E+03   -0.10334E-03   -0.15571E-03 10584   0.118E-02 0.624E-03
CGA:  16    -0.354491058207E+03   -0.77865E-04   -0.12143E-03 10584   0.847E-03 0.548E-03
CGA:  17    -0.354491257471E+03   -0.19926E-03   -0.19881E-03 10584   0.455E-03 0.153E-03
CGA:  18    -0.354491288478E+03   -0.31007E-04   -0.15948E-03 10584   0.276E-02-0.928E-03
CGA:  19    -0.354491369413E+03   -0.80935E-04   -0.15514E-03 10584   0.308E-03 0.663E-03
CGA:  20    -0.354491370631E+03   -0.12183E-05   -0.21110E-04 10584   0.171E-03 0.191E-03
CGA:  21    -0.354491424247E+03   -0.53616E-04    0.87186E-03 10584   0.798E-04 0.735E-04
CGA:  22    -0.354491427418E+03   -0.31709E-05   -0.85696E-05 10584   0.300E-04 0.681E-04
   4 F= -.35449143E+03 E0= -.35449077E+03  d E =-.120194E+01  mag=    20.0000
       N       E                     dE             d eps       ncg     rms          ort
SDA:   1    -0.348809803058E+03    0.56816E+01    0.00000E+00 10584   0.189E+02 0.000E+00
CGA:   2    -0.353121134602E+03   -0.43113E+01   -0.42924E+01 10584   0.746E+01 0.189E+00
CGA:   3    -0.354081286367E+03   -0.96015E+00   -0.95391E+00 10584   0.383E+01-0.102E+00
CGA:   4    -0.354702157033E+03   -0.62087E+00   -0.62042E+00 10584   0.846E+00 0.156E-01
CGA:   5    -0.354835102659E+03   -0.13295E+00   -0.13284E+00 10584   0.326E+00 0.103E-01
CGA:   6    -0.354879239349E+03   -0.44137E-01   -0.43898E-01 10584   0.128E+00-0.102E-01
CGA:   7    -0.354900332596E+03   -0.21093E-01   -0.20954E-01 10584   0.472E-01 0.631E-02
CGA:   8    -0.354913305523E+03   -0.12973E-01   -0.13129E-01 10584   0.368E-01-0.136E-02
CGA:   9    -0.354918502079E+03   -0.51966E-02   -0.52212E-02 10584   0.211E-01 0.226E-02
CGA:  10    -0.354922983270E+03   -0.44812E-02   -0.45298E-02 10584   0.997E-02-0.104E-02
CGA:  11    -0.354924999111E+03   -0.20158E-02   -0.20017E-02 10584   0.534E-02 0.246E-03
CGA:  12    -0.354925812935E+03   -0.81382E-03   -0.81388E-03 10584   0.263E-02 0.187E-05
CGA:  13    -0.354926284252E+03   -0.47132E-03   -0.46533E-03 10584   0.902E-03 0.346E-03
CGA:  14    -0.354926539864E+03   -0.25561E-03   -0.35329E-03 10584   0.194E-02-0.529E-03
CGA:  15    -0.354926604202E+03   -0.64338E-04   -0.11747E-03 10584   0.312E-03 0.477E-03
CGA:  16    -0.354926625620E+03   -0.21418E-04   -0.34106E-04 10584   0.208E-03 0.165E-03
CGA:  17    -0.354926704450E+03   -0.78830E-04    0.94006E-04 10584   0.245E-03-0.240E-04
CGA:  18    -0.354926731320E+03   -0.26870E-04   -0.29121E-04 10584   0.820E-04 0.854E-04
CGA:  19    -0.354926727041E+03    0.42791E-05   -0.42589E-05 10584   0.393E-04 0.705E-04
   5 F= -.35492673E+03 E0= -.35492640E+03  d E =-.435300E+00  mag=    20.0000
       N       E                     dE             d eps       ncg     rms          ort
SDA:   1    -0.350577408723E+03    0.43493E+01    0.00000E+00 10584   0.127E+02 0.000E+00
CGA:   2    -0.353772700196E+03   -0.31953E+01   -0.31926E+01 10584   0.573E+01 0.186E-01
CGA:   3    -0.354543877536E+03   -0.77118E+00   -0.76721E+00 10584   0.297E+01-0.759E-01
CGA:   4    -0.354963971029E+03   -0.42009E+00   -0.42040E+00 10584   0.647E+00 0.146E-01
CGA:   5    -0.355064348304E+03   -0.10038E+00   -0.10038E+00 10584   0.171E+00 0.276E-04
CGA:   6    -0.355093462863E+03   -0.29115E-01   -0.29147E-01 10584   0.723E-01-0.159E-02
CGA:   7    -0.355104127348E+03   -0.10664E-01   -0.10671E-01 10584   0.366E-01 0.114E-02
CGA:   8    -0.355111428309E+03   -0.73010E-02   -0.73230E-02 10584   0.190E-01-0.499E-03
CGA:   9    -0.355115453929E+03   -0.40256E-02   -0.40377E-02 10584   0.137E-01-0.225E-03
CGA:  10    -0.355117528013E+03   -0.20741E-02   -0.20749E-02 10584   0.671E-02 0.134E-03
CGA:  11    -0.355118960915E+03   -0.14329E-02   -0.14352E-02 10584   0.276E-02-0.507E-04
CGA:  12    -0.355119474531E+03   -0.51362E-03   -0.51400E-03 10584   0.179E-02-0.159E-04
CGA:  13    -0.355119724500E+03   -0.24997E-03   -0.25231E-03 10584   0.572E-03 0.112E-03
CGA:  14    -0.355119894670E+03   -0.17017E-03   -0.21203E-03 10584   0.748E-03-0.223E-03
CGA:  15    -0.355119912431E+03   -0.17761E-04   -0.29395E-04 10584   0.336E-03 0.108E-03
CGA:  16    -0.355119928192E+03   -0.15761E-04   -0.26392E-04 10584   0.238E-03 0.109E-03
CGA:  17    -0.355119970489E+03   -0.42298E-04   -0.43104E-04 10584   0.178E-03 0.343E-04
CGA:  18    -0.355120002333E+03   -0.31844E-04   -0.27679E-04 10584   0.192E-03-0.178E-03
CGA:  19    -0.355120007379E+03   -0.50465E-05   -0.11535E-04 10584   0.455E-04 0.658E-04
   6 F= -.35512001E+03 E0= -.35511979E+03  d E =-.193280E+00  mag=    20.0000
       N       E                     dE             d eps       ncg     rms          ort
SDA:   1    -0.346501677454E+03    0.86183E+01    0.00000E+00 10584   0.219E+02 0.000E+00
CGA:   2    -0.352698694523E+03   -0.61970E+01   -0.61305E+01 10584   0.137E+02 0.476E+00
CGA:   3    -0.354373349380E+03   -0.16747E+01   -0.15933E+01 10584   0.440E+01-0.210E+00
CGA:   4    -0.355035956158E+03   -0.66261E+00   -0.66271E+00 10584   0.100E+01 0.636E-01
CGA:   5    -0.355189567456E+03   -0.15361E+00   -0.15360E+00 10584   0.322E+00-0.128E-02
CGA:   6    -0.355234109847E+03   -0.44542E-01   -0.44505E-01 10584   0.125E+00-0.202E-02
CGA:   7    -0.355253976111E+03   -0.19866E-01   -0.19861E-01 10584   0.447E-01 0.727E-03
CGA:   8    -0.355262738187E+03   -0.87621E-02   -0.87093E-02 10584   0.251E-01 0.120E-02
CGA:   9    -0.355267190438E+03   -0.44523E-02   -0.45036E-02 10584   0.189E-01-0.256E-02
CGA:  10    -0.355269856451E+03   -0.26660E-02   -0.26655E-02 10584   0.607E-02 0.137E-02
CGA:  11    -0.355271705037E+03   -0.18486E-02   -0.19144E-02 10584   0.287E-02-0.483E-03
CGA:  12    -0.355272130858E+03   -0.42582E-03   -0.42668E-03 10584   0.149E-02 0.441E-03
CGA:  13    -0.355272453311E+03   -0.32245E-03   -0.32596E-03 10584   0.644E-03-0.131E-03
CGA:  14    -0.355272543188E+03   -0.89877E-04   -0.91212E-04 10584   0.292E-03 0.145E-03
CGA:  15    -0.355272615202E+03   -0.72014E-04   -0.69801E-04 10584   0.126E-03 0.710E-04
CGA:  16    -0.355272657232E+03   -0.42030E-04   -0.46548E-04 10584   0.228E-03-0.350E-04
CGA:  17    -0.355272664350E+03   -0.71177E-05   -0.11841E-04 10584   0.121E-03 0.466E-04
   7 F= -.35527266E+03 E0= -.35527255E+03  d E =-.152657E+00  mag=    20.0000
       N       E                     dE             d eps       ncg     rms          ort
SDA:   1    -0.335411539766E+03    0.19861E+02    0.00000E+00 10584   0.593E+02 0.000E+00
CGA:   2    -0.345968910312E+03   -0.10557E+02   -0.10388E+02 10584   0.424E+02 0.701E+01
CGA:   3    -0.352963137360E+03   -0.69942E+01   -0.66742E+01 10584   0.144E+02-0.415E+01
CGA:   4    -0.354674447162E+03   -0.17113E+01   -0.17424E+01 10584   0.345E+01 0.388E+00
CGA:   5    -0.355093227843E+03   -0.41878E+00   -0.40517E+00 10584   0.131E+01-0.217E-01
CGA:   6    -0.355292168570E+03   -0.19894E+00   -0.19917E+00 10584   0.301E+00 0.270E-01
CGA:   7    -0.355339579964E+03   -0.47411E-01   -0.47360E-01 10584   0.218E+00-0.118E-01
CGA:   8    -0.355366951698E+03   -0.27372E-01   -0.27758E-01 10584   0.581E-01 0.822E-02
CGA:   9    -0.355381548856E+03   -0.14597E-01   -0.15275E-01 10584   0.513E-01-0.698E-02
CGA:  10    -0.355387165136E+03   -0.56163E-02   -0.57662E-02 10584   0.190E-01 0.365E-02
CGA:  11    -0.355391780995E+03   -0.46159E-02   -0.47167E-02 10584   0.992E-02-0.143E-02
CGA:  12    -0.355393429531E+03   -0.16485E-02   -0.16576E-02 10584   0.712E-02-0.533E-03
CGA:  13    -0.355394220317E+03   -0.79079E-03   -0.80704E-03 10584   0.149E-02 0.351E-03
CGA:  14    -0.355394496765E+03   -0.27645E-03   -0.27100E-03 10584   0.834E-03 0.447E-03
CGA:  15    -0.355394670504E+03   -0.17374E-03   -0.36360E-03 10584   0.292E-02-0.110E-02
CGA:  16    -0.355394803493E+03   -0.13299E-03   -0.19722E-03 10584   0.371E-03 0.608E-03
CGA:  17    -0.355394842529E+03   -0.39036E-04   -0.48356E-04 10584   0.222E-03 0.161E-03
CGA:  18    -0.355394307795E+03    0.53473E-03   -0.24773E-03 10584   0.503E-02-0.127E-02
CGA:  19    -0.355394730574E+03   -0.42278E-03   -0.49791E-03 10584   0.125E-02 0.773E-03
CGA:  20    -0.355395005127E+03   -0.27455E-03   -0.27464E-03 10584   0.150E-03-0.861E-04
CGA:  21    -0.355395072190E+03   -0.67063E-04    0.49376E-04 10584   0.178E-03-0.536E-04
CGA:  22    -0.355395069331E+03    0.28595E-05   -0.56558E-05 10584   0.954E-04 0.609E-04
   8 F= -.35539507E+03 E0= -.35539470E+03  d E =-.122405E+00  mag=    20.0000
       N       E                     dE             d eps       ncg     rms          ort
SDA:   1    -0.351818704225E+03    0.35764E+01    0.00000E+00 10584   0.883E+01 0.000E+00
CGA:   2    -0.354631362143E+03   -0.28127E+01   -0.27956E+01 10584   0.486E+01 0.112E+00
CGA:   3    -0.355186715259E+03   -0.55535E+00   -0.52597E+00 10584   0.147E+01 0.592E-01
CGA:   4    -0.355419898921E+03   -0.23318E+00   -0.23399E+00 10584   0.354E+00 0.239E-01
CGA:   5    -0.355473892052E+03   -0.53993E-01   -0.54005E-01 10584   0.128E+00 0.879E-03
CGA:   6    -0.355490639311E+03   -0.16747E-01   -0.16694E-01 10584   0.445E-01-0.102E-02
CGA:   7    -0.355498108689E+03   -0.74694E-02   -0.74673E-02 10584   0.177E-01-0.561E-03
CGA:   8    -0.355500744881E+03   -0.26362E-02   -0.26464E-02 10584   0.990E-02 0.415E-03
CGA:   9    -0.355502495193E+03   -0.17503E-02   -0.17522E-02 10584   0.596E-02-0.143E-02
CGA:  10    -0.355503260626E+03   -0.76543E-03   -0.77631E-03 10584   0.208E-02 0.548E-03
CGA:  11    -0.355503813723E+03   -0.55310E-03   -0.56695E-03 10584   0.951E-03-0.178E-03
CGA:  12    -0.355503930327E+03   -0.11660E-03   -0.12377E-03 10584   0.412E-03 0.221E-03
CGA:  13    -0.355504011312E+03   -0.80984E-04   -0.81506E-04 10584   0.133E-03 0.417E-04
CGA:  14    -0.355504044049E+03   -0.32737E-04   -0.33095E-04 10584   0.116E-03-0.714E-05
CGA:  15    -0.355504058660E+03   -0.14611E-04   -0.14366E-04 10584   0.457E-04-0.587E-05
CGA:  16    -0.355504066399E+03   -0.77387E-05   -0.76855E-05 10584   0.211E-04 0.126E-04
   9 F= -.35550407E+03 E0= -.35550384E+03  d E =-.108997E+00  mag=    20.0000
       N       E                     dE             d eps       ncg     rms          ort
SDA:   1    -0.353813571423E+03    0.16905E+01    0.00000E+00 10584   0.429E+01 0.000E+00
CGA:   2    -0.355086149421E+03   -0.12726E+01   -0.12634E+01 10584   0.275E+01 0.692E-01
CGA:   3    -0.355395716286E+03   -0.30957E+00   -0.29768E+00 10584   0.746E+00 0.531E-03
CGA:   4    -0.355515580034E+03   -0.11986E+00   -0.12015E+00 10584   0.190E+00 0.159E-01
CGA:   5    -0.355540896204E+03   -0.25316E-01   -0.25258E-01 10584   0.760E-01-0.569E-03
CGA:   6    -0.355550268585E+03   -0.93724E-02   -0.93963E-02 10584   0.204E-01 0.368E-03
CGA:   7    -0.355554082645E+03   -0.38141E-02   -0.38129E-02 10584   0.810E-02 0.591E-04
CGA:   8    -0.355555289391E+03   -0.12067E-02   -0.12056E-02 10584   0.470E-02-0.591E-04
CGA:   9    -0.355556047845E+03   -0.75845E-03   -0.75728E-03 10584   0.193E-02-0.160E-03
CGA:  10    -0.355556397053E+03   -0.34921E-03   -0.34458E-03 10584   0.809E-03 0.293E-03
CGA:  11    -0.355556611909E+03   -0.21486E-03   -0.23099E-03 10584   0.940E-03-0.209E-03
CGA:  12    -0.355556643597E+03   -0.31687E-04   -0.52066E-04 10584   0.348E-03 0.204E-03
CGA:  13    -0.355556651723E+03   -0.81266E-05   -0.25066E-04 10584   0.178E-03 0.154E-03
CGA:  14    -0.355556667635E+03   -0.15912E-04   -0.22895E-04 10584   0.122E-03 0.940E-04
CGA:  15    -0.355555804806E+03    0.86283E-03   -0.46801E-03 10584   0.167E-01-0.114E-02
CGA:  16    -0.355556677874E+03   -0.87307E-03   -0.10300E-02 10584   0.200E-03 0.430E-03
CGA:  17    -0.355556681970E+03   -0.40959E-05   -0.16830E-04 10584   0.677E-04 0.640E-04
CGA:  18    -0.355556693885E+03   -0.11916E-04   -0.13861E-04 10584   0.238E-04 0.169E-04
CGA:  19    -0.355556680435E+03    0.13450E-04   -0.14793E-04 10584   0.627E-03-0.121E-03
CGA:  20    -0.355556696634E+03   -0.16198E-04   -0.36543E-04 10584   0.377E-04 0.899E-04
CGA:  21    -0.355556693433E+03    0.32007E-05   -0.22486E-05 10584   0.208E-04 0.255E-04
  10 F= -.35555669E+03 E0= -.35555642E+03  d E =-.526270E-01  mag=    20.0000
       N       E                     dE             d eps       ncg     rms          ort
SDA:   1    -0.350503463589E+03    0.50532E+01    0.00000E+00 10584   0.128E+02 0.000E+00
CGA:   2    -0.353877011002E+03   -0.33735E+01   -0.33649E+01 10584   0.113E+02 0.411E+00
CGA:   3    -0.355130728554E+03   -0.12537E+01   -0.10572E+01 10584   0.161E+01 0.168E+01
CGA:   4    -0.355462840055E+03   -0.33211E+00   -0.33074E+00 10584   0.909E+00-0.843E-02
CGA:   5    -0.355553092381E+03   -0.90252E-01   -0.94399E-01 10584   0.262E+00-0.850E-03
CGA:   6    -0.355592312231E+03   -0.39220E-01   -0.38974E-01 10584   0.836E-01-0.206E-02
CGA:   7    -0.355602716183E+03   -0.10404E-01   -0.10169E-01 10584   0.413E-01-0.172E-02
CGA:   8    -0.355608483312E+03   -0.57671E-02   -0.58568E-02 10584   0.115E-01 0.988E-03
CGA:   9    -0.355610722309E+03   -0.22390E-02   -0.22464E-02 10584   0.904E-02 0.243E-03
CGA:  10    -0.355611995815E+03   -0.12735E-02   -0.12452E-02 10584   0.392E-02-0.332E-03
CGA:  11    -0.355612851830E+03   -0.85601E-03   -0.85796E-03 10584   0.193E-02-0.161E-03
CGA:  12    -0.355613012409E+03   -0.16058E-03   -0.20307E-03 10584   0.850E-03 0.396E-03
CGA:  13    -0.355613201512E+03   -0.18910E-03   -0.19027E-03 10584   0.316E-03 0.465E-04
CGA:  14    -0.355613278765E+03   -0.77253E-04   -0.81915E-04 10584   0.466E-03-0.127E-03
CGA:  15    -0.355613279196E+03   -0.43157E-06   -0.14594E-04 10584   0.247E-03 0.882E-04
CGA:  16    -0.355613275693E+03    0.35035E-05   -0.11989E-04 10584   0.932E-04 0.944E-04
  11 F= -.35561328E+03 E0= -.35561296E+03  d E =-.565823E-01  mag=    20.0000
       N       E                     dE             d eps       ncg     rms          ort
SDA:   1    -0.326167374700E+03    0.29446E+02    0.00000E+00 10584   0.829E+02 0.000E+00
CGA:   2    -0.342940870685E+03   -0.16773E+02   -0.16614E+02 10584   0.595E+02 0.695E+01
CGA:   3    -0.350342264634E+03   -0.74014E+01   -0.51193E+01 10584   0.127E+02 0.248E+02
CGA:   4    -0.352360626820E+03   -0.20184E+01   -0.19004E+01 10584   0.211E+02-0.946E-01
CGA:   5    -0.353719028382E+03   -0.13584E+01   -0.13775E+01 10584   0.154E+02-0.155E+00
CGA:   6    -0.354350641071E+03   -0.63161E+00   -0.74085E+00 10584   0.672E+01-0.178E+01
CGA:   7    -0.354646022808E+03   -0.29538E+00   -0.31042E+00 10584   0.294E+01-0.154E+00
CGA:   8    -0.354806435888E+03   -0.16041E+00   -0.14739E+00 10584   0.223E+01 0.161E+00
CGA:   9    -0.354966367117E+03   -0.15993E+00   -0.15760E+00 10584   0.126E+01-0.129E-02
CGA:  10    -0.355025318108E+03   -0.58951E-01   -0.65428E-01 10584   0.776E+00-0.814E-01
CGA:  11    -0.355097930271E+03   -0.72612E-01   -0.73133E-01 10584   0.876E+00 0.166E-02
CGA:  12    -0.355149813397E+03   -0.51883E-01   -0.49581E-01 10584   0.391E+00 0.182E-01
CGA:  13    -0.355179646747E+03   -0.29833E-01   -0.30002E-01 10584   0.288E+00 0.364E-04
CGA:  14    -0.355199057009E+03   -0.19410E-01   -0.20397E-01 10584   0.212E+00 0.281E-03
CGA:  15    -0.355217126251E+03   -0.18069E-01   -0.17991E-01 10584   0.104E+00-0.256E-02
CGA:  16    -0.355223656637E+03   -0.65304E-02   -0.61269E-02 10584   0.574E-01-0.371E-02
CGA:  17    -0.355230884554E+03   -0.72279E-02   -0.72285E-02 10584   0.572E-01-0.239E-03
CGA:  18    -0.355233510243E+03   -0.26257E-02   -0.29127E-02 10584   0.182E-01 0.219E-02
CGA:  19    -0.355235932109E+03   -0.24219E-02   -0.24154E-02 10584   0.278E-01 0.132E-02
CGA:  20    -0.355238321102E+03   -0.23890E-02   -0.22702E-02 10584   0.711E-02-0.238E-02
CGA:  21    -0.355239267379E+03   -0.94628E-03   -0.96794E-03 10584   0.104E-01-0.804E-03
CGA:  22    -0.355239948538E+03   -0.68116E-03   -0.70656E-03 10584   0.500E-02 0.442E-03
CGA:  23    -0.355240554550E+03   -0.60601E-03   -0.59918E-03 10584   0.498E-02-0.123E-02
CGA:  24    -0.355241019354E+03   -0.46480E-03   -0.51193E-03 10584   0.855E-02-0.297E-02
CGA:  25    -0.355241351996E+03   -0.33264E-03   -0.43757E-03 10584   0.175E-02 0.143E-02
CGA:  26    -0.355241624292E+03   -0.27230E-03   -0.26945E-03 10584   0.191E-02 0.198E-03
CGA:  27    -0.355241796301E+03   -0.17201E-03   -0.66708E-03 10584   0.599E-02-0.256E-02
CGA:  28    -0.355241994765E+03   -0.19846E-03   -0.28222E-03 10584   0.126E-02 0.970E-03
CGA:  29    -0.355242235569E+03   -0.24080E-03   -0.23725E-03 10584   0.112E-02 0.910E-04
CGA:  30    -0.355242241059E+03   -0.54894E-05   -0.27280E-03 10584   0.920E-02-0.267E-02
CGA:  31    -0.355242495290E+03   -0.25423E-03   -0.37093E-03 10584   0.706E-03 0.112E-02
CGA:  32    -0.355242548000E+03   -0.52710E-04   -0.65029E-04 10584   0.480E-03 0.275E-03
CGA:  33    -0.355242499576E+03    0.48424E-04   -0.20674E-03 10584   0.448E-02-0.139E-02
CGA:  34    -0.355242661800E+03   -0.16222E-03   -0.21677E-03 10584   0.812E-03 0.585E-03
CGA:  35    -0.355242787738E+03   -0.12594E-03   -0.27147E-03 10584   0.145E-02-0.883E-03
CGA:  36    -0.355242940985E+03   -0.15325E-03   -0.14755E-03 10584   0.827E-03-0.162E-03
CGA:  37    -0.355242968537E+03   -0.27552E-04   -0.43977E-04 10584   0.197E-03 0.211E-03
CGA:  38    -0.355243000974E+03   -0.32437E-04   -0.31999E-04 10584   0.485E-03-0.154E-03
CGA:  39    -0.355243066081E+03   -0.65108E-04   -0.59723E-04 10584   0.132E-02-0.618E-03
CGA:  40    -0.355243084647E+03   -0.18565E-04   -0.46406E-04 10584   0.108E-03 0.278E-03
CGA:  41    -0.355243090219E+03   -0.55725E-05   -0.73101E-05 10584   0.953E-04 0.237E-04
  12 F= -.35524309E+03 E0= -.35523956E+03  d E =0.370185E+00  mag=    20.0000
       N       E                     dE             d eps       ncg     rms          ort
SDA:   1    -0.349396071339E+03    0.58470E+01    0.00000E+00 10584   0.153E+02 0.000E+00
CGA:   2    -0.354215472674E+03   -0.48194E+01   -0.47523E+01 10584   0.612E+01 0.382E+00
CGA:   3    -0.355050763836E+03   -0.83529E+00   -0.83555E+00 10584   0.375E+01-0.178E+00
CGA:   4    -0.355482979835E+03   -0.43222E+00   -0.43683E+00 10584   0.819E+00 0.165E+00
CGA:   5    -0.355601045216E+03   -0.11807E+00   -0.11797E+00 10584   0.345E+00 0.103E-01
CGA:   6    -0.355647850952E+03   -0.46806E-01   -0.46837E-01 10584   0.104E+00-0.118E-01
CGA:   7    -0.355666183864E+03   -0.18333E-01   -0.17964E-01 10584   0.438E-01 0.771E-02
CGA:   8    -0.355674183182E+03   -0.79993E-02   -0.80655E-02 10584   0.371E-01-0.174E-02
CGA:   9    -0.355678771143E+03   -0.45880E-02   -0.46030E-02 10584   0.117E-01 0.189E-02
CGA:  10    -0.355681475351E+03   -0.27042E-02   -0.26061E-02 10584   0.641E-02 0.126E-02
CGA:  11    -0.355682619811E+03   -0.11445E-02   -0.11945E-02 10584   0.721E-02-0.176E-02
CGA:  12    -0.355683179519E+03   -0.55971E-03   -0.57788E-03 10584   0.282E-02 0.543E-03
CGA:  13    -0.355683323317E+03   -0.14380E-03   -0.20117E-03 10584   0.132E-02 0.750E-03
CGA:  14    -0.355683503055E+03   -0.17974E-03   -0.19061E-03 10584   0.107E-02 0.485E-03
CGA:  15    -0.355683703280E+03   -0.20023E-03   -0.20144E-03 10584   0.866E-03-0.418E-03
CGA:  16    -0.355683749159E+03   -0.45879E-04   -0.49585E-04 10584   0.717E-03 0.788E-04
CGA:  17    -0.355683779173E+03   -0.30014E-04   -0.51254E-04 10584   0.426E-03 0.302E-03
CGA:  18    -0.355683815063E+03   -0.35890E-04   -0.49607E-04 10584   0.332E-03 0.279E-03
CGA:  19    -0.355683899562E+03   -0.84499E-04    0.31518E-01 10584   0.245E-03 0.437E-04
CGA:  20    -0.355683939912E+03   -0.40349E-04   -0.38629E-04 10584   0.795E-04 0.142E-03
CGA:  21    -0.355683939332E+03    0.57994E-06   -0.41682E-05 10584   0.579E-04 0.625E-04
  13 F= -.35568394E+03 E0= -.35568344E+03  d E =-.440849E+00  mag=    20.0000
       N       E                     dE             d eps       ncg     rms          ort
SDA:   1    -0.355657269091E+03    0.26671E-01    0.00000E+00 10584   0.116E+00 0.000E+00
CGA:   2    -0.355686772221E+03   -0.29503E-01   -0.28644E-01 10584   0.756E-01 0.695E-02
CGA:   3    -0.355696723130E+03   -0.99509E-02   -0.98973E-02 10584   0.280E-01-0.675E-02
CGA:   4    -0.355700196661E+03   -0.34735E-02   -0.34581E-02 10584   0.557E-02 0.328E-02
CGA:   5    -0.355701205120E+03   -0.10085E-02   -0.10133E-02 10584   0.318E-02-0.156E-03
CGA:   6    -0.355701533426E+03   -0.32831E-03   -0.32915E-03 10584   0.736E-03 0.284E-04
CGA:   7    -0.355701680904E+03   -0.14748E-03   -0.14683E-03 10584   0.321E-03 0.941E-05
CGA:   8    -0.355701733400E+03   -0.52496E-04   -0.50850E-04 10584   0.142E-03 0.749E-04
CGA:   9    -0.355701764429E+03   -0.31029E-04   -0.31267E-04 10584   0.107E-03-0.592E-05
CGA:  10    -0.355701785502E+03   -0.21072E-04   -0.25275E-04 10584   0.131E-03-0.391E-04
CGA:  11    -0.355701783908E+03    0.15942E-05   -0.33297E-05 10584   0.807E-04 0.475E-04
  14 F= -.35570178E+03 E0= -.35570120E+03  d E =-.178446E-01  mag=    20.0000
       N       E                     dE             d eps       ncg     rms          ort
SDA:   1    -0.355311494754E+03    0.39029E+00    0.00000E+00 10584   0.110E+01 0.000E+00
CGA:   2    -0.355603303856E+03   -0.29181E+00   -0.28899E+00 10584   0.658E+00 0.212E-01
CGA:   3    -0.355686105668E+03   -0.82802E-01   -0.82388E-01 10584   0.238E+00-0.195E-01
CGA:   4    -0.355719518872E+03   -0.33413E-01   -0.33348E-01 10584   0.544E-01 0.107E-01
CGA:   5    -0.355727844940E+03   -0.83261E-02   -0.83426E-02 10584   0.243E-01-0.211E-02
CGA:   6    -0.355730288693E+03   -0.24438E-02   -0.24799E-02 10584   0.637E-02 0.100E-02
CGA:   7    -0.355731483231E+03   -0.11945E-02   -0.11872E-02 10584   0.230E-02 0.176E-03
CGA:   8    -0.355731995171E+03   -0.51194E-03   -0.53588E-03 10584   0.176E-02-0.276E-03
CGA:   9    -0.355732135203E+03   -0.14003E-03   -0.15359E-03 10584   0.619E-03 0.298E-03
CGA:  10    -0.355732252404E+03   -0.11720E-03   -0.11462E-03 10584   0.459E-03 0.155E-03
CGA:  11    -0.355732336967E+03   -0.84563E-04   -0.84961E-04 10584   0.288E-03-0.753E-04
CGA:  12    -0.355732360400E+03   -0.23433E-04   -0.26502E-04 10584   0.141E-03 0.932E-04
CGA:  13    -0.355732370730E+03   -0.10330E-04   -0.14930E-04 10584   0.657E-04 0.744E-04
CGA:  14    -0.355732377721E+03   -0.69911E-05   -0.29556E-04 10584   0.386E-03-0.727E-04
CGA:  15    -0.355732388688E+03   -0.10967E-04   -0.19932E-04 10584   0.322E-04 0.867E-04
CGA:  16    -0.355732387871E+03    0.81675E-06   -0.15679E-05 10584   0.159E-04 0.218E-04
  15 F= -.35573239E+03 E0= -.35573173E+03  d E =-.306040E-01  mag=    20.0000
       N       E                     dE             d eps       ncg     rms          ort
SDA:   1    -0.355666928492E+03    0.65460E-01    0.00000E+00 10584   0.183E+00 0.000E+00
CGA:   2    -0.355724961482E+03   -0.58033E-01   -0.57805E-01 10584   0.783E-01 0.127E-02
CGA:   3    -0.355736645445E+03   -0.11684E-01   -0.11680E-01 10584   0.331E-01-0.263E-02
CGA:   4    -0.355740364369E+03   -0.37189E-02   -0.37877E-02 10584   0.693E-02 0.211E-02
CGA:   5    -0.355741488798E+03   -0.11244E-02   -0.11251E-02 10584   0.235E-02-0.137E-03
CGA:   6    -0.355741825788E+03   -0.33699E-03   -0.33682E-03 10584   0.108E-02-0.102E-03
CGA:   7    -0.355741930125E+03   -0.10434E-03   -0.11091E-03 10584   0.309E-03 0.159E-03
CGA:   8    -0.355742003691E+03   -0.73567E-04   -0.73398E-04 10584   0.157E-03 0.263E-05
CGA:   9    -0.355742022538E+03   -0.18846E-04   -0.56745E-04 10584   0.744E-03-0.181E-03
CGA:  10    -0.355742050747E+03   -0.28209E-04   -0.41687E-04 10584   0.734E-04 0.128E-03
CGA:  11    -0.355742052255E+03   -0.15087E-05   -0.56604E-05 10584   0.433E-04 0.468E-04
CGA:  12    -0.355742059705E+03   -0.74492E-05   -0.15087E-04 10584   0.195E-03-0.387E-04
  16 F= -.35574206E+03 E0= -.35574143E+03  d E =-.967183E-02  mag=    20.0000
       N       E                     dE             d eps       ncg     rms          ort
SDA:   1    -0.353567678202E+03    0.21744E+01    0.00000E+00 10584   0.534E+01 0.000E+00
CGA:   2    -0.355219537253E+03   -0.16519E+01   -0.16408E+01 10584   0.326E+01 0.707E-01
CGA:   3    -0.355574176573E+03   -0.35464E+00   -0.34031E+00 10584   0.976E+00-0.893E-02
CGA:   4    -0.355723588803E+03   -0.14941E+00   -0.14957E+00 10584   0.242E+00 0.205E-01
CGA:   5    -0.355754435577E+03   -0.30847E-01   -0.30847E-01 10584   0.868E-01 0.841E-03
CGA:   6    -0.355766470597E+03   -0.12035E-01   -0.12015E-01 10584   0.258E-01-0.108E-02
CGA:   7    -0.355770985030E+03   -0.45144E-02   -0.45084E-02 10584   0.854E-02 0.275E-03
CGA:   8    -0.355772531650E+03   -0.15466E-02   -0.15477E-02 10584   0.527E-02-0.627E-04
CGA:   9    -0.355773361413E+03   -0.82976E-03   -0.82993E-03 10584   0.315E-02-0.640E-03
CGA:  10    -0.355773722135E+03   -0.36072E-03   -0.37506E-03 10584   0.106E-02 0.619E-03
CGA:  11    -0.355774045016E+03   -0.32288E-03   -0.37918E-03 10584   0.144E-02-0.399E-03
CGA:  12    -0.355774075886E+03   -0.30870E-04   -0.54675E-04 10584   0.729E-03 0.228E-03
CGA:  13    -0.355774093200E+03   -0.17314E-04   -0.45884E-04 10584   0.377E-03 0.271E-03
CGA:  14    -0.355774122579E+03   -0.29379E-04   -0.41706E-04 10584   0.278E-03 0.168E-03
CGA:  15    -0.355774178193E+03   -0.55614E-04   -0.52412E-04 10584   0.154E-03-0.166E-03
CGA:  16    -0.355774204192E+03   -0.25999E-04   -0.25945E-04 10584   0.732E-04 0.252E-05
CGA:  17    -0.355774210499E+03   -0.63070E-05   -0.70440E-05 10584   0.199E-04 0.131E-04
  17 F= -.35577421E+03 E0= -.35577362E+03  d E =-.321508E-01  mag=    20.0000
       N       E                     dE             d eps       ncg     rms          ort
SDA:   1    -0.355101989528E+03    0.67221E+00    0.00000E+00 10584   0.159E+01 0.000E+00
CGA:   2    -0.355651793674E+03   -0.54980E+00   -0.54609E+00 10584   0.824E+00 0.192E-01
CGA:   3    -0.355742197137E+03   -0.90403E-01   -0.88340E-01 10584   0.262E+00-0.193E-01
CGA:   4    -0.355778503168E+03   -0.36306E-01   -0.36420E-01 10584   0.591E-01 0.788E-02
CGA:   5    -0.355786647691E+03   -0.81445E-02   -0.81284E-02 10584   0.240E-01-0.742E-03
CGA:   6    -0.355789770347E+03   -0.31227E-02   -0.31159E-02 10584   0.723E-02-0.323E-03
CGA:   7    -0.355790999712E+03   -0.12294E-02   -0.12260E-02 10584   0.199E-02 0.162E-03
CGA:   8    -0.355791410816E+03   -0.41110E-03   -0.41304E-03 10584   0.133E-02-0.404E-04
CGA:   9    -0.355791624382E+03   -0.21357E-03   -0.21709E-03 10584   0.106E-02-0.321E-03
CGA:  10    -0.355791702363E+03   -0.77982E-04   -0.88415E-04 10584   0.337E-03 0.224E-03
CGA:  11    -0.355791756961E+03   -0.54597E-04   -0.55348E-04 10584   0.313E-03 0.413E-04
CGA:  12    -0.355791815745E+03   -0.58784E-04   -0.61274E-04 10584   0.169E-03-0.116E-03
CGA:  13    -0.355791811686E+03    0.40588E-05   -0.41596E-05 10584   0.117E-03 0.716E-04
  18 F= -.35579181E+03 E0= -.35579124E+03  d E =-.176012E-01  mag=    20.0000
       N       E                     dE             d eps       ncg     rms          ort
SDA:   1    -0.352879650896E+03    0.29122E+01    0.00000E+00 10584   0.701E+01 0.000E+00
CGA:   2    -0.355009096532E+03   -0.21294E+01   -0.20959E+01 10584   0.549E+01 0.212E+00
CGA:   3    -0.355587402642E+03   -0.57831E+00   -0.55537E+00 10584   0.103E+01-0.199E-01
CGA:   4    -0.355764361229E+03   -0.17696E+00   -0.17646E+00 10584   0.301E+00 0.167E-01
CGA:   5    -0.355799741075E+03   -0.35380E-01   -0.35293E-01 10584   0.107E+00-0.172E-02
CGA:   6    -0.355815148434E+03   -0.15407E-01   -0.15407E-01 10584   0.288E-01-0.236E-03
CGA:   7    -0.355820387137E+03   -0.52387E-02   -0.52101E-02 10584   0.102E-01 0.812E-03
CGA:   8    -0.355822043447E+03   -0.16563E-02   -0.16598E-02 10584   0.682E-02-0.415E-03
CGA:   9    -0.355823093453E+03   -0.10500E-02   -0.10508E-02 10584   0.288E-02-0.752E-04
CGA:  10    -0.355823578284E+03   -0.48483E-03   -0.47678E-03 10584   0.144E-02 0.455E-03
CGA:  11    -0.355823942905E+03   -0.36462E-03   -0.41809E-03 10584   0.203E-02-0.535E-03
CGA:  12    -0.355824017724E+03   -0.74820E-04   -0.96382E-04 10584   0.868E-03 0.264E-03
CGA:  13    -0.355824040307E+03   -0.22582E-04   -0.51456E-04 10584   0.373E-03 0.288E-03
CGA:  14    -0.355824061087E+03   -0.20781E-04   -0.36005E-04 10584   0.297E-03 0.204E-03
CGA:  15    -0.355823863595E+03    0.19749E-03   -0.14438E-03 10584   0.647E-02-0.998E-03
CGA:  16    -0.355824152981E+03   -0.28939E-03   -0.36406E-03 10584   0.133E-03 0.664E-03
CGA:  17    -0.355824147947E+03    0.50334E-05   -0.51321E-05 10584   0.527E-04 0.844E-04
  19 F= -.35582415E+03 E0= -.35582368E+03  d E =-.323363E-01  mag=    20.0000
       N       E                     dE             d eps       ncg     rms          ort
SDA:   1    -0.342157972038E+03    0.13666E+02    0.00000E+00 10584   0.386E+02 0.000E+00
CGA:   2    -0.349051069356E+03   -0.68931E+01   -0.66935E+01 10584   0.313E+02 0.436E+01
CGA:   3    -0.353418755314E+03   -0.43677E+01   -0.34560E+01 10584   0.846E+01 0.330E+01
CGA:   4    -0.354643373049E+03   -0.12246E+01   -0.12276E+01 10584   0.554E+01 0.101E+00
CGA:   5    -0.355262030003E+03   -0.61866E+00   -0.61082E+00 10584   0.119E+01-0.238E-01
CGA:   6    -0.355354357679E+03   -0.92328E-01   -0.99520E-01 10584   0.725E+00 0.171E-02
CGA:   7    -0.355435883256E+03   -0.81526E-01   -0.80651E-01 10584   0.221E+00-0.186E-01
CGA:   8    -0.355459023517E+03   -0.23140E-01   -0.23632E-01 10584   0.150E+00 0.733E-02
CGA:   9    -0.355476476210E+03   -0.17453E-01   -0.17290E-01 10584   0.762E-01-0.529E-02
CGA:  10    -0.355483856185E+03   -0.73800E-02   -0.76156E-02 10584   0.369E-01 0.504E-02
CGA:  11    -0.355491288231E+03   -0.74320E-02   -0.78227E-02 10584   0.462E-01-0.589E-02
CGA:  12    -0.355493950650E+03   -0.26624E-02   -0.28410E-02 10584   0.123E-01 0.956E-03
CGA:  13    -0.355496403195E+03   -0.24525E-02   -0.23902E-02 10584   0.995E-02 0.101E-02
CGA:  14    -0.355497783323E+03   -0.13801E-02   -0.13380E-02 10584   0.132E-01-0.380E-02
CGA:  15    -0.355498512642E+03   -0.72932E-03   -0.66958E-03 10584   0.699E-02-0.130E-02
CGA:  16    -0.355498797961E+03   -0.28532E-03   -0.34553E-03 10584   0.431E-02 0.670E-03
CGA:  17    -0.355499223846E+03   -0.42588E-03   -0.43742E-03 10584   0.364E-02 0.279E-03
CGA:  18    -0.355499740007E+03   -0.51616E-03   -0.61016E-03 10584   0.117E-01-0.313E-02
CGA:  19    -0.355500241720E+03   -0.50171E-03   -0.55684E-03 10584   0.152E-02 0.502E-03
CGA:  20    -0.355500652459E+03   -0.41074E-03    0.23605E-02 10584   0.950E-03 0.507E-03
CGA:  21    -0.355499148638E+03    0.15038E-02   -0.81202E-03 10584   0.391E-01-0.396E-02
CGA:  22    -0.355500950460E+03   -0.18018E-02   -0.20064E-02 10584   0.562E-02-0.533E-03
CGA:  23    -0.355502019464E+03   -0.10690E-02   -0.99898E-03 10584   0.548E-02-0.187E-02
CGA:  24    -0.355502237915E+03   -0.21845E-03   -0.27830E-03 10584   0.147E-02 0.404E-03
CGA:  25    -0.355502288291E+03   -0.50376E-04   -0.97781E-04 10584   0.587E-03 0.313E-03
CGA:  26    -0.355502421485E+03   -0.13319E-03   -0.12496E-03 10584   0.129E-02-0.325E-03
CGA:  27    -0.355502585182E+03   -0.16370E-03   -0.12597E-03 10584   0.677E-03-0.373E-03
CGA:  28    -0.355502805026E+03   -0.21984E-03    0.27559E-03 10584   0.216E-02-0.520E-03
CGA:  29    -0.355502824714E+03   -0.19687E-04   -0.88966E-04 10584   0.262E-03 0.431E-03
CGA:  30    -0.355502829452E+03   -0.47385E-05   -0.19368E-04 10584   0.171E-03 0.115E-03
CGA:  31    -0.355502931692E+03   -0.10224E-03    0.14969E-03 10584   0.583E-03-0.720E-04
CGA:  32    -0.355503228385E+03   -0.29669E-03    0.21391E-04 10584   0.360E-02-0.803E-03
CGA:  33    -0.355503547551E+03   -0.31917E-03   -0.30368E-03 10584   0.109E-02-0.181E-03
CGA:  34    -0.355503729579E+03   -0.18203E-03   -0.14245E-03 10584   0.164E-02-0.102E-02
CGA:  35    -0.355503737179E+03   -0.76008E-05   -0.62673E-04 10584   0.197E-03 0.392E-03
CGA:  36    -0.355503733984E+03    0.31951E-05   -0.10438E-04 10584   0.108E-03 0.108E-03
  20 F= -.35550373E+03 E0= -.35550024E+03  d E =0.320414E+00  mag=    20.0000
       N       E                     dE             d eps       ncg     rms          ort
SDA:   1    -0.355057304084E+03    0.44643E+00    0.00000E+00 10584   0.215E+01 0.000E+00
CGA:   2    -0.355307223239E+03   -0.24992E+00   -0.23981E+00 10584   0.236E+01-0.391E-01
CGA:   3    -0.355647367351E+03   -0.34014E+00   -0.34050E+00 10584   0.354E+00 0.180E-01
CGA:   4    -0.355701768049E+03   -0.54401E-01   -0.54494E-01 10584   0.245E+00 0.140E-01
CGA:   5    -0.355726453252E+03   -0.24685E-01   -0.24109E-01 10584   0.750E-01-0.635E-02
CGA:   6    -0.355734144987E+03   -0.76917E-02   -0.77278E-02 10584   0.257E-01 0.336E-03
CGA:   7    -0.355737603644E+03   -0.34587E-02   -0.34914E-02 10584   0.719E-02 0.183E-02
CGA:   8    -0.355739373393E+03   -0.17697E-02   -0.18047E-02 10584   0.522E-02-0.427E-03
CGA:   9    -0.355739808912E+03   -0.43552E-03   -0.48079E-03 10584   0.261E-02 0.752E-03
CGA:  10    -0.355740283185E+03   -0.47427E-03   -0.47287E-03 10584   0.169E-02 0.247E-03
CGA:  11    -0.355740451713E+03   -0.16853E-03   -0.18902E-03 10584   0.674E-03 0.394E-03
CGA:  12    -0.355740566112E+03   -0.11440E-03   -0.11737E-03 10584   0.384E-03 0.317E-03
CGA:  13    -0.355740609693E+03   -0.43581E-04   -0.54179E-04 10584   0.210E-03 0.194E-03
CGA:  14    -0.355740607483E+03    0.22100E-05   -0.11396E-04 10584   0.132E-03 0.145E-03
CGA:  15    -0.355740616954E+03   -0.94717E-05   -0.13732E-04 10584   0.978E-04 0.110E-03
  21 F= -.35574062E+03 E0= -.35573847E+03  d E =-.236883E+00  mag=    20.0000
       N       E                     dE             d eps       ncg     rms          ort
SDA:   1    -0.355720480572E+03    0.20127E-01    0.00000E+00 10584   0.163E+00 0.000E+00
CGA:   2    -0.355762408211E+03   -0.41928E-01   -0.43356E-01 10584   0.229E+00-0.112E-01
CGA:   3    -0.355777630398E+03   -0.15222E-01   -0.15983E-01 10584   0.379E-01 0.468E-02
CGA:   4    -0.355782986262E+03   -0.53559E-02   -0.53604E-02 10584   0.201E-01 0.304E-02
CGA:   5    -0.355785624150E+03   -0.26379E-02   -0.25796E-02 10584   0.876E-02-0.272E-02
CGA:   6    -0.355786214394E+03   -0.59024E-03   -0.63606E-03 10584   0.289E-02 0.779E-03
CGA:   7    -0.355786473209E+03   -0.25881E-03   -0.29326E-03 10584   0.118E-02 0.794E-03
CGA:   8    -0.355786676733E+03   -0.20352E-03   -0.20372E-03 10584   0.137E-02-0.221E-03
CGA:   9    -0.355786762475E+03   -0.85742E-04   -0.92492E-04 10584   0.702E-03 0.127E-03
CGA:  10    -0.355786785553E+03   -0.23078E-04   -0.40771E-04 10584   0.407E-03 0.219E-03
CGA:  11    -0.355786817025E+03   -0.31472E-04   -0.42811E-04 10584   0.401E-03 0.235E-03
CGA:  12    -0.355786862149E+03   -0.45125E-04   -0.43157E-04 10584   0.371E-03-0.112E-03
CGA:  13    -0.355786866280E+03   -0.41302E-05   -0.16198E-04 10584   0.236E-03 0.188E-03
  22 F= -.35578687E+03 E0= -.35578523E+03  d E =-.462493E-01  mag=    20.0000
       N       E                     dE             d eps       ncg     rms          ort
SDA:   1    -0.354919943068E+03    0.86692E+00    0.00000E+00 10584   0.226E+01 0.000E+00
CGA:   2    -0.355611036802E+03   -0.69109E+00   -0.69584E+00 10584   0.141E+01-0.265E-01
CGA:   3    -0.355753086305E+03   -0.14205E+00   -0.14358E+00 10584   0.494E+00 0.292E-01
CGA:   4    -0.355830473676E+03   -0.77387E-01   -0.77725E-01 10584   0.145E+00-0.105E-01
CGA:   5    -0.355851481328E+03   -0.21008E-01   -0.20927E-01 10584   0.388E-01 0.348E-02
CGA:   6    -0.355857353827E+03   -0.58725E-02   -0.59062E-02 10584   0.196E-01-0.159E-02
CGA:   7    -0.355859808886E+03   -0.24551E-02   -0.24533E-02 10584   0.698E-02 0.948E-03
CGA:   8    -0.355861444473E+03   -0.16356E-02   -0.17292E-02 10584   0.450E-02-0.882E-03
CGA:   9    -0.355861909918E+03   -0.46544E-03   -0.47533E-03 10584   0.209E-02 0.712E-03
CGA:  10    -0.355862374129E+03   -0.46421E-03   -0.45994E-03 10584   0.836E-03 0.708E-04
CGA:  11    -0.355862586787E+03   -0.21266E-03   -0.23298E-03 10584   0.844E-03-0.157E-03
CGA:  12    -0.355862597066E+03   -0.10279E-04   -0.37283E-04 10584   0.366E-03 0.299E-03
CGA:  13    -0.355862599053E+03   -0.19872E-05   -0.23982E-04 10584   0.220E-03 0.241E-03
CGA:  14    -0.355862355424E+03    0.24363E-03   -0.13717E-03 10584   0.431E-02-0.584E-03
CGA:  15    -0.355862549422E+03   -0.19400E-03   -0.28407E-03 10584   0.524E-03 0.451E-03
CGA:  16    -0.355862635732E+03   -0.86310E-04   -0.92226E-04 10584   0.146E-03 0.765E-04
CGA:  17    -0.355862660456E+03   -0.24723E-04   -0.52045E-04 10584   0.126E-02-0.344E-03
CGA:  18    -0.355862676797E+03   -0.16341E-04   -0.64720E-04 10584   0.835E-04 0.250E-03
CGA:  19    -0.355862670544E+03    0.62529E-05   -0.39829E-05 10584   0.403E-04 0.544E-04
  23 F= -.35586267E+03 E0= -.35586206E+03  d E =-.758043E-01  mag=    20.0000
       N       E                     dE             d eps       ncg     rms          ort
SDA:   1    -0.355835615719E+03    0.27061E-01    0.00000E+00 10584   0.828E-01 0.000E+00
CGA:   2    -0.355858215411E+03   -0.22600E-01   -0.22602E-01 10584   0.445E-01-0.548E-04
CGA:   3    -0.355864540873E+03   -0.63255E-02   -0.62663E-02 10584   0.177E-01-0.778E-03
CGA:   4    -0.355866649058E+03   -0.21082E-02   -0.21436E-02 10584   0.523E-02 0.384E-03
CGA:   5    -0.355867331127E+03   -0.68207E-03   -0.69386E-03 10584   0.135E-02 0.147E-03
CGA:   6    -0.355867593137E+03   -0.26201E-03   -0.25705E-03 10584   0.795E-03-0.270E-03
CGA:   7    -0.355867631829E+03   -0.38692E-04   -0.55663E-04 10584   0.238E-03 0.147E-03
CGA:   8    -0.355867657086E+03   -0.25257E-04   -0.31392E-04 10584   0.145E-03 0.719E-04
CGA:   9    -0.355867692683E+03   -0.35597E-04   -0.49043E-04 10584   0.412E-03-0.199E-03
CGA:  10    -0.355867705295E+03   -0.12613E-04   -0.26439E-04 10584   0.754E-04 0.104E-03
CGA:  11    -0.355867709555E+03   -0.42594E-05   -0.81133E-05 10584   0.306E-04 0.373E-04
  24 F= -.35586771E+03 E0= -.35586713E+03  d E =-.503901E-02  mag=    20.0000
       N       E                     dE             d eps       ncg     rms          ort
SDA:   1    -0.355362365779E+03    0.50534E+00    0.00000E+00 10584   0.134E+01 0.000E+00
CGA:   2    -0.355727208620E+03   -0.36484E+00   -0.36491E+00 10584   0.783E+00-0.908E-03
CGA:   3    -0.355826425926E+03   -0.99217E-01   -0.99442E-01 10584   0.300E+00-0.140E-02
CGA:   4    -0.355863459149E+03   -0.37033E-01   -0.36946E-01 10584   0.838E-01 0.709E-03
CGA:   5    -0.355875065411E+03   -0.11606E-01   -0.11638E-01 10584   0.206E-01 0.534E-03
CGA:   6    -0.355878378222E+03   -0.33128E-02   -0.33030E-02 10584   0.793E-02-0.487E-03
CGA:   7    -0.355879378978E+03   -0.10008E-02   -0.10119E-02 10584   0.315E-02 0.218E-03
CGA:   8    -0.355879953838E+03   -0.57486E-03   -0.57520E-03 10584   0.142E-02-0.166E-03
CGA:   9    -0.355880218712E+03   -0.26487E-03   -0.27194E-03 10584   0.123E-02-0.264E-03
CGA:  10    -0.355880319434E+03   -0.10072E-03   -0.10869E-03 10584   0.373E-03 0.114E-03
CGA:  11    -0.355880401806E+03   -0.82372E-04   -0.81091E-04 10584   0.266E-03 0.508E-04
CGA:  12    -0.355880441530E+03   -0.39724E-04   -0.37086E-04 10584   0.164E-03-0.515E-04
CGA:  13    -0.355880456747E+03   -0.15217E-04   -0.16909E-04 10584   0.559E-04 0.381E-04
CGA:  14    -0.355880459594E+03   -0.28469E-05   -0.54380E-05 10584   0.312E-04 0.284E-04
CGA:  15    -0.355880438835E+03    0.20759E-04   -0.21675E-04 10584   0.678E-03-0.803E-04
CGA:  16    -0.355880469544E+03   -0.30710E-04   -0.38432E-04 10584   0.286E-04 0.562E-04
CGA:  17    -0.355880471638E+03   -0.20935E-05   -0.31937E-05 10584   0.159E-04 0.134E-04
  25 F= -.35588047E+03 E0= -.35587990E+03  d E =-.127621E-01  mag=    20.0000
       N       E                     dE             d eps       ncg     rms          ort
SDA:   1    -0.355866740828E+03    0.13729E-01    0.00000E+00 10584   0.373E-01 0.000E+00
CGA:   2    -0.355875399020E+03   -0.86582E-02   -0.86233E-02 10584   0.293E-01 0.669E-03
CGA:   3    -0.355878697144E+03   -0.32981E-02   -0.33135E-02 10584   0.945E-02 0.253E-03
CGA:   4    -0.355880102626E+03   -0.14055E-02   -0.14023E-02 10584   0.250E-02-0.111E-03
CGA:   5    -0.355880475176E+03   -0.37255E-03   -0.37465E-03 10584   0.693E-03 0.810E-04
CGA:   6    -0.355880603335E+03   -0.12816E-03   -0.12896E-03 10584   0.533E-03-0.201E-03
CGA:   7    -0.355880620525E+03   -0.17189E-04   -0.27303E-04 10584   0.167E-03 0.964E-04
CGA:   8    -0.355880623706E+03   -0.31814E-05   -0.11439E-04 10584   0.866E-04 0.729E-04
CGA:   9    -0.355880631057E+03   -0.73515E-05   -0.10784E-04 10584   0.514E-04 0.435E-04
CGA:  10    -0.355880648127E+03   -0.17069E-04    0.14611E-03 10584   0.932E-04-0.305E-04
CGA:  11    -0.355880646736E+03    0.13907E-05   -0.35003E-05 10584   0.206E-04 0.393E-04
  26 F= -.35588065E+03 E0= -.35588005E+03  d E =-.175098E-03  mag=    20.0000
       N       E                     dE             d eps       ncg     rms          ort
SDA:   1    -0.355865189022E+03    0.15459E-01    0.00000E+00 10584   0.433E-01 0.000E+00
CGA:   2    -0.355877377685E+03   -0.12189E-01   -0.12139E-01 10584   0.218E-01 0.368E-03
CGA:   3    -0.355880228640E+03   -0.28510E-02   -0.28628E-02 10584   0.924E-02 0.445E-03
CGA:   4    -0.355881452317E+03   -0.12237E-02   -0.12147E-02 10584   0.280E-02-0.359E-03
CGA:   5    -0.355881763514E+03   -0.31120E-03   -0.31970E-03 10584   0.584E-03 0.246E-03
CGA:   6    -0.355881895771E+03   -0.13226E-03   -0.16864E-03 10584   0.617E-03-0.319E-03
CGA:   7    -0.355881911074E+03   -0.15303E-04   -0.36763E-04 10584   0.134E-03 0.219E-03
CGA:   8    -0.355881918480E+03   -0.74054E-05   -0.13110E-04 10584   0.587E-04 0.714E-04
  27 F= -.35588192E+03 E0= -.35588131E+03  d E =-.127174E-02  mag=    20.0000
       N       E                     dE             d eps       ncg     rms          ort
SDA:   1    -0.355391451457E+03    0.49046E+00    0.00000E+00 10584   0.122E+01 0.000E+00
CGA:   2    -0.355765818384E+03   -0.37437E+00   -0.37394E+00 10584   0.632E+00 0.248E-02
CGA:   3    -0.355842172890E+03   -0.76355E-01   -0.76414E-01 10584   0.255E+00 0.127E-02
CGA:   4    -0.355875000342E+03   -0.32827E-01   -0.32751E-01 10584   0.621E-01-0.231E-02
CGA:   5    -0.355882956339E+03   -0.79560E-02   -0.80125E-02 10584   0.165E-01 0.227E-02
CGA:   6    -0.355885791408E+03   -0.28351E-02   -0.28705E-02 10584   0.896E-02-0.223E-02
CGA:   7    -0.355886531808E+03   -0.74040E-03   -0.80066E-03 10584   0.220E-02 0.120E-02
CGA:   8    -0.355886933161E+03   -0.40135E-03   -0.39744E-03 10584   0.115E-02 0.403E-03
CGA:   9    -0.355887160559E+03   -0.22740E-03   -0.34257E-03 10584   0.329E-02-0.115E-02
CGA:  10    -0.355887277347E+03   -0.11679E-03   -0.19062E-03 10584   0.432E-03 0.735E-03
CGA:  11    -0.355887303078E+03   -0.25731E-04   -0.41760E-04 10584   0.259E-03 0.223E-03
CGA:  12    -0.355887392130E+03   -0.89052E-04    0.11237E-03 10584   0.231E-03 0.980E-05
CGA:  13    -0.355887410584E+03   -0.18454E-04   -0.24248E-04 10584   0.834E-04 0.126E-03
CGA:  14    -0.355887407113E+03    0.34711E-05   -0.32589E-05 10584   0.550E-04 0.636E-04
  28 F= -.35588741E+03 E0= -.35588683E+03  d E =-.548863E-02  mag=    20.0000
       N       E                     dE             d eps       ncg     rms          ort
SDA:   1    -0.355213463761E+03    0.67395E+00    0.00000E+00 10584   0.164E+01 0.000E+00
CGA:   2    -0.355718658978E+03   -0.50520E+00   -0.50101E+00 10584   0.954E+00 0.246E-01
CGA:   3    -0.355833021727E+03   -0.11436E+00   -0.11350E+00 10584   0.308E+00-0.224E-01
CGA:   4    -0.355875535965E+03   -0.42514E-01   -0.42529E-01 10584   0.620E-01 0.933E-02
CGA:   5    -0.355885663459E+03   -0.10127E-01   -0.10188E-01 10584   0.269E-01-0.359E-02
CGA:   6    -0.355888359379E+03   -0.26959E-02   -0.27425E-02 10584   0.858E-02 0.121E-02
CGA:   7    -0.355889785136E+03   -0.14258E-02   -0.14231E-02 10584   0.266E-02 0.156E-03
CGA:   8    -0.355890378981E+03   -0.59384E-03   -0.64206E-03 10584   0.226E-02-0.515E-03
CGA:   9    -0.355890521812E+03   -0.14283E-03   -0.16649E-03 10584   0.812E-03 0.418E-03
CGA:  10    -0.355890626482E+03   -0.10467E-03   -0.11242E-03 10584   0.583E-03 0.278E-03
CGA:  11    -0.355890764674E+03   -0.13819E-03   -0.15062E-03 10584   0.502E-03-0.254E-03
CGA:  12    -0.355890793049E+03   -0.28374E-04   -0.29291E-04 10584   0.348E-03 0.209E-04
CGA:  13    -0.355890809105E+03   -0.16057E-04   -0.25949E-04 10584   0.184E-03 0.137E-03
CGA:  14    -0.355890821363E+03   -0.12258E-04   -0.19050E-04 10584   0.905E-04 0.103E-03
CGA:  15    -0.355890850252E+03   -0.28888E-04    0.37038E-04 10584   0.477E-04 0.245E-04
CGA:  16    -0.355890851888E+03   -0.16365E-05   -0.42012E-05 10584   0.191E-04 0.380E-04
  29 F= -.35589085E+03 E0= -.35589022E+03  d E =-.344478E-02  mag=    20.0000
       N       E                     dE             d eps       ncg     rms          ort
SDA:   1    -0.350848921561E+03    0.50419E+01    0.00000E+00 10584   0.127E+02 0.000E+00
CGA:   2    -0.354160002844E+03   -0.33111E+01   -0.32228E+01 10584   0.107E+02 0.667E+00
CGA:   3    -0.355423230486E+03   -0.12632E+01   -0.12373E+01 10584   0.217E+01-0.312E+00
CGA:   4    -0.355784730678E+03   -0.36150E+00   -0.35879E+00 10584   0.583E+00 0.567E-01
CGA:   5    -0.355854198174E+03   -0.69467E-01   -0.69143E-01 10584   0.211E+00-0.104E-01
CGA:   6    -0.355884660933E+03   -0.30463E-01   -0.30441E-01 10584   0.556E-01 0.123E-02
CGA:   7    -0.355893740006E+03   -0.90791E-02   -0.90175E-02 10584   0.236E-01 0.221E-02
CGA:   8    -0.355897822410E+03   -0.40824E-02   -0.41294E-02 10584   0.136E-01-0.145E-02
CGA:   9    -0.355899748598E+03   -0.19262E-02   -0.19107E-02 10584   0.517E-02 0.119E-02
CGA:  10    -0.355900945639E+03   -0.11970E-02   -0.11598E-02 10584   0.383E-02 0.532E-03
CGA:  11    -0.355901609306E+03   -0.66367E-03   -0.66780E-03 10584   0.230E-02-0.261E-03
CGA:  12    -0.355901895463E+03   -0.28616E-03   -0.29033E-03 10584   0.555E-03 0.561E-03
CGA:  13    -0.355902005815E+03   -0.11035E-03   -0.10661E-03 10584   0.269E-03 0.302E-03
CGA:  14    -0.355901959233E+03    0.46581E-04   -0.13122E-03 10584   0.372E-02-0.516E-03
CGA:  15    -0.355902108884E+03   -0.14965E-03   -0.20084E-03 10584   0.120E-03 0.458E-03
CGA:  16    -0.355902105526E+03    0.33584E-05   -0.56008E-05 10584   0.604E-04 0.789E-04
  30 F= -.35590211E+03 E0= -.35590173E+03  d E =-.112536E-01  mag=    20.0000
       N       E                     dE             d eps       ncg     rms          ort
SDA:   1    -0.338996394880E+03    0.16906E+02    0.00000E+00 10584   0.536E+02 0.000E+00
CGA:   2    -0.345861112165E+03   -0.68647E+01   -0.70830E+01 10584   0.389E+02 0.660E+01
CGA:   3    -0.351411788120E+03   -0.55507E+01   -0.39810E+01 10584   0.105E+02 0.106E+02
CGA:   4    -0.353416910196E+03   -0.20051E+01   -0.20118E+01 10584   0.102E+02-0.494E+00
CGA:   5    -0.354441824651E+03   -0.10249E+01   -0.10411E+01 10584   0.280E+01 0.114E+00
CGA:   6    -0.354614261559E+03   -0.17244E+00   -0.16312E+00 10584   0.136E+01 0.105E+00
CGA:   7    -0.354730622989E+03   -0.11636E+00   -0.12105E+00 10584   0.827E+00 0.858E-02
CGA:   8    -0.354830938257E+03   -0.10032E+00   -0.99949E-01 10584   0.248E+00-0.192E-01
CGA:   9    -0.354869603039E+03   -0.38665E-01   -0.38674E-01 10584   0.198E+00-0.171E-02
CGA:  10    -0.354890527839E+03   -0.20925E-01   -0.20832E-01 10584   0.104E+00-0.275E-02
CGA:  11    -0.354900680550E+03   -0.10153E-01   -0.10446E-01 10584   0.900E-01 0.522E-02
CGA:  12    -0.354911274386E+03   -0.10594E-01   -0.10485E-01 10584   0.381E-01-0.510E-02
CGA:  13    -0.354915043893E+03   -0.37695E-02   -0.37310E-02 10584   0.183E-01-0.188E-02
CGA:  14    -0.354918120551E+03   -0.30767E-02   -0.32982E-02 10584   0.263E-01-0.378E-02
CGA:  15    -0.354919208680E+03   -0.10881E-02   -0.11766E-02 10584   0.596E-02 0.706E-03
CGA:  16    -0.354919766215E+03   -0.55753E-03   -0.56664E-03 10584   0.725E-02 0.208E-03
CGA:  17    -0.354920847946E+03   -0.10817E-02   -0.12604E-02 10584   0.126E-01-0.447E-02
CGA:  18    -0.354921521076E+03   -0.67313E-03   -0.73250E-03 10584   0.279E-02 0.719E-03
CGA:  19    -0.354921939917E+03   -0.41884E-03   -0.49122E-03 10584   0.706E-02-0.176E-02
CGA:  20    -0.354922202844E+03   -0.26293E-03   -0.32742E-03 10584   0.110E-02 0.736E-03
CGA:  21    -0.354922301308E+03   -0.98463E-04   -0.31530E-03 10584   0.746E-02-0.163E-02
CGA:  22    -0.354922754551E+03   -0.45324E-03   -0.47116E-03 10584   0.753E-03 0.235E-03
CGA:  23    -0.354919345930E+03    0.34086E-02   -0.18176E-02 10584   0.112E+00-0.603E-02
CGA:  24    -0.354923435403E+03   -0.40895E-02   -0.48111E-02 10584   0.578E-02-0.448E-02
CGA:  25    -0.354923963810E+03   -0.52841E-03   -0.41936E-03 10584   0.752E-03-0.723E-03
CGA:  26    -0.354924033382E+03   -0.69572E-04   -0.77322E-04 10584   0.650E-03 0.706E-04
CGA:  27    -0.354924403809E+03   -0.37043E-03    0.30860E-03 10584   0.231E-02-0.199E-03
CGA:  28    -0.354925680195E+03   -0.12764E-02    0.18830E-03 10584   0.548E-02 0.465E-03
CGA:  29    -0.354885517650E+03    0.40163E-01   -0.16163E-01 10584   0.419E+00-0.587E-01
CGA:  30    -0.354915086744E+03   -0.29569E-01   -0.33589E-01 10584   0.370E-01-0.289E-01
CGA:  31    -0.354921401601E+03   -0.63149E-02   -0.70919E-02 10584   0.250E-01 0.420E-02
CGA:  32    -0.354926075648E+03   -0.46740E-02   -0.54413E-02 10584   0.347E-01 0.488E-02
CGA:  33    -0.354929283930E+03   -0.32083E-02   -0.48303E-02 10584   0.137E-01 0.960E-02
CGA:  34    -0.354931764956E+03   -0.24810E-02   -0.30418E-02 10584   0.103E-01 0.354E-02
CGA:  35    -0.354932651109E+03   -0.88615E-03   -0.19749E-02 10584   0.473E-02 0.593E-02
CGA:  36    -0.354933132068E+03   -0.48096E-03   -0.52274E-03 10584   0.557E-02 0.232E-03
CGA:  37    -0.354933347914E+03   -0.21585E-03   -0.72894E-03 10584   0.259E-02 0.272E-02
CGA:  38    -0.354933359813E+03   -0.11899E-04   -0.40409E-03 10584   0.319E-02 0.196E-02
CGA:  39    -0.354933688159E+03   -0.32835E-03   -0.28323E-03 10584   0.301E-02-0.194E-03
CGA:  40    -0.354933794752E+03   -0.10659E-03   -0.37627E-03 10584   0.191E-02 0.179E-02
CGA:  41    -0.354933741316E+03    0.53435E-04   -0.11916E-03 10584   0.116E-02 0.810E-03
CGA:  42    -0.354933704567E+03    0.36750E-04   -0.17132E-03 10584   0.143E-02 0.128E-02
CGA:  43    -0.354933836088E+03   -0.13152E-03   -0.15202E-03 10584   0.180E-02 0.144E-03
CGA:  44    -0.354933802570E+03    0.33518E-04   -0.21082E-03 10584   0.148E-02 0.170E-02
CGA:  45    -0.354933767426E+03    0.35144E-04   -0.83380E-04 10584   0.732E-03 0.636E-03
CGA:  46    -0.354933719334E+03    0.48092E-04   -0.80661E-04 10584   0.986E-03 0.822E-03
CGA:  47    -0.354933783292E+03   -0.63957E-04   -0.10114E-03 10584   0.990E-03 0.306E-03
CGA:  48    -0.354933731057E+03    0.52235E-04   -0.10905E-03 10584   0.876E-03 0.119E-02
CGA:  49    -0.354933704676E+03    0.26381E-04   -0.52984E-04 10584   0.558E-03 0.522E-03
CGA:  50    -0.354933699871E+03    0.48051E-05   -0.53130E-04 10584   0.534E-03 0.529E-03
CGA:  51    -0.354933670583E+03    0.29288E-04   -0.36906E-04 10584   0.510E-03 0.509E-03
CGA:  52    -0.354933660505E+03    0.10077E-04   -0.43011E-04 10584   0.489E-03 0.490E-03
CGA:  53    -0.354933635069E+03    0.25437E-04   -0.32083E-04 10584   0.470E-03 0.473E-03
CGA:  54    -0.354933621649E+03    0.13420E-04   -0.35166E-04 10584   0.451E-03 0.457E-03
CGA:  55    -0.354933599935E+03    0.21714E-04   -0.28302E-04 10584   0.436E-03 0.442E-03
CGA:  56    -0.354933584265E+03    0.15670E-04   -0.28847E-04 10584   0.421E-03 0.428E-03
CGA:  57    -0.354933565538E+03    0.18727E-04   -0.25026E-04 10584   0.408E-03 0.414E-03
CGA:  58    -0.354933549162E+03    0.16376E-04   -0.24101E-04 10584   0.396E-03 0.402E-03
CGA:  59    -0.354933532320E+03    0.16842E-04   -0.21927E-04 10584   0.385E-03 0.390E-03
CGA:  60    -0.354933516375E+03    0.15944E-04   -0.20587E-04 10584   0.374E-03 0.380E-03
CGA:  61    -0.354933500772E+03    0.15603E-04   -0.19104E-04 10584   0.365E-03 0.370E-03
CGA:  62    -0.354933485724E+03    0.15048E-04   -0.17850E-04 10584   0.356E-03 0.360E-03
CGA:  63    -0.354933471163E+03    0.14561E-04   -0.16676E-04 10584   0.348E-03 0.352E-03
CGA:  64    -0.354933457103E+03    0.14060E-04   -0.15610E-04 10584   0.340E-03 0.344E-03
CGA:  65    -0.354933443532E+03    0.13571E-04   -0.14631E-04 10584   0.333E-03 0.336E-03
CGA:  66    -0.354933430442E+03    0.13090E-04   -0.13732E-04 10584   0.326E-03 0.329E-03
CGA:  67    -0.354933417820E+03    0.12621E-04   -0.12905E-04 10584   0.320E-03 0.323E-03
CGA:  68    -0.354933405658E+03    0.12163E-04   -0.12142E-04 10584   0.314E-03 0.317E-03
CGA:  69    -0.354933393942E+03    0.11716E-04   -0.11438E-04 10584   0.308E-03 0.311E-03
CGA:  70    -0.354933382662E+03    0.11281E-04   -0.10786E-04 10584   0.303E-03 0.306E-03
CGA:  71    -0.354933371803E+03    0.10859E-04   -0.10182E-04 10584   0.298E-03 0.301E-03
CGA:  72    -0.354933361350E+03    0.10452E-04   -0.96207E-05 10584   0.294E-03 0.296E-03
CGA:  73    -0.354933351291E+03    0.10060E-04   -0.90978E-05 10584   0.290E-03 0.292E-03
CGA:  74    -0.354933341609E+03    0.96817E-05   -0.86103E-05 10584   0.286E-03 0.288E-03
  31 F= -.35493334E+03 E0= -.35492732E+03  d E =0.968764E+00  mag=    20.0000
       N       E                     dE             d eps       ncg     rms          ort
SDA:   1    -0.350647201916E+03    0.42861E+01    0.00000E+00 10584   0.133E+02 0.000E+00
CGA:   2    -0.353397970573E+03   -0.27508E+01   -0.29311E+01 10584   0.237E+02-0.135E+01
CGA:   3    -0.354999627662E+03   -0.16017E+01   -0.15991E+01 10584   0.303E+01-0.120E-01
CGA:   4    -0.355424743175E+03   -0.42512E+00   -0.41559E+00 10584   0.243E+01 0.186E+00
CGA:   5    -0.355656853036E+03   -0.23211E+00   -0.23153E+00 10584   0.568E+00-0.689E-01
CGA:   6    -0.355719642213E+03   -0.62789E-01   -0.63010E-01 10584   0.242E+00-0.110E-01
CGA:   7    -0.355751083974E+03   -0.31442E-01   -0.30853E-01 10584   0.786E-01 0.163E-01
CGA:   8    -0.355762402471E+03   -0.11318E-01   -0.11341E-01 10584   0.695E-01-0.537E-03
CGA:   9    -0.355770406103E+03   -0.80036E-02   -0.79157E-02 10584   0.246E-01 0.518E-02
CGA:  10    -0.355774318808E+03   -0.39127E-02   -0.38255E-02 10584   0.216E-01 0.185E-02
CGA:  11    -0.355777482309E+03   -0.31635E-02   -0.31135E-02 10584   0.980E-02 0.151E-02
CGA:  12    -0.355778523247E+03   -0.10409E-02   -0.10515E-02 10584   0.600E-02 0.283E-02
CGA:  13    -0.355779783764E+03   -0.12605E-02   -0.11737E-02 10584   0.291E-02 0.173E-02
CGA:  14    -0.355780357319E+03   -0.57355E-03   -0.55758E-03 10584   0.371E-02 0.344E-03
CGA:  15    -0.355780688530E+03   -0.33121E-03   -0.37086E-03 10584   0.202E-02 0.200E-02
CGA:  16    -0.355780802495E+03   -0.11397E-03   -0.14287E-03 10584   0.904E-03 0.778E-03
CGA:  17    -0.355780962728E+03   -0.16023E-03   -0.14991E-03 10584   0.847E-03 0.712E-03
CGA:  18    -0.355781091608E+03   -0.12888E-03   -0.13827E-03 10584   0.156E-02-0.171E-03
CGA:  19    -0.355781225533E+03   -0.13392E-03   -0.13487E-03 10584   0.157E-02 0.978E-03
CGA:  20    -0.355781279192E+03   -0.53659E-04   -0.81744E-04 10584   0.359E-03 0.489E-03
CGA:  21    -0.355781293168E+03   -0.13976E-04   -0.28120E-04 10584   0.374E-03 0.302E-03
CGA:  22    -0.355781375915E+03   -0.82746E-04   -0.69712E-04 10584   0.611E-03 0.152E-03
CGA:  23    -0.355781454358E+03   -0.78444E-04   -0.85211E-04 10584   0.331E-03 0.745E-03
CGA:  24    -0.355781466529E+03   -0.12170E-04   -0.21839E-04 10584   0.237E-03 0.231E-03
CGA:  25    -0.355781503594E+03   -0.37066E-04   -0.31154E-04 10584   0.224E-03 0.225E-03
CGA:  26    -0.355781519484E+03   -0.15890E-04   -0.19830E-04 10584   0.213E-03 0.214E-03
CGA:  27    -0.355781553802E+03   -0.34317E-04   -0.28540E-04 10584   0.202E-03 0.202E-03
CGA:  28    -0.355781565169E+03   -0.11367E-04   -0.16408E-04 10584   0.192E-03 0.192E-03
CGA:  29    -0.355781595464E+03   -0.30296E-04   -0.25399E-04 10584   0.182E-03 0.182E-03
CGA:  30    -0.355781604629E+03   -0.91647E-05   -0.14247E-04 10584   0.173E-03 0.173E-03
CGA:  31    -0.355781630459E+03   -0.25829E-04   -0.22135E-04 10584   0.164E-03 0.165E-03
CGA:  32    -0.355781638618E+03   -0.81594E-05   -0.12784E-04 10584   0.157E-03 0.157E-03
CGA:  33    -0.355781660161E+03   -0.21543E-04   -0.19068E-04 10584   0.149E-03 0.150E-03
CGA:  34    -0.355781667759E+03   -0.75982E-05   -0.11646E-04 10584   0.142E-03 0.143E-03
CGA:  35    -0.355781685492E+03   -0.17733E-04   -0.16345E-04 10584   0.135E-03 0.137E-03
CGA:  36    -0.355781692664E+03   -0.71716E-05   -0.10673E-04 10584   0.130E-03 0.131E-03
CGA:  37    -0.355781707118E+03   -0.14455E-04   -0.13983E-04 10584   0.124E-03 0.126E-03
CGA:  38    -0.355781713870E+03   -0.67513E-05   -0.97899E-05 10584   0.119E-03 0.120E-03
CGA:  39    -0.355781725677E+03   -0.11807E-04   -0.12021E-04 10584   0.114E-03 0.116E-03
CGA:  40    -0.355781731960E+03   -0.62834E-05   -0.89607E-05 10584   0.109E-03 0.111E-03
CGA:  41    -0.355781741638E+03   -0.96777E-05   -0.10392E-04 10584   0.105E-03 0.107E-03
  32 F= -.35578174E+03 E0= -.35578051E+03  d E =-.848400E+00  mag=    20.0000
       N       E                     dE             d eps       ncg     rms          ort
SDA:   1    -0.355367963006E+03    0.41377E+00    0.00000E+00 10584   0.120E+01 0.000E+00
CGA:   2    -0.355755675636E+03   -0.38771E+00   -0.38923E+00 10584   0.533E+00-0.760E-02
CGA:   3    -0.355818582136E+03   -0.62906E-01   -0.62768E-01 10584   0.222E+00 0.163E-01
CGA:   4    -0.355857178130E+03   -0.38596E-01   -0.38964E-01 10584   0.553E-01-0.655E-02
CGA:   5    -0.355864893436E+03   -0.77153E-02   -0.77569E-02 10584   0.253E-01-0.138E-02
CGA:   6    -0.355867330171E+03   -0.24367E-02   -0.24793E-02 10584   0.634E-02 0.258E-02
CGA:   7    -0.355868940298E+03   -0.16101E-02   -0.16844E-02 10584   0.424E-02-0.594E-03
CGA:   8    -0.355869381017E+03   -0.44072E-03   -0.44543E-03 10584   0.199E-02 0.827E-03
CGA:   9    -0.355869731649E+03   -0.35063E-03   -0.34058E-03 10584   0.963E-03 0.462E-03
CGA:  10    -0.355869739199E+03   -0.75498E-05   -0.49358E-03 10584   0.601E-02-0.166E-02
CGA:  11    -0.355870001542E+03   -0.26234E-03   -0.36689E-03 10584   0.704E-03 0.134E-02
CGA:  12    -0.355870046882E+03   -0.45339E-04   -0.65882E-04 10584   0.364E-03 0.361E-03
CGA:  13    -0.355870150032E+03   -0.10315E-03    0.28067E-03 10584   0.186E-03 0.727E-04
CGA:  14    -0.355870156594E+03   -0.65619E-05   -0.15464E-04 10584   0.815E-04 0.145E-03
  33 F= -.35587016E+03 E0= -.35586953E+03  d E =-.884150E-01  mag=    20.0000
       N       E                     dE             d eps       ncg     rms          ort
SDA:   1    -0.355465372498E+03    0.40478E+00    0.00000E+00 10584   0.105E+01 0.000E+00
CGA:   2    -0.355797744023E+03   -0.33237E+00   -0.33150E+00 10584   0.430E+00 0.433E-02
CGA:   3    -0.355856922966E+03   -0.59179E-01   -0.59175E-01 10584   0.225E+00 0.473E-03
CGA:   4    -0.355886586466E+03   -0.29664E-01   -0.29664E-01 10584   0.575E-01 0.472E-03
CGA:   5    -0.355895534850E+03   -0.89484E-02   -0.90098E-02 10584   0.189E-01-0.254E-02
CGA:   6    -0.355897656424E+03   -0.21216E-02   -0.21540E-02 10584   0.577E-02 0.222E-02
CGA:   7    -0.355898994263E+03   -0.13378E-02   -0.14157E-02 10584   0.396E-02-0.902E-03
CGA:   8    -0.355899459219E+03   -0.46496E-03   -0.46397E-03 10584   0.157E-02 0.665E-03
CGA:   9    -0.355899781654E+03   -0.32244E-03   -0.31897E-03 10584   0.761E-03 0.932E-04
CGA:  10    -0.355899839289E+03   -0.57635E-04   -0.36717E-03 10584   0.290E-02-0.982E-03
CGA:  11    -0.355899955573E+03   -0.11628E-03   -0.18813E-03 10584   0.534E-03 0.783E-03
CGA:  12    -0.355900005832E+03   -0.50259E-04   -0.64103E-04 10584   0.260E-03 0.247E-03
CGA:  13    -0.355900048302E+03   -0.42470E-04   -0.10414E-03 10584   0.734E-03-0.492E-03
CGA:  14    -0.355900060080E+03   -0.11778E-04   -0.40626E-04 10584   0.174E-03 0.290E-03
CGA:  15    -0.355900063138E+03   -0.30573E-05   -0.13959E-04 10584   0.894E-04 0.119E-03
CGA:  16    -0.355900100821E+03   -0.37683E-04    0.14078E-04 10584   0.467E-04 0.143E-04
CGA:  17    -0.355900099958E+03    0.86232E-06   -0.26036E-05 10584   0.195E-04 0.358E-04
  34 F= -.35590010E+03 E0= -.35589968E+03  d E =-.299434E-01  mag=    20.0000
       N       E                     dE             d eps       ncg     rms          ort
SDA:   1    -0.355818434084E+03    0.81667E-01    0.00000E+00 10584   0.223E+00 0.000E+00
CGA:   2    -0.355879383938E+03   -0.60950E-01   -0.60843E-01 10584   0.145E+00 0.692E-03
CGA:   3    -0.355895881391E+03   -0.16497E-01   -0.16555E-01 10584   0.490E-01 0.135E-02
CGA:   4    -0.355903793982E+03   -0.79126E-02   -0.79433E-02 10584   0.153E-01-0.143E-02
CGA:   5    -0.355905773902E+03   -0.19799E-02   -0.19833E-02 10584   0.454E-02 0.471E-03
CGA:   6    -0.355906447147E+03   -0.67325E-03   -0.67509E-03 10584   0.203E-02-0.455E-03
CGA:   7    -0.355906671653E+03   -0.22451E-03   -0.22860E-03 10584   0.591E-03 0.266E-03
CGA:   8    -0.355906817227E+03   -0.14557E-03   -0.14125E-03 10584   0.246E-03 0.600E-04
CGA:   9    -0.355906879109E+03   -0.61882E-04   -0.94828E-04 10584   0.691E-03-0.160E-03
CGA:  10    -0.355906902346E+03   -0.23237E-04   -0.38510E-04 10584   0.875E-04 0.155E-03
CGA:  11    -0.355906907812E+03   -0.54651E-05   -0.85263E-05 10584   0.562E-04 0.443E-04
CGA:  12    -0.355906926039E+03   -0.18228E-04    0.34560E-04 10584   0.530E-04-0.161E-05
CGA:  13    -0.355906928357E+03   -0.23179E-05   -0.42334E-05 10584   0.218E-04 0.304E-04
  35 F= -.35590693E+03 E0= -.35590652E+03  d E =-.682840E-02  mag=    20.0000
       N       E                     dE             d eps       ncg     rms          ort
SDA:   1    -0.355836050972E+03    0.70875E-01    0.00000E+00 10584   0.197E+00 0.000E+00
CGA:   2    -0.355884188966E+03   -0.48138E-01   -0.48005E-01 10584   0.142E+00 0.121E-02
CGA:   3    -0.355901389717E+03   -0.17201E-01   -0.17208E-01 10584   0.474E-01-0.181E-03
CGA:   4    -0.355908447327E+03   -0.70576E-02   -0.70664E-02 10584   0.137E-01-0.989E-03
CGA:   5    -0.355910148643E+03   -0.17013E-02   -0.17135E-02 10584   0.376E-02 0.898E-03
CGA:   6    -0.355910821570E+03   -0.67293E-03   -0.71531E-03 10584   0.267E-02-0.112E-02
CGA:   7    -0.355910952087E+03   -0.13052E-03   -0.15632E-03 10584   0.853E-03 0.433E-03
CGA:   8    -0.355911006168E+03   -0.54081E-04   -0.74184E-04 10584   0.464E-03 0.310E-03
CGA:   9    -0.355911098101E+03   -0.91933E-04   -0.92224E-04 10584   0.228E-03-0.311E-04
CGA:  10    -0.355911157005E+03   -0.58904E-04    0.13886E-02 10584   0.226E-03-0.200E-04
CGA:  11    -0.355911172711E+03   -0.15706E-04   -0.18635E-04 10584   0.111E-03 0.630E-04
CGA:  12    -0.355911170642E+03    0.20688E-05   -0.58022E-05 10584   0.580E-04 0.841E-04
  36 F= -.35591117E+03 E0= -.35591075E+03  d E =-.424228E-02  mag=    20.0000
       N       E                     dE             d eps       ncg     rms          ort
SDA:   1    -0.355851055168E+03    0.60118E-01    0.00000E+00 10584   0.166E+00 0.000E+00
CGA:   2    -0.355892507179E+03   -0.41452E-01   -0.41246E-01 10584   0.988E-01 0.167E-02
CGA:   3    -0.355906600969E+03   -0.14094E-01   -0.14114E-01 10584   0.375E-01-0.238E-02
CGA:   4    -0.355911411692E+03   -0.48107E-02   -0.48129E-02 10584   0.886E-02 0.107E-02
CGA:   5    -0.355912867185E+03   -0.14555E-02   -0.14594E-02 10584   0.248E-02-0.149E-03
CGA:   6    -0.355913257349E+03   -0.39016E-03   -0.39615E-03 10584   0.111E-02-0.215E-03
CGA:   7    -0.355913346171E+03   -0.88823E-04   -0.97945E-04 10584   0.335E-03 0.228E-03
CGA:   8    -0.355913426519E+03   -0.80348E-04   -0.83382E-04 10584   0.261E-03-0.421E-04
CGA:   9    -0.355913457928E+03   -0.31410E-04   -0.31392E-04 10584   0.194E-03-0.521E-04
CGA:  10    -0.355913470290E+03   -0.12361E-04   -0.14634E-04 10584   0.912E-04 0.520E-04
CGA:  11    -0.355913478545E+03   -0.82553E-05   -0.96623E-05 10584   0.453E-04 0.269E-04
CGA:  12    -0.355913489354E+03   -0.10809E-04   -0.16710E-04 10584   0.771E-04-0.390E-04
CGA:  13    -0.355913488615E+03    0.73883E-06   -0.34264E-05 10584   0.277E-04 0.433E-04
  37 F= -.35591349E+03 E0= -.35591307E+03  d E =-.231797E-02  mag=    20.0000
       N       E                     dE             d eps       ncg     rms          ort
SDA:   1    -0.355832780979E+03    0.80708E-01    0.00000E+00 10584   0.205E+00 0.000E+00
CGA:   2    -0.355893373246E+03   -0.60592E-01   -0.60231E-01 10584   0.104E+00 0.221E-02
CGA:   3    -0.355908377224E+03   -0.15004E-01   -0.15014E-01 10584   0.416E-01-0.313E-02
CGA:   4    -0.355913091546E+03   -0.47143E-02   -0.47670E-02 10584   0.102E-01 0.228E-02
CGA:   5    -0.355914670228E+03   -0.15787E-02   -0.15814E-02 10584   0.330E-02-0.318E-03
CGA:   6    -0.355915136903E+03   -0.46667E-03   -0.46699E-03 10584   0.125E-02-0.478E-04
CGA:   7    -0.355915272441E+03   -0.13554E-03   -0.14098E-03 10584   0.382E-03 0.216E-03
CGA:   8    -0.355915368718E+03   -0.96277E-04   -0.96214E-04 10584   0.179E-03 0.635E-06
CGA:   9    -0.355915402593E+03   -0.33875E-04   -0.32688E-04 10584   0.104E-03 0.294E-04
CGA:  10    -0.355915421869E+03   -0.19276E-04   -0.19265E-04 10584   0.692E-04 0.538E-06
CGA:  11    -0.355915427612E+03   -0.57430E-05   -0.71038E-05 10584   0.266E-04 0.317E-04
  38 F= -.35591543E+03 E0= -.35591505E+03  d E =-.193900E-02  mag=    20.0000
       N       E                     dE             d eps       ncg     rms          ort
SDA:   1    -0.355788957584E+03    0.12646E+00    0.00000E+00 10584   0.308E+00 0.000E+00
CGA:   2    -0.355886028664E+03   -0.97071E-01   -0.96943E-01 10584   0.155E+00 0.712E-03
CGA:   3    -0.355906448577E+03   -0.20420E-01   -0.20324E-01 10584   0.607E-01-0.451E-02
CGA:   4    -0.355913625642E+03   -0.71771E-02   -0.72571E-02 10584   0.130E-01 0.291E-02
CGA:   5    -0.355915659743E+03   -0.20341E-02   -0.20343E-02 10584   0.444E-02-0.147E-03
CGA:   6    -0.355916266727E+03   -0.60698E-03   -0.60639E-03 10584   0.186E-02-0.627E-04
CGA:   7    -0.355916518010E+03   -0.25128E-03   -0.25169E-03 10584   0.570E-03 0.390E-04
CGA:   8    -0.355916649901E+03   -0.13189E-03   -0.13883E-03 10584   0.319E-03-0.762E-04
CGA:   9    -0.355916704172E+03   -0.54271E-04   -0.66416E-04 10584   0.471E-03-0.137E-03
CGA:  10    -0.355916723001E+03   -0.18830E-04   -0.21178E-04 10584   0.189E-03 0.300E-04
CGA:  11    -0.355916730894E+03   -0.78925E-05   -0.12153E-04 10584   0.966E-04 0.463E-04
CGA:  12    -0.355916741330E+03   -0.10436E-04   -0.12104E-04 10584   0.748E-04 0.356E-04
CGA:  13    -0.355916751851E+03   -0.10521E-04   -0.10059E-04 10584   0.249E-04-0.100E-04
CGA:  14    -0.355916755004E+03   -0.31524E-05   -0.31442E-05 10584   0.166E-04 0.261E-05
  39 F= -.35591676E+03 E0= -.35591635E+03  d E =-.132739E-02  mag=    20.0000
       N       E                     dE             d eps       ncg     rms          ort
SDA:   1    -0.355708619336E+03    0.20813E+00    0.00000E+00 10584   0.493E+00 0.000E+00
CGA:   2    -0.355877845742E+03   -0.16923E+00   -0.16891E+00 10584   0.205E+00 0.152E-02
CGA:   3    -0.355905070224E+03   -0.27224E-01   -0.27161E-01 10584   0.844E-01-0.343E-02
CGA:   4    -0.355914930400E+03   -0.98602E-02   -0.99464E-02 10584   0.189E-01 0.263E-02
CGA:   5    -0.355917737683E+03   -0.28073E-02   -0.28071E-02 10584   0.585E-02-0.582E-04
CGA:   6    -0.355918625356E+03   -0.88767E-03   -0.88910E-03 10584   0.267E-02-0.254E-03
CGA:   7    -0.355918927436E+03   -0.30208E-03   -0.30738E-03 10584   0.710E-03 0.195E-03
CGA:   8    -0.355919099152E+03   -0.17172E-03   -0.17732E-03 10584   0.354E-03-0.650E-04
CGA:   9    -0.355919158587E+03   -0.59435E-04   -0.58695E-04 10584   0.223E-03 0.224E-04
CGA:  10    -0.355919190813E+03   -0.32226E-04   -0.32463E-04 10584   0.972E-04 0.159E-04
CGA:  11    -0.355919202351E+03   -0.11538E-04   -0.12840E-04 10584   0.334E-04 0.469E-04
CGA:  12    -0.355919213509E+03   -0.11158E-04   -0.11379E-04 10584   0.347E-04-0.284E-05
CGA:  13    -0.355919214463E+03   -0.95414E-06   -0.19910E-05 10584   0.162E-04 0.114E-04
  40 F= -.35591921E+03 E0= -.35591887E+03  d E =-.245946E-02  mag=    20.0000
       N       E                     dE             d eps       ncg     rms          ort
SDA:   1    -0.354793827255E+03    0.11254E+01    0.00000E+00 10584   0.262E+01 0.000E+00
CGA:   2    -0.355659210290E+03   -0.86538E+00   -0.85719E+00 10584   0.163E+01 0.454E-01
CGA:   3    -0.355828148350E+03   -0.16894E+00   -0.16509E+00 10584   0.390E+00-0.229E-01
CGA:   4    -0.355896026362E+03   -0.67878E-01   -0.67592E-01 10584   0.821E-01 0.101E-01
CGA:   5    -0.355908174426E+03   -0.12148E-01   -0.12125E-01 10584   0.383E-01-0.286E-02
CGA:   6    -0.355912513749E+03   -0.43393E-02   -0.43782E-02 10584   0.104E-01 0.107E-02
CGA:   7    -0.355914400371E+03   -0.18866E-02   -0.18718E-02 10584   0.310E-02 0.559E-03
CGA:   8    -0.355915144956E+03   -0.74459E-03   -0.81852E-03 10584   0.316E-02-0.746E-03
CGA:   9    -0.355915305512E+03   -0.16056E-03   -0.20460E-03 10584   0.116E-02 0.618E-03
CGA:  10    -0.355915402435E+03   -0.96923E-04   -0.12327E-03 10584   0.729E-03 0.415E-03
CGA:  11    -0.355915577153E+03   -0.17472E-03   -0.18081E-03 10584   0.481E-03-0.184E-03
CGA:  12    -0.355915620639E+03   -0.43486E-04   -0.98265E-04 10584   0.104E-02-0.449E-03
CGA:  13    -0.355915648794E+03   -0.28155E-04   -0.62665E-04 10584   0.219E-03 0.354E-03
CGA:  14    -0.355915655603E+03   -0.68089E-05   -0.19343E-04 10584   0.128E-03 0.145E-03
CGA:  15    -0.355915700188E+03   -0.44585E-04    0.53809E-04 10584   0.685E-04 0.200E-04
CGA:  16    -0.355915700248E+03   -0.60532E-07   -0.45294E-05 10584   0.259E-04 0.493E-04
  41 F= -.35591570E+03 E0= -.35591535E+03  d E =0.351421E-02  mag=    20.0000
       N       E                     dE             d eps       ncg     rms          ort
SDA:   1    -0.351129552664E+03    0.47861E+01    0.00000E+00 10584   0.119E+02 0.000E+00
CGA:   2    -0.354284563698E+03   -0.31550E+01   -0.30736E+01 10584   0.102E+02 0.626E+00
CGA:   3    -0.355489648627E+03   -0.12051E+01   -0.11750E+01 10584   0.182E+01-0.196E+00
CGA:   4    -0.355813494625E+03   -0.32385E+00   -0.32213E+00 10584   0.495E+00 0.368E-01
CGA:   5    -0.355871808184E+03   -0.58314E-01   -0.57728E-01 10584   0.184E+00-0.110E-01
CGA:   6    -0.355898152112E+03   -0.26344E-01   -0.26332E-01 10584   0.515E-01 0.202E-02
CGA:   7    -0.355906154335E+03   -0.80022E-02   -0.79773E-02 10584   0.216E-01 0.218E-02
CGA:   8    -0.355910031353E+03   -0.38770E-02   -0.39343E-02 10584   0.126E-01-0.183E-02
CGA:   9    -0.355911660578E+03   -0.16292E-02   -0.16335E-02 10584   0.440E-02 0.155E-02
CGA:  10    -0.355912777770E+03   -0.11172E-02   -0.10815E-02 10584   0.320E-02 0.466E-03
CGA:  11    -0.355913347503E+03   -0.56973E-03   -0.57424E-03 10584   0.213E-02-0.319E-03
CGA:  12    -0.355913602789E+03   -0.25529E-03   -0.26102E-03 10584   0.488E-03 0.449E-03
CGA:  13    -0.355913681614E+03   -0.78825E-04   -0.81297E-04 10584   0.289E-03 0.232E-03
CGA:  14    -0.355913757782E+03   -0.76168E-04   -0.77365E-04 10584   0.171E-03-0.362E-04
CGA:  15    -0.355913767049E+03   -0.92671E-05   -0.13051E-04 10584   0.832E-04 0.603E-04
  42 F= -.35591377E+03 E0= -.35591347E+03  d E =0.193320E-02  mag=    20.0000
       N       E                     dE             d eps       ncg     rms          ort
SDA:   1    -0.345548017484E+03    0.10366E+02    0.00000E+00 10584   0.260E+02 0.000E+00
CGA:   2    -0.352324867601E+03   -0.67769E+01   -0.66986E+01 10584   0.152E+02 0.627E+00
CGA:   3    -0.354207362244E+03   -0.18825E+01   -0.18231E+01 10584   0.596E+01-0.400E+00
[...]
CGA:   5    -0.356389081410E+03   -0.25630E-01   -0.26377E-01 10584   0.694E-01 0.906E-02
CGA:   6    -0.356400531031E+03   -0.11450E-01   -0.11498E-01 10584   0.302E-01-0.242E-02
CGA:   7    -0.356403821030E+03   -0.32900E-02   -0.33016E-02 10584   0.117E-01 0.305E-03
CGA:   8    -0.356405907296E+03   -0.20863E-02   -0.20701E-02 10584   0.335E-02 0.469E-03
CGA:   9    -0.356406820304E+03   -0.91301E-03   -0.88478E-03 10584   0.154E-02 0.251E-03
CGA:  10    -0.356407154963E+03   -0.33466E-03   -0.32353E-03 10584   0.108E-02 0.235E-03
CGA:  11    -0.356407317969E+03   -0.16301E-03   -0.16586E-03 10584   0.385E-03 0.162E-03
CGA:  12    -0.356407383300E+03   -0.65331E-04   -0.65640E-04 10584   0.138E-03 0.185E-03
CGA:  13    -0.356407420382E+03   -0.37082E-04   -0.35771E-04 10584   0.948E-04 0.521E-04
CGA:  14    -0.356407416789E+03    0.35923E-05   -0.62060E-05 10584   0.521E-04 0.943E-04
  97 F= -.35640742E+03 E0= -.35640211E+03  d E =-.296912E-01  mag=    16.0000
       N       E                     dE             d eps       ncg     rms          ort
SDA:   1    -0.355861964336E+03    0.54546E+00    0.00000E+00 10584   0.139E+01 0.000E+00
CGA:   2    -0.356253408767E+03   -0.39144E+00   -0.39101E+00 10584   0.787E+00 0.295E-02
CGA:   3    -0.356364422330E+03   -0.11101E+00   -0.11100E+00 10584   0.272E+00-0.204E-02
CGA:   4    -0.356395002286E+03   -0.30580E-01   -0.30846E-01 10584   0.954E-01 0.621E-02
CGA:   5    -0.356406690046E+03   -0.11688E-01   -0.11538E-01 10584   0.337E-01-0.505E-02
CGA:   6    -0.356410175295E+03   -0.34852E-02   -0.35760E-02 10584   0.817E-02 0.270E-02
CGA:   7    -0.356411784758E+03   -0.16095E-02   -0.16536E-02 10584   0.416E-02-0.997E-03
CGA:   8    -0.356412157680E+03   -0.37292E-03   -0.39990E-03 10584   0.154E-02 0.752E-03
CGA:   9    -0.356412471532E+03   -0.31385E-03   -0.31625E-03 10584   0.764E-03-0.794E-04
CGA:  10    -0.356412585176E+03   -0.11364E-03   -0.11252E-03 10584   0.474E-03 0.107E-03
CGA:  11    -0.356412670349E+03   -0.85173E-04   -0.84951E-04 10584   0.200E-03 0.179E-04
CGA:  12    -0.356412688721E+03   -0.18372E-04   -0.22175E-04 10584   0.981E-04 0.961E-04
CGA:  13    -0.356412719041E+03   -0.30320E-04   -0.30420E-04 10584   0.689E-04-0.193E-05
CGA:  14    -0.356412724772E+03   -0.57310E-05   -0.63882E-05 10584   0.362E-04 0.122E-04
  98 F= -.35641272E+03 E0= -.35640738E+03  d E =-.530798E-02  mag=    16.0000
       N       E                     dE             d eps       ncg     rms          ort
SDA:   1    -0.356228875270E+03    0.18384E+00    0.00000E+00 10584   0.445E+00 0.000E+00
CGA:   2    -0.356360993524E+03   -0.13212E+00   -0.13101E+00 10584   0.391E+00 0.716E-02
CGA:   3    -0.356396761417E+03   -0.35768E-01   -0.35007E-01 10584   0.944E-01-0.859E-02
CGA:   4    -0.356409006355E+03   -0.12245E-01   -0.12310E-01 10584   0.300E-01 0.495E-02
CGA:   5    -0.356412908239E+03   -0.39019E-02   -0.38482E-02 10584   0.123E-01-0.225E-02
CGA:   6    -0.356414247701E+03   -0.13395E-02   -0.13575E-02 10584   0.240E-02 0.699E-03
CGA:   7    -0.356414734777E+03   -0.48708E-03   -0.49386E-03 10584   0.157E-02-0.132E-03
CGA:   8    -0.356414866158E+03   -0.13138E-03   -0.14375E-03 10584   0.445E-03 0.253E-03
CGA:   9    -0.356414922658E+03   -0.56500E-04   -0.19911E-03 10584   0.206E-02-0.590E-03
CGA:  10    -0.356415015057E+03   -0.92399E-04   -0.13273E-03 10584   0.259E-03 0.440E-03
CGA:  11    -0.356415059792E+03   -0.44734E-04   -0.44390E-04 10584   0.163E-03-0.384E-04
CGA:  12    -0.356414768480E+03    0.29131E-03   -0.92852E-04 10584   0.423E-02-0.739E-03
CGA:  13    -0.356415045659E+03   -0.27718E-03   -0.31985E-03 10584   0.462E-03 0.407E-03
CGA:  14    -0.356415130757E+03   -0.85098E-04   -0.85095E-04 10584   0.116E-03-0.139E-05
CGA:  15    -0.356415126400E+03    0.43575E-05   -0.40545E-04 10584   0.861E-03-0.251E-03
CGA:  16    -0.356415164745E+03   -0.38345E-04   -0.54323E-04 10584   0.429E-04 0.135E-03
CGA:  17    -0.356415166888E+03   -0.21434E-05   -0.37364E-05 10584   0.177E-04 0.161E-04
  99 F= -.35641517E+03 E0= -.35640976E+03  d E =-.244212E-02  mag=    16.0000
       N       E                     dE             d eps       ncg     rms          ort
SDA:   1    -0.355727358156E+03    0.68781E+00    0.00000E+00 10584   0.161E+01 0.000E+00
CGA:   2    -0.356262830065E+03   -0.53547E+00   -0.53413E+00 10584   0.914E+00 0.879E-02
CGA:   3    -0.356365114495E+03   -0.10228E+00   -0.10020E+00 10584   0.274E+00-0.462E-02
CGA:   4    -0.356400783406E+03   -0.35669E-01   -0.36125E-01 10584   0.790E-01 0.647E-02
CGA:   5    -0.356410565730E+03   -0.97823E-02   -0.95733E-02 10584   0.342E-01-0.295E-02
CGA:   6    -0.356414064611E+03   -0.34989E-02   -0.36164E-02 10584   0.845E-02 0.165E-02
CGA:   7    -0.356415605852E+03   -0.15412E-02   -0.15407E-02 10584   0.523E-02-0.533E-03
CGA:   8    -0.356416082886E+03   -0.47703E-03   -0.50242E-03 10584   0.143E-02 0.330E-03
CGA:   9    -0.356416407788E+03   -0.32490E-03   -0.32098E-03 10584   0.717E-03 0.974E-04
CGA:  10    -0.356416563826E+03   -0.15604E-03   -0.17476E-03 10584   0.160E-02-0.342E-03
CGA:  11    -0.356416597082E+03   -0.33256E-04   -0.48347E-04 10584   0.107E-02 0.125E-03
CGA:  12    -0.356416617544E+03   -0.20462E-04   -0.47473E-04 10584   0.333E-03 0.203E-03
CGA:  13    -0.356416632942E+03   -0.15398E-04   -0.24343E-04 10584   0.296E-03 0.867E-04
CGA:  14    -0.356416679492E+03   -0.46550E-04   -0.44808E-04 10584   0.326E-03-0.464E-04
CGA:  15    -0.356416697633E+03   -0.18141E-04   -0.14879E-04 10584   0.150E-03-0.323E-04
CGA:  16    -0.356416701704E+03   -0.40711E-05   -0.58495E-05 10584   0.879E-04 0.162E-04
 100 F= -.35641670E+03 E0= -.35641106E+03  d E =-.153482E-02  mag=    16.0000
       N       E                     dE             d eps       ncg     rms          ort
SDA:   1    -0.346040657768E+03    0.10376E+02    0.00000E+00 10584   0.337E+02 0.000E+00
CGA:   2    -0.350737043913E+03   -0.46964E+01   -0.47083E+01 10584   0.250E+02 0.293E+01
CGA:   3    -0.354572214306E+03   -0.38352E+01   -0.38317E+01 10584   0.172E+02-0.417E+01
CGA:   4    -0.355797914174E+03   -0.12257E+01   -0.12784E+01 10584   0.302E+01 0.150E-01
CGA:   5    -0.356145783314E+03   -0.34787E+00   -0.35056E+00 10584   0.108E+01 0.471E-01
CGA:   6    -0.356277870374E+03   -0.13209E+00   -0.13107E+00 10584   0.728E+00-0.332E-01
CGA:   7    -0.356333083123E+03   -0.55213E-01   -0.58505E-01 10584   0.156E+00 0.937E-02
CGA:   8    -0.356353523810E+03   -0.20441E-01   -0.20484E-01 10584   0.952E-01 0.757E-02
CGA:   9    -0.356366535411E+03   -0.13012E-01   -0.12994E-01 10584   0.540E-01-0.468E-02
CGA:  10    -0.356371577499E+03   -0.50421E-02   -0.51868E-02 10584   0.234E-01 0.370E-02
CGA:  11    -0.356375068084E+03   -0.34906E-02   -0.34805E-02 10584   0.156E-01 0.131E-02
CGA:  12    -0.356377297688E+03   -0.22296E-02   -0.22310E-02 10584   0.939E-02-0.462E-03
CGA:  13    -0.356378170587E+03   -0.87290E-03   -0.93679E-03 10584   0.485E-02 0.203E-02
CGA:  14    -0.356378932629E+03   -0.76204E-03   -0.76306E-03 10584   0.244E-02 0.587E-03
CGA:  15    -0.356379363592E+03   -0.43096E-03   -0.45481E-03 10584   0.302E-02-0.692E-03
CGA:  16    -0.356379450833E+03   -0.87240E-04   -0.13606E-03 10584   0.157E-02 0.671E-03
CGA:  17    -0.356379489497E+03   -0.38664E-04   -0.89793E-04 10584   0.706E-03 0.611E-03
CGA:  18    -0.356379554778E+03   -0.65282E-04   -0.77136E-04 10584   0.631E-03 0.252E-03
CGA:  19    -0.356379666553E+03   -0.11177E-03   -0.12117E-03 10584   0.978E-03-0.506E-03
CGA:  20    -0.356379699101E+03   -0.32548E-04   -0.55376E-04 10584   0.229E-03 0.336E-03
CGA:  21    -0.356379725449E+03   -0.26347E-04   -0.28693E-04 10584   0.155E-03 0.846E-04
CGA:  22    -0.356379781394E+03   -0.55945E-04    0.11666E-03 10584   0.117E-03 0.240E-04
CGA:  23    -0.356379817988E+03   -0.36594E-04    0.59080E-04 10584   0.142E-03 0.535E-04
CGA:  24    -0.356379695095E+03    0.12289E-03   -0.76577E-04 10584   0.288E-02-0.445E-03
CGA:  25    -0.356380015648E+03   -0.32055E-03   -0.24587E-03 10584   0.800E-03-0.572E-03
CGA:  26    -0.356380040041E+03   -0.24394E-04   -0.52086E-04 10584   0.192E-03 0.212E-03
CGA:  27    -0.356380055008E+03   -0.14966E-04   -0.22417E-04 10584   0.153E-03 0.662E-04
CGA:  28    -0.356380152865E+03   -0.97858E-04    0.10141E-03 10584   0.169E-03-0.132E-04
CGA:  29    -0.356380180340E+03   -0.27475E-04   -0.22486E-04 10584   0.997E-04-0.951E-04
CGA:  30    -0.356380181765E+03   -0.14248E-05   -0.66523E-05 10584   0.395E-04 0.404E-04
CGA:  31    -0.356380206890E+03   -0.25125E-04    0.26604E-04 10584   0.483E-04 0.439E-05
CGA:  32    -0.356380253115E+03   -0.46225E-04    0.39916E-05 10584   0.864E-04-0.519E-04
CGA:  33    -0.356380248933E+03    0.41821E-05   -0.31325E-05 10584   0.314E-04 0.477E-04
 101 F= -.35638025E+03 E0= -.35637392E+03  d E =0.364528E-01  mag=    16.0000
       N       E                     dE             d eps       ncg     rms          ort
SDA:   1    -0.353506986857E+03    0.28733E+01    0.00000E+00 10584   0.702E+01 0.000E+00
CGA:   2    -0.355496815994E+03   -0.19898E+01   -0.19623E+01 10584   0.660E+01 0.230E+00
CGA:   3    -0.356115814204E+03   -0.61900E+00   -0.54840E+00 10584   0.119E+01 0.554E+00
CGA:   4    -0.356324439366E+03   -0.20863E+00   -0.20873E+00 10584   0.534E+00 0.592E-02
CGA:   5    -0.356386066580E+03   -0.61627E-01   -0.61754E-01 10584   0.147E+00 0.162E-02
CGA:   6    -0.356407739034E+03   -0.21672E-01   -0.21612E-01 10584   0.527E-01-0.212E-02
CGA:   7    -0.356413739132E+03   -0.60001E-02   -0.61205E-02 10584   0.267E-01 0.197E-02
CGA:   8    -0.356417872707E+03   -0.41336E-02   -0.41002E-02 10584   0.110E-01-0.165E-02
CGA:   9    -0.356419101316E+03   -0.12286E-02   -0.12847E-02 10584   0.602E-02 0.130E-02
CGA:  10    -0.356420393914E+03   -0.12926E-02   -0.13160E-02 10584   0.353E-02-0.783E-03
CGA:  11    -0.356420899306E+03   -0.50539E-03   -0.50588E-03 10584   0.159E-02 0.234E-03
CGA:  12    -0.356421166979E+03   -0.26767E-03   -0.26899E-03 10584   0.634E-03 0.165E-03
CGA:  13    -0.356420991734E+03    0.17524E-03   -0.37555E-03 10584   0.812E-02-0.149E-02
CGA:  14    -0.356421259433E+03   -0.26770E-03   -0.41814E-03 10584   0.660E-03 0.107E-02
CGA:  15    -0.356421318993E+03   -0.59560E-04   -0.77228E-04 10584   0.442E-03 0.237E-03
CGA:  16    -0.356421422571E+03   -0.10358E-03   -0.14419E-03 10584   0.990E-03-0.620E-03
CGA:  17    -0.356421429104E+03   -0.65330E-05   -0.47177E-04 10584   0.191E-03 0.311E-03
CGA:  18    -0.356421432895E+03   -0.37910E-05   -0.15664E-04 10584   0.125E-03 0.109E-03
CGA:  19    -0.356421499600E+03   -0.66704E-04    0.17081E-04 10584   0.204E-03-0.439E-04
CGA:  20    -0.356421505799E+03   -0.61993E-05   -0.98830E-05 10584   0.998E-04 0.401E-04
 102 F= -.35642151E+03 E0= -.35641573E+03  d E =-.412569E-01  mag=    16.0000
       N       E                     dE             d eps       ncg     rms          ort
SDA:   1    -0.354218499875E+03    0.22030E+01    0.00000E+00 10584   0.521E+01 0.000E+00
CGA:   2    -0.355826240845E+03   -0.16077E+01   -0.15861E+01 10584   0.395E+01 0.142E+00
CGA:   3    -0.356228281398E+03   -0.40204E+00   -0.38388E+00 10584   0.881E+00 0.370E-01
CGA:   4    -0.356353196626E+03   -0.12492E+00   -0.12530E+00 10584   0.370E+00 0.164E-01
CGA:   5    -0.356392964053E+03   -0.39767E-01   -0.39352E-01 10584   0.991E-01-0.547E-02
CGA:   6    -0.356407920957E+03   -0.14957E-01   -0.14961E-01 10584   0.260E-01 0.284E-02
CGA:   7    -0.356412657006E+03   -0.47360E-02   -0.48116E-02 10584   0.223E-01-0.297E-02
CGA:   8    -0.356414382968E+03   -0.17260E-02   -0.18655E-02 10584   0.451E-02 0.216E-02
CGA:   9    -0.356415155431E+03   -0.77246E-03   -0.77057E-03 10584   0.414E-02 0.691E-03
CGA:  10    -0.356415878736E+03   -0.72331E-03   -0.72187E-03 10584   0.255E-02-0.804E-03
CGA:  11    -0.356416058687E+03   -0.17995E-03   -0.21201E-03 10584   0.126E-02 0.639E-03
CGA:  12    -0.356416211401E+03   -0.15271E-03   -0.16757E-03 10584   0.613E-03 0.334E-03
CGA:  13    -0.356416349581E+03   -0.13818E-03   -0.18319E-03 10584   0.140E-02-0.512E-03
CGA:  14    -0.356416367286E+03   -0.17706E-04   -0.64897E-04 10584   0.244E-03 0.442E-03
CGA:  15    -0.356416368180E+03   -0.89379E-06   -0.15971E-04 10584   0.134E-03 0.154E-03
CGA:  16    -0.356416416565E+03   -0.48385E-04    0.35433E-04 10584   0.957E-04 0.147E-04
CGA:  17    -0.356416413383E+03    0.31822E-05   -0.43107E-05 10584   0.458E-04 0.735E-04
 103 F= -.35641641E+03 E0= -.35641078E+03  d E =0.509242E-02  mag=    16.0000
       N       E                     dE             d eps       ncg     rms          ort
SDA:   1    -0.355512018040E+03    0.90440E+00    0.00000E+00 10584   0.225E+01 0.000E+00
CGA:   2    -0.356110969728E+03   -0.59895E+00   -0.59075E+00 10584   0.187E+01 0.614E-01
CGA:   3    -0.356322447620E+03   -0.21148E+00   -0.20893E+00 10584   0.474E+00-0.326E-01
CGA:   4    -0.356383135803E+03   -0.60688E-01   -0.60770E-01 10584   0.172E+00 0.106E-01
CGA:   5    -0.356401900854E+03   -0.18765E-01   -0.18564E-01 10584   0.557E-01-0.539E-02
CGA:   6    -0.356409282629E+03   -0.73818E-02   -0.73754E-02 10584   0.131E-01 0.320E-02
CGA:   7    -0.356411535325E+03   -0.22527E-02   -0.23452E-02 10584   0.127E-01-0.273E-02
CGA:   8    -0.356412463504E+03   -0.92818E-03   -0.98199E-03 10584   0.296E-02 0.134E-02
CGA:   9    -0.356412739063E+03   -0.27556E-03   -0.30373E-03 10584   0.192E-02 0.670E-03
CGA:  10    -0.356413146535E+03   -0.40747E-03   -0.44375E-03 10584   0.152E-02-0.647E-03
CGA:  11    -0.356413233696E+03   -0.87161E-04   -0.93945E-04 10584   0.104E-02 0.159E-03
CGA:  12    -0.356413344636E+03   -0.11094E-03   -0.11852E-03 10584   0.507E-03 0.250E-03
CGA:  13    -0.356413432478E+03   -0.87842E-04   -0.91425E-04 10584   0.547E-03-0.263E-03
CGA:  14    -0.356413450753E+03   -0.18275E-04   -0.31777E-04 10584   0.141E-03 0.181E-03
CGA:  15    -0.356413473786E+03   -0.23033E-04   -0.23168E-04 10584   0.115E-03 0.280E-04
CGA:  16    -0.356413338148E+03    0.13564E-03   -0.69050E-04 10584   0.248E-02-0.553E-03
CGA:  17    -0.356413429194E+03   -0.91045E-04   -0.13803E-03 10584   0.365E-03 0.500E-03
CGA:  18    -0.356413480207E+03   -0.51013E-04   -0.52304E-04 10584   0.198E-03 0.547E-04
CGA:  19    -0.356413436961E+03    0.43246E-04   -0.71594E-04 10584   0.201E-02-0.665E-03
CGA:  20    -0.356413491767E+03   -0.54805E-04   -0.10075E-03 10584   0.238E-03 0.451E-03
CGA:  21    -0.356413505996E+03   -0.14230E-04   -0.21022E-04 10584   0.121E-03 0.929E-04
CGA:  22    -0.356413434960E+03    0.71037E-04   -0.70457E-04 10584   0.112E-02-0.510E-03
CGA:  23    -0.356413474988E+03   -0.40028E-04   -0.75805E-04 10584   0.322E-03 0.404E-03
CGA:  24    -0.356413524748E+03   -0.49760E-04   -0.51484E-04 10584   0.632E-04 0.513E-04
CGA:  25    -0.356413572459E+03   -0.47711E-04    0.46240E-05 10584   0.128E-03-0.715E-04
CGA:  26    -0.356413565691E+03    0.67679E-05   -0.30210E-05 10584   0.486E-04 0.777E-04
 104 F= -.35641357E+03 E0= -.35640793E+03  d E =0.284769E-02  mag=    16.0000
       N       E                     dE             d eps       ncg     rms          ort
SDA:   1    -0.355712512752E+03    0.70106E+00    0.00000E+00 10584   0.164E+01 0.000E+00
CGA:   2    -0.356271903493E+03   -0.55939E+00   -0.55952E+00 10584   0.844E+00-0.488E-03
CGA:   3    -0.356365188792E+03   -0.93285E-01   -0.93726E-01 10584   0.306E+00 0.603E-02
CGA:   4    -0.356402160136E+03   -0.36971E-01   -0.36731E-01 10584   0.101E+00-0.760E-02
CGA:   5    -0.356412728642E+03   -0.10569E-01   -0.10772E-01 10584   0.296E-01 0.528E-02
CGA:   6    -0.356417423954E+03   -0.46953E-02   -0.47262E-02 10584   0.127E-01-0.316E-02
CGA:   7    -0.356418723277E+03   -0.12993E-02   -0.13346E-02 10584   0.411E-02 0.139E-02
CGA:   8    -0.356419498170E+03   -0.77489E-03   -0.78386E-03 10584   0.209E-02-0.295E-03
CGA:   9    -0.356419802392E+03   -0.30422E-03   -0.30384E-03 10584   0.109E-02 0.267E-04
CGA:  10    -0.356420017820E+03   -0.21543E-03   -0.22427E-03 10584   0.662E-03-0.150E-03
CGA:  11    -0.356420056176E+03   -0.38357E-04   -0.51140E-04 10584   0.309E-03 0.224E-03
CGA:  12    -0.356420127464E+03   -0.71288E-04   -0.72288E-04 10584   0.216E-03-0.325E-04
CGA:  13    -0.356420103236E+03    0.24228E-04   -0.67600E-04 10584   0.164E-02-0.451E-03
CGA:  14    -0.356420150241E+03   -0.47005E-04   -0.82802E-04 10584   0.172E-03 0.335E-03
CGA:  15    -0.356420165776E+03   -0.15535E-04   -0.18047E-04 10584   0.112E-03 0.397E-04
CGA:  16    -0.356420207104E+03   -0.41328E-04    0.48450E-03 10584   0.585E-04-0.342E-04
CGA:  17    -0.356420205661E+03    0.14433E-05   -0.13277E-05 10584   0.369E-04 0.242E-04
 105 F= -.35642021E+03 E0= -.35641455E+03  d E =-.663997E-02  mag=    16.0000
       N       E                     dE             d eps       ncg     rms          ort
SDA:   1    -0.356218168625E+03    0.20204E+00    0.00000E+00 10584   0.481E+00 0.000E+00
CGA:   2    -0.356371679541E+03   -0.15351E+00   -0.15354E+00 10584   0.294E+00-0.244E-03
CGA:   3    -0.356404571616E+03   -0.32892E-01   -0.32894E-01 10584   0.951E-01-0.468E-03
CGA:   4    -0.356416729218E+03   -0.12158E-01   -0.12189E-01 10584   0.236E-01 0.189E-02
CGA:   5    -0.356420565378E+03   -0.38362E-02   -0.38825E-02 10584   0.113E-01-0.245E-02
CGA:   6    -0.356421373110E+03   -0.80773E-03   -0.89377E-03 10584   0.287E-02 0.153E-02
CGA:   7    -0.356421864535E+03   -0.49142E-03   -0.49158E-03 10584   0.183E-02-0.156E-04
CGA:   8    -0.356422118681E+03   -0.25415E-03   -0.25356E-03 10584   0.104E-02-0.364E-03
CGA:   9    -0.356422184844E+03   -0.66164E-04   -0.78292E-04 10584   0.454E-03 0.260E-03
CGA:  10    -0.356422241790E+03   -0.56945E-04   -0.59376E-04 10584   0.259E-03 0.708E-04
CGA:  11    -0.356422268496E+03   -0.26707E-04   -0.10721E-03 10584   0.933E-03-0.366E-03
CGA:  12    -0.356422292411E+03   -0.23915E-04   -0.51984E-04 10584   0.210E-03 0.303E-03
CGA:  13    -0.356422313161E+03   -0.20750E-04   -0.25126E-04 10584   0.115E-03 0.824E-04
CGA:  14    -0.356421422866E+03    0.89030E-03   -0.48341E-03 10584   0.958E-02-0.133E-02
CGA:  15    -0.356421901970E+03   -0.47910E-03   -0.64530E-03 10584   0.187E-02 0.787E-03
CGA:  16    -0.356422317112E+03   -0.41514E-03   -0.40249E-03 10584   0.458E-03-0.261E-03
CGA:  17    -0.356422342613E+03   -0.25500E-04   -0.30556E-04 10584   0.109E-03 0.294E-04
CGA:  18    -0.356422347784E+03   -0.51713E-05   -0.11027E-04 10584   0.425E-04 0.414E-04
 106 F= -.35642235E+03 E0= -.35641673E+03  d E =-.214212E-02  mag=    16.0000
       N       E                     dE             d eps       ncg     rms          ort
SDA:   1    -0.356392423444E+03    0.29919E-01    0.00000E+00 10584   0.745E-01 0.000E+00
CGA:   2    -0.356413797439E+03   -0.21374E-01   -0.21326E-01 10584   0.503E-01 0.741E-03
CGA:   3    -0.356419839441E+03   -0.60420E-02   -0.59296E-02 10584   0.155E-01-0.772E-03
CGA:   4    -0.356421845950E+03   -0.20065E-02   -0.20329E-02 10584   0.398E-02 0.274E-03
CGA:   5    -0.356422425793E+03   -0.57984E-03   -0.57822E-03 10584   0.144E-02-0.238E-04
CGA:   6    -0.356422600850E+03   -0.17506E-03   -0.17845E-03 10584   0.398E-03 0.376E-04
CGA:   7    -0.356422684682E+03   -0.83832E-04   -0.83611E-04 10584   0.211E-03-0.577E-04
CGA:   8    -0.356422688753E+03   -0.40710E-05   -0.14092E-04 10584   0.810E-04 0.768E-04
CGA:   9    -0.356422703762E+03   -0.15009E-04   -0.15237E-04 10584   0.626E-04 0.353E-05
CGA:  10    -0.356422593931E+03    0.10983E-03   -0.43470E-04 10584   0.188E-02-0.329E-03
CGA:  11    -0.356422651918E+03   -0.57986E-04   -0.11045E-03 10584   0.257E-03 0.316E-03
CGA:  12    -0.356422695363E+03   -0.43445E-04   -0.43699E-04 10584   0.148E-03 0.366E-05
CGA:  13    -0.356422722717E+03   -0.27354E-04   -0.20023E-04 10584   0.110E-03-0.959E-04
CGA:  14    -0.356422717895E+03    0.48218E-05   -0.43698E-05 10584   0.330E-04 0.550E-04
 107 F= -.35642272E+03 E0= -.35641709E+03  d E =-.370111E-03  mag=    16.0000
