       N       E                     dE             d eps       ncg     rms          ort
DAV:   1     0.221136173384E+04    0.22114E+04   -0.13321E+05  9828   0.154E+03
DAV:   2    -0.256608447809E+03   -0.24680E+04   -0.23617E+04  9828   0.407E+02
DAV:   3    -0.477927993433E+03   -0.22132E+03   -0.21721E+03  9828   0.141E+02
DAV:   4    -0.486119707327E+03   -0.81917E+01   -0.80997E+01  9828   0.306E+01
DAV:   5    -0.486494493233E+03   -0.37479E+00   -0.37396E+00  9828   0.464E+00
SDA:   6    -0.257015954568E+03    0.22948E+03   -0.37396E+00  9828   0.923E+03 0.000E+00
CGA:   7    -0.316637224731E+03   -0.59621E+02   -0.99571E+02  9828   0.485E+03-0.976E+00
CGA:   8    -0.326419727520E+03   -0.97825E+01   -0.38869E+02  9828   0.484E+03-0.285E+02
CGA:   9    -0.345072572577E+03   -0.18653E+02   -0.30379E+02  9828   0.266E+03-0.223E+03
CGA:  10    -0.352568776323E+03   -0.74962E+01   -0.95285E+01  9828   0.219E+03 0.358E+02
CGA:  11    -0.350742076266E+03    0.18267E+01   -0.14471E+02  9828   0.123E+04-0.606E+03
CGA:  12    -0.358604721288E+03   -0.78626E+01   -0.99859E+02  9828   0.149E+03-0.962E+02
CGA:  13    -0.367694050856E+03   -0.90893E+01   -0.61922E+01  9828   0.211E+03 0.625E+02
CGA:  14    -0.364306510567E+03    0.33875E+01   -0.12615E+02  9828   0.387E+03-0.423E+03
CGA:  15    -0.368350595463E+03   -0.40441E+01   -0.24218E+02  9828   0.302E+03-0.176E+03
CGA:  16    -0.368334539018E+03    0.16056E-01   -0.88095E+01  9828   0.470E+03-0.262E+03
CGA:  17    -0.357847057363E+03    0.10487E+02   -0.31435E+02  9828   0.343E+03-0.338E+02
CGA:  18    -0.365241431719E+03   -0.73944E+01   -0.21424E+02  9828   0.875E+02-0.208E+02
CGA:  19    -0.368676917554E+03   -0.34355E+01   -0.25550E+01  9828   0.763E+02 0.520E+02
CGA:  20    -0.377418015812E+03   -0.87411E+01   -0.18370E+01  9828   0.185E+02-0.122E+02
CGA:  21    -0.377652420993E+03   -0.23441E+00   -0.21604E+00  9828   0.231E+02 0.649E+00
CGA:  22    -0.376834501018E+03    0.81792E+00   -0.69326E+00  9828   0.705E+02-0.326E+02
CGA:  23    -0.375980892342E+03    0.85361E+00   -0.27560E+01  9828   0.188E+03-0.903E+02
CGA:  24    -0.374393885973E+03    0.15870E+01   -0.67830E+01  9828   0.299E+03-0.229E+03
CGA:  25    -0.370060137713E+03    0.43337E+01   -0.13295E+02  9828   0.159E+03-0.105E+03
CGA:  26    -0.378324202553E+03   -0.82641E+01   -0.29872E+01  9828   0.492E+02-0.155E+03
CGA:  27    -0.378029857855E+03    0.29434E+00   -0.13076E+01  9828   0.791E+02-0.572E+02
CGA:  28    -0.378096148332E+03   -0.66290E-01   -0.19035E+01  9828   0.736E+02-0.695E+02
CGA:  29    -0.377698055759E+03    0.39809E+00   -0.20755E+01  9828   0.106E+03-0.809E+02
CGA:  30    -0.378050362138E+03   -0.35231E+00   -0.26341E+01  9828   0.795E+02-0.849E+02
CGA:  31    -0.378224086703E+03   -0.17372E+00   -0.21375E+01  9828   0.690E+02-0.684E+02
CGA:  32    -0.379002043821E+03   -0.77796E+00   -0.14205E+01  9828   0.126E+02-0.250E+02
CGA:  33    -0.379229166538E+03   -0.22712E+00   -0.27548E+00  9828   0.158E+01-0.814E+00
CGA:  34    -0.379316664765E+03   -0.87498E-01   -0.94639E-01  9828   0.210E+01 0.954E-01
CGA:  35    -0.379613866588E+03   -0.29720E+00   -0.26084E+00  9828   0.361E+00 0.695E+00
CGA:  36    -0.379717840450E+03   -0.10397E+00   -0.87976E-01  9828   0.404E+00 0.148E+00
CGA:  37    -0.379832640444E+03   -0.11480E+00   -0.10826E+00  9828   0.166E+00 0.590E-01
CGA:  38    -0.379874421291E+03   -0.41781E-01   -0.40100E-01  9828   0.655E-01 0.154E-01
CGA:  39    -0.379879563030E+03   -0.51417E-02   -0.53297E-02  9828   0.306E+00-0.657E-01
CGA:  40    -0.379913057669E+03   -0.33495E-01   -0.34154E-01  9828   0.149E-01-0.177E-03
CGA:  41    -0.379919963903E+03   -0.69062E-02   -0.62934E-03  9828   0.420E-01-0.103E-01
CGA:  42    -0.379927847219E+03   -0.78833E-02   -0.79634E-02  9828   0.719E-02 0.496E-03
CGA:  43    -0.379930085247E+03   -0.22380E-02   -0.22377E-02  9828   0.391E-02-0.348E-04
CGA:  44    -0.379931196796E+03   -0.11115E-02   -0.11184E-02  9828   0.268E-02 0.251E-03
CGA:  45    -0.379933100426E+03   -0.19036E-02   -0.27076E-02  9828   0.679E-02-0.123E-02
CGA:  46    -0.379934229377E+03   -0.11290E-02   -0.11305E-02  9828   0.563E-02-0.512E-03
CGA:  47    -0.379935660004E+03   -0.14306E-02   -0.14294E-02  9828   0.376E-02-0.169E-03
CGA:  48    -0.379936717687E+03   -0.10577E-02   -0.10559E-02  9828   0.200E-02-0.157E-03
CGA:  49    -0.379937164636E+03   -0.44695E-03   -0.47077E-03  9828   0.110E-02 0.254E-03
CGA:  50    -0.379937322785E+03   -0.15815E-03   -0.22660E-03  9828   0.575E-03 0.466E-03
CGA:  51    -0.379937353923E+03   -0.31138E-04   -0.11416E-03  9828   0.372E-03 0.454E-03
CGA:  52    -0.379937372632E+03   -0.18709E-04   -0.62210E-04  9828   0.262E-03 0.299E-03
CGA:  53    -0.379937372741E+03   -0.10865E-06   -0.38016E-04  9828   0.219E-03 0.237E-03
CGA:  54    -0.379937370986E+03    0.17549E-05   -0.30403E-04  9828   0.191E-03 0.203E-03
CGA:  55    -0.379937367162E+03    0.38234E-05   -0.24794E-04  9828   0.171E-03 0.179E-03
CGA:  56    -0.379937362523E+03    0.46390E-05   -0.20969E-04  9828   0.155E-03 0.162E-03
CGA:  57    -0.379937357470E+03    0.50535E-05   -0.18040E-04  9828   0.141E-03 0.147E-03
CGA:  58    -0.379937352287E+03    0.51832E-05   -0.15735E-04  9828   0.130E-03 0.135E-03
CGA:  59    -0.379937347151E+03    0.51360E-05   -0.13873E-04  9828   0.121E-03 0.125E-03
CGA:  60    -0.379937342175E+03    0.49758E-05   -0.12342E-04  9828   0.113E-03 0.117E-03
CGA:  61    -0.379937337428E+03    0.47466E-05   -0.11065E-04  9828   0.106E-03 0.109E-03
   1 F= -.37993734E+03 E0= -.37993734E+03  d E =-.379937E+03  mag=     4.0000
       N       E                     dE             d eps       ncg     rms          ort
SDA:   1    -0.379946738779E+03   -0.93966E-02    0.00000E+00  9828   0.192E-02 0.000E+00
CGA:   2    -0.379947145589E+03   -0.40681E-03   -0.41026E-03  9828   0.513E-03 0.224E-03
CGA:   3    -0.379947283144E+03   -0.13756E-03   -0.13656E-03  9828   0.168E-03 0.956E-04
CGA:   4    -0.379947333494E+03   -0.50350E-04   -0.49966E-04  9828   0.766E-04 0.164E-04
CGA:   5    -0.379947344668E+03   -0.11174E-04   -0.14019E-04  9828   0.434E-04 0.450E-04
CGA:   6    -0.379947350395E+03   -0.57270E-05   -0.74670E-05  9828   0.291E-04 0.318E-04
   2 F= -.37994735E+03 E0= -.37994735E+03  d E =-.100130E-01  mag=     4.0000
       N       E                     dE             d eps       ncg     rms          ort
SDA:   1    -0.378744886451E+03    0.12025E+01    0.00000E+00  9828   0.499E+01 0.000E+00
CGA:   2    -0.379928727071E+03   -0.11838E+01   -0.11836E+01  9828   0.143E+01 0.131E-01
CGA:   3    -0.380281014122E+03   -0.35229E+00   -0.35244E+00  9828   0.400E+00-0.771E-02
CGA:   4    -0.380358741854E+03   -0.77728E-01   -0.77611E-01  9828   0.839E-01-0.392E-02
CGA:   5    -0.380376160019E+03   -0.17418E-01   -0.17408E-01  9828   0.227E-01-0.890E-03
CGA:   6    -0.380382015929E+03   -0.58559E-02   -0.58610E-02  9828   0.866E-02-0.138E-03
CGA:   7    -0.380384649712E+03   -0.26338E-02   -0.26263E-02  9828   0.361E-02 0.932E-04
CGA:   8    -0.380385876718E+03   -0.12270E-02   -0.12313E-02  9828   0.151E-02-0.382E-04
CGA:   9    -0.380386400715E+03   -0.52400E-03   -0.56272E-03  9828   0.714E-03-0.268E-03
CGA:  10    -0.380386595053E+03   -0.19434E-03   -0.21254E-03  9828   0.345E-03-0.149E-03
CGA:  11    -0.380386686100E+03   -0.91046E-04   -0.10346E-03  9828   0.243E-03-0.933E-04
CGA:  12    -0.380386726696E+03   -0.40596E-04   -0.40832E-04  9828   0.955E-04 0.105E-04
CGA:  13    -0.380386764433E+03   -0.37737E-04   -0.42080E-04  9828   0.777E-04-0.260E-04
CGA:  14    -0.380386782099E+03   -0.17666E-04   -0.23967E-04  9828   0.123E-03-0.390E-04
CGA:  15    -0.380386797151E+03   -0.15052E-04   -0.17926E-04  9828   0.273E-04 0.241E-04
CGA:  16    -0.380386806366E+03   -0.92155E-05   -0.90702E-05  9828   0.142E-04 0.897E-05
   3 F= -.38038681E+03 E0= -.38038681E+03  d E =-.439456E+00  mag=     4.0000
       N       E                     dE             d eps       ncg     rms          ort
SDA:   1    -0.376503086267E+03    0.38837E+01    0.00000E+00  9828   0.139E+02 0.000E+00
CGA:   2    -0.379670913613E+03   -0.31678E+01   -0.31701E+01  9828   0.354E+01 0.266E-01
CGA:   3    -0.380580341273E+03   -0.90943E+00   -0.90922E+00  9828   0.100E+01-0.189E-01
CGA:   4    -0.380777195793E+03   -0.19685E+00   -0.19645E+00  9828   0.221E+00-0.567E-02
CGA:   5    -0.380823437071E+03   -0.46241E-01   -0.46212E-01  9828   0.610E-01-0.513E-03
CGA:   6    -0.380839816219E+03   -0.16379E-01   -0.16375E-01  9828   0.250E-01 0.476E-03
CGA:   7    -0.380847923238E+03   -0.81070E-02   -0.81007E-02  9828   0.114E-01 0.111E-03
CGA:   8    -0.380851826255E+03   -0.39030E-02   -0.39332E-02  9828   0.464E-02-0.381E-03
CGA:   9    -0.380853273261E+03   -0.14470E-02   -0.14623E-02  9828   0.156E-02-0.265E-03
CGA:  10    -0.380853746997E+03   -0.47374E-03   -0.47877E-03  9828   0.562E-03-0.922E-04
CGA:  11    -0.380853910586E+03   -0.16359E-03   -0.16256E-03  9828   0.228E-03 0.306E-04
CGA:  12    -0.380853995205E+03   -0.84619E-04   -0.85721E-04  9828   0.134E-03-0.137E-04
CGA:  13    -0.380854043948E+03   -0.48743E-04   -0.56748E-04  9828   0.120E-03-0.469E-04
CGA:  14    -0.380854070952E+03   -0.27004E-04   -0.31728E-04  9828   0.103E-03-0.406E-04
CGA:  15    -0.380854098224E+03   -0.27272E-04   -0.29843E-04  9828   0.799E-04-0.191E-04
CGA:  16    -0.380854134418E+03   -0.36194E-04   -0.36512E-04  9828   0.683E-04-0.320E-05
CGA:  17    -0.380853940252E+03    0.19417E-03   -0.10805E-03  9828   0.120E-02-0.197E-03
CGA:  18    -0.380854145169E+03   -0.20492E-03   -0.22969E-03  9828   0.249E-03 0.711E-04
CGA:  19    -0.380854225138E+03   -0.79969E-04   -0.77456E-04  9828   0.537E-04-0.922E-05
CGA:  20    -0.380854245971E+03   -0.20834E-04   -0.21113E-04  9828   0.204E-04 0.218E-05
CGA:  21    -0.380854256525E+03   -0.10554E-04   -0.98993E-05  9828   0.207E-04-0.977E-05
CGA:  22    -0.380854254905E+03    0.16202E-05   -0.10794E-05  9828   0.136E-04 0.627E-05
   4 F= -.38085425E+03 E0= -.38085425E+03  d E =-.467449E+00  mag=     4.0000
       N       E                     dE             d eps       ncg     rms          ort
SDA:   1    -0.378320177862E+03    0.25341E+01    0.00000E+00  9828   0.878E+01 0.000E+00
CGA:   2    -0.380341233252E+03   -0.20211E+01   -0.20289E+01  9828   0.209E+01 0.138E-01
CGA:   3    -0.380907068342E+03   -0.56584E+00   -0.56438E+00  9828   0.547E+00-0.102E-02
CGA:   4    -0.381018158148E+03   -0.11109E+00   -0.11094E+00  9828   0.130E+00-0.697E-03
CGA:   5    -0.381045074305E+03   -0.26916E-01   -0.26845E-01  9828   0.372E-01-0.337E-03
CGA:   6    -0.381055653423E+03   -0.10579E-01   -0.10584E-01  9828   0.167E-01 0.431E-04
CGA:   7    -0.381061096178E+03   -0.54428E-02   -0.54568E-02  9828   0.803E-02 0.135E-03
CGA:   8    -0.381063752303E+03   -0.26561E-02   -0.26509E-02  9828   0.300E-02-0.524E-04
CGA:   9    -0.381064681977E+03   -0.92967E-03   -0.92585E-03  9828   0.909E-03-0.335E-04
CGA:  10    -0.381064969464E+03   -0.28749E-03   -0.28333E-03  9828   0.301E-03-0.407E-04
CGA:  11    -0.381065049693E+03   -0.80229E-04   -0.83344E-04  9828   0.108E-03 0.262E-04
CGA:  12    -0.381065093677E+03   -0.43984E-04   -0.43668E-04  9828   0.626E-04-0.101E-04
CGA:  13    -0.381065111782E+03   -0.18105E-04   -0.18214E-04  9828   0.288E-04 0.132E-05
CGA:  14    -0.381065126009E+03   -0.14228E-04   -0.17405E-04  9828   0.456E-04-0.167E-04
CGA:  15    -0.381065135584E+03   -0.95747E-05   -0.10265E-04  9828   0.138E-04 0.384E-05
   5 F= -.38106514E+03 E0= -.38106514E+03  d E =-.210881E+00  mag=     4.0000
       N       E                     dE             d eps       ncg     rms          ort
SDA:   1    -0.378214303928E+03    0.28508E+01    0.00000E+00  9828   0.947E+01 0.000E+00
CGA:   2    -0.380381620395E+03   -0.21673E+01   -0.21728E+01  9828   0.233E+01-0.345E-02
CGA:   3    -0.380993289996E+03   -0.61167E+00   -0.61131E+00  9828   0.619E+00 0.622E-03
CGA:   4    -0.381115183551E+03   -0.12189E+00   -0.12214E+00  9828   0.145E+00 0.881E-03
CGA:   5    -0.381145420799E+03   -0.30237E-01   -0.30211E-01  9828   0.408E-01-0.208E-03
CGA:   6    -0.381157242022E+03   -0.11821E-01   -0.11791E-01  9828   0.194E-01-0.348E-03
CGA:   7    -0.381163603006E+03   -0.63610E-02   -0.63581E-02  9828   0.987E-02-0.787E-04
CGA:   8    -0.381166779534E+03   -0.31765E-02   -0.31768E-02  9828   0.362E-02 0.500E-05
CGA:   9    -0.381167846680E+03   -0.10671E-02   -0.10716E-02  9828   0.101E-02 0.679E-04
CGA:  10    -0.381168183505E+03   -0.33682E-03   -0.33377E-03  9828   0.348E-03-0.869E-04
CGA:  11    -0.381168283145E+03   -0.99641E-04   -0.99566E-04  9828   0.132E-03-0.123E-05
CGA:  12    -0.381168330175E+03   -0.47030E-04   -0.47050E-04  9828   0.725E-04-0.104E-04
CGA:  13    -0.381168347009E+03   -0.16833E-04   -0.17992E-04  9828   0.290E-04 0.136E-04
CGA:  14    -0.381168363882E+03   -0.16874E-04   -0.17824E-04  9828   0.331E-04-0.582E-05
CGA:  15    -0.381168358370E+03    0.55126E-05   -0.34640E-04  9828   0.244E-03-0.430E-04
CGA:  16    -0.381168400739E+03   -0.42369E-04   -0.48297E-04  9828   0.696E-04 0.293E-04
CGA:  17    -0.381168434494E+03   -0.33756E-04   -0.35159E-04  9828   0.435E-04-0.254E-04
CGA:  18    -0.381168445473E+03   -0.10979E-04   -0.10979E-04  9828   0.265E-04 0.129E-06
CGA:  19    -0.381168460373E+03   -0.14900E-04   -0.18790E-04  9828   0.388E-04-0.127E-04
CGA:  20    -0.381168469171E+03   -0.87974E-05   -0.88780E-05  9828   0.442E-04-0.316E-05
CGA:  21    -0.381168491711E+03   -0.22541E-04   -0.25985E-04  9828   0.614E-04-0.159E-04
CGA:  22    -0.381168355671E+03    0.13604E-03   -0.79474E-04  9828   0.746E-03-0.141E-03
CGA:  23    -0.381168545376E+03   -0.18971E-03   -0.20062E-03  9828   0.233E-03 0.480E-04
CGA:  24    -0.381168607503E+03   -0.62126E-04   -0.58909E-04  9828   0.301E-04-0.115E-04
CGA:  25    -0.381168614312E+03   -0.68091E-05   -0.84744E-05  9828   0.112E-04 0.908E-05
   6 F= -.38116861E+03 E0= -.38116861E+03  d E =-.103479E+00  mag=     4.0000
       N       E                     dE             d eps       ncg     rms          ort
SDA:   1    -0.375756937113E+03    0.54117E+01    0.00000E+00  9828   0.153E+02 0.000E+00
CGA:   2    -0.379713497560E+03   -0.39566E+01   -0.39650E+01  9828   0.492E+01-0.644E-02
CGA:   3    -0.380880160095E+03   -0.11667E+01   -0.11667E+01  9828   0.117E+01 0.622E-02
CGA:   4    -0.381097773314E+03   -0.21761E+00   -0.21842E+00  9828   0.241E+00 0.248E-02
CGA:   5    -0.381148116332E+03   -0.50343E-01   -0.50440E-01  9828   0.648E-01 0.336E-03
CGA:   6    -0.381165474441E+03   -0.17358E-01   -0.17270E-01  9828   0.269E-01-0.532E-03
CGA:   7    -0.381173970042E+03   -0.84956E-02   -0.84641E-02  9828   0.131E-01-0.305E-03
CGA:   8    -0.381178372016E+03   -0.44020E-02   -0.44005E-02  9828   0.551E-02-0.212E-04
CGA:   9    -0.381180056567E+03   -0.16846E-02   -0.16937E-02  9828   0.166E-02 0.880E-04
CGA:  10    -0.381180599683E+03   -0.54312E-03   -0.53716E-03  9828   0.545E-03-0.691E-04
CGA:  11    -0.381180773759E+03   -0.17408E-03   -0.17323E-03  9828   0.228E-03-0.119E-04
CGA:  12    -0.381180837071E+03   -0.63312E-04   -0.65630E-04  9828   0.102E-03 0.224E-04
CGA:  13    -0.381180865574E+03   -0.28503E-04   -0.31563E-04  9828   0.409E-04 0.277E-04
CGA:  14    -0.381180884606E+03   -0.19032E-04   -0.19275E-04  9828   0.250E-04 0.144E-04
CGA:  15    -0.381180896567E+03   -0.11961E-04   -0.12287E-04  9828   0.228E-04 0.139E-04
CGA:  16    -0.381180900801E+03   -0.42336E-05   -0.55239E-05  9828   0.139E-04 0.902E-05
   7 F= -.38118090E+03 E0= -.38118090E+03  d E =-.122865E-01  mag=     4.0000
       N       E                     dE             d eps       ncg     rms          ort
SDA:   1    -0.380408249991E+03    0.77265E+00    0.00000E+00  9828   0.197E+01 0.000E+00
CGA:   2    -0.381024148900E+03   -0.61590E+00   -0.61595E+00  9828   0.754E+00 0.790E-03
CGA:   3    -0.381172695107E+03   -0.14855E+00   -0.14837E+00  9828   0.148E+00-0.718E-03
CGA:   4    -0.381200302255E+03   -0.27607E-01   -0.27605E-01  9828   0.305E-01 0.604E-05
CGA:   5    -0.381206403563E+03   -0.61013E-02   -0.61304E-02  9828   0.730E-02 0.190E-03
CGA:   6    -0.381208129294E+03   -0.17257E-02   -0.17303E-02  9828   0.208E-02 0.417E-04
CGA:   7    -0.381208719441E+03   -0.59015E-03   -0.58591E-03  9828   0.772E-03-0.677E-04
CGA:   8    -0.381208976168E+03   -0.25673E-03   -0.25707E-03  9828   0.359E-03-0.623E-04
CGA:   9    -0.381209063910E+03   -0.87742E-04   -0.89568E-04  9828   0.102E-03 0.270E-04
CGA:  10    -0.381209093682E+03   -0.29772E-04   -0.30439E-04  9828   0.314E-04 0.115E-04
CGA:  11    -0.381209106498E+03   -0.12815E-04   -0.12779E-04  9828   0.175E-04 0.104E-05
CGA:  12    -0.381209112553E+03   -0.60548E-05   -0.60518E-05  9828   0.115E-04 0.592E-05
   8 F= -.38120911E+03 E0= -.38120911E+03  d E =-.282118E-01  mag=     4.0000
       N       E                     dE             d eps       ncg     rms          ort
SDA:   1    -0.380689665970E+03    0.51944E+00    0.00000E+00  9828   0.135E+01 0.000E+00
CGA:   2    -0.381116309040E+03   -0.42664E+00   -0.42664E+00  9828   0.416E+00-0.683E-03
CGA:   3    -0.381209407518E+03   -0.93098E-01   -0.93110E-01  9828   0.842E-01 0.133E-03
CGA:   4    -0.381224987727E+03   -0.15580E-01   -0.15624E-01  9828   0.177E-01 0.309E-03
CGA:   5    -0.381228579838E+03   -0.35921E-02   -0.36219E-02  9828   0.435E-02 0.262E-03
CGA:   6    -0.381229669020E+03   -0.10892E-02   -0.10911E-02  9828   0.141E-02 0.286E-04
CGA:   7    -0.381230112423E+03   -0.44340E-03   -0.44347E-03  9828   0.681E-03-0.104E-03
CGA:   8    -0.381230321805E+03   -0.20938E-03   -0.20957E-03  9828   0.283E-03-0.872E-05
CGA:   9    -0.381230401548E+03   -0.79742E-04   -0.80501E-04  9828   0.860E-04 0.313E-04
CGA:  10    -0.381230430306E+03   -0.28758E-04   -0.28864E-04  9828   0.312E-04 0.122E-04
CGA:  11    -0.381230447210E+03   -0.16904E-04   -0.18403E-04  9828   0.333E-04-0.738E-05
CGA:  12    -0.381230457035E+03   -0.98256E-05   -0.96743E-05  9828   0.274E-04 0.230E-05
CGA:  13    -0.381230468264E+03   -0.11229E-04   -0.10949E-04  9828   0.229E-04 0.518E-05
CGA:  14    -0.381230485409E+03   -0.17145E-04   -0.21822E-04  9828   0.565E-04-0.108E-04
CGA:  15    -0.381230495080E+03   -0.96712E-05   -0.17361E-04  9828   0.137E-03-0.377E-04
CGA:  16    -0.381230553626E+03   -0.58546E-04   -0.58571E-04  9828   0.539E-04-0.428E-06
CGA:  17    -0.381230571104E+03   -0.17478E-04   -0.17308E-04  9828   0.338E-04-0.390E-05
CGA:  18    -0.381230576790E+03   -0.56869E-05   -0.29119E-04  9828   0.156E-03-0.415E-04
CGA:  19    -0.381230602408E+03   -0.25618E-04   -0.28045E-04  9828   0.277E-04 0.119E-04
CGA:  20    -0.381230613757E+03   -0.11349E-04   -0.11349E-04  9828   0.131E-04-0.354E-05
CGA:  21    -0.381230568300E+03    0.45458E-04   -0.25217E-04  9828   0.302E-03-0.375E-04
CGA:  22    -0.381230629890E+03   -0.61590E-04   -0.60618E-04  9828   0.896E-04-0.649E-06
CGA:  23    -0.381230654836E+03   -0.24946E-04   -0.27571E-04  9828   0.174E-04 0.745E-05
CGA:  24    -0.381230667466E+03   -0.12630E-04   -0.13861E-04  9828   0.334E-04-0.149E-04
CGA:  25    -0.381230673638E+03   -0.61723E-05   -0.69168E-05  9828   0.775E-05 0.172E-05
   9 F= -.38123067E+03 E0= -.38123067E+03  d E =-.215611E-01  mag=     4.0000
       N       E                     dE             d eps       ncg     rms          ort
SDA:   1    -0.379272708797E+03    0.19580E+01    0.00000E+00  9828   0.464E+01 0.000E+00
CGA:   2    -0.380911891189E+03   -0.16392E+01   -0.16389E+01  9828   0.131E+01-0.998E-03
CGA:   3    -0.381181164700E+03   -0.26927E+00   -0.26928E+00  9828   0.260E+00 0.154E-02
CGA:   4    -0.381229926663E+03   -0.48762E-01   -0.48994E-01  9828   0.561E-01 0.510E-03
CGA:   5    -0.381241361789E+03   -0.11435E-01   -0.11502E-01  9828   0.134E-01 0.198E-03
CGA:   6    -0.381244606921E+03   -0.32451E-02   -0.32148E-02  9828   0.384E-02-0.974E-04
CGA:   7    -0.381245728543E+03   -0.11216E-02   -0.10894E-02  9828   0.150E-02-0.130E-03
CGA:   8    -0.381246193658E+03   -0.46511E-03   -0.46589E-03  9828   0.576E-03 0.468E-05
CGA:   9    -0.381246375802E+03   -0.18214E-03   -0.18292E-03  9828   0.182E-03 0.407E-05
CGA:  10    -0.381246440047E+03   -0.64244E-04   -0.61987E-04  9828   0.657E-04-0.141E-04
CGA:  11    -0.381246471921E+03   -0.31874E-04   -0.37119E-04  9828   0.108E-03-0.436E-04
CGA:  12    -0.381246487317E+03   -0.15396E-04   -0.20343E-04  9828   0.230E-04 0.161E-04
CGA:  13    -0.381246499068E+03   -0.11751E-04   -0.11621E-04  9828   0.247E-04-0.310E-05
CGA:  14    -0.381246511200E+03   -0.12132E-04   -0.19809E-04  9828   0.743E-04-0.178E-04
CGA:  15    -0.381246539741E+03   -0.28541E-04   -0.26544E-04  9828   0.427E-04-0.137E-04
CGA:  16    -0.381246546682E+03   -0.69412E-05   -0.76199E-05  9828   0.124E-04 0.253E-05
  10 F= -.38124655E+03 E0= -.38124655E+03  d E =-.158730E-01  mag=     4.0000
       N       E                     dE             d eps       ncg     rms          ort
SDA:   1    -0.372710639426E+03    0.85359E+01    0.00000E+00  9828   0.208E+02 0.000E+00
CGA:   2    -0.379295791626E+03   -0.65852E+01   -0.65886E+01  9828   0.722E+01-0.203E-02
CGA:   3    -0.380802481661E+03   -0.15067E+01   -0.15102E+01  9828   0.149E+01-0.377E-03
CGA:   4    -0.381089586686E+03   -0.28711E+00   -0.28694E+00  9828   0.291E+00 0.213E-02
CGA:   5    -0.381150406818E+03   -0.60820E-01   -0.60719E-01  9828   0.779E-01-0.286E-03
CGA:   6    -0.381169446566E+03   -0.19040E-01   -0.18957E-01  9828   0.238E-01-0.463E-03
CGA:   7    -0.381176318342E+03   -0.68718E-02   -0.68281E-02  9828   0.912E-02-0.322E-03
CGA:   8    -0.381179390053E+03   -0.30717E-02   -0.30409E-02  9828   0.392E-02-0.386E-03
CGA:   9    -0.381180698691E+03   -0.13086E-02   -0.12773E-02  9828   0.145E-02-0.429E-03
CGA:  10    -0.381181137273E+03   -0.43858E-03   -0.42715E-03  9828   0.500E-03-0.145E-03
CGA:  11    -0.381181324184E+03   -0.18691E-03   -0.18776E-03  9828   0.306E-03-0.780E-04
CGA:  12    -0.381181455896E+03   -0.13171E-03   -0.17820E-03  9828   0.631E-03-0.166E-03
CGA:  13    -0.381181589871E+03   -0.13397E-03   -0.12925E-03  9828   0.164E-03-0.194E-04
CGA:  14    -0.381181643136E+03   -0.53265E-04   -0.52712E-04  9828   0.726E-04-0.674E-05
CGA:  15    -0.381181685972E+03   -0.42836E-04   -0.60616E-04  9828   0.165E-03-0.388E-04
CGA:  16    -0.381181726333E+03   -0.40361E-04   -0.39353E-04  9828   0.504E-04-0.501E-05
CGA:  17    -0.381181745250E+03   -0.18917E-04   -0.18623E-04  9828   0.434E-04-0.753E-05
CGA:  18    -0.381181776716E+03   -0.31467E-04    0.37570E-03  9828   0.220E-04 0.513E-05
CGA:  19    -0.381181806043E+03   -0.29327E-04    0.12144E-04  9828   0.162E-04 0.138E-04
CGA:  20    -0.381181802769E+03    0.32741E-05   -0.18678E-04  9828   0.192E-03-0.299E-04
CGA:  21    -0.381181832554E+03   -0.29785E-04   -0.29587E-04  9828   0.152E-04 0.168E-06
CGA:  22    -0.381181832219E+03    0.33449E-06   -0.15726E-04  9828   0.943E-04-0.271E-04
CGA:  23    -0.381181852629E+03   -0.20409E-04   -0.20968E-04  9828   0.179E-04 0.251E-05
CGA:  24    -0.381181858014E+03   -0.53856E-05   -0.48471E-05  9828   0.536E-05-0.273E-05
  11 F= -.38118186E+03 E0= -.38118186E+03  d E =0.646887E-01  mag=     4.0000
       N       E                     dE             d eps       ncg     rms          ort
SDA:   1    -0.380962365388E+03    0.21949E+00    0.00000E+00  9828   0.682E+00 0.000E+00
CGA:   2    -0.381190148728E+03   -0.22778E+00   -0.22767E+00  9828   0.219E+00-0.862E-03
CGA:   3    -0.381236166227E+03   -0.46017E-01   -0.46115E-01  9828   0.543E-01 0.450E-03
CGA:   4    -0.381246709094E+03   -0.10543E-01   -0.10654E-01  9828   0.107E-01 0.523E-03
CGA:   5    -0.381249033004E+03   -0.23239E-02   -0.23436E-02  9828   0.328E-02 0.980E-04
CGA:   6    -0.381249860522E+03   -0.82752E-03   -0.82847E-03  9828   0.117E-02 0.631E-05
CGA:   7    -0.381250175015E+03   -0.31449E-03   -0.31939E-03  9828   0.416E-03 0.386E-04
CGA:   8    -0.381250305946E+03   -0.13093E-03   -0.13185E-03  9828   0.160E-03 0.106E-04
CGA:   9    -0.381250344478E+03   -0.38532E-04   -0.42065E-04  9828   0.456E-04 0.265E-04
CGA:  10    -0.381250358293E+03   -0.13815E-04   -0.14884E-04  9828   0.166E-04 0.103E-04
CGA:  11    -0.381250364122E+03   -0.58295E-05   -0.62787E-05  9828   0.993E-05 0.640E-05
  12 F= -.38125036E+03 E0= -.38125036E+03  d E =-.685061E-01  mag=     4.0000
       N       E                     dE             d eps       ncg     rms          ort
SDA:   1    -0.381245200583E+03    0.51577E-02    0.00000E+00  9828   0.327E-01 0.000E+00
CGA:   2    -0.381255030818E+03   -0.98302E-02   -0.98321E-02  9828   0.121E-01 0.228E-04
CGA:   3    -0.381257575850E+03   -0.25450E-02   -0.25521E-02  9828   0.287E-02 0.422E-04
CGA:   4    -0.381258126084E+03   -0.55023E-03   -0.55802E-03  9828   0.572E-03 0.491E-04
CGA:   5    -0.381258235692E+03   -0.10961E-03   -0.11465E-03  9828   0.143E-03 0.337E-04
CGA:   6    -0.381258271375E+03   -0.35683E-04   -0.37104E-04  9828   0.477E-04 0.152E-04
CGA:   7    -0.381258286810E+03   -0.15435E-04   -0.15591E-04  9828   0.209E-04 0.401E-05
CGA:   8    -0.381258292832E+03   -0.60225E-05   -0.62912E-05  9828   0.861E-05 0.490E-05
  13 F= -.38125829E+03 E0= -.38125829E+03  d E =-.792871E-02  mag=     4.0000
       N       E                     dE             d eps       ncg     rms          ort
SDA:   1    -0.380989785341E+03    0.26850E+00    0.00000E+00  9828   0.734E+00 0.000E+00
CGA:   2    -0.381203198654E+03   -0.21341E+00   -0.21341E+00  9828   0.284E+00-0.221E-03
CGA:   3    -0.381263116266E+03   -0.59918E-01   -0.59943E-01  9828   0.647E-01 0.186E-03
CGA:   4    -0.381275638057E+03   -0.12522E-01   -0.12575E-01  9828   0.130E-01 0.443E-03
CGA:   5    -0.381278261207E+03   -0.26232E-02   -0.26449E-02  9828   0.335E-02 0.201E-03
CGA:   6    -0.381279116808E+03   -0.85560E-03   -0.85736E-03  9828   0.111E-02 0.339E-04
CGA:   7    -0.381279445672E+03   -0.32886E-03   -0.32873E-03  9828   0.425E-03-0.167E-04
CGA:   8    -0.381279577920E+03   -0.13225E-03   -0.13227E-03  9828   0.163E-03-0.191E-05
CGA:   9    -0.381279616473E+03   -0.38553E-04   -0.40361E-04  9828   0.446E-04 0.341E-04
CGA:  10    -0.381279631720E+03   -0.15246E-04   -0.15377E-04  9828   0.178E-04 0.943E-05
CGA:  11    -0.381279640088E+03   -0.83686E-05   -0.81787E-05  9828   0.120E-04 0.218E-05
  14 F= -.38127964E+03 E0= -.38127964E+03  d E =-.213473E-01  mag=     4.0000
       N       E                     dE             d eps       ncg     rms          ort
SDA:   1    -0.381273086436E+03    0.65453E-02    0.00000E+00  9828   0.226E-01 0.000E+00
CGA:   2    -0.381279105854E+03   -0.60194E-02   -0.60199E-02  9828   0.980E-02 0.121E-04
CGA:   3    -0.381281215246E+03   -0.21094E-02   -0.21063E-02  9828   0.199E-02-0.414E-04
CGA:   4    -0.381281574976E+03   -0.35973E-03   -0.36224E-03  9828   0.384E-03 0.229E-04
CGA:   5    -0.381281649201E+03   -0.74226E-04   -0.76203E-04  9828   0.892E-04 0.217E-04
CGA:   6    -0.381281670861E+03   -0.21660E-04   -0.22049E-04  9828   0.273E-04 0.793E-05
CGA:   7    -0.381281679919E+03   -0.90578E-05   -0.90344E-05  9828   0.131E-04 0.948E-06
  15 F= -.38128168E+03 E0= -.38128168E+03  d E =-.203983E-02  mag=     4.0000
       N       E                     dE             d eps       ncg     rms          ort
SDA:   1    -0.381219238465E+03    0.62432E-01    0.00000E+00  9828   0.172E+00 0.000E+00
CGA:   2    -0.381266229685E+03   -0.46991E-01   -0.46991E-01  9828   0.737E-01-0.446E-04
CGA:   3    -0.381281847245E+03   -0.15618E-01   -0.15613E-01  9828   0.150E-01-0.807E-04
CGA:   4    -0.381284591451E+03   -0.27442E-02   -0.27531E-02  9828   0.295E-02 0.918E-04
CGA:   5    -0.381285179272E+03   -0.58782E-03   -0.59332E-03  9828   0.711E-03 0.710E-04
CGA:   6    -0.381285354985E+03   -0.17571E-03   -0.17624E-03  9828   0.211E-03 0.164E-04
CGA:   7    -0.381285419741E+03   -0.64755E-04   -0.65096E-04  9828   0.878E-04-0.115E-04
CGA:   8    -0.381285447891E+03   -0.28150E-04   -0.28700E-04  9828   0.428E-04-0.768E-05
CGA:   9    -0.381285456231E+03   -0.83405E-05   -0.88970E-05  9828   0.140E-04 0.112E-04
  16 F= -.38128546E+03 E0= -.38128546E+03  d E =-.377631E-02  mag=     4.0000
       N       E                     dE             d eps       ncg     rms          ort
SDA:   1    -0.381113765978E+03    0.17168E+00    0.00000E+00  9828   0.442E+00 0.000E+00
CGA:   2    -0.381238950604E+03   -0.12518E+00   -0.12519E+00  9828   0.194E+00-0.312E-04
CGA:   3    -0.381278905436E+03   -0.39955E-01   -0.39933E-01  9828   0.361E-01-0.355E-03
CGA:   4    -0.381285566811E+03   -0.66614E-02   -0.66689E-02  9828   0.726E-02 0.906E-04
CGA:   5    -0.381287031792E+03   -0.14650E-02   -0.14701E-02  9828   0.182E-02 0.798E-04
CGA:   6    -0.381287466404E+03   -0.43461E-03   -0.43481E-03  9828   0.519E-03 0.711E-05
CGA:   7    -0.381287616237E+03   -0.14983E-03   -0.15040E-03  9828   0.199E-03-0.212E-04
CGA:   8    -0.381287682789E+03   -0.66552E-04   -0.69106E-04  9828   0.107E-03-0.261E-04
CGA:   9    -0.381287707801E+03   -0.25012E-04   -0.24992E-04  9828   0.356E-04 0.115E-04
CGA:  10    -0.381287722175E+03   -0.14373E-04   -0.14498E-04  9828   0.231E-04-0.139E-05
CGA:  11    -0.381287733403E+03   -0.11229E-04   -0.12685E-04  9828   0.334E-04-0.522E-05
CGA:  12    -0.381287748466E+03   -0.15062E-04   -0.18408E-04  9828   0.619E-04-0.942E-05
CGA:  13    -0.381287748240E+03    0.22580E-06   -0.58114E-04  9828   0.294E-03-0.714E-04
CGA:  14    -0.381287832010E+03   -0.83770E-04   -0.84220E-04  9828   0.573E-04 0.624E-05
CGA:  15    -0.381287854864E+03   -0.22855E-04   -0.22745E-04  9828   0.324E-04 0.330E-05
CGA:  16    -0.381287860214E+03   -0.53495E-05   -0.70961E-05  9828   0.113E-04 0.117E-04
  17 F= -.38128786E+03 E0= -.38128786E+03  d E =-.240398E-02  mag=     4.0000
       N       E                     dE             d eps       ncg     rms          ort
SDA:   1    -0.381028998328E+03    0.25886E+00    0.00000E+00  9828   0.615E+00 0.000E+00
CGA:   2    -0.381233910927E+03   -0.20491E+00   -0.20489E+00  9828   0.233E+00-0.119E-02
CGA:   3    -0.381278634121E+03   -0.44723E-01   -0.44754E-01  9828   0.418E-01 0.200E-03
CGA:   4    -0.381286421140E+03   -0.77870E-02   -0.78291E-02  9828   0.892E-02 0.279E-03
CGA:   5    -0.381288276824E+03   -0.18557E-02   -0.18603E-02  9828   0.223E-02 0.369E-04
CGA:   6    -0.381288826833E+03   -0.55001E-03   -0.54434E-03  9828   0.669E-03-0.689E-04
CGA:   7    -0.381289018002E+03   -0.19117E-03   -0.19004E-03  9828   0.269E-03-0.396E-04
CGA:   8    -0.381289106715E+03   -0.88713E-04   -0.89504E-04  9828   0.130E-03-0.237E-04
CGA:   9    -0.381289145991E+03   -0.39276E-04   -0.39297E-04  9828   0.498E-04-0.214E-05
CGA:  10    -0.381289163690E+03   -0.17698E-04   -0.34135E-04  9828   0.119E-03-0.443E-04
CGA:  11    -0.381289187015E+03   -0.23325E-04   -0.24650E-04  9828   0.222E-04 0.991E-05
CGA:  12    -0.381289163703E+03    0.23311E-04   -0.31517E-04  9828   0.340E-03-0.563E-04
CGA:  13    -0.381289213693E+03   -0.49990E-04   -0.54770E-04  9828   0.510E-04 0.229E-04
CGA:  14    -0.381289233985E+03   -0.20292E-04   -0.20315E-04  9828   0.205E-04-0.160E-04
CGA:  15    -0.381289243968E+03   -0.99826E-05   -0.11835E-04  9828   0.389E-04-0.414E-05
CGA:  16    -0.381289170840E+03    0.73128E-04   -0.58771E-04  9828   0.100E-02-0.905E-04
CGA:  17    -0.381289322518E+03   -0.15168E-03   -0.15049E-03  9828   0.832E-04 0.195E-05
CGA:  18    -0.381289352392E+03   -0.29874E-04   -0.29315E-04  9828   0.152E-04-0.537E-05
CGA:  19    -0.381289355493E+03   -0.31013E-05   -0.37338E-05  9828   0.675E-05 0.343E-05
  18 F= -.38128936E+03 E0= -.38128936E+03  d E =-.149528E-02  mag=     4.0000
       N       E                     dE             d eps       ncg     rms          ort
SDA:   1    -0.375596911437E+03    0.56924E+01    0.00000E+00  9828   0.136E+02 0.000E+00
CGA:   2    -0.380077289263E+03   -0.44804E+01   -0.44793E+01  9828   0.508E+01-0.728E-02
CGA:   3    -0.381050420778E+03   -0.97313E+00   -0.97487E+00  9828   0.901E+00 0.313E-02
CGA:   4    -0.381219237609E+03   -0.16882E+00   -0.16951E+00  9828   0.195E+00 0.280E-02
CGA:   5    -0.381260175645E+03   -0.40938E-01   -0.41019E-01  9828   0.484E-01 0.382E-03
CGA:   6    -0.381271761076E+03   -0.11585E-01   -0.11486E-01  9828   0.145E-01-0.606E-03
CGA:   7    -0.381275901218E+03   -0.41401E-02   -0.41107E-02  9828   0.561E-02-0.273E-03
CGA:   8    -0.381277744764E+03   -0.18435E-02   -0.18384E-02  9828   0.242E-02-0.943E-04
CGA:   9    -0.381278503594E+03   -0.75883E-03   -0.75988E-03  9828   0.818E-03 0.161E-04
CGA:  10    -0.381278815580E+03   -0.31199E-03   -0.31135E-03  9828   0.431E-03-0.164E-03
CGA:  11    -0.381278939777E+03   -0.12420E-03   -0.12321E-03  9828   0.256E-03-0.411E-04
CGA:  12    -0.381279036155E+03   -0.96378E-04   -0.16274E-03  9828   0.748E-03-0.209E-03
CGA:  13    -0.381279160286E+03   -0.12413E-03   -0.13331E-03  9828   0.149E-03 0.450E-04
CGA:  14    -0.381279229411E+03   -0.69125E-04   -0.85680E-04  9828   0.266E-03-0.106E-03
CGA:  15    -0.381279272511E+03   -0.43101E-04   -0.50017E-04  9828   0.611E-04 0.345E-04
CGA:  16    -0.381279279964E+03   -0.74525E-05   -0.63610E-04  9828   0.442E-03-0.105E-03
CGA:  17    -0.381279369827E+03   -0.89863E-04   -0.92030E-04  9828   0.979E-04 0.124E-04
CGA:  18    -0.381279409402E+03   -0.39575E-04   -0.52886E-04  9828   0.245E-03-0.106E-03
CGA:  19    -0.381279441040E+03   -0.31638E-04   -0.39032E-04  9828   0.459E-04 0.312E-04
CGA:  20    -0.381279466236E+03   -0.25196E-04   -0.37414E-04  9828   0.111E-03-0.378E-04
CGA:  21    -0.381279512224E+03   -0.45988E-04   -0.80829E-04  9828   0.194E-03-0.110E-03
CGA:  22    -0.381279555687E+03   -0.43464E-04   -0.49298E-04  9828   0.300E-04 0.340E-04
CGA:  23    -0.381279121542E+03    0.43415E-03   -0.23436E-03  9828   0.306E-02-0.236E-03
CGA:  24    -0.381279596566E+03   -0.47502E-03   -0.50797E-03  9828   0.372E-03 0.108E-03
CGA:  25    -0.381279745900E+03   -0.14933E-03   -0.12842E-03  9828   0.266E-04-0.520E-04
CGA:  26    -0.381279759196E+03   -0.13296E-04   -0.13095E-04  9828   0.259E-04-0.152E-05
CGA:  27    -0.381279769569E+03   -0.10373E-04   -0.27937E-04  9828   0.353E-03-0.404E-04
CGA:  28    -0.381279834082E+03   -0.64513E-04   -0.54164E-04  9828   0.235E-04-0.152E-04
CGA:  29    -0.381279815511E+03    0.18571E-04   -0.33945E-04  9828   0.339E-03-0.650E-04
CGA:  30    -0.381279875003E+03   -0.59492E-04   -0.66157E-04  9828   0.673E-04 0.145E-04
CGA:  31    -0.381279886451E+03   -0.11448E-04   -0.15924E-04  9828   0.504E-05 0.934E-05
CGA:  32    -0.381279899533E+03   -0.13082E-04    0.29898E-05  9828   0.139E-04-0.616E-06
CGA:  33    -0.381279936564E+03   -0.37031E-04    0.34821E-05  9828   0.427E-04-0.994E-05
CGA:  34    -0.381279947379E+03   -0.10815E-04   -0.12475E-04  9828   0.143E-04 0.432E-05
CGA:  35    -0.381279953478E+03   -0.60991E-05   -0.46948E-05  9828   0.533E-05-0.373E-05
  19 F= -.38127995E+03 E0= -.38127995E+03  d E =0.940202E-02  mag=     4.0000
       N       E                     dE             d eps       ncg     rms          ort
SDA:   1    -0.380185251283E+03    0.10947E+01    0.00000E+00  9828   0.262E+01 0.000E+00
CGA:   2    -0.381079122901E+03   -0.89387E+00   -0.89321E+00  9828   0.872E+00-0.307E-02
CGA:   3    -0.381253627066E+03   -0.17450E+00   -0.17449E+00  9828   0.163E+00 0.386E-02
CGA:   4    -0.381284514349E+03   -0.30887E-01   -0.31030E-01  9828   0.340E-01 0.136E-03
CGA:   5    -0.381291977782E+03   -0.74634E-02   -0.74393E-02  9828   0.864E-02-0.570E-04
CGA:   6    -0.381294074793E+03   -0.20970E-02   -0.20626E-02  9828   0.297E-02-0.100E-03
CGA:   7    -0.381294935808E+03   -0.86101E-03   -0.83688E-03  9828   0.123E-02-0.873E-04
CGA:   8    -0.381295339383E+03   -0.40358E-03   -0.39946E-03  9828   0.562E-03-0.190E-04
CGA:   9    -0.381295540206E+03   -0.20082E-03   -0.18861E-03  9828   0.240E-03-0.631E-04
CGA:  10    -0.381295608329E+03   -0.68123E-04   -0.64693E-04  9828   0.830E-04-0.156E-04
CGA:  11    -0.381295642472E+03   -0.34143E-04   -0.32256E-04  9828   0.573E-04-0.197E-04
CGA:  12    -0.381295665237E+03   -0.22765E-04   -0.25955E-04  9828   0.105E-03-0.367E-04
CGA:  13    -0.381295685830E+03   -0.20592E-04   -0.19390E-04  9828   0.241E-04-0.320E-05
CGA:  14    -0.381295694762E+03   -0.89324E-05   -0.83648E-05  9828   0.105E-04-0.412E-05
  20 F= -.38129569E+03 E0= -.38129569E+03  d E =-.157413E-01  mag=     4.0000
       N       E                     dE             d eps       ncg     rms          ort
SDA:   1    -0.380727959962E+03    0.56773E+00    0.00000E+00  9828   0.145E+01 0.000E+00
CGA:   2    -0.381157685032E+03   -0.42973E+00   -0.43007E+00  9828   0.616E+00 0.138E-02
CGA:   3    -0.381281374699E+03   -0.12369E+00   -0.12344E+00  9828   0.117E+00-0.101E-02
CGA:   4    -0.381303175087E+03   -0.21800E-01   -0.21604E-01  9828   0.244E-01-0.610E-03
CGA:   5    -0.381308216346E+03   -0.50413E-02   -0.50025E-02  9828   0.593E-02-0.138E-03
CGA:   6    -0.381309588622E+03   -0.13723E-02   -0.13883E-02  9828   0.162E-02 0.704E-04
CGA:   7    -0.381310017650E+03   -0.42903E-03   -0.43909E-03  9828   0.546E-03 0.549E-04
CGA:   8    -0.381310218788E+03   -0.20114E-03   -0.19748E-03  9828   0.262E-03-0.396E-04
CGA:   9    -0.381310313346E+03   -0.94558E-04   -0.91082E-04  9828   0.120E-03-0.556E-04
CGA:  10    -0.381310342922E+03   -0.29576E-04   -0.28030E-04  9828   0.389E-04-0.112E-04
CGA:  11    -0.381310351837E+03   -0.89147E-05   -0.96053E-05  9828   0.155E-04 0.446E-05
CGA:  12    -0.381310360545E+03   -0.87082E-05   -0.10231E-04  9828   0.262E-04-0.883E-05
  21 F= -.38131036E+03 E0= -.38131036E+03  d E =-.146658E-01  mag=     4.0000
       N       E                     dE             d eps       ncg     rms          ort
SDA:   1    -0.381113651658E+03    0.19670E+00    0.00000E+00  9828   0.476E+00 0.000E+00
CGA:   2    -0.381276424655E+03   -0.16277E+00   -0.16262E+00  9828   0.159E+00-0.193E-02
CGA:   3    -0.381307911485E+03   -0.31487E-01   -0.31697E-01  9828   0.282E-01 0.949E-03
CGA:   4    -0.381313148558E+03   -0.52371E-02   -0.53235E-02  9828   0.611E-02 0.395E-03
CGA:   5    -0.381314459307E+03   -0.13107E-02   -0.13075E-02  9828   0.155E-02-0.173E-04
CGA:   6    -0.381314859636E+03   -0.40033E-03   -0.38870E-03  9828   0.516E-03-0.868E-04
CGA:   7    -0.381315002529E+03   -0.14289E-03   -0.14114E-03  9828   0.206E-03-0.195E-04
CGA:   8    -0.381315073858E+03   -0.71329E-04   -0.71097E-04  9828   0.101E-03-0.149E-04
CGA:   9    -0.381315107544E+03   -0.33686E-04   -0.33503E-04  9828   0.414E-04-0.106E-04
CGA:  10    -0.381315115320E+03   -0.77757E-05   -0.28517E-04  9828   0.136E-03-0.525E-04
CGA:  11    -0.381315139399E+03   -0.24080E-04   -0.25874E-04  9828   0.188E-04 0.899E-05
CGA:  12    -0.381314896384E+03    0.24302E-03   -0.13146E-03  9828   0.144E-02-0.139E-03
CGA:  13    -0.381315113514E+03   -0.21713E-03   -0.23937E-03  9828   0.208E-03 0.542E-04
CGA:  14    -0.381315179842E+03   -0.66329E-04   -0.60366E-04  9828   0.226E-04-0.149E-04
CGA:  15    -0.381315187628E+03   -0.77859E-05   -0.78522E-05  9828   0.702E-05 0.269E-06
  22 F= -.38131519E+03 E0= -.38131519E+03  d E =-.482708E-02  mag=     4.0000
       N       E                     dE             d eps       ncg     rms          ort
SDA:   1    -0.375606799934E+03    0.57084E+01    0.00000E+00  9828   0.133E+02 0.000E+00
CGA:   2    -0.380346923228E+03   -0.47401E+01   -0.47406E+01  9828   0.386E+01-0.278E-02
CGA:   3    -0.381140634248E+03   -0.79371E+00   -0.79610E+00  9828   0.701E+00 0.524E-02
CGA:   4    -0.381274474557E+03   -0.13384E+00   -0.13429E+00  9828   0.158E+00 0.247E-02
CGA:   5    -0.381307874184E+03   -0.33400E-01   -0.33382E-01  9828   0.385E-01-0.535E-04
CGA:   6    -0.381317260337E+03   -0.93862E-02   -0.92563E-02  9828   0.121E-01-0.418E-03
CGA:   7    -0.381320726207E+03   -0.34659E-02   -0.34215E-02  9828   0.479E-02-0.174E-03
CGA:   8    -0.381322342047E+03   -0.16158E-02   -0.15995E-02  9828   0.206E-02-0.855E-04
CGA:   9    -0.381323013986E+03   -0.67194E-03   -0.65352E-03  9828   0.706E-03-0.945E-04
CGA:  10    -0.381323235164E+03   -0.22118E-03   -0.21019E-03  9828   0.247E-03-0.558E-04
CGA:  11    -0.381323327526E+03   -0.92363E-04   -0.85966E-04  9828   0.164E-03-0.533E-04
CGA:  12    -0.381323390676E+03   -0.63150E-04   -0.62901E-04  9828   0.226E-03-0.792E-04
CGA:  13    -0.381323441502E+03   -0.50826E-04   -0.71640E-04  9828   0.346E-03-0.174E-03
CGA:  14    -0.381323512840E+03   -0.71338E-04   -0.76455E-04  9828   0.103E-03 0.198E-04
CGA:  15    -0.381323545218E+03   -0.32379E-04   -0.31572E-04  9828   0.377E-04-0.392E-05
CGA:  16    -0.381323564270E+03   -0.19052E-04   -0.19684E-04  9828   0.294E-04-0.917E-05
CGA:  17    -0.381323568845E+03   -0.45742E-05   -0.20148E-04  9828   0.146E-03-0.364E-04
CGA:  18    -0.381323591995E+03   -0.23150E-04   -0.23208E-04  9828   0.210E-04 0.807E-06
CGA:  19    -0.381323282209E+03    0.30979E-03   -0.16741E-03  9828   0.142E-02-0.141E-03
CGA:  20    -0.381323540856E+03   -0.25865E-03   -0.27970E-03  9828   0.306E-03 0.425E-04
CGA:  21    -0.381323630424E+03   -0.89567E-04   -0.84659E-04  9828   0.530E-04-0.783E-05
CGA:  22    -0.381323652274E+03   -0.21851E-04   -0.19515E-04  9828   0.245E-04-0.519E-05
CGA:  23    -0.381323657144E+03   -0.48701E-05   -0.56338E-05  9828   0.361E-05 0.144E-05
  23 F= -.38132366E+03 E0= -.38132366E+03  d E =-.846952E-02  mag=     4.0000
       N       E                     dE             d eps       ncg     rms          ort
SDA:   1    -0.371924485297E+03    0.93992E+01    0.00000E+00  9828   0.214E+02 0.000E+00
CGA:   2    -0.378318917697E+03   -0.63944E+01   -0.53926E+01  9828   0.665E+01 0.410E+01
CGA:   3    -0.380222349779E+03   -0.19034E+01   -0.19186E+01  9828   0.225E+01-0.269E-01
CGA:   4    -0.380478844125E+03   -0.25649E+00   -0.15875E+00  9828   0.886E+00 0.141E+01
CGA:   5    -0.380561167726E+03   -0.82324E-01   -0.49379E-01  9828   0.427E+00 0.606E+00
CGA:   6    -0.380661243246E+03   -0.10008E+00   -0.82489E-01  9828   0.187E+00 0.922E-01
CGA:   7    -0.380719363911E+03   -0.58121E-01   -0.59162E-01  9828   0.103E+00-0.633E-02
CGA:   8    -0.380736290883E+03   -0.16927E-01   -0.13527E-01  9828   0.317E-01 0.307E-01
CGA:   9    -0.380745013208E+03   -0.87223E-02   -0.89305E-02  9828   0.250E-01 0.227E-02
CGA:  10    -0.380748703225E+03   -0.36900E-02   -0.35084E-02  9828   0.778E-02-0.208E-02
CGA:  11    -0.380750767156E+03   -0.20639E-02   -0.20395E-02  9828   0.601E-02-0.941E-04
CGA:  12    -0.380751311685E+03   -0.54453E-03   -0.70718E-03  9828   0.239E-02 0.102E-02
CGA:  13    -0.380751861558E+03   -0.54987E-03   -0.58625E-03  9828   0.154E-02 0.141E-03
CGA:  14    -0.380752257838E+03   -0.39628E-03   -0.29013E-03  9828   0.122E-02-0.353E-03
CGA:  15    -0.380752326967E+03   -0.69129E-04   -0.12465E-03  9828   0.681E-03 0.177E-03
CGA:  16    -0.380752322036E+03    0.49306E-05   -0.76629E-04  9828   0.457E-03 0.260E-03
CGA:  17    -0.380752390198E+03   -0.68162E-04   -0.10964E-03  9828   0.442E-03 0.161E-03
CGA:  18    -0.380752569945E+03   -0.17975E-03   -0.13343E-03  9828   0.787E-03-0.233E-03
CGA:  19    -0.380752587669E+03   -0.17724E-04   -0.75035E-04  9828   0.211E-03 0.214E-03
CGA:  20    -0.380752684981E+03   -0.97312E-04   -0.93094E-04  9828   0.306E-03-0.826E-04
CGA:  21    -0.380752744362E+03   -0.59381E-04   -0.80196E-04  9828   0.171E-02-0.600E-03
CGA:  22    -0.380752780446E+03   -0.36084E-04   -0.15193E-03  9828   0.432E-03 0.469E-03
CGA:  23    -0.380752846615E+03   -0.66169E-04   -0.94614E-04  9828   0.221E-03 0.136E-03
CGA:  24    -0.380752965148E+03   -0.11853E-03   -0.84900E-04  9828   0.809E-03-0.423E-03
CGA:  25    -0.380752949435E+03    0.15713E-04   -0.50801E-04  9828   0.131E-03 0.264E-03
CGA:  26    -0.380752938719E+03    0.10716E-04   -0.11023E-04  9828   0.737E-04 0.788E-04
CGA:  27    -0.380753037492E+03   -0.98773E-04    0.12677E-04  9828   0.792E-04 0.598E-05
CGA:  28    -0.380753033739E+03    0.37523E-05   -0.71219E-05  9828   0.276E-04 0.439E-04
  24 F= -.38075303E+03 E0= -.38075288E+03  d E =0.570623E+00  mag=     4.0000
       N       E                     dE             d eps       ncg     rms          ort
SDA:   1    -0.379998742064E+03    0.75430E+00    0.00000E+00  9828   0.278E+01 0.000E+00
CGA:   2    -0.380889135388E+03   -0.89039E+00   -0.89047E+00  9828   0.920E+00-0.115E-01
CGA:   3    -0.381090683835E+03   -0.20155E+00   -0.20175E+00  9828   0.241E+00 0.339E-02
CGA:   4    -0.381134841677E+03   -0.44158E-01   -0.44596E-01  9828   0.452E-01-0.190E-02
CGA:   5    -0.381145054679E+03   -0.10213E-01   -0.10200E-01  9828   0.130E-01-0.154E-03
CGA:   6    -0.381148697997E+03   -0.36433E-02   -0.36268E-02  9828   0.590E-02-0.878E-03
CGA:   7    -0.381150296533E+03   -0.15985E-02   -0.15934E-02  9828   0.260E-02-0.690E-03
CGA:   8    -0.381151043697E+03   -0.74716E-03   -0.75868E-03  9828   0.111E-02-0.344E-03
CGA:   9    -0.381151382015E+03   -0.33832E-03   -0.43641E-03  9828   0.112E-02-0.620E-03
CGA:  10    -0.381151555323E+03   -0.17331E-03   -0.18386E-03  9828   0.174E-03 0.777E-04
CGA:  11    -0.381151383894E+03    0.17143E-03   -0.21765E-03  9828   0.188E-02-0.444E-03
CGA:  12    -0.381151681853E+03   -0.29796E-03   -0.33024E-03  9828   0.268E-03 0.202E-03
CGA:  13    -0.381151756734E+03   -0.74881E-04   -0.73717E-04  9828   0.442E-04-0.131E-04
CGA:  14    -0.381151764299E+03   -0.75647E-05   -0.95938E-05  9828   0.173E-04 0.199E-04
  25 F= -.38115176E+03 E0= -.38115176E+03  d E =-.398731E+00  mag=     4.0000
       N       E                     dE             d eps       ncg     rms          ort
SDA:   1    -0.380605440959E+03    0.54632E+00    0.00000E+00  9828   0.172E+01 0.000E+00
CGA:   2    -0.381152204340E+03   -0.54676E+00   -0.54674E+00  9828   0.616E+00-0.773E-02
CGA:   3    -0.381280588805E+03   -0.12838E+00   -0.12870E+00  9828   0.153E+00 0.341E-02
CGA:   4    -0.381310287012E+03   -0.29698E-01   -0.29887E-01  9828   0.261E-01 0.145E-02
CGA:   5    -0.381316217443E+03   -0.59304E-02   -0.59178E-02  9828   0.881E-02-0.148E-03
CGA:   6    -0.381318453066E+03   -0.22356E-02   -0.22187E-02  9828   0.338E-02-0.321E-03
CGA:   7    -0.381319423568E+03   -0.97050E-03   -0.96956E-03  9828   0.128E-02-0.170E-03
CGA:   8    -0.381319788787E+03   -0.36522E-03   -0.36542E-03  9828   0.450E-03 0.584E-04
CGA:   9    -0.381319929855E+03   -0.14107E-03   -0.14116E-03  9828   0.159E-03 0.321E-04
CGA:  10    -0.381319992817E+03   -0.62962E-04   -0.62714E-04  9828   0.861E-04 0.326E-05
CGA:  11    -0.381320027894E+03   -0.35077E-04   -0.33860E-04  9828   0.608E-04 0.145E-04
CGA:  12    -0.381320052813E+03   -0.24919E-04   -0.24053E-04  9828   0.396E-04 0.293E-04
CGA:  13    -0.381320062585E+03   -0.97714E-05   -0.13166E-04  9828   0.239E-04 0.384E-04
  26 F= -.38132006E+03 E0= -.38132006E+03  d E =-.168298E+00  mag=     4.0000
       N       E                     dE             d eps       ncg     rms          ort
SDA:   1    -0.381074210969E+03    0.24584E+00    0.00000E+00  9828   0.684E+00 0.000E+00
CGA:   2    -0.381290227505E+03   -0.21602E+00   -0.21611E+00  9828   0.254E+00-0.549E-02
CGA:   3    -0.381341952423E+03   -0.51725E-01   -0.51979E-01  9828   0.613E-01 0.285E-02
CGA:   4    -0.381353785022E+03   -0.11833E-01   -0.12017E-01  9828   0.106E-01 0.196E-02
CGA:   5    -0.381356169010E+03   -0.23840E-02   -0.23885E-02  9828   0.351E-02 0.641E-04
CGA:   6    -0.381357123178E+03   -0.95417E-03   -0.94946E-03  9828   0.147E-02-0.258E-03
CGA:   7    -0.381357499599E+03   -0.37642E-03   -0.37634E-03  9828   0.510E-03-0.838E-05
CGA:   8    -0.381357627068E+03   -0.12747E-03   -0.13047E-03  9828   0.170E-03 0.105E-03
CGA:   9    -0.381357666048E+03   -0.38980E-04   -0.44290E-04  9828   0.684E-04 0.776E-04
CGA:  10    -0.381357683039E+03   -0.16992E-04   -0.20526E-04  9828   0.364E-04 0.473E-04
CGA:  11    -0.381357698754E+03   -0.15715E-04   -0.14193E-04  9828   0.280E-04 0.134E-04
CGA:  12    -0.381357705519E+03   -0.67653E-05   -0.85827E-05  9828   0.200E-04 0.308E-04
  27 F= -.38135771E+03 E0= -.38135771E+03  d E =-.376429E-01  mag=     4.0000
       N       E                     dE             d eps       ncg     rms          ort
SDA:   1    -0.381338505655E+03    0.19193E-01    0.00000E+00  9828   0.610E-01 0.000E+00
CGA:   2    -0.381356706913E+03   -0.18201E-01   -0.18261E-01  9828   0.247E-01-0.232E-02
CGA:   3    -0.381361338559E+03   -0.46316E-02   -0.47242E-02  9828   0.526E-02 0.122E-02
CGA:   4    -0.381362174027E+03   -0.83547E-03   -0.92684E-03  9828   0.953E-03 0.887E-03
CGA:   5    -0.381362362964E+03   -0.18894E-03   -0.20697E-03  9828   0.258E-03 0.225E-03
CGA:   6    -0.381362465800E+03   -0.10284E-03   -0.10502E-03  9828   0.170E-03-0.322E-04
CGA:   7    -0.381362504908E+03   -0.39109E-04   -0.39111E-04  9828   0.843E-04 0.913E-06
CGA:   8    -0.381362515759E+03   -0.10850E-04   -0.14351E-04  9828   0.450E-04 0.365E-04
CGA:   9    -0.381362518892E+03   -0.31338E-05   -0.81012E-05  9828   0.256E-04 0.369E-04
  28 F= -.38136252E+03 E0= -.38136252E+03  d E =-.481337E-02  mag=     4.0000
       N       E                     dE             d eps       ncg     rms          ort
SDA:   1    -0.381329789753E+03    0.32726E-01    0.00000E+00  9828   0.956E-01 0.000E+00
CGA:   2    -0.381357626845E+03   -0.27837E-01   -0.27984E-01  9828   0.397E-01-0.329E-02
CGA:   3    -0.381365242992E+03   -0.76161E-02   -0.76917E-02  9828   0.789E-02 0.152E-02
CGA:   4    -0.381366517816E+03   -0.12748E-02   -0.13667E-02  9828   0.139E-02 0.113E-02
CGA:   5    -0.381366794470E+03   -0.27665E-03   -0.29485E-03  9828   0.364E-03 0.309E-03
CGA:   6    -0.381366928185E+03   -0.13371E-03   -0.13580E-03  9828   0.197E-03-0.322E-04
CGA:   7    -0.381366983338E+03   -0.55153E-04   -0.58103E-04  9828   0.110E-03-0.374E-04
CGA:   8    -0.381366997325E+03   -0.13988E-04   -0.16175E-04  9828   0.537E-04 0.326E-04
CGA:   9    -0.381367001105E+03   -0.37796E-05   -0.84465E-05  9828   0.281E-04 0.378E-04
  29 F= -.38136700E+03 E0= -.38136700E+03  d E =-.448221E-02  mag=     4.0000
       N       E                     dE             d eps       ncg     rms          ort
SDA:   1    -0.381359747433E+03    0.72499E-02    0.00000E+00  9828   0.212E-01 0.000E+00
CGA:   2    -0.381366666076E+03   -0.69186E-02   -0.70179E-02  9828   0.890E-02-0.101E-02
CGA:   3    -0.381368180309E+03   -0.15142E-02   -0.15395E-02  9828   0.137E-02 0.447E-03
CGA:   4    -0.381368390207E+03   -0.20990E-03   -0.22830E-03  9828   0.255E-03 0.241E-03
CGA:   5    -0.381368440907E+03   -0.50700E-04   -0.54262E-04  9828   0.694E-04 0.700E-04
CGA:   6    -0.381368463541E+03   -0.22633E-04   -0.22545E-04  9828   0.282E-04 0.341E-05
CGA:   7    -0.381368472422E+03   -0.88816E-05   -0.89898E-05  9828   0.164E-04-0.147E-05
  30 F= -.38136847E+03 E0= -.38136847E+03  d E =-.147132E-02  mag=     4.0000
       N       E                     dE             d eps       ncg     rms          ort
SDA:   1    -0.381064159069E+03    0.30430E+00    0.00000E+00  9828   0.703E+00 0.000E+00
CGA:   2    -0.381323162555E+03   -0.25900E+00   -0.25910E+00  9828   0.188E+00-0.629E-03
CGA:   3    -0.381362521542E+03   -0.39359E-01   -0.39328E-01  9828   0.332E-01-0.115E-02
CGA:   4    -0.381368878332E+03   -0.63568E-02   -0.63495E-02  9828   0.741E-02-0.164E-03
CGA:   5    -0.381370420515E+03   -0.15422E-02   -0.15438E-02  9828   0.178E-02 0.709E-04
CGA:   6    -0.381370818316E+03   -0.39780E-03   -0.39845E-03  9828   0.457E-03 0.651E-04
CGA:   7    -0.381370956383E+03   -0.13807E-03   -0.13800E-03  9828   0.184E-03 0.121E-05
CGA:   8    -0.381371025157E+03   -0.68775E-04   -0.82653E-04  9828   0.147E-03-0.648E-04
CGA:   9    -0.381371052986E+03   -0.27829E-04   -0.29989E-04  9828   0.559E-04-0.307E-04
CGA:  10    -0.381371058110E+03   -0.51238E-05   -0.67654E-05  9828   0.240E-04 0.172E-04
  31 F= -.38137106E+03 E0= -.38137106E+03  d E =-.258569E-02  mag=     4.0000
       N       E                     dE             d eps       ncg     rms          ort
SDA:   1    -0.381073400999E+03    0.29765E+00    0.00000E+00  9828   0.688E+00 0.000E+00
CGA:   2    -0.381309230584E+03   -0.23583E+00   -0.23579E+00  9828   0.215E+00 0.331E-03
CGA:   3    -0.381354227809E+03   -0.44997E-01   -0.45016E-01  9828   0.387E-01 0.541E-03
CGA:   4    -0.381361283411E+03   -0.70556E-02   -0.70934E-02  9828   0.817E-02 0.659E-03
CGA:   5    -0.381363032727E+03   -0.17493E-02   -0.17548E-02  9828   0.200E-02 0.204E-03
CGA:   6    -0.381363539736E+03   -0.50701E-03   -0.50770E-03  9828   0.662E-03-0.626E-04
CGA:   7    -0.381363721784E+03   -0.18205E-03   -0.18338E-03  9828   0.267E-03-0.273E-04
CGA:   8    -0.381363797692E+03   -0.75908E-04   -0.74217E-04  9828   0.937E-04 0.338E-04
CGA:   9    -0.381363816455E+03   -0.18763E-04   -0.20825E-04  9828   0.327E-04 0.457E-04
CGA:  10    -0.381363823701E+03   -0.72460E-05   -0.86508E-05  9828   0.144E-04 0.225E-04
CGA:  11    -0.381363826829E+03   -0.31275E-05   -0.15576E-04  9828   0.738E-04-0.148E-04
  32 F= -.38136383E+03 E0= -.38136383E+03  d E =0.723128E-02  mag=     4.0000
       N       E                     dE             d eps       ncg     rms          ort
SDA:   1    -0.381292586825E+03    0.71237E-01    0.00000E+00  9828   0.163E+00 0.000E+00
CGA:   2    -0.381345841569E+03   -0.53255E-01   -0.53126E-01  9828   0.516E-01 0.233E-02
CGA:   3    -0.381357630565E+03   -0.11789E-01   -0.11731E-01  9828   0.889E-02-0.116E-02
CGA:   4    -0.381359360261E+03   -0.17297E-02   -0.16958E-02  9828   0.220E-02-0.439E-03
CGA:   5    -0.381359774508E+03   -0.41425E-03   -0.41622E-03  9828   0.467E-03 0.288E-04
CGA:   6    -0.381359868495E+03   -0.93987E-04   -0.98164E-04  9828   0.130E-03 0.733E-04
CGA:   7    -0.381359910125E+03   -0.41630E-04   -0.41447E-04  9828   0.631E-04 0.132E-04
CGA:   8    -0.381359935278E+03   -0.25153E-04   -0.25404E-04  9828   0.398E-04-0.244E-05
CGA:   9    -0.381359948435E+03   -0.13156E-04   -0.20469E-04  9828   0.481E-04-0.273E-04
CGA:  10    -0.381359955208E+03   -0.67729E-05   -0.79510E-05  9828   0.758E-05 0.102E-04
  33 F= -.38135996E+03 E0= -.38135996E+03  d E =0.387162E-02  mag=     4.0000
       N       E                     dE             d eps       ncg     rms          ort
SDA:   1    -0.380780586136E+03    0.57936E+00    0.00000E+00  9828   0.135E+01 0.000E+00
CGA:   2    -0.381235308990E+03   -0.45472E+00   -0.45425E+00  9828   0.422E+00 0.712E-02
CGA:   3    -0.381328626801E+03   -0.93318E-01   -0.93085E-01  9828   0.660E-01-0.438E-02
CGA:   4    -0.381341265533E+03   -0.12639E-01   -0.12574E-01  9828   0.160E-01-0.817E-03
CGA:   5    -0.381344472215E+03   -0.32067E-02   -0.32093E-02  9828   0.358E-02 0.424E-04
CGA:   6    -0.381345297106E+03   -0.82489E-03   -0.82969E-03  9828   0.102E-02 0.149E-03
CGA:   7    -0.381345607343E+03   -0.31024E-03   -0.30947E-03  9828   0.450E-03 0.266E-04
CGA:   8    -0.381345792899E+03   -0.18556E-03   -0.20529E-03  9828   0.357E-03-0.108E-03
CGA:   9    -0.381345876802E+03   -0.83902E-04   -0.85928E-04  9828   0.136E-03-0.453E-04
CGA:  10    -0.381345906662E+03   -0.29860E-04   -0.30010E-04  9828   0.476E-04 0.696E-05
CGA:  11    -0.381345918835E+03   -0.12173E-04   -0.12458E-04  9828   0.210E-04 0.116E-04
CGA:  12    -0.381345928073E+03   -0.92382E-05   -0.90856E-05  9828   0.134E-04 0.198E-05
  34 F= -.38134593E+03 E0= -.38134593E+03  d E =0.140271E-01  mag=     4.0000
       N       E                     dE             d eps       ncg     rms          ort
SDA:   1    -0.372253525375E+03    0.90924E+01    0.00000E+00  9828   0.212E+02 0.000E+00
CGA:   2    -0.379712940671E+03   -0.74594E+01   -0.74584E+01  9828   0.608E+01 0.167E-01
CGA:   3    -0.381032481528E+03   -0.13195E+01   -0.13183E+01  9828   0.898E+00-0.162E-01
CGA:   4    -0.381216435450E+03   -0.18395E+00   -0.18397E+00  9828   0.218E+00 0.586E-03
CGA:   5    -0.381262291042E+03   -0.45856E-01   -0.45880E-01  9828   0.535E-01 0.305E-03
CGA:   6    -0.381275428266E+03   -0.13137E-01   -0.13119E-01  9828   0.176E-01-0.507E-03
CGA:   7    -0.381280665221E+03   -0.52370E-02   -0.52501E-02  9828   0.785E-02-0.574E-03
CGA:   8    -0.381283410267E+03   -0.27450E-02   -0.28098E-02  9828   0.379E-02-0.717E-03
CGA:   9    -0.381284537614E+03   -0.11273E-02   -0.11469E-02  9828   0.133E-02-0.398E-03
CGA:  10    -0.381284898061E+03   -0.36045E-03   -0.36240E-03  9828   0.466E-03-0.110E-03
CGA:  11    -0.381285044727E+03   -0.14667E-03   -0.14834E-03  9828   0.239E-03-0.280E-04
CGA:  12    -0.381285140888E+03   -0.96161E-04   -0.10520E-03  9828   0.216E-03-0.510E-04
CGA:  13    -0.381285197062E+03   -0.56174E-04   -0.56202E-04  9828   0.103E-03-0.105E-05
CGA:  14    -0.381285219538E+03   -0.22476E-04   -0.24444E-04  9828   0.379E-04 0.313E-04
CGA:  15    -0.381285225763E+03   -0.62252E-05   -0.90907E-05  9828   0.208E-04 0.250E-04
  35 F= -.38128523E+03 E0= -.38128523E+03  d E =0.607023E-01  mag=     4.0000
       N       E                     dE             d eps       ncg     rms          ort
SDA:   1    -0.346438810764E+03    0.34846E+02    0.00000E+00  9828   0.821E+02 0.000E+00
CGA:   2    -0.374706773535E+03   -0.28268E+02   -0.28246E+02  9828   0.265E+02 0.319E+00
CGA:   3    -0.379843952636E+03   -0.51372E+01   -0.51295E+01  9828   0.475E+01 0.939E-02
CGA:   4    -0.380780042281E+03   -0.93609E+00   -0.93141E+00  9828   0.102E+01 0.195E-01
CGA:   5    -0.381003892979E+03   -0.22385E+00   -0.22493E+00  9828   0.292E+00 0.344E-02
CGA:   6    -0.381071719239E+03   -0.67826E-01   -0.67720E-01  9828   0.898E-01-0.976E-03
CGA:   7    -0.381099634250E+03   -0.27915E-01   -0.28046E-01  9828   0.411E-01-0.378E-02
CGA:   8    -0.381111895903E+03   -0.12262E-01   -0.12335E-01  9828   0.192E-01-0.212E-02
CGA:   9    -0.381117184839E+03   -0.52889E-02   -0.53042E-02  9828   0.633E-02-0.148E-02
CGA:  10    -0.381118910053E+03   -0.17252E-02   -0.17349E-02  9828   0.204E-02-0.599E-03
CGA:  11    -0.381119556272E+03   -0.64622E-03   -0.77137E-03  9828   0.203E-02-0.915E-03
CGA:  12    -0.381119850138E+03   -0.29387E-03   -0.28686E-03  9828   0.103E-02-0.214E-03
CGA:  13    -0.381120189492E+03   -0.33935E-03   -0.36542E-03  9828   0.997E-03-0.244E-03
CGA:  14    -0.381120415742E+03   -0.22625E-03   -0.22867E-03  9828   0.844E-03-0.311E-03
CGA:  15    -0.381120556922E+03   -0.14118E-03   -0.14227E-03  9828   0.421E-03 0.204E-04
CGA:  16    -0.381120620908E+03   -0.63986E-04   -0.75018E-04  9828   0.225E-03 0.952E-04
CGA:  17    -0.381120675584E+03   -0.54676E-04   -0.60005E-04  9828   0.131E-03 0.791E-04
CGA:  18    -0.381120698502E+03   -0.22918E-04   -0.30589E-04  9828   0.830E-04 0.705E-04
CGA:  19    -0.381120707920E+03   -0.94179E-05   -0.14603E-04  9828   0.458E-04 0.520E-04
CGA:  20    -0.381120726277E+03   -0.18357E-04   -0.15939E-04  9828   0.349E-04 0.312E-04
CGA:  21    -0.381120725799E+03    0.47824E-06   -0.41590E-05  9828   0.293E-04 0.298E-04
  36 F= -.38112073E+03 E0= -.38112073E+03  d E =0.164500E+00  mag=     4.0000
       N       E                     dE             d eps       ncg     rms          ort
SDA:   1    -0.366541886956E+03    0.14579E+02    0.00000E+00  9828   0.351E+02 0.000E+00
CGA:   2    -0.378477951240E+03   -0.11936E+02   -0.11923E+02  9828   0.109E+02 0.121E+00
CGA:   3    -0.380777270748E+03   -0.22993E+01   -0.22956E+01  9828   0.191E+01-0.388E-02
CGA:   4    -0.381139382175E+03   -0.36211E+00   -0.36417E+00  9828   0.417E+00 0.696E-02
CGA:   5    -0.381234388960E+03   -0.95007E-01   -0.94956E-01  9828   0.104E+00-0.172E-02
CGA:   6    -0.381260652117E+03   -0.26263E-01   -0.26250E-01  9828   0.377E-01-0.262E-02
CGA:   7    -0.381271396531E+03   -0.10744E-01   -0.10793E-01  9828   0.165E-01-0.142E-02
CGA:   8    -0.381276868059E+03   -0.54715E-02   -0.55943E-02  9828   0.794E-02-0.134E-02
CGA:   9    -0.381279158528E+03   -0.22905E-02   -0.23713E-02  9828   0.329E-02-0.134E-02
CGA:  10    -0.381279954595E+03   -0.79607E-03   -0.80858E-03  9828   0.108E-02-0.462E-03
CGA:  11    -0.381280258086E+03   -0.30349E-03   -0.30539E-03  9828   0.453E-03-0.317E-04
CGA:  12    -0.381280421922E+03   -0.16384E-03   -0.16116E-03  9828   0.242E-03 0.281E-04
CGA:  13    -0.381280527612E+03   -0.10569E-03   -0.10423E-03  9828   0.132E-03 0.109E-04
CGA:  14    -0.381280564442E+03   -0.36829E-04   -0.37336E-04  9828   0.493E-04 0.388E-04
CGA:  15    -0.381280572540E+03   -0.80988E-05   -0.11839E-04  9828   0.266E-04 0.380E-04
  37 F= -.38128057E+03 E0= -.38128057E+03  d E =-.159847E+00  mag=     4.0000
       N       E                     dE             d eps       ncg     rms          ort
SDA:   1    -0.377997898431E+03    0.32827E+01    0.00000E+00  9828   0.768E+01 0.000E+00
CGA:   2    -0.380736861554E+03   -0.27390E+01   -0.27397E+01  9828   0.219E+01-0.107E-01
CGA:   3    -0.381202588972E+03   -0.46573E+00   -0.46618E+00  9828   0.379E+00 0.742E-02
CGA:   4    -0.381275301207E+03   -0.72712E-01   -0.72944E-01  9828   0.866E-01 0.330E-02
CGA:   5    -0.381294671081E+03   -0.19370E-01   -0.19322E-01  9828   0.219E-01-0.909E-03
CGA:   6    -0.381300241542E+03   -0.55705E-02   -0.55579E-02  9828   0.783E-02-0.994E-03
CGA:   7    -0.381302258818E+03   -0.20173E-02   -0.20173E-02  9828   0.307E-02-0.608E-04
CGA:   8    -0.381303258986E+03   -0.10002E-02   -0.10041E-02  9828   0.130E-02-0.628E-04
CGA:   9    -0.381303653220E+03   -0.39423E-03   -0.39589E-03  9828   0.459E-03-0.401E-04
CGA:  10    -0.381303810192E+03   -0.15697E-03   -0.19097E-03  9828   0.382E-03-0.219E-03
CGA:  11    -0.381303854794E+03   -0.44602E-04   -0.45239E-04  9828   0.183E-03 0.120E-04
CGA:  12    -0.381303885683E+03   -0.30889E-04   -0.35541E-04  9828   0.928E-04 0.512E-04
CGA:  13    -0.381303908962E+03   -0.23279E-04   -0.25453E-04  9828   0.539E-04 0.361E-04
CGA:  14    -0.381303924243E+03   -0.15281E-04   -0.16742E-04  9828   0.378E-04 0.305E-04
CGA:  15    -0.381303932511E+03   -0.82686E-05   -0.88019E-05  9828   0.177E-04 0.148E-04
CGA:  16    -0.381303944124E+03   -0.11612E-04   -0.10460E-04  9828   0.181E-04 0.727E-05
CGA:  17    -0.381303946322E+03   -0.21984E-05   -0.44043E-05  9828   0.161E-04 0.215E-04
  38 F= -.38130395E+03 E0= -.38130395E+03  d E =-.233738E-01  mag=     4.0000
       N       E                     dE             d eps       ncg     rms          ort
SDA:   1    -0.378542212821E+03    0.27617E+01    0.00000E+00  9828   0.635E+01 0.000E+00
CGA:   2    -0.380851547859E+03   -0.23093E+01   -0.23089E+01  9828   0.169E+01 0.536E-02
CGA:   3    -0.381221034366E+03   -0.36949E+00   -0.36900E+00  9828   0.264E+00-0.974E-02
CGA:   4    -0.381274307012E+03   -0.53273E-01   -0.53288E-01  9828   0.628E-01 0.285E-03
CGA:   5    -0.381287404198E+03   -0.13097E-01   -0.13122E-01  9828   0.145E-01 0.458E-03
CGA:   6    -0.381290981930E+03   -0.35777E-02   -0.35759E-02  9828   0.465E-02-0.121E-03
CGA:   7    -0.381292315729E+03   -0.13338E-02   -0.13416E-02  9828   0.206E-02-0.240E-03
CGA:   8    -0.381293006924E+03   -0.69120E-03   -0.72396E-03  9828   0.105E-02-0.298E-03
CGA:   9    -0.381293297895E+03   -0.29097E-03   -0.30242E-03  9828   0.387E-03-0.162E-03
CGA:  10    -0.381293386215E+03   -0.88319E-04   -0.88320E-04  9828   0.109E-03-0.397E-05
CGA:  11    -0.381293428899E+03   -0.42685E-04   -0.50131E-04  9828   0.892E-04-0.378E-04
CGA:  12    -0.381293450954E+03   -0.22055E-04   -0.27603E-04  9828   0.794E-04-0.286E-04
CGA:  13    -0.381293463178E+03   -0.12224E-04   -0.35034E-04  9828   0.134E-03-0.637E-04
CGA:  14    -0.381293480013E+03   -0.16835E-04   -0.22047E-04  9828   0.294E-04 0.367E-04
CGA:  15    -0.381293485220E+03   -0.52068E-05   -0.69817E-05  9828   0.127E-04 0.157E-04
  39 F= -.38129349E+03 E0= -.38129349E+03  d E =0.104611E-01  mag=     4.0000
       N       E                     dE             d eps       ncg     rms          ort
SDA:   1    -0.380539576548E+03    0.75390E+00    0.00000E+00  9828   0.171E+01 0.000E+00
CGA:   2    -0.381166798619E+03   -0.62722E+00   -0.62711E+00  9828   0.442E+00 0.169E-02
CGA:   3    -0.381262818941E+03   -0.96020E-01   -0.95816E-01  9828   0.680E-01-0.243E-02
CGA:   4    -0.381276417909E+03   -0.13599E-01   -0.13627E-01  9828   0.165E-01 0.304E-03
CGA:   5    -0.381279734482E+03   -0.33166E-02   -0.33420E-02  9828   0.365E-02 0.281E-03
CGA:   6    -0.381280648623E+03   -0.91414E-03   -0.91253E-03  9828   0.110E-02-0.383E-04
CGA:   7    -0.381280983223E+03   -0.33460E-03   -0.33700E-03  9828   0.525E-03-0.944E-04
CGA:   8    -0.381281141532E+03   -0.15831E-03   -0.15928E-03  9828   0.222E-03-0.216E-04
CGA:   9    -0.381281211738E+03   -0.70206E-04   -0.70489E-04  9828   0.788E-04-0.690E-05
CGA:  10    -0.381281233234E+03   -0.21495E-04   -0.21567E-04  9828   0.264E-04 0.821E-05
CGA:  11    -0.381281201830E+03    0.31403E-04   -0.40390E-04  9828   0.311E-03-0.662E-04
CGA:  12    -0.381281262778E+03   -0.60947E-04   -0.65214E-04  9828   0.450E-04 0.317E-04
CGA:  13    -0.381281277663E+03   -0.14885E-04   -0.14758E-04  9828   0.196E-04-0.304E-05
CGA:  14    -0.381281280448E+03   -0.27856E-05   -0.37692E-05  9828   0.787E-05 0.751E-05
  40 F= -.38128128E+03 E0= -.38128128E+03  d E =0.122048E-01  mag=     4.0000
       N       E                     dE             d eps       ncg     rms          ort
SDA:   1    -0.355974169155E+03    0.25307E+02    0.00000E+00  9828   0.587E+02 0.000E+00
CGA:   2    -0.374793739498E+03   -0.18820E+02   -0.18779E+02  9828   0.338E+02-0.321E+01
CGA:   3    -0.378618279509E+03   -0.38245E+01   -0.49404E+01  9828   0.893E+01-0.111E+01
CGA:   4    -0.379567193298E+03   -0.94891E+00   -0.57717E+00  9828   0.360E+01 0.557E+01
CGA:   5    -0.379835401884E+03   -0.26821E+00   -0.15539E+00  9828   0.185E+01 0.261E+01
CGA:   6    -0.380103504769E+03   -0.26810E+00   -0.19070E+00  9828   0.112E+01 0.678E+00
CGA:   7    -0.380362191146E+03   -0.25869E+00   -0.26277E+00  9828   0.307E+00-0.829E-02
CGA:   8    -0.380400634515E+03   -0.38443E-01   -0.33755E-01  9828   0.218E+00 0.516E-01
CGA:   9    -0.380454557603E+03   -0.53923E-01   -0.53770E-01  9828   0.103E+00-0.617E-02
CGA:  10    -0.380468077546E+03   -0.13520E-01   -0.12777E-01  9828   0.621E-01 0.122E-01
CGA:  11    -0.380478546546E+03   -0.10469E-01   -0.10227E-01  9828   0.369E-01-0.338E-02
CGA:  12    -0.380481590959E+03   -0.30444E-02   -0.34359E-02  9828   0.153E-01 0.570E-02
CGA:  13    -0.380485517060E+03   -0.39261E-02   -0.39572E-02  9828   0.106E-01 0.150E-02
CGA:  14    -0.380487155152E+03   -0.16381E-02   -0.17195E-02  9828   0.497E-02 0.118E-02
CGA:  15    -0.380488620238E+03   -0.14651E-02   -0.14403E-02  9828   0.426E-02 0.129E-02
CGA:  16    -0.380489566072E+03   -0.94583E-03   -0.93601E-03  9828   0.601E-02-0.180E-03
CGA:  17    -0.380489771868E+03   -0.20580E-03   -0.42574E-03  9828   0.363E-02 0.201E-02
CGA:  18    -0.380490060144E+03   -0.28828E-03   -0.44029E-03  9828   0.430E-02 0.170E-02
CGA:  19    -0.380490798778E+03   -0.73863E-03   -0.78177E-03  9828   0.590E-02 0.574E-03
CGA:  20    -0.380491470976E+03   -0.67220E-03   -0.84590E-03  9828   0.678E-02 0.206E-02
CGA:  21    -0.380491709411E+03   -0.23843E-03   -0.52281E-03  9828   0.300E-02 0.293E-02
CGA:  22    -0.380492018200E+03   -0.30879E-03   -0.43772E-03  9828   0.385E-02 0.131E-02
CGA:  23    -0.380492731575E+03   -0.71338E-03   -0.76158E-03  9828   0.536E-02 0.703E-03
CGA:  24    -0.380492959869E+03   -0.22829E-03   -0.34389E-03  9828   0.189E-02 0.167E-02
CGA:  25    -0.380493021562E+03   -0.61694E-04   -0.12870E-03  9828   0.140E-02 0.640E-03
CGA:  26    -0.380493212803E+03   -0.19124E-03   -0.19713E-03  9828   0.220E-02 0.927E-04
CGA:  27    -0.380493424457E+03   -0.21165E-03   -0.20239E-03  9828   0.327E-02-0.118E-03
CGA:  28    -0.380493520757E+03   -0.96299E-04   -0.15857E-03  9828   0.270E-02 0.444E-03
CGA:  29    -0.380493566543E+03   -0.45786E-04   -0.13400E-03  9828   0.204E-02 0.656E-03
CGA:  30    -0.380493698534E+03   -0.13199E-03   -0.17045E-03  9828   0.238E-02 0.379E-03
CGA:  31    -0.380493985588E+03   -0.28705E-03   -0.22809E-03  9828   0.252E-02-0.786E-03
CGA:  32    -0.380494184078E+03   -0.19849E-03   -0.13219E-03  9828   0.404E-02-0.860E-03
CGA:  33    -0.380494346193E+03   -0.16211E-03   -0.11451E-03  9828   0.419E-02-0.313E-04
CGA:  34    -0.380494556903E+03   -0.21071E-03   -0.18401E-03  9828   0.356E-02 0.344E-03
CGA:  35    -0.380494779447E+03   -0.22254E-03   -0.18567E-03  9828   0.225E-02-0.263E-03
SDA:  36    -0.380494941979E+03   -0.16253E-03   -0.11161E-03  9828   0.207E-02-0.654E-03
CGA:  37    -0.380495157386E+03   -0.21541E-03   -0.22885E-03  9828   0.122E-02 0.686E-03
CGA:  38    -0.380495182681E+03   -0.25294E-04   -0.53654E-03  9828   0.165E-01-0.250E-02
CGA:  39    -0.380495551649E+03   -0.36897E-03   -0.55785E-03  9828   0.167E-02 0.299E-02
CGA:  40    -0.380495630396E+03   -0.78748E-04   -0.11634E-03  9828   0.113E-02 0.524E-03
CGA:  41    -0.380495825549E+03   -0.19515E-03   -0.20908E-03  9828   0.181E-02-0.139E-02
CGA:  42    -0.380495871645E+03   -0.46097E-04   -0.94039E-04  9828   0.620E-03 0.621E-03
CGA:  43    -0.380495976857E+03   -0.10521E-03   -0.10491E-03  9828   0.367E-03-0.248E-03
CGA:  44    -0.380496055937E+03   -0.79080E-04    0.33767E-04  9828   0.517E-03 0.141E-03
CGA:  45    -0.380496218176E+03   -0.16224E-03   -0.15391E-03  9828   0.645E-03 0.108E-03
CGA:  46    -0.380496509637E+03   -0.29146E-03    0.12126E-03  9828   0.117E-02-0.186E-03
CGA:  47    -0.380492654472E+03    0.38552E-02   -0.18035E-02  9828   0.521E-01-0.666E-02
CGA:  48    -0.380496037993E+03   -0.33835E-02   -0.37718E-02  9828   0.136E-01-0.106E-01
CGA:  49    -0.380496280286E+03   -0.24229E-03   -0.48692E-03  9828   0.249E-02 0.183E-02
CGA:  50    -0.380496327183E+03   -0.46897E-04   -0.15174E-03  9828   0.198E-02 0.768E-03
CGA:  51    -0.380496646450E+03   -0.31927E-03   -0.31911E-03  9828   0.308E-02 0.319E-04
CGA:  52    -0.380497087744E+03   -0.44129E-03   -0.38328E-03  9828   0.616E-02-0.835E-03
CGA:  53    -0.380497250634E+03   -0.16289E-03   -0.23426E-03  9828   0.353E-02 0.596E-03
CGA:  54    -0.380497248793E+03    0.18409E-05   -0.11058E-03  9828   0.931E-03 0.834E-03
CGA:  55    -0.380497232399E+03    0.16394E-04   -0.37852E-04  9828   0.616E-03 0.361E-03
CGA:  56    -0.380497258564E+03   -0.26165E-04   -0.49404E-04  9828   0.678E-03 0.192E-03
CGA:  57    -0.380497359214E+03   -0.10065E-03   -0.68485E-04  9828   0.649E-03-0.328E-03
CGA:  58    -0.380497385467E+03   -0.26252E-04   -0.14570E-04  9828   0.751E-03-0.891E-04
CGA:  59    -0.380497393931E+03   -0.84647E-05   -0.24350E-04  9828   0.651E-03 0.149E-03
CGA:  60    -0.380497387485E+03    0.64462E-05   -0.28549E-04  9828   0.595E-03 0.317E-03
CGA:  61    -0.380497390235E+03   -0.27494E-05   -0.40528E-04  9828   0.539E-03 0.374E-03
CGA:  62    -0.380497444494E+03   -0.54259E-04   -0.11553E-03  9828   0.327E-02-0.891E-03
CGA:  63    -0.380497458654E+03   -0.14161E-04   -0.10424E-03  9828   0.363E-03 0.923E-03
CGA:  64    -0.380497448390E+03    0.10265E-04   -0.12045E-04  9828   0.120E-03 0.198E-03
CGA:  65    -0.380497462720E+03   -0.14330E-04   -0.27927E-04  9828   0.400E-03-0.139E-03
CGA:  66    -0.380497466983E+03   -0.42637E-05   -0.18867E-04  9828   0.743E-04 0.157E-03
  41 F= -.38049747E+03 E0= -.38049577E+03  d E =0.783813E+00  mag=     4.0000
       N       E                     dE             d eps       ncg     rms          ort
SDA:   1    -0.374304564694E+03    0.61929E+01    0.00000E+00  9828   0.165E+02 0.000E+00
CGA:   2    -0.379840747749E+03   -0.55362E+01   -0.55408E+01  9828   0.516E+01-0.227E-01
CGA:   3    -0.380927131482E+03   -0.10864E+01   -0.10515E+01  9828   0.130E+01 0.405E+00
CGA:   4    -0.381185102509E+03   -0.25797E+00   -0.25886E+00  9828   0.315E+00-0.163E-01
CGA:   5    -0.381253242918E+03   -0.68140E-01   -0.68171E-01  9828   0.893E-01-0.148E-02
CGA:   6    -0.381278256102E+03   -0.25013E-01   -0.25194E-01  9828   0.319E-01-0.134E-02
CGA:   7    -0.381288283232E+03   -0.10027E-01   -0.11231E-01  9828   0.182E-01-0.583E-02
CGA:   8    -0.381292695842E+03   -0.44126E-02   -0.55088E-02  9828   0.103E-01-0.537E-02
CGA:   9    -0.381294515554E+03   -0.18197E-02   -0.28428E-02  9828   0.722E-02-0.469E-02
CGA:  10    -0.381295526138E+03   -0.10106E-02   -0.11070E-02  9828   0.325E-02-0.104E-02
CGA:  11    -0.381296501004E+03   -0.97487E-03   -0.10713E-02  9828   0.224E-02-0.493E-03
CGA:  12    -0.381297179096E+03   -0.67809E-03   -0.67349E-03  9828   0.126E-02 0.296E-04
CGA:  13    -0.381297507612E+03   -0.32852E-03   -0.31659E-03  9828   0.516E-03 0.320E-03
CGA:  14    -0.381297646433E+03   -0.13882E-03   -0.13843E-03  9828   0.201E-03 0.227E-03
CGA:  15    -0.381297674620E+03   -0.28188E-04   -0.41376E-04  9828   0.134E-03 0.189E-03
CGA:  16    -0.381297678470E+03   -0.38502E-05   -0.14876E-04  9828   0.996E-04 0.112E-03
CGA:  17    -0.381297679811E+03   -0.13408E-05   -0.10391E-04  9828   0.849E-04 0.907E-04
  42 F= -.38129768E+03 E0= -.38129768E+03  d E =-.800213E+00  mag=     4.0000
       N       E                     dE             d eps       ncg     rms          ort
SDA:   1    -0.381263233984E+03    0.34444E-01    0.00000E+00  9828   0.114E+00 0.000E+00
CGA:   2    -0.381296778848E+03   -0.33545E-01   -0.33518E-01  9828   0.470E-01 0.298E-03
CGA:   3    -0.381306315346E+03   -0.95365E-02   -0.95356E-02  9828   0.102E-01 0.288E-03
CGA:   4    -0.381308341146E+03   -0.20258E-02   -0.20254E-02  9828   0.217E-02-0.193E-03
CGA:   5    -0.381308787345E+03   -0.44620E-03   -0.44582E-03  9828   0.568E-03 0.356E-04
CGA:   6    -0.381308926415E+03   -0.13907E-03   -0.13724E-03  9828   0.199E-03 0.479E-04
CGA:   7    -0.381308994890E+03   -0.68475E-04   -0.68625E-04  9828   0.107E-03-0.123E-05
CGA:   8    -0.381309014147E+03   -0.19257E-04   -0.20167E-04  9828   0.473E-04 0.498E-04
CGA:   9    -0.381309022794E+03   -0.86477E-05   -0.10655E-04  9828   0.272E-04 0.383E-04
  43 F= -.38130902E+03 E0= -.38130902E+03  d E =-.113430E-01  mag=     4.0000
       N       E                     dE             d eps       ncg     rms          ort
SDA:   1    -0.381033972982E+03    0.27504E+00    0.00000E+00  9828   0.764E+00 0.000E+00
CGA:   2    -0.381224792475E+03   -0.19082E+00   -0.19072E+00  9828   0.319E+00 0.261E-02
CGA:   3    -0.381294999242E+03   -0.70207E-01   -0.70207E-01  9828   0.721E-01 0.415E-05
CGA:   4    -0.381308289570E+03   -0.13290E-01   -0.13268E-01  9828   0.138E-01-0.790E-03
CGA:   5    -0.381311174741E+03   -0.28852E-02   -0.28855E-02  9828   0.362E-02-0.191E-03
CGA:   6    -0.381312017983E+03   -0.84324E-03   -0.84295E-03  9828   0.115E-02 0.117E-04
CGA:   7    -0.381312355461E+03   -0.33748E-03   -0.34283E-03  9828   0.465E-03-0.617E-04
CGA:   8    -0.381312492934E+03   -0.13747E-03   -0.13699E-03  9828   0.185E-03 0.498E-05
CGA:   9    -0.381312558623E+03   -0.65689E-04   -0.68343E-04  9828   0.878E-04-0.181E-04
CGA:  10    -0.381312585154E+03   -0.26531E-04   -0.44339E-04  9828   0.119E-03-0.538E-04
CGA:  11    -0.381312613058E+03   -0.27904E-04   -0.27782E-04  9828   0.319E-04-0.110E-04
CGA:  12    -0.381312622591E+03   -0.95329E-05   -0.93636E-05  9828   0.168E-04 0.217E-05
CGA:  13    -0.381312593426E+03    0.29165E-04   -0.17241E-04  9828   0.330E-03-0.443E-04
CGA:  14    -0.381312646476E+03   -0.53050E-04   -0.54828E-04  9828   0.351E-04 0.763E-05
CGA:  15    -0.381312658907E+03   -0.12431E-04   -0.11706E-04  9828   0.182E-04-0.642E-05
CGA:  16    -0.381312666275E+03   -0.73688E-05   -0.76537E-05  9828   0.108E-04-0.337E-05
  44 F= -.38131267E+03 E0= -.38131267E+03  d E =-.364348E-02  mag=     4.0000
       N       E                     dE             d eps       ncg     rms          ort
SDA:   1    -0.381305218678E+03    0.74402E-02    0.00000E+00  9828   0.212E-01 0.000E+00
CGA:   2    -0.381311679051E+03   -0.64604E-02   -0.65160E-02  9828   0.734E-02 0.412E-03
CGA:   3    -0.381313370748E+03   -0.16917E-02   -0.16318E-02  9828   0.190E-02-0.268E-03
CGA:   4    -0.381313775886E+03   -0.40514E-03   -0.37018E-03  9828   0.464E-03-0.156E-03
CGA:   5    -0.381313856535E+03   -0.80649E-04   -0.81447E-04  9828   0.114E-03 0.363E-05
CGA:   6    -0.381313871105E+03   -0.14570E-04   -0.21619E-04  9828   0.334E-04 0.327E-04
CGA:   7    -0.381313875516E+03   -0.44113E-05   -0.78948E-05  9828   0.157E-04 0.166E-04
  45 F= -.38131388E+03 E0= -.38131388E+03  d E =-.120924E-02  mag=     4.0000
       N       E                     dE             d eps       ncg     rms          ort
SDA:   1    -0.381297614658E+03    0.16256E-01    0.00000E+00  9828   0.451E-01 0.000E+00
CGA:   2    -0.381307961534E+03   -0.10347E-01   -0.10459E-01  9828   0.168E-01 0.778E-03
CGA:   3    -0.381311965452E+03   -0.40039E-02   -0.39899E-02  9828   0.411E-02-0.102E-03
CGA:   4    -0.381312756201E+03   -0.79075E-03   -0.74895E-03  9828   0.819E-03-0.233E-03
CGA:   5    -0.381312932679E+03   -0.17648E-03   -0.16675E-03  9828   0.230E-03-0.707E-04
CGA:   6    -0.381312972649E+03   -0.39970E-04   -0.43085E-04  9828   0.575E-04 0.220E-04
CGA:   7    -0.381312980406E+03   -0.77570E-05   -0.11603E-04  9828   0.219E-04 0.248E-04
  46 F= -.38131298E+03 E0= -.38131298E+03  d E =0.895110E-03  mag=     4.0000
       N       E                     dE             d eps       ncg     rms          ort
SDA:   1    -0.380718129820E+03    0.59484E+00    0.00000E+00  9828   0.164E+01 0.000E+00
CGA:   2    -0.381128340867E+03   -0.41021E+00   -0.41066E+00  9828   0.624E+00 0.600E-02
CGA:   3    -0.381268747548E+03   -0.14041E+00   -0.14025E+00  9828   0.141E+00-0.153E-02
CGA:   4    -0.381293825019E+03   -0.25077E-01   -0.24860E-01  9828   0.258E-01-0.155E-02
CGA:   5    -0.381299173746E+03   -0.53487E-02   -0.53099E-02  9828   0.640E-02-0.383E-03
CGA:   6    -0.381300642141E+03   -0.14684E-02   -0.14755E-02  9828   0.184E-02 0.101E-03
CGA:   7    -0.381301150006E+03   -0.50786E-03   -0.51070E-03  9828   0.699E-03 0.108E-03
CGA:   8    -0.381301416136E+03   -0.26613E-03   -0.26459E-03  9828   0.373E-03 0.260E-04
CGA:   9    -0.381301562939E+03   -0.14680E-03   -0.14760E-03  9828   0.189E-03-0.104E-04
CGA:  10    -0.381301631977E+03   -0.69038E-04   -0.70077E-04  9828   0.946E-04-0.140E-04
CGA:  11    -0.381301661664E+03   -0.29687E-04   -0.29264E-04  9828   0.436E-04 0.170E-04
CGA:  12    -0.381301672790E+03   -0.11126E-04   -0.12773E-04  9828   0.241E-04 0.262E-04
CGA:  13    -0.381301678804E+03   -0.60136E-05   -0.65277E-05  9828   0.131E-04 0.138E-04
  47 F= -.38130168E+03 E0= -.38130168E+03  d E =0.113016E-01  mag=     4.0000
       N       E                     dE             d eps       ncg     rms          ort
SDA:   1    -0.380951507017E+03    0.35017E+00    0.00000E+00  9828   0.935E+00 0.000E+00
CGA:   2    -0.381186323170E+03   -0.23482E+00   -0.23509E+00  9828   0.359E+00 0.533E-02
CGA:   3    -0.381267503796E+03   -0.81181E-01   -0.81054E-01  9828   0.814E-01-0.161E-02
CGA:   4    -0.381282128688E+03   -0.14625E-01   -0.14469E-01  9828   0.151E-01-0.130E-02
CGA:   5    -0.381285278222E+03   -0.31495E-02   -0.31278E-02  9828   0.381E-02-0.268E-03
CGA:   6    -0.381286122705E+03   -0.84448E-03   -0.85215E-03  9828   0.108E-02 0.129E-03
CGA:   7    -0.381286408472E+03   -0.28577E-03   -0.28912E-03  9828   0.384E-03 0.134E-03
CGA:   8    -0.381286556962E+03   -0.14849E-03   -0.14621E-03  9828   0.205E-03 0.406E-04
CGA:   9    -0.381286636786E+03   -0.79824E-04   -0.78713E-04  9828   0.977E-04 0.177E-04
CGA:  10    -0.381286671922E+03   -0.35135E-04   -0.34652E-04  9828   0.425E-04 0.126E-04
CGA:  11    -0.381286683997E+03   -0.12075E-04   -0.12629E-04  9828   0.208E-04 0.202E-04
CGA:  12    -0.381286687734E+03   -0.37373E-05   -0.57253E-05  9828   0.133E-04 0.193E-04
  48 F= -.38128669E+03 E0= -.38128669E+03  d E =0.149911E-01  mag=     4.0000
       N       E                     dE             d eps       ncg     rms          ort
SDA:   1    -0.381137693029E+03    0.14899E+00    0.00000E+00  9828   0.371E+00 0.000E+00
CGA:   2    -0.381242205165E+03   -0.10451E+00   -0.10451E+00  9828   0.141E+00 0.320E-02
[...]
CGA:   4    -0.381058677678E+03   -0.12768E-02   -0.12741E-02  9828   0.131E-02-0.582E-05
CGA:   5    -0.381058950986E+03   -0.27331E-03   -0.27307E-03  9828   0.342E-03-0.706E-06
CGA:   6    -0.381059033933E+03   -0.82947E-04   -0.82438E-04  9828   0.109E-03-0.206E-05
CGA:   7    -0.381059060465E+03   -0.26532E-04   -0.28250E-04  9828   0.356E-04 0.816E-05
CGA:   8    -0.381059074932E+03   -0.14467E-04   -0.14157E-04  9828   0.202E-04-0.340E-05
CGA:   9    -0.381059083594E+03   -0.86619E-05   -0.93628E-05  9828   0.217E-04-0.127E-04
  93 F= -.38105908E+03 E0= -.38105908E+03  d E =-.402144E-02  mag=     4.0000
       N       E                     dE             d eps       ncg     rms          ort
SDA:   1    -0.381043731471E+03    0.15343E-01    0.00000E+00  9828   0.384E-01 0.000E+00
CGA:   2    -0.381055471949E+03   -0.11740E-01   -0.11755E-01  9828   0.152E-01 0.115E-03
CGA:   3    -0.381058546972E+03   -0.30750E-02   -0.30429E-02  9828   0.300E-02-0.135E-03
CGA:   4    -0.381059085239E+03   -0.53827E-03   -0.54145E-03  9828   0.571E-03 0.141E-04
CGA:   5    -0.381059193879E+03   -0.10864E-03   -0.11408E-03  9828   0.138E-03 0.253E-04
CGA:   6    -0.381059231138E+03   -0.37259E-04   -0.36425E-04  9828   0.436E-04-0.546E-05
CGA:   7    -0.381059245207E+03   -0.14069E-04   -0.13400E-04  9828   0.219E-04-0.871E-05
CGA:   8    -0.381059249787E+03   -0.45798E-05   -0.46547E-05  9828   0.702E-05 0.598E-06
  94 F= -.38105925E+03 E0= -.38105925E+03  d E =-.166194E-03  mag=     4.0000
       N       E                     dE             d eps       ncg     rms          ort
SDA:   1    -0.380852647282E+03    0.20660E+00    0.00000E+00  9828   0.489E+00 0.000E+00
CGA:   2    -0.381005332304E+03   -0.15269E+00   -0.15288E+00  9828   0.156E+00 0.312E-02
CGA:   3    -0.381042342895E+03   -0.37011E-01   -0.36774E-01  9828   0.242E-01-0.174E-02
CGA:   4    -0.381046966992E+03   -0.46241E-02   -0.45995E-02  9828   0.574E-02-0.142E-03
CGA:   5    -0.381048133537E+03   -0.11665E-02   -0.11697E-02  9828   0.133E-02 0.214E-04
CGA:   6    -0.381048471618E+03   -0.33808E-03   -0.33708E-03  9828   0.433E-03-0.104E-04
CGA:   7    -0.381048601640E+03   -0.13002E-03   -0.12948E-03  9828   0.201E-03-0.127E-04
CGA:   8    -0.381048673907E+03   -0.72267E-04   -0.72734E-04  9828   0.104E-03-0.153E-04
CGA:   9    -0.381048708226E+03   -0.34319E-04   -0.34513E-04  9828   0.425E-04-0.136E-04
CGA:  10    -0.381048718633E+03   -0.10407E-04   -0.23689E-04  9828   0.953E-04-0.448E-04
CGA:  11    -0.381048730979E+03   -0.12346E-04   -0.15208E-04  9828   0.122E-04 0.145E-04
CGA:  12    -0.381048733929E+03   -0.29502E-05   -0.32814E-05  9828   0.410E-05 0.287E-05
  95 F= -.38104873E+03 E0= -.38104873E+03  d E =0.105159E-01  mag=     4.0000
       N       E                     dE             d eps       ncg     rms          ort
SDA:   1    -0.379380496013E+03    0.16682E+01    0.00000E+00  9828   0.418E+01 0.000E+00
CGA:   2    -0.380619365342E+03   -0.12389E+01   -0.12395E+01  9828   0.141E+01 0.119E-01
CGA:   3    -0.380950144812E+03   -0.33078E+00   -0.33010E+00  9828   0.231E+00-0.671E-02
CGA:   4    -0.380993008400E+03   -0.42864E-01   -0.42696E-01  9828   0.525E-01-0.109E-02
CGA:   5    -0.381003989894E+03   -0.10981E-01   -0.10972E-01  9828   0.125E-01-0.729E-04
CGA:   6    -0.381007078086E+03   -0.30882E-02   -0.30905E-02  9828   0.408E-02 0.328E-04
CGA:   7    -0.381008319006E+03   -0.12409E-02   -0.12406E-02  9828   0.188E-02-0.224E-04
CGA:   8    -0.381009035340E+03   -0.71633E-03   -0.72659E-03  9828   0.106E-02-0.142E-03
CGA:   9    -0.381009380910E+03   -0.34557E-03   -0.34977E-03  9828   0.423E-03-0.117E-03
CGA:  10    -0.381009508137E+03   -0.12723E-03   -0.12834E-03  9828   0.173E-03-0.575E-04
CGA:  11    -0.381009554654E+03   -0.46517E-04   -0.46526E-04  9828   0.730E-04 0.960E-06
CGA:  12    -0.381009582057E+03   -0.27403E-04   -0.27583E-04  9828   0.409E-04-0.327E-05
CGA:  13    -0.381009594783E+03   -0.12726E-04   -0.12720E-04  9828   0.151E-04 0.490E-05
CGA:  14    -0.381009600055E+03   -0.52715E-05   -0.53061E-05  9828   0.584E-05 0.331E-05
  96 F= -.38100960E+03 E0= -.38100960E+03  d E =0.391339E-01  mag=     4.0000
       N       E                     dE             d eps       ncg     rms          ort
SDA:   1    -0.380930075046E+03    0.79520E-01    0.00000E+00  9828   0.199E+00 0.000E+00
CGA:   2    -0.380994482338E+03   -0.64407E-01   -0.64407E-01  9828   0.715E-01-0.549E-03
CGA:   3    -0.381008498658E+03   -0.14016E-01   -0.14086E-01  9828   0.160E-01 0.581E-03
CGA:   4    -0.381011789518E+03   -0.32909E-02   -0.32898E-02  9828   0.300E-02 0.741E-05
CGA:   5    -0.381012494202E+03   -0.70468E-03   -0.69481E-03  9828   0.988E-03-0.123E-03
CGA:   6    -0.381012730186E+03   -0.23598E-03   -0.23367E-03  9828   0.338E-03-0.377E-04
CGA:   7    -0.381012815770E+03   -0.85584E-04   -0.85831E-04  9828   0.110E-03 0.617E-05
CGA:   8    -0.381012851080E+03   -0.35310E-04   -0.35310E-04  9828   0.424E-04 0.421E-07
CGA:   9    -0.381012866821E+03   -0.15741E-04   -0.20027E-04  9828   0.440E-04-0.254E-04
CGA:  10    -0.381012874465E+03   -0.76435E-05   -0.79247E-05  9828   0.522E-05 0.215E-05
  97 F= -.38101287E+03 E0= -.38101287E+03  d E =-.327441E-02  mag=     4.0000
       N       E                     dE             d eps       ncg     rms          ort
SDA:   1    -0.380874679231E+03    0.13819E+00    0.00000E+00  9828   0.365E+00 0.000E+00
CGA:   2    -0.380991451327E+03   -0.11677E+00   -0.11674E+00  9828   0.125E+00-0.379E-02
CGA:   3    -0.381018488314E+03   -0.27037E-01   -0.27239E-01  9828   0.181E-01 0.187E-02
CGA:   4    -0.381021897831E+03   -0.34095E-02   -0.34787E-02  9828   0.420E-02 0.518E-03
CGA:   5    -0.381022813781E+03   -0.91595E-03   -0.91929E-03  9828   0.103E-02 0.327E-04
CGA:   6    -0.381023095093E+03   -0.28131E-03   -0.27863E-03  9828   0.385E-03-0.615E-04
CGA:   7    -0.381023198162E+03   -0.10307E-03   -0.10291E-03  9828   0.161E-03-0.609E-05
CGA:   8    -0.381023247230E+03   -0.49067E-04   -0.49047E-04  9828   0.627E-04 0.144E-04
CGA:   9    -0.381023264122E+03   -0.16893E-04   -0.17717E-04  9828   0.191E-04 0.169E-04
CGA:  10    -0.381023270994E+03   -0.68721E-05   -0.69547E-05  9828   0.744E-05 0.442E-05
  98 F= -.38102327E+03 E0= -.38102327E+03  d E =-.103965E-01  mag=     4.0000
       N       E                     dE             d eps       ncg     rms          ort
SDA:   1    -0.381008540962E+03    0.14723E-01    0.00000E+00  9828   0.370E-01 0.000E+00
CGA:   2    -0.381020422180E+03   -0.11881E-01   -0.11887E-01  9828   0.146E-01-0.413E-03
CGA:   3    -0.381023119835E+03   -0.26977E-02   -0.27372E-02  9828   0.238E-02 0.334E-03
CGA:   4    -0.381023552441E+03   -0.43261E-03   -0.44545E-03  9828   0.491E-03 0.108E-03
CGA:   5    -0.381023665723E+03   -0.11328E-03   -0.11286E-03  9828   0.129E-03-0.559E-05
CGA:   6    -0.381023700620E+03   -0.34897E-04   -0.34439E-04  9828   0.474E-04-0.206E-04
CGA:   7    -0.381023712733E+03   -0.12114E-04   -0.12276E-04  9828   0.217E-04-0.932E-05
CGA:   8    -0.381023717254E+03   -0.45210E-05   -0.45553E-05  9828   0.662E-05 0.116E-05
  99 F= -.38102372E+03 E0= -.38102372E+03  d E =-.446260E-03  mag=     4.0000
       N       E                     dE             d eps       ncg     rms          ort
SDA:   1    -0.380903997880E+03    0.11971E+00    0.00000E+00  9828   0.276E+00 0.000E+00
CGA:   2    -0.381000509648E+03   -0.96512E-01   -0.96482E-01  9828   0.860E-01 0.510E-03
CGA:   3    -0.381017874806E+03   -0.17365E-01   -0.17351E-01  9828   0.150E-01-0.149E-03
CGA:   4    -0.381020695522E+03   -0.28207E-02   -0.28269E-02  9828   0.327E-02 0.622E-04
CGA:   5    -0.381021391737E+03   -0.69622E-03   -0.69642E-03  9828   0.772E-03 0.323E-05
CGA:   6    -0.381021579691E+03   -0.18795E-03   -0.18706E-03  9828   0.229E-03-0.229E-04
CGA:   7    -0.381021645442E+03   -0.65751E-04   -0.66043E-04  9828   0.974E-04-0.162E-04
CGA:   8    -0.381021678201E+03   -0.32759E-04   -0.34603E-04  9828   0.539E-04-0.180E-04
CGA:   9    -0.381021690710E+03   -0.12509E-04   -0.12509E-04  9828   0.154E-04-0.460E-06
CGA:  10    -0.381021695331E+03   -0.46206E-05   -0.84980E-05  9828   0.237E-04-0.143E-04
 100 F= -.38102170E+03 E0= -.38102170E+03  d E =0.202192E-02  mag=     4.0000
       N       E                     dE             d eps       ncg     rms          ort
SDA:   1    -0.380308594216E+03    0.71310E+00    0.00000E+00  9828   0.165E+01 0.000E+00
CGA:   2    -0.380896230720E+03   -0.58764E+00   -0.58766E+00  9828   0.496E+00-0.410E-03
CGA:   3    -0.380996372593E+03   -0.10014E+00   -0.10007E+00  9828   0.876E-01-0.823E-03
CGA:   4    -0.381013010180E+03   -0.16638E-01   -0.16660E-01  9828   0.194E-01 0.253E-03
CGA:   5    -0.381017080429E+03   -0.40702E-02   -0.40745E-02  9828   0.456E-02 0.586E-04
CGA:   6    -0.381018193319E+03   -0.11129E-02   -0.11077E-02  9828   0.135E-02-0.129E-03
CGA:   7    -0.381018585679E+03   -0.39236E-03   -0.39467E-03  9828   0.585E-03-0.105E-03
CGA:   8    -0.381018768078E+03   -0.18240E-03   -0.18535E-03  9828   0.257E-03-0.466E-04
CGA:   9    -0.381018853433E+03   -0.85355E-04   -0.93327E-04  9828   0.133E-03-0.722E-04
CGA:  10    -0.381018881012E+03   -0.27579E-04   -0.27533E-04  9828   0.432E-04-0.157E-04
CGA:  11    -0.381018894385E+03   -0.13374E-04   -0.17896E-04  9828   0.469E-04-0.250E-04
CGA:  12    -0.381018902351E+03   -0.79654E-05   -0.86912E-05  9828   0.902E-05 0.650E-05
 101 F= -.38101890E+03 E0= -.38101890E+03  d E =0.279298E-02  mag=     4.0000
       N       E                     dE             d eps       ncg     rms          ort
SDA:   1    -0.380590174501E+03    0.42872E+00    0.00000E+00  9828   0.101E+01 0.000E+00
CGA:   2    -0.380946654655E+03   -0.35648E+00   -0.35662E+00  9828   0.296E+00-0.238E-02
CGA:   3    -0.381009235741E+03   -0.62581E-01   -0.62597E-01  9828   0.493E-01 0.176E-03
CGA:   4    -0.381018704078E+03   -0.94683E-02   -0.95251E-02  9828   0.111E-01 0.563E-03
CGA:   5    -0.381021130733E+03   -0.24267E-02   -0.24202E-02  9828   0.277E-02-0.847E-04
CGA:   6    -0.381021820114E+03   -0.68938E-03   -0.68433E-03  9828   0.900E-03-0.134E-03
CGA:   7    -0.381022058636E+03   -0.23852E-03   -0.23851E-03  9828   0.335E-03-0.132E-05
CGA:   8    -0.381022182055E+03   -0.12342E-03   -0.12731E-03  9828   0.174E-03-0.405E-04
CGA:   9    -0.381022236767E+03   -0.54712E-04   -0.58756E-04  9828   0.805E-04-0.422E-04
CGA:  10    -0.381022255197E+03   -0.18431E-04   -0.18517E-04  9828   0.259E-04-0.893E-05
CGA:  11    -0.381022261535E+03   -0.63374E-05   -0.63970E-05  9828   0.976E-05 0.356E-05
 102 F= -.38102226E+03 E0= -.38102226E+03  d E =-.335918E-02  mag=     4.0000
       N       E                     dE             d eps       ncg     rms          ort
SDA:   1    -0.380796059823E+03    0.22620E+00    0.00000E+00  9828   0.543E+00 0.000E+00
CGA:   2    -0.380983112861E+03   -0.18705E+00   -0.18710E+00  9828   0.180E+00-0.117E-02
CGA:   3    -0.381018438962E+03   -0.35326E-01   -0.35403E-01  9828   0.321E-01 0.720E-03
CGA:   4    -0.381024503614E+03   -0.60647E-02   -0.60749E-02  9828   0.699E-02 0.941E-04
CGA:   5    -0.381025997460E+03   -0.14938E-02   -0.14893E-02  9828   0.171E-02-0.522E-04
CGA:   6    -0.381026404010E+03   -0.40655E-03   -0.40578E-03  9828   0.474E-03-0.139E-04
CGA:   7    -0.381026532620E+03   -0.12861E-03   -0.12889E-03  9828   0.171E-03 0.161E-04
CGA:   8    -0.381026590616E+03   -0.57997E-04   -0.57782E-04  9828   0.712E-04 0.588E-05
CGA:   9    -0.381026612264E+03   -0.21648E-04   -0.21638E-04  9828   0.215E-04 0.819E-05
CGA:  10    -0.381026620635E+03   -0.83707E-05   -0.85059E-05  9828   0.858E-05-0.219E-05
 103 F= -.38102662E+03 E0= -.38102662E+03  d E =-.435910E-02  mag=     4.0000
       N       E                     dE             d eps       ncg     rms          ort
SDA:   1    -0.381015803189E+03    0.10809E-01    0.00000E+00  9828   0.280E-01 0.000E+00
CGA:   2    -0.381025205591E+03   -0.94024E-02   -0.94462E-02  9828   0.104E-01-0.952E-03
CGA:   3    -0.381027116003E+03   -0.19104E-02   -0.19464E-02  9828   0.186E-02 0.358E-03
CGA:   4    -0.381027437315E+03   -0.32131E-03   -0.34020E-03  9828   0.354E-03 0.170E-03
CGA:   5    -0.381027519194E+03   -0.81879E-04   -0.83378E-04  9828   0.938E-04 0.223E-04
CGA:   6    -0.381027551288E+03   -0.32094E-04   -0.34220E-04  9828   0.631E-04-0.334E-04
CGA:   7    -0.381027563579E+03   -0.12291E-04   -0.13679E-04  9828   0.409E-04-0.256E-04
CGA:   8    -0.381027567383E+03   -0.38047E-05   -0.44053E-05  9828   0.186E-04 0.577E-05
 104 F= -.38102757E+03 E0= -.38102757E+03  d E =-.946748E-03  mag=     4.0000
       N       E                     dE             d eps       ncg     rms          ort
SDA:   1    -0.380998460520E+03    0.29103E-01    0.00000E+00  9828   0.671E-01 0.000E+00
CGA:   2    -0.381022961835E+03   -0.24501E-01   -0.24519E-01  9828   0.187E-01-0.193E-03
CGA:   3    -0.381026832455E+03   -0.38706E-02   -0.38634E-02  9828   0.311E-02-0.102E-03
CGA:   4    -0.381027409524E+03   -0.57707E-03   -0.58499E-03  9828   0.695E-03 0.923E-04
CGA:   5    -0.381027562960E+03   -0.15344E-03   -0.15347E-03  9828   0.166E-03 0.749E-06
CGA:   6    -0.381027609465E+03   -0.46505E-04   -0.46903E-04  9828   0.674E-04-0.291E-04
CGA:   7    -0.381027624346E+03   -0.14881E-04   -0.14878E-04  9828   0.241E-04-0.337E-05
CGA:   8    -0.381027632604E+03   -0.82574E-05   -0.89726E-05  9828   0.141E-04-0.578E-05
 105 F= -.38102763E+03 E0= -.38102763E+03  d E =-.652202E-04  mag=     4.0000
       N       E                     dE             d eps       ncg     rms          ort
SDA:   1    -0.372939469205E+03    0.80882E+01    0.00000E+00  9828   0.186E+02 0.000E+00
CGA:   2    -0.379736576960E+03   -0.67971E+01   -0.67985E+01  9828   0.507E+01-0.141E-01
CGA:   3    -0.380797778104E+03   -0.10612E+01   -0.10610E+01  9828   0.820E+00-0.323E-02
CGA:   4    -0.380963116374E+03   -0.16534E+00   -0.16551E+00  9828   0.191E+00 0.255E-02
CGA:   5    -0.381003877697E+03   -0.40761E-01   -0.40718E-01  9828   0.475E-01-0.560E-03
CGA:   6    -0.381015288185E+03   -0.11410E-01   -0.11368E-01  9828   0.148E-01-0.909E-03
CGA:   7    -0.381019553391E+03   -0.42652E-02   -0.42690E-02  9828   0.602E-02-0.399E-03
CGA:   8    -0.381021674875E+03   -0.21215E-02   -0.21724E-02  9828   0.284E-02-0.589E-03
CGA:   9    -0.381022531042E+03   -0.85617E-03   -0.87620E-03  9828   0.101E-02-0.383E-03
CGA:  10    -0.381022807802E+03   -0.27676E-03   -0.28084E-03  9828   0.338E-03-0.145E-03
CGA:  11    -0.381022903211E+03   -0.95410E-04   -0.95981E-04  9828   0.144E-03-0.147E-04
CGA:  12    -0.381022952964E+03   -0.49753E-04   -0.93607E-04  9828   0.329E-03-0.114E-03
CGA:  13    -0.381023004228E+03   -0.51264E-04   -0.56228E-04  9828   0.495E-04 0.356E-04
CGA:  14    -0.381023020715E+03   -0.16487E-04   -0.16478E-04  9828   0.168E-04-0.126E-05
CGA:  15    -0.381023026591E+03   -0.58761E-05   -0.56938E-05  9828   0.755E-05 0.451E-05
 106 F= -.38102303E+03 E0= -.38102303E+03  d E =0.460601E-02  mag=     4.0000
       N       E                     dE             d eps       ncg     rms          ort
SDA:   1    -0.380794644860E+03    0.22838E+00    0.00000E+00  9828   0.602E+00 0.000E+00
CGA:   2    -0.380975183536E+03   -0.18054E+00   -0.18045E+00  9828   0.212E+00-0.639E-02
CGA:   3    -0.381021365004E+03   -0.46181E-01   -0.46448E-01  9828   0.459E-01 0.295E-02
CGA:   4    -0.381029699667E+03   -0.83347E-02   -0.85363E-02  9828   0.884E-02 0.165E-02
CGA:   5    -0.381031671976E+03   -0.19723E-02   -0.19901E-02  9828   0.236E-02 0.211E-03
CGA:   6    -0.381032353861E+03   -0.68189E-03   -0.67818E-03  9828   0.108E-02-0.205E-03
CGA:   7    -0.381032625045E+03   -0.27118E-03   -0.27005E-03  9828   0.399E-03-0.499E-04
CGA:   8    -0.381032726172E+03   -0.10113E-03   -0.10250E-03  9828   0.130E-03 0.515E-04
CGA:   9    -0.381032760339E+03   -0.34167E-04   -0.35969E-04  9828   0.414E-04 0.359E-04
CGA:  10    -0.381032775146E+03   -0.14806E-04   -0.14894E-04  9828   0.169E-04 0.854E-05
CGA:  11    -0.381032783739E+03   -0.85937E-05   -0.10175E-04  9828   0.194E-04-0.762E-05
 107 F= -.38103278E+03 E0= -.38103278E+03  d E =-.975715E-02  mag=     4.0000
       N       E                     dE             d eps       ncg     rms          ort
SDA:   1    -0.378147061766E+03    0.28857E+01    0.00000E+00  9828   0.663E+01 0.000E+00
CGA:   2    -0.380582459972E+03   -0.24354E+01   -0.24352E+01  9828   0.177E+01 0.335E-02
CGA:   3    -0.380958279249E+03   -0.37582E+00   -0.37543E+00  9828   0.285E+00-0.486E-02
CGA:   4    -0.381015140389E+03   -0.56861E-01   -0.56823E-01  9828   0.692E-01-0.249E-03
CGA:   5    -0.381029498441E+03   -0.14358E-01   -0.14359E-01  9828   0.161E-01 0.146E-04
CGA:   6    -0.381033388298E+03   -0.38899E-02   -0.38876E-02  9828   0.480E-02-0.533E-04
CGA:   7    -0.381034774883E+03   -0.13866E-02   -0.13868E-02  9828   0.196E-02-0.298E-04
CGA:   8    -0.381035471802E+03   -0.69692E-03   -0.70799E-03  9828   0.916E-03-0.137E-03
CGA:   9    -0.381035754796E+03   -0.28299E-03   -0.28781E-03  9828   0.327E-03-0.931E-04
CGA:  10    -0.381035845743E+03   -0.90947E-04   -0.92045E-04  9828   0.114E-03-0.448E-04
CGA:  11    -0.381035874462E+03   -0.28719E-04   -0.28719E-04  9828   0.437E-04 0.329E-06
CGA:  12    -0.381035892996E+03   -0.18534E-04   -0.23397E-04  9828   0.544E-04-0.199E-04
CGA:  13    -0.381035902983E+03   -0.99872E-05   -0.10775E-04  9828   0.358E-04-0.127E-04
CGA:  14    -0.381035912286E+03   -0.93027E-05   -0.10022E-04  9828   0.197E-04-0.121E-04
 108 F= -.38103591E+03 E0= -.38103591E+03  d E =-.312855E-02  mag=     4.0000
       N       E                     dE             d eps       ncg     rms          ort
SDA:   1    -0.380812724021E+03    0.22318E+00    0.00000E+00  9828   0.550E+00 0.000E+00
CGA:   2    -0.380968050605E+03   -0.15533E+00   -0.15544E+00  9828   0.224E+00 0.452E-02
CGA:   3    -0.381016698565E+03   -0.48648E-01   -0.48410E-01  9828   0.467E-01-0.252E-02
CGA:   4    -0.381025624997E+03   -0.89264E-02   -0.87522E-02  9828   0.979E-02-0.152E-02
CGA:   5    -0.381027599353E+03   -0.19744E-02   -0.19515E-02  9828   0.245E-02-0.249E-03
CGA:   6    -0.381028115399E+03   -0.51605E-03   -0.52906E-03  9828   0.648E-03 0.183E-03
CGA:   7    -0.381028278283E+03   -0.16288E-03   -0.16846E-03  9828   0.211E-03 0.118E-03
CGA:   8    -0.381028370577E+03   -0.92294E-04   -0.94249E-04  9828   0.142E-03-0.214E-04
CGA:   9    -0.381028416311E+03   -0.45734E-04   -0.58986E-04  9828   0.124E-03-0.782E-04
CGA:  10    -0.381028438578E+03   -0.22267E-04   -0.23945E-04  9828   0.225E-04 0.158E-04
CGA:  11    -0.381028445066E+03   -0.64877E-05   -0.67329E-05  9828   0.735E-05 0.839E-05
 109 F= -.38102845E+03 E0= -.38102845E+03  d E =0.746722E-02  mag=     4.0000
       N       E                     dE             d eps       ncg     rms          ort
SDA:   1    -0.380779262231E+03    0.24918E+00    0.00000E+00  9828   0.603E+00 0.000E+00
CGA:   2    -0.380979745686E+03   -0.20048E+00   -0.20056E+00  9828   0.224E+00-0.375E-02
CGA:   3    -0.381023298952E+03   -0.43553E-01   -0.43804E-01  9828   0.408E-01 0.223E-02
CGA:   4    -0.381030599887E+03   -0.73009E-02   -0.74372E-02  9828   0.856E-02 0.107E-02
CGA:   5    -0.381032422893E+03   -0.18230E-02   -0.18365E-02  9828   0.219E-02 0.148E-03
CGA:   6    -0.381033025151E+03   -0.60226E-03   -0.59684E-03  9828   0.773E-03-0.191E-03
CGA:   7    -0.381033236465E+03   -0.21131E-03   -0.21177E-03  9828   0.320E-03-0.876E-04
CGA:   8    -0.381033309847E+03   -0.73382E-04   -0.74560E-04  9828   0.987E-04 0.366E-04
CGA:   9    -0.381033332242E+03   -0.22394E-04   -0.24704E-04  9828   0.305E-04 0.335E-04
CGA:  10    -0.381033343541E+03   -0.11299E-04   -0.11364E-04  9828   0.120E-04 0.550E-05
CGA:  11    -0.381033351811E+03   -0.82706E-05    0.22498E-03  9828   0.490E-05 0.222E-05
 110 F= -.38103335E+03 E0= -.38103335E+03  d E =-.490675E-02  mag=     4.0000
