       N       E                     dE             d eps       ncg     rms          ort
DAV:   1     0.845739780634E+04    0.84574E+04   -0.52804E+05   598   0.160E+03
DAV:   2    -0.803725064183E+03   -0.92611E+04   -0.87009E+04   598   0.417E+02
DAV:   3    -0.179893227778E+04   -0.99521E+03   -0.94555E+03   598   0.147E+02
DAV:   4    -0.183182222385E+04   -0.32890E+02   -0.32699E+02   598   0.285E+01
DAV:   5    -0.183342378649E+04   -0.16016E+01   -0.16002E+01   598   0.476E+00
SDA:   6    -0.151071845987E+04    0.32271E+03   -0.16002E+01   598   0.158E+03 0.000E+00
CGA:   7    -0.151832639731E+04   -0.76079E+01   -0.85161E+01   598   0.413E+02 0.592E+01
CGA:   8    -0.152428115409E+04   -0.59548E+01   -0.60049E+01   598   0.549E+01-0.144E+00
CGA:   9    -0.152518013056E+04   -0.89898E+00   -0.92064E+00   598   0.521E+01 0.226E+00
CGA:  10    -0.152590195529E+04   -0.72182E+00   -0.74138E+00   598   0.119E+01-0.106E+00
CGA:  11    -0.152625265107E+04   -0.35070E+00   -0.35959E+00   598   0.771E+00-0.893E-01
CGA:  12    -0.152639078539E+04   -0.13813E+00   -0.13818E+00   598   0.437E+00-0.671E-01
CGA:  13    -0.152650687470E+04   -0.11609E+00   -0.13722E+00   598   0.251E+00-0.137E+00
CGA:  14    -0.152655291155E+04   -0.46037E-01   -0.57198E-01   598   0.130E+00-0.816E-01
CGA:  15    -0.152657681641E+04   -0.23905E-01   -0.26824E-01   598   0.523E-01-0.289E-01
CGA:  16    -0.152658933164E+04   -0.12515E-01   -0.12613E-01   598   0.238E-01-0.102E-02
CGA:  17    -0.152659523293E+04   -0.59013E-02   -0.57340E-02   598   0.884E-02 0.568E-02
CGA:  18    -0.152659647449E+04   -0.12416E-02   -0.16787E-02   598   0.457E-02 0.673E-02
CGA:  19    -0.152659664084E+04   -0.16636E-03   -0.51857E-03   598   0.286E-02 0.347E-02
CGA:  20    -0.152659663879E+04    0.20571E-05   -0.27918E-03   598   0.223E-02 0.250E-02
CGA:  21    -0.152659658978E+04    0.49002E-04   -0.19127E-03   598   0.186E-02 0.202E-02
CGA:  22    -0.152659652382E+04    0.65968E-04   -0.14346E-03   598   0.161E-02 0.172E-02
CGA:  23    -0.152659645180E+04    0.72011E-04   -0.11289E-03   598   0.143E-02 0.151E-02
CGA:  24    -0.152659637867E+04    0.73133E-04   -0.91674E-04   598   0.129E-02 0.135E-02
CGA:  25    -0.152659630673E+04    0.71937E-04   -0.76038E-04   598   0.117E-02 0.122E-02
CGA:  26    -0.152659623721E+04    0.69529E-04   -0.64132E-04   598   0.108E-02 0.112E-02
CGA:  27    -0.152659617067E+04    0.66537E-04   -0.54800E-04   598   0.100E-02 0.103E-02
CGA:  28    -0.152659610737E+04    0.63303E-04   -0.47311E-04   598   0.935E-03 0.962E-03
CGA:  29    -0.152659604737E+04    0.59997E-04   -0.41201E-04   598   0.877E-03 0.900E-03
CGA:  30    -0.152659599064E+04    0.56727E-04   -0.36143E-04   598   0.827E-03 0.847E-03
CGA:  31    -0.152659593709E+04    0.53552E-04   -0.31905E-04   598   0.783E-03 0.800E-03
CGA:  32    -0.152659588658E+04    0.50510E-04   -0.28309E-04   598   0.743E-03 0.759E-03
CGA:  33    -0.152659583897E+04    0.47611E-04   -0.25241E-04   598   0.708E-03 0.722E-03
CGA:  34    -0.152659579410E+04    0.44863E-04   -0.22604E-04   598   0.677E-03 0.689E-03
CGA:  35    -0.152659575184E+04    0.42265E-04   -0.20324E-04   598   0.649E-03 0.660E-03
CGA:  36    -0.152659571202E+04    0.39819E-04   -0.18341E-04   598   0.623E-03 0.633E-03
CGA:  37    -0.152659567450E+04    0.37518E-04   -0.16605E-04   598   0.600E-03 0.609E-03
CGA:  38    -0.152659563915E+04    0.35356E-04   -0.15080E-04   598   0.578E-03 0.587E-03
CGA:  39    -0.152659560582E+04    0.33327E-04   -0.13735E-04   598   0.559E-03 0.567E-03
CGA:  40    -0.152659557440E+04    0.31425E-04   -0.12539E-04   598   0.541E-03 0.548E-03
CGA:  41    -0.152659554475E+04    0.29647E-04   -0.11470E-04   598   0.524E-03 0.531E-03
CGA:  42    -0.152659551677E+04    0.27981E-04   -0.10514E-04   598   0.509E-03 0.515E-03
CGA:  43    -0.152659549034E+04    0.26425E-04   -0.96501E-05   598   0.495E-03 0.501E-03
CGA:  44    -0.152659546538E+04    0.24966E-04   -0.88756E-05   598   0.482E-03 0.487E-03
CGA:  45    -0.152659544178E+04    0.23601E-04   -0.81740E-05   598   0.469E-03 0.475E-03
CGA:  46    -0.152659541946E+04    0.22318E-04   -0.75461E-05   598   0.458E-03 0.463E-03
CGA:  47    -0.152659539834E+04    0.21115E-04   -0.69798E-05   598   0.448E-03 0.452E-03
CGA:  48    -0.152659537836E+04    0.19987E-04   -0.64637E-05   598   0.438E-03 0.442E-03
CGA:  49    -0.152659535943E+04    0.18929E-04   -0.59955E-05   598   0.429E-03 0.433E-03
CGA:  50    -0.152659534149E+04    0.17935E-04   -0.55717E-05   598   0.421E-03 0.424E-03
CGA:  51    -0.152659532449E+04    0.16998E-04   -0.51862E-05   598   0.413E-03 0.416E-03
CGA:  52    -0.152659530838E+04    0.16117E-04   -0.48346E-05   598   0.406E-03 0.409E-03
CGA:  53    -0.152659529309E+04    0.15286E-04   -0.45142E-05   598   0.399E-03 0.402E-03
CGA:  54    -0.152659527859E+04    0.14504E-04   -0.42213E-05   598   0.393E-03 0.396E-03
CGA:  55    -0.152659526482E+04    0.13766E-04   -0.39526E-05   598   0.387E-03 0.390E-03
CGA:  56    -0.152659525175E+04    0.13071E-04   -0.37048E-05   598   0.381E-03 0.384E-03
CGA:  57    -0.152659523933E+04    0.12415E-04   -0.34764E-05   598   0.376E-03 0.379E-03
CGA:  58    -0.152659522754E+04    0.11796E-04   -0.32654E-05   598   0.371E-03 0.374E-03
CGA:  59    -0.152659521633E+04    0.11211E-04   -0.30701E-05   598   0.367E-03 0.369E-03
CGA:  60    -0.152659520567E+04    0.10659E-04   -0.28886E-05   598   0.363E-03 0.365E-03
CGA:  61    -0.152659519553E+04    0.10136E-04   -0.27206E-05   598   0.359E-03 0.360E-03
CGA:  62    -0.152659518589E+04    0.96428E-05   -0.25643E-05   598   0.355E-03 0.356E-03
   1 F= -.15265952E+04 E0= -.15265952E+04  d E =-.152660E+04  mag=    16.0000
