 vasp.6.1.2 22Jul20 (build Feb 09 2022 12:23:39) complex                        
  
 executed on             LinuxIFC date 2022.03.14  23:02:27
 running on 1104 total cores
 distrk:  each k-point on 1104 cores,    1 groups
 distr:  one band on NCORE=  24 cores,   46 groups


--------------------------------------------------------------------------------------------------------


 INCAR:
 POTCAR:    PAW_PBE Ca_sv 06Sep2000               
 POTCAR:    PAW_PBE V_pv 07Sep2000                
 POTCAR:    PAW_PBE P 06Sep2000                   
 POTCAR:    PAW_PBE O 08Apr2002                   
 POTCAR:    PAW_PBE Ca_sv 06Sep2000               
   SHA256 =  a47365830e737f14e0e6c5cf1ed81b94e081eecf0a33df105380881bc9da05d5 Ca_sv/POTCAR          
   COPYR  = (c) Copyright 06Sep2000 Georg Kresse                                                    
   COPYR  = This file is part of the software VASP. Any use, copying, and all other rights are regul
   COPYR  = If you do not have a valid VASP license, you may not use, copy or distribute this file. 
   VRHFIN =Ca: 3s3p4s                                                                               
   LEXCH  = PE                                                                                      
   EATOM  =  1006.0909 eV,   73.9456 Ry                                                             
                                                                                                    
   TITEL  = PAW_PBE Ca_sv 06Sep2000                                                                 
   LULTRA =        F    use ultrasoft PP ?                                                          
   IUNSCR =        1    unscreen: 0-lin 1-nonlin 2-no                                               
   RPACOR =    2.000    partial core radius                                                         
   POMASS =   40.078; ZVAL   =   10.000    mass and valenz                                          
   RCORE  =    2.300    outmost cutoff radius                                                       
   RWIGS  =    2.500; RWIGS  =    1.323    wigner-seitz radius (au A)                               
   ENMAX  =  266.622; ENMIN  =  199.967 eV                                                          
   RCLOC  =    1.808    cutoff for local pot                                                        
   LCOR   =        T    correct aug charges                                                         
   LPAW   =        T    paw PP                                                                      
   EAUG   =  420.852                                                                                
   RMAX   =    2.359    core radius for proj-oper                                                   
   RAUG   =    1.300    factor for augmentation sphere                                              
   RDEP   =    2.392    radius for radial grids                                                     
   RDEPT  =    1.987    core radius for aug-charge                                                  
                                                                                                    
   Atomic configuration                                                                             
    7 entries                                                                                       
     n  l   j            E        occ.                                                              
     1  0  0.50     -3949.1705   2.0000                                                             
     2  0  0.50      -414.3434   2.0000                                                             
     2  1  1.50      -334.7047   6.0000                                                             
     3  0  0.50       -47.0896   2.0000                                                             
     4  0  0.50        -3.7663   2.0000                                                             
     3  1  1.50       -28.0061   6.0000                                                             
     3  2  1.50        -4.0817   0.0000                                                             
   Description                                                                                      
     l       E           TYP  RCUT    TYP  RCUT                                                     
     0    -47.0896403     23  2.300                                                                 
     0     -3.7663320     23  2.300                                                                 
     1    -28.0060855     23  2.300                                                                 
     1      6.8029130     23  2.300                                                                 
     2     -4.0817478     23  2.300                                                                 
     2      0.4464412     23  2.300                                                                 
  local pseudopotential read in
  partial core-charges read in
  partial kinetic energy density read in
  atomic valenz-charges read in
  non local Contribution for L=           0  read in
    real space projection operators read in
  non local Contribution for L=           0  read in
    real space projection operators read in
  non local Contribution for L=           1  read in
    real space projection operators read in
  non local Contribution for L=           1  read in
    real space projection operators read in
  non local Contribution for L=           2  read in
    real space projection operators read in
  non local Contribution for L=           2  read in
    real space projection operators read in
    PAW grid and wavefunctions read in
 
   number of l-projection  operators is LMAX  =           6
   number of lm-projection operators is LMMAX =          18
 
 POTCAR:    PAW_PBE V_pv 07Sep2000                
   SHA256 =  1175d3c8cb4ffd1d150a520fa74fae5c3ec72c0849b5615a94a5372dd2cf07f7 V_pv/POTCAR           
   COPYR  = (c) Copyright 07Sep2000 Georg Kresse                                                    
   COPYR  = This file is part of the software VASP. Any use, copying, and all other rights are regul
   COPYR  = If you do not have a valid VASP license, you may not use, copy or distribute this file. 
   VRHFIN =V: p6 d4 s1                                                                              
   LEXCH  = PE                                                                                      
   EATOM  =  1321.6206 eV,   97.1364 Ry                                                             
                                                                                                    
   TITEL  = PAW_PBE V_pv 07Sep2000                                                                  
   LULTRA =        F    use ultrasoft PP ?                                                          
   IUNSCR =        1    unscreen: 0-lin 1-nonlin 2-no                                               
   RPACOR =    1.700    partial core radius                                                         
   POMASS =   50.941; ZVAL   =   11.000    mass and valenz                                          
   RCORE  =    2.300    outmost cutoff radius                                                       
   RWIGS  =    2.300; RWIGS  =    1.217    wigner-seitz radius (au A)                               
   ENMAX  =  263.673; ENMIN  =  197.755 eV                                                          
   RCLOC  =    1.779    cutoff for local pot                                                        
   LCOR   =        T    correct aug charges                                                         
   LPAW   =        T    paw PP                                                                      
   EAUG   =  598.473                                                                                
   DEXC   =    0.000                                                                                
   RMAX   =    2.359    core radius for proj-oper                                                   
   RAUG   =    1.300    factor for augmentation sphere                                              
   RDEP   =    2.430    radius for radial grids                                                     
   RDEPT  =    1.700    core radius for aug-charge                                                  
                                                                                                    
   Atomic configuration                                                                             
    8 entries                                                                                       
     n  l   j            E        occ.                                                              
     1  0  0.50     -5360.7193   2.0000                                                             
     2  0  0.50      -598.4546   2.0000                                                             
     2  1  1.50      -499.0155   6.0000                                                             
     3  0  0.50       -66.5711   2.0000                                                             
     3  1  1.50       -40.5282   6.0000                                                             
     3  2  2.50        -2.4291   4.0000                                                             
     4  0  0.50        -3.8743   1.0000                                                             
     4  3  2.50        -1.3606   0.0000                                                             
   Description                                                                                      
     l       E           TYP  RCUT    TYP  RCUT                                                     
     1    -40.5282431     23  2.000                                                                 
     1      5.4423304     23  2.000                                                                 
     2     -2.4290905     23  2.300                                                                 
     2     -1.0472488     23  2.300                                                                 
     0     -3.8742754     23  2.300                                                                 
     0     27.2116520     23  2.300                                                                 
  local pseudopotential read in
  partial core-charges read in
  partial kinetic energy density read in
  atomic valenz-charges read in
  non local Contribution for L=           1  read in
    real space projection operators read in
  non local Contribution for L=           1  read in
    real space projection operators read in
  non local Contribution for L=           2  read in
    real space projection operators read in
  non local Contribution for L=           2  read in
    real space projection operators read in
  non local Contribution for L=           0  read in
    real space projection operators read in
  non local Contribution for L=           0  read in
    real space projection operators read in
    PAW grid and wavefunctions read in
 
   number of l-projection  operators is LMAX  =           6
   number of lm-projection operators is LMMAX =          18
 
 POTCAR:    PAW_PBE P 06Sep2000                   
   SHA256 =  df60c54a93efe35c9e85ae94c010c75e9f6960a95d5595d7cdba4096d109af88 P/POTCAR              
   COPYR  = (c) Copyright 06Sep2000 Georg Kresse                                                    
   COPYR  = This file is part of the software VASP. Any use, copying, and all other rights are regul
   COPYR  = If you do not have a valid VASP license, you may not use, copy or distribute this file. 
   VRHFIN =P : s2p3                                                                                 
   LEXCH  = PE                                                                                      
   EATOM  =   176.0430 eV,   12.9388 Ry                                                             
                                                                                                    
   TITEL  = PAW_PBE P 06Sep2000                                                                     
   LULTRA =        F    use ultrasoft PP ?                                                          
   IUNSCR =        1    unscreen: 0-lin 1-nonlin 2-no                                               
   RPACOR =    1.500    partial core radius                                                         
   POMASS =   30.974; ZVAL   =    5.000    mass and valenz                                          
   RCORE  =    1.900    outmost cutoff radius                                                       
   RWIGS  =    2.330; RWIGS  =    1.233    wigner-seitz radius (au A)                               
   ENMAX  =  255.040; ENMIN  =  191.280 eV                                                          
   ICORE  =        2    local potential                                                             
   LCOR   =        T    correct aug charges                                                         
   LPAW   =        T    paw PP                                                                      
   EAUG   =  342.924                                                                                
   DEXC   =    0.000                                                                                
   RMAX   =    1.935    core radius for proj-oper                                                   
   RAUG   =    1.300    factor for augmentation sphere                                              
   RDEP   =    1.931    radius for radial grids                                                     
   RDEPT  =    1.794    core radius for aug-charge                                                  
                                                                                                    
   Atomic configuration                                                                             
    6 entries                                                                                       
     n  l   j            E        occ.                                                              
     1  0  0.50     -2084.0982   2.0000                                                             
     2  0  0.50      -173.9859   2.0000                                                             
     2  1  1.50      -124.4865   6.0000                                                             
     3  0  0.50       -13.9692   2.0000                                                             
     3  1  0.50        -5.5067   3.0000                                                             
     3  2  1.50        -5.4423   0.0000                                                             
   Description                                                                                      
     l       E           TYP  RCUT    TYP  RCUT                                                     
     0    -13.9691527     23  1.900                                                                 
     0    -11.7794650     23  1.900                                                                 
     1     -5.5066937     23  1.900                                                                 
     1     -0.2556953     23  1.900                                                                 
     2     -5.4423304     23  1.900                                                                 
  local pseudopotential read in
  partial core-charges read in
  partial kinetic energy density read in
  atomic valenz-charges read in
  non local Contribution for L=           0  read in
    real space projection operators read in
  non local Contribution for L=           0  read in
    real space projection operators read in
  non local Contribution for L=           1  read in
    real space projection operators read in
  non local Contribution for L=           1  read in
    real space projection operators read in
    PAW grid and wavefunctions read in
 
   number of l-projection  operators is LMAX  =           4
   number of lm-projection operators is LMMAX =           8
 
 POTCAR:    PAW_PBE O 08Apr2002                   
   SHA256 =  818f92134a0a090dccd8ba1447fa70422a3b330e708bb4f08108d8ae51209ddf O/POTCAR              
   COPYR  = (c) Copyright 08Apr2002 Georg Kresse                                                    
   COPYR  = This file is part of the software VASP. Any use, copying, and all other rights are regul
   COPYR  = If you do not have a valid VASP license, you may not use, copy or distribute this file. 
   VRHFIN =O: s2p4                                                                                  
   LEXCH  = PE                                                                                      
   EATOM  =   432.3788 eV,   31.7789 Ry                                                             
                                                                                                    
   TITEL  = PAW_PBE O 08Apr2002                                                                     
   LULTRA =        F    use ultrasoft PP ?                                                          
   IUNSCR =        1    unscreen: 0-lin 1-nonlin 2-no                                               
   RPACOR =    1.200    partial core radius                                                         
   POMASS =   16.000; ZVAL   =    6.000    mass and valenz                                          
   RCORE  =    1.520    outmost cutoff radius                                                       
   RWIGS  =    1.550; RWIGS  =    0.820    wigner-seitz radius (au A)                               
   ENMAX  =  400.000; ENMIN  =  300.000 eV                                                          
   ICORE  =        2    local potential                                                             
   LCOR   =        T    correct aug charges                                                         
   LPAW   =        T    paw PP                                                                      
   EAUG   =  605.392                                                                                
   DEXC   =    0.000                                                                                
   RMAX   =    1.553    core radius for proj-oper                                                   
   RAUG   =    1.300    factor for augmentation sphere                                              
   RDEP   =    1.550    radius for radial grids                                                     
   RDEPT  =    1.329    core radius for aug-charge                                                  
                                                                                                    
   Atomic configuration                                                                             
    4 entries                                                                                       
     n  l   j            E        occ.                                                              
     1  0  0.50      -514.6923   2.0000                                                             
     2  0  0.50       -23.9615   2.0000                                                             
     2  1  0.50        -9.0305   4.0000                                                             
     3  2  1.50        -9.5241   0.0000                                                             
   Description                                                                                      
     l       E           TYP  RCUT    TYP  RCUT                                                     
     0    -23.9615318     23  1.200                                                                 
     0     -9.5240782     23  1.200                                                                 
     1     -9.0304911     23  1.520                                                                 
     1      8.1634956     23  1.520                                                                 
     2     -9.5240782      7  1.500                                                                 
  local pseudopotential read in
  partial core-charges read in
  partial kinetic energy density read in
  kinetic energy density of atom read in
  atomic valenz-charges read in
  non local Contribution for L=           0  read in
    real space projection operators read in
  non local Contribution for L=           0  read in
    real space projection operators read in
  non local Contribution for L=           1  read in
    real space projection operators read in
  non local Contribution for L=           1  read in
    real space projection operators read in
    PAW grid and wavefunctions read in
 
   number of l-projection  operators is LMAX  =           4
   number of lm-projection operators is LMMAX =           8
 
 Optimization of the real space projectors (new method)

 maximal supplied QI-value         = 16.25
 optimisation between [QCUT,QGAM] = [ 11.54, 23.24] = [ 37.28,151.24] Ry 
 Optimized for a Real-space Cutoff    1.58 Angstroem

   l    n(q)    QCUT    max X(q) W(low)/X(q) W(high)/X(q)  e(spline) 
   0     11    11.539    11.817    0.25E-04    0.22E-05    0.26E-07
   0     11    11.539     8.461    0.39E-04    0.49E-05    0.55E-07
   1     11    11.539     3.957    0.21E-05    0.44E-05    0.32E-07
   1     11    11.539     4.314    0.56E-04    0.44E-04    0.19E-06
   2     10    11.539    14.565    0.25E-03    0.21E-04    0.75E-06
   2     10    11.539    14.552    0.23E-03    0.22E-04    0.72E-06
 Optimization of the real space projectors (new method)

 maximal supplied QI-value         = 16.25
 optimisation between [QCUT,QGAM] = [ 11.54, 23.24] = [ 37.28,151.24] Ry 
 Optimized for a Real-space Cutoff    1.53 Angstroem

   l    n(q)    QCUT    max X(q) W(low)/X(q) W(high)/X(q)  e(spline) 
   1     10    11.539     3.206    0.43E-05    0.46E-05    0.52E-07
   1     10    11.539     4.597    0.39E-04    0.25E-04    0.17E-06
   2     10    11.539    89.000    0.10E-03    0.13E-03    0.24E-06
   2     10    11.539    82.410    0.10E-03    0.13E-03    0.23E-06
   0     11    11.539    36.565    0.42E-04    0.19E-04    0.30E-06
   0     11    11.539    13.729    0.20E-04    0.13E-04    0.22E-06
 Optimization of the real space projectors (new method)

 maximal supplied QI-value         = 19.84
 optimisation between [QCUT,QGAM] = [ 11.51, 23.22] = [ 37.09,150.92] Ry 
 Optimized for a Real-space Cutoff    1.21 Angstroem

   l    n(q)    QCUT    max X(q) W(low)/X(q) W(high)/X(q)  e(spline) 
   0      8    11.508   160.924    0.96E-04    0.17E-03    0.52E-07
   0      8    11.508   130.086    0.95E-04    0.17E-03    0.51E-07
   1      8    11.508    74.434    0.16E-03    0.74E-04    0.91E-07
   1      8    11.508    49.120    0.16E-03    0.71E-04    0.89E-07
 Optimization of the real space projectors (new method)

 maximal supplied QI-value         = 24.76
 optimisation between [QCUT,QGAM] = [ 11.64, 23.27] = [ 37.91,151.63] Ry 
 Optimized for a Real-space Cutoff    1.14 Angstroem

   l    n(q)    QCUT    max X(q) W(low)/X(q) W(high)/X(q)  e(spline) 
   0      8    11.635    20.381    0.10E-03    0.33E-03    0.24E-06
   0      8    11.635    15.268    0.11E-03    0.35E-03    0.26E-06
   1      7    11.635     5.964    0.24E-03    0.31E-03    0.30E-06
   1      7    11.635     5.382    0.22E-03    0.25E-03    0.26E-06
  PAW_PBE Ca_sv 06Sep2000               :
 energy of atom  1       EATOM=-1006.0909
 kinetic energy error for atom=    0.0022 (will be added to EATOM!!)
  PAW_PBE V_pv 07Sep2000                :
 energy of atom  2       EATOM=-1321.6206
 kinetic energy error for atom=    0.0054 (will be added to EATOM!!)
  PAW_PBE P 06Sep2000                   :
 energy of atom  3       EATOM= -176.0430
 kinetic energy error for atom=    0.0011 (will be added to EATOM!!)
  PAW_PBE O 08Apr2002                   :
 energy of atom  4       EATOM= -432.3788
 kinetic energy error for atom=    0.0208 (will be added to EATOM!!)
 
 
 POSCAR: Ca4 V16 P24 O96
  positions in direct lattice
  velocities in cartesian coordinates

 METAGGA = SCAN     LMAXTAU =  6    LMIXTAU =  F

 exchange correlation table for  LEXCH =        8
   RHO(1)=    0.500       N(1)  =     2000
   RHO(2)=  100.500       N(2)  =     4000
 


--------------------------------------------------------------------------------------------------------


 ion  position               nearest neighbor table
   1  0.507  0.493  0.493-  45 2.38  81 2.39  73 2.40  61 2.43  89 2.44  53 2.44
   2  0.507  0.993  0.993-  46 2.38  82 2.39  74 2.40  62 2.43  90 2.44  54 2.44
   3  0.007  0.993  0.493-  47 2.38  83 2.39  75 2.40  63 2.43  55 2.44  91 2.44
   4  0.007  0.493  0.993-  48 2.38  84 2.39  76 2.40  64 2.43  56 2.44  92 2.44
   5  0.644  0.644  0.643- 113 1.82  97 1.88 105 1.88  45 1.94  61 1.97  53 2.01
   6  0.644  0.144  0.143- 114 1.82  98 1.88 106 1.88  46 1.94  62 1.97  54 2.01
   7  0.144  0.144  0.643- 115 1.82  99 1.88 107 1.88  47 1.94  63 1.97  55 2.01
   8  0.144  0.644  0.143- 116 1.82 100 1.88 108 1.88  48 1.94  64 1.97  56 2.01
   9  0.139  0.142  0.141-  67 1.83  94 1.90  60 1.92  50 1.92 111 1.95 104 1.96
  10  0.139  0.642  0.641-  68 1.83  93 1.90  59 1.92  49 1.92 112 1.95 103 1.96
  11  0.639  0.642  0.141-  65 1.83  96 1.90  58 1.92  52 1.92 109 1.95 102 1.96
  12  0.639  0.142  0.641-  66 1.83  95 1.90  57 1.92  51 1.92 110 1.95 101 1.96
  13  0.852  0.854  0.855-  88 1.85 129 1.88  78 1.91  71 1.93 124 1.95 138 1.97
  14  0.852  0.354  0.355-  87 1.85 130 1.88  77 1.91  72 1.93 123 1.95 137 1.97
  15  0.352  0.354  0.855-  86 1.85 131 1.88  80 1.91  69 1.93 122 1.95 140 1.97
  16  0.352  0.854  0.355-  85 1.85 132 1.88  79 1.91  70 1.93 121 1.95 139 1.97
  17  0.349  0.352  0.352- 125 1.82 133 1.85 117 1.88  73 1.96  89 1.98  81 2.00
  18  0.349  0.852  0.852- 126 1.82 134 1.85 118 1.88  74 1.96  90 1.98  82 2.00
  19  0.849  0.852  0.352- 127 1.82 135 1.85 119 1.88  75 1.96  91 1.98  83 2.00
  20  0.849  0.352  0.852- 128 1.82 136 1.85 120 1.88  76 1.96  92 1.98  84 2.00
  21  0.388  0.743  0.606- 118 1.52  53 1.53  93 1.53  85 1.53
  22  0.388  0.243  0.106- 117 1.52  54 1.53  94 1.53  86 1.53
  23  0.888  0.243  0.606- 120 1.52  55 1.53  95 1.53  87 1.53
  24  0.888  0.743  0.106- 119 1.52  56 1.53  96 1.53  88 1.53
  25  0.390  0.606  0.252- 121 1.51 100 1.52  81 1.53  65 1.54
  26  0.390  0.106  0.752- 122 1.51  99 1.52  82 1.53  66 1.54
  27  0.890  0.107  0.252- 123 1.51  98 1.52  83 1.53  67 1.54
  28  0.890  0.607  0.752- 124 1.51  97 1.52  84 1.53  68 1.54
  29  0.604  0.389  0.744-  69 1.51 101 1.53  61 1.53 128 1.55
  30  0.604  0.889  0.244-  70 1.51 102 1.53  62 1.53 127 1.55
  31  0.104  0.889  0.744-  71 1.51 103 1.53  63 1.53 126 1.55
  32  0.104  0.389  0.244-  72 1.51 104 1.53  64 1.53 125 1.55
  33  0.248  0.390  0.606-  49 1.51 107 1.52  89 1.54 131 1.54
  34  0.248  0.890  0.106-  50 1.51 108 1.52  90 1.54 132 1.54
  35  0.748  0.890  0.606-  51 1.51 105 1.52  91 1.54 129 1.54
  36  0.748  0.390  0.106-  52 1.51 106 1.52  92 1.54 130 1.54
  37  0.746  0.604  0.388-  77 1.52 109 1.52 135 1.52  45 1.55
  38  0.746  0.104  0.888-  78 1.52 110 1.52 136 1.52  46 1.55
  39  0.246  0.104  0.388-  79 1.52 111 1.52 133 1.52  47 1.55
  40  0.246  0.604  0.888-  80 1.52 112 1.52 134 1.52  48 1.55
  41  0.607  0.252  0.391-  57 1.51 137 1.52  73 1.53 114 1.54
  42  0.607  0.752  0.891-  58 1.51 138 1.52  74 1.53 113 1.54
  43  0.107  0.752  0.391-  59 1.51 139 1.52  75 1.53 116 1.54
  44  0.107  0.252  0.891-  60 1.51 140 1.52  76 1.53 115 1.54
  45  0.680  0.578  0.500-  37 1.55   5 1.94   1 2.38
  46  0.680  0.078  1.000-  38 1.55   6 1.94   2 2.38
  47  0.180  0.078  0.500-  39 1.55   7 1.94   3 2.38
  48  0.180  0.578  1.000-  40 1.55   8 1.94   4 2.38
  49  0.165  0.485  0.629-  33 1.51  10 1.92
  50  0.165  0.985  0.128-  34 1.51   9 1.92
  51  0.665  0.985  0.628-  35 1.51  12 1.92
  52  0.665  0.485  0.128-  36 1.51  11 1.92
  53  0.495  0.674  0.577-  21 1.53   5 2.01   1 2.44
  54  0.495  0.174  0.077-  22 1.53   6 2.01   2 2.44
  55  0.995  0.174  0.577-  23 1.53   7 2.01   3 2.44
  56  0.995  0.674  0.077-  24 1.53   8 2.01   4 2.44
  57  0.632  0.164  0.482-  41 1.51  12 1.92
  58  0.632  0.664  0.982-  42 1.51  11 1.92
  59  0.131  0.664  0.482-  43 1.51  10 1.92
  60  0.132  0.164  0.982-  44 1.51   9 1.92
  61  0.578  0.499  0.679-  29 1.53   5 1.97   1 2.43
  62  0.578  0.999  0.179-  30 1.53   6 1.97   2 2.43
  63  0.078  0.999  0.679-  31 1.53   7 1.97   3 2.43
  64  0.078  0.499  0.179-  32 1.53   8 1.97   4 2.43
  65  0.488  0.633  0.169-  25 1.54  11 1.83
  66  0.488  0.133  0.669-  26 1.54  12 1.83
  67  0.988  0.133  0.169-  27 1.54   9 1.83
  68  0.988  0.633  0.669-  28 1.54  10 1.83
  69  0.511  0.363  0.829-  29 1.51  15 1.93
  70  0.511  0.863  0.329-  30 1.51  16 1.93
  71  0.011  0.863  0.829-  31 1.51  13 1.93
  72  0.011  0.363  0.329-  32 1.51  14 1.93
  73  0.494  0.314  0.416-  41 1.53  17 1.96   1 2.40
  74  0.494  0.814  0.916-  42 1.53  18 1.96   2 2.40
  75  0.994  0.814  0.416-  43 1.53  19 1.96   3 2.40
  76  0.994  0.314  0.916-  44 1.53  20 1.96   4 2.40
  77  0.833  0.512  0.364-  37 1.52  14 1.91
  78  0.833  0.012  0.864-  38 1.52  13 1.91
  79  0.333  0.012  0.364-  39 1.52  16 1.91
  80  0.333  0.512  0.864-  40 1.52  15 1.91
  81  0.419  0.497  0.317-  25 1.53  17 2.00   1 2.39
  82  0.419  0.997  0.817-  26 1.53  18 2.00   2 2.39
  83  0.919  0.997  0.317-  27 1.53  19 2.00   3 2.39
  84  0.919  0.497  0.817-  28 1.53  20 2.00   4 2.39
  85  0.363  0.826  0.508-  21 1.53  16 1.85
  86  0.363  0.326  0.008-  22 1.53  15 1.85
  87  0.863  0.326  0.508-  23 1.53  14 1.85
  88  0.863  0.826  0.008-  24 1.53  13 1.85
  89  0.322  0.416  0.501-  33 1.54  17 1.98   1 2.44
  90  0.322  0.916  0.001-  34 1.54  18 1.98   2 2.44
  91  0.822  0.916  0.501-  35 1.54  19 1.98   3 2.44
  92  0.822  0.416  0.001-  36 1.54  20 1.98   4 2.44
  93  0.295  0.660  0.625-  21 1.53  10 1.90
  94  0.296  0.160  0.125-  22 1.53   9 1.90
  95  0.796  0.160  0.625-  23 1.53  12 1.90
  96  0.796  0.660  0.125-  24 1.53  11 1.90
  97  0.788  0.595  0.684-  28 1.52   5 1.88
  98  0.788  0.094  0.184-  27 1.52   6 1.88
  99  0.288  0.095  0.684-  26 1.52   7 1.88
 100  0.288  0.594  0.184-  25 1.52   8 1.88
 101  0.623  0.304  0.654-  29 1.53  12 1.96
 102  0.623  0.804  0.154-  30 1.53  11 1.96
 103  0.123  0.804  0.654-  31 1.53  10 1.96
 104  0.123  0.304  0.154-  32 1.53   9 1.96
 105  0.685  0.786  0.590-  35 1.52   5 1.88
 106  0.685  0.286  0.090-  36 1.52   6 1.88
 107  0.185  0.286  0.590-  33 1.52   7 1.88
 108  0.185  0.786  0.090-  34 1.52   8 1.88
 109  0.656  0.620  0.302-  37 1.52  11 1.95
 110  0.656  0.120  0.802-  38 1.52  12 1.95
 111  0.156  0.120  0.302-  39 1.52   9 1.95
 112  0.156  0.620  0.802-  40 1.52  10 1.95
 113  0.599  0.691  0.781-  42 1.54   5 1.82
 114  0.599  0.191  0.281-  41 1.54   6 1.82
 115  0.099  0.191  0.781-  44 1.54   7 1.82
 116  0.099  0.691  0.281-  43 1.54   8 1.82
 117  0.402  0.309  0.208-  22 1.52  17 1.88
 118  0.402  0.809  0.708-  21 1.52  18 1.88
 119  0.902  0.809  0.208-  24 1.52  19 1.88
 120  0.902  0.309  0.708-  23 1.52  20 1.88
 121  0.370  0.694  0.339-  25 1.51  16 1.95
 122  0.370  0.194  0.839-  26 1.51  15 1.95
 123  0.870  0.194  0.339-  27 1.51  14 1.95
 124  0.870  0.694  0.839-  28 1.51  13 1.95
 125  0.212  0.402  0.309-  32 1.55  17 1.82
 126  0.212  0.902  0.809-  31 1.55  18 1.82
 127  0.712  0.902  0.309-  30 1.55  19 1.82
 128  0.712  0.402  0.809-  29 1.55  20 1.82
 129  0.831  0.869  0.701-  35 1.54  13 1.88
 130  0.831  0.369  0.201-  36 1.54  14 1.88
 131  0.331  0.369  0.701-  33 1.54  15 1.88
 132  0.331  0.869  0.201-  34 1.54  16 1.88
 133  0.307  0.211  0.399-  39 1.52  17 1.85
 134  0.307  0.711  0.899-  40 1.52  18 1.85
 135  0.807  0.711  0.399-  37 1.52  19 1.85
 136  0.807  0.211  0.899-  38 1.52  20 1.85
 137  0.690  0.343  0.378-  41 1.52  14 1.97
 138  0.690  0.843  0.878-  42 1.52  13 1.97
 139  0.190  0.843  0.378-  43 1.52  16 1.97
 140  0.190  0.343  0.878-  44 1.52  15 1.97
 

IMPORTANT INFORMATION: All symmetrisations will be switched off!
NOSYMM: (Re-)initialisation of all symmetry stuff for point group C_1.


----------------------------------------------------------------------------------------

                                     Primitive cell                                     

  volume of cell :    1724.0894

  direct lattice vectors                    reciprocal lattice vectors
    -4.514295864  6.933377727  8.688696700    -0.036414881  0.048388116  0.057559768
     5.079531101 -6.575608084  8.741379973     0.033540665 -0.049981352  0.057310330
     9.741198163  6.926601223  0.339810172     0.068291558  0.048486859 -0.003209849

  length of vectors
    11.997668282 12.060347495 11.957600809     0.083549867  0.083111886  0.083815366

  position of ions in fractional coordinates (direct lattice)
     0.507107810  0.492579028  0.492648323
     0.507096295  0.992593017  0.992655498
     0.007099508  0.992619711  0.492645940
     0.007153490  0.492605349  0.992603749
     0.644211745  0.643535451  0.643151518
     0.644281915  0.143537729  0.143143480
     0.144279723  0.143581725  0.643127346
     0.144276595  0.643520046  0.143129974
     0.138976217  0.142292161  0.141325522
     0.138836013  0.642382847  0.641248755
     0.638980174  0.642295213  0.141328139
     0.638977506  0.142292835  0.641327204
     0.852379009  0.853925642  0.855355153
     0.852375617  0.353906662  0.355350945
     0.352387373  0.353904313  0.855363835
     0.352367338  0.853891751  0.355356102
     0.349216199  0.351722474  0.351954517
     0.349196696  0.851709602  0.851946815
     0.849197122  0.851724815  0.351942069
     0.849228908  0.351720514  0.851938315
     0.387801913  0.742729841  0.605685030
     0.387888133  0.242781109  0.105689205
     0.887875697  0.242794926  0.605678574
     0.887880453  0.742788169  0.105677708
     0.389864381  0.606494481  0.252295886
     0.389864834  0.106496293  0.752293131
     0.889861662  0.106501153  0.252289759
     0.889824546  0.606536260  0.752270285
     0.604297253  0.389173834  0.744411498
     0.604278033  0.889179700  0.244404650
     0.104295350  0.889227931  0.744418031
     0.104283271  0.389174175  0.244405943
     0.248092500  0.389632789  0.606259906
     0.248020752  0.889614323  0.106216387
     0.748008898  0.889613487  0.606218419
     0.748029324  0.389626009  0.106206801
     0.746071463  0.604492306  0.387809508
     0.746070303  0.104499772  0.887803595
     0.246070919  0.104486761  0.387801467
     0.246056531  0.604472096  0.887781430
     0.606725542  0.251609806  0.390721608
     0.606717520  0.751623864  0.890737691
     0.106641630  0.751586645  0.390701248
     0.106723629  0.251624989  0.890713948
     0.680339165  0.578486016  0.499568720
     0.680354798  0.078469672  0.999562167
     0.180347162  0.078472702  0.499563795
     0.180374039  0.578492772  0.999580124
     0.165173989  0.485148200  0.628541546
     0.164963583  0.985107850  0.128302719
     0.664960205  0.985106005  0.628304238
     0.664959698  0.485107791  0.128299708
     0.494557614  0.673540916  0.576826606
     0.494615090  0.173570846  0.076792735
     0.994610217  0.173591240  0.576773068
     0.994598842  0.673571871  0.076776457
     0.631768980  0.164062646  0.482062464
     0.631781424  0.664053314  0.982056905
     0.131327823  0.663880032  0.482004538
     0.131747890  0.164072133  0.982059571
     0.577581960  0.499252479  0.679184775
     0.577575044  0.999260783  0.179181259
     0.077543698  0.999299795  0.679198638
     0.077565287  0.499255126  0.179191644
     0.487960757  0.633111962  0.168765696
     0.487966031  0.133080676  0.668759093
     0.987955124  0.133101905  0.168752675
     0.987921950  0.633277276  0.668701959
     0.511479572  0.362710756  0.829401177
     0.511457876  0.862700173  0.329384520
     0.011467093  0.862661268  0.829360736
     0.011455399  0.362681019  0.329377737
     0.494128725  0.313599294  0.415826612
     0.494124534  0.813606363  0.915871198
     0.994098180  0.813674226  0.415823081
     0.994127513  0.313625763  0.915822248
     0.832716577  0.511568517  0.364155967
     0.832728977  0.011577757  0.864154345
     0.332700402  0.011549939  0.364150442
     0.332763598  0.511565847  0.864186437
     0.419210771  0.497213237  0.316904818
     0.419187494  0.997204728  0.816889134
     0.919188437  0.997218187  0.316896888
     0.919272883  0.497239438  0.816787968
     0.362938277  0.826229962  0.508132553
     0.362991272  0.326271655  0.008124916
     0.862965232  0.326303386  0.508138731
     0.862958678  0.826289956  0.008132051
     0.322182208  0.416327605  0.500849588
     0.322141706  0.916354870  0.000839487
     0.822133502  0.916352848  0.500843524
     0.822146882  0.416375993  0.000829735
     0.295486250  0.660240128  0.625202282
     0.295571354  0.160317384  0.125286743
     0.795571983  0.160317209  0.625292633
     0.795560537  0.660322368  0.125294144
     0.788181640  0.594506885  0.683736980
     0.788183295  0.094478939  0.183773777
     0.288185691  0.094509306  0.683757721
     0.288183263  0.594471199  0.183795600
     0.623315880  0.304044316  0.654194094
     0.623321533  0.804048079  0.154186726
     0.123455558  0.804115940  0.654174543
     0.123316865  0.304044380  0.154186639
     0.684794046  0.785558524  0.590109894
     0.684816150  0.285563232  0.090102680
     0.184756876  0.285641157  0.590135809
     0.184820892  0.785559361  0.090095638
     0.656312641  0.620034630  0.302357194
     0.656315386  0.120029333  0.802351727
     0.156306620  0.120032594  0.302353667
     0.156305218  0.619827882  0.802359517
     0.599152393  0.690685330  0.781276824
     0.599168328  0.190673780  0.281273273
     0.099164331  0.190696445  0.781267366
     0.099118484  0.690762256  0.281187259
     0.401707110  0.309152745  0.208474202
     0.401635746  0.809090187  0.708483991
     0.901706595  0.809143408  0.208479385
     0.901711795  0.309136729  0.708482172
     0.369866071  0.693532051  0.339049285
     0.369889474  0.193529194  0.839052482
     0.869870809  0.193540265  0.339041745
     0.869891977  0.693552873  0.839037390
     0.211600666  0.401666685  0.308584222
     0.211589043  0.901750521  0.808600263
     0.711593637  0.901684990  0.308578851
     0.711621318  0.401684602  0.808569152
     0.830517727  0.869192520  0.700661351
     0.830524246  0.369193353  0.200653481
     0.330649114  0.369085471  0.700642198
     0.330521965  0.869198953  0.200661828
     0.307144622  0.210725157  0.399158865
     0.307118499  0.710743220  0.899106723
     0.807149128  0.710734752  0.399156670
     0.807140125  0.210744578  0.899158107
     0.689692481  0.343438216  0.378098429
     0.689689772  0.843437029  0.878088719
     0.189701770  0.843326639  0.378180889
     0.189703147  0.343444806  0.878116967

  ion indices of the primitive-cell ions
   primitive index   ion index
                 1           1
                 2           2
                 3           3
                 4           4
                 5           5
                 6           6
                 7           7
                 8           8
                 9           9
                10          10
                11          11
                12          12
                13          13
                14          14
                15          15
                16          16
                17          17
                18          18
                19          19
                20          20
                21          21
                22          22
                23          23
                24          24
                25          25
                26          26
                27          27
                28          28
                29          29
                30          30
                31          31
                32          32
                33          33
                34          34
                35          35
                36          36
                37          37
                38          38
                39          39
                40          40
                41          41
                42          42
                43          43
                44          44
                45          45
                46          46
                47          47
                48          48
                49          49
                50          50
                51          51
                52          52
                53          53
                54          54
                55          55
                56          56
                57          57
                58          58
                59          59
                60          60
                61          61
                62          62
                63          63
                64          64
                65          65
                66          66
                67          67
                68          68
                69          69
                70          70
                71          71
                72          72
                73          73
                74          74
                75          75
                76          76
                77          77
                78          78
                79          79
                80          80
                81          81
                82          82
                83          83
                84          84
                85          85
                86          86
                87          87
                88          88
                89          89
                90          90
                91          91
                92          92
                93          93
                94          94
                95          95
                96          96
                97          97
                98          98
                99          99
               100         100
               101         101
               102         102
               103         103
               104         104
               105         105
               106         106
               107         107
               108         108
               109         109
               110         110
               111         111
               112         112
               113         113
               114         114
               115         115
               116         116
               117         117
               118         118
               119         119
               120         120
               121         121
               122         122
               123         123
               124         124
               125         125
               126         126
               127         127
               128         128
               129         129
               130         130
               131         131
               132         132
               133         133
               134         134
               135         135
               136         136
               137         137
               138         138
               139         139
               140         140

----------------------------------------------------------------------------------------

 
 
 KPOINTS: K-points file                           

Automatic generation of k-mesh.
Space group operators:
 irot       det(A)        alpha          n_x          n_y          n_z        tau_x        tau_y        tau_z
    1     1.000000     0.000000     1.000000     0.000000     0.000000     0.000000     0.000000     0.000000
 
 Subroutine IBZKPT returns following result:
 ===========================================
 
 Found      1 irreducible k-points:
 
 Following reciprocal coordinates:
            Coordinates               Weight
  0.000000  0.000000  0.000000      1.000000
 
 Following cartesian coordinates:
            Coordinates               Weight
  0.000000  0.000000  0.000000      1.000000
 


--------------------------------------------------------------------------------------------------------




 Dimension of arrays:
   k-points           NKPTS =      1   k-points in BZ     NKDIM =      1   number of bands    NBANDS=    598
   number of dos      NEDOS =    301   number of ions     NIONS =    140
   non local maximal  LDIM  =      6   non local SUM 2l+1 LMDIM =     18
   total plane-waves  NPLWV = 729000
   max r-space proj   IRMAX =   7033   max aug-charges    IRDMAX=  20371
   dimension x,y,z NGX =    90 NGY =   90 NGZ =   90
   dimension x,y,z NGXF=   180 NGYF=  180 NGZF=  180
   support grid    NGXF=   180 NGYF=  180 NGZF=  180
   ions per type =               4  16  24  96
   NGX,Y,Z   is equivalent  to a cutoff of  12.47, 12.41, 12.51 a.u.
   NGXF,Y,Z  is equivalent  to a cutoff of  24.94, 24.81, 25.03 a.u.

 SYSTEM =  unknown system                          
 POSCAR =  Ca4 V16 P24 O96                         

 Startparameter for this run:
   NWRITE =      2    write-flag & timer
   PREC   = accura    normal or accurate (medium, high low for compatibility)
   ISTART =      0    job   : 0-new  1-cont  2-samecut
   ICHARG =      1    charge: 1-file 2-atom 10-const
   ISPIN  =      2    spin polarized calculation?
   LNONCOLLINEAR =      F non collinear calculations
   LSORBIT =      F    spin-orbit coupling
   INIWAV =      1    electr: 0-lowe 1-rand  2-diag
   LASPH  =      T    aspherical Exc in radial PAW
   METAGGA=      F    non-selfconsistent MetaGGA calc.

 Electronic Relaxation 1
   ENCUT  =  520.0 eV  38.22 Ry    6.18 a.u.  22.31 22.42 22.23*2*pi/ulx,y,z
   ENINI  =  520.0     initial cutoff
   ENAUG  =  605.4 eV  augmentation charge cutoff
   NELM   =    200;   NELMIN=  6; NELMDL= -5     # of ELM steps 
   EDIFF  = 0.1E-04   stopping-criterion for ELM
   LREAL  =      T    real-space projection
   NLSPLINE    = F    spline interpolate recip. space projectors
   LCOMPAT=      F    compatible to vasp.4.4
   GGA_COMPAT  = T    GGA compatible to vasp.4.4-vasp.4.6
   LMAXPAW     = -100 max onsite density
   LMAXMIX     =    2 max onsite mixed and CHGCAR
   VOSKOWN=      0    Vosko Wilk Nusair interpolation
   ROPT   =   -0.00025  -0.00025  -0.00025  -0.00025
 Ionic relaxation
   EDIFFG = -.3E-01   stopping-criterion for IOM
   NSW    =    199    number of steps for IOM
   NBLOCK =      1;   KBLOCK =    199    inner block; outer block 
   IBRION =      2    ionic relax: 0-MD 1-quasi-New 2-CG
   NFREE  =      1    steps in history (QN), initial steepest desc. (CG)
   ISIF   =      3    stress and relaxation
   IWAVPR =     11    prediction:  0-non 1-charg 2-wave 3-comb
   ISYM   =      0    0-nonsym 1-usesym 2-fastsym
   LCORR  =      T    Harris-Foulkes like correction to forces

   POTIM  = 0.5000    time-step for ionic-motion
   TEIN   =    0.0    initial temperature
   TEBEG  =    0.0;   TEEND  =   0.0 temperature during run
   SMASS  =  -3.00    Nose mass-parameter (am)
   estimated Nose-frequenzy (Omega)   =  0.10E-29 period in steps = 0.13E+47 mass=  -0.329E-26a.u.
   SCALEE = 1.0000    scale energy and forces
   NPACO  =    256;   APACO  = 16.0  distance and # of slots for P.C.
   PSTRESS=    0.0 pullay stress

  Mass of Ions in am
   POMASS =  40.08 50.94 30.97 16.00
  Ionic Valenz
   ZVAL   =  10.00 11.00  5.00  6.00
  Atomic Wigner-Seitz radii
   RWIGS  =  -1.00 -1.00 -1.00 -1.00
  virtual crystal weights 
   VCA    =   1.00  1.00  1.00  1.00
   NELECT =     912.0000    total number of electrons
   NUPDOWN=      -1.0000    fix difference up-down

 DOS related values:
   EMIN   =  10.00;   EMAX   =-10.00  energy-range for DOS
   EFERMI =   0.00
   ISMEAR =     0;   SIGMA  =   0.05  broadening in eV -4-tet -1-fermi 0-gaus

 Electronic relaxation 2 (details)
   IALGO  =     58    algorithm
   LDIAG  =      T    sub-space diagonalisation (order eigenvalues)
   LSUBROT=      F    optimize rotation matrix (better conditioning)
   TURBO    =      0    0=normal 1=particle mesh
   IRESTART =      0    0=no restart 2=restart with 2 vectors
   NREBOOT  =      0    no. of reboots
   NMIN     =      0    reboot dimension
   EREF     =   0.00    reference energy to select bands
   IMIX   =      4    mixing-type and parameters
     AMIX     =   0.40;   BMIX     =  1.00
     AMIX_MAG =   1.60;   BMIX_MAG =  1.00
     AMIN     =   0.10
     WC   =   100.;   INIMIX=   1;  MIXPRE=   1;  MAXMIX= -45

 Intra band minimization:
   WEIMIN = 0.0010     energy-eigenvalue tresh-hold
   EBREAK =  0.42E-08  absolut break condition
   DEPER  =   0.30     relativ break condition  

   TIME   =   0.40     timestep for ELM

  volume/ion in A,a.u.               =      12.31        83.11
  Fermi-wavevector in a.u.,A,eV,Ry     =   1.323996  2.501989 23.850525  1.752964
  Thomas-Fermi vector in A             =   2.453563
 
 Write flags
   LWAVE        =      F    write WAVECAR
   LDOWNSAMPLE  =      F    k-point downsampling of WAVECAR
   LCHARG       =      T    write CHGCAR
   LVTOT        =      F    write LOCPOT, total local potential
   LVHAR        =      F    write LOCPOT, Hartree potential only
   LELF         =      F    write electronic localiz. function (ELF)
   LORBIT       =     11    0 simple, 1 ext, 2 COOP (PROOUT), +10 PAW based schemes


 Dipole corrections
   LMONO  =      F    monopole corrections only (constant potential shift)
   LDIPOL =      F    correct potential (dipole corrections)
   IDIPOL =      0    1-x, 2-y, 3-z, 4-all directions 
   EPSILON=  1.0000000 bulk dielectric constant

 Exchange correlation treatment:
   GGA     =    --    GGA type
   LEXCH   =     8    internal setting for exchange type
   VOSKOWN=      0    Vosko Wilk Nusair interpolation
   LHFCALC =     F    Hartree Fock is set to
   LHFONE  =     F    Hartree Fock one center treatment
   AEXX    =    0.0000 exact exchange contribution

 Linear response parameters
   LEPSILON=     F    determine dielectric tensor
   LRPA    =     F    only Hartree local field effects (RPA)
   LNABLA  =     F    use nabla operator in PAW spheres
   LVEL    =     F    velocity operator in full k-point grid
   LINTERFAST=   F  fast interpolation
   KINTER  =     0    interpolate to denser k-point grid
   CSHIFT  =0.1000    complex shift for real part using Kramers Kronig
   OMEGAMAX=  -1.0    maximum frequency
   DEG_THRESHOLD= 0.2000000E-02 threshold for treating states as degnerate
   RTIME   =   -0.100 relaxation time in fs
  (WPLASMAI=    0.000 imaginary part of plasma frequency in eV, 0.658/RTIME)
   DFIELD  = 0.0000000 0.0000000 0.0000000 field for delta impulse in time
 
 Orbital magnetization related:
   ORBITALMAG=     F  switch on orbital magnetization
   LCHIMAG   =     F  perturbation theory with respect to B field
   DQ        =  0.001000  dq finite difference perturbation B field
   LLRAUG    =     F  two centre corrections for induced B field



--------------------------------------------------------------------------------------------------------


 conjugate gradient relaxation of ions
 charge density and potential will be updated during run
 spin polarized calculation
 Conjugate gradient for all bands (Freysoldt, et al. PRB 79, 241103 (2009))
 preconditioned conjugated gradient                                        
 perform sub-space diagonalisation
    before iterative eigenvector-optimisation
 modified Broyden-mixing scheme, WC =      100.0
 initial mixing is a Kerker type mixing with AMIX =  0.4000 and BMIX =      1.0000
 Hartree-type preconditioning will be used
 using additional bands          142
 real space projection scheme for non local part
 use partial core corrections
 no Harris-corrections to forces 
 use gradient corrections 
 use of overlap-Matrix (Vanderbilt PP)
 Gauss-broadening in eV      SIGMA  =   0.05


--------------------------------------------------------------------------------------------------------


  energy-cutoff  :      520.00
  volume of cell :     1724.09
      direct lattice vectors                 reciprocal lattice vectors
    -4.514295864  6.933377727  8.688696700    -0.036414881  0.048388116  0.057559768
     5.079531101 -6.575608084  8.741379973     0.033540665 -0.049981352  0.057310330
     9.741198163  6.926601223  0.339810172     0.068291558  0.048486859 -0.003209849

  length of vectors
    11.997668282 12.060347495 11.957600809     0.083549867  0.083111886  0.083815366


 
 k-points in units of 2pi/SCALE and weight: K-points file                           
   0.00000000  0.00000000  0.00000000       1.000
 
 k-points in reciprocal lattice and weights: K-points file                           
   0.00000000  0.00000000  0.00000000       1.000
 
 position of ions in fractional coordinates (direct lattice) 
   0.50710781  0.49257903  0.49264832
   0.50709630  0.99259302  0.99265550
   0.00709951  0.99261971  0.49264594
   0.00715349  0.49260535  0.99260375
   0.64421174  0.64353545  0.64315152
   0.64428192  0.14353773  0.14314348
   0.14427972  0.14358172  0.64312735
   0.14427659  0.64352005  0.14312997
   0.13897622  0.14229216  0.14132552
   0.13883601  0.64238285  0.64124875
   0.63898017  0.64229521  0.14132814
   0.63897751  0.14229283  0.64132720
   0.85237901  0.85392564  0.85535515
   0.85237562  0.35390666  0.35535095
   0.35238737  0.35390431  0.85536384
   0.35236734  0.85389175  0.35535610
   0.34921620  0.35172247  0.35195452
   0.34919670  0.85170960  0.85194682
   0.84919712  0.85172482  0.35194207
   0.84922891  0.35172051  0.85193831
   0.38780191  0.74272984  0.60568503
   0.38788813  0.24278111  0.10568920
   0.88787570  0.24279493  0.60567857
   0.88788045  0.74278817  0.10567771
   0.38986438  0.60649448  0.25229589
   0.38986483  0.10649629  0.75229313
   0.88986166  0.10650115  0.25228976
   0.88982455  0.60653626  0.75227029
   0.60429725  0.38917383  0.74441150
   0.60427803  0.88917970  0.24440465
   0.10429535  0.88922793  0.74441803
   0.10428327  0.38917417  0.24440594
   0.24809250  0.38963279  0.60625991
   0.24802075  0.88961432  0.10621639
   0.74800890  0.88961349  0.60621842
   0.74802932  0.38962601  0.10620680
   0.74607146  0.60449231  0.38780951
   0.74607030  0.10449977  0.88780360
   0.24607092  0.10448676  0.38780147
   0.24605653  0.60447210  0.88778143
   0.60672554  0.25160981  0.39072161
   0.60671752  0.75162386  0.89073769
   0.10664163  0.75158664  0.39070125
   0.10672363  0.25162499  0.89071395
   0.68033916  0.57848602  0.49956872
   0.68035480  0.07846967  0.99956217
   0.18034716  0.07847270  0.49956379
   0.18037404  0.57849277  0.99958012
   0.16517399  0.48514820  0.62854155
   0.16496358  0.98510785  0.12830272
   0.66496020  0.98510600  0.62830424
   0.66495970  0.48510779  0.12829971
   0.49455761  0.67354092  0.57682661
   0.49461509  0.17357085  0.07679274
   0.99461022  0.17359124  0.57677307
   0.99459884  0.67357187  0.07677646
   0.63176898  0.16406265  0.48206246
   0.63178142  0.66405331  0.98205690
   0.13132782  0.66388003  0.48200454
   0.13174789  0.16407213  0.98205957
   0.57758196  0.49925248  0.67918477
   0.57757504  0.99926078  0.17918126
   0.07754370  0.99929980  0.67919864
   0.07756529  0.49925513  0.17919164
   0.48796076  0.63311196  0.16876570
   0.48796603  0.13308068  0.66875909
   0.98795512  0.13310191  0.16875268
   0.98792195  0.63327728  0.66870196
   0.51147957  0.36271076  0.82940118
   0.51145788  0.86270017  0.32938452
   0.01146709  0.86266127  0.82936074
   0.01145540  0.36268102  0.32937774
   0.49412873  0.31359929  0.41582661
   0.49412453  0.81360636  0.91587120
   0.99409818  0.81367423  0.41582308
   0.99412751  0.31362576  0.91582225
   0.83271658  0.51156852  0.36415597
   0.83272898  0.01157776  0.86415435
   0.33270040  0.01154994  0.36415044
   0.33276360  0.51156585  0.86418644
   0.41921077  0.49721324  0.31690482
   0.41918749  0.99720473  0.81688913
   0.91918844  0.99721819  0.31689689
   0.91927288  0.49723944  0.81678797
   0.36293828  0.82622996  0.50813255
   0.36299127  0.32627165  0.00812492
   0.86296523  0.32630339  0.50813873
   0.86295868  0.82628996  0.00813205
   0.32218221  0.41632761  0.50084959
   0.32214171  0.91635487  0.00083949
   0.82213350  0.91635285  0.50084352
   0.82214688  0.41637599  0.00082974
   0.29548625  0.66024013  0.62520228
   0.29557135  0.16031738  0.12528674
   0.79557198  0.16031721  0.62529263
   0.79556054  0.66032237  0.12529414
   0.78818164  0.59450689  0.68373698
   0.78818330  0.09447894  0.18377378
   0.28818569  0.09450931  0.68375772
   0.28818326  0.59447120  0.18379560
   0.62331588  0.30404432  0.65419409
   0.62332153  0.80404808  0.15418673
   0.12345556  0.80411594  0.65417454
   0.12331686  0.30404438  0.15418664
   0.68479405  0.78555852  0.59010989
   0.68481615  0.28556323  0.09010268
   0.18475688  0.28564116  0.59013581
   0.18482089  0.78555936  0.09009564
   0.65631264  0.62003463  0.30235719
   0.65631539  0.12002933  0.80235173
   0.15630662  0.12003259  0.30235367
   0.15630522  0.61982788  0.80235952
   0.59915239  0.69068533  0.78127682
   0.59916833  0.19067378  0.28127327
   0.09916433  0.19069645  0.78126737
   0.09911848  0.69076226  0.28118726
   0.40170711  0.30915275  0.20847420
   0.40163575  0.80909019  0.70848399
   0.90170659  0.80914341  0.20847938
   0.90171180  0.30913673  0.70848217
   0.36986607  0.69353205  0.33904929
   0.36988947  0.19352919  0.83905248
   0.86987081  0.19354026  0.33904175
   0.86989198  0.69355287  0.83903739
   0.21160067  0.40166669  0.30858422
   0.21158904  0.90175052  0.80860026
   0.71159364  0.90168499  0.30857885
   0.71162132  0.40168460  0.80856915
   0.83051773  0.86919252  0.70066135
   0.83052425  0.36919335  0.20065348
   0.33064911  0.36908547  0.70064220
   0.33052196  0.86919895  0.20066183
   0.30714462  0.21072516  0.39915887
   0.30711850  0.71074322  0.89910672
   0.80714913  0.71073475  0.39915667
   0.80714012  0.21074458  0.89915811
   0.68969248  0.34343822  0.37809843
   0.68968977  0.84343703  0.87808872
   0.18970177  0.84332664  0.37818089
   0.18970315  0.34344481  0.87811697
 
 position of ions in cartesian coordinates  (Angst):
   5.01182074  3.68934184  8.87933332
  12.42237831  3.86471627 13.41995306
   9.80895514 -3.06549266  8.90595764
  12.13906103  3.68578848  4.70550189
   6.62576231  4.68978054 11.44129779
  -0.78498582  4.51469984  6.90132959
   6.34283740  4.51089533  2.72724638
   4.01173030 -2.23980723  6.92746584
   1.47207761  1.00682266  2.49937590
   8.88278800  1.18021909  7.03951941
   1.75471836  1.18573297 11.21447618
   4.08554275  7.93682829  7.01364699
   8.82183486  6.21948933 15.16120958
   1.41134815  6.04406491 10.62041769
   8.53915572  6.04086289  6.44606041
   6.20827350 -0.71035164 10.64655879
   3.63857870  2.54630726  6.22837115
  11.04889096  2.72169990 10.76868164
   3.92117307  2.72495820 14.94325996
   6.25180469  9.47628552 10.74271238
   7.92216465  2.00021546 10.06779489
   0.51171189  1.82500850  5.52839853
   3.12518581  8.75474725 10.04266108
   0.79428805  2.00371401 14.24342795
   3.77840864  0.46256000  8.77474477
   6.10922249  7.21363680  4.57397872
  -1.01851837  7.21694774  8.74843575
   6.39200245  7.39182123 13.28900861
   6.50030392  6.78700810  8.90543050
   4.16952025  0.03568418 13.10609736
  11.29756442  0.03219153  8.93223071
   3.88686351 -0.14311904  4.39105668
   6.76488681  3.35736710  5.76754202
   4.43385944 -3.39441502  9.96752732
   7.04737965  3.53551184 14.48167115
  -0.36312676  3.35999407  9.94135906
   3.48027942  3.88409258 11.89826722
   5.81109851 10.63509915  7.69753548
   3.19755776  3.70518476  3.18317295
  10.60771767  3.88053921  7.72350800
   2.34521784  5.25854265  7.60384231
   9.75584676  5.43400257 12.14449603
   7.14219414 -1.49652078  7.62924548
   9.47297599  5.25498824  3.42951254
   4.73358333  4.37346440 11.13778526
   7.06419943 11.12473952  6.93699109
   4.45081400  4.19468845  2.42269836
  11.86131831  4.37035250  6.96370794
   7.84142887  2.30872587  5.88959626
   5.50901375 -4.44522654 10.08811914
   8.12248558  2.48476217 14.60232761
   0.71208817  2.30921896 10.06174220
   6.80767491  2.99546153 10.38074973
  -0.60312709  2.81993204  5.84090417
   2.01025807  9.74961741 10.35528686
  -0.32058949  2.99858472 14.55580476
   2.67723521  6.64053576  7.08719271
  10.08744211  6.81614147 11.62781243
   7.47464834 -0.11621628  7.10808529
   9.80509744  6.63691886  2.91264815
   6.54466612  5.42614735  9.61338399
   4.21387174 -1.32508421 13.81418019
  11.34212772 -1.32882595  9.63981150
   3.93137060 -1.50392755  5.09901116
   2.65709276  0.38909279  9.83136354
   4.98767925  7.14039400  5.63034874
  -2.13997321  7.14352257  9.80488063
   5.27093794  7.31728467 14.34670321
   7.61279167  6.90616851  7.89652236
   5.28184007  0.15486764 12.09702058
  12.40911617  0.15163437  7.92230924
   4.99907027 -0.02395540  3.38179099
   3.41294354  4.24414017  7.17592732
  10.82379732  4.41987002 11.71656292
   3.69604527  4.42229602 15.89135407
   6.02649209 11.17391696 11.69040012
   2.38671464  4.93202766 11.83078047
   4.71752332 11.68314630  7.63018353
   2.10402184  4.75311458  3.11543731
   9.51453263  4.92919403  7.65673277
   3.72020128  1.83214054  8.09641256
  11.13047499  2.00742303 12.63672567
   4.00286762  2.01078303 16.81129741
   6.33236687  8.76157901 12.61139499
   7.50826992  0.60305531 10.54851926
   0.09780343  0.42759913  6.00874651
   2.71166789  7.35729510 10.52305576
   0.38073066  0.60618703 14.72366404
   5.53919830  2.96538915  6.60881506
   3.20858770 -3.78624557 10.80948296
   5.82210494  3.14372828 15.32364880
  -1.58833685  2.96807678 10.78336762
   8.11001723  2.03776436  8.55125034
   0.70048359  1.86293486  4.01209873
   3.31398839  8.79297065  8.52635811
   0.98324745  2.04176318 12.72708917
   6.12214851  6.29149016 12.27742258
  -1.28800710  6.11644369  7.73661011
   5.83972694  6.11276116  3.56244765
   3.50907979 -0.63784737  7.76289121
   5.10320457  6.85374979  8.29587133
   2.77229286  0.10260855 12.49673574
   9.89966087  0.09961893  8.32404604
   2.48967667 -0.07628492  3.78162447
   6.64728344  3.66986672 13.01735867
  -0.76322733  3.49444247  8.47699434
   6.36550580  3.49036032  4.30272850
   4.03357647 -3.26004087  8.50334096
   3.13201709  2.56766644 11.22520382
   5.46275807  9.31878708  7.02439462
   2.84938195  2.38872882  2.51009417
  10.25877006  2.56560230  7.04888959
   8.41417881  5.02406683 11.50888214
   1.00364899  4.84873209  6.96832335
   8.13147163  4.84512617  2.79404148
   5.80039901 -1.90728397  6.99497609
   1.78771475  2.19633750  6.26357451
   9.19817913  2.37181844 10.80300601
   2.07033776  2.37531605 14.97852851
   4.40114104  9.12651998 10.77773136
   5.15587902  0.35248541  9.39129369
   7.48662353  7.10379325  5.19068824
   0.35891243  7.10690493  9.36506245
   7.76920312  7.28243519 13.90595018
   4.09103046  0.96334449  5.45451519
  11.50202966  1.13832031  9.99574756
   4.37372047  1.14202301 14.16965064
   6.70433260  7.89325496  9.96909955
   7.49116876  4.89602552 15.05215058
   0.08070228  4.72051416 10.51161675
   7.20722769  4.71862291  6.33731156
   4.87773581 -2.03397357 10.53799036
   3.57212890  3.50871792  4.64635338
  10.98219528  3.68355342  9.18686165
   3.85475353  3.68755568 13.36151399
   6.18569161 10.43854326  9.16073724
   2.31416091  5.14252042  9.12313441
   9.72443715  5.31793875 13.66369228
   7.11126896 -1.61060323  9.14860945
   9.44207383  5.13929119  4.94884774
 


--------------------------------------------------------------------------------------------------------


 k-point   1 :   0.0000 0.0000 0.0000  plane waves:   46419

 maximum and minimum number of plane-waves per node :      1938     1931

 maximum number of plane-waves:     46419
 maximum index in each direction: 
   IXMAX=   22   IYMAX=   22   IZMAX=   22
   IXMIN=  -22   IYMIN=  -22   IZMIN=  -22


 real space projection operators:
  total allocation   :      37685.23 KBytes
  max/ min on nodes  :       1945.52        975.03


 parallel 3D FFT for wavefunctions:
    minimum data exchange during FFTs selected (reduces bandwidth)
 parallel 3D FFT for charge:
    minimum data exchange during FFTs selected (reduces bandwidth)


 total amount of memory used by VASP MPI-rank0    61609. kBytes
=======================================================================

   base      :      30000. kBytes
   nonlr-proj:      18393. kBytes
   fftplans  :       2168. kBytes
   grid      :       8339. kBytes
   one-center:        186. kBytes
   wavefun   :       2523. kBytes
 
     INWAV:  cpu time    0.0000: real time    0.0000
 Broyden mixing: mesh for mixing (old mesh)
   NGX = 45   NGY = 45   NGZ = 45
  (NGX  =180   NGY  =180   NGZ  =180)
  gives a total of  91125 points

 initial charge density was supplied:
 number of electron     911.9999961 magnetization      16.0000009
 keeping initial charge density in first step


--------------------------------------------------------------------------------------------------------


 Maximum index for non-local projection operator          429
 Maximum index for augmentation-charges          871 (set IRDMAX)


--------------------------------------------------------------------------------------------------------


 First call to EWALD:  gamma=   0.148
 Maximum number of real-space cells 3x 3x 3
 Maximum number of reciprocal cells 3x 3x 3

    FEWALD:  cpu time    0.0032: real time    0.0040


--------------------------------------- Iteration      1(   1)  ---------------------------------------


    POTLOK:  cpu time    0.2218: real time    0.2243
    SETDIJ:  cpu time    0.8747: real time    0.8777
    TRIAL :  cpu time    2.0515: real time    2.1171
    CORREC:  cpu time    0.0009: real time    0.0009
    --------------------------------------------
      LOOP:  cpu time    3.1570: real time    3.2290

 eigenvalue-minimisations  :  2484
 total energy-change (2. order) : 0.8457398E+04  (-0.5280397E+05)
 number of electron     911.9999961 magnetization      16.0000009
 augmentation part      911.9999961 magnetization      16.0000009

 Free energy of the ion-electron system (eV)
  ---------------------------------------------------
  alpha Z        PSCENC =      2758.89042600
  Ewald energy   TEWEN  =    -43220.93141130
  -Hartree energ DENC   =    -26389.29630980
  -exchange      EXHF   =         0.00000000
  -V(xc)+E(xc)   XCENC  =      4187.97224091
  PAW double counting   =    149380.77542024  -149540.84700856
  entropy T*S    EENTRO =        -0.06755941
  eigenvalues    EBANDS =       379.33035275
  atomic energy  EATOM  =     70901.57165552
  ---------------------------------------------------
  free energy    TOTEN  =      8457.39780634 eV

  energy without entropy =     8457.46536575  energy(sigma->0) =     8457.43158604


--------------------------------------------------------------------------------------------------------




--------------------------------------- Iteration      1(   2)  ---------------------------------------


    TRIAL :  cpu time    1.4912: real time    1.4956
    CORREC:  cpu time    0.0011: real time    0.0011
    --------------------------------------------
      LOOP:  cpu time    1.5000: real time    1.5071

 eigenvalue-minimisations  :  2530
 total energy-change (2. order) :-0.9261123E+04  (-0.8700941E+04)
 number of electron     911.9999961 magnetization      16.0000009
 augmentation part      911.9999961 magnetization      16.0000009

 Free energy of the ion-electron system (eV)
  ---------------------------------------------------
  alpha Z        PSCENC =      2758.89042600
  Ewald energy   TEWEN  =    -43220.93141130
  -Hartree energ DENC   =    -26389.29630980
  -exchange      EXHF   =         0.00000000
  -V(xc)+E(xc)   XCENC  =      4187.97224091
  PAW double counting   =    149380.77542024  -149540.84700856
  entropy T*S    EENTRO =        -0.05323896
  eigenvalues    EBANDS =     -8881.80683823
  atomic energy  EATOM  =     70901.57165552
  ---------------------------------------------------
  free energy    TOTEN  =      -803.72506418 eV

  energy without entropy =     -803.67182522  energy(sigma->0) =     -803.69844470


--------------------------------------------------------------------------------------------------------




--------------------------------------- Iteration      1(   3)  ---------------------------------------


    TRIAL :  cpu time    1.8372: real time    1.8420
    CORREC:  cpu time    0.0014: real time    0.0014
    --------------------------------------------
      LOOP:  cpu time    1.8546: real time    1.8675

 eigenvalue-minimisations  :  2990
 total energy-change (2. order) :-0.9952072E+03  (-0.9455486E+03)
 number of electron     911.9999961 magnetization      16.0000009
 augmentation part      911.9999961 magnetization      16.0000009

 Free energy of the ion-electron system (eV)
  ---------------------------------------------------
  alpha Z        PSCENC =      2758.89042600
  Ewald energy   TEWEN  =    -43220.93141130
  -Hartree energ DENC   =    -26389.29630980
  -exchange      EXHF   =         0.00000000
  -V(xc)+E(xc)   XCENC  =      4187.97224091
  PAW double counting   =    149380.77542024  -149540.84700856
  entropy T*S    EENTRO =        -0.04314736
  eigenvalues    EBANDS =     -9877.02414343
  atomic energy  EATOM  =     70901.57165552
  ---------------------------------------------------
  free energy    TOTEN  =     -1798.93227778 eV

  energy without entropy =    -1798.88913042  energy(sigma->0) =    -1798.91070410


--------------------------------------------------------------------------------------------------------




--------------------------------------- Iteration      1(   4)  ---------------------------------------


    TRIAL :  cpu time    2.3401: real time    2.3461
    CORREC:  cpu time    0.0015: real time    0.0015
    --------------------------------------------
      LOOP:  cpu time    2.3562: real time    2.3628

 eigenvalue-minimisations  :  3266
 total energy-change (2. order) :-0.3288995E+02  (-0.3269871E+02)
 number of electron     911.9999961 magnetization      16.0000009
 augmentation part      911.9999961 magnetization      16.0000009

 Free energy of the ion-electron system (eV)
  ---------------------------------------------------
  alpha Z        PSCENC =      2758.89042600
  Ewald energy   TEWEN  =    -43220.93141130
  -Hartree energ DENC   =    -26389.29630980
  -exchange      EXHF   =         0.00000000
  -V(xc)+E(xc)   XCENC  =      4187.97224091
  PAW double counting   =    149380.77542024  -149540.84700856
  entropy T*S    EENTRO =        -0.04037464
  eigenvalues    EBANDS =     -9909.91686222
  atomic energy  EATOM  =     70901.57165552
  ---------------------------------------------------
  free energy    TOTEN  =     -1831.82222385 eV

  energy without entropy =    -1831.78184921  energy(sigma->0) =    -1831.80203653


--------------------------------------------------------------------------------------------------------




--------------------------------------- Iteration      1(   5)  ---------------------------------------


    TRIAL :  cpu time    2.4246: real time    2.4334
    CORREC:  cpu time    0.0014: real time    0.0014
    CHARGE:  cpu time    0.1013: real time    0.1017
    --------------------------------------------
      LOOP:  cpu time    2.5315: real time    2.5482

 eigenvalue-minimisations  :  4094
 total energy-change (2. order) :-0.1601563E+01  (-0.1600173E+01)
 number of electron     911.9999957 magnetization      16.0000003
 augmentation part      132.4568300 magnetization       9.6765151

 Free energy of the ion-electron system (eV)
  ---------------------------------------------------
  alpha Z        PSCENC =      2758.89042600
  Ewald energy   TEWEN  =    -43220.93141130
  -Hartree energ DENC   =    -26389.29630980
  -exchange      EXHF   =         0.00000000
  -V(xc)+E(xc)   XCENC  =      4187.97224091
  PAW double counting   =    149380.77542024  -149540.84700856
  entropy T*S    EENTRO =        -0.04024717
  eigenvalues    EBANDS =     -9911.51855233
  atomic energy  EATOM  =     70901.57165552
  ---------------------------------------------------
  free energy    TOTEN  =     -1833.42378649 eV

  energy without entropy =    -1833.38353932  energy(sigma->0) =    -1833.40366291


--------------------------------------------------------------------------------------------------------




--------------------------------------- Iteration      1(   6)  ---------------------------------------


    POTLOK:  cpu time    0.2368: real time    0.2396
    SETDIJ:  cpu time    0.8721: real time    0.8744
    TRIAL :  cpu time    1.6955: real time    1.7184
    CORREC:  cpu time    2.1292: real time    2.1389
    CHARGE:  cpu time    0.1032: real time    0.1034
    --------------------------------------------
      LOOP:  cpu time    5.0385: real time    5.0844

 eigenvalue-minimisations  :     0
 total energy-change (2. order) : 0.3227053E+03  (-0.8516112E+01)
 number of electron     911.9999958 magnetization      16.0000005
 augmentation part      133.4827229 magnetization       9.7182821

 Free energy of the ion-electron system (eV)
  ---------------------------------------------------
  alpha Z        PSCENC =      2758.89042600
  Ewald energy   TEWEN  =    -43220.93141130
  -Hartree energ DENC   =    -25849.67485679
  -exchange      EXHF   =         0.00000000
  -V(xc)+E(xc)   XCENC  =      4284.02748070
  PAW double counting   =    151705.81911567  -151847.50799217
  entropy T*S    EENTRO =        -0.02701135
  eigenvalues    EBANDS =    -10242.87263032
  atomic energy  EATOM  =     70901.57165552
  ---------------------------------------------------
  free energy    TOTEN  =     -1510.71845987 eV

  energy without entropy =    -1510.69144852  energy(sigma->0) =    -1510.70495419


--------------------------------------------------------------------------------------------------------




--------------------------------------- Iteration      1(   7)  ---------------------------------------


    POTLOK:  cpu time    0.2082: real time    0.2108
    SETDIJ:  cpu time    0.8669: real time    0.8693
    TRIAL :  cpu time    1.6318: real time    1.6396
    CORREC:  cpu time    1.9405: real time    1.9489
    CHARGE:  cpu time    0.0967: real time    0.0969
    --------------------------------------------
      LOOP:  cpu time    4.7488: real time    4.7780

 eigenvalue-minimisations  :     0
 total energy-change (2. order) :-0.7607937E+01  (-0.6004931E+01)
 number of electron     911.9999958 magnetization      16.0000005
 augmentation part      136.0418011 magnetization       9.8588499

 Free energy of the ion-electron system (eV)
  ---------------------------------------------------
  alpha Z        PSCENC =      2758.89042600
  Ewald energy   TEWEN  =    -43220.93141130
  -Hartree energ DENC   =    -26001.96619505
  -exchange      EXHF   =         0.00000000
  -V(xc)+E(xc)   XCENC  =      4297.39373805
  PAW double counting   =    150605.16887739  -150749.25442241
  entropy T*S    EENTRO =        -0.01228280
  eigenvalues    EBANDS =    -10109.17205416
  atomic energy  EATOM  =     70901.57165552
  ---------------------------------------------------
  free energy    TOTEN  =     -1518.32639731 eV

  energy without entropy =    -1518.31411451  energy(sigma->0) =    -1518.32025591


--------------------------------------------------------------------------------------------------------




--------------------------------------- Iteration      1(   8)  ---------------------------------------


    POTLOK:  cpu time    0.2066: real time    0.2071
    SETDIJ:  cpu time    0.8629: real time    0.8650
    TRIAL :  cpu time    1.4330: real time    1.4401
    CORREC:  cpu time    2.1704: real time    2.1791
    CHARGE:  cpu time    0.1070: real time    0.1072
    --------------------------------------------
      LOOP:  cpu time    4.7815: real time    4.8080

 eigenvalue-minimisations  :     0
 total energy-change (2. order) :-0.5954757E+01  (-0.9206386E+00)
 number of electron     911.9999958 magnetization      16.0000006
 augmentation part      136.6407179 magnetization       9.9446899

 Free energy of the ion-electron system (eV)
  ---------------------------------------------------
  alpha Z        PSCENC =      2758.89042600
  Ewald energy   TEWEN  =    -43220.93141130
  -Hartree energ DENC   =    -26398.72089331
  -exchange      EXHF   =         0.00000000
  -V(xc)+E(xc)   XCENC  =      4329.46357173
  PAW double counting   =    148322.88062984  -148473.22271126
  entropy T*S    EENTRO =        -0.00420337
  eigenvalues    EBANDS =     -9744.20013851
  atomic energy  EATOM  =     70901.57165552
  ---------------------------------------------------
  free energy    TOTEN  =     -1524.28115409 eV

  energy without entropy =    -1524.27695072  energy(sigma->0) =    -1524.27905241


--------------------------------------------------------------------------------------------------------




--------------------------------------- Iteration      1(   9)  ---------------------------------------


    POTLOK:  cpu time    0.2595: real time    0.2602
    SETDIJ:  cpu time    0.8633: real time    0.8654
    TRIAL :  cpu time    1.1237: real time    1.1301
    CORREC:  cpu time    2.1368: real time    2.1456
    CHARGE:  cpu time    0.1151: real time    0.1154
    --------------------------------------------
      LOOP:  cpu time    4.5060: real time    4.5306

 eigenvalue-minimisations  :     0
 total energy-change (2. order) :-0.8989765E+00  (-0.7413785E+00)
 number of electron     911.9999958 magnetization      16.0000007
 augmentation part      137.0631395 magnetization      10.0333213

 Free energy of the ion-electron system (eV)
  ---------------------------------------------------
  alpha Z        PSCENC =      2758.89042600
  Ewald energy   TEWEN  =    -43220.93141130
  -Hartree energ DENC   =    -26416.37575428
  -exchange      EXHF   =         0.00000000
  -V(xc)+E(xc)   XCENC  =      4331.75665229
  PAW double counting   =    148562.92550370  -148718.26027452
  entropy T*S    EENTRO =        -0.00077514
  eigenvalues    EBANDS =     -9724.75272459
  atomic energy  EATOM  =     70901.57165552
  ---------------------------------------------------
  free energy    TOTEN  =     -1525.18013056 eV

  energy without entropy =    -1525.17935542  energy(sigma->0) =    -1525.17974299


--------------------------------------------------------------------------------------------------------




--------------------------------------- Iteration      1(  10)  ---------------------------------------


    POTLOK:  cpu time    0.2139: real time    0.2144
    SETDIJ:  cpu time    0.8641: real time    0.8662
    TRIAL :  cpu time    1.3520: real time    1.3598
    CORREC:  cpu time    2.0629: real time    2.0759
    CHARGE:  cpu time    0.1035: real time    0.1037
    --------------------------------------------
      LOOP:  cpu time    4.6011: real time    4.6323

 eigenvalue-minimisations  :     0
 total energy-change (2. order) :-0.7218247E+00  (-0.3595870E+00)
 number of electron     911.9999959 magnetization      16.0000007
 augmentation part      137.0692736 magnetization      10.0511573

 Free energy of the ion-electron system (eV)
  ---------------------------------------------------
  alpha Z        PSCENC =      2758.89042600
  Ewald energy   TEWEN  =    -43220.93141130
  -Hartree energ DENC   =    -26397.49360713
  -exchange      EXHF   =         0.00000000
[...]
      2.38671      4.93203     11.83078         0.014001      0.012809      0.005735
      4.71752     11.68315      7.63018         0.014284      0.012221      0.006414
      2.10402      4.75311      3.11544         0.013398      0.012890      0.005048
      9.51453      4.92919      7.65673         0.012289      0.011212      0.005386
      3.72020      1.83214      8.09641         0.000210      0.003255     -0.000387
     11.13047      2.00742     12.63673        -0.001534      0.004492     -0.001490
      4.00287      2.01078     16.81130        -0.000146      0.003190      0.000311
      6.33237      8.76158     12.61139         0.002215      0.004448     -0.001786
      7.50827      0.60306     10.54852        -0.003413     -0.005403      0.015882
      0.09780      0.42760      6.00875        -0.003092     -0.003931      0.012322
      2.71167      7.35730     10.52306        -0.003122     -0.004387      0.011746
      0.38073      0.60619     14.72366        -0.003444     -0.004799      0.013311
      5.53920      2.96539      6.60882        -0.006187     -0.012707     -0.002434
      3.20859     -3.78625     10.80948        -0.006574     -0.010421     -0.002182
      5.82210      3.14373     15.32365        -0.005778     -0.011329     -0.003375
     -1.58834      2.96808     10.78337        -0.008110     -0.012059     -0.001741
      8.11002      2.03776      8.55125        -0.009149     -0.013984      0.008702
      0.70048      1.86293      4.01210        -0.006727     -0.012381      0.002121
      3.31399      8.79297      8.52636        -0.006979     -0.013033      0.002351
      0.98325      2.04176     12.72709        -0.007242     -0.012138      0.003946
      6.12215      6.29149     12.27742         0.001391      0.004258     -0.001341
     -1.28801      6.11644      7.73661        -0.000210      0.003880     -0.001877
      5.83973      6.11276      3.56245         0.001940      0.005428      0.000629
      3.50908     -0.63785      7.76289         0.000620      0.003504     -0.003312
      5.10320      6.85375      8.29587         0.005381      0.001158     -0.019071
      2.77229      0.10261     12.49674         0.007330      0.000373     -0.018610
      9.89966      0.09962      8.32405         0.006903     -0.000250     -0.020279
      2.48968     -0.07628      3.78162         0.006097      0.000676     -0.018585
      6.64728      3.66987     13.01736        -0.004263     -0.000655     -0.012766
     -0.76323      3.49444      8.47699        -0.005765     -0.000091     -0.012801
      6.36551      3.49036      4.30273        -0.006844      0.000602     -0.012227
      4.03358     -3.26004      8.50334        -0.006074     -0.000091     -0.013015
      3.13202      2.56767     11.22520         0.013838     -0.007150      0.012264
      5.46276      9.31879      7.02439         0.013978     -0.008246      0.012074
      2.84938      2.38873      2.51009         0.013391     -0.007185      0.012079
     10.25877      2.56560      7.04889         0.015144     -0.016180      0.016037
      8.41418      5.02407     11.50888        -0.002880      0.007752     -0.022757
      1.00365      4.84873      6.96832        -0.002474      0.007514     -0.023171
      8.13147      4.84513      2.79404        -0.001557      0.007630     -0.022784
      5.80040     -1.90728      6.99498        -0.001437      0.007530     -0.023140
      1.78771      2.19634      6.26357        -0.002876      0.004709      0.009409
      9.19818      2.37182     10.80301        -0.003837      0.003004      0.008394
      2.07034      2.37532     14.97853        -0.004195      0.002949      0.009303
      4.40114      9.12652     10.77773        -0.002580      0.004467      0.010202
      5.15588      0.35249      9.39129        -0.001061      0.002470      0.010659
      7.48662      7.10379      5.19069        -0.000193      0.003839      0.010249
      0.35891      7.10690      9.36506        -0.000502      0.001153      0.010780
      7.76920      7.28244     13.90595         0.000598      0.001854      0.007406
      4.09103      0.96334      5.45452         0.005021      0.001126     -0.006391
     11.50203      1.13832      9.99575         0.005360      0.002703     -0.005426
      4.37372      1.14202     14.16965         0.004684      0.000605     -0.007033
      6.70433      7.89325      9.96910         0.004789      0.001578     -0.006161
      7.49117      4.89603     15.05215         0.002713     -0.006541      0.003265
      0.08070      4.72051     10.51162         0.002721     -0.006880      0.003840
      7.20723      4.71862      6.33731         0.004710     -0.006631      0.003803
      4.87774     -2.03397     10.53799         0.003503     -0.006224      0.002327
      3.57213      3.50872      4.64635         0.008631      0.018465      0.014208
     10.98220      3.68355      9.18686         0.008655      0.016819      0.010701
      3.85475      3.68756     13.36151         0.009278      0.018726      0.013773
      6.18569     10.43854      9.16074         0.009079      0.018348      0.014615
      2.31416      5.14252      9.12313        -0.004801     -0.005177      0.005218
      9.72444      5.31794     13.66369        -0.004462     -0.006015      0.007675
      7.11127     -1.61060      9.14861        -0.005351     -0.003718      0.005181
      9.44207      5.13929      4.94885        -0.005977     -0.005465      0.005907
 -----------------------------------------------------------------------------------
    total drift:                               -0.734454      0.603300     -0.842501


--------------------------------------------------------------------------------------------------------



  FREE ENERGIE OF THE ION-ELECTRON SYSTEM (eV)
  ---------------------------------------------------
  free  energy   TOTEN  =     -1526.59518589 eV

  energy  without entropy=    -1526.59518589  energy(sigma->0) =    -1526.59518589
 


--------------------------------------------------------------------------------------------------------


    POTLOK:  cpu time    1.0868: real time    1.0896


--------------------------------------------------------------------------------------------------------




--------------------------------------------------------------------------------------------------------


  
 reached required accuracy - stopping structural energy minimisation
     LOOP+:  cpu time  324.1329: real time  326.8681
    4ORBIT:  cpu time    0.0000: real time    0.0000
 


 total charge     
 
# of ion       s       p       d       tot
------------------------------------------
    1        2.015   5.862   0.181   8.057
    2        2.015   5.862   0.181   8.057
    3        2.015   5.862   0.181   8.057
    4        2.015   5.862   0.181   8.057
    5        0.318   6.358   2.746   9.423
    6        0.318   6.358   2.747   9.423
    7        0.318   6.358   2.747   9.423
    8        0.318   6.358   2.747   9.424
    9        0.316   6.357   2.717   9.390
   10        0.316   6.357   2.717   9.390
   11        0.316   6.357   2.717   9.390
   12        0.316   6.357   2.717   9.390
   13        0.315   6.355   2.717   9.387
   14        0.315   6.355   2.717   9.387
   15        0.315   6.355   2.717   9.387
   16        0.315   6.355   2.717   9.387
   17        0.319   6.359   2.750   9.428
   18        0.319   6.359   2.750   9.428
   19        0.319   6.359   2.750   9.429
   20        0.319   6.359   2.750   9.428
   21        0.895   1.524   0.000   2.419
   22        0.895   1.524   0.000   2.419
   23        0.895   1.524   0.000   2.419
   24        0.895   1.524   0.000   2.419
   25        0.896   1.528   0.000   2.424
   26        0.896   1.528   0.000   2.424
   27        0.896   1.528   0.000   2.424
   28        0.896   1.528   0.000   2.424
   29        0.897   1.523   0.000   2.420
   30        0.897   1.523   0.000   2.420
   31        0.897   1.523   0.000   2.420
   32        0.897   1.523   0.000   2.420
   33        0.895   1.524   0.000   2.420
   34        0.895   1.524   0.000   2.419
   35        0.895   1.524   0.000   2.419
   36        0.895   1.524   0.000   2.419
   37        0.897   1.529   0.000   2.426
   38        0.897   1.529   0.000   2.426
   39        0.897   1.529   0.000   2.426
   40        0.897   1.529   0.000   2.426
   41        0.898   1.526   0.000   2.424
   42        0.898   1.526   0.000   2.424
   43        0.898   1.526   0.000   2.424
   44        0.898   1.526   0.000   2.424
   45        1.576   3.661   0.000   5.237
   46        1.576   3.661   0.000   5.237
   47        1.576   3.661   0.000   5.237
   48        1.576   3.661   0.000   5.237
   49        1.576   3.650   0.000   5.225
   50        1.576   3.649   0.000   5.225
   51        1.576   3.649   0.000   5.225
   52        1.576   3.649   0.000   5.225
   53        1.574   3.656   0.000   5.230
   54        1.574   3.656   0.000   5.230
   55        1.574   3.656   0.000   5.230
   56        1.574   3.656   0.000   5.230
   57        1.579   3.640   0.000   5.219
   58        1.579   3.640   0.000   5.219
   59        1.579   3.640   0.000   5.219
   60        1.579   3.640   0.000   5.219
   61        1.576   3.656   0.000   5.231
   62        1.576   3.656   0.000   5.231
   63        1.576   3.655   0.000   5.231
   64        1.576   3.655   0.000   5.231
   65        1.580   3.633   0.000   5.213
   66        1.580   3.633   0.000   5.213
   67        1.580   3.633   0.000   5.213
   68        1.580   3.633   0.000   5.213
   69        1.576   3.649   0.000   5.225
   70        1.576   3.649   0.000   5.225
   71        1.576   3.649   0.000   5.225
   72        1.576   3.649   0.000   5.225
   73        1.576   3.666   0.000   5.242
   74        1.576   3.666   0.000   5.242
   75        1.576   3.666   0.000   5.242
   76        1.576   3.666   0.000   5.242
   77        1.578   3.638   0.000   5.216
   78        1.578   3.638   0.000   5.216
   79        1.578   3.638   0.000   5.216
   80        1.578   3.638   0.000   5.216
   81        1.574   3.660   0.000   5.235
   82        1.574   3.660   0.000   5.235
   83        1.574   3.660   0.000   5.235
   84        1.574   3.660   0.000   5.234
   85        1.579   3.637   0.000   5.217
   86        1.579   3.637   0.000   5.217
   87        1.579   3.637   0.000   5.217
   88        1.579   3.637   0.000   5.217
   89        1.575   3.649   0.000   5.224
   90        1.575   3.649   0.000   5.224
   91        1.575   3.649   0.000   5.224
   92        1.575   3.649   0.000   5.224
   93        1.578   3.643   0.000   5.221
   94        1.578   3.643   0.000   5.221
   95        1.578   3.643   0.000   5.221
   96        1.578   3.643   0.000   5.221
   97        1.576   3.652   0.000   5.229
   98        1.576   3.652   0.000   5.228
   99        1.576   3.652   0.000   5.228
  100        1.576   3.652   0.000   5.228
  101        1.577   3.633   0.000   5.210
  102        1.577   3.633   0.000   5.210
  103        1.577   3.633   0.000   5.210
  104        1.577   3.633   0.000   5.210
  105        1.577   3.645   0.000   5.222
  106        1.577   3.645   0.000   5.222
  107        1.577   3.645   0.000   5.222
  108        1.577   3.645   0.000   5.222
  109        1.577   3.643   0.000   5.220
  110        1.577   3.643   0.000   5.220
  111        1.577   3.643   0.000   5.220
  112        1.577   3.643   0.000   5.220
  113        1.578   3.645   0.000   5.223
  114        1.578   3.645   0.000   5.223
  115        1.578   3.645   0.000   5.223
  116        1.578   3.645   0.000   5.223
  117        1.577   3.648   0.000   5.225
  118        1.577   3.648   0.000   5.225
  119        1.577   3.648   0.000   5.225
  120        1.577   3.648   0.000   5.225
  121        1.577   3.646   0.000   5.223
  122        1.577   3.646   0.000   5.223
  123        1.577   3.646   0.000   5.223
  124        1.577   3.646   0.000   5.223
  125        1.578   3.636   0.000   5.214
  126        1.578   3.636   0.000   5.214
  127        1.578   3.636   0.000   5.214
  128        1.578   3.636   0.000   5.214
  129        1.577   3.639   0.000   5.216
  130        1.577   3.639   0.000   5.216
  131        1.577   3.639   0.000   5.216
  132        1.577   3.639   0.000   5.216
  133        1.576   3.655   0.000   5.232
  134        1.576   3.655   0.000   5.231
  135        1.576   3.655   0.000   5.232
  136        1.576   3.655   0.000   5.232
  137        1.578   3.633   0.000   5.210
  138        1.578   3.633   0.000   5.211
  139        1.578   3.633   0.000   5.210
  140        1.578   3.633   0.000   5.210
--------------------------------------------------
tot        186.024 511.834  44.449 742.307
 


 magnetization (x)
 
# of ion       s       p       d       tot
------------------------------------------
    1        0.001  -0.000   0.000   0.001
    2        0.001  -0.000   0.000   0.001
    3        0.001  -0.000   0.000   0.001
    4        0.001  -0.000   0.000   0.001
    5        0.003   0.008   1.001   1.011
    6        0.003   0.008   1.000   1.011
    7        0.003   0.008   1.001   1.012
    8        0.003   0.008   1.001   1.012
    9        0.003   0.007   0.965   0.976
   10        0.003   0.007   0.966   0.976
   11        0.003   0.007   0.965   0.976
   12        0.003   0.007   0.965   0.976
   13        0.003   0.007   0.980   0.991
   14        0.003   0.007   0.980   0.991
   15        0.003   0.007   0.979   0.990
   16        0.003   0.007   0.980   0.991
   17        0.003   0.008   0.998   1.009
   18        0.003   0.008   0.998   1.008
   19        0.003   0.008   0.998   1.008
   20        0.003   0.008   0.998   1.009
   21        0.002   0.004   0.000   0.006
   22        0.002   0.004   0.000   0.006
   23        0.002   0.004   0.000   0.006
   24        0.002   0.004   0.000   0.006
   25        0.001   0.005   0.000   0.006
   26        0.001   0.005   0.000   0.006
   27        0.001   0.005   0.000   0.006
   28        0.001   0.005   0.000   0.006
   29        0.003   0.005   0.000   0.008
   30        0.003   0.005   0.000   0.008
   31        0.003   0.005   0.000   0.008
   32        0.003   0.005   0.000   0.008
   33        0.002   0.006   0.000   0.009
   34        0.002   0.006   0.000   0.009
   35        0.002   0.006   0.000   0.009
   36        0.002   0.006   0.000   0.009
   37        0.002   0.005   0.000   0.008
   38        0.003   0.005   0.000   0.008
   39        0.003   0.005   0.000   0.008
   40        0.002   0.005   0.000   0.008
   41        0.003   0.005   0.000   0.008
   42        0.003   0.005   0.000   0.008
   43        0.003   0.005   0.000   0.008
   44        0.003   0.005   0.000   0.008
   45       -0.000  -0.017   0.000  -0.017
   46       -0.000  -0.017   0.000  -0.017
   47       -0.000  -0.017   0.000  -0.017
   48       -0.000  -0.017   0.000  -0.017
   49       -0.000   0.000   0.000  -0.000
   50       -0.000   0.000   0.000  -0.000
   51       -0.000   0.000   0.000  -0.000
   52       -0.000   0.000   0.000  -0.000
   53       -0.000  -0.006   0.000  -0.006
   54       -0.000  -0.006   0.000  -0.006
   55       -0.000  -0.006   0.000  -0.006
   56       -0.000  -0.006   0.000  -0.006
   57        0.000  -0.003   0.000  -0.003
   58        0.000  -0.003   0.000  -0.003
   59        0.000  -0.003   0.000  -0.003
   60        0.000  -0.003   0.000  -0.003
   61        0.000  -0.009   0.000  -0.008
   62        0.000  -0.009   0.000  -0.008
   63        0.000  -0.009   0.000  -0.008
   64        0.000  -0.009   0.000  -0.008
   65       -0.001  -0.036   0.000  -0.037
   66       -0.001  -0.036   0.000  -0.037
   67       -0.001  -0.036   0.000  -0.037
   68       -0.001  -0.037   0.000  -0.038
   69       -0.000   0.004   0.000   0.003
   70       -0.000   0.004   0.000   0.003
   71       -0.000   0.004   0.000   0.003
   72       -0.000   0.004   0.000   0.003
   73       -0.000  -0.014   0.000  -0.014
   74       -0.000  -0.014   0.000  -0.014
   75       -0.000  -0.014   0.000  -0.015
   76       -0.000  -0.014   0.000  -0.014
   77        0.000  -0.002   0.000  -0.002
   78        0.000  -0.002   0.000  -0.002
   79        0.000  -0.002   0.000  -0.002
   80        0.000  -0.002   0.000  -0.002
   81       -0.000  -0.005   0.000  -0.005
   82       -0.000  -0.005   0.000  -0.005
   83       -0.000  -0.005   0.000  -0.005
   84       -0.000  -0.005   0.000  -0.005
   85       -0.001  -0.033   0.000  -0.035
   86       -0.001  -0.033   0.000  -0.035
   87       -0.001  -0.033   0.000  -0.035
   88       -0.001  -0.033   0.000  -0.035
   89        0.000  -0.010   0.000  -0.009
   90        0.000  -0.010   0.000  -0.009
   91        0.000  -0.010   0.000  -0.009
   92        0.000  -0.010   0.000  -0.009
   93       -0.001  -0.025   0.000  -0.026
   94       -0.001  -0.025   0.000  -0.026
   95       -0.001  -0.025   0.000  -0.026
   96       -0.001  -0.025   0.000  -0.026
   97        0.000  -0.004   0.000  -0.004
   98        0.000  -0.004   0.000  -0.004
   99        0.000  -0.004   0.000  -0.004
  100        0.000  -0.004   0.000  -0.004
  101       -0.000  -0.005   0.000  -0.005
  102       -0.000  -0.005   0.000  -0.005
  103       -0.000  -0.005   0.000  -0.005
  104       -0.000  -0.005   0.000  -0.005
  105        0.001  -0.006   0.000  -0.005
  106        0.001  -0.006   0.000  -0.005
  107        0.001  -0.006   0.000  -0.005
  108        0.001  -0.006   0.000  -0.005
  109       -0.000  -0.002   0.000  -0.002
  110       -0.000  -0.002   0.000  -0.002
  111       -0.000  -0.002   0.000  -0.002
  112       -0.000  -0.002   0.000  -0.002
  113       -0.001  -0.030   0.000  -0.032
  114       -0.001  -0.030   0.000  -0.031
  115       -0.001  -0.030   0.000  -0.031
  116       -0.001  -0.030   0.000  -0.031
  117        0.001  -0.008   0.000  -0.007
  118        0.001  -0.008   0.000  -0.007
  119        0.001  -0.008   0.000  -0.007
  120        0.001  -0.008   0.000  -0.007
  121       -0.000  -0.004   0.000  -0.004
  122       -0.000  -0.004   0.000  -0.004
  123       -0.000  -0.004   0.000  -0.004
  124       -0.000  -0.004   0.000  -0.004
  125       -0.001  -0.030   0.000  -0.031
  126       -0.001  -0.030   0.000  -0.031
  127       -0.001  -0.030   0.000  -0.031
  128       -0.001  -0.030   0.000  -0.031
  129       -0.001  -0.029   0.000  -0.030
  130       -0.001  -0.029   0.000  -0.030
  131       -0.001  -0.029   0.000  -0.030
  132       -0.001  -0.029   0.000  -0.030
  133       -0.000  -0.004   0.000  -0.005
  134       -0.000  -0.005   0.000  -0.005
  135       -0.000  -0.005   0.000  -0.005
  136       -0.000  -0.005   0.000  -0.005
  137        0.000  -0.006   0.000  -0.006
  138        0.000  -0.006   0.000  -0.006
  139        0.000  -0.006   0.000  -0.006
  140        0.000  -0.006   0.000  -0.006
--------------------------------------------------
tot          0.082  -0.895  15.774  14.962
 

 total amount of memory used by VASP MPI-rank0    61609. kBytes
=======================================================================

   base      :      30000. kBytes
   nonlr-proj:      18393. kBytes
   fftplans  :       2168. kBytes
   grid      :       8339. kBytes
   one-center:        186. kBytes
   wavefun   :       2523. kBytes
 
  
  
 General timing and accounting informations for this job:
 ========================================================
  
                  Total CPU time used (sec):      347.149
                            User time (sec):      341.373
                          System time (sec):        5.775
                         Elapsed time (sec):      352.182
  
                   Maximum memory used (kb):      399132.
                   Average memory used (kb):           0.
  
                          Minor page faults:       363694
                          Major page faults:            0
                 Voluntary context switches:        85805
