       N       E                     dE             d eps       ncg     rms          ort
DAV:   1     0.252749877196E+04    0.25275E+04   -0.14336E+05  6804   0.160E+03
DAV:   2    -0.183550281923E+03   -0.27110E+04   -0.25818E+04  6804   0.425E+02
DAV:   3    -0.455269539450E+03   -0.27172E+03   -0.26782E+03  6804   0.149E+02
DAV:   4    -0.465051301161E+03   -0.97818E+01   -0.96020E+01  6804   0.258E+01
DAV:   5    -0.465638342413E+03   -0.58704E+00   -0.58492E+00  6804   0.518E+00
SDA:   6    -0.291412560911E+03    0.17423E+03   -0.58492E+00  6804   0.511E+03 0.000E+00
CGA:   7    -0.350232835960E+03   -0.58820E+02   -0.65658E+02  6804   0.632E+02 0.482E+01
CGA:   8    -0.361485338689E+03   -0.11253E+02   -0.11246E+02  6804   0.152E+02 0.235E-01
CGA:   9    -0.364754052857E+03   -0.32687E+01   -0.32674E+01  6804   0.567E+01 0.416E-01
CGA:  10    -0.365952475545E+03   -0.11984E+01   -0.11979E+01  6804   0.226E+01 0.287E-02
CGA:  11    -0.366487609988E+03   -0.53513E+00   -0.53592E+00  6804   0.774E+00-0.243E-01
CGA:  12    -0.366675483090E+03   -0.18787E+00   -0.18830E+00  6804   0.286E+00-0.947E-02
CGA:  13    -0.366749133447E+03   -0.73650E-01   -0.73172E-01  6804   0.897E-01 0.821E-02
CGA:  14    -0.366775832413E+03   -0.26699E-01   -0.26316E-01  6804   0.364E-01 0.476E-02
CGA:  15    -0.366788924896E+03   -0.13092E-01   -0.13310E-01  6804   0.180E-01-0.156E-02
CGA:  16    -0.366794167439E+03   -0.52425E-02   -0.51223E-02  6804   0.671E-02 0.146E-02
CGA:  17    -0.366796615847E+03   -0.24484E-02   -0.24514E-02  6804   0.288E-02-0.278E-04
CGA:  18    -0.366797560845E+03   -0.94500E-03   -0.90591E-03  6804   0.112E-02 0.427E-03
CGA:  19    -0.366797892508E+03   -0.33166E-03   -0.32251E-03  6804   0.501E-03 0.445E-03
CGA:  20    -0.366798107148E+03   -0.21464E-03   -0.20288E-03  6804   0.283E-03 0.197E-03
CGA:  21    -0.366798163325E+03   -0.56177E-04   -0.70133E-04  6804   0.184E-03 0.249E-03
CGA:  22    -0.366798176125E+03   -0.12799E-04   -0.25602E-04  6804   0.120E-03 0.139E-03
CGA:  23    -0.366798187993E+03   -0.11869E-04   -0.18964E-04  6804   0.969E-04 0.103E-03
CGA:  24    -0.366798189589E+03   -0.15954E-05   -0.11247E-04  6804   0.898E-04 0.901E-04
   1 F= -.36679819E+03 E0= -.36679819E+03  d E =-.366798E+03  mag=    16.0000
       N       E                     dE             d eps       ncg     rms          ort
SDA:   1    -0.366799879758E+03   -0.16918E-02    0.00000E+00  6804   0.289E-03 0.000E+00
CGA:   2    -0.366799956104E+03   -0.76345E-04   -0.74332E-04  6804   0.126E-03 0.441E-04
CGA:   3    -0.366799987788E+03   -0.31684E-04   -0.31546E-04  6804   0.648E-04 0.531E-04
CGA:   4    -0.366800000492E+03   -0.12704E-04   -0.15337E-04  6804   0.432E-04 0.547E-04
CGA:   5    -0.366800001503E+03   -0.10113E-05   -0.47308E-05  6804   0.357E-04 0.363E-04
   2 F= -.36680000E+03 E0= -.36680000E+03  d E =-.181191E-02  mag=    16.0000
       N       E                     dE             d eps       ncg     rms          ort
SDA:   1    -0.366747820872E+03    0.52180E-01    0.00000E+00  6804   0.315E+00 0.000E+00
CGA:   2    -0.366829699140E+03   -0.81878E-01   -0.81646E-01  6804   0.100E+00 0.397E-02
CGA:   3    -0.366853256206E+03   -0.23557E-01   -0.23609E-01  6804   0.313E-01-0.181E-02
CGA:   4    -0.366858502718E+03   -0.52465E-02   -0.52290E-02  6804   0.709E-02-0.502E-03
CGA:   5    -0.366859815051E+03   -0.13123E-02   -0.13150E-02  6804   0.190E-02 0.177E-03
CGA:   6    -0.366860229560E+03   -0.41451E-03   -0.41264E-03  6804   0.699E-03 0.205E-03
CGA:   7    -0.366860414954E+03   -0.18539E-03   -0.18065E-03  6804   0.291E-03 0.158E-03
CGA:   8    -0.366860491141E+03   -0.76187E-04   -0.75272E-04  6804   0.146E-03 0.147E-03
CGA:   9    -0.366860511224E+03   -0.20082E-04   -0.23670E-04  6804   0.783E-04 0.834E-04
CGA:  10    -0.366860515733E+03   -0.45090E-05   -0.98240E-05  6804   0.673E-04 0.688E-04
   3 F= -.36686052E+03 E0= -.36686052E+03  d E =-.605142E-01  mag=    16.0000
       N       E                     dE             d eps       ncg     rms          ort
SDA:   1    -0.366333555259E+03    0.52696E+00    0.00000E+00  6804   0.180E+01 0.000E+00
CGA:   2    -0.366797618971E+03   -0.46406E+00   -0.46353E+00  6804   0.571E+00 0.847E-02
CGA:   3    -0.366927533084E+03   -0.12991E+00   -0.13009E+00  6804   0.177E+00-0.595E-02
CGA:   4    -0.366957273269E+03   -0.29740E-01   -0.29695E-01  6804   0.391E-01-0.161E-02
CGA:   5    -0.366964687131E+03   -0.74139E-02   -0.74169E-02  6804   0.108E-01 0.513E-03
CGA:   6    -0.366967157406E+03   -0.24703E-02   -0.24565E-02  6804   0.431E-02 0.484E-03
CGA:   7    -0.366968419851E+03   -0.12624E-02   -0.12519E-02  6804   0.214E-02 0.132E-03
CGA:   8    -0.366969147342E+03   -0.72749E-03   -0.72090E-03  6804   0.119E-02 0.528E-04
CGA:   9    -0.366969497266E+03   -0.34992E-03   -0.33939E-03  6804   0.451E-03 0.148E-03
CGA:  10    -0.366969619206E+03   -0.12194E-03   -0.11853E-03  6804   0.167E-03 0.157E-03
CGA:  11    -0.366969647579E+03   -0.28373E-04   -0.35402E-04  6804   0.862E-04 0.127E-03
CGA:  12    -0.366969651810E+03   -0.42308E-05   -0.10332E-04  6804   0.611E-04 0.674E-04
   4 F= -.36696965E+03 E0= -.36696965E+03  d E =-.109136E+00  mag=    16.0000
       N       E                     dE             d eps       ncg     rms          ort
SDA:   1    -0.366050080513E+03    0.91957E+00    0.00000E+00  6804   0.292E+01 0.000E+00
CGA:   2    -0.366787623921E+03   -0.73754E+00   -0.73709E+00  6804   0.941E+00 0.870E-02
CGA:   3    -0.366994177858E+03   -0.20655E+00   -0.20667E+00  6804   0.298E+00-0.705E-02
CGA:   4    -0.367044739714E+03   -0.50562E-01   -0.50494E-01  6804   0.636E-01-0.210E-02
CGA:   5    -0.367056752387E+03   -0.12013E-01   -0.12019E-01  6804   0.176E-01 0.535E-03
CGA:   6    -0.367060779517E+03   -0.40271E-02   -0.40131E-02  6804   0.708E-02 0.577E-03
CGA:   7    -0.367062870587E+03   -0.20911E-02   -0.20826E-02  6804   0.367E-02 0.103E-03
CGA:   8    -0.367064139828E+03   -0.12692E-02   -0.12830E-02  6804   0.221E-02-0.101E-03
CGA:   9    -0.367064792271E+03   -0.65244E-03   -0.64807E-03  6804   0.879E-03 0.492E-04
CGA:  10    -0.367065047919E+03   -0.25565E-03   -0.24884E-03  6804   0.305E-03 0.116E-03
CGA:  11    -0.367065124447E+03   -0.76528E-04   -0.76463E-04  6804   0.123E-03 0.127E-03
CGA:  12    -0.367065148673E+03   -0.24226E-04   -0.29318E-04  6804   0.669E-04 0.966E-04
CGA:  13    -0.367065159275E+03   -0.10602E-04   -0.12206E-04  6804   0.397E-04 0.446E-04
CGA:  14    -0.367065161564E+03   -0.22898E-05   -0.52523E-05  6804   0.336E-04 0.351E-04
   5 F= -.36706516E+03 E0= -.36706516E+03  d E =-.955098E-01  mag=    16.0000
       N       E                     dE             d eps       ncg     rms          ort
SDA:   1    -0.365387374202E+03    0.16778E+01    0.00000E+00  6804   0.499E+01 0.000E+00
CGA:   2    -0.366658430800E+03   -0.12711E+01   -0.12708E+01  6804   0.170E+01 0.415E-02
CGA:   3    -0.367017254892E+03   -0.35882E+00   -0.35883E+00  6804   0.529E+00-0.708E-02
CGA:   4    -0.367107207074E+03   -0.89952E-01   -0.89892E-01  6804   0.110E+00-0.175E-02
CGA:   5    -0.367128292644E+03   -0.21086E-01   -0.21091E-01  6804   0.311E-01 0.333E-03
CGA:   6    -0.367135424776E+03   -0.71321E-02   -0.71246E-02  6804   0.124E-01 0.359E-03
CGA:   7    -0.367138948220E+03   -0.35234E-02   -0.35171E-02  6804   0.615E-02 0.852E-04
CGA:   8    -0.367141005072E+03   -0.20569E-02   -0.20638E-02  6804   0.350E-02-0.593E-04
CGA:   9    -0.367142077152E+03   -0.10721E-02   -0.10668E-02  6804   0.142E-02 0.560E-04
CGA:  10    -0.367142519696E+03   -0.44254E-03   -0.43503E-03  6804   0.530E-03 0.945E-04
CGA:  11    -0.367142687250E+03   -0.16755E-03   -0.16083E-03  6804   0.216E-03 0.115E-03
CGA:  12    -0.367142757375E+03   -0.70125E-04   -0.67474E-04  6804   0.979E-04 0.972E-04
CGA:  13    -0.367142793403E+03   -0.36028E-04   -0.35076E-04  6804   0.461E-04 0.566E-04
CGA:  14    -0.367142808678E+03   -0.15275E-04   -0.14233E-04  6804   0.215E-04 0.134E-04
CGA:  15    -0.367142810897E+03   -0.22187E-05   -0.41096E-05  6804   0.161E-04 0.218E-04
   6 F= -.36714281E+03 E0= -.36714281E+03  d E =-.776493E-01  mag=    16.0000
       N       E                     dE             d eps       ncg     rms          ort
SDA:   1    -0.364392611142E+03    0.27502E+01    0.00000E+00  6804   0.770E+01 0.000E+00
CGA:   2    -0.366395400748E+03   -0.20028E+01   -0.20029E+01  6804   0.301E+01-0.419E-02
CGA:   3    -0.366988017004E+03   -0.59262E+00   -0.59245E+00  6804   0.875E+00-0.522E-02
CGA:   4    -0.367136968747E+03   -0.14895E+00   -0.14894E+00  6804   0.176E+00-0.672E-03
CGA:   5    -0.367170506894E+03   -0.33538E-01   -0.33540E-01  6804   0.495E-01 0.282E-04
CGA:   6    -0.367181563500E+03   -0.11057E-01   -0.11057E-01  6804   0.182E-01-0.961E-04
CGA:   7    -0.367186451368E+03   -0.48879E-02   -0.48854E-02  6804   0.824E-02 0.487E-04
CGA:   8    -0.367189095893E+03   -0.26445E-02   -0.26368E-02  6804   0.451E-02 0.785E-04
CGA:   9    -0.367190540923E+03   -0.14450E-02   -0.14369E-02  6804   0.191E-02 0.914E-04
CGA:  10    -0.367191163173E+03   -0.62225E-03   -0.61624E-03  6804   0.755E-03 0.726E-04
CGA:  11    -0.367191424824E+03   -0.26165E-03   -0.25670E-03  6804   0.339E-03 0.549E-04
CGA:  12    -0.367191544383E+03   -0.11956E-03   -0.11388E-03  6804   0.145E-03 0.793E-04
CGA:  13    -0.367191607179E+03   -0.62796E-04   -0.59830E-04  6804   0.637E-04 0.335E-04
CGA:  14    -0.367191638385E+03   -0.31207E-04   -0.30918E-04  6804   0.295E-04 0.181E-05
CGA:  15    -0.367191645089E+03   -0.67035E-05   -0.70042E-05  6804   0.103E-04 0.114E-04
   7 F= -.36719165E+03 E0= -.36719165E+03  d E =-.488342E-01  mag=    16.0000
       N       E                     dE             d eps       ncg     rms          ort
SDA:   1    -0.361867782118E+03    0.53239E+01    0.00000E+00  6804   0.139E+02 0.000E+00
CGA:   2    -0.365754594664E+03   -0.38868E+01   -0.38868E+01  6804   0.607E+01-0.434E-02
CGA:   3    -0.366861035796E+03   -0.11064E+01   -0.11061E+01  6804   0.154E+01-0.356E-02
CGA:   4    -0.367123294795E+03   -0.26226E+00   -0.26229E+00  6804   0.311E+00-0.166E-03
CGA:   5    -0.367182403066E+03   -0.59108E-01   -0.59105E-01  6804   0.881E-01-0.107E-03
CGA:   6    -0.367201681587E+03   -0.19279E-01   -0.19270E-01  6804   0.298E-01-0.288E-03
CGA:   7    -0.367209386852E+03   -0.77053E-02   -0.77048E-02  6804   0.125E-01 0.403E-04
CGA:   8    -0.367213245805E+03   -0.38590E-02   -0.38536E-02  6804   0.629E-02 0.887E-04
CGA:   9    -0.367215238056E+03   -0.19923E-02   -0.19898E-02  6804   0.261E-02 0.372E-04
CGA:  10    -0.367216068783E+03   -0.83073E-03   -0.82848E-03  6804   0.101E-02 0.370E-04
CGA:  11    -0.367216427647E+03   -0.35886E-03   -0.35922E-03  6804   0.503E-03-0.438E-05
CGA:  12    -0.367216616378E+03   -0.18873E-03   -0.18435E-03  6804   0.252E-03 0.416E-04
CGA:  13    -0.367216733226E+03   -0.11685E-03   -0.12065E-03  6804   0.144E-03-0.227E-04
CGA:  14    -0.367216784291E+03   -0.51065E-04   -0.54184E-04  6804   0.576E-04-0.233E-04
CGA:  15    -0.367216516685E+03    0.26761E-03   -0.14411E-03  6804   0.111E-02-0.228E-03
CGA:  16    -0.367216799239E+03   -0.28255E-03   -0.28791E-03  6804   0.958E-04 0.204E-04
CGA:  17    -0.367216850970E+03   -0.51731E-04   -0.54049E-04  6804   0.857E-04-0.484E-04
CGA:  18    -0.367216854811E+03   -0.38416E-05   -0.13955E-04  6804   0.169E-04 0.293E-04
   8 F= -.36721685E+03 E0= -.36721685E+03  d E =-.252097E-01  mag=    16.0000
       N       E                     dE             d eps       ncg     rms          ort
SDA:   1    -0.366186357339E+03    0.10305E+01    0.00000E+00  6804   0.281E+01 0.000E+00
CGA:   2    -0.366938173579E+03   -0.75182E+00   -0.75172E+00  6804   0.125E+01-0.185E-02
CGA:   3    -0.367164351820E+03   -0.22618E+00   -0.22621E+00  6804   0.319E+00 0.823E-03
CGA:   4    -0.367219421125E+03   -0.55069E-01   -0.55229E-01  6804   0.676E-01 0.536E-03
CGA:   5    -0.367232384618E+03   -0.12963E-01   -0.12952E-01  6804   0.184E-01-0.635E-04
CGA:   6    -0.367236322729E+03   -0.39381E-02   -0.39054E-02  6804   0.582E-02-0.155E-03
CGA:   7    -0.367237782458E+03   -0.14597E-02   -0.14614E-02  6804   0.232E-02 0.900E-05
CGA:   8    -0.367238456906E+03   -0.67445E-03   -0.68114E-03  6804   0.107E-02 0.575E-04
CGA:   9    -0.367238797579E+03   -0.34067E-03   -0.34295E-03  6804   0.445E-03 0.248E-04
CGA:  10    -0.367238934836E+03   -0.13726E-03   -0.13949E-03  6804   0.164E-03 0.242E-04
CGA:  11    -0.367238995999E+03   -0.61162E-04   -0.60909E-04  6804   0.830E-04-0.608E-05
CGA:  12    -0.367239030248E+03   -0.34249E-04   -0.34657E-04  6804   0.540E-04-0.100E-04
CGA:  13    -0.367239050798E+03   -0.20550E-04   -0.20873E-04  6804   0.286E-04-0.733E-05
CGA:  14    -0.367239028346E+03    0.22451E-04   -0.30035E-04  6804   0.193E-03-0.644E-04
CGA:  15    -0.367239067888E+03   -0.39542E-04   -0.43393E-04  6804   0.188E-04 0.181E-04
CGA:  16    -0.367239086432E+03   -0.18544E-04    0.75016E-04  6804   0.115E-04-0.423E-05
CGA:  17    -0.367239087991E+03   -0.15587E-05   -0.20755E-05  6804   0.530E-05 0.263E-05
   9 F= -.36723909E+03 E0= -.36723909E+03  d E =-.222332E-01  mag=    16.0000
       N       E                     dE             d eps       ncg     rms          ort
SDA:   1    -0.366785092578E+03    0.45399E+00    0.00000E+00  6804   0.131E+01 0.000E+00
CGA:   2    -0.367113735461E+03   -0.32864E+00   -0.32841E+00  6804   0.565E+00-0.203E-02
CGA:   3    -0.367218965945E+03   -0.10523E+00   -0.10529E+00  6804   0.156E+00 0.329E-03
CGA:   4    -0.367245364766E+03   -0.26399E-01   -0.26553E-01  6804   0.312E-01 0.689E-03
CGA:   5    -0.367251189219E+03   -0.58245E-02   -0.58457E-02  6804   0.826E-02 0.101E-03
CGA:   6    -0.367252997528E+03   -0.18083E-02   -0.17937E-02  6804   0.275E-02-0.949E-04
CGA:   7    -0.367253710745E+03   -0.71322E-03   -0.70962E-03  6804   0.122E-02-0.353E-04
CGA:   8    -0.367254086667E+03   -0.37592E-03   -0.37649E-03  6804   0.649E-03 0.115E-04
CGA:   9    -0.367254300848E+03   -0.21418E-03   -0.21441E-03  6804   0.299E-03 0.706E-05
CGA:  10    -0.367254396328E+03   -0.95480E-04   -0.95821E-04  6804   0.116E-03 0.846E-05
CGA:  11    -0.367254445583E+03   -0.49255E-04   -0.51966E-04  6804   0.870E-04-0.343E-04
CGA:  12    -0.367254447432E+03   -0.18492E-05   -0.51580E-04  6804   0.245E-03-0.104E-03
CGA:  13    -0.367254499216E+03   -0.51784E-04   -0.53559E-04  6804   0.335E-04 0.107E-04
CGA:  14    -0.367254515185E+03   -0.15969E-04   -0.17721E-04  6804   0.201E-04-0.133E-04
CGA:  15    -0.367254519899E+03   -0.47145E-05   -0.47478E-05  6804   0.927E-05-0.311E-05
  10 F= -.36725452E+03 E0= -.36725452E+03  d E =-.154319E-01  mag=    16.0000
       N       E                     dE             d eps       ncg     rms          ort
SDA:   1    -0.366270189215E+03    0.98433E+00    0.00000E+00  6804   0.261E+01 0.000E+00
CGA:   2    -0.366985115293E+03   -0.71493E+00   -0.71471E+00  6804   0.120E+01-0.287E-02
CGA:   3    -0.367198490082E+03   -0.21337E+00   -0.21340E+00  6804   0.294E+00 0.311E-03
CGA:   4    -0.367247731451E+03   -0.49241E-01   -0.49417E-01  6804   0.582E-01 0.864E-03
CGA:   5    -0.367258707316E+03   -0.10976E-01   -0.10989E-01  6804   0.155E-01 0.690E-04
CGA:   6    -0.367262007992E+03   -0.33007E-02   -0.32754E-02  6804   0.467E-02-0.189E-03
CGA:   7    -0.367263165140E+03   -0.11571E-02   -0.11527E-02  6804   0.185E-02-0.504E-04
CGA:   8    -0.367263722514E+03   -0.55737E-03   -0.55732E-03  6804   0.931E-03-0.252E-05
CGA:   9    -0.367264024803E+03   -0.30229E-03   -0.30225E-03  6804   0.417E-03-0.503E-05
CGA:  10    -0.367264156153E+03   -0.13135E-03   -0.13143E-03  6804   0.154E-03 0.430E-05
CGA:  11    -0.367264217895E+03   -0.61742E-04   -0.65437E-04  6804   0.107E-03-0.430E-04
CGA:  12    -0.367264249733E+03   -0.31838E-04   -0.41709E-04  6804   0.105E-03-0.499E-04
CGA:  13    -0.367263947273E+03    0.30246E-03   -0.96270E-04  6804   0.126E-02-0.295E-03
CGA:  14    -0.367264215329E+03   -0.26806E-03   -0.28171E-03  6804   0.156E-03 0.709E-04
CGA:  15    -0.367264293460E+03   -0.78130E-04   -0.83111E-04  6804   0.147E-03-0.506E-04
CGA:  16    -0.367264306144E+03   -0.12684E-04   -0.21200E-04  6804   0.858E-04 0.431E-04
CGA:  17    -0.367264319046E+03   -0.12902E-04   -0.21004E-04  6804   0.368E-04 0.382E-04
CGA:  18    -0.367264339100E+03   -0.20055E-04   -0.19899E-04  6804   0.297E-04-0.959E-05
CGA:  19    -0.367264348472E+03   -0.93717E-05   -0.10733E-04  6804   0.382E-04-0.136E-04
  11 F= -.36726435E+03 E0= -.36726435E+03  d E =-.982857E-02  mag=    16.0000
       N       E                     dE             d eps       ncg     rms          ort
SDA:   1    -0.357667662494E+03    0.95967E+01    0.00000E+00  6804   0.251E+02 0.000E+00
CGA:   2    -0.364653909831E+03   -0.69862E+01   -0.69898E+01  6804   0.111E+02 0.242E-02
CGA:   3    -0.366648767925E+03   -0.19949E+01   -0.19964E+01  6804   0.273E+01 0.129E-01
CGA:   4    -0.367108173385E+03   -0.45941E+00   -0.45975E+00  6804   0.549E+00 0.306E-02
CGA:   5    -0.367212626697E+03   -0.10445E+00   -0.10447E+00  6804   0.151E+00 0.186E-04
CGA:   6    -0.367244366496E+03   -0.31740E-01   -0.31677E-01  6804   0.455E-01-0.513E-03
CGA:   7    -0.367255717668E+03   -0.11351E-01   -0.11342E-01  6804   0.182E-01-0.120E-03
CGA:   8    -0.367261274715E+03   -0.55570E-02   -0.55554E-02  6804   0.904E-02-0.640E-04
CGA:   9    -0.367264126599E+03   -0.28519E-02   -0.28505E-02  6804   0.382E-02-0.838E-04
CGA:  10    -0.367265319322E+03   -0.11927E-02   -0.11919E-02  6804   0.137E-02-0.496E-04
CGA:  11    -0.367265783876E+03   -0.46455E-03   -0.46558E-03  6804   0.632E-03-0.903E-04
CGA:  12    -0.367266028278E+03   -0.24440E-03   -0.25155E-03  6804   0.399E-03-0.778E-04
CGA:  13    -0.367266193301E+03   -0.16502E-03   -0.20357E-03  6804   0.371E-03-0.159E-03
CGA:  14    -0.367266264942E+03   -0.71641E-04   -0.70703E-04  6804   0.145E-03-0.302E-04
CGA:  15    -0.367266312590E+03   -0.47648E-04   -0.48405E-04  6804   0.735E-04-0.499E-04
CGA:  16    -0.367266330168E+03   -0.17579E-04   -0.26733E-04  6804   0.720E-04-0.448E-04
CGA:  17    -0.367266351458E+03   -0.21289E-04   -0.21687E-04  6804   0.133E-04 0.690E-05
CGA:  18    -0.367266364150E+03   -0.12692E-04    0.11775E-04  6804   0.624E-05 0.431E-05
CGA:  19    -0.367266364423E+03   -0.27333E-06   -0.14160E-05  6804   0.465E-05 0.619E-05
  12 F= -.36726636E+03 E0= -.36726636E+03  d E =-.201595E-02  mag=    16.0000
       N       E                     dE             d eps       ncg     rms          ort
SDA:   1    -0.365803347432E+03    0.14630E+01    0.00000E+00  6804   0.389E+01 0.000E+00
CGA:   2    -0.366852622814E+03   -0.10493E+01   -0.10492E+01  6804   0.173E+01-0.303E-02
CGA:   3    -0.367169940926E+03   -0.31732E+00   -0.31749E+00  6804   0.446E+00 0.565E-03
CGA:   4    -0.367245536581E+03   -0.75596E-01   -0.75792E-01  6804   0.905E-01 0.132E-02
CGA:   5    -0.367262462536E+03   -0.16926E-01   -0.16935E-01  6804   0.252E-01 0.570E-04
CGA:   6    -0.367267910844E+03   -0.54483E-02   -0.54266E-02  6804   0.808E-02-0.230E-03
CGA:   7    -0.367269890538E+03   -0.19797E-02   -0.19816E-02  6804   0.317E-02 0.290E-04
CGA:   8    -0.367270826125E+03   -0.93559E-03   -0.93638E-03  6804   0.148E-02 0.733E-04
CGA:   9    -0.367271288203E+03   -0.46208E-03   -0.46203E-03  6804   0.597E-03 0.430E-04
CGA:  10    -0.367271467267E+03   -0.17906E-03   -0.17968E-03  6804   0.206E-03 0.497E-04
CGA:  11    -0.367271542195E+03   -0.74928E-04   -0.74907E-04  6804   0.996E-04 0.574E-06
CGA:  12    -0.367271577870E+03   -0.35675E-04   -0.35212E-04  6804   0.504E-04 0.975E-05
CGA:  13    -0.367271600662E+03   -0.22792E-04   -0.22558E-04  6804   0.290E-04 0.227E-05
CGA:  14    -0.367271613503E+03   -0.12841E-04   -0.13313E-04  6804   0.153E-04-0.379E-05
CGA:  15    -0.367271618773E+03   -0.52700E-05   -0.56200E-05  6804   0.648E-05-0.344E-05
  13 F= -.36727162E+03 E0= -.36727162E+03  d E =-.525435E-02  mag=    16.0000
       N       E                     dE             d eps       ncg     rms          ort
SDA:   1    -0.365955693645E+03    0.13159E+01    0.00000E+00  6804   0.347E+01 0.000E+00
CGA:   2    -0.366915412119E+03   -0.95972E+00   -0.95990E+00  6804   0.159E+01 0.256E-02
CGA:   3    -0.367197662762E+03   -0.28225E+00   -0.28231E+00  6804   0.391E+00 0.175E-03
CGA:   4    -0.367264065496E+03   -0.66403E-01   -0.66262E-01  6804   0.803E-01-0.109E-02
CGA:   5    -0.367279105169E+03   -0.15040E-01   -0.15025E-01  6804   0.219E-01-0.136E-03
CGA:   6    -0.367283567770E+03   -0.44626E-02   -0.44875E-02  6804   0.649E-02 0.253E-03
CGA:   7    -0.367285185692E+03   -0.16179E-02   -0.16228E-02  6804   0.257E-02 0.970E-04
CGA:   8    -0.367285971934E+03   -0.78624E-03   -0.78591E-03  6804   0.128E-02 0.457E-04
CGA:   9    -0.367286379797E+03   -0.40786E-03   -0.40737E-03  6804   0.547E-03 0.270E-04
CGA:  10    -0.367286560764E+03   -0.18097E-03   -0.18142E-03  6804   0.219E-03-0.154E-04
CGA:  11    -0.367286615095E+03   -0.54331E-04   -0.55639E-04  6804   0.770E-04 0.373E-04
CGA:  12    -0.367286639421E+03   -0.24326E-04   -0.24803E-04  6804   0.382E-04 0.236E-04
CGA:  13    -0.367286650446E+03   -0.11025E-04   -0.12125E-04  6804   0.209E-04 0.215E-04
CGA:  14    -0.367286654731E+03   -0.42849E-05   -0.48758E-05  6804   0.970E-05 0.101E-04
  14 F= -.36728665E+03 E0= -.36728665E+03  d E =-.150360E-01  mag=    16.0000
       N       E                     dE             d eps       ncg     rms          ort
SDA:   1    -0.367161305765E+03    0.12534E+00    0.00000E+00  6804   0.356E+00 0.000E+00
CGA:   2    -0.367252362472E+03   -0.91057E-01   -0.91012E-01  6804   0.167E+00-0.148E-02
CGA:   3    -0.367282037559E+03   -0.29675E-01   -0.29757E-01  6804   0.424E-01 0.746E-03
CGA:   4    -0.367289444678E+03   -0.74071E-02   -0.74517E-02  6804   0.916E-02 0.423E-03
CGA:   5    -0.367291117445E+03   -0.16728E-02   -0.16760E-02  6804   0.240E-02 0.335E-04
CGA:   6    -0.367291627035E+03   -0.50959E-03   -0.50975E-03  6804   0.757E-03 0.238E-05
CGA:   7    -0.367291799255E+03   -0.17222E-03   -0.17435E-03  6804   0.268E-03 0.565E-04
CGA:   8    -0.367291866135E+03   -0.66880E-04   -0.68651E-04  6804   0.107E-03 0.643E-04
CGA:   9    -0.367291894450E+03   -0.28315E-04   -0.30023E-04  6804   0.468E-04 0.456E-04
CGA:  10    -0.367291906357E+03   -0.11907E-04   -0.13576E-04  6804   0.219E-04 0.282E-04
CGA:  11    -0.367291912259E+03   -0.59015E-05   -0.58399E-05  6804   0.110E-04 0.790E-05
  15 F= -.36729191E+03 E0= -.36729191E+03  d E =-.525753E-02  mag=    16.0000
       N       E                     dE             d eps       ncg     rms          ort
SDA:   1    -0.366898761604E+03    0.39314E+00    0.00000E+00  6804   0.103E+01 0.000E+00
CGA:   2    -0.367192084182E+03   -0.29332E+00   -0.29340E+00  6804   0.438E+00-0.303E-02
CGA:   3    -0.367271967328E+03   -0.79883E-01   -0.79996E-01  6804   0.109E+00 0.145E-02
CGA:   4    -0.367290175153E+03   -0.18208E-01   -0.18288E-01  6804   0.217E-01 0.923E-03
CGA:   5    -0.367294301952E+03   -0.41268E-02   -0.41279E-02  6804   0.605E-02 0.153E-04
CGA:   6    -0.367295590848E+03   -0.12889E-02   -0.12853E-02  6804   0.187E-02-0.108E-03
CGA:   7    -0.367296023619E+03   -0.43277E-03   -0.43330E-03  6804   0.687E-03 0.630E-04
CGA:   8    -0.367296218042E+03   -0.19442E-03   -0.19207E-03  6804   0.300E-03 0.900E-04
CGA:   9    -0.367296313554E+03   -0.95512E-04   -0.93570E-04  6804   0.123E-03 0.642E-04
CGA:  10    -0.367296350442E+03   -0.36888E-04   -0.36900E-04  6804   0.470E-04 0.439E-04
CGA:  11    -0.367296368463E+03   -0.18021E-04   -0.17580E-04  6804   0.226E-04 0.154E-04
CGA:  12    -0.367296377176E+03   -0.87126E-05   -0.83923E-05  6804   0.123E-04 0.100E-04
  16 F= -.36729638E+03 E0= -.36729638E+03  d E =-.446492E-02  mag=    16.0000
       N       E                     dE             d eps       ncg     rms          ort
SDA:   1    -0.360070633577E+03    0.72257E+01    0.00000E+00  6804   0.185E+02 0.000E+00
CGA:   2    -0.365276447211E+03   -0.52058E+01   -0.52046E+01  6804   0.871E+01 0.185E-01
CGA:   3    -0.366780697973E+03   -0.15043E+01   -0.15059E+01  6804   0.208E+01 0.111E-01
CGA:   4    -0.367142010663E+03   -0.36131E+00   -0.36143E+00  6804   0.442E+00 0.225E-02
CGA:   5    -0.367223904546E+03   -0.81894E-01   -0.81846E-01  6804   0.119E+00-0.900E-03
CGA:   6    -0.367249132444E+03   -0.25228E-01   -0.25213E-01  6804   0.373E-01-0.575E-03
CGA:   7    -0.367258230435E+03   -0.90980E-02   -0.90956E-02  6804   0.144E-01 0.280E-03
CGA:   8    -0.367262439642E+03   -0.42092E-02   -0.41825E-02  6804   0.662E-02 0.526E-03
CGA:   9    -0.367264569513E+03   -0.21299E-02   -0.21158E-02  6804   0.271E-02 0.201E-03
CGA:  10    -0.367265439086E+03   -0.86957E-03   -0.86789E-03  6804   0.101E-02 0.234E-04
CGA:  11    -0.367265777062E+03   -0.33798E-03   -0.34601E-03  6804   0.453E-03-0.874E-04
CGA:  12    -0.367265917170E+03   -0.14011E-03   -0.13828E-03  6804   0.196E-03 0.217E-04
CGA:  13    -0.367265979195E+03   -0.62025E-04   -0.60022E-04  6804   0.829E-04 0.545E-04
CGA:  14    -0.367266007851E+03   -0.28657E-04   -0.28305E-04  6804   0.359E-04 0.350E-04
CGA:  15    -0.367266025318E+03   -0.17467E-04   -0.16737E-04  6804   0.178E-04 0.103E-04
CGA:  16    -0.367266031017E+03   -0.56994E-05   -0.57748E-05  6804   0.771E-05 0.861E-05
  17 F= -.36726603E+03 E0= -.36726603E+03  d E =0.303462E-01  mag=    16.0000
       N       E                     dE             d eps       ncg     rms          ort
SDA:   1    -0.366782811099E+03    0.48321E+00    0.00000E+00  6804   0.128E+01 0.000E+00
CGA:   2    -0.367185775727E+03   -0.40296E+00   -0.40306E+00  6804   0.450E+00-0.136E-02
CGA:   3    -0.367279993827E+03   -0.94218E-01   -0.94188E-01  6804   0.135E+00-0.666E-03
CGA:   4    -0.367303498020E+03   -0.23504E-01   -0.23496E-01  6804   0.340E-01-0.130E-03
CGA:   5    -0.367310459284E+03   -0.69613E-02   -0.69814E-02  6804   0.105E-01 0.438E-03
CGA:   6    -0.367312850886E+03   -0.23916E-02   -0.23963E-02  6804   0.428E-02 0.190E-03
CGA:   7    -0.367314066078E+03   -0.12152E-02   -0.12230E-02  6804   0.196E-02-0.241E-03
CGA:   8    -0.367314601564E+03   -0.53549E-03   -0.54265E-03  6804   0.848E-03-0.161E-03
CGA:   9    -0.367314796469E+03   -0.19491E-03   -0.19494E-03  6804   0.241E-03 0.328E-04
CGA:  10    -0.367314861595E+03   -0.65126E-04   -0.64903E-04  6804   0.781E-04 0.286E-04
CGA:  11    -0.367314881168E+03   -0.19574E-04   -0.20088E-04  6804   0.293E-04 0.232E-04
CGA:  12    -0.367314894565E+03   -0.13397E-04   -0.13439E-04  6804   0.197E-04-0.443E-06
CGA:  13    -0.367314904562E+03   -0.99967E-05    0.44782E-03  6804   0.104E-04 0.480E-05
  18 F= -.36731490E+03 E0= -.36731490E+03  d E =-.488735E-01  mag=    16.0000
       N       E                     dE             d eps       ncg     rms          ort
SDA:   1    -0.367308993457E+03    0.59011E-02    0.00000E+00  6804   0.210E-01 0.000E+00
CGA:   2    -0.367315386531E+03   -0.63931E-02   -0.64007E-02  6804   0.886E-02-0.265E-03
CGA:   3    -0.367316956421E+03   -0.15699E-02   -0.15699E-02  6804   0.258E-02-0.118E-05
CGA:   4    -0.367317393361E+03   -0.43694E-03   -0.44148E-03  6804   0.613E-03 0.444E-04
CGA:   5    -0.367317496852E+03   -0.10349E-03   -0.10873E-03  6804   0.167E-03 0.562E-04
CGA:   6    -0.367317528541E+03   -0.31689E-04   -0.34682E-04  6804   0.528E-04 0.410E-04
CGA:   7    -0.367317541393E+03   -0.12852E-04   -0.13780E-04  6804   0.242E-04 0.187E-04
CGA:   8    -0.367317547784E+03   -0.63916E-05   -0.68715E-05  6804   0.109E-04 0.101E-04
  19 F= -.36731755E+03 E0= -.36731755E+03  d E =-.264322E-02  mag=    16.0000
       N       E                     dE             d eps       ncg     rms          ort
SDA:   1    -0.367280998319E+03    0.36543E-01    0.00000E+00  6804   0.105E+00 0.000E+00
CGA:   2    -0.367308308153E+03   -0.27310E-01   -0.27318E-01  6804   0.511E-01-0.866E-03
CGA:   3    -0.367317373023E+03   -0.90649E-02   -0.90587E-02  6804   0.140E-01-0.945E-04
CGA:   4    -0.367319841100E+03   -0.24681E-02   -0.24770E-02  6804   0.317E-02 0.130E-03
CGA:   5    -0.367320387986E+03   -0.54689E-03   -0.55855E-03  6804   0.808E-03 0.170E-03
CGA:   6    -0.367320548539E+03   -0.16055E-03   -0.16609E-03  6804   0.250E-03 0.124E-03
CGA:   7    -0.367320617187E+03   -0.68648E-04   -0.68634E-04  6804   0.102E-03 0.413E-04
CGA:   8    -0.367320653381E+03   -0.36193E-04   -0.36177E-04  6804   0.568E-04 0.236E-06
CGA:   9    -0.367320661517E+03   -0.81367E-05   -0.97011E-05  6804   0.212E-04 0.222E-04
  20 F= -.36732066E+03 E0= -.36732066E+03  d E =-.311373E-02  mag=    16.0000
       N       E                     dE             d eps       ncg     rms          ort
SDA:   1    -0.367316813518E+03    0.38399E-02    0.00000E+00  6804   0.137E-01 0.000E+00
CGA:   2    -0.367319960272E+03   -0.31468E-02   -0.31463E-02  6804   0.717E-02-0.350E-03
CGA:   3    -0.367321232930E+03   -0.12727E-02   -0.12751E-02  6804   0.180E-02 0.486E-04
CGA:   4    -0.367321520302E+03   -0.28737E-03   -0.29525E-03  6804   0.353E-03 0.121E-03
CGA:   5    -0.367321580034E+03   -0.59732E-04   -0.62780E-04  6804   0.869E-04 0.520E-04
CGA:   6    -0.367321598442E+03   -0.18408E-04   -0.19013E-04  6804   0.281E-04 0.192E-04
CGA:   7    -0.367321606649E+03   -0.82075E-05   -0.81263E-05  6804   0.126E-04 0.505E-05
  21 F= -.36732161E+03 E0= -.36732161E+03  d E =-.945132E-03  mag=    16.0000
       N       E                     dE             d eps       ncg     rms          ort
SDA:   1    -0.367308569297E+03    0.13029E-01    0.00000E+00  6804   0.415E-01 0.000E+00
CGA:   2    -0.367318068828E+03   -0.94995E-02   -0.95035E-02  6804   0.213E-01-0.665E-03
CGA:   3    -0.367321874583E+03   -0.38058E-02   -0.38125E-02  6804   0.537E-02 0.156E-03
CGA:   4    -0.367322746746E+03   -0.87216E-03   -0.88738E-03  6804   0.112E-02 0.265E-03
CGA:   5    -0.367322943922E+03   -0.19718E-03   -0.20154E-03  6804   0.274E-03 0.915E-04
CGA:   6    -0.367323008475E+03   -0.64553E-04   -0.64534E-04  6804   0.917E-04 0.106E-04
CGA:   7    -0.367323032974E+03   -0.24498E-04   -0.24535E-04  6804   0.386E-04-0.907E-06
CGA:   8    -0.367323041522E+03   -0.85487E-05   -0.85101E-05  6804   0.145E-04 0.873E-05
  22 F= -.36732304E+03 E0= -.36732304E+03  d E =-.143487E-02  mag=    16.0000
       N       E                     dE             d eps       ncg     rms          ort
SDA:   1    -0.367295681273E+03    0.27352E-01    0.00000E+00  6804   0.846E-01 0.000E+00
CGA:   2    -0.367314518061E+03   -0.18837E-01   -0.18844E-01  6804   0.427E-01-0.996E-03
CGA:   3    -0.367322292363E+03   -0.77743E-02   -0.77815E-02  6804   0.110E-01 0.216E-03
CGA:   4    -0.367324111455E+03   -0.18191E-02   -0.18391E-02  6804   0.224E-02 0.414E-03
CGA:   5    -0.367324505871E+03   -0.39442E-03   -0.40022E-03  6804   0.546E-03 0.147E-03
CGA:   6    -0.367324631820E+03   -0.12595E-03   -0.12583E-03  6804   0.178E-03 0.206E-04
CGA:   7    -0.367324678505E+03   -0.46686E-04   -0.46712E-04  6804   0.721E-04-0.669E-06
CGA:   8    -0.367324695411E+03   -0.16906E-04   -0.16629E-04  6804   0.274E-04 0.146E-04
CGA:   9    -0.367324700521E+03   -0.51096E-05   -0.57199E-05  6804   0.117E-04 0.153E-04
  23 F= -.36732470E+03 E0= -.36732470E+03  d E =-.165900E-02  mag=    16.0000
       N       E                     dE             d eps       ncg     rms          ort
SDA:   1    -0.366998139975E+03    0.32656E+00    0.00000E+00  6804   0.966E+00 0.000E+00
CGA:   2    -0.367212107947E+03   -0.21397E+00   -0.21401E+00  6804   0.479E+00-0.326E-02
CGA:   3    -0.367300829819E+03   -0.88722E-01   -0.88739E-01  6804   0.125E+00 0.592E-03
CGA:   4    -0.367322068856E+03   -0.21239E-01   -0.21292E-01  6804   0.260E-01 0.139E-02
CGA:   5    -0.367326611761E+03   -0.45429E-02   -0.45606E-02  6804   0.645E-02 0.551E-03
CGA:   6    -0.367328009047E+03   -0.13973E-02   -0.13965E-02  6804   0.199E-02 0.985E-04
CGA:   7    -0.367328499051E+03   -0.49000E-03   -0.49044E-03  6804   0.733E-03-0.118E-04
CGA:   8    -0.367328695213E+03   -0.19616E-03   -0.19291E-03  6804   0.302E-03 0.557E-04
CGA:   9    -0.367328775095E+03   -0.79883E-04   -0.77473E-04  6804   0.106E-03 0.821E-04
CGA:  10    -0.367328799977E+03   -0.24881E-04   -0.25921E-04  6804   0.438E-04 0.565E-04
CGA:  11    -0.367328810587E+03   -0.10610E-04   -0.10171E-04  6804   0.205E-04 0.198E-04
CGA:  12    -0.367328816715E+03   -0.61279E-05   -0.61866E-05  6804   0.138E-04 0.187E-04
  24 F= -.36732882E+03 E0= -.36732882E+03  d E =-.411619E-02  mag=    16.0000
       N       E                     dE             d eps       ncg     rms          ort
SDA:   1    -0.365065559559E+03    0.22633E+01    0.00000E+00  6804   0.624E+01 0.000E+00
CGA:   2    -0.366587800856E+03   -0.15222E+01   -0.15223E+01  6804   0.320E+01-0.386E-02
CGA:   3    -0.367156437871E+03   -0.56864E+00   -0.56883E+00  6804   0.774E+00 0.302E-02
CGA:   4    -0.367288023859E+03   -0.13159E+00   -0.13171E+00  6804   0.161E+00 0.291E-02
CGA:   5    -0.367316716889E+03   -0.28693E-01   -0.28724E-01  6804   0.419E-01 0.919E-03
CGA:   6    -0.367325672281E+03   -0.89554E-02   -0.89555E-02  6804   0.128E-01-0.332E-04
CGA:   7    -0.367328751756E+03   -0.30795E-02   -0.30836E-02  6804   0.473E-02-0.129E-03
CGA:   8    -0.367330076949E+03   -0.13252E-02   -0.13155E-02  6804   0.209E-02 0.136E-03
CGA:   9    -0.367330697577E+03   -0.62063E-03   -0.60616E-03  6804   0.766E-03 0.210E-03
CGA:  10    -0.367330933086E+03   -0.23551E-03   -0.22817E-03  6804   0.267E-03 0.138E-03
CGA:  11    -0.367331023444E+03   -0.90358E-04   -0.87113E-04  6804   0.104E-03 0.569E-04
CGA:  12    -0.367331071432E+03   -0.47988E-04   -0.46783E-04  6804   0.650E-04 0.810E-05
CGA:  13    -0.367331093225E+03   -0.21794E-04   -0.20557E-04  6804   0.319E-04 0.195E-04
CGA:  14    -0.367331102177E+03   -0.89521E-05   -0.91671E-05  6804   0.143E-04 0.175E-04
  25 F= -.36733110E+03 E0= -.36733110E+03  d E =-.228546E-02  mag=    16.0000
       N       E                     dE             d eps       ncg     rms          ort
SDA:   1    -0.367265761711E+03    0.65332E-01    0.00000E+00  6804   0.215E+00 0.000E+00
CGA:   2    -0.367308371791E+03   -0.42610E-01   -0.42640E-01  6804   0.995E-01 0.785E-03
CGA:   3    -0.367328241248E+03   -0.19869E-01   -0.19864E-01  6804   0.299E-01-0.168E-03
CGA:   4    -0.367333559998E+03   -0.53188E-02   -0.52957E-02  6804   0.717E-02-0.425E-03
CGA:   5    -0.367334878559E+03   -0.13186E-02   -0.13116E-02  6804   0.199E-02-0.160E-03
CGA:   6    -0.367335288798E+03   -0.41024E-03   -0.41005E-03  6804   0.630E-03-0.119E-04
CGA:   7    -0.367335436437E+03   -0.14764E-03   -0.14735E-03  6804   0.220E-03 0.309E-04
CGA:   8    -0.367335496790E+03   -0.60353E-04   -0.59802E-04  6804   0.829E-04 0.170E-04
CGA:   9    -0.367335526023E+03   -0.29233E-04   -0.30341E-04  6804   0.424E-04-0.997E-05
CGA:  10    -0.367335535401E+03   -0.93786E-05   -0.19912E-04  6804   0.636E-04-0.351E-04
CGA:  11    -0.367335546072E+03   -0.10670E-04   -0.11082E-04  6804   0.821E-05 0.551E-05
CGA:  12    -0.367335548423E+03   -0.23510E-05   -0.23186E-05  6804   0.234E-05 0.217E-05
  26 F= -.36733555E+03 E0= -.36733555E+03  d E =-.444625E-02  mag=    16.0000
       N       E                     dE             d eps       ncg     rms          ort
SDA:   1    -0.367313442163E+03    0.22104E-01    0.00000E+00  6804   0.595E-01 0.000E+00
CGA:   2    -0.367330420315E+03   -0.16978E-01   -0.16989E-01  6804   0.301E-01-0.274E-03
CGA:   3    -0.367335446120E+03   -0.50258E-02   -0.50296E-02  6804   0.653E-02 0.469E-04
CGA:   4    -0.367336561614E+03   -0.11155E-02   -0.11226E-02  6804   0.146E-02 0.978E-04
CGA:   5    -0.367336828318E+03   -0.26670E-03   -0.26875E-03  6804   0.375E-03 0.344E-04
CGA:   6    -0.367336911287E+03   -0.82970E-04   -0.82870E-04  6804   0.124E-03-0.467E-05
CGA:   7    -0.367336941136E+03   -0.29849E-04   -0.29845E-04  6804   0.474E-04 0.372E-06
CGA:   8    -0.367336951427E+03   -0.10291E-04   -0.10478E-04  6804   0.171E-04 0.117E-04
CGA:   9    -0.367336954710E+03   -0.32836E-05   -0.38229E-05  6804   0.739E-05 0.959E-05
  27 F= -.36733695E+03 E0= -.36733695E+03  d E =-.140629E-02  mag=    16.0000
       N       E                     dE             d eps       ncg     rms          ort
SDA:   1    -0.366531874838E+03    0.80508E+00    0.00000E+00  6804   0.201E+01 0.000E+00
CGA:   2    -0.367141927650E+03   -0.61005E+00   -0.61030E+00  6804   0.901E+00-0.380E-02
CGA:   3    -0.367294264637E+03   -0.15234E+00   -0.15247E+00  6804   0.206E+00 0.172E-02
CGA:   4    -0.367329080653E+03   -0.34816E-01   -0.34893E-01  6804   0.431E-01 0.124E-02
CGA:   5    -0.367337064347E+03   -0.79837E-02   -0.79962E-02  6804   0.118E-01 0.278E-03
CGA:   6    -0.367339545191E+03   -0.24808E-02   -0.24798E-02  6804   0.353E-02-0.662E-04
CGA:   7    -0.367340402539E+03   -0.85735E-03   -0.85800E-03  6804   0.137E-02-0.353E-04
CGA:   8    -0.367340785530E+03   -0.38299E-03   -0.37826E-03  6804   0.605E-03 0.910E-04
CGA:   9    -0.367340961723E+03   -0.17619E-03   -0.17192E-03  6804   0.220E-03 0.114E-03
CGA:  10    -0.367341029869E+03   -0.68146E-04   -0.66611E-04  6804   0.799E-04 0.621E-04
CGA:  11    -0.367341059705E+03   -0.29836E-04   -0.28859E-04  6804   0.356E-04 0.197E-04
CGA:  12    -0.367341076336E+03   -0.16631E-04   -0.15983E-04  6804   0.219E-04 0.513E-05
CGA:  13    -0.367341081653E+03   -0.53175E-05   -0.55404E-05  6804   0.111E-04 0.114E-04
  28 F= -.36734108E+03 E0= -.36734108E+03  d E =-.412694E-02  mag=    16.0000
       N       E                     dE             d eps       ncg     rms          ort
SDA:   1    -0.361870691221E+03    0.54704E+01    0.00000E+00  6804   0.138E+02 0.000E+00
CGA:   2    -0.365501516688E+03   -0.36308E+01   -0.36303E+01  6804   0.690E+01 0.124E-01
CGA:   3    -0.366728077230E+03   -0.12266E+01   -0.12269E+01  6804   0.171E+01 0.379E-02
CGA:   4    -0.367028018396E+03   -0.29994E+00   -0.29996E+00  6804   0.401E+00 0.205E-04
CGA:   5    -0.367102972250E+03   -0.74954E-01   -0.74892E-01  6804   0.114E+00-0.140E-02
CGA:   6    -0.367127610689E+03   -0.24638E-01   -0.24628E-01  6804   0.396E-01-0.755E-03
CGA:   7    -0.367137505103E+03   -0.98944E-02   -0.98895E-02  6804   0.158E-01 0.222E-03
CGA:   8    -0.367142012003E+03   -0.45069E-02   -0.44980E-02  6804   0.673E-02 0.169E-03
CGA:   9    -0.367144105369E+03   -0.20934E-02   -0.21108E-02  6804   0.269E-02-0.233E-03
CGA:  10    -0.367144890862E+03   -0.78549E-03   -0.79144E-03  6804   0.976E-03-0.905E-04
CGA:  11    -0.367145218610E+03   -0.32775E-03   -0.35940E-03  6804   0.561E-03-0.227E-03
CGA:  12    -0.367145361376E+03   -0.14277E-03   -0.14271E-03  6804   0.245E-03-0.971E-07
CGA:  13    -0.367145447583E+03   -0.86208E-04   -0.85446E-04  6804   0.117E-03 0.758E-05
CGA:  14    -0.367145493502E+03   -0.45919E-04   -0.47525E-04  6804   0.615E-04-0.119E-04
CGA:  15    -0.367145513202E+03   -0.19700E-04   -0.19792E-04  6804   0.237E-04-0.105E-05
CGA:  16    -0.367145527335E+03   -0.14133E-04    0.24576E-04  6804   0.806E-05 0.527E-05
CGA:  17    -0.367145529685E+03   -0.23501E-05   -0.24141E-05  6804   0.279E-05 0.273E-05
  29 F= -.36714553E+03 E0= -.36714553E+03  d E =0.195552E+00  mag=    16.0000
       N       E                     dE             d eps       ncg     rms          ort
SDA:   1    -0.366457628998E+03    0.68790E+00    0.00000E+00  6804   0.204E+01 0.000E+00
CGA:   2    -0.367119204260E+03   -0.66158E+00   -0.66194E+00  6804   0.661E+00-0.499E-02
CGA:   3    -0.367267347438E+03   -0.14814E+00   -0.14814E+00  6804   0.175E+00-0.387E-03
CGA:   4    -0.367298417795E+03   -0.31070E-01   -0.31138E-01  6804   0.518E-01 0.760E-03
CGA:   5    -0.367308772183E+03   -0.10354E-01   -0.10398E-01  6804   0.161E-01 0.750E-03
CGA:   6    -0.367312538852E+03   -0.37667E-02   -0.37716E-02  6804   0.692E-02 0.202E-03
CGA:   7    -0.367314357565E+03   -0.18187E-02   -0.18191E-02  6804   0.283E-02-0.689E-04
CGA:   8    -0.367315128040E+03   -0.77048E-03   -0.76850E-03  6804   0.108E-02 0.102E-03
CGA:   9    -0.367315418840E+03   -0.29080E-03   -0.29048E-03  6804   0.347E-03 0.976E-04
CGA:  10    -0.367315528058E+03   -0.10922E-03   -0.10843E-03  6804   0.127E-03 0.252E-04
CGA:  11    -0.367315555168E+03   -0.27110E-04   -0.29055E-04  6804   0.454E-04 0.448E-04
CGA:  12    -0.367315570763E+03   -0.15595E-04   -0.15610E-04  6804   0.237E-04 0.147E-04
CGA:  13    -0.367315584146E+03   -0.13383E-04   -0.14986E-04  6804   0.258E-04-0.732E-05
CGA:  14    -0.367315582928E+03    0.12177E-05   -0.12147E-05  6804   0.202E-04 0.123E-04
  30 F= -.36731558E+03 E0= -.36731558E+03  d E =-.170053E+00  mag=    16.0000
       N       E                     dE             d eps       ncg     rms          ort
SDA:   1    -0.367256910404E+03    0.58674E-01    0.00000E+00  6804   0.183E+00 0.000E+00
CGA:   2    -0.367314135859E+03   -0.57225E-01   -0.57290E-01  6804   0.682E-01-0.974E-03
CGA:   3    -0.367327436248E+03   -0.13300E-01   -0.13296E-01  6804   0.205E-01-0.891E-04
CGA:   4    -0.367330950002E+03   -0.35138E-02   -0.35305E-02  6804   0.505E-02 0.219E-03
CGA:   5    -0.367331902676E+03   -0.95267E-03   -0.96527E-03  6804   0.156E-02 0.232E-03
CGA:   6    -0.367332244052E+03   -0.34138E-03   -0.34454E-03  6804   0.571E-03 0.106E-03
CGA:   7    -0.367332414910E+03   -0.17086E-03   -0.17082E-03  6804   0.262E-03 0.744E-06
CGA:   8    -0.367332481165E+03   -0.66255E-04   -0.65957E-04  6804   0.977E-04 0.291E-04
CGA:   9    -0.367332502232E+03   -0.21067E-04   -0.22272E-04  6804   0.317E-04 0.327E-04
CGA:  10    -0.367332509560E+03   -0.73276E-05   -0.80790E-05  6804   0.131E-04 0.154E-04
  31 F= -.36733251E+03 E0= -.36733251E+03  d E =-.169266E-01  mag=    16.0000
       N       E                     dE             d eps       ncg     rms          ort
SDA:   1    -0.367272364224E+03    0.60138E-01    0.00000E+00  6804   0.173E+00 0.000E+00
CGA:   2    -0.367322349799E+03   -0.49986E-01   -0.50051E-01  6804   0.755E-01-0.118E-02
CGA:   3    -0.367335748329E+03   -0.13399E-01   -0.13397E-01  6804   0.206E-01-0.323E-04
CGA:   4    -0.367339434159E+03   -0.36858E-02   -0.37021E-02  6804   0.506E-02 0.296E-03
CGA:   5    -0.367340345183E+03   -0.91102E-03   -0.92183E-03  6804   0.142E-02 0.210E-03
CGA:   6    -0.367340659512E+03   -0.31433E-03   -0.31554E-03  6804   0.509E-03 0.834E-04
CGA:   7    -0.367340809345E+03   -0.14983E-03   -0.15037E-03  6804   0.242E-03-0.106E-04
CGA:   8    -0.367340870376E+03   -0.61031E-04   -0.60516E-04  6804   0.917E-04 0.205E-04
CGA:   9    -0.367340889522E+03   -0.19146E-04   -0.20073E-04  6804   0.297E-04 0.313E-04
CGA:  10    -0.367340895623E+03   -0.61009E-05   -0.69758E-05  6804   0.121E-04 0.158E-04
  32 F= -.36734090E+03 E0= -.36734090E+03  d E =-.838606E-02  mag=    16.0000
       N       E                     dE             d eps       ncg     rms          ort
SDA:   1    -0.367321720087E+03    0.19169E-01    0.00000E+00  6804   0.594E-01 0.000E+00
CGA:   2    -0.367337052826E+03   -0.15333E-01   -0.15355E-01  6804   0.290E-01-0.728E-03
CGA:   3    -0.367342102528E+03   -0.50497E-02   -0.50523E-02  6804   0.725E-02 0.466E-04
CGA:   4    -0.367343352653E+03   -0.12501E-02   -0.12634E-02  6804   0.174E-02 0.254E-03
CGA:   5    -0.367343661277E+03   -0.30862E-03   -0.31434E-03  6804   0.434E-03 0.117E-03
CGA:   6    -0.367343763965E+03   -0.10269E-03   -0.10269E-03  6804   0.160E-03 0.151E-04
CGA:   7    -0.367343811832E+03   -0.47866E-04   -0.49350E-04  6804   0.879E-04-0.195E-04
CGA:   8    -0.367343830635E+03   -0.18803E-04   -0.18702E-04  6804   0.332E-04 0.593E-05
CGA:   9    -0.367343836763E+03   -0.61285E-05   -0.66083E-05  6804   0.119E-04 0.122E-04
  33 F= -.36734384E+03 E0= -.36734384E+03  d E =-.294114E-02  mag=    16.0000
       N       E                     dE             d eps       ncg     rms          ort
SDA:   1    -0.367309009347E+03    0.34821E-01    0.00000E+00  6804   0.106E+00 0.000E+00
CGA:   2    -0.367333861019E+03   -0.24852E-01   -0.24867E-01  6804   0.521E-01-0.103E-02
CGA:   3    -0.367343290370E+03   -0.94294E-02   -0.94335E-02  6804   0.133E-01 0.103E-03
CGA:   4    -0.367345546688E+03   -0.22563E-02   -0.22781E-02  6804   0.307E-02 0.455E-03
CGA:   5    -0.367346085350E+03   -0.53866E-03   -0.54723E-03  6804   0.750E-03 0.193E-03
CGA:   6    -0.367346259133E+03   -0.17378E-03   -0.17374E-03  6804   0.267E-03 0.133E-04
CGA:   7    -0.367346334711E+03   -0.75577E-04   -0.77895E-04  6804   0.137E-03-0.321E-04
CGA:   8    -0.367346363915E+03   -0.29204E-04   -0.28977E-04  6804   0.510E-04 0.102E-04
CGA:   9    -0.367346374194E+03   -0.10279E-04   -0.10710E-04  6804   0.184E-04 0.180E-04
CGA:  10    -0.367346377676E+03   -0.34819E-05   -0.40523E-05  6804   0.777E-05 0.104E-04
  34 F= -.36734638E+03 E0= -.36734638E+03  d E =-.254091E-02  mag=    16.0000
       N       E                     dE             d eps       ncg     rms          ort
SDA:   1    -0.367288351951E+03    0.58022E-01    0.00000E+00  6804   0.174E+00 0.000E+00
CGA:   2    -0.367327580549E+03   -0.39229E-01   -0.39242E-01  6804   0.848E-01-0.155E-02
CGA:   3    -0.367343201259E+03   -0.15621E-01   -0.15630E-01  6804   0.223E-01 0.270E-03
CGA:   4    -0.367346952914E+03   -0.37517E-02   -0.37867E-02  6804   0.497E-02 0.754E-03
CGA:   5    -0.367347819875E+03   -0.86696E-03   -0.87982E-03  6804   0.118E-02 0.302E-03
CGA:   6    -0.367348091471E+03   -0.27160E-03   -0.27145E-03  6804   0.404E-03 0.282E-04
CGA:   7    -0.367348202510E+03   -0.11104E-03   -0.11271E-03  6804   0.187E-03-0.279E-04
CGA:   8    -0.367348243848E+03   -0.41338E-04   -0.40846E-04  6804   0.693E-04 0.246E-04
CGA:   9    -0.367348258105E+03   -0.14257E-04   -0.14990E-04  6804   0.268E-04 0.295E-04
CGA:  10    -0.367348263153E+03   -0.50478E-05   -0.60508E-05  6804   0.124E-04 0.177E-04
  35 F= -.36734826E+03 E0= -.36734826E+03  d E =-.188548E-02  mag=    16.0000
       N       E                     dE             d eps       ncg     rms          ort
SDA:   1    -0.367260605334E+03    0.87653E-01    0.00000E+00  6804   0.258E+00 0.000E+00
CGA:   2    -0.367318178791E+03   -0.57573E-01   -0.57594E-01  6804   0.130E+00-0.207E-02
CGA:   3    -0.367342025480E+03   -0.23847E-01   -0.23864E-01  6804   0.334E-01 0.606E-03
CGA:   4    -0.367347576443E+03   -0.55510E-02   -0.56004E-02  6804   0.706E-02 0.110E-02
CGA:   5    -0.367348812795E+03   -0.12364E-02   -0.12523E-02  6804   0.170E-02 0.419E-03
CGA:   6    -0.367349194532E+03   -0.38174E-03   -0.38144E-03  6804   0.543E-03 0.809E-04
CGA:   7    -0.367349337695E+03   -0.14316E-03   -0.14295E-03  6804   0.217E-03 0.489E-05
CGA:   8    -0.367349387881E+03   -0.50186E-04   -0.49426E-04  6804   0.817E-04 0.472E-04
CGA:   9    -0.367349403571E+03   -0.15689E-04   -0.17363E-04  6804   0.356E-04 0.460E-04
CGA:  10    -0.367349409297E+03   -0.57265E-05   -0.63390E-05  6804   0.169E-04 0.196E-04
  36 F= -.36734941E+03 E0= -.36734941E+03  d E =-.114614E-02  mag=    16.0000
       N       E                     dE             d eps       ncg     rms          ort
SDA:   1    -0.367150269660E+03    0.19913E+00    0.00000E+00  6804   0.573E+00 0.000E+00
CGA:   2    -0.367279341762E+03   -0.12907E+00   -0.12913E+00  6804   0.300E+00-0.317E-02
CGA:   3    -0.367334015666E+03   -0.54674E-01   -0.54700E-01  6804   0.723E-01 0.109E-02
CGA:   4    -0.367346060067E+03   -0.12044E-01   -0.12107E-01  6804   0.150E-01 0.162E-02
CGA:   5    -0.367348735911E+03   -0.26758E-02   -0.26919E-02  6804   0.378E-02 0.574E-03
CGA:   6    -0.367349560760E+03   -0.82485E-03   -0.82387E-03  6804   0.116E-02 0.117E-03
CGA:   7    -0.367349849398E+03   -0.28864E-03   -0.28783E-03  6804   0.430E-03 0.202E-04
CGA:   8    -0.367349957298E+03   -0.10790E-03   -0.10518E-03  6804   0.166E-03 0.748E-04
CGA:   9    -0.367349995911E+03   -0.38613E-04   -0.39034E-04  6804   0.659E-04 0.764E-04
CGA:  10    -0.367350008632E+03   -0.12721E-04   -0.15119E-04  6804   0.315E-04 0.492E-04
CGA:  11    -0.367350015045E+03   -0.64124E-05   -0.64109E-05  6804   0.167E-04 0.186E-04
  37 F= -.36735002E+03 E0= -.36735002E+03  d E =-.605748E-03  mag=    16.0000
       N       E                     dE             d eps       ncg     rms          ort
SDA:   1    -0.367334098765E+03    0.15910E-01    0.00000E+00  6804   0.445E-01 0.000E+00
CGA:   2    -0.367345397135E+03   -0.11298E-01   -0.11287E-01  6804   0.223E-01 0.225E-03
CGA:   3    -0.367349383073E+03   -0.39859E-02   -0.39855E-02  6804   0.560E-02-0.153E-04
CGA:   4    -0.367350388465E+03   -0.10054E-02   -0.10015E-02  6804   0.139E-02-0.146E-03
CGA:   5    -0.367350635312E+03   -0.24685E-03   -0.24597E-03  6804   0.365E-03-0.389E-04
CGA:   6    -0.367350706124E+03   -0.70812E-04   -0.70853E-04  6804   0.110E-03 0.108E-04
CGA:   7    -0.367350731459E+03   -0.25335E-04   -0.25049E-04  6804   0.374E-04 0.151E-04
CGA:   8    -0.367350742218E+03   -0.10759E-04   -0.10421E-04  6804   0.158E-04 0.834E-05
CGA:   9    -0.367350746847E+03   -0.46285E-05   -0.44785E-05  6804   0.665E-05 0.593E-05
  38 F= -.36735075E+03 E0= -.36735075E+03  d E =-.731802E-03  mag=    16.0000
       N       E                     dE             d eps       ncg     rms          ort
SDA:   1    -0.367326096052E+03    0.24646E-01    0.00000E+00  6804   0.633E-01 0.000E+00
CGA:   2    -0.367344032894E+03   -0.17937E-01   -0.17976E-01  6804   0.338E-01-0.537E-03
CGA:   3    -0.367349540146E+03   -0.55073E-02   -0.55235E-02  6804   0.680E-02 0.328E-03
CGA:   4    -0.367350698182E+03   -0.11580E-02   -0.11657E-02  6804   0.146E-02 0.184E-03
CGA:   5    -0.367350971187E+03   -0.27301E-03   -0.27386E-03  6804   0.401E-03 0.309E-04
CGA:   6    -0.367351058228E+03   -0.87040E-04   -0.87068E-04  6804   0.130E-03-0.669E-05
CGA:   7    -0.367351088649E+03   -0.30421E-04   -0.30322E-04  6804   0.488E-04 0.338E-05
CGA:   8    -0.367351099662E+03   -0.11013E-04   -0.10901E-04  6804   0.186E-04 0.139E-04
CGA:   9    -0.367351103015E+03   -0.33525E-05   -0.39169E-05  6804   0.900E-05 0.123E-04
  39 F= -.36735110E+03 E0= -.36735110E+03  d E =-.356168E-03  mag=    16.0000
       N       E                     dE             d eps       ncg     rms          ort
SDA:   1    -0.366895836139E+03    0.45526E+00    0.00000E+00  6804   0.115E+01 0.000E+00
CGA:   2    -0.367225530990E+03   -0.32969E+00   -0.32993E+00  6804   0.598E+00-0.319E-02
CGA:   3    -0.367324155069E+03   -0.98624E-01   -0.98699E-01  6804   0.120E+00 0.160E-02
CGA:   4    -0.367344797691E+03   -0.20643E-01   -0.20687E-01  6804   0.257E-01 0.122E-02
CGA:   5    -0.367349542520E+03   -0.47448E-02   -0.47507E-02  6804   0.694E-02 0.249E-03
CGA:   6    -0.367351001038E+03   -0.14585E-02   -0.14587E-02  6804   0.205E-02-0.715E-04
CGA:   7    -0.367351491426E+03   -0.49039E-03   -0.49143E-03  6804   0.785E-03-0.284E-04
CGA:   8    -0.367351702778E+03   -0.21135E-03   -0.20724E-03  6804   0.332E-03 0.673E-04
CGA:   9    -0.367351796744E+03   -0.93966E-04   -0.90391E-04  6804   0.121E-03 0.872E-04
CGA:  10    -0.367351832541E+03   -0.35797E-04   -0.34961E-04  6804   0.480E-04 0.502E-04
CGA:  11    -0.367351851907E+03   -0.19366E-04   -0.18428E-04  6804   0.230E-04 0.160E-04
CGA:  12    -0.367351863893E+03   -0.11986E-04   -0.11786E-04  6804   0.160E-04 0.115E-05
CGA:  13    -0.367351866083E+03   -0.21904E-05   -0.27377E-05  6804   0.885E-05 0.892E-05
  40 F= -.36735187E+03 E0= -.36735187E+03  d E =-.763068E-03  mag=    16.0000
       N       E                     dE             d eps       ncg     rms          ort
SDA:   1    -0.363457424103E+03    0.38944E+01    0.00000E+00  6804   0.993E+01 0.000E+00
CGA:   2    -0.365992449718E+03   -0.25350E+01   -0.25347E+01  6804   0.501E+01 0.406E-02
CGA:   3    -0.366887630304E+03   -0.89518E+00   -0.89528E+00  6804   0.122E+01-0.188E-03
CGA:   4    -0.367107083769E+03   -0.21945E+00   -0.21950E+00  6804   0.297E+00 0.145E-02
CGA:   5    -0.367162076788E+03   -0.54993E-01   -0.55007E-01  6804   0.831E-01 0.376E-03
CGA:   6    -0.367179971192E+03   -0.17894E-01   -0.17895E-01  6804   0.289E-01-0.522E-03
CGA:   7    -0.367187279040E+03   -0.73078E-02   -0.73257E-02  6804   0.116E-01-0.445E-03
CGA:   8    -0.367190439951E+03   -0.31609E-02   -0.31697E-02  6804   0.473E-02-0.146E-03
CGA:   9    -0.367191796224E+03   -0.13563E-02   -0.13583E-02  6804   0.162E-02-0.305E-04
CGA:  10    -0.367192243610E+03   -0.44739E-03   -0.44283E-03  6804   0.505E-03 0.862E-04
CGA:  11    -0.367192412060E+03   -0.16845E-03   -0.17080E-03  6804   0.207E-03-0.248E-04
CGA:  12    -0.367192487567E+03   -0.75508E-04   -0.91684E-04  6804   0.162E-03-0.691E-04
CGA:  13    -0.367192511337E+03   -0.23770E-04   -0.24271E-04  6804   0.743E-04 0.287E-04
CGA:  14    -0.367192531443E+03   -0.20105E-04   -0.20191E-04  6804   0.299E-04 0.790E-05
CGA:  15    -0.367192409430E+03    0.12201E-03   -0.65962E-04  6804   0.504E-03-0.131E-03
CGA:  16    -0.367192506089E+03   -0.96659E-04   -0.11598E-03  6804   0.753E-04 0.922E-04
CGA:  17    -0.367191028115E+03    0.14780E-02   -0.80235E-03  6804   0.628E-02-0.732E-03
CGA:  18    -0.367191984850E+03   -0.95673E-03   -0.12652E-02  6804   0.131E-02 0.521E-03
CGA:  19    -0.367192518144E+03   -0.53329E-03   -0.46003E-03  6804   0.159E-03-0.171E-03
CGA:  20    -0.367192545069E+03   -0.26925E-04   -0.36033E-04  6804   0.309E-04 0.193E-04
CGA:  21    -0.367192551834E+03   -0.67650E-05   -0.93110E-05  6804   0.431E-05 0.578E-05
  41 F= -.36719255E+03 E0= -.36719255E+03  d E =0.159314E+00  mag=    16.0000
       N       E                     dE             d eps       ncg     rms          ort
SDA:   1    -0.366935524186E+03    0.25702E+00    0.00000E+00  6804   0.899E+00 0.000E+00
CGA:   2    -0.367226671449E+03   -0.29115E+00   -0.29067E+00  6804   0.283E+00 0.175E-02
CGA:   3    -0.367291601780E+03   -0.64930E-01   -0.64840E-01  6804   0.709E-01-0.657E-03
CGA:   4    -0.367304920855E+03   -0.13319E-01   -0.13308E-01  6804   0.218E-01-0.437E-05
CGA:   5    -0.367309198593E+03   -0.42777E-02   -0.43160E-02  6804   0.684E-02 0.109E-03
CGA:   6    -0.367310756608E+03   -0.15580E-02   -0.15774E-02  6804   0.296E-02 0.533E-04
CGA:   7    -0.367311495098E+03   -0.73849E-03   -0.74326E-03  6804   0.114E-02 0.144E-04
CGA:   8    -0.367311809913E+03   -0.31481E-03   -0.32132E-03  6804   0.457E-03 0.226E-04
CGA:   9    -0.367311935829E+03   -0.12592E-03   -0.12797E-03  6804   0.156E-03 0.735E-05
CGA:  10    -0.367311984558E+03   -0.48729E-04   -0.47933E-04  6804   0.565E-04-0.341E-05
CGA:  11    -0.367311993362E+03   -0.88042E-05   -0.12710E-04  6804   0.178E-04 0.131E-04
  42 F= -.36731199E+03 E0= -.36731199E+03  d E =-.119442E+00  mag=    16.0000
       N       E                     dE             d eps       ncg     rms          ort
SDA:   1    -0.367296725583E+03    0.15259E-01    0.00000E+00  6804   0.795E-01 0.000E+00
CGA:   2    -0.367322016760E+03   -0.25291E-01   -0.25313E-01  6804   0.272E-01 0.148E-03
CGA:   3    -0.367327674164E+03   -0.56574E-02   -0.56283E-02  6804   0.787E-02-0.105E-03
CGA:   4    -0.367329087153E+03   -0.14130E-02   -0.14041E-02  6804   0.200E-02-0.307E-04
CGA:   5    -0.367329491140E+03   -0.40399E-03   -0.41492E-03  6804   0.591E-03 0.438E-04
CGA:   6    -0.367329619851E+03   -0.12871E-03   -0.13580E-03  6804   0.241E-03 0.317E-04
CGA:   7    -0.367329680392E+03   -0.60541E-04   -0.63327E-04  6804   0.973E-04 0.149E-04
CGA:   8    -0.367329703880E+03   -0.23488E-04   -0.26085E-04  6804   0.376E-04 0.148E-04
CGA:   9    -0.367329712614E+03   -0.87339E-05   -0.10414E-04  6804   0.128E-04 0.939E-05
  43 F= -.36732971E+03 E0= -.36732971E+03  d E =-.177193E-01  mag=    16.0000
       N       E                     dE             d eps       ncg     rms          ort
SDA:   1    -0.367051131839E+03    0.27857E+00    0.00000E+00  6804   0.729E+00 0.000E+00
CGA:   2    -0.367271660992E+03   -0.22053E+00   -0.22054E+00  6804   0.295E+00 0.264E-03
CGA:   3    -0.367325620889E+03   -0.53960E-01   -0.53939E-01  6804   0.811E-01-0.252E-04
CGA:   4    -0.367340470350E+03   -0.14849E-01   -0.14817E-01  6804   0.203E-01-0.170E-03
CGA:   5    -0.367344324491E+03   -0.38541E-02   -0.38721E-02  6804   0.627E-02 0.103E-03
CGA:   6    -0.367345635365E+03   -0.13109E-02   -0.13352E-02  6804   0.225E-02 0.156E-03
CGA:   7    -0.367346204502E+03   -0.56914E-03   -0.58057E-03  6804   0.885E-03 0.105E-03
CGA:   8    -0.367346444289E+03   -0.23979E-03   -0.24609E-03  6804   0.356E-03 0.700E-04
CGA:   9    -0.367346541603E+03   -0.97314E-04   -0.10145E-03  6804   0.119E-03 0.473E-04
CGA:  10    -0.367346580384E+03   -0.38781E-04   -0.39287E-04  6804   0.476E-04 0.890E-05
CGA:  11    -0.367346588851E+03   -0.84664E-05   -0.10667E-04  6804   0.162E-04 0.162E-04
  44 F= -.36734659E+03 E0= -.36734659E+03  d E =-.168762E-01  mag=    16.0000
       N       E                     dE             d eps       ncg     rms          ort
SDA:   1    -0.367342169990E+03    0.44104E-02    0.00000E+00  6804   0.166E-01 0.000E+00
CGA:   2    -0.367347260071E+03   -0.50901E-02   -0.50874E-02  6804   0.713E-02-0.124E-03
CGA:   3    -0.367348565775E+03   -0.13057E-02   -0.13226E-02  6804   0.196E-02 0.121E-03
CGA:   4    -0.367348922837E+03   -0.35706E-03   -0.35902E-03  6804   0.489E-03 0.138E-04
CGA:   5    -0.367349036314E+03   -0.11348E-03   -0.11104E-03  6804   0.178E-03-0.278E-04
CGA:   6    -0.367349075842E+03   -0.39528E-04   -0.38626E-04  6804   0.709E-04-0.116E-04
CGA:   7    -0.367349092353E+03   -0.16511E-04   -0.16487E-04  6804   0.254E-04-0.422E-06
CGA:   8    -0.367349099526E+03   -0.71728E-05   -0.71428E-05  6804   0.111E-04-0.153E-05
  45 F= -.36734910E+03 E0= -.36734910E+03  d E =-.251068E-02  mag=    16.0000
       N       E                     dE             d eps       ncg     rms          ort
SDA:   1    -0.367325608227E+03    0.23484E-01    0.00000E+00  6804   0.700E-01 0.000E+00
CGA:   2    -0.367342850670E+03   -0.17242E-01   -0.17234E-01  6804   0.381E-01-0.168E-03
CGA:   3    -0.367349800717E+03   -0.69500E-02   -0.69734E-02  6804   0.892E-02 0.206E-03
CGA:   4    -0.367351374661E+03   -0.15739E-02   -0.15781E-02  6804   0.211E-02 0.370E-04
CGA:   5    -0.367351773322E+03   -0.39866E-03   -0.39710E-03  6804   0.603E-03-0.163E-04
CGA:   6    -0.367351896208E+03   -0.12289E-03   -0.12312E-03  6804   0.200E-03 0.314E-05
CGA:   7    -0.367351943331E+03   -0.47123E-04   -0.47718E-04  6804   0.728E-04 0.150E-04
CGA:   8    -0.367351962277E+03   -0.18946E-04   -0.19264E-04  6804   0.272E-04 0.113E-04
CGA:   9    -0.367351970307E+03   -0.80300E-05   -0.81154E-05  6804   0.103E-04 0.592E-05
  46 F= -.36735197E+03 E0= -.36735197E+03  d E =-.287078E-02  mag=    16.0000
       N       E                     dE             d eps       ncg     rms          ort
SDA:   1    -0.367339151339E+03    0.12811E-01    0.00000E+00  6804   0.389E-01 0.000E+00
CGA:   2    -0.367348518922E+03   -0.93676E-02   -0.93633E-02  6804   0.210E-01-0.150E-03
CGA:   3    -0.367352276251E+03   -0.37573E-02   -0.37737E-02  6804   0.476E-02 0.186E-03
CGA:   4    -0.367353112460E+03   -0.83621E-03   -0.84098E-03  6804   0.113E-02 0.539E-04
CGA:   5    -0.367353317262E+03   -0.20480E-03   -0.20545E-03  6804   0.303E-03 0.804E-05
CGA:   6    -0.367353376272E+03   -0.59010E-04   -0.60019E-04  6804   0.920E-04 0.171E-04
CGA:   7    -0.367353395969E+03   -0.19697E-04   -0.20474E-04  6804   0.313E-04 0.185E-04
CGA:   8    -0.367353402643E+03   -0.66733E-05   -0.74005E-05  6804   0.131E-04 0.135E-04
  47 F= -.36735340E+03 E0= -.36735340E+03  d E =-.143234E-02  mag=    16.0000
       N       E                     dE             d eps       ncg     rms          ort
SDA:   1    -0.367328533055E+03    0.24863E-01    0.00000E+00  6804   0.735E-01 0.000E+00
CGA:   2    -0.367345257495E+03   -0.16724E-01   -0.16719E-01  6804   0.390E-01-0.372E-03
CGA:   3    -0.367352408701E+03   -0.71512E-02   -0.71708E-02  6804   0.917E-02 0.334E-03
CGA:   4    -0.367353992378E+03   -0.15837E-02   -0.15954E-02  6804   0.210E-02 0.174E-03
CGA:   5    -0.367354381346E+03   -0.38897E-03   -0.39134E-03  6804   0.555E-03 0.437E-04
CGA:   6    -0.367354494248E+03   -0.11290E-03   -0.11391E-03  6804   0.171E-03 0.306E-04
CGA:   7    -0.367354532822E+03   -0.38574E-04   -0.39071E-04  6804   0.595E-04 0.304E-04
CGA:   8    -0.367354545823E+03   -0.13001E-04   -0.13844E-04  6804   0.239E-04 0.249E-04
CGA:   9    -0.367354550378E+03   -0.45558E-05   -0.56268E-05  6804   0.117E-04 0.167E-04
  48 F= -.36735455E+03 E0= -.36735455E+03  d E =-.114774E-02  mag=    16.0000
       N       E                     dE             d eps       ncg     rms          ort
SDA:   1    -0.367332802729E+03    0.21743E-01    0.00000E+00  6804   0.668E-01 0.000E+00
CGA:   2    -0.367346711651E+03   -0.13909E-01   -0.13897E-01  6804   0.340E-01-0.674E-03
CGA:   3    -0.367353183472E+03   -0.64718E-02   -0.64837E-02  6804   0.852E-02 0.362E-03
CGA:   4    -0.367354600966E+03   -0.14175E-02   -0.14371E-02  6804   0.182E-02 0.346E-03
CGA:   5    -0.367354928497E+03   -0.32753E-03   -0.33254E-03  6804   0.473E-03 0.110E-03
CGA:   6    -0.367355028702E+03   -0.10021E-03   -0.10087E-03  6804   0.146E-03 0.389E-04
CGA:   7    -0.367355062689E+03   -0.33986E-04   -0.34032E-04  6804   0.516E-04 0.274E-04
CGA:   8    -0.367355072718E+03   -0.10030E-04   -0.11000E-04  6804   0.216E-04 0.256E-04
CGA:   9    -0.367355075553E+03   -0.28348E-05   -0.43437E-05  6804   0.116E-04 0.186E-04
  49 F= -.36735508E+03 E0= -.36735508E+03  d E =-.525174E-03  mag=    16.0000
       N       E                     dE             d eps       ncg     rms          ort
SDA:   1    -0.367312640139E+03    0.42433E-01    0.00000E+00  6804   0.130E+00 0.000E+00
CGA:   2    -0.367339602405E+03   -0.26962E-01   -0.26961E-01  6804   0.655E-01-0.140E-02
CGA:   3    -0.367352022207E+03   -0.12420E-01   -0.12429E-01  6804   0.163E-01 0.538E-03
CGA:   4    -0.367354702738E+03   -0.26805E-02   -0.27110E-02  6804   0.332E-02 0.715E-03
CGA:   5    -0.367355291871E+03   -0.58913E-03   -0.59724E-03  6804   0.834E-03 0.246E-03
CGA:   6    -0.367355473760E+03   -0.18189E-03   -0.18193E-03  6804   0.253E-03 0.712E-04
CGA:   7    -0.367355535702E+03   -0.61942E-04   -0.61256E-04  6804   0.907E-04 0.358E-04
CGA:   8    -0.367355554640E+03   -0.18938E-04   -0.19560E-04  6804   0.371E-04 0.396E-04
CGA:   9    -0.367355559987E+03   -0.53467E-05   -0.73582E-05  6804   0.198E-04 0.305E-04
  50 F= -.36735556E+03 E0= -.36735556E+03  d E =-.484434E-03  mag=    16.0000
       N       E                     dE             d eps       ncg     rms          ort
SDA:   1    -0.367164836796E+03    0.19072E+00    0.00000E+00  6804   0.564E+00 0.000E+00
CGA:   2    -0.367286689563E+03   -0.12185E+00   -0.12191E+00  6804   0.290E+00-0.327E-02
CGA:   3    -0.367340981920E+03   -0.54292E-01   -0.54304E-01  6804   0.694E-01 0.117E-02
CGA:   4    -0.367352578713E+03   -0.11597E-01   -0.11649E-01  6804   0.143E-01 0.169E-02
CGA:   5    -0.367355124652E+03   -0.25459E-02   -0.25585E-02  6804   0.362E-02 0.584E-03
CGA:   6    -0.367355909420E+03   -0.78477E-03   -0.78319E-03  6804   0.110E-02 0.129E-03
CGA:   7    -0.367356179170E+03   -0.26975E-03   -0.26809E-03  6804   0.404E-03 0.409E-04
CGA:   8    -0.367356278699E+03   -0.99529E-04   -0.96586E-04  6804   0.156E-03 0.912E-04
CGA:   9    -0.367356314293E+03   -0.35594E-04   -0.36357E-04  6804   0.673E-04 0.821E-04
CGA:  10    -0.367356328212E+03   -0.13919E-04   -0.13755E-04  6804   0.312E-04 0.325E-04
CGA:  11    -0.367356335705E+03   -0.74930E-05   -0.81826E-05  6804   0.215E-04 0.303E-04
  51 F= -.36735634E+03 E0= -.36735634E+03  d E =-.775718E-03  mag=    16.0000
       N       E                     dE             d eps       ncg     rms          ort
SDA:   1    -0.367328474639E+03    0.27854E-01    0.00000E+00  6804   0.770E-01 0.000E+00
CGA:   2    -0.367348207115E+03   -0.19732E-01   -0.19809E-01  6804   0.416E-01-0.142E-02
CGA:   3    -0.367355265214E+03   -0.70581E-02   -0.70756E-02  6804   0.890E-02 0.540E-03
CGA:   4    -0.367356721144E+03   -0.14559E-02   -0.14798E-02  6804   0.184E-02 0.604E-03
CGA:   5    -0.367357058566E+03   -0.33742E-03   -0.34256E-03  6804   0.469E-03 0.188E-03
CGA:   6    -0.367357175676E+03   -0.11711E-03   -0.11684E-03  6804   0.171E-03 0.106E-04
CGA:   7    -0.367357219500E+03   -0.43824E-04   -0.43557E-04  6804   0.718E-04 0.558E-05
CGA:   8    -0.367357233034E+03   -0.13534E-04   -0.13970E-04  6804   0.289E-04 0.276E-04
CGA:   9    -0.367357236949E+03   -0.39150E-05   -0.54187E-05  6804   0.149E-04 0.221E-04
  52 F= -.36735724E+03 E0= -.36735724E+03  d E =-.901244E-03  mag=    16.0000
       N       E                     dE             d eps       ncg     rms          ort
SDA:   1    -0.367247047261E+03    0.11019E+00    0.00000E+00  6804   0.294E+00 0.000E+00
CGA:   2    -0.367324405183E+03   -0.77358E-01   -0.77539E-01  6804   0.154E+00-0.274E-02
CGA:   3    -0.367350845562E+03   -0.26440E-01   -0.26470E-01  6804   0.328E-01 0.106E-02
CGA:   4    -0.367356373882E+03   -0.55283E-02   -0.55633E-02  6804   0.698E-02 0.115E-02
CGA:   5    -0.367357651471E+03   -0.12776E-02   -0.12844E-02  6804   0.182E-02 0.341E-03
CGA:   6    -0.367358066761E+03   -0.41529E-03   -0.41528E-03  6804   0.610E-03 0.263E-06
CGA:   7    -0.367358218670E+03   -0.15191E-03   -0.15230E-03  6804   0.249E-03-0.756E-05
CGA:   8    -0.367358276381E+03   -0.57711E-04   -0.56198E-04  6804   0.942E-04 0.535E-04
CGA:   9    -0.367358296824E+03   -0.20444E-04   -0.21239E-04  6804   0.399E-04 0.494E-04
CGA:  10    -0.367358303984E+03   -0.71600E-05   -0.74515E-05  6804   0.184E-04 0.205E-04
  53 F= -.36735830E+03 E0= -.36735830E+03  d E =-.106704E-02  mag=    16.0000
       N       E                     dE             d eps       ncg     rms          ort
SDA:   1    -0.366237471906E+03    0.11208E+01    0.00000E+00  6804   0.291E+01 0.000E+00
CGA:   2    -0.367029816639E+03   -0.79234E+00   -0.79278E+00  6804   0.150E+01-0.672E-02
CGA:   3    -0.367287176652E+03   -0.25736E+00   -0.25747E+00  6804   0.315E+00 0.310E-02
CGA:   4    -0.367341359051E+03   -0.54182E-01   -0.54271E-01  6804   0.676E-01 0.296E-02
CGA:   5    -0.367353716029E+03   -0.12357E-01   -0.12374E-01  6804   0.180E-01 0.853E-03
CGA:   6    -0.367357544194E+03   -0.38282E-02   -0.38283E-02  6804   0.550E-02-0.169E-04
CGA:   7    -0.367358887567E+03   -0.13434E-02   -0.13457E-02  6804   0.216E-02-0.536E-04
CGA:   8    -0.367359481101E+03   -0.59353E-03   -0.58284E-03  6804   0.939E-03 0.152E-03
CGA:   9    -0.367359756376E+03   -0.27527E-03   -0.26433E-03  6804   0.341E-03 0.191E-03
CGA:  10    -0.367359858835E+03   -0.10246E-03   -0.98816E-04  6804   0.128E-03 0.115E-03
CGA:  11    -0.367359908604E+03   -0.49770E-04   -0.47340E-04  6804   0.604E-04 0.367E-04
CGA:  12    -0.367359942163E+03   -0.33558E-04   -0.38744E-04  6804   0.661E-04-0.183E-04
CGA:  13    -0.367359946887E+03   -0.47246E-05   -0.64880E-05  6804   0.440E-04 0.202E-04
  54 F= -.36735995E+03 E0= -.36735995E+03  d E =-.164290E-02  mag=    16.0000
       N       E                     dE             d eps       ncg     rms          ort
SDA:   1    -0.365348563564E+03    0.20114E+01    0.00000E+00  6804   0.476E+01 0.000E+00
CGA:   2    -0.366590887190E+03   -0.12423E+01   -0.12419E+01  6804   0.246E+01 0.849E-02
CGA:   3    -0.367049691213E+03   -0.45880E+00   -0.45876E+00  6804   0.628E+00-0.209E-02
CGA:   4    -0.367160321257E+03   -0.11063E+00   -0.11058E+00  6804   0.148E+00-0.106E-02
CGA:   5    -0.367188903502E+03   -0.28582E-01   -0.28580E-01  6804   0.455E-01-0.116E-03
CGA:   6    -0.367198814314E+03   -0.99108E-02   -0.99121E-02  6804   0.164E-01-0.486E-03
CGA:   7    -0.367203093742E+03   -0.42794E-02   -0.43115E-02  6804   0.695E-02-0.632E-03
CGA:   8    -0.367204907180E+03   -0.18134E-02   -0.18241E-02  6804   0.279E-02-0.195E-03
CGA:   9    -0.367205697064E+03   -0.78988E-03   -0.79303E-03  6804   0.972E-03-0.453E-04
CGA:  10    -0.367206013977E+03   -0.31691E-03   -0.34320E-03  6804   0.497E-03-0.196E-03
CGA:  11    -0.367206130500E+03   -0.11652E-03   -0.11802E-03  6804   0.184E-03-0.229E-04
CGA:  12    -0.367206167883E+03   -0.37383E-04   -0.11709E-03  6804   0.399E-03-0.184E-03
CGA:  13    -0.367206249175E+03   -0.81292E-04   -0.83289E-04  6804   0.361E-04 0.422E-04
CGA:  14    -0.367206253920E+03   -0.47454E-05   -0.32031E-04  6804   0.114E-03-0.497E-04
CGA:  15    -0.367206265879E+03   -0.11959E-04   -0.17493E-04  6804   0.209E-04 0.433E-04
CGA:  16    -0.367206272243E+03   -0.63642E-05   -0.64072E-05  6804   0.421E-05 0.809E-06
  55 F= -.36720627E+03 E0= -.36720627E+03  d E =0.153675E+00  mag=    16.0000
       N       E                     dE             d eps       ncg     rms          ort
SDA:   1    -0.366827578247E+03    0.37869E+00    0.00000E+00  6804   0.122E+01 0.000E+00
CGA:   2    -0.367219569010E+03   -0.39199E+00   -0.39219E+00  6804   0.408E+00-0.369E-02
CGA:   3    -0.367313972315E+03   -0.94403E-01   -0.94406E-01  6804   0.963E-01-0.100E-03
CGA:   4    -0.367332203725E+03   -0.18231E-01   -0.18212E-01  6804   0.304E-01-0.279E-03
CGA:   5    -0.367338205200E+03   -0.60015E-02   -0.60052E-02  6804   0.925E-02 0.569E-04
CGA:   6    -0.367340352116E+03   -0.21469E-02   -0.21560E-02  6804   0.384E-02 0.283E-03
CGA:   7    -0.367341322008E+03   -0.96989E-03   -0.97185E-03  6804   0.149E-02 0.112E-03
CGA:   8    -0.367341776294E+03   -0.45429E-03   -0.45513E-03  6804   0.642E-03-0.255E-04
CGA:   9    -0.367341935797E+03   -0.15950E-03   -0.16009E-03  6804   0.196E-03 0.562E-04
CGA:  10    -0.367341990120E+03   -0.54323E-04   -0.54564E-04  6804   0.643E-04 0.311E-04
CGA:  11    -0.367342009270E+03   -0.19150E-04   -0.19229E-04  6804   0.252E-04 0.159E-04
CGA:  12    -0.367342012028E+03   -0.27584E-05   -0.47884E-05  6804   0.133E-04 0.184E-04
  56 F= -.36734201E+03 E0= -.36734201E+03  d E =-.135740E+00  mag=    16.0000
       N       E                     dE             d eps       ncg     rms          ort
SDA:   1    -0.367247499839E+03    0.94509E-01    0.00000E+00  6804   0.261E+00 0.000E+00
CGA:   2    -0.367331074993E+03   -0.83575E-01   -0.83634E-01  6804   0.909E-01-0.871E-03
CGA:   3    -0.367351444658E+03   -0.20370E-01   -0.20367E-01  6804   0.235E-01-0.108E-03
CGA:   4    -0.367355752550E+03   -0.43079E-02   -0.42997E-02  6804   0.705E-02-0.119E-03
CGA:   5    -0.367357179653E+03   -0.14271E-02   -0.14267E-02  6804   0.219E-02-0.815E-05
CGA:   6    -0.367357659495E+03   -0.47984E-03   -0.48325E-03  6804   0.874E-03 0.120E-03
CGA:   7    -0.367357881638E+03   -0.22214E-03   -0.22258E-03  6804   0.328E-03 0.732E-04
CGA:   8    -0.367357993580E+03   -0.11194E-03   -0.11339E-03  6804   0.173E-03-0.203E-04
CGA:   9    -0.367358032048E+03   -0.38469E-04   -0.38707E-04  6804   0.533E-04 0.188E-04
CGA:  10    -0.367358042911E+03   -0.10863E-04   -0.11776E-04  6804   0.189E-04 0.180E-04
CGA:  11    -0.367358048424E+03   -0.55129E-05   -0.56620E-05  6804   0.858E-05 0.633E-05
  57 F= -.36735805E+03 E0= -.36735805E+03  d E =-.160364E-01  mag=    16.0000
       N       E                     dE             d eps       ncg     rms          ort
SDA:   1    -0.367345959033E+03    0.12084E-01    0.00000E+00  6804   0.323E-01 0.000E+00
CGA:   2    -0.367354167682E+03   -0.82086E-02   -0.82108E-02  6804   0.173E-01-0.212E-03
CGA:   3    -0.367357479884E+03   -0.33122E-02   -0.33083E-02  6804   0.465E-02-0.772E-04
CGA:   4    -0.367358267493E+03   -0.78761E-03   -0.79083E-03  6804   0.107E-02 0.457E-04
CGA:   5    -0.367358470537E+03   -0.20304E-03   -0.20478E-03  6804   0.311E-03 0.351E-04
CGA:   6    -0.367358536548E+03   -0.66011E-04   -0.66738E-04  6804   0.107E-03 0.262E-04
CGA:   7    -0.367358563130E+03   -0.26581E-04   -0.26656E-04  6804   0.406E-04 0.195E-04
CGA:   8    -0.367358576895E+03   -0.13765E-04   -0.13665E-04  6804   0.201E-04 0.196E-05
CGA:   9    -0.367358583135E+03   -0.62403E-05   -0.62272E-05  6804   0.865E-05 0.210E-06
  58 F= -.36735858E+03 E0= -.36735858E+03  d E =-.534711E-03  mag=    16.0000
       N       E                     dE             d eps       ncg     rms          ort
SDA:   1    -0.367352637426E+03    0.59395E-02    0.00000E+00  6804   0.198E-01 0.000E+00
CGA:   2    -0.367358104937E+03   -0.54675E-02   -0.54680E-02  6804   0.926E-02-0.134E-04
CGA:   3    -0.367359777853E+03   -0.16729E-02   -0.16776E-02  6804   0.240E-02 0.867E-04
CGA:   4    -0.367360194916E+03   -0.41706E-03   -0.42346E-03  6804   0.540E-03 0.112E-03
CGA:   5    -0.367360301565E+03   -0.10665E-03   -0.10802E-03  6804   0.155E-03 0.355E-04
CGA:   6    -0.367360342319E+03   -0.40754E-04   -0.41056E-04  6804   0.746E-04-0.140E-04
CGA:   7    -0.367360361840E+03   -0.19521E-04   -0.21449E-04  6804   0.475E-04-0.220E-04
CGA:   8    -0.367360368996E+03   -0.71563E-05   -0.71490E-05  6804   0.165E-04-0.390E-06
  59 F= -.36736037E+03 E0= -.36736037E+03  d E =-.178586E-02  mag=    16.0000
       N       E                     dE             d eps       ncg     rms          ort
SDA:   1    -0.367343897602E+03    0.16464E-01    0.00000E+00  6804   0.455E-01 0.000E+00
CGA:   2    -0.367355714454E+03   -0.11817E-01   -0.11818E-01  6804   0.226E-01-0.378E-04
CGA:   3    -0.367359766916E+03   -0.40525E-02   -0.40595E-02  6804   0.549E-02 0.137E-03
CGA:   4    -0.367360721851E+03   -0.95493E-03   -0.96401E-03  6804   0.125E-02 0.171E-03
CGA:   5    -0.367360964301E+03   -0.24245E-03   -0.24412E-03  6804   0.339E-03 0.456E-04
CGA:   6    -0.367361048995E+03   -0.84695E-04   -0.85181E-04  6804   0.145E-03-0.260E-04
CGA:   7    -0.367361084589E+03   -0.35594E-04   -0.36406E-04  6804   0.664E-04-0.171E-04
CGA:   8    -0.367361097962E+03   -0.13372E-04   -0.13364E-04  6804   0.218E-04 0.604E-05
CGA:   9    -0.367361103238E+03   -0.52761E-05   -0.52994E-05  6804   0.720E-05 0.534E-05
  60 F= -.36736110E+03 E0= -.36736110E+03  d E =-.734242E-03  mag=    16.0000
       N       E                     dE             d eps       ncg     rms          ort
SDA:   1    -0.367359287499E+03    0.18105E-02    0.00000E+00  6804   0.558E-02 0.000E+00
CGA:   2    -0.367360674648E+03   -0.13871E-02   -0.13888E-02  6804   0.302E-02-0.696E-04
CGA:   3    -0.367361208225E+03   -0.53358E-03   -0.53514E-03  6804   0.703E-03 0.331E-04
CGA:   4    -0.367361320096E+03   -0.11187E-03   -0.11478E-03  6804   0.153E-03 0.463E-04
CGA:   5    -0.367361348032E+03   -0.27936E-04   -0.28502E-04  6804   0.410E-04 0.122E-04
CGA:   6    -0.367361358545E+03   -0.10512E-04   -0.10564E-04  6804   0.169E-04-0.261E-05
CGA:   7    -0.367361361622E+03   -0.30774E-05   -0.31421E-05  6804   0.563E-05 0.301E-05
  61 F= -.36736136E+03 E0= -.36736136E+03  d E =-.258384E-03  mag=    16.0000
       N       E                     dE             d eps       ncg     rms          ort
SDA:   1    -0.367321838293E+03    0.39520E-01    0.00000E+00  6804   0.107E+00 0.000E+00
CGA:   2    -0.367348332697E+03   -0.26494E-01   -0.26510E-01  6804   0.573E-01-0.471E-03
CGA:   3    -0.367358588607E+03   -0.10256E-01   -0.10264E-01  6804   0.128E-01 0.235E-03
CGA:   4    -0.367360738548E+03   -0.21499E-02   -0.21635E-02  6804   0.286E-02 0.295E-03
CGA:   5    -0.367361259580E+03   -0.52103E-03   -0.52400E-03  6804   0.738E-03 0.897E-04
CGA:   6    -0.367361423566E+03   -0.16399E-03   -0.16399E-03  6804   0.245E-03-0.142E-05
CGA:   7    -0.367361480539E+03   -0.56973E-04   -0.56706E-04  6804   0.867E-04 0.125E-04
CGA:   8    -0.367361499627E+03   -0.19088E-04   -0.19137E-04  6804   0.310E-04 0.258E-04
CGA:   9    -0.367361506345E+03   -0.67182E-05   -0.72616E-05  6804   0.134E-04 0.175E-04
  62 F= -.36736151E+03 E0= -.36736151E+03  d E =-.144723E-03  mag=    16.0000
       N       E                     dE             d eps       ncg     rms          ort
SDA:   1    -0.367347818550E+03    0.13681E-01    0.00000E+00  6804   0.361E-01 0.000E+00
CGA:   2    -0.367357183052E+03   -0.93645E-02   -0.93966E-02  6804   0.203E-01-0.621E-03
CGA:   3    -0.367360585638E+03   -0.34026E-02   -0.34134E-02  6804   0.405E-02 0.268E-03
CGA:   4    -0.367361232190E+03   -0.64655E-03   -0.65973E-03  6804   0.845E-03 0.271E-03
CGA:   5    -0.367361386028E+03   -0.15384E-03   -0.15678E-03  6804   0.220E-03 0.888E-04
CGA:   6    -0.367361437645E+03   -0.51617E-04   -0.51510E-04  6804   0.711E-04 0.156E-04
CGA:   7    -0.367361454829E+03   -0.17184E-04   -0.17003E-04  6804   0.262E-04 0.102E-04
CGA:   8    -0.367361459500E+03   -0.46711E-05   -0.51402E-05  6804   0.114E-04 0.135E-04
  63 F= -.36736146E+03 E0= -.36736146E+03  d E =0.468450E-04  mag=    16.0000
       N       E                     dE             d eps       ncg     rms          ort
SDA:   1    -0.367300498690E+03    0.60956E-01    0.00000E+00  6804   0.158E+00 0.000E+00
CGA:   2    -0.367343396194E+03   -0.42898E-01   -0.43000E-01  6804   0.862E-01-0.150E-02
CGA:   3    -0.367357750232E+03   -0.14354E-01   -0.14383E-01  6804   0.170E-01 0.771E-03
CGA:   4    -0.367360591056E+03   -0.28408E-02   -0.28646E-02  6804   0.355E-02 0.649E-03
CGA:   5    -0.367361251943E+03   -0.66089E-03   -0.66511E-03  6804   0.937E-03 0.198E-03
CGA:   6    -0.367361460900E+03   -0.20896E-03   -0.20868E-03  6804   0.286E-03 0.269E-04
CGA:   7    -0.367361532249E+03   -0.71349E-04   -0.71079E-04  6804   0.111E-03 0.655E-05
CGA:   8    -0.367361557382E+03   -0.25133E-04   -0.24697E-04  6804   0.421E-04 0.311E-04
CGA:   9    -0.367361564817E+03   -0.74350E-05   -0.86402E-05  6804   0.196E-04 0.276E-04
  64 F= -.36736156E+03 E0= -.36736156E+03  d E =-.105317E-03  mag=    16.0000
       N       E                     dE             d eps       ncg     rms          ort
SDA:   1    -0.367228633685E+03    0.13292E+00    0.00000E+00  6804   0.338E+00 0.000E+00
CGA:   2    -0.367325886883E+03   -0.97253E-01   -0.97503E-01  6804   0.172E+00-0.286E-02
CGA:   3    -0.367354203032E+03   -0.28316E-01   -0.28368E-01  6804   0.348E-01 0.136E-02
CGA:   4    -0.367360105533E+03   -0.59025E-02   -0.59348E-02  6804   0.721E-02 0.985E-03
CGA:   5    -0.367361466319E+03   -0.13608E-02   -0.13644E-02  6804   0.197E-02 0.218E-03
CGA:   6    -0.367361897626E+03   -0.43131E-03   -0.43136E-03  6804   0.607E-03-0.433E-05
CGA:   7    -0.367362044479E+03   -0.14685E-03   -0.14673E-03  6804   0.239E-03 0.277E-05
CGA:   8    -0.367362104485E+03   -0.60006E-04   -0.58138E-04  6804   0.947E-04 0.466E-04
CGA:   9    -0.367362127269E+03   -0.22784E-04   -0.22880E-04  6804   0.391E-04 0.457E-04
CGA:  10    -0.367362135359E+03   -0.80895E-05   -0.93630E-05  6804   0.191E-04 0.298E-04
  65 F= -.36736214E+03 E0= -.36736214E+03  d E =-.570542E-03  mag=    16.0000
       N       E                     dE             d eps       ncg     rms          ort
SDA:   1    -0.363784252509E+03    0.35779E+01    0.00000E+00  6804   0.895E+01 0.000E+00
CGA:   2    -0.366443931229E+03   -0.26597E+01   -0.26602E+01  6804   0.421E+01-0.776E-02
CGA:   3    -0.367154697324E+03   -0.71077E+00   -0.71110E+00  6804   0.898E+00 0.637E-02
CGA:   4    -0.367308962071E+03   -0.15426E+00   -0.15441E+00  6804   0.190E+00 0.388E-02
CGA:   5    -0.367344602507E+03   -0.35640E-01   -0.35657E-01  6804   0.528E-01 0.740E-03
CGA:   6    -0.367355639402E+03   -0.11037E-01   -0.11037E-01  6804   0.156E-01-0.263E-03
CGA:   7    -0.367359462156E+03   -0.38228E-02   -0.38319E-02  6804   0.630E-02-0.232E-03
CGA:   8    -0.367361288662E+03   -0.18265E-02   -0.18177E-02  6804   0.299E-02 0.102E-03
CGA:   9    -0.367362193195E+03   -0.90453E-03   -0.88738E-03  6804   0.114E-02 0.215E-03
CGA:  10    -0.367362561125E+03   -0.36793E-03   -0.36048E-03  6804   0.397E-03 0.944E-04
CGA:  11    -0.367362716380E+03   -0.15525E-03   -0.17267E-03  6804   0.272E-03-0.962E-04
CGA:  12    -0.367362791248E+03   -0.74868E-04   -0.86112E-04  6804   0.176E-03-0.600E-04
CGA:  13    -0.367362834921E+03   -0.43673E-04   -0.42740E-04  6804   0.783E-04 0.127E-04
CGA:  14    -0.367362860583E+03   -0.25662E-04   -0.25191E-04  6804   0.329E-04 0.817E-05
CGA:  15    -0.367362874509E+03   -0.13927E-04   -0.15197E-04  6804   0.185E-04-0.737E-05
[...]
CGA:   6    -0.367363555188E+03   -0.13920E-02   -0.13755E-02  6804   0.235E-02-0.343E-03
CGA:   7    -0.367364094731E+03   -0.53954E-03   -0.53998E-03  6804   0.879E-03 0.188E-04
CGA:   8    -0.367364322689E+03   -0.22796E-03   -0.22853E-03  6804   0.338E-03 0.929E-04
CGA:   9    -0.367364450411E+03   -0.12772E-03   -0.13131E-03  6804   0.185E-03-0.412E-04
CGA:  10    -0.367364501285E+03   -0.50874E-04   -0.52393E-04  6804   0.808E-04-0.277E-04
CGA:  11    -0.367364392457E+03    0.10883E-03   -0.78117E-04  6804   0.836E-03-0.216E-03
CGA:  12    -0.367364533028E+03   -0.14057E-03   -0.15145E-03  6804   0.767E-04 0.815E-04
CGA:  13    -0.367364552289E+03   -0.19261E-04   -0.20431E-04  6804   0.190E-04 0.181E-04
CGA:  14    -0.367364553878E+03   -0.15891E-05   -0.37001E-05  6804   0.107E-04 0.144E-04
 151 F= -.36736455E+03 E0= -.36736455E+03  d E =0.453622E-02  mag=    16.0000
       N       E                     dE             d eps       ncg     rms          ort
SDA:   1    -0.367145957869E+03    0.21859E+00    0.00000E+00  6804   0.571E+00 0.000E+00
CGA:   2    -0.367310563438E+03   -0.16461E+00   -0.16461E+00  6804   0.245E+00 0.206E-03
CGA:   3    -0.367355101247E+03   -0.44538E-01   -0.44481E-01  6804   0.644E-01-0.483E-03
CGA:   4    -0.367366326051E+03   -0.11225E-01   -0.11191E-01  6804   0.137E-01-0.310E-03
CGA:   5    -0.367368828559E+03   -0.25025E-02   -0.25278E-02  6804   0.391E-02 0.260E-03
CGA:   6    -0.367369605917E+03   -0.77736E-03   -0.79768E-03  6804   0.122E-02 0.265E-03
CGA:   7    -0.367369942086E+03   -0.33617E-03   -0.33663E-03  6804   0.536E-03 0.338E-04
CGA:   8    -0.367370113267E+03   -0.17118E-03   -0.17243E-03  6804   0.289E-03-0.306E-04
CGA:   9    -0.367370176950E+03   -0.63683E-04   -0.65303E-04  6804   0.937E-04 0.471E-04
CGA:  10    -0.367370199353E+03   -0.22403E-04   -0.23879E-04  6804   0.345E-04 0.276E-04
CGA:  11    -0.367370209042E+03   -0.96891E-05   -0.10207E-04  6804   0.149E-04 0.125E-04
 152 F= -.36737021E+03 E0= -.36737021E+03  d E =-.565516E-02  mag=    16.0000
       N       E                     dE             d eps       ncg     rms          ort
SDA:   1    -0.367348424518E+03    0.21775E-01    0.00000E+00  6804   0.548E-01 0.000E+00
CGA:   2    -0.367365147716E+03   -0.16723E-01   -0.16702E-01  6804   0.223E-01 0.521E-03
CGA:   3    -0.367369295689E+03   -0.41480E-02   -0.41334E-02  6804   0.530E-02-0.177E-03
CGA:   4    -0.367370176315E+03   -0.88063E-03   -0.86832E-03  6804   0.115E-02-0.128E-03
CGA:   5    -0.367370388383E+03   -0.21207E-03   -0.21269E-03  6804   0.304E-03 0.896E-05
CGA:   6    -0.367370438800E+03   -0.50417E-04   -0.53878E-04  6804   0.785E-04 0.440E-04
CGA:   7    -0.367370455662E+03   -0.16862E-04   -0.18011E-04  6804   0.316E-04 0.230E-04
CGA:   8    -0.367370464233E+03   -0.85704E-05   -0.89539E-05  6804   0.171E-04 0.134E-04
 153 F= -.36737046E+03 E0= -.36737046E+03  d E =-.255190E-03  mag=    16.0000
       N       E                     dE             d eps       ncg     rms          ort
SDA:   1    -0.361006826511E+03    0.63636E+01    0.00000E+00  6804   0.161E+02 0.000E+00
CGA:   2    -0.365698311665E+03   -0.46915E+01   -0.46905E+01  6804   0.745E+01 0.145E-01
CGA:   3    -0.366993646706E+03   -0.12953E+01   -0.12955E+01  6804   0.168E+01-0.495E-03
CGA:   4    -0.367272415930E+03   -0.27877E+00   -0.27863E+00  6804   0.347E+00-0.279E-02
CGA:   5    -0.367337962947E+03   -0.65547E-01   -0.65514E-01  6804   0.981E-01-0.724E-03
CGA:   6    -0.367357613150E+03   -0.19650E-01   -0.19664E-01  6804   0.282E-01 0.381E-03
CGA:   7    -0.367364532588E+03   -0.69194E-02   -0.69169E-02  6804   0.115E-01 0.236E-03
CGA:   8    -0.367368024690E+03   -0.34921E-02   -0.34845E-02  6804   0.585E-02 0.112E-03
CGA:   9    -0.367369965525E+03   -0.19408E-02   -0.19420E-02  6804   0.271E-02-0.143E-04
CGA:  10    -0.367370817468E+03   -0.85194E-03   -0.85900E-03  6804   0.106E-02-0.944E-04
CGA:  11    -0.367371139780E+03   -0.32231E-03   -0.32307E-03  6804   0.443E-03-0.113E-04
CGA:  12    -0.367371308407E+03   -0.16863E-03   -0.17221E-03  6804   0.260E-03-0.252E-04
CGA:  13    -0.367371397439E+03   -0.89033E-04   -0.85771E-04  6804   0.114E-03 0.347E-04
CGA:  14    -0.367371442518E+03   -0.45079E-04   -0.44170E-04  6804   0.435E-04 0.110E-04
CGA:  15    -0.367371461696E+03   -0.19178E-04   -0.20788E-04  6804   0.218E-04-0.950E-05
CGA:  16    -0.367371468329E+03   -0.66336E-05   -0.72659E-05  6804   0.938E-05-0.413E-05
CGA:  17    -0.367371473005E+03   -0.46752E-05    0.11590E-04  6804   0.330E-05 0.150E-05
 154 F= -.36737147E+03 E0= -.36737147E+03  d E =-.100877E-02  mag=    16.0000
       N       E                     dE             d eps       ncg     rms          ort
SDA:   1    -0.349816987049E+03    0.17554E+02    0.00000E+00  6804   0.403E+02 0.000E+00
CGA:   2    -0.361244499506E+03   -0.11428E+02   -0.11427E+02  6804   0.166E+02-0.157E-01
CGA:   3    -0.364462872821E+03   -0.32184E+01   -0.32213E+01  6804   0.486E+01 0.958E-02
CGA:   4    -0.365339721726E+03   -0.87685E+00   -0.87726E+00  6804   0.127E+01 0.119E-02
CGA:   5    -0.365590126362E+03   -0.25040E+00   -0.25011E+00  6804   0.409E+00 0.295E-03
CGA:   6    -0.365680672185E+03   -0.90546E-01   -0.90595E-01  6804   0.158E+00 0.152E-02
CGA:   7    -0.365720795112E+03   -0.40123E-01   -0.40142E-01  6804   0.623E-01 0.156E-02
CGA:   8    -0.365737838887E+03   -0.17044E-01   -0.17039E-01  6804   0.256E-01 0.788E-03
CGA:   9    -0.365745380696E+03   -0.75418E-02   -0.75331E-02  6804   0.922E-02 0.348E-03
CGA:  10    -0.365748227577E+03   -0.28469E-02   -0.28485E-02  6804   0.358E-02-0.483E-04
CGA:  11    -0.365749306838E+03   -0.10793E-02   -0.10792E-02  6804   0.141E-02-0.252E-05
CGA:  12    -0.365749768654E+03   -0.46182E-03   -0.45549E-03  6804   0.620E-03 0.119E-03
CGA:  13    -0.365750009654E+03   -0.24100E-03   -0.23531E-03  6804   0.325E-03 0.736E-04
CGA:  14    -0.365750087037E+03   -0.77383E-04   -0.83875E-04  6804   0.138E-03 0.142E-03
CGA:  15    -0.365750133520E+03   -0.46483E-04   -0.48449E-04  6804   0.631E-04 0.645E-04
CGA:  16    -0.365750160951E+03   -0.27431E-04   -0.26969E-04  6804   0.357E-04 0.248E-04
CGA:  17    -0.365750164563E+03   -0.36113E-05   -0.73900E-05  6804   0.201E-04 0.302E-04
 155 F= -.36575016E+03 E0= -.36575016E+03  d E =0.162131E+01  mag=    16.0000
       N       E                     dE             d eps       ncg     rms          ort
SDA:   1    -0.362270714506E+03    0.34794E+01    0.00000E+00  6804   0.113E+02 0.000E+00
CGA:   2    -0.365927620252E+03   -0.36569E+01   -0.36599E+01  6804   0.361E+01-0.393E-01
CGA:   3    -0.366774233534E+03   -0.84661E+00   -0.84681E+00  6804   0.822E+00 0.136E-02
CGA:   4    -0.366933679793E+03   -0.15945E+00   -0.15973E+00  6804   0.271E+00 0.209E-02
CGA:   5    -0.366985534402E+03   -0.51855E-01   -0.51919E-01  6804   0.820E-01 0.874E-03
CGA:   6    -0.367005600836E+03   -0.20066E-01   -0.20059E-01  6804   0.365E-01-0.549E-03
CGA:   7    -0.367014646757E+03   -0.90459E-02   -0.90408E-02  6804   0.147E-01-0.698E-03
CGA:   8    -0.367018724192E+03   -0.40774E-02   -0.40823E-02  6804   0.586E-02-0.180E-03
CGA:   9    -0.367020296897E+03   -0.15727E-02   -0.15716E-02  6804   0.193E-02 0.757E-04
CGA:  10    -0.367020865209E+03   -0.56831E-03   -0.56817E-03  6804   0.656E-03 0.398E-05
CGA:  11    -0.367021068845E+03   -0.20364E-03   -0.20370E-03  6804   0.248E-03-0.143E-05
CGA:  12    -0.367021147287E+03   -0.78442E-04   -0.77200E-04  6804   0.105E-03 0.249E-04
CGA:  13    -0.367020755258E+03    0.39203E-03   -0.21324E-03  6804   0.203E-02-0.402E-03
CGA:  14    -0.367021113654E+03   -0.35840E-03   -0.41850E-03  6804   0.216E-03 0.216E-03
CGA:  15    -0.367021220675E+03   -0.10702E-03   -0.15618E-03  6804   0.571E-03-0.266E-03
CGA:  16    -0.367021232798E+03   -0.12123E-04   -0.75304E-04  6804   0.909E-04 0.182E-03
CGA:  17    -0.367021234774E+03   -0.19753E-05   -0.16261E-04  6804   0.272E-04 0.438E-04
CGA:  18    -0.367021248450E+03   -0.13676E-04   -0.23806E-04  6804   0.103E-03-0.695E-04
CGA:  19    -0.367021255431E+03   -0.69818E-05   -0.17606E-04  6804   0.196E-04 0.378E-04
 156 F= -.36702126E+03 E0= -.36702126E+03  d E =-.127109E+01  mag=    16.0000
       N       E                     dE             d eps       ncg     rms          ort
SDA:   1    -0.364592825260E+03    0.24284E+01    0.00000E+00  6804   0.653E+01 0.000E+00
CGA:   2    -0.366695993179E+03   -0.21032E+01   -0.21059E+01  6804   0.210E+01 0.421E-02
CGA:   3    -0.367190381581E+03   -0.49439E+00   -0.49449E+00  6804   0.534E+00 0.635E-03
CGA:   4    -0.367289802447E+03   -0.99421E-01   -0.99764E-01  6804   0.166E+00 0.909E-03
CGA:   5    -0.367322450123E+03   -0.32648E-01   -0.32781E-01  6804   0.527E-01 0.470E-03
CGA:   6    -0.367335082933E+03   -0.12633E-01   -0.12617E-01  6804   0.234E-01-0.115E-03
CGA:   7    -0.367340945122E+03   -0.58622E-02   -0.58309E-02  6804   0.909E-02-0.229E-03
CGA:   8    -0.367343481823E+03   -0.25367E-02   -0.25349E-02  6804   0.356E-02-0.215E-04
CGA:   9    -0.367344456214E+03   -0.97439E-03   -0.97618E-03  6804   0.121E-02 0.169E-04
CGA:  10    -0.367344821662E+03   -0.36545E-03   -0.36348E-03  6804   0.415E-03-0.283E-04
CGA:  11    -0.367344949881E+03   -0.12822E-03   -0.12777E-03  6804   0.157E-03-0.901E-05
CGA:  12    -0.367345014571E+03   -0.64690E-04   -0.67920E-04  6804   0.115E-03-0.412E-04
CGA:  13    -0.367345050894E+03   -0.36322E-04   -0.47092E-04  6804   0.104E-03-0.582E-04
CGA:  14    -0.367345074362E+03   -0.23468E-04   -0.25021E-04  6804   0.209E-04 0.114E-04
CGA:  15    -0.367345082993E+03   -0.86312E-05   -0.17123E-04  6804   0.526E-04-0.230E-04
 157 F= -.36734508E+03 E0= -.36734508E+03  d E =-.323828E+00  mag=    16.0000
       N       E                     dE             d eps       ncg     rms          ort
SDA:   1    -0.367293722365E+03    0.51352E-01    0.00000E+00  6804   0.179E+00 0.000E+00
CGA:   2    -0.367347437464E+03   -0.53715E-01   -0.53740E-01  6804   0.649E-01 0.233E-03
CGA:   3    -0.367360977957E+03   -0.13540E-01   -0.13529E-01  6804   0.201E-01-0.777E-04
CGA:   4    -0.367364456750E+03   -0.34788E-02   -0.34916E-02  6804   0.505E-02 0.644E-04
CGA:   5    -0.367365448653E+03   -0.99190E-03   -0.99282E-03  6804   0.158E-02 0.478E-05
CGA:   6    -0.367365804161E+03   -0.35551E-03   -0.35444E-03  6804   0.631E-03-0.886E-05
CGA:   7    -0.367365966491E+03   -0.16233E-03   -0.16202E-03  6804   0.253E-03-0.375E-05
CGA:   8    -0.367366040066E+03   -0.73575E-04   -0.72989E-04  6804   0.111E-03-0.125E-04
CGA:   9    -0.367366076383E+03   -0.36317E-04   -0.36722E-04  6804   0.557E-04-0.296E-04
CGA:  10    -0.367366089475E+03   -0.13093E-04   -0.12868E-04  6804   0.199E-04-0.109E-04
CGA:  11    -0.367366095162E+03   -0.56869E-05   -0.58579E-05  6804   0.106E-04-0.552E-05
 158 F= -.36736610E+03 E0= -.36736610E+03  d E =-.210122E-01  mag=    16.0000
       N       E                     dE             d eps       ncg     rms          ort
SDA:   1    -0.367244140214E+03    0.12195E+00    0.00000E+00  6804   0.336E+00 0.000E+00
CGA:   2    -0.367338694721E+03   -0.94555E-01   -0.94606E-01  6804   0.135E+00 0.501E-03
CGA:   3    -0.367365177718E+03   -0.26483E-01   -0.26464E-01  6804   0.417E-01-0.150E-03
CGA:   4    -0.367372520725E+03   -0.73430E-02   -0.73437E-02  6804   0.107E-01 0.312E-05
CGA:   5    -0.367374530467E+03   -0.20097E-02   -0.20013E-02  6804   0.331E-02-0.573E-04
CGA:   6    -0.367375247127E+03   -0.71666E-03   -0.71325E-03  6804   0.120E-02-0.297E-04
CGA:   7    -0.367375553181E+03   -0.30605E-03   -0.30761E-03  6804   0.460E-03 0.226E-04
CGA:   8    -0.367375682845E+03   -0.12966E-03   -0.13015E-03  6804   0.189E-03 0.105E-04
CGA:   9    -0.367375747724E+03   -0.64879E-04   -0.65420E-04  6804   0.913E-04-0.311E-04
CGA:  10    -0.367375771277E+03   -0.23553E-04   -0.23354E-04  6804   0.340E-04-0.125E-04
CGA:  11    -0.367375780156E+03   -0.88785E-05   -0.88233E-05  6804   0.125E-04-0.270E-05
 159 F= -.36737578E+03 E0= -.36737578E+03  d E =-.968499E-02  mag=    16.0000
       N       E                     dE             d eps       ncg     rms          ort
SDA:   1    -0.367368607472E+03    0.71638E-02    0.00000E+00  6804   0.243E-01 0.000E+00
CGA:   2    -0.367373840955E+03   -0.52335E-02   -0.52589E-02  6804   0.105E-01 0.230E-03
CGA:   3    -0.367375951957E+03   -0.21110E-02   -0.21109E-02  6804   0.318E-02-0.335E-05
CGA:   4    -0.367376521980E+03   -0.57002E-03   -0.56521E-03  6804   0.790E-03-0.351E-04
CGA:   5    -0.367376675297E+03   -0.15332E-03   -0.14767E-03  6804   0.237E-03-0.479E-04
CGA:   6    -0.367376727848E+03   -0.52551E-04   -0.50408E-04  6804   0.984E-04-0.288E-04
CGA:   7    -0.367376746308E+03   -0.18461E-04   -0.18943E-04  6804   0.328E-04 0.615E-05
CGA:   8    -0.367376751174E+03   -0.48657E-05   -0.63320E-05  6804   0.124E-04 0.131E-04
 160 F= -.36737675E+03 E0= -.36737675E+03  d E =-.971018E-03  mag=    16.0000
       N       E                     dE             d eps       ncg     rms          ort
SDA:   1    -0.367290960376E+03    0.85786E-01    0.00000E+00  6804   0.270E+00 0.000E+00
CGA:   2    -0.367346150819E+03   -0.55190E-01   -0.55278E-01  6804   0.116E+00 0.108E-02
CGA:   3    -0.367369637414E+03   -0.23487E-01   -0.23488E-01  6804   0.355E-01-0.151E-04
CGA:   4    -0.367375814617E+03   -0.61772E-02   -0.61522E-02  6804   0.844E-02-0.240E-03
CGA:   5    -0.367377366934E+03   -0.15523E-02   -0.15361E-02  6804   0.227E-02-0.188E-03
CGA:   6    -0.367377858639E+03   -0.49171E-03   -0.48826E-03  6804   0.837E-03-0.753E-04
CGA:   7    -0.367378054756E+03   -0.19612E-03   -0.19657E-03  6804   0.330E-03 0.222E-04
CGA:   8    -0.367378141203E+03   -0.86448E-04   -0.86760E-04  6804   0.136E-03 0.488E-04
CGA:   9    -0.367378189306E+03   -0.48103E-04   -0.47370E-04  6804   0.676E-04 0.174E-04
CGA:  10    -0.367378215112E+03   -0.25806E-04   -0.25830E-04  6804   0.380E-04-0.380E-06
CGA:  11    -0.367378223977E+03   -0.88652E-05   -0.91238E-05  6804   0.143E-04 0.971E-05
 161 F= -.36737822E+03 E0= -.36737822E+03  d E =-.147280E-02  mag=    16.0000
       N       E                     dE             d eps       ncg     rms          ort
SDA:   1    -0.367363432763E+03    0.14782E-01    0.00000E+00  6804   0.413E-01 0.000E+00
CGA:   2    -0.367373749313E+03   -0.10317E-01   -0.10325E-01  6804   0.181E-01 0.570E-03
CGA:   3    -0.367377282506E+03   -0.35332E-02   -0.35261E-02  6804   0.504E-02-0.999E-04
CGA:   4    -0.367378191099E+03   -0.90859E-03   -0.89352E-03  6804   0.114E-02-0.186E-03
CGA:   5    -0.367378399056E+03   -0.20796E-03   -0.20493E-03  6804   0.324E-03-0.440E-04
CGA:   6    -0.367378459196E+03   -0.60140E-04   -0.61611E-04  6804   0.101E-03 0.270E-04
CGA:   7    -0.367378481744E+03   -0.22549E-04   -0.23399E-04  6804   0.404E-04 0.234E-04
CGA:   8    -0.367378494326E+03   -0.12582E-04   -0.12522E-04  6804   0.224E-04 0.124E-04
CGA:   9    -0.367378502190E+03   -0.78645E-05   -0.77402E-05  6804   0.120E-04 0.775E-05
 162 F= -.36737850E+03 E0= -.36737850E+03  d E =-.278213E-03  mag=    16.0000
       N       E                     dE             d eps       ncg     rms          ort
SDA:   1    -0.367343862299E+03    0.34632E-01    0.00000E+00  6804   0.931E-01 0.000E+00
CGA:   2    -0.367368170440E+03   -0.24308E-01   -0.24295E-01  6804   0.411E-01 0.121E-02
CGA:   3    -0.367375993646E+03   -0.78232E-02   -0.78113E-02  6804   0.109E-01-0.190E-03
CGA:   4    -0.367377928331E+03   -0.19347E-02   -0.19079E-02  6804   0.237E-02-0.377E-03
CGA:   5    -0.367378351836E+03   -0.42351E-03   -0.41847E-03  6804   0.692E-03-0.826E-04
CGA:   6    -0.367378480249E+03   -0.12841E-03   -0.13044E-03  6804   0.210E-03 0.442E-04
CGA:   7    -0.367378528977E+03   -0.48728E-04   -0.49392E-04  6804   0.835E-04 0.372E-04
CGA:   8    -0.367378557129E+03   -0.28152E-04   -0.27451E-04  6804   0.492E-04 0.168E-04
CGA:   9    -0.367378575016E+03   -0.17888E-04   -0.17387E-04  6804   0.268E-04 0.915E-05
CGA:  10    -0.367378585020E+03   -0.10004E-04   -0.98956E-05  6804   0.130E-04 0.155E-05
CGA:  11    -0.367378587534E+03   -0.25131E-05   -0.27504E-05  6804   0.497E-05 0.522E-05
 163 F= -.36737859E+03 E0= -.36737859E+03  d E =-.853431E-04  mag=    16.0000
       N       E                     dE             d eps       ncg     rms          ort
SDA:   1    -0.367360699554E+03    0.17885E-01    0.00000E+00  6804   0.463E-01 0.000E+00
CGA:   2    -0.367373669311E+03   -0.12970E-01   -0.12930E-01  6804   0.203E-01 0.959E-03
CGA:   3    -0.367377414758E+03   -0.37454E-02   -0.37395E-02  6804   0.524E-02-0.100E-03
CGA:   4    -0.367378345226E+03   -0.93047E-03   -0.91271E-03  6804   0.115E-02-0.285E-03
CGA:   5    -0.367378552377E+03   -0.20715E-03   -0.20399E-03  6804   0.333E-03-0.688E-04
CGA:   6    -0.367378606640E+03   -0.54263E-04   -0.56106E-04  6804   0.849E-04 0.348E-04
CGA:   7    -0.367378621727E+03   -0.15086E-04   -0.16621E-04  6804   0.321E-04 0.294E-04
CGA:   8    -0.367378629392E+03   -0.76652E-05   -0.82511E-05  6804   0.185E-04 0.164E-04
 164 F= -.36737863E+03 E0= -.36737863E+03  d E =-.418582E-04  mag=    16.0000
       N       E                     dE             d eps       ncg     rms          ort
SDA:   1    -0.367250122289E+03    0.12850E+00    0.00000E+00  6804   0.331E+00 0.000E+00
CGA:   2    -0.367341347615E+03   -0.91225E-01   -0.91124E-01  6804   0.164E+00 0.248E-02
CGA:   3    -0.367369777098E+03   -0.28429E-01   -0.28425E-01  6804   0.377E-01-0.749E-04
CGA:   4    -0.367376401801E+03   -0.66247E-02   -0.65772E-02  6804   0.766E-02-0.808E-03
CGA:   5    -0.367377844389E+03   -0.14426E-02   -0.14330E-02  6804   0.216E-02-0.243E-03
CGA:   6    -0.367378255064E+03   -0.41068E-03   -0.41357E-03  6804   0.589E-03 0.922E-04
CGA:   7    -0.367378380389E+03   -0.12533E-03   -0.12744E-03  6804   0.206E-03 0.105E-03
CGA:   8    -0.367378440156E+03   -0.59767E-04   -0.58779E-04  6804   0.103E-03 0.631E-04
CGA:   9    -0.367378480140E+03   -0.39984E-04   -0.38351E-04  6804   0.580E-04 0.280E-04
CGA:  10    -0.367378503854E+03   -0.23714E-04   -0.23233E-04  6804   0.294E-04 0.562E-05
CGA:  11    -0.367378510008E+03   -0.61543E-05   -0.65299E-05  6804   0.113E-04 0.116E-04
 165 F= -.36737851E+03 E0= -.36737851E+03  d E =0.119384E-03  mag=    16.0000
       N       E                     dE             d eps       ncg     rms          ort
SDA:   1    -0.367372947581E+03    0.55563E-02    0.00000E+00  6804   0.155E-01 0.000E+00
CGA:   2    -0.367377117278E+03   -0.41697E-02   -0.41726E-02  6804   0.671E-02-0.750E-04
CGA:   3    -0.367378382645E+03   -0.12654E-02   -0.12675E-02  6804   0.187E-02 0.522E-04
CGA:   4    -0.367378694325E+03   -0.31168E-03   -0.31443E-03  6804   0.397E-03 0.441E-04
CGA:   5    -0.367378771447E+03   -0.77122E-04   -0.77429E-04  6804   0.119E-03 0.870E-05
CGA:   6    -0.367378801225E+03   -0.29779E-04   -0.30140E-04  6804   0.558E-04-0.153E-04
CGA:   7    -0.367378815139E+03   -0.13914E-04   -0.18283E-04  6804   0.580E-04-0.290E-04
CGA:   8    -0.367378824147E+03   -0.90078E-05   -0.90777E-05  6804   0.112E-04 0.903E-06
 166 F= -.36737882E+03 E0= -.36737882E+03  d E =-.314139E-03  mag=    16.0000
       N       E                     dE             d eps       ncg     rms          ort
SDA:   1    -0.367374361892E+03    0.44532E-02    0.00000E+00  6804   0.121E-01 0.000E+00
CGA:   2    -0.367377688953E+03   -0.33271E-02   -0.33449E-02  6804   0.618E-02-0.387E-03
CGA:   3    -0.367378717182E+03   -0.10282E-02   -0.10303E-02  6804   0.150E-02 0.348E-04
CGA:   4    -0.367378941716E+03   -0.22453E-03   -0.23310E-03  6804   0.283E-03 0.115E-03
CGA:   5    -0.367378991076E+03   -0.49360E-04   -0.51462E-04  6804   0.766E-04 0.370E-04
CGA:   6    -0.367379012936E+03   -0.21860E-04   -0.22093E-04  6804   0.371E-04-0.731E-05
CGA:   7    -0.367379022873E+03   -0.99366E-05   -0.11396E-04  6804   0.298E-04-0.127E-04
 167 F= -.36737902E+03 E0= -.36737902E+03  d E =-.198726E-03  mag=    16.0000
