       N       E                     dE             d eps       ncg     rms          ort
DAV:   1     0.220480537731E+04    0.22048E+04   -0.13297E+05  9828   0.153E+03
DAV:   2    -0.258326561260E+03   -0.24631E+04   -0.23587E+04  9828   0.404E+02
DAV:   3    -0.478198584181E+03   -0.21987E+03   -0.21591E+03  9828   0.140E+02
DAV:   4    -0.486256005178E+03   -0.80574E+01   -0.79697E+01  9828   0.305E+01
DAV:   5    -0.486677781708E+03   -0.42178E+00   -0.42089E+00  9828   0.481E+00
SDA:   6    -0.262318607930E+03    0.22436E+03   -0.42089E+00  9828   0.931E+03 0.000E+00
CGA:   7    -0.313830488562E+03   -0.51512E+02   -0.99316E+02  9828   0.290E+03 0.303E+02
CGA:   8    -0.321641745217E+03   -0.78113E+01   -0.23237E+02  9828   0.328E+03-0.104E+03
CGA:   9    -0.347689387123E+03   -0.26048E+02   -0.12255E+02  9828   0.146E+03-0.931E+02
CGA:  10    -0.348754574874E+03   -0.10652E+01   -0.77236E+01  9828   0.614E+03-0.411E+03
CGA:  11    -0.331168114756E+03    0.17586E+02   -0.44826E+02  9828   0.475E+03-0.147E+03
CGA:  12    -0.337037475838E+03   -0.58694E+01   -0.30682E+02  9828   0.287E+03-0.539E+02
CGA:  13    -0.346840414820E+03   -0.98029E+01   -0.21157E+02  9828   0.158E+03-0.552E+02
CGA:  14    -0.360783366721E+03   -0.13943E+02   -0.54361E+01  9828   0.261E+03-0.317E+03
CGA:  15    -0.361732439937E+03   -0.94907E+00   -0.13693E+02  9828   0.327E+03 0.204E+03
CGA:  16    -0.343832436640E+03    0.17900E+02   -0.17634E+02  9828   0.483E+03-0.174E+03
CGA:  17    -0.351170149772E+03   -0.73377E+01   -0.31248E+02  9828   0.162E+03-0.163E+03
CGA:  18    -0.367517968728E+03   -0.16348E+02   -0.49815E+01  9828   0.202E+03-0.194E+03
CGA:  19    -0.364747693227E+03    0.27703E+01   -0.80047E+01  9828   0.870E+03-0.700E+03
CGA:  20    -0.348357934718E+03    0.16390E+02   -0.50570E+02  9828   0.210E+03-0.120E+03
CGA:  21    -0.354656550938E+03   -0.62986E+01   -0.89976E+01  9828   0.246E+03-0.270E+03
CGA:  22    -0.353471170784E+03    0.11854E+01   -0.10859E+02  9828   0.501E+03-0.441E+03
CGA:  23    -0.352363231921E+03    0.11079E+01   -0.26207E+02  9828   0.136E+03-0.128E+03
CGA:  24    -0.371439855306E+03   -0.19077E+02   -0.39758E+01  9828   0.294E+03-0.226E+03
CGA:  25    -0.364058387105E+03    0.73815E+01   -0.12027E+02  9828   0.271E+03-0.166E+03
CGA:  26    -0.362303773016E+03    0.17546E+01   -0.11474E+02  9828   0.365E+03-0.241E+03
CGA:  27    -0.359862244324E+03    0.24415E+01   -0.15650E+02  9828   0.309E+03-0.282E+03
CGA:  28    -0.360011652512E+03   -0.14941E+00   -0.12796E+02  9828   0.253E+03-0.245E+03
CGA:  29    -0.363182850609E+03   -0.31712E+01   -0.95892E+01  9828   0.398E+03-0.426E+03
CGA:  30    -0.362140444739E+03    0.10424E+01   -0.16086E+02  9828   0.308E+03-0.283E+03
CGA:  31    -0.365698069208E+03   -0.35576E+01   -0.11426E+02  9828   0.427E+03-0.472E+03
CGA:  32    -0.364438977218E+03    0.12591E+01   -0.16317E+02  9828   0.355E+03-0.333E+03
CGA:  33    -0.367198080796E+03   -0.27591E+01   -0.12564E+02  9828   0.434E+03-0.468E+03
CGA:  34    -0.368326372506E+03   -0.11283E+01   -0.15645E+02  9828   0.324E+03-0.335E+03
CGA:  35    -0.373185515499E+03   -0.48591E+01   -0.10289E+02  9828   0.346E+03-0.452E+03
CGA:  36    -0.374045263746E+03   -0.85975E+00   -0.11079E+02  9828   0.200E+03-0.211E+03
CGA:  37    -0.377783672493E+03   -0.37384E+01   -0.50432E+01  9828   0.120E+03-0.201E+03
CGA:  38    -0.377756998293E+03    0.26674E-01   -0.34087E+01  9828   0.952E+02-0.873E+02
CGA:  39    -0.379173173369E+03   -0.14162E+01   -0.18825E+01  9828   0.178E+02-0.446E+02
CGA:  40    -0.379416707388E+03   -0.24353E+00   -0.27292E+00  9828   0.100E+01-0.735E+00
CGA:  41    -0.379447404141E+03   -0.30697E-01   -0.32977E-01  9828   0.808E+00-0.640E-01
CGA:  42    -0.379629026913E+03   -0.18162E+00   -0.61046E-02  9828   0.843E+01-0.627E+00
CGA:  43    -0.379825887689E+03   -0.19686E+00   -0.28767E+00  9828   0.831E+00-0.154E+01
CGA:  44    -0.379875345705E+03   -0.49458E-01   -0.53315E-01  9828   0.461E+00-0.275E-01
CGA:  45    -0.379941141253E+03   -0.65796E-01   -0.63557E-01  9828   0.312E+00 0.323E-01
CGA:  46    -0.379997350889E+03   -0.56210E-01   -0.52889E-01  9828   0.224E+00 0.408E-01
CGA:  47    -0.380055893839E+03   -0.58543E-01   -0.59352E-01  9828   0.217E+00-0.993E-02
CGA:  48    -0.380092316956E+03   -0.36423E-01   -0.36618E-01  9828   0.875E-01-0.132E-01
CGA:  49    -0.380111237876E+03   -0.18921E-01   -0.20477E-01  9828   0.679E-01-0.133E-01
CGA:  50    -0.380122857842E+03   -0.11620E-01   -0.12863E-01  9828   0.321E-01-0.139E-01
CGA:  51    -0.380117694348E+03    0.51635E-02   -0.60354E-02  9828   0.154E+00-0.324E-01
CGA:  52    -0.380140081727E+03   -0.22387E-01   -0.22195E-01  9828   0.138E-01 0.393E-02
CGA:  53    -0.380143544120E+03   -0.34624E-02   -0.34657E-02  9828   0.827E-02 0.107E-02
CGA:  54    -0.380146582613E+03   -0.30385E-02   -0.28004E-02  9828   0.342E-02 0.346E-02
CGA:  55    -0.380147593980E+03   -0.10114E-02   -0.10801E-02  9828   0.251E-02 0.241E-02
CGA:  56    -0.380148148417E+03   -0.55444E-03   -0.57598E-03  9828   0.186E-02 0.108E-02
CGA:  57    -0.380148735636E+03   -0.58722E-03   -0.61766E-03  9828   0.136E-02 0.195E-02
CGA:  58    -0.380149289868E+03   -0.55423E-03   -0.48330E-03  9828   0.146E-02 0.641E-03
CGA:  59    -0.380150903605E+03   -0.16137E-02   -0.11878E-02  9828   0.145E-02 0.134E-02
CGA:  60    -0.380151165477E+03   -0.26187E-03   -0.27588E-03  9828   0.940E-03 0.190E-03
CGA:  61    -0.380153005352E+03   -0.18399E-02   -0.58482E-04  9828   0.736E-02-0.238E-03
CGA:  62    -0.380155709443E+03   -0.27041E-02   -0.28372E-02  9828   0.962E-02-0.330E-02
CGA:  63    -0.380156887131E+03   -0.11777E-02   -0.78048E-03  9828   0.552E-02-0.121E-02
CGA:  64    -0.380158005188E+03   -0.11181E-02   -0.79601E-03  9828   0.207E-02-0.110E-02
CGA:  65    -0.380158475404E+03   -0.47022E-03   -0.29841E-03  9828   0.100E-02-0.649E-03
CGA:  66    -0.380158777191E+03   -0.30179E-03   -0.28907E-03  9828   0.184E-02-0.766E-03
CGA:  67    -0.380159184714E+03   -0.40752E-03   -0.45859E-03  9828   0.793E-03 0.278E-03
CGA:  68    -0.380159352231E+03   -0.16752E-03   -0.22705E-03  9828   0.385E-03 0.340E-03
CGA:  69    -0.380159488024E+03   -0.13579E-03   -0.16931E-03  9828   0.379E-03 0.306E-03
CGA:  70    -0.380159691800E+03   -0.20378E-03   -0.25244E-03  9828   0.140E-02-0.187E-03
CGA:  71    -0.380159877308E+03   -0.18551E-03   -0.17329E-03  9828   0.168E-02-0.603E-04
CGA:  72    -0.380160088771E+03   -0.21146E-03   -0.24896E-03  9828   0.100E-02 0.166E-03
CGA:  73    -0.380160242226E+03   -0.15346E-03   -0.21381E-03  9828   0.786E-03 0.293E-03
CGA:  74    -0.380160357023E+03   -0.11480E-03   -0.16634E-03  9828   0.328E-03 0.231E-03
CGA:  75    -0.380160402783E+03   -0.45760E-04   -0.65418E-04  9828   0.104E-03 0.866E-04
CGA:  76    -0.380160413773E+03   -0.10990E-04   -0.18998E-04  9828   0.602E-04 0.360E-04
CGA:  77    -0.380160430804E+03   -0.17032E-04   -0.20698E-04  9828   0.920E-04 0.352E-04
CGA:  78    -0.380160462699E+03   -0.31895E-04   -0.29803E-04  9828   0.159E-03-0.692E-04
CGA:  79    -0.380160481351E+03   -0.18652E-04   -0.20868E-04  9828   0.202E-04 0.117E-04
CGA:  80    -0.380160496560E+03   -0.15209E-04    0.14100E-03  9828   0.246E-04 0.154E-04
CGA:  81    -0.380160507281E+03   -0.10721E-04   -0.12465E-04  9828   0.848E-04-0.104E-04
CGA:  82    -0.380160518751E+03   -0.11470E-04   -0.13295E-04  9828   0.148E-03 0.237E-04
CGA:  83    -0.380160542266E+03   -0.23515E-04   -0.33028E-04  9828   0.331E-04 0.573E-04
CGA:  84    -0.380160551040E+03   -0.87742E-05   -0.97817E-05  9828   0.126E-04 0.809E-05
   1 F= -.38016055E+03 E0= -.38016055E+03  d E =-.380161E+03  mag=     4.0000
       N       E                     dE             d eps       ncg     rms          ort
SDA:   1    -0.380162856735E+03   -0.23145E-02    0.00000E+00  9828   0.506E-03 0.000E+00
CGA:   2    -0.380162946029E+03   -0.89294E-04   -0.97686E-04  9828   0.146E-03 0.656E-04
CGA:   3    -0.380163002780E+03   -0.56752E-04   -0.76446E-04  9828   0.252E-03-0.132E-03
CGA:   4    -0.380163039536E+03   -0.36756E-04   -0.34692E-04  9828   0.396E-04-0.108E-04
CGA:   5    -0.380163043216E+03   -0.36801E-05   -0.56392E-05  9828   0.785E-05 0.120E-04
   2 F= -.38016304E+03 E0= -.38016304E+03  d E =-.249218E-02  mag=     4.0000
       N       E                     dE             d eps       ncg     rms          ort
SDA:   1    -0.379865474770E+03    0.29756E+00    0.00000E+00  9828   0.119E+01 0.000E+00
CGA:   2    -0.380158456971E+03   -0.29298E+00   -0.29342E+00  9828   0.377E+00 0.921E-02
CGA:   3    -0.380246788604E+03   -0.88332E-01   -0.88086E-01  9828   0.109E+00-0.433E-02
CGA:   4    -0.380267562758E+03   -0.20774E-01   -0.20439E-01  9828   0.236E-01-0.331E-02
CGA:   5    -0.380272127186E+03   -0.45644E-02   -0.45478E-02  9828   0.561E-02-0.198E-03
CGA:   6    -0.380273490353E+03   -0.13632E-02   -0.13731E-02  9828   0.203E-02 0.302E-03
CGA:   7    -0.380274169304E+03   -0.67895E-03   -0.68009E-03  9828   0.107E-02-0.280E-04
CGA:   8    -0.380274565752E+03   -0.39645E-03   -0.42061E-03  9828   0.813E-03-0.203E-03
CGA:   9    -0.380274784523E+03   -0.21877E-03   -0.26956E-03  9828   0.787E-03-0.407E-03
CGA:  10    -0.380274875812E+03   -0.91288E-04   -0.10970E-03  9828   0.154E-03 0.125E-03
CGA:  11    -0.380274919447E+03   -0.43636E-04   -0.44822E-04  9828   0.582E-04 0.362E-04
CGA:  12    -0.380274946159E+03   -0.26712E-04   -0.30164E-04  9828   0.853E-04-0.250E-04
CGA:  13    -0.380274949620E+03   -0.34606E-05   -0.49006E-05  9828   0.491E-04 0.775E-05
   3 F= -.38027495E+03 E0= -.38027495E+03  d E =-.111906E+00  mag=     4.0000
       N       E                     dE             d eps       ncg     rms          ort
SDA:   1    -0.379051280641E+03    0.12237E+01    0.00000E+00  9828   0.409E+01 0.000E+00
CGA:   2    -0.380050322880E+03   -0.99904E+00   -0.99956E+00  9828   0.116E+01 0.178E-01
CGA:   3    -0.380331376799E+03   -0.28105E+00   -0.28081E+00  9828   0.334E+00-0.918E-02
CGA:   4    -0.380394182796E+03   -0.62806E-01   -0.62440E-01  9828   0.722E-01-0.447E-02
CGA:   5    -0.380408380831E+03   -0.14198E-01   -0.14191E-01  9828   0.183E-01-0.109E-03
CGA:   6    -0.380413145568E+03   -0.47647E-02   -0.47643E-02  9828   0.757E-02 0.612E-03
CGA:   7    -0.380415690828E+03   -0.25453E-02   -0.25405E-02  9828   0.416E-02 0.741E-04
CGA:   8    -0.380417232024E+03   -0.15412E-02   -0.15616E-02  9828   0.234E-02-0.192E-03
CGA:   9    -0.380417970770E+03   -0.73875E-03   -0.75318E-03  9828   0.101E-02-0.211E-03
CGA:  10    -0.380418209868E+03   -0.23910E-03   -0.23964E-03  9828   0.340E-03 0.510E-04
CGA:  11    -0.380418309507E+03   -0.99639E-04   -0.99458E-04  9828   0.142E-03 0.278E-04
CGA:  12    -0.380418350687E+03   -0.41180E-04   -0.41311E-04  9828   0.538E-04 0.378E-04
CGA:  13    -0.380418375910E+03   -0.25223E-04   -0.24712E-04  9828   0.275E-04 0.559E-05
CGA:  14    -0.380418339286E+03    0.36624E-04   -0.39609E-04  9828   0.288E-03-0.745E-04
CGA:  15    -0.380418370870E+03   -0.31584E-04   -0.43431E-04  9828   0.599E-04 0.678E-04
CGA:  16    -0.380418387533E+03   -0.16663E-04   -0.17758E-04  9828   0.212E-04 0.139E-04
CGA:  17    -0.380418384273E+03    0.32602E-05   -0.24902E-04  9828   0.188E-03-0.442E-04
CGA:  18    -0.380418397651E+03   -0.13378E-04   -0.21991E-04  9828   0.246E-04 0.386E-04
CGA:  19    -0.380418403617E+03   -0.59657E-05   -0.66018E-05  9828   0.150E-04 0.566E-05
CGA:  20    -0.380418120449E+03    0.28317E-03   -0.15427E-03  9828   0.157E-02-0.180E-03
CGA:  21    -0.380418311206E+03   -0.19076E-03   -0.23461E-03  9828   0.275E-03 0.117E-03
CGA:  22    -0.380418400627E+03   -0.89421E-04   -0.94162E-04  9828   0.211E-04 0.183E-04
CGA:  23    -0.380418413581E+03   -0.12954E-04   -0.10725E-04  9828   0.734E-04-0.250E-04
CGA:  24    -0.380418414408E+03   -0.82711E-06   -0.74343E-05  9828   0.429E-05 0.150E-04
   4 F= -.38041841E+03 E0= -.38041841E+03  d E =-.143465E+00  mag=     4.0000
       N       E                     dE             d eps       ncg     rms          ort
SDA:   1    -0.379245991710E+03    0.11724E+01    0.00000E+00  9828   0.368E+01 0.000E+00
CGA:   2    -0.380190514068E+03   -0.94452E+00   -0.94709E+00  9828   0.978E+00 0.732E-02
CGA:   3    -0.380444072444E+03   -0.25356E+00   -0.25259E+00  9828   0.247E+00-0.316E-02
CGA:   4    -0.380491417253E+03   -0.47345E-01   -0.47141E-01  9828   0.559E-01-0.687E-03
CGA:   5    -0.380502480199E+03   -0.11063E-01   -0.11120E-01  9828   0.157E-01 0.210E-03
CGA:   6    -0.380506925981E+03   -0.44458E-02   -0.44862E-02  9828   0.725E-02 0.230E-03
CGA:   7    -0.380509354954E+03   -0.24290E-02   -0.24396E-02  9828   0.417E-02 0.838E-04
CGA:   8    -0.380510773369E+03   -0.14184E-02   -0.14288E-02  9828   0.193E-02 0.932E-04
CGA:   9    -0.380511415608E+03   -0.64224E-03   -0.63977E-03  9828   0.740E-03-0.221E-04
CGA:  10    -0.380511608610E+03   -0.19300E-03   -0.20234E-03  9828   0.250E-03 0.592E-04
CGA:  11    -0.380511698365E+03   -0.89756E-04   -0.89671E-04  9828   0.133E-03-0.706E-06
CGA:  12    -0.380511722282E+03   -0.23916E-04   -0.31019E-04  9828   0.505E-04 0.376E-04
CGA:  13    -0.380511741155E+03   -0.18874E-04   -0.19847E-04  9828   0.233E-04 0.893E-05
CGA:  14    -0.380511753491E+03   -0.12335E-04   -0.12582E-04  9828   0.281E-04-0.506E-05
CGA:  15    -0.380511752381E+03    0.11098E-05   -0.24391E-05  9828   0.185E-04 0.117E-04
   5 F= -.38051175E+03 E0= -.38051175E+03  d E =-.933380E-01  mag=     4.0000
       N       E                     dE             d eps       ncg     rms          ort
SDA:   1    -0.378708804547E+03    0.18029E+01    0.00000E+00  9828   0.530E+01 0.000E+00
CGA:   2    -0.380102466778E+03   -0.13937E+01   -0.13946E+01  9828   0.149E+01 0.264E-02
CGA:   3    -0.380477987944E+03   -0.37552E+00   -0.37506E+00  9828   0.354E+00-0.319E-02
CGA:   4    -0.380544818366E+03   -0.66830E-01   -0.66744E-01  9828   0.790E-01-0.482E-03
CGA:   5    -0.380560662509E+03   -0.15844E-01   -0.15893E-01  9828   0.220E-01 0.299E-03
CGA:   6    -0.380566947045E+03   -0.62845E-02   -0.62968E-02  9828   0.101E-01 0.190E-03
CGA:   7    -0.380570339874E+03   -0.33928E-02   -0.33945E-02  9828   0.594E-02 0.963E-04
CGA:   8    -0.380572358967E+03   -0.20191E-02   -0.20213E-02  9828   0.282E-02 0.194E-03
CGA:   9    -0.380573293177E+03   -0.93421E-03   -0.93293E-03  9828   0.112E-02-0.489E-04
CGA:  10    -0.380573575433E+03   -0.28226E-03   -0.28904E-03  9828   0.366E-03 0.838E-04
CGA:  11    -0.380573707561E+03   -0.13213E-03   -0.13200E-03  9828   0.196E-03-0.210E-04
CGA:  12    -0.380573744593E+03   -0.37032E-04   -0.42618E-04  9828   0.719E-04 0.506E-04
CGA:  13    -0.380573766233E+03   -0.21640E-04   -0.23285E-04  9828   0.289E-04 0.208E-04
CGA:  14    -0.380573779249E+03   -0.13017E-04   -0.13007E-04  9828   0.238E-04 0.457E-06
CGA:  15    -0.380573778895E+03    0.35491E-06   -0.28303E-05  9828   0.144E-04 0.147E-04
   6 F= -.38057378E+03 E0= -.38057378E+03  d E =-.620265E-01  mag=     4.0000
       N       E                     dE             d eps       ncg     rms          ort
SDA:   1    -0.376879478815E+03    0.36943E+01    0.00000E+00  9828   0.963E+01 0.000E+00
CGA:   2    -0.379693098216E+03   -0.28136E+01   -0.28137E+01  9828   0.325E+01-0.222E-02
CGA:   3    -0.380419580397E+03   -0.72648E+00   -0.72616E+00  9828   0.705E+00-0.241E-02
CGA:   4    -0.380546175827E+03   -0.12660E+00   -0.12662E+00  9828   0.145E+00 0.746E-03
CGA:   5    -0.380576457472E+03   -0.30282E-01   -0.30308E-01  9828   0.378E-01 0.301E-03
CGA:   6    -0.380586461854E+03   -0.10004E-01   -0.10014E-01  9828   0.149E-01 0.300E-03
CGA:   7    -0.380591062380E+03   -0.46005E-02   -0.45978E-02  9828   0.781E-02 0.239E-03
CGA:   8    -0.380593820739E+03   -0.27584E-02   -0.27522E-02  9828   0.436E-02 0.115E-03
CGA:   9    -0.380595107979E+03   -0.12872E-02   -0.12883E-02  9828   0.182E-02 0.162E-03
CGA:  10    -0.380595621485E+03   -0.51351E-03   -0.51446E-03  9828   0.705E-03 0.411E-04
CGA:  11    -0.380595816421E+03   -0.19494E-03   -0.19725E-03  9828   0.273E-03 0.104E-03
CGA:  12    -0.380595919760E+03   -0.10334E-03   -0.10149E-03  9828   0.124E-03 0.643E-04
CGA:  13    -0.380595966765E+03   -0.47005E-04   -0.46606E-04  9828   0.573E-04 0.543E-04
CGA:  14    -0.380595987093E+03   -0.20328E-04   -0.21660E-04  9828   0.320E-04 0.393E-04
CGA:  15    -0.380595997046E+03   -0.99525E-05   -0.97788E-05  9828   0.223E-04 0.159E-04
   7 F= -.38059600E+03 E0= -.38059600E+03  d E =-.222182E-01  mag=     4.0000
       N       E                     dE             d eps       ncg     rms          ort
SDA:   1    -0.380184120347E+03    0.41187E+00    0.00000E+00  9828   0.103E+01 0.000E+00
CGA:   2    -0.380511207728E+03   -0.32709E+00   -0.32714E+00  9828   0.431E+00-0.224E-02
CGA:   3    -0.380591495696E+03   -0.80288E-01   -0.80417E-01  9828   0.735E-01 0.139E-02
CGA:   4    -0.380604789305E+03   -0.13294E-01   -0.13374E-01  9828   0.156E-01 0.748E-03
CGA:   5    -0.380608097984E+03   -0.33087E-02   -0.33146E-02  9828   0.369E-02 0.839E-04
CGA:   6    -0.380608968164E+03   -0.87018E-03   -0.86761E-03  9828   0.107E-02-0.568E-04
CGA:   7    -0.380609248104E+03   -0.27994E-03   -0.27994E-03  9828   0.389E-03 0.568E-06
CGA:   8    -0.380609365781E+03   -0.11768E-03   -0.11692E-03  9828   0.177E-03 0.319E-04
CGA:   9    -0.380609407880E+03   -0.42098E-04   -0.44739E-04  9828   0.682E-04 0.596E-04
CGA:  10    -0.380609430143E+03   -0.22263E-04   -0.23005E-04  9828   0.347E-04 0.325E-04
CGA:  11    -0.380609441943E+03   -0.11800E-04   -0.12592E-04  9828   0.260E-04 0.273E-04
CGA:  12    -0.380609445965E+03   -0.40215E-05   -0.52370E-05  9828   0.175E-04 0.169E-04
   8 F= -.38060945E+03 E0= -.38060945E+03  d E =-.134489E-01  mag=     4.0000
       N       E                     dE             d eps       ncg     rms          ort
SDA:   1    -0.380351719893E+03    0.25772E+00    0.00000E+00  9828   0.670E+00 0.000E+00
CGA:   2    -0.380560489409E+03   -0.20877E+00   -0.20888E+00  9828   0.243E+00-0.276E-02
CGA:   3    -0.380609132473E+03   -0.48643E-01   -0.48757E-01  9828   0.490E-01 0.158E-02
CGA:   4    -0.380617983522E+03   -0.88510E-02   -0.88847E-02  9828   0.102E-01 0.380E-03
CGA:   5    -0.380620087046E+03   -0.21035E-02   -0.21066E-02  9828   0.248E-02 0.491E-04
CGA:   6    -0.380620703341E+03   -0.61630E-03   -0.61569E-03  9828   0.781E-03-0.386E-04
CGA:   7    -0.380620928844E+03   -0.22550E-03   -0.22645E-03  9828   0.339E-03-0.292E-04
CGA:   8    -0.380621033745E+03   -0.10490E-03   -0.10330E-03  9828   0.147E-03 0.298E-04
CGA:   9    -0.380621084655E+03   -0.50910E-04   -0.49789E-04  9828   0.607E-04 0.240E-04
CGA:  10    -0.380621102814E+03   -0.18159E-04   -0.18384E-04  9828   0.281E-04 0.266E-04
CGA:  11    -0.380621113411E+03   -0.10596E-04   -0.10673E-04  9828   0.192E-04 0.194E-04
CGA:  12    -0.380621117789E+03   -0.43782E-05   -0.46722E-05  9828   0.120E-04 0.118E-04
   9 F= -.38062112E+03 E0= -.38062112E+03  d E =-.116718E-01  mag=     4.0000
       N       E                     dE             d eps       ncg     rms          ort
SDA:   1    -0.379249943456E+03    0.13712E+01    0.00000E+00  9828   0.326E+01 0.000E+00
CGA:   2    -0.380369755120E+03   -0.11198E+01   -0.11201E+01  9828   0.112E+01-0.336E-02
CGA:   3    -0.380582395854E+03   -0.21264E+00   -0.21272E+00  9828   0.204E+00 0.993E-03
CGA:   4    -0.380619731912E+03   -0.37336E-01   -0.37376E-01  9828   0.461E-01 0.497E-03
CGA:   5    -0.380629218461E+03   -0.94865E-02   -0.94943E-02  9828   0.105E-01 0.142E-03
CGA:   6    -0.380631669245E+03   -0.24508E-02   -0.24511E-02  9828   0.291E-02 0.104E-04
CGA:   7    -0.380632464820E+03   -0.79557E-03   -0.79508E-03  9828   0.105E-02 0.338E-04
CGA:   8    -0.380632816920E+03   -0.35210E-03   -0.34959E-03  9828   0.469E-03 0.362E-04
CGA:   9    -0.380632953647E+03   -0.13673E-03   -0.13550E-03  9828   0.160E-03 0.710E-04
CGA:  10    -0.380633001769E+03   -0.48122E-04   -0.48156E-04  9828   0.613E-04 0.387E-04
CGA:  11    -0.380633015606E+03   -0.13837E-04   -0.15839E-04  9828   0.304E-04 0.362E-04
CGA:  12    -0.380633022214E+03   -0.66081E-05   -0.71231E-05  9828   0.185E-04 0.196E-04
  10 F= -.38063302E+03 E0= -.38063302E+03  d E =-.119044E-01  mag=     4.0000
       N       E                     dE             d eps       ncg     rms          ort
SDA:   1    -0.375076635113E+03    0.55564E+01    0.00000E+00  9828   0.136E+02 0.000E+00
CGA:   2    -0.379294128793E+03   -0.42175E+01   -0.42178E+01  9828   0.526E+01-0.480E-02
CGA:   3    -0.380341956819E+03   -0.10478E+01   -0.10481E+01  9828   0.106E+01 0.106E-04
CGA:   4    -0.380532614915E+03   -0.19066E+00   -0.19081E+00  9828   0.221E+00 0.191E-02
CGA:   5    -0.380577565811E+03   -0.44951E-01   -0.44993E-01  9828   0.532E-01 0.881E-03
CGA:   6    -0.380590529831E+03   -0.12964E-01   -0.12964E-01  9828   0.159E-01-0.479E-04
CGA:   7    -0.380594986678E+03   -0.44568E-02   -0.44653E-02  9828   0.608E-02-0.279E-03
CGA:   8    -0.380596912741E+03   -0.19261E-02   -0.19186E-02  9828   0.251E-02 0.108E-03
CGA:   9    -0.380597741649E+03   -0.82891E-03   -0.82894E-03  9828   0.924E-03-0.120E-05
CGA:  10    -0.380598015819E+03   -0.27417E-03   -0.27173E-03  9828   0.316E-03 0.691E-04
CGA:  11    -0.380598135198E+03   -0.11938E-03   -0.19186E-03  9828   0.686E-03-0.238E-03
CGA:  12    -0.380598199644E+03   -0.64446E-04   -0.86909E-04  9828   0.126E-03 0.156E-03
CGA:  13    -0.380598241343E+03   -0.41699E-04   -0.41686E-04  9828   0.762E-04 0.797E-05
CGA:  14    -0.380598292140E+03   -0.50798E-04    0.64447E-04  9828   0.818E-04 0.787E-05
CGA:  15    -0.380598027770E+03    0.26437E-03   -0.14548E-03  9828   0.136E-02-0.288E-03
CGA:  16    -0.380598391342E+03   -0.36357E-03   -0.35290E-03  9828   0.314E-03-0.446E-04
CGA:  17    -0.380598435566E+03   -0.44224E-04   -0.59441E-04  9828   0.121E-03 0.553E-04
CGA:  18    -0.380598508918E+03   -0.73352E-04   -0.80653E-04  9828   0.122E-03-0.718E-04
CGA:  19    -0.380598532095E+03   -0.23177E-04   -0.26561E-04  9828   0.218E-04 0.135E-04
CGA:  20    -0.380598560398E+03   -0.28303E-04    0.19511E-04  9828   0.358E-04-0.106E-04
CGA:  21    -0.380598568976E+03   -0.85772E-05   -0.68040E-05  9828   0.384E-04-0.204E-04
CGA:  22    -0.380598584249E+03   -0.15273E-04   -0.29359E-04  9828   0.111E-03-0.448E-04
CGA:  23    -0.380598589563E+03   -0.53146E-05   -0.14320E-04  9828   0.180E-04 0.272E-04
  11 F= -.38059859E+03 E0= -.38059859E+03  d E =0.344327E-01  mag=     4.0000
       N       E                     dE             d eps       ncg     rms          ort
SDA:   1    -0.380464698211E+03    0.13389E+00    0.00000E+00  9828   0.409E+00 0.000E+00
CGA:   2    -0.380599314983E+03   -0.13462E+00   -0.13452E+00  9828   0.138E+00-0.832E-03
CGA:   3    -0.380627936227E+03   -0.28621E-01   -0.28586E-01  9828   0.348E-01-0.126E-03
CGA:   4    -0.380634387629E+03   -0.64514E-02   -0.64277E-02  9828   0.727E-02-0.103E-03
CGA:   5    -0.380635887538E+03   -0.14999E-02   -0.15143E-02  9828   0.193E-02 0.707E-04
CGA:   6    -0.380636415373E+03   -0.52784E-03   -0.52358E-03  9828   0.704E-03-0.311E-04
CGA:   7    -0.380636632688E+03   -0.21731E-03   -0.21064E-03  9828   0.320E-03-0.707E-04
CGA:   8    -0.380636722669E+03   -0.89981E-04   -0.87397E-04  9828   0.129E-03-0.286E-04
CGA:   9    -0.380636768495E+03   -0.45826E-04   -0.46203E-04  9828   0.113E-03-0.659E-04
CGA:  10    -0.380636779983E+03   -0.11488E-04   -0.15331E-04  9828   0.160E-04 0.156E-04
CGA:  11    -0.380636775355E+03    0.46276E-05   -0.16428E-04  9828   0.117E-03-0.398E-04
CGA:  12    -0.380636796284E+03   -0.20929E-04   -0.23541E-04  9828   0.880E-05 0.130E-04
CGA:  13    -0.380636798307E+03   -0.20231E-05   -0.63356E-05  9828   0.439E-04-0.169E-04
  12 F= -.38063680E+03 E0= -.38063680E+03  d E =-.382087E-01  mag=     4.0000
       N       E                     dE             d eps       ncg     rms          ort
SDA:   1    -0.380633750796E+03    0.30455E-02    0.00000E+00  9828   0.179E-01 0.000E+00
CGA:   2    -0.380639217459E+03   -0.54667E-02   -0.54493E-02  9828   0.736E-02-0.199E-03
CGA:   3    -0.380640625793E+03   -0.14083E-02   -0.14209E-02  9828   0.163E-02 0.642E-04
CGA:   4    -0.380640929281E+03   -0.30349E-03   -0.30565E-03  9828   0.337E-03 0.126E-04
CGA:   5    -0.380640994902E+03   -0.65621E-04   -0.67620E-04  9828   0.818E-04 0.119E-04
CGA:   6    -0.380641015595E+03   -0.20692E-04   -0.21124E-04  9828   0.269E-04 0.394E-05
CGA:   7    -0.380641025202E+03   -0.96076E-05   -0.95434E-05  9828   0.149E-04-0.437E-05
  13 F= -.38064103E+03 E0= -.38064103E+03  d E =-.422689E-02  mag=     4.0000
       N       E                     dE             d eps       ncg     rms          ort
SDA:   1    -0.380488658961E+03    0.15236E+00    0.00000E+00  9828   0.409E+00 0.000E+00
CGA:   2    -0.380609610002E+03   -0.12095E+00   -0.12092E+00  9828   0.167E+00-0.757E-03
CGA:   3    -0.380643319160E+03   -0.33709E-01   -0.33735E-01  9828   0.359E-01 0.234E-03
CGA:   4    -0.380649899928E+03   -0.65808E-02   -0.66140E-02  9828   0.758E-02 0.228E-03
CGA:   5    -0.380651431019E+03   -0.15311E-02   -0.15376E-02  9828   0.185E-02 0.519E-04
CGA:   6    -0.380651900577E+03   -0.46956E-03   -0.46920E-03  9828   0.615E-03-0.562E-05
CGA:   7    -0.380652071199E+03   -0.17062E-03   -0.17068E-03  9828   0.227E-03 0.132E-05
CGA:   8    -0.380652142864E+03   -0.71665E-04   -0.71664E-04  9828   0.929E-04 0.426E-05
CGA:   9    -0.380652165957E+03   -0.23093E-04   -0.24207E-04  9828   0.286E-04 0.186E-04
CGA:  10    -0.380652174393E+03   -0.84351E-05   -0.89158E-05  9828   0.114E-04 0.906E-05
  14 F= -.38065217E+03 E0= -.38065217E+03  d E =-.111492E-01  mag=     4.0000
       N       E                     dE             d eps       ncg     rms          ort
SDA:   1    -0.380648642939E+03    0.35230E-02    0.00000E+00  9828   0.129E-01 0.000E+00
CGA:   2    -0.380651893023E+03   -0.32501E-02   -0.32519E-02  9828   0.595E-02 0.382E-04
CGA:   3    -0.380653146149E+03   -0.12531E-02   -0.12599E-02  9828   0.117E-02 0.759E-04
CGA:   4    -0.380653347864E+03   -0.20171E-03   -0.20357E-03  9828   0.223E-03 0.152E-04
CGA:   5    -0.380653396499E+03   -0.48635E-04   -0.48507E-04  9828   0.623E-04-0.174E-05
CGA:   6    -0.380653407074E+03   -0.10575E-04   -0.11870E-04  9828   0.175E-04 0.138E-04
CGA:   7    -0.380653407818E+03   -0.74382E-06   -0.27313E-05  9828   0.936E-05 0.130E-04
  15 F= -.38065341E+03 E0= -.38065341E+03  d E =-.123343E-02  mag=     4.0000
       N       E                     dE             d eps       ncg     rms          ort
SDA:   1    -0.380619391243E+03    0.34016E-01    0.00000E+00  9828   0.956E-01 0.000E+00
CGA:   2    -0.380644987590E+03   -0.25596E-01   -0.25596E-01  9828   0.438E-01 0.368E-04
CGA:   3    -0.380653994307E+03   -0.90067E-02   -0.90149E-02  9828   0.852E-02 0.146E-03
CGA:   4    -0.380655487020E+03   -0.14927E-02   -0.14982E-02  9828   0.164E-02 0.631E-04
CGA:   5    -0.380655838379E+03   -0.35136E-03   -0.35086E-03  9828   0.421E-03-0.105E-04
CGA:   6    -0.380655932059E+03   -0.93681E-04   -0.94296E-04  9828   0.121E-03 0.198E-04
CGA:   7    -0.380655956857E+03   -0.24797E-04   -0.26352E-04  9828   0.393E-04 0.339E-04
CGA:   8    -0.380655966676E+03   -0.98190E-05   -0.10659E-04  9828   0.204E-04 0.207E-04
  16 F= -.38065597E+03 E0= -.38065597E+03  d E =-.255886E-02  mag=     4.0000
       N       E                     dE             d eps       ncg     rms          ort
SDA:   1    -0.380548747329E+03    0.10721E+00    0.00000E+00  9828   0.278E+00 0.000E+00
CGA:   2    -0.380628100756E+03   -0.79353E-01   -0.79347E-01  9828   0.124E+00 0.210E-03
CGA:   3    -0.380652925618E+03   -0.24825E-01   -0.24825E-01  9828   0.232E-01 0.429E-04
CGA:   4    -0.380657067974E+03   -0.41424E-02   -0.41442E-02  9828   0.458E-02 0.260E-04
CGA:   5    -0.380658042784E+03   -0.97481E-03   -0.97332E-03  9828   0.116E-02-0.462E-04
CGA:   6    -0.380658307679E+03   -0.26490E-03   -0.26520E-03  9828   0.335E-03 0.259E-04
CGA:   7    -0.380658388948E+03   -0.81268E-04   -0.81459E-04  9828   0.111E-03 0.487E-04
CGA:   8    -0.380658428665E+03   -0.39717E-04   -0.38528E-04  9828   0.583E-04 0.197E-04
CGA:   9    -0.380658444200E+03   -0.15535E-04   -0.15880E-04  9828   0.251E-04 0.259E-04
CGA:  10    -0.380658449934E+03   -0.57345E-05   -0.68204E-05  9828   0.133E-04 0.194E-04
  17 F= -.38065845E+03 E0= -.38065845E+03  d E =-.248326E-02  mag=     4.0000
       N       E                     dE             d eps       ncg     rms          ort
SDA:   1    -0.380455831517E+03    0.20261E+00    0.00000E+00  9828   0.489E+00 0.000E+00
CGA:   2    -0.380617093080E+03   -0.16126E+00   -0.16123E+00  9828   0.178E+00 0.295E-03
CGA:   3    -0.380652076663E+03   -0.34984E-01   -0.34960E-01  9828   0.334E-01-0.478E-03
CGA:   4    -0.380658095617E+03   -0.60190E-02   -0.60225E-02  9828   0.699E-02 0.630E-04
CGA:   5    -0.380659554735E+03   -0.14591E-02   -0.14596E-02  9828   0.171E-02 0.176E-04
CGA:   6    -0.380659956370E+03   -0.40163E-03   -0.40169E-03  9828   0.496E-03 0.414E-04
CGA:   7    -0.380660089457E+03   -0.13309E-03   -0.13199E-03  9828   0.190E-03 0.448E-04
CGA:   8    -0.380660159636E+03   -0.70179E-04   -0.68687E-04  9828   0.104E-03 0.156E-04
CGA:   9    -0.380660184857E+03   -0.25221E-04   -0.25699E-04  9828   0.397E-04 0.365E-04
CGA:  10    -0.380660195515E+03   -0.10658E-04   -0.11307E-04  9828   0.173E-04 0.218E-04
CGA:  11    -0.380660198527E+03   -0.30127E-05   -0.34256E-05  9828   0.981E-05 0.101E-04
  18 F= -.38066020E+03 E0= -.38066020E+03  d E =-.174859E-02  mag=     4.0000
       N       E                     dE             d eps       ncg     rms          ort
SDA:   1    -0.375164482714E+03    0.54957E+01    0.00000E+00  9828   0.128E+02 0.000E+00
CGA:   2    -0.379674171697E+03   -0.45097E+01   -0.45115E+01  9828   0.395E+01-0.131E-01
CGA:   3    -0.380465588827E+03   -0.79142E+00   -0.79149E+00  9828   0.733E+00-0.116E-02
CGA:   4    -0.380601105317E+03   -0.13552E+00   -0.13559E+00  9828   0.164E+00 0.172E-02
CGA:   5    -0.380635020117E+03   -0.33915E-01   -0.33932E-01  9828   0.406E-01 0.644E-03
CGA:   6    -0.380644896119E+03   -0.98760E-02   -0.98805E-02  9828   0.122E-01-0.421E-03
CGA:   7    -0.380648381174E+03   -0.34851E-02   -0.35033E-02  9828   0.526E-02-0.315E-03
CGA:   8    -0.380650071313E+03   -0.16901E-02   -0.16990E-02  9828   0.247E-02-0.909E-04
CGA:   9    -0.380650825493E+03   -0.75418E-03   -0.76361E-03  9828   0.104E-02-0.124E-03
CGA:  10    -0.380651090531E+03   -0.26504E-03   -0.26506E-03  9828   0.360E-03 0.394E-06
CGA:  11    -0.380651201050E+03   -0.11052E-03   -0.11049E-03  9828   0.163E-03 0.655E-06
CGA:  12    -0.380651258324E+03   -0.57275E-04   -0.55053E-04  9828   0.818E-04 0.247E-04
CGA:  13    -0.380651285508E+03   -0.27184E-04   -0.26201E-04  9828   0.377E-04 0.384E-04
CGA:  14    -0.380651299340E+03   -0.13832E-04   -0.13908E-04  9828   0.187E-04 0.259E-04
CGA:  15    -0.380651300233E+03   -0.89303E-06   -0.25355E-05  9828   0.121E-04 0.139E-04
  19 F= -.38065130E+03 E0= -.38065130E+03  d E =0.889829E-02  mag=     4.0000
       N       E                     dE             d eps       ncg     rms          ort
SDA:   1    -0.379452624990E+03    0.11987E+01    0.00000E+00  9828   0.281E+01 0.000E+00
CGA:   2    -0.380447346026E+03   -0.99472E+00   -0.99488E+00  9828   0.875E+00-0.111E-02
CGA:   3    -0.380619046569E+03   -0.17170E+00   -0.17164E+00  9828   0.173E+00-0.889E-03
CGA:   4    -0.380650084335E+03   -0.31038E-01   -0.31091E-01  9828   0.373E-01 0.117E-02
CGA:   5    -0.380657972468E+03   -0.78881E-02   -0.78915E-02  9828   0.900E-02 0.119E-03
CGA:   6    -0.380660116980E+03   -0.21445E-02   -0.21446E-02  9828   0.255E-02 0.368E-04
CGA:   7    -0.380660777956E+03   -0.66098E-03   -0.65876E-03  9828   0.923E-03 0.132E-03
CGA:   8    -0.380661086486E+03   -0.30853E-03   -0.30828E-03  9828   0.452E-03 0.362E-05
CGA:   9    -0.380661168047E+03   -0.81561E-04   -0.88331E-04  9828   0.141E-03 0.136E-03
CGA:  10    -0.380661202478E+03   -0.34431E-04   -0.36832E-04  9828   0.485E-04 0.583E-04
CGA:  11    -0.380661215690E+03   -0.13213E-04   -0.13984E-04  9828   0.230E-04 0.212E-04
CGA:  12    -0.380661215743E+03   -0.52369E-07   -0.33212E-05  9828   0.147E-04 0.237E-04
  20 F= -.38066122E+03 E0= -.38066122E+03  d E =-.991551E-02  mag=     4.0000
       N       E                     dE             d eps       ncg     rms          ort
SDA:   1    -0.380318292279E+03    0.34292E+00    0.00000E+00  9828   0.854E+00 0.000E+00
CGA:   2    -0.380584742060E+03   -0.26645E+00   -0.26649E+00  9828   0.336E+00-0.521E-03
CGA:   3    -0.380651491599E+03   -0.66750E-01   -0.66741E-01  9828   0.649E-01-0.337E-03
CGA:   4    -0.380663321729E+03   -0.11830E-01   -0.11819E-01  9828   0.137E-01-0.239E-03
CGA:   5    -0.380666108865E+03   -0.27871E-02   -0.27880E-02  9828   0.332E-02 0.425E-04
CGA:   6    -0.380666939785E+03   -0.83092E-03   -0.83355E-03  9828   0.107E-02-0.993E-04
CGA:   7    -0.380667246161E+03   -0.30638E-03   -0.31488E-03  9828   0.489E-03-0.109E-03
CGA:   8    -0.380667377321E+03   -0.13116E-03   -0.13012E-03  9828   0.196E-03 0.156E-04
CGA:   9    -0.380667445649E+03   -0.68329E-04   -0.97732E-04  9828   0.246E-03-0.117E-03
CGA:  10    -0.380667474264E+03   -0.28615E-04   -0.33701E-04  9828   0.366E-04 0.479E-04
CGA:  11    -0.380667483526E+03   -0.92619E-05   -0.22964E-04  9828   0.884E-04-0.479E-04
CGA:  12    -0.380667499308E+03   -0.15782E-04   -0.16670E-04  9828   0.744E-05 0.137E-04
CGA:  13    -0.380667505212E+03   -0.59038E-05    0.28850E-05  9828   0.361E-05 0.147E-05
  21 F= -.38066751E+03 E0= -.38066751E+03  d E =-.628947E-02  mag=     4.0000
       N       E                     dE             d eps       ncg     rms          ort
SDA:   1    -0.380457769811E+03    0.20973E+00    0.00000E+00  9828   0.488E+00 0.000E+00
CGA:   2    -0.380633987335E+03   -0.17622E+00   -0.17634E+00  9828   0.149E+00-0.106E-02
CGA:   3    -0.380662771930E+03   -0.28785E-01   -0.28765E-01  9828   0.277E-01-0.322E-03
CGA:   4    -0.380667829767E+03   -0.50578E-02   -0.50681E-02  9828   0.610E-02 0.168E-03
CGA:   5    -0.380669066296E+03   -0.12365E-02   -0.12454E-02  9828   0.133E-02 0.192E-03
CGA:   6    -0.380669412063E+03   -0.34577E-03   -0.34602E-03  9828   0.416E-03-0.550E-04
CGA:   7    -0.380669525706E+03   -0.11364E-03   -0.11542E-03  9828   0.187E-03-0.420E-04
CGA:   8    -0.380669570625E+03   -0.44919E-04   -0.44781E-04  9828   0.694E-04 0.821E-05
CGA:   9    -0.380669593217E+03   -0.22593E-04   -0.23132E-04  9828   0.330E-04-0.758E-05
CGA:  10    -0.380669598931E+03   -0.57137E-05   -0.59899E-05  9828   0.903E-05 0.552E-05
  22 F= -.38066960E+03 E0= -.38066960E+03  d E =-.209372E-02  mag=     4.0000
       N       E                     dE             d eps       ncg     rms          ort
SDA:   1    -0.374959410786E+03    0.57102E+01    0.00000E+00  9828   0.132E+02 0.000E+00
CGA:   2    -0.379746570134E+03   -0.47872E+01   -0.47887E+01  9828   0.372E+01-0.126E-01
CGA:   3    -0.380492713256E+03   -0.74614E+00   -0.74615E+00  9828   0.679E+00-0.199E-02
CGA:   4    -0.380620130662E+03   -0.12742E+00   -0.12758E+00  9828   0.157E+00 0.220E-02
CGA:   5    -0.380652108061E+03   -0.31977E-01   -0.32033E-01  9828   0.381E-01 0.844E-03
CGA:   6    -0.380661225212E+03   -0.91172E-02   -0.91019E-02  9828   0.108E-01-0.506E-03
CGA:   7    -0.380664274266E+03   -0.30491E-02   -0.30540E-02  9828   0.426E-02-0.230E-03
CGA:   8    -0.380665618752E+03   -0.13445E-02   -0.13431E-02  9828   0.172E-02 0.255E-04
CGA:   9    -0.380666165061E+03   -0.54631E-03   -0.54759E-03  9828   0.623E-03-0.273E-04
CGA:  10    -0.380666318975E+03   -0.15391E-03   -0.15486E-03  9828   0.189E-03 0.490E-04
CGA:  11    -0.380666387583E+03   -0.68608E-04   -0.72377E-04  9828   0.143E-03-0.455E-04
CGA:  12    -0.380666402030E+03   -0.14447E-04   -0.18650E-04  9828   0.713E-04 0.405E-04
CGA:  13    -0.380666413617E+03   -0.11586E-04   -0.15298E-04  9828   0.454E-04 0.359E-04
CGA:  14    -0.380666420517E+03   -0.68999E-05   -0.31143E-04  9828   0.311E-03-0.574E-04
CGA:  15    -0.380666437366E+03   -0.16849E-04   -0.29730E-04  9828   0.262E-04 0.705E-04
CGA:  16    -0.380666436297E+03    0.10690E-05   -0.24242E-05  9828   0.138E-04 0.174E-04
  23 F= -.38066644E+03 E0= -.38066644E+03  d E =0.316263E-02  mag=     4.0000
       N       E                     dE             d eps       ncg     rms          ort
SDA:   1    -0.375725666538E+03    0.49408E+01    0.00000E+00  9828   0.109E+02 0.000E+00
CGA:   2    -0.379263573334E+03   -0.35379E+01   -0.35348E+01  9828   0.382E+01 0.376E-01
CGA:   3    -0.380039259119E+03   -0.77569E+00   -0.77515E+00  9828   0.102E+01-0.495E-02
CGA:   4    -0.380231391024E+03   -0.19213E+00   -0.19163E+00  9828   0.198E+00 0.405E-02
CGA:   5    -0.380274891845E+03   -0.43501E-01   -0.43504E-01  9828   0.572E-01 0.102E-04
CGA:   6    -0.380289749316E+03   -0.14857E-01   -0.14857E-01  9828   0.208E-01 0.318E-03
CGA:   7    -0.380295329810E+03   -0.55805E-02   -0.55791E-02  9828   0.803E-02 0.163E-03
CGA:   8    -0.380297674033E+03   -0.23442E-02   -0.23431E-02  9828   0.339E-02 0.451E-04
CGA:   9    -0.380298522161E+03   -0.84813E-03   -0.84992E-03  9828   0.122E-02 0.191E-03
CGA:  10    -0.380298895148E+03   -0.37299E-03   -0.37122E-03  9828   0.453E-03 0.603E-04
CGA:  11    -0.380299050925E+03   -0.15578E-03   -0.14924E-03  9828   0.223E-03 0.120E-03
CGA:  12    -0.380299167209E+03   -0.11628E-03   -0.10289E-03  9828   0.175E-03 0.128E-03
CGA:  13    -0.380299277192E+03   -0.10998E-03   -0.11738E-03  9828   0.317E-03-0.210E-04
CGA:  14    -0.380299411487E+03   -0.13429E-03   -0.12020E-03  9828   0.332E-03 0.910E-04
CGA:  15    -0.380299635642E+03   -0.22416E-03   -0.37729E-03  9828   0.168E-02-0.292E-03
CGA:  16    -0.380299866192E+03   -0.23055E-03   -0.26119E-03  9828   0.274E-03 0.193E-03
CGA:  17    -0.380299975061E+03   -0.10887E-03   -0.13373E-03  9828   0.395E-03-0.204E-03
CGA:  18    -0.380300024256E+03   -0.49195E-04   -0.63820E-04  9828   0.864E-04 0.920E-04
CGA:  19    -0.380299219830E+03    0.80443E-03   -0.43347E-03  9828   0.500E-02-0.605E-03
CGA:  20    -0.380300095001E+03   -0.87517E-03   -0.96910E-03  9828   0.888E-03 0.315E-03
CGA:  21    -0.380300352530E+03   -0.25753E-03   -0.19331E-03  9828   0.151E-03-0.185E-03
CGA:  22    -0.380300357566E+03   -0.50361E-05   -0.19263E-04  9828   0.415E-04 0.392E-04
CGA:  23    -0.380300373371E+03   -0.15804E-04   -0.17528E-04  9828   0.610E-04 0.933E-05
CGA:  24    -0.380300484446E+03   -0.11107E-03    0.41294E-04  9828   0.179E-03-0.169E-04
CGA:  25    -0.380300692287E+03   -0.20784E-03    0.57237E-04  9828   0.534E-03-0.645E-04
CGA:  26    -0.380300838372E+03   -0.14608E-03   -0.57089E-04  9828   0.434E-03-0.157E-03
CGA:  27    -0.380300941504E+03   -0.10313E-03   -0.46280E-04  9828   0.374E-03-0.105E-03
CGA:  28    -0.380301063144E+03   -0.12164E-03   -0.50409E-04  9828   0.251E-03-0.197E-03
CGA:  29    -0.380301193131E+03   -0.12999E-03   -0.17687E-03  9828   0.101E-02-0.187E-03
CGA:  30    -0.380301247495E+03   -0.54364E-04   -0.11182E-03  9828   0.773E-04 0.176E-03
CGA:  31    -0.380301250012E+03   -0.25168E-05   -0.12512E-04  9828   0.361E-04 0.318E-04
CGA:  32    -0.380301265341E+03   -0.15329E-04   -0.14612E-04  9828   0.363E-04-0.460E-05
CGA:  33    -0.380301276622E+03   -0.11281E-04   -0.10698E-04  9828   0.574E-04-0.610E-05
CGA:  34    -0.380301277567E+03   -0.94472E-06   -0.56886E-05  9828   0.332E-04 0.154E-04
  24 F= -.38030128E+03 E0= -.38030128E+03  d E =0.365159E+00  mag=     4.0000
       N       E                     dE             d eps       ncg     rms          ort
SDA:   1    -0.379583357954E+03    0.71792E+00    0.00000E+00  9828   0.238E+01 0.000E+00
CGA:   2    -0.380392228131E+03   -0.80887E+00   -0.80869E+00  9828   0.763E+00-0.237E-02
CGA:   3    -0.380549309577E+03   -0.15708E+00   -0.15712E+00  9828   0.217E+00 0.656E-03
CGA:   4    -0.380589683789E+03   -0.40374E-01   -0.40149E-01  9828   0.393E-01-0.797E-03
CGA:   5    -0.380598819679E+03   -0.91359E-02   -0.91563E-02  9828   0.118E-01 0.179E-03
CGA:   6    -0.380601928022E+03   -0.31083E-02   -0.31013E-02  9828   0.451E-02-0.662E-04
CGA:   7    -0.380603164019E+03   -0.12360E-02   -0.12249E-02  9828   0.182E-02-0.122E-03
CGA:   8    -0.380603713476E+03   -0.54946E-03   -0.54367E-03  9828   0.762E-03-0.115E-03
CGA:   9    -0.380603925490E+03   -0.21201E-03   -0.20548E-03  9828   0.351E-03-0.949E-04
CGA:  10    -0.380604011909E+03   -0.86420E-04   -0.84099E-04  9828   0.127E-03-0.298E-04
CGA:  11    -0.380604029237E+03   -0.17328E-04   -0.10002E-03  9828   0.539E-03-0.159E-03
CGA:  12    -0.380604111332E+03   -0.82094E-04   -0.92547E-04  9828   0.972E-04 0.535E-04
CGA:  13    -0.380604143490E+03   -0.32158E-04   -0.31564E-04  9828   0.495E-04-0.850E-05
CGA:  14    -0.380604151779E+03   -0.82898E-05   -0.10739E-04  9828   0.251E-04 0.202E-04
  25 F= -.38060415E+03 E0= -.38060415E+03  d E =-.302874E+00  mag=     4.0000
       N       E                     dE             d eps       ncg     rms          ort
SDA:   1    -0.380322062640E+03    0.28208E+00    0.00000E+00  9828   0.809E+00 0.000E+00
CGA:   2    -0.380593807902E+03   -0.27175E+00   -0.27173E+00  9828   0.262E+00-0.741E-03
CGA:   3    -0.380647943649E+03   -0.54136E-01   -0.54212E-01  9828   0.746E-01 0.543E-03
CGA:   4    -0.380661564606E+03   -0.13621E-01   -0.13636E-01  9828   0.135E-01 0.703E-03
CGA:   5    -0.380664689567E+03   -0.31250E-02   -0.31283E-02  9828   0.410E-02 0.382E-04
CGA:   6    -0.380665752398E+03   -0.10628E-02   -0.10670E-02  9828   0.154E-02 0.633E-04
CGA:   7    -0.380666150508E+03   -0.39811E-03   -0.40340E-03  9828   0.598E-03 0.842E-04
CGA:   8    -0.380666326978E+03   -0.17647E-03   -0.17872E-03  9828   0.254E-03 0.613E-04
CGA:   9    -0.380666380269E+03   -0.53291E-04   -0.61524E-04  9828   0.983E-04 0.843E-04
CGA:  10    -0.380666405771E+03   -0.25501E-04   -0.30282E-04  9828   0.521E-04 0.584E-04
CGA:  11    -0.380666417858E+03   -0.12088E-04   -0.13486E-04  9828   0.375E-04 0.279E-04
CGA:  12    -0.380666420722E+03   -0.28633E-05   -0.65297E-05  9828   0.306E-04 0.277E-04
  26 F= -.38066642E+03 E0= -.38066642E+03  d E =-.622689E-01  mag=     4.0000
       N       E                     dE             d eps       ncg     rms          ort
SDA:   1    -0.380584030549E+03    0.82387E-01    0.00000E+00  9828   0.214E+00 0.000E+00
CGA:   2    -0.380654857910E+03   -0.70827E-01   -0.70852E-01  9828   0.686E-01-0.669E-03
CGA:   3    -0.380669203013E+03   -0.14345E-01   -0.14412E-01  9828   0.189E-01 0.781E-03
CGA:   4    -0.380672573959E+03   -0.33709E-02   -0.34509E-02  9828   0.368E-02 0.759E-03
CGA:   5    -0.380673407128E+03   -0.83317E-03   -0.83790E-03  9828   0.113E-02 0.692E-04
CGA:   6    -0.380673716627E+03   -0.30950E-03   -0.31010E-03  9828   0.442E-03 0.408E-04
CGA:   7    -0.380673825306E+03   -0.10868E-03   -0.11229E-03  9828   0.177E-03 0.925E-04
CGA:   8    -0.380673874219E+03   -0.48913E-04   -0.51983E-04  9828   0.904E-04 0.792E-04
CGA:   9    -0.380673888699E+03   -0.14479E-04   -0.23002E-04  9828   0.563E-04 0.811E-04
CGA:  10    -0.380673896734E+03   -0.80353E-05   -0.11142E-04  9828   0.380E-04 0.402E-04
  27 F= -.38067390E+03 E0= -.38067390E+03  d E =-.747601E-02  mag=     4.0000
       N       E                     dE             d eps       ncg     rms          ort
SDA:   1    -0.380665711944E+03    0.81768E-02    0.00000E+00  9828   0.247E-01 0.000E+00
CGA:   2    -0.380673706207E+03   -0.79943E-02   -0.80317E-02  9828   0.929E-02-0.655E-03
CGA:   3    -0.380675392495E+03   -0.16863E-02   -0.17200E-02  9828   0.223E-02 0.420E-03
CGA:   4    -0.380675774780E+03   -0.38228E-03   -0.41030E-03  9828   0.419E-03 0.310E-03
CGA:   5    -0.380675860308E+03   -0.85528E-04   -0.92624E-04  9828   0.131E-03 0.103E-03
CGA:   6    -0.380675908504E+03   -0.48196E-04   -0.47503E-04  9828   0.868E-04 0.214E-04
CGA:   7    -0.380675936577E+03   -0.28073E-04   -0.27724E-04  9828   0.592E-04 0.240E-04
CGA:   8    -0.380675946630E+03   -0.10053E-04   -0.13828E-04  9828   0.421E-04 0.472E-04
CGA:   9    -0.380675951437E+03   -0.48066E-05   -0.72597E-05  9828   0.260E-04 0.286E-04
  28 F= -.38067595E+03 E0= -.38067595E+03  d E =-.205470E-02  mag=     4.0000
       N       E                     dE             d eps       ncg     rms          ort
SDA:   1    -0.380658548469E+03    0.17398E-01    0.00000E+00  9828   0.460E-01 0.000E+00
CGA:   2    -0.380673184350E+03   -0.14636E-01   -0.14696E-01  9828   0.186E-01-0.850E-03
CGA:   3    -0.380676591568E+03   -0.34072E-02   -0.34321E-02  9828   0.420E-02 0.391E-03
CGA:   4    -0.380677334800E+03   -0.74323E-03   -0.76870E-03  9828   0.754E-03 0.367E-03
CGA:   5    -0.380677495811E+03   -0.16101E-03   -0.16605E-03  9828   0.208E-03 0.114E-03
CGA:   6    -0.380677571948E+03   -0.76137E-04   -0.78804E-04  9828   0.148E-03-0.316E-04
CGA:   7    -0.380677604453E+03   -0.32505E-04   -0.32589E-04  9828   0.784E-04-0.743E-05
CGA:   8    -0.380677617789E+03   -0.13336E-04   -0.14821E-04  9828   0.417E-04 0.292E-04
CGA:   9    -0.380677624309E+03   -0.65195E-05   -0.91274E-05  9828   0.251E-04 0.296E-04
  29 F= -.38067762E+03 E0= -.38067762E+03  d E =-.167287E-02  mag=     4.0000
       N       E                     dE             d eps       ncg     rms          ort
SDA:   1    -0.380675365379E+03    0.22524E-02    0.00000E+00  9828   0.683E-02 0.000E+00
CGA:   2    -0.380677368727E+03   -0.20033E-02   -0.20079E-02  9828   0.313E-02-0.810E-04
CGA:   3    -0.380677936169E+03   -0.56744E-03   -0.57209E-03  9828   0.553E-03 0.822E-04
CGA:   4    -0.380678032289E+03   -0.96120E-04   -0.98783E-04  9828   0.106E-03 0.410E-04
CGA:   5    -0.380678052166E+03   -0.19877E-04   -0.21215E-04  9828   0.299E-04 0.262E-04
CGA:   6    -0.380678059503E+03   -0.73362E-05   -0.76835E-05  9828   0.147E-04 0.125E-04
  30 F= -.38067806E+03 E0= -.38067806E+03  d E =-.435194E-03  mag=     4.0000
       N       E                     dE             d eps       ncg     rms          ort
SDA:   1    -0.380603297821E+03    0.74754E-01    0.00000E+00  9828   0.185E+00 0.000E+00
CGA:   2    -0.380664239107E+03   -0.60941E-01   -0.60866E-01  9828   0.657E-01 0.771E-03
CGA:   3    -0.380677185991E+03   -0.12947E-01   -0.12935E-01  9828   0.123E-01-0.294E-03
CGA:   4    -0.380679513074E+03   -0.23271E-02   -0.23121E-02  9828   0.277E-02-0.325E-03
CGA:   5    -0.380680061764E+03   -0.54869E-03   -0.54742E-03  9828   0.659E-03-0.438E-04
CGA:   6    -0.380680198399E+03   -0.13663E-03   -0.13768E-03  9828   0.156E-03 0.584E-04
CGA:   7    -0.380680238460E+03   -0.40061E-04   -0.39895E-04  9828   0.551E-04 0.323E-04
CGA:   8    -0.380680257514E+03   -0.19054E-04   -0.18256E-04  9828   0.272E-04 0.177E-04
CGA:   9    -0.380680267835E+03   -0.10321E-04   -0.98401E-05  9828   0.134E-04 0.114E-04
CGA:  10    -0.380680269091E+03   -0.12569E-05   -0.25683E-05  9828   0.810E-05 0.132E-04
  31 F= -.38068027E+03 E0= -.38068027E+03  d E =-.220959E-02  mag=     4.0000
       N       E                     dE             d eps       ncg     rms          ort
SDA:   1    -0.380626002907E+03    0.54265E-01    0.00000E+00  9828   0.129E+00 0.000E+00
CGA:   2    -0.380671500480E+03   -0.45498E-01   -0.45706E-01  9828   0.424E-01-0.157E-02
CGA:   3    -0.380679584688E+03   -0.80842E-02   -0.81186E-02  9828   0.835E-02 0.100E-02
CGA:   4    -0.380681050787E+03   -0.14661E-02   -0.14904E-02  9828   0.164E-02 0.472E-03
CGA:   5    -0.380681421921E+03   -0.37113E-03   -0.37202E-03  9828   0.434E-03 0.936E-04
CGA:   6    -0.380681556840E+03   -0.13492E-03   -0.14406E-03  9828   0.235E-03-0.101E-03
CGA:   7    -0.380681600757E+03   -0.43917E-04   -0.44106E-04  9828   0.916E-04-0.114E-04
CGA:   8    -0.380681616534E+03   -0.15777E-04   -0.16834E-04  9828   0.360E-04 0.295E-04
CGA:   9    -0.380681621678E+03   -0.51437E-05   -0.69678E-05  9828   0.162E-04 0.226E-04
  32 F= -.38068162E+03 E0= -.38068162E+03  d E =-.135259E-02  mag=     4.0000
       N       E                     dE             d eps       ncg     rms          ort
SDA:   1    -0.380671206883E+03    0.10410E-01    0.00000E+00  9828   0.280E-01 0.000E+00
CGA:   2    -0.380680991522E+03   -0.97846E-02   -0.97587E-02  9828   0.854E-02 0.207E-03
CGA:   3    -0.380682709029E+03   -0.17175E-02   -0.17189E-02  9828   0.183E-02 0.531E-04
CGA:   4    -0.380683041285E+03   -0.33226E-03   -0.33345E-03  9828   0.387E-03 0.299E-04
CGA:   5    -0.380683129077E+03   -0.87792E-04   -0.87791E-04  9828   0.106E-03-0.179E-05
CGA:   6    -0.380683148186E+03   -0.19109E-04   -0.19985E-04  9828   0.289E-04 0.256E-04
CGA:   7    -0.380683153276E+03   -0.50900E-05   -0.59936E-05  9828   0.131E-04 0.164E-04
  33 F= -.38068315E+03 E0= -.38068315E+03  d E =-.153160E-02  mag=     4.0000
       N       E                     dE             d eps       ncg     rms          ort
SDA:   1    -0.380598261874E+03    0.84886E-01    0.00000E+00  9828   0.202E+00 0.000E+00
CGA:   2    -0.380671251140E+03   -0.72989E-01   -0.72897E-01  9828   0.560E-01 0.639E-03
CGA:   3    -0.380682947432E+03   -0.11696E-01   -0.11689E-01  9828   0.104E-01-0.451E-03
CGA:   4    -0.380684873615E+03   -0.19262E-02   -0.19225E-02  9828   0.246E-02-0.973E-04
CGA:   5    -0.380685364202E+03   -0.49059E-03   -0.49128E-03  9828   0.556E-03 0.358E-04
CGA:   6    -0.380685490935E+03   -0.12673E-03   -0.12656E-03  9828   0.148E-03 0.436E-04
CGA:   7    -0.380685535983E+03   -0.45048E-04   -0.44508E-04  9828   0.661E-04 0.920E-05
CGA:   8    -0.380685553890E+03   -0.17907E-04   -0.17432E-04  9828   0.265E-04 0.194E-04
CGA:   9    -0.380685561245E+03   -0.73546E-05   -0.74506E-05  9828   0.113E-04 0.135E-04
  34 F= -.38068556E+03 E0= -.38068556E+03  d E =-.240797E-02  mag=     4.0000
       N       E                     dE             d eps       ncg     rms          ort
SDA:   1    -0.379446872918E+03    0.12387E+01    0.00000E+00  9828   0.291E+01 0.000E+00
CGA:   2    -0.380473423599E+03   -0.10266E+01   -0.10268E+01  9828   0.907E+00-0.149E-02
CGA:   3    -0.380652999321E+03   -0.17958E+00   -0.17959E+00  9828   0.162E+00 0.649E-03
CGA:   4    -0.380682690356E+03   -0.29691E-01   -0.29710E-01  9828   0.368E-01 0.472E-03
CGA:   5    -0.380690319255E+03   -0.76289E-02   -0.76277E-02  9828   0.881E-02-0.639E-04
CGA:   6    -0.380692419134E+03   -0.20999E-02   -0.21020E-02  9828   0.247E-02-0.130E-03
CGA:   7    -0.380693119221E+03   -0.70009E-03   -0.70729E-03  9828   0.105E-02-0.106E-03
CGA:   8    -0.380693461946E+03   -0.34273E-03   -0.34961E-03  9828   0.495E-03-0.563E-04
CGA:   9    -0.380693604355E+03   -0.14241E-03   -0.14075E-03  9828   0.164E-03 0.246E-04
CGA:  10    -0.380693657788E+03   -0.53433E-04   -0.53305E-04  9828   0.690E-04 0.178E-05
CGA:  11    -0.380693670512E+03   -0.12725E-04   -0.13817E-04  9828   0.302E-04 0.260E-04
CGA:  12    -0.380693684138E+03   -0.13626E-04   -0.12951E-04  9828   0.223E-04 0.906E-05
CGA:  13    -0.380693693886E+03   -0.97475E-05   -0.91126E-05  9828   0.214E-04 0.853E-05
  35 F= -.38069369E+03 E0= -.38069369E+03  d E =-.813264E-02  mag=     4.0000
       N       E                     dE             d eps       ncg     rms          ort
SDA:   1    -0.375793240674E+03    0.49004E+01    0.00000E+00  9828   0.115E+02 0.000E+00
CGA:   2    -0.379807698475E+03   -0.40145E+01   -0.40152E+01  9828   0.361E+01-0.457E-02
CGA:   3    -0.380525472919E+03   -0.71777E+00   -0.71777E+00  9828   0.651E+00-0.140E-02
CGA:   4    -0.380645261597E+03   -0.11979E+00   -0.11984E+00  9828   0.150E+00 0.112E-02
CGA:   5    -0.380676104574E+03   -0.30843E-01   -0.30842E-01  9828   0.367E-01-0.128E-04
CGA:   6    -0.380684908133E+03   -0.88036E-02   -0.88046E-02  9828   0.106E-01-0.568E-03
CGA:   7    -0.380687946196E+03   -0.30381E-02   -0.30653E-02  9828   0.452E-02-0.493E-03
CGA:   8    -0.380689444296E+03   -0.14981E-02   -0.15446E-02  9828   0.217E-02-0.396E-03
CGA:   9    -0.380690083332E+03   -0.63904E-03   -0.65025E-03  9828   0.763E-03-0.139E-03
CGA:  10    -0.380690324221E+03   -0.24089E-03   -0.25462E-03  9828   0.330E-03-0.130E-03
CGA:  11    -0.380690414337E+03   -0.90115E-04   -0.90423E-04  9828   0.169E-03-0.422E-05
CGA:  12    -0.380689768749E+03    0.64559E-03   -0.34997E-03  9828   0.498E-02-0.660E-03
CGA:  13    -0.380690411989E+03   -0.64324E-03   -0.71839E-03  9828   0.662E-03 0.311E-03
CGA:  14    -0.380690595179E+03   -0.18319E-03   -0.17974E-03  9828   0.111E-03-0.162E-04
CGA:  15    -0.380690621239E+03   -0.26059E-04   -0.29416E-04  9828   0.452E-04 0.193E-04
CGA:  16    -0.380690632256E+03   -0.11018E-04   -0.13069E-04  9828   0.188E-04 0.107E-04
CGA:  17    -0.380690642810E+03   -0.10554E-04   -0.10486E-04  9828   0.132E-04 0.320E-05
CGA:  18    -0.380690643411E+03   -0.60039E-06   -0.28981E-05  9828   0.829E-05 0.943E-05
  36 F= -.38069064E+03 E0= -.38069064E+03  d E =0.305047E-02  mag=     4.0000
       N       E                     dE             d eps       ncg     rms          ort
SDA:   1    -0.378838166465E+03    0.18525E+01    0.00000E+00  9828   0.441E+01 0.000E+00
CGA:   2    -0.380311757655E+03   -0.14736E+01   -0.14738E+01  9828   0.161E+01 0.214E-02
CGA:   3    -0.380620934847E+03   -0.30918E+00   -0.30831E+00  9828   0.306E+00-0.376E-02
CGA:   4    -0.380676438668E+03   -0.55504E-01   -0.55320E-01  9828   0.665E-01-0.914E-03
CGA:   5    -0.380690278716E+03   -0.13840E-01   -0.13835E-01  9828   0.160E-01-0.195E-05
CGA:   6    -0.380694076851E+03   -0.37981E-02   -0.37974E-02  9828   0.459E-02-0.459E-05
CGA:   7    -0.380695328029E+03   -0.12512E-02   -0.12489E-02  9828   0.179E-02-0.202E-04
CGA:   8    -0.380695945483E+03   -0.61745E-03   -0.61291E-03  9828   0.103E-02-0.186E-03
CGA:   9    -0.380696234186E+03   -0.28870E-03   -0.27816E-03  9828   0.496E-03-0.158E-03
CGA:  10    -0.380696369109E+03   -0.13492E-03   -0.12739E-03  9828   0.229E-03-0.124E-03
CGA:  11    -0.380696428653E+03   -0.59544E-04   -0.58402E-04  9828   0.126E-03-0.561E-04
CGA:  12    -0.380696461723E+03   -0.33070E-04   -0.32947E-04  9828   0.705E-04-0.101E-04
CGA:  13    -0.380696466454E+03   -0.47306E-05   -0.58202E-04  9828   0.361E-03-0.987E-04
CGA:  14    -0.380696510278E+03   -0.43824E-04   -0.52067E-04  9828   0.535E-04 0.365E-04
CGA:  15    -0.380696530955E+03   -0.20677E-04   -0.20093E-04  9828   0.205E-04-0.177E-04
CGA:  16    -0.380696534860E+03   -0.39051E-05   -0.41388E-05  9828   0.796E-05 0.330E-05
  37 F= -.38069653E+03 E0= -.38069653E+03  d E =-.589145E-02  mag=     4.0000
       N       E                     dE             d eps       ncg     rms          ort
SDA:   1    -0.380117040753E+03    0.57949E+00    0.00000E+00  9828   0.135E+01 0.000E+00
CGA:   2    -0.380575857138E+03   -0.45882E+00   -0.45872E+00  9828   0.453E+00-0.312E-02
CGA:   3    -0.380666333707E+03   -0.90477E-01   -0.90785E-01  9828   0.994E-01 0.200E-02
CGA:   4    -0.380684155456E+03   -0.17822E-01   -0.17990E-01  9828   0.196E-01 0.144E-02
CGA:   5    -0.380688490267E+03   -0.43348E-02   -0.43324E-02  9828   0.532E-02-0.184E-04
CGA:   6    -0.380689855162E+03   -0.13649E-02   -0.13580E-02  9828   0.178E-02-0.782E-04
CGA:   7    -0.380690338807E+03   -0.48364E-03   -0.48225E-03  9828   0.721E-03-0.212E-04
CGA:   8    -0.380690518703E+03   -0.17990E-03   -0.18762E-03  9828   0.251E-03 0.110E-03
CGA:   9    -0.380690579328E+03   -0.60626E-04   -0.67981E-04  9828   0.881E-04 0.778E-04
CGA:  10    -0.380690607289E+03   -0.27961E-04   -0.29963E-04  9828   0.367E-04 0.304E-04
CGA:  11    -0.380690612242E+03   -0.49527E-05   -0.89440E-05  9828   0.203E-04 0.283E-04
  38 F= -.38069061E+03 E0= -.38069061E+03  d E =0.592262E-02  mag=     4.0000
       N       E                     dE             d eps       ncg     rms          ort
SDA:   1    -0.380303902605E+03    0.38670E+00    0.00000E+00  9828   0.936E+00 0.000E+00
CGA:   2    -0.380624441676E+03   -0.32054E+00   -0.32051E+00  9828   0.313E+00 0.788E-03
CGA:   3    -0.380686818005E+03   -0.62376E-01   -0.62284E-01  9828   0.606E-01-0.806E-03
CGA:   4    -0.380697895443E+03   -0.11077E-01   -0.11029E-01  9828   0.132E-01-0.377E-03
CGA:   5    -0.380700624019E+03   -0.27286E-02   -0.27288E-02  9828   0.323E-02 0.519E-05
CGA:   6    -0.380701410413E+03   -0.78639E-03   -0.78525E-03  9828   0.950E-03-0.222E-04
CGA:   7    -0.380701677418E+03   -0.26700E-03   -0.26669E-03  9828   0.396E-03-0.356E-04
CGA:   8    -0.380701819003E+03   -0.14159E-03   -0.15718E-03  9828   0.319E-03-0.129E-03
CGA:   9    -0.380701876739E+03   -0.57735E-04   -0.55910E-04  9828   0.126E-03-0.473E-04
CGA:  10    -0.380701903500E+03   -0.26762E-04   -0.26425E-04  9828   0.425E-04-0.684E-05
CGA:  11    -0.380701917842E+03   -0.14342E-04   -0.18740E-04  9828   0.492E-04-0.253E-04
CGA:  12    -0.380701927430E+03   -0.95877E-05   -0.99280E-05  9828   0.113E-04 0.354E-05
  39 F= -.38070193E+03 E0= -.38070193E+03  d E =-.113152E-01  mag=     4.0000
       N       E                     dE             d eps       ncg     rms          ort
SDA:   1    -0.380577034454E+03    0.12488E+00    0.00000E+00  9828   0.297E+00 0.000E+00
CGA:   2    -0.380681505836E+03   -0.10447E+00   -0.10447E+00  9828   0.938E-01 0.728E-04
CGA:   3    -0.380700021788E+03   -0.18516E-01   -0.18524E-01  9828   0.168E-01 0.825E-04
CGA:   4    -0.380703101596E+03   -0.30798E-02   -0.30762E-02  9828   0.381E-02-0.318E-04
CGA:   5    -0.380703877756E+03   -0.77616E-03   -0.77671E-03  9828   0.911E-03 0.680E-05
CGA:   6    -0.380704091140E+03   -0.21338E-03   -0.21310E-03  9828   0.247E-03-0.562E-05
CGA:   7    -0.380704165740E+03   -0.74600E-04   -0.75216E-04  9828   0.115E-03-0.249E-04
CGA:   8    -0.380704204073E+03   -0.38333E-04   -0.41526E-04  9828   0.715E-04-0.269E-04
CGA:   9    -0.380704221672E+03   -0.17599E-04   -0.17996E-04  9828   0.263E-04-0.998E-05
CGA:  10    -0.380704226775E+03   -0.51032E-05   -0.53194E-05  9828   0.811E-05 0.386E-05
  40 F= -.38070423E+03 E0= -.38070423E+03  d E =-.229934E-02  mag=     4.0000
       N       E                     dE             d eps       ncg     rms          ort
SDA:   1    -0.373113045814E+03    0.75912E+01    0.00000E+00  9828   0.171E+02 0.000E+00
CGA:   2    -0.378729540449E+03   -0.56165E+01   -0.56162E+01  9828   0.596E+01 0.558E-02
CGA:   3    -0.379918665978E+03   -0.11891E+01   -0.11905E+01  9828   0.148E+01 0.899E-02
CGA:   4    -0.380182109101E+03   -0.26344E+00   -0.25930E+00  9828   0.288E+00 0.253E-01
CGA:   5    -0.380244043777E+03   -0.61935E-01   -0.61946E-01  9828   0.910E-01-0.126E-02
CGA:   6    -0.380263867605E+03   -0.19824E-01   -0.19835E-01  9828   0.346E-01 0.124E-02
CGA:   7    -0.380272246347E+03   -0.83787E-02   -0.83372E-02  9828   0.145E-01-0.860E-03
CGA:   8    -0.380275602405E+03   -0.33561E-02   -0.33999E-02  9828   0.575E-02 0.110E-02
CGA:   9    -0.380277282554E+03   -0.16801E-02   -0.16787E-02  9828   0.276E-02-0.126E-03
CGA:  10    -0.380277663143E+03   -0.38059E-03   -0.45232E-03  9828   0.814E-03 0.660E-03
CGA:  11    -0.380277881357E+03   -0.21821E-03   -0.22946E-03  9828   0.310E-03 0.231E-03
CGA:  12    -0.380277984892E+03   -0.10353E-03   -0.10384E-03  9828   0.292E-03 0.232E-04
CGA:  13    -0.380277986748E+03   -0.18558E-05   -0.33190E-04  9828   0.172E-03 0.189E-03
CGA:  14    -0.380277987147E+03   -0.39946E-06   -0.17272E-04  9828   0.871E-04 0.104E-03
CGA:  15    -0.380277999270E+03   -0.12123E-04   -0.16466E-04  9828   0.570E-04 0.645E-04
CGA:  16    -0.380278000839E+03   -0.15689E-05   -0.76987E-05  9828   0.497E-04 0.519E-04
  41 F= -.38027800E+03 E0= -.38027800E+03  d E =0.426226E+00  mag=     4.0000
       N       E                     dE             d eps       ncg     rms          ort
SDA:   1    -0.376902774012E+03    0.33752E+01    0.00000E+00  9828   0.896E+01 0.000E+00
CGA:   2    -0.379852247374E+03   -0.29495E+01   -0.29486E+01  9828   0.314E+01 0.951E-02
CGA:   3    -0.380485768025E+03   -0.63352E+00   -0.63304E+00  9828   0.838E+00-0.144E-01
CGA:   4    -0.380643804259E+03   -0.15804E+00   -0.15745E+00  9828   0.154E+00-0.437E-02
CGA:   5    -0.380677769672E+03   -0.33965E-01   -0.33991E-01  9828   0.463E-01 0.132E-02
CGA:   6    -0.380689471882E+03   -0.11702E-01   -0.11704E-01  9828   0.180E-01-0.140E-03
CGA:   7    -0.380694171945E+03   -0.47001E-02   -0.47060E-02  9828   0.695E-02-0.241E-03
CGA:   8    -0.380696407045E+03   -0.22351E-02   -0.23993E-02  9828   0.420E-02-0.151E-02
CGA:   9    -0.380697211748E+03   -0.80470E-03   -0.80358E-03  9828   0.129E-02-0.369E-03
CGA:  10    -0.380697594600E+03   -0.38285E-03   -0.48554E-03  9828   0.883E-03-0.622E-03
CGA:  11    -0.380697707192E+03   -0.11259E-03   -0.21821E-03  9828   0.972E-03-0.477E-03
CGA:  12    -0.380697951231E+03   -0.24404E-03   -0.24108E-03  9828   0.478E-03-0.156E-03
CGA:  13    -0.380698022825E+03   -0.71593E-04   -0.75368E-04  9828   0.113E-03 0.502E-04
CGA:  14    -0.380698061940E+03   -0.39115E-04   -0.40354E-04  9828   0.102E-03-0.199E-04
CGA:  15    -0.380697910320E+03    0.15162E-03   -0.86726E-04  9828   0.162E-02-0.307E-03
CGA:  16    -0.380698086461E+03   -0.17614E-03   -0.19687E-03  9828   0.144E-03 0.134E-03
CGA:  17    -0.380698146932E+03   -0.60471E-04   -0.69929E-04  9828   0.115E-03-0.612E-04
CGA:  18    -0.380697941398E+03    0.20553E-03   -0.80553E-04  9828   0.200E-02-0.311E-03
CGA:  19    -0.380698153210E+03   -0.21181E-03   -0.23861E-03  9828   0.153E-03 0.149E-03
CGA:  20    -0.380698211816E+03   -0.58607E-04   -0.58309E-04  9828   0.828E-04 0.169E-04
CGA:  21    -0.380698236182E+03   -0.24366E-04   -0.21842E-04  9828   0.413E-04-0.248E-04
CGA:  22    -0.380698239753E+03   -0.35714E-05   -0.49629E-05  9828   0.142E-04 0.876E-05
  42 F= -.38069824E+03 E0= -.38069824E+03  d E =-.420239E+00  mag=     4.0000
       N       E                     dE             d eps       ncg     rms          ort
SDA:   1    -0.380688898432E+03    0.93378E-02    0.00000E+00  9828   0.335E-01 0.000E+00
CGA:   2    -0.380699668013E+03   -0.10770E-01   -0.10770E-01  9828   0.120E-01-0.162E-03
CGA:   3    -0.380702101014E+03   -0.24330E-02   -0.24140E-02  9828   0.312E-02-0.157E-03
CGA:   4    -0.380702643573E+03   -0.54256E-03   -0.55398E-03  9828   0.551E-03 0.928E-04
CGA:   5    -0.380702773314E+03   -0.12974E-03   -0.12934E-03  9828   0.163E-03-0.511E-05
CGA:   6    -0.380702823991E+03   -0.50677E-04   -0.51423E-04  9828   0.103E-03-0.435E-04
CGA:   7    -0.380702846967E+03   -0.22976E-04   -0.32059E-04  9828   0.125E-03-0.729E-04
CGA:   8    -0.380702863342E+03   -0.16375E-04   -0.18618E-04  9828   0.200E-04 0.142E-04
CGA:   9    -0.380702867855E+03   -0.45130E-05   -0.49657E-05  9828   0.544E-05 0.586E-05
CGA:  10    -0.380702872234E+03   -0.43794E-05    0.19927E-04  9828   0.294E-05-0.521E-06
  43 F= -.38070287E+03 E0= -.38070287E+03  d E =-.463248E-02  mag=     4.0000
       N       E                     dE             d eps       ncg     rms          ort
SDA:   1    -0.380600982846E+03    0.10189E+00    0.00000E+00  9828   0.263E+00 0.000E+00
CGA:   2    -0.380684784269E+03   -0.83801E-01   -0.83808E-01  9828   0.903E-01-0.364E-03
CGA:   3    -0.380704011198E+03   -0.19227E-01   -0.19202E-01  9828   0.201E-01-0.308E-03
CGA:   4    -0.380707676199E+03   -0.36650E-02   -0.36847E-02  9828   0.415E-02 0.187E-03
CGA:   5    -0.380708540912E+03   -0.86471E-03   -0.86984E-03  9828   0.111E-02 0.647E-04
CGA:   6    -0.380708852630E+03   -0.31172E-03   -0.31097E-03  9828   0.472E-03-0.975E-04
CGA:   7    -0.380708980713E+03   -0.12808E-03   -0.12914E-03  9828   0.219E-03-0.630E-04
CGA:   8    -0.380709039798E+03   -0.59085E-04   -0.59435E-04  9828   0.883E-04-0.118E-04
CGA:   9    -0.380709063437E+03   -0.23639E-04   -0.23649E-04  9828   0.310E-04 0.439E-05
CGA:  10    -0.380709073931E+03   -0.10494E-04   -0.10561E-04  9828   0.168E-04-0.171E-05
CGA:  11    -0.380709075060E+03   -0.11289E-05   -0.12616E-04  9828   0.813E-04-0.227E-04
CGA:  12    -0.380709083729E+03   -0.86687E-05   -0.10932E-04  9828   0.125E-04 0.131E-04
  44 F= -.38070908E+03 E0= -.38070908E+03  d E =-.621150E-02  mag=     4.0000
       N       E                     dE             d eps       ncg     rms          ort
SDA:   1    -0.380705972080E+03    0.31030E-02    0.00000E+00  9828   0.932E-02 0.000E+00
CGA:   2    -0.380709021789E+03   -0.30497E-02   -0.30434E-02  9828   0.260E-02 0.270E-03
CGA:   3    -0.380709689097E+03   -0.66731E-03   -0.65902E-03  9828   0.739E-03-0.143E-03
CGA:   4    -0.380709795696E+03   -0.10660E-03   -0.11088E-03  9828   0.139E-03 0.316E-04
CGA:   5    -0.380709826384E+03   -0.30688E-04   -0.31025E-04  9828   0.399E-04 0.416E-05
CGA:   6    -0.380709835396E+03   -0.90120E-05   -0.93550E-05  9828   0.146E-04 0.547E-05
  45 F= -.38070984E+03 E0= -.38070984E+03  d E =-.751667E-03  mag=     4.0000
       N       E                     dE             d eps       ncg     rms          ort
SDA:   1    -0.380703082627E+03    0.67438E-02    0.00000E+00  9828   0.199E-01 0.000E+00
CGA:   2    -0.380709419642E+03   -0.63370E-02   -0.63370E-02  9828   0.644E-02-0.853E-05
CGA:   3    -0.380710817747E+03   -0.13981E-02   -0.14038E-02  9828   0.110E-02 0.891E-04
CGA:   4    -0.380711020361E+03   -0.20261E-03   -0.20580E-03  9828   0.241E-03 0.341E-04
CGA:   5    -0.380711071058E+03   -0.50697E-04   -0.51216E-04  9828   0.613E-04 0.781E-05
CGA:   6    -0.380711087857E+03   -0.16799E-04   -0.16802E-04  9828   0.227E-04 0.583E-06
CGA:   7    -0.380711094271E+03   -0.64134E-05   -0.63833E-05  9828   0.105E-04 0.302E-05
  46 F= -.38071109E+03 E0= -.38071109E+03  d E =-.125887E-02  mag=     4.0000
       N       E                     dE             d eps       ncg     rms          ort
SDA:   1    -0.380412385712E+03    0.29870E+00    0.00000E+00  9828   0.757E+00 0.000E+00
CGA:   2    -0.380654529829E+03   -0.24214E+00   -0.24213E+00  9828   0.242E+00-0.553E-04
CGA:   3    -0.380708354099E+03   -0.53824E-01   -0.53845E-01  9828   0.402E-01 0.378E-03
CGA:   4    -0.380715788475E+03   -0.74344E-02   -0.74674E-02  9828   0.929E-02 0.388E-03
CGA:   5    -0.380717682730E+03   -0.18943E-02   -0.18949E-02  9828   0.231E-02 0.109E-04
CGA:   6    -0.380718288247E+03   -0.60552E-03   -0.60558E-03  9828   0.792E-03-0.688E-04
CGA:   7    -0.380718530755E+03   -0.24251E-03   -0.24543E-03  9828   0.438E-03-0.505E-04
CGA:   8    -0.380718671708E+03   -0.14095E-03   -0.14021E-03  9828   0.204E-03 0.938E-05
CGA:   9    -0.380718726978E+03   -0.55270E-04   -0.55369E-04  9828   0.659E-04 0.462E-04
CGA:  10    -0.380718756413E+03   -0.29434E-04   -0.30149E-04  9828   0.422E-04-0.686E-05
CGA:  11    -0.380718764118E+03   -0.77058E-05   -0.83272E-05  9828   0.199E-04 0.118E-04
  47 F= -.38071876E+03 E0= -.38071876E+03  d E =-.766985E-02  mag=     4.0000
       N       E                     dE             d eps       ncg     rms          ort
SDA:   1    -0.380550785704E+03    0.16797E+00    0.00000E+00  9828   0.418E+00 0.000E+00
CGA:   2    -0.380689142863E+03   -0.13836E+00   -0.13832E+00  9828   0.130E+00 0.509E-03
CGA:   3    -0.380717945087E+03   -0.28802E-01   -0.28797E-01  9828   0.215E-01-0.113E-03
CGA:   4    -0.380721792004E+03   -0.38469E-02   -0.39020E-02  9828   0.483E-02 0.627E-03
CGA:   5    -0.380722878842E+03   -0.10868E-02   -0.10807E-02  9828   0.122E-02-0.114E-03
CGA:   6    -0.380723181153E+03   -0.30231E-03   -0.30268E-03  9828   0.370E-03 0.281E-04
CGA:   7    -0.380723303379E+03   -0.12223E-03   -0.12291E-03  9828   0.215E-03-0.117E-04
CGA:   8    -0.380723361035E+03   -0.57655E-04   -0.57375E-04  9828   0.844E-04 0.432E-04
CGA:   9    -0.380723380370E+03   -0.19336E-04   -0.21738E-04  9828   0.341E-04 0.432E-04
CGA:  10    -0.380723391688E+03   -0.11318E-04   -0.10887E-04  9828   0.183E-04 0.819E-05
CGA:  11    -0.380723393769E+03   -0.20807E-05   -0.37637E-05  9828   0.112E-04 0.161E-04
  48 F= -.38072339E+03 E0= -.38072339E+03  d E =-.462965E-02  mag=     4.0000
       N       E                     dE             d eps       ncg     rms          ort
SDA:   1    -0.380665531953E+03    0.57860E-01    0.00000E+00  9828   0.142E+00 0.000E+00
CGA:   2    -0.380715634851E+03   -0.50103E-01   -0.50135E-01  9828   0.430E-01-0.382E-03
CGA:   3    -0.380724575170E+03   -0.89403E-02   -0.89507E-02  9828   0.721E-02 0.174E-03
CGA:   4    -0.380725975341E+03   -0.14002E-02   -0.13906E-02  9828   0.179E-02-0.130E-03
CGA:   5    -0.380726324147E+03   -0.34881E-03   -0.35196E-03  9828   0.408E-03 0.529E-04
CGA:   6    -0.380726445375E+03   -0.12123E-03   -0.12348E-03  9828   0.181E-03-0.620E-04
CGA:   7    -0.380726495119E+03   -0.49744E-04   -0.55374E-04  9828   0.140E-03-0.559E-04
CGA:   8    -0.380726522063E+03   -0.26945E-04   -0.27060E-04  9828   0.580E-04-0.795E-05
CGA:   9    -0.380726540638E+03   -0.18575E-04   -0.21378E-04  9828   0.456E-04-0.223E-04
CGA:  10    -0.380726545390E+03   -0.47511E-05   -0.51380E-05  9828   0.203E-04 0.438E-05
  49 F= -.38072655E+03 E0= -.38072655E+03  d E =-.315162E-02  mag=     4.0000
       N       E                     dE             d eps       ncg     rms          ort
SDA:   1    -0.380721801237E+03    0.47394E-02    0.00000E+00  9828   0.122E-01 0.000E+00
CGA:   2    -0.380725081512E+03   -0.32803E-02   -0.32806E-02  9828   0.430E-02-0.690E-04
CGA:   3    -0.380726013126E+03   -0.93161E-03   -0.93438E-03  9828   0.106E-02 0.612E-04
CGA:   4    -0.380726208641E+03   -0.19552E-03   -0.19392E-03  9828   0.226E-03-0.197E-04
CGA:   5    -0.380726258260E+03   -0.49619E-04   -0.48647E-04  9828   0.670E-04-0.257E-04
CGA:   6    -0.380726274315E+03   -0.16055E-04   -0.16253E-04  9828   0.276E-04-0.108E-04
CGA:   7    -0.380726281554E+03   -0.72399E-05   -0.77285E-05  9828   0.155E-04-0.634E-05
CGA:   8    -0.380726265825E+03    0.15730E-04   -0.13339E-04  9828   0.152E-03-0.340E-04
CGA:   9    -0.380726291712E+03   -0.25887E-04   -0.25400E-04  9828   0.173E-04-0.340E-05
CGA:  10    -0.380726294525E+03   -0.28130E-05   -0.32172E-05  9828   0.371E-05 0.385E-05
  50 F= -.38072629E+03 E0= -.38072629E+03  d E =0.250865E-03  mag=     4.0000
       N       E                     dE             d eps       ncg     rms          ort
SDA:   1    -0.380723297172E+03    0.29945E-02    0.00000E+00  9828   0.794E-02 0.000E+00
CGA:   2    -0.380725626034E+03   -0.23289E-02   -0.23287E-02  9828   0.304E-02 0.131E-04
CGA:   3    -0.380726235228E+03   -0.60919E-03   -0.61325E-03  9828   0.601E-03 0.495E-04
CGA:   4    -0.380726333902E+03   -0.98673E-04   -0.10350E-03  9828   0.109E-03 0.440E-04
CGA:   5    -0.380726360156E+03   -0.26255E-04   -0.26054E-04  9828   0.306E-04-0.396E-05
CGA:   6    -0.380726368667E+03   -0.85111E-05   -0.86661E-05  9828   0.140E-04-0.691E-05
  51 F= -.38072637E+03 E0= -.38072637E+03  d E =-.741424E-04  mag=     4.0000
       N       E                     dE             d eps       ncg     rms          ort
SDA:   1    -0.380552176461E+03    0.17418E+00    0.00000E+00  9828   0.412E+00 0.000E+00
CGA:   2    -0.380696304118E+03   -0.14413E+00   -0.14412E+00  9828   0.120E+00 0.454E-04
CGA:   3    -0.380721569249E+03   -0.25265E-01   -0.25254E-01  9828   0.218E-01-0.186E-03
CGA:   4    -0.380725662542E+03   -0.40933E-02   -0.40810E-02  9828   0.496E-02-0.146E-03
CGA:   5    -0.380726669750E+03   -0.10072E-02   -0.10060E-02  9828   0.119E-02-0.193E-04
CGA:   6    -0.380726968601E+03   -0.29885E-03   -0.29805E-03  9828   0.367E-03-0.704E-04
CGA:   7    -0.380727076543E+03   -0.10794E-03   -0.11168E-03  9828   0.196E-03-0.608E-04
CGA:   8    -0.380727133194E+03   -0.56650E-04   -0.80169E-04  9828   0.211E-03-0.104E-03
CGA:   9    -0.380727178783E+03   -0.45589E-04   -0.43988E-04  9828   0.444E-04-0.235E-04
CGA:  10    -0.380727183801E+03   -0.50181E-05   -0.65647E-05  9828   0.113E-04 0.146E-04
  52 F= -.38072718E+03 E0= -.38072718E+03  d E =-.815134E-03  mag=     4.0000
       N       E                     dE             d eps       ncg     rms          ort
SDA:   1    -0.380560867263E+03    0.16631E+00    0.00000E+00  9828   0.396E+00 0.000E+00
CGA:   2    -0.380694009547E+03   -0.13314E+00   -0.13307E+00  9828   0.127E+00 0.108E-02
CGA:   3    -0.380719653469E+03   -0.25644E-01   -0.25615E-01  9828   0.261E-01-0.400E-03
CGA:   4    -0.380724277473E+03   -0.46240E-02   -0.46496E-02  9828   0.523E-02 0.324E-03
CGA:   5    -0.380725435534E+03   -0.11581E-02   -0.11520E-02  9828   0.132E-02-0.131E-03
CGA:   6    -0.380725736089E+03   -0.30055E-03   -0.30150E-03  9828   0.356E-03 0.357E-04
CGA:   7    -0.380725830934E+03   -0.94845E-04   -0.94862E-04  9828   0.131E-03 0.343E-04
CGA:   8    -0.380725888804E+03   -0.57870E-04   -0.67753E-04  9828   0.136E-03-0.469E-04
CGA:   9    -0.380725897864E+03   -0.90597E-05   -0.12496E-04  9828   0.669E-04 0.273E-04
  53 F= -.38072590E+03 E0= -.38072590E+03  d E =0.128594E-02  mag=     4.0000
       N       E                     dE             d eps       ncg     rms          ort
SDA:   1    -0.380620461375E+03    0.10543E+00    0.00000E+00  9828   0.250E+00 0.000E+00
CGA:   2    -0.380709125323E+03   -0.88664E-01   -0.88757E-01  9828   0.681E-01-0.955E-03
CGA:   3    -0.380723785175E+03   -0.14660E-01   -0.14666E-01  9828   0.124E-01 0.145E-03
CGA:   4    -0.380726122457E+03   -0.23373E-02   -0.23423E-02  9828   0.285E-02 0.703E-04
CGA:   5    -0.380726696928E+03   -0.57447E-03   -0.57552E-03  9828   0.688E-03 0.195E-04
CGA:   6    -0.380726878377E+03   -0.18145E-03   -0.18199E-03  9828   0.222E-03-0.567E-04
CGA:   7    -0.380726939256E+03   -0.60879E-04   -0.62220E-04  9828   0.101E-03-0.261E-04
CGA:   8    -0.380726968335E+03   -0.29079E-04   -0.30242E-04  9828   0.446E-04-0.141E-04
CGA:   9    -0.380726979893E+03   -0.11558E-04   -0.11701E-04  9828   0.140E-04-0.324E-05
CGA:  10    -0.380726991755E+03   -0.11862E-04    0.23118E-05  9828   0.410E-05 0.331E-06
CGA:  11    -0.380726995097E+03   -0.33416E-05    0.10656E-05  9828   0.164E-05 0.354E-06
  54 F= -.38072700E+03 E0= -.38072700E+03  d E =-.109723E-02  mag=     4.0000
       N       E                     dE             d eps       ncg     rms          ort
SDA:   1    -0.380718468191E+03    0.85236E-02    0.00000E+00  9828   0.209E-01 0.000E+00
CGA:   2    -0.380725993694E+03   -0.75255E-02   -0.75435E-02  9828   0.662E-02-0.180E-03
CGA:   3    -0.380727277043E+03   -0.12833E-02   -0.12820E-02  9828   0.138E-02-0.145E-04
CGA:   4    -0.380727559247E+03   -0.28220E-03   -0.27578E-03  9828   0.322E-03-0.981E-04
CGA:   5    -0.380727608985E+03   -0.49738E-04   -0.53221E-04  9828   0.676E-04 0.424E-04
CGA:   6    -0.380727626549E+03   -0.17564E-04   -0.17705E-04  9828   0.236E-04 0.567E-05
CGA:   7    -0.380727639802E+03   -0.13253E-04    0.25050E-03  9828   0.108E-04 0.699E-06
CGA:   8    -0.380727642513E+03   -0.27113E-05   -0.65527E-05  9828   0.265E-04-0.115E-04
CGA:   9    -0.380727625775E+03    0.16738E-04   -0.17900E-04  9828   0.345E-03-0.854E-04
CGA:  10    -0.380727648592E+03   -0.22817E-04   -0.34879E-04  9828   0.195E-04 0.652E-04
CGA:  11    -0.380727649819E+03   -0.12271E-05   -0.24087E-05  9828   0.382E-05 0.664E-05
  55 F= -.38072765E+03 E0= -.38072765E+03  d E =-.654722E-03  mag=     4.0000
       N       E                     dE             d eps       ncg     rms          ort
SDA:   1    -0.380722868335E+03    0.47803E-02    0.00000E+00  9828   0.118E-01 0.000E+00
CGA:   2    -0.380727079456E+03   -0.42111E-02   -0.42036E-02  9828   0.334E-02 0.921E-04
CGA:   3    -0.380727767187E+03   -0.68773E-03   -0.68560E-03  9828   0.690E-03-0.279E-04
CGA:   4    -0.380727879705E+03   -0.11252E-03   -0.11657E-03  9828   0.133E-03 0.397E-04
CGA:   5    -0.380727912841E+03   -0.33136E-04   -0.32829E-04  9828   0.400E-04-0.866E-05
CGA:   6    -0.380727922378E+03   -0.95375E-05   -0.94619E-05  9828   0.140E-04-0.536E-05
  56 F= -.38072792E+03 E0= -.38072792E+03  d E =-.272560E-03  mag=     4.0000
       N       E                     dE             d eps       ncg     rms          ort
SDA:   1    -0.380631615604E+03    0.96297E-01    0.00000E+00  9828   0.222E+00 0.000E+00
CGA:   2    -0.380714955813E+03   -0.83340E-01   -0.83364E-01  9828   0.546E-01-0.207E-03
CGA:   3    -0.380726642170E+03   -0.11686E-01   -0.11691E-01  9828   0.904E-02 0.943E-04
CGA:   4    -0.380728400529E+03   -0.17584E-02   -0.17654E-02  9828   0.217E-02 0.101E-03
CGA:   5    -0.380728857075E+03   -0.45655E-03   -0.45518E-03  9828   0.541E-03-0.249E-04
CGA:   6    -0.380728984174E+03   -0.12710E-03   -0.12679E-03  9828   0.151E-03-0.142E-04
CGA:   7    -0.380729031544E+03   -0.47370E-04   -0.49824E-04  9828   0.866E-04-0.300E-04
CGA:   8    -0.380729054241E+03   -0.22697E-04   -0.33124E-04  9828   0.875E-04-0.484E-04
CGA:   9    -0.380729066793E+03   -0.12552E-04   -0.14075E-04  9828   0.123E-04 0.136E-04
CGA:  10    -0.380729069855E+03   -0.30614E-05   -0.32101E-05  9828   0.349E-05 0.363E-05
  57 F= -.38072907E+03 E0= -.38072907E+03  d E =-.114748E-02  mag=     4.0000
       N       E                     dE             d eps       ncg     rms          ort
SDA:   1    -0.379875291827E+03    0.85377E+00    0.00000E+00  9828   0.196E+01 0.000E+00
CGA:   2    -0.380595937800E+03   -0.72065E+00   -0.72075E+00  9828   0.562E+00-0.877E-03
CGA:   3    -0.380706536367E+03   -0.11060E+00   -0.11055E+00  9828   0.101E+00-0.593E-03
CGA:   4    -0.380725114283E+03   -0.18578E-01   -0.18636E-01  9828   0.230E-01 0.731E-03
CGA:   5    -0.380729901116E+03   -0.47868E-02   -0.47883E-02  9828   0.549E-02 0.327E-04
CGA:   6    -0.380731180478E+03   -0.12794E-02   -0.12784E-02  9828   0.144E-02-0.344E-04
CGA:   7    -0.380731594168E+03   -0.41369E-03   -0.41578E-03  9828   0.581E-03-0.625E-04
CGA:   8    -0.380731784353E+03   -0.19019E-03   -0.19612E-03  9828   0.279E-03-0.638E-04
CGA:   9    -0.380731844439E+03   -0.60086E-04   -0.60790E-04  9828   0.755E-04 0.360E-04
CGA:  10    -0.380731867316E+03   -0.22877E-04   -0.22863E-04  9828   0.250E-04 0.310E-05
CGA:  11    -0.380731869487E+03   -0.21707E-05   -0.37142E-05  9828   0.984E-05 0.128E-04
  58 F= -.38073187E+03 E0= -.38073187E+03  d E =-.279963E-02  mag=     4.0000
       N       E                     dE             d eps       ncg     rms          ort
SDA:   1    -0.380691716752E+03    0.40151E-01    0.00000E+00  9828   0.972E-01 0.000E+00
CGA:   2    -0.380725807338E+03   -0.34091E-01   -0.34108E-01  9828   0.272E-01-0.195E-03
CGA:   3    -0.380731898117E+03   -0.60908E-02   -0.60804E-02  9828   0.538E-02-0.243E-03
CGA:   4    -0.380732924080E+03   -0.10260E-02   -0.10084E-02  9828   0.135E-02-0.227E-03
CGA:   5    -0.380733181654E+03   -0.25757E-03   -0.25798E-03  9828   0.311E-03 0.788E-05
CGA:   6    -0.380733272514E+03   -0.90860E-04   -0.92939E-04  9828   0.132E-03-0.522E-04
CGA:   7    -0.380733307238E+03   -0.34723E-04   -0.38434E-04  9828   0.892E-04-0.415E-04
CGA:   8    -0.380733313343E+03   -0.61054E-05   -0.36304E-04  9828   0.199E-03-0.917E-04
CGA:   9    -0.380733348920E+03   -0.35577E-04   -0.34494E-04  9828   0.322E-04-0.961E-05
CGA:  10    -0.380733358949E+03   -0.10029E-04   -0.12259E-04  9828   0.347E-04-0.178E-04
CGA:  11    -0.380733365133E+03   -0.61844E-05   -0.56631E-05  9828   0.625E-05-0.417E-05
  59 F= -.38073337E+03 E0= -.38073337E+03  d E =-.149565E-02  mag=     4.0000
       N       E                     dE             d eps       ncg     rms          ort
SDA:   1    -0.380707139449E+03    0.26220E-01    0.00000E+00  9828   0.624E-01 0.000E+00
CGA:   2    -0.380730415169E+03   -0.23276E-01   -0.23293E-01  9828   0.174E-01-0.167E-03
CGA:   3    -0.380733786432E+03   -0.33713E-02   -0.33765E-02  9828   0.328E-02 0.702E-04
CGA:   4    -0.380734362856E+03   -0.57642E-03   -0.58486E-03  9828   0.686E-03 0.894E-04
CGA:   5    -0.380734524452E+03   -0.16160E-03   -0.16078E-03  9828   0.173E-03-0.182E-04
CGA:   6    -0.380734564907E+03   -0.40455E-04   -0.40244E-04  9828   0.499E-04-0.686E-05
CGA:   7    -0.380734579506E+03   -0.14598E-04   -0.22934E-04  9828   0.851E-04-0.397E-04
[...]
CGA:   7    -0.380739078333E+03   -0.23805E-04   -0.24361E-04  9828   0.490E-04-0.123E-04
CGA:   8    -0.380739091407E+03   -0.13075E-04   -0.24737E-04  9828   0.923E-04-0.372E-04
CGA:   9    -0.380739109622E+03   -0.18215E-04   -0.17268E-04  9828   0.181E-04-0.896E-05
CGA:  10    -0.380739113871E+03   -0.42487E-05   -0.41817E-05  9828   0.665E-05-0.227E-05
  91 F= -.38073911E+03 E0= -.38073911E+03  d E =0.171459E-02  mag=     4.0000
       N       E                     dE             d eps       ncg     rms          ort
SDA:   1    -0.380722837225E+03    0.16272E-01    0.00000E+00  9828   0.371E-01 0.000E+00
CGA:   2    -0.380734697830E+03   -0.11861E-01   -0.11863E-01  9828   0.124E-01-0.771E-04
CGA:   3    -0.380737331315E+03   -0.26335E-02   -0.26388E-02  9828   0.240E-02 0.750E-04
CGA:   4    -0.380737763285E+03   -0.43197E-03   -0.43400E-03  9828   0.524E-03 0.198E-04
CGA:   5    -0.380737873270E+03   -0.10999E-03   -0.10985E-03  9828   0.134E-03-0.203E-05
CGA:   6    -0.380737906222E+03   -0.32952E-04   -0.33006E-04  9828   0.431E-04 0.208E-05
CGA:   7    -0.380737917468E+03   -0.11246E-04   -0.11321E-04  9828   0.169E-04 0.554E-05
CGA:   8    -0.380737923753E+03   -0.62853E-05   -0.61192E-05  9828   0.854E-05 0.334E-05
  92 F= -.38073792E+03 E0= -.38073792E+03  d E =0.119012E-02  mag=     4.0000
       N       E                     dE             d eps       ncg     rms          ort
SDA:   1    -0.380735998805E+03    0.19187E-02    0.00000E+00  9828   0.599E-02 0.000E+00
CGA:   2    -0.380737689694E+03   -0.16909E-02   -0.16905E-02  9828   0.234E-02 0.419E-04
CGA:   3    -0.380738173895E+03   -0.48420E-03   -0.48637E-03  9828   0.542E-03 0.334E-04
CGA:   4    -0.380738283230E+03   -0.10933E-03   -0.10725E-03  9828   0.118E-03-0.273E-04
CGA:   5    -0.380738306784E+03   -0.23555E-04   -0.23270E-04  9828   0.283E-04-0.477E-05
CGA:   6    -0.380738313476E+03   -0.66921E-05   -0.66801E-05  9828   0.947E-05-0.671E-06
  93 F= -.38073831E+03 E0= -.38073831E+03  d E =-.389723E-03  mag=     4.0000
       N       E                     dE             d eps       ncg     rms          ort
SDA:   1    -0.380737643767E+03    0.66302E-03    0.00000E+00  9828   0.189E-02 0.000E+00
CGA:   2    -0.380738236907E+03   -0.59314E-03   -0.59741E-03  9828   0.827E-03-0.727E-04
CGA:   3    -0.380738372901E+03   -0.13599E-03   -0.13960E-03  9828   0.158E-03 0.427E-04
CGA:   4    -0.380738402936E+03   -0.30035E-04   -0.30848E-04  9828   0.297E-04 0.115E-04
CGA:   5    -0.380738409180E+03   -0.62446E-05   -0.64287E-05  9828   0.749E-05 0.353E-05
  94 F= -.38073841E+03 E0= -.38073841E+03  d E =-.957040E-04  mag=     4.0000
       N       E                     dE             d eps       ncg     rms          ort
SDA:   1    -0.380718804333E+03    0.19599E-01    0.00000E+00  9828   0.541E-01 0.000E+00
CGA:   2    -0.380731210726E+03   -0.12406E-01   -0.12391E-01  9828   0.234E-01-0.258E-03
CGA:   3    -0.380736443732E+03   -0.52330E-02   -0.52472E-02  9828   0.519E-02 0.243E-03
CGA:   4    -0.380737283009E+03   -0.83928E-03   -0.85685E-03  9828   0.808E-03 0.153E-03
CGA:   5    -0.380737455665E+03   -0.17266E-03   -0.17417E-03  9828   0.211E-03 0.234E-04
CGA:   6    -0.380737510392E+03   -0.54726E-04   -0.54529E-04  9828   0.634E-04-0.992E-05
CGA:   7    -0.380737527575E+03   -0.17183E-04   -0.17325E-04  9828   0.243E-04-0.851E-05
CGA:   8    -0.380737533801E+03   -0.62267E-05   -0.62619E-05  9828   0.987E-05-0.132E-05
  95 F= -.38073753E+03 E0= -.38073753E+03  d E =0.875379E-03  mag=     4.0000
       N       E                     dE             d eps       ncg     rms          ort
SDA:   1    -0.380590610402E+03    0.14692E+00    0.00000E+00  9828   0.362E+00 0.000E+00
CGA:   2    -0.380691196980E+03   -0.10059E+00   -0.10057E+00  9828   0.158E+00 0.115E-02
CGA:   3    -0.380724059521E+03   -0.32863E-01   -0.32785E-01  9828   0.320E-01-0.136E-02
CGA:   4    -0.380729646414E+03   -0.55869E-02   -0.55506E-02  9828   0.654E-02-0.376E-03
CGA:   5    -0.380731010953E+03   -0.13645E-02   -0.13599E-02  9828   0.165E-02-0.977E-04
CGA:   6    -0.380731371374E+03   -0.36042E-03   -0.36274E-03  9828   0.458E-03 0.712E-04
CGA:   7    -0.380731484560E+03   -0.11319E-03   -0.11427E-03  9828   0.152E-03 0.705E-04
CGA:   8    -0.380731540507E+03   -0.55947E-04   -0.55059E-04  9828   0.829E-04 0.148E-04
CGA:   9    -0.380731569781E+03   -0.29274E-04   -0.29107E-04  9828   0.407E-04 0.277E-05
CGA:  10    -0.380731580680E+03   -0.10899E-04   -0.25153E-04  9828   0.901E-04-0.421E-04
CGA:  11    -0.380731586824E+03   -0.61436E-05   -0.10566E-04  9828   0.166E-04 0.280E-04
  96 F= -.38073159E+03 E0= -.38073159E+03  d E =0.594698E-02  mag=     4.0000
       N       E                     dE             d eps       ncg     rms          ort
SDA:   1    -0.380636249303E+03    0.95331E-01    0.00000E+00  9828   0.267E+00 0.000E+00
CGA:   2    -0.380700018126E+03   -0.63769E-01   -0.63759E-01  9828   0.113E+00-0.366E-03
CGA:   3    -0.380725118625E+03   -0.25100E-01   -0.25066E-01  9828   0.275E-01-0.935E-03
CGA:   4    -0.380729849588E+03   -0.47310E-02   -0.47165E-02  9828   0.539E-02-0.156E-03
CGA:   5    -0.380730939991E+03   -0.10904E-02   -0.10959E-02  9828   0.133E-02 0.110E-03
CGA:   6    -0.380731275427E+03   -0.33544E-03   -0.33540E-03  9828   0.443E-03-0.852E-05
CGA:   7    -0.380731418848E+03   -0.14342E-03   -0.15489E-03  9828   0.273E-03-0.115E-03
CGA:   8    -0.380731478045E+03   -0.59197E-04   -0.61128E-04  9828   0.125E-03-0.421E-04
CGA:   9    -0.380731498123E+03   -0.20078E-04   -0.62514E-04  9828   0.278E-03-0.127E-03
CGA:  10    -0.380731541097E+03   -0.42974E-04   -0.45015E-04  9828   0.456E-04 0.188E-04
CGA:  11    -0.380731568511E+03   -0.27413E-04    0.15866E-03  9828   0.205E-04-0.484E-05
CGA:  12    -0.380731580043E+03   -0.11533E-04    0.15217E-04  9828   0.859E-05 0.560E-05
CGA:  13    -0.380731589606E+03   -0.95630E-05    0.23936E-05  9828   0.410E-05 0.413E-05
  97 F= -.38073159E+03 E0= -.38073159E+03  d E =-.278226E-05  mag=     4.0000
       N       E                     dE             d eps       ncg     rms          ort
SDA:   1    -0.380705247927E+03    0.26332E-01    0.00000E+00  9828   0.839E-01 0.000E+00
CGA:   2    -0.380725030079E+03   -0.19782E-01   -0.19775E-01  9828   0.357E-01-0.186E-03
CGA:   3    -0.380732786289E+03   -0.77562E-02   -0.77885E-02  9828   0.798E-02 0.632E-03
CGA:   4    -0.380734103450E+03   -0.13172E-02   -0.13442E-02  9828   0.145E-02 0.272E-03
CGA:   5    -0.380734415541E+03   -0.31209E-03   -0.31405E-03  9828   0.367E-03 0.378E-04
CGA:   6    -0.380734508188E+03   -0.92646E-04   -0.92517E-04  9828   0.116E-03-0.980E-05
CGA:   7    -0.380734535354E+03   -0.27166E-04   -0.27348E-04  9828   0.350E-04 0.110E-04
CGA:   8    -0.380734545918E+03   -0.10564E-04   -0.10478E-04  9828   0.135E-04 0.515E-05
CGA:   9    -0.380734546559E+03   -0.64067E-06   -0.19536E-05  9828   0.686E-05 0.998E-05
  98 F= -.38073455E+03 E0= -.38073455E+03  d E =-.295695E-02  mag=     4.0000
       N       E                     dE             d eps       ncg     rms          ort
SDA:   1    -0.380711365139E+03    0.23181E-01    0.00000E+00  9828   0.662E-01 0.000E+00
CGA:   2    -0.380726779510E+03   -0.15414E-01   -0.15407E-01  9828   0.274E-01-0.633E-03
CGA:   3    -0.380732712865E+03   -0.59334E-02   -0.59470E-02  9828   0.642E-02 0.557E-03
CGA:   4    -0.380733784229E+03   -0.10714E-02   -0.10923E-02  9828   0.113E-02 0.280E-03
CGA:   5    -0.380734021118E+03   -0.23689E-03   -0.23902E-03  9828   0.271E-03 0.587E-04
CGA:   6    -0.380734092801E+03   -0.71683E-04   -0.71837E-04  9828   0.937E-04-0.101E-04
CGA:   7    -0.380734117565E+03   -0.24764E-04   -0.24903E-04  9828   0.352E-04-0.353E-05
CGA:   8    -0.380734126483E+03   -0.89175E-05   -0.88370E-05  9828   0.128E-04 0.376E-05
  99 F= -.38073413E+03 E0= -.38073413E+03  d E =0.420076E-03  mag=     4.0000
       N       E                     dE             d eps       ncg     rms          ort
SDA:   1    -0.380697204182E+03    0.36913E-01    0.00000E+00  9828   0.958E-01 0.000E+00
CGA:   2    -0.380721720778E+03   -0.24517E-01   -0.24527E-01  9828   0.374E-01-0.531E-03
CGA:   3    -0.380729780304E+03   -0.80595E-02   -0.80693E-02  9828   0.843E-02 0.479E-03
CGA:   4    -0.380731212232E+03   -0.14319E-02   -0.14490E-02  9828   0.158E-02 0.258E-03
CGA:   5    -0.380731553171E+03   -0.34094E-03   -0.34150E-03  9828   0.401E-03 0.239E-04
CGA:   6    -0.380731652330E+03   -0.99159E-04   -0.99011E-04  9828   0.137E-03 0.125E-04
CGA:   7    -0.380731686998E+03   -0.34668E-04   -0.34352E-04  9828   0.526E-04 0.283E-04
CGA:   8    -0.380731706271E+03   -0.19273E-04   -0.18399E-04  9828   0.288E-04 0.153E-04
CGA:   9    -0.380731711761E+03   -0.54895E-05   -0.66485E-05  9828   0.142E-04 0.203E-04
 100 F= -.38073171E+03 E0= -.38073171E+03  d E =0.241472E-02  mag=     4.0000
       N       E                     dE             d eps       ncg     rms          ort
SDA:   1    -0.380629335801E+03    0.10237E+00    0.00000E+00  9828   0.257E+00 0.000E+00
CGA:   2    -0.380702733709E+03   -0.73398E-01   -0.73437E-01  9828   0.929E-01-0.846E-03
CGA:   3    -0.380723285717E+03   -0.20552E-01   -0.20553E-01  9828   0.186E-01 0.817E-04
CGA:   4    -0.380726587407E+03   -0.33017E-02   -0.33024E-02  9828   0.395E-02 0.104E-04
CGA:   5    -0.380727389171E+03   -0.80176E-03   -0.80298E-03  9828   0.969E-03 0.477E-04
CGA:   6    -0.380727645644E+03   -0.25647E-03   -0.25653E-03  9828   0.372E-03-0.211E-05
CGA:   7    -0.380727756989E+03   -0.11134E-03   -0.11060E-03  9828   0.188E-03 0.107E-04
CGA:   8    -0.380727816232E+03   -0.59244E-04   -0.56787E-04  9828   0.854E-04 0.400E-04
CGA:   9    -0.380727853955E+03   -0.37722E-04   -0.37811E-04  9828   0.499E-04-0.717E-06
CGA:  10    -0.380727862566E+03   -0.86112E-05   -0.95178E-05  9828   0.175E-04 0.182E-04
 101 F= -.38072786E+03 E0= -.38072786E+03  d E =0.384919E-02  mag=     4.0000
       N       E                     dE             d eps       ncg     rms          ort
SDA:   1    -0.380633459151E+03    0.94395E-01    0.00000E+00  9828   0.236E+00 0.000E+00
CGA:   2    -0.380701939870E+03   -0.68481E-01   -0.68553E-01  9828   0.968E-01-0.126E-02
CGA:   3    -0.380721158643E+03   -0.19219E-01   -0.19211E-01  9828   0.222E-01-0.186E-03
CGA:   4    -0.380725272719E+03   -0.41141E-02   -0.41260E-02  9828   0.462E-02 0.252E-03
CGA:   5    -0.380726182675E+03   -0.90996E-03   -0.91763E-03  9828   0.105E-02 0.203E-03
CGA:   6    -0.380726464438E+03   -0.28176E-03   -0.28227E-03  9828   0.385E-03-0.192E-04
CGA:   7    -0.380726574909E+03   -0.11047E-03   -0.11393E-03  9828   0.180E-03-0.506E-04
CGA:   8    -0.380726608052E+03   -0.33143E-04   -0.33705E-04  9828   0.569E-04 0.262E-04
CGA:   9    -0.380726621186E+03   -0.13134E-04   -0.13609E-04  9828   0.196E-04 0.176E-04
CGA:  10    -0.380726625757E+03   -0.45704E-05   -0.49530E-05  9828   0.789E-05 0.919E-05
 102 F= -.38072663E+03 E0= -.38072663E+03  d E =0.123681E-02  mag=     4.0000
       N       E                     dE             d eps       ncg     rms          ort
SDA:   1    -0.380657606969E+03    0.69014E-01    0.00000E+00  9828   0.188E+00 0.000E+00
CGA:   2    -0.380711468047E+03   -0.53861E-01   -0.53740E-01  9828   0.716E-01 0.218E-02
CGA:   3    -0.380726919977E+03   -0.15452E-01   -0.15436E-01  9828   0.172E-01-0.790E-03
CGA:   4    -0.380729910655E+03   -0.29907E-02   -0.29845E-02  9828   0.334E-02-0.725E-04
CGA:   5    -0.380730628800E+03   -0.71814E-03   -0.71687E-03  9828   0.857E-03-0.936E-04
CGA:   6    -0.380730815323E+03   -0.18652E-03   -0.18686E-03  9828   0.252E-03 0.765E-04
CGA:   7    -0.380730872394E+03   -0.57071E-04   -0.58274E-04  9828   0.891E-04 0.745E-04
CGA:   8    -0.380730907437E+03   -0.35043E-04   -0.33748E-04  9828   0.545E-04 0.200E-04
CGA:   9    -0.380730919720E+03   -0.12283E-04   -0.13222E-04  9828   0.237E-04 0.287E-04
CGA:  10    -0.380730924169E+03   -0.44485E-05   -0.47720E-05  9828   0.995E-05 0.118E-04
 103 F= -.38073092E+03 E0= -.38073092E+03  d E =-.429841E-02  mag=     4.0000
       N       E                     dE             d eps       ncg     rms          ort
SDA:   1    -0.380713302791E+03    0.17617E-01    0.00000E+00  9828   0.466E-01 0.000E+00
CGA:   2    -0.380727236633E+03   -0.13934E-01   -0.13906E-01  9828   0.171E-01 0.372E-03
CGA:   3    -0.380730845455E+03   -0.36088E-02   -0.36032E-02  9828   0.424E-02-0.301E-03
CGA:   4    -0.380731715883E+03   -0.87043E-03   -0.86139E-03  9828   0.108E-02-0.451E-03
CGA:   5    -0.380731894865E+03   -0.17898E-03   -0.17917E-03  9828   0.234E-03 0.500E-05
CGA:   6    -0.380731944839E+03   -0.49974E-04   -0.50334E-04  9828   0.698E-04 0.357E-04
CGA:   7    -0.380731970996E+03   -0.26157E-04   -0.28895E-04  9828   0.602E-04-0.201E-04
CGA:   8    -0.380731980168E+03   -0.91722E-05   -0.91693E-05  9828   0.276E-04-0.129E-06
CGA:   9    -0.380731993401E+03   -0.13233E-04    0.64097E-04  9828   0.140E-04-0.485E-06
CGA:  10    -0.380732005368E+03   -0.11966E-04    0.17791E-05  9828   0.693E-05-0.161E-06
CGA:  11    -0.380732005981E+03   -0.61333E-06   -0.39692E-05  9828   0.176E-04-0.960E-05
 104 F= -.38073201E+03 E0= -.38073201E+03  d E =-.108181E-02  mag=     4.0000
       N       E                     dE             d eps       ncg     rms          ort
SDA:   1    -0.380730291083E+03    0.17143E-02    0.00000E+00  9828   0.529E-02 0.000E+00
CGA:   2    -0.380731799908E+03   -0.15088E-02   -0.15158E-02  9828   0.250E-02-0.216E-03
CGA:   3    -0.380732210911E+03   -0.41100E-03   -0.41810E-03  9828   0.509E-03 0.948E-04
CGA:   4    -0.380732313099E+03   -0.10219E-03   -0.10326E-03  9828   0.912E-04 0.188E-04
CGA:   5    -0.380732325234E+03   -0.12135E-04   -0.14424E-04  9828   0.220E-04 0.236E-04
CGA:   6    -0.380732326287E+03   -0.10534E-05   -0.30895E-05  9828   0.963E-05 0.153E-04
 105 F= -.38073233E+03 E0= -.38073233E+03  d E =-.320307E-03  mag=     4.0000
       N       E                     dE             d eps       ncg     rms          ort
SDA:   1    -0.380236091970E+03    0.49623E+00    0.00000E+00  9828   0.124E+01 0.000E+00
CGA:   2    -0.380624751056E+03   -0.38866E+00   -0.38858E+00  9828   0.422E+00 0.621E-03
CGA:   3    -0.380716548386E+03   -0.91797E-01   -0.91769E-01  9828   0.796E-01-0.150E-02
CGA:   4    -0.380730647968E+03   -0.14100E-01   -0.14132E-01  9828   0.171E-01 0.554E-03
CGA:   5    -0.380734114860E+03   -0.34669E-02   -0.34758E-02  9828   0.414E-02 0.281E-03
CGA:   6    -0.380735177558E+03   -0.10627E-02   -0.10633E-02  9828   0.138E-02-0.309E-04
CGA:   7    -0.380735579121E+03   -0.40156E-03   -0.40346E-03  9828   0.642E-03-0.314E-04
CGA:   8    -0.380735796412E+03   -0.21729E-03   -0.21665E-03  9828   0.325E-03 0.583E-05
CGA:   9    -0.380735878692E+03   -0.82280E-04   -0.81704E-04  9828   0.111E-03 0.802E-04
CGA:  10    -0.380735918892E+03   -0.40199E-04   -0.39381E-04  9828   0.497E-04 0.190E-04
CGA:  11    -0.380735935076E+03   -0.16184E-04   -0.15726E-04  9828   0.231E-04 0.176E-04
CGA:  12    -0.380735949944E+03   -0.14868E-04   -0.16602E-04  9828   0.307E-04-0.618E-05
CGA:  13    -0.380735957154E+03   -0.72105E-05   -0.76925E-05  9828   0.248E-04-0.593E-05
 106 F= -.38073596E+03 E0= -.38073596E+03  d E =-.363087E-02  mag=     4.0000
       N       E                     dE             d eps       ncg     rms          ort
SDA:   1    -0.380198535275E+03    0.53741E+00    0.00000E+00  9828   0.134E+01 0.000E+00
CGA:   2    -0.380613762925E+03   -0.41523E+00   -0.41498E+00  9828   0.462E+00 0.450E-02
CGA:   3    -0.380711793821E+03   -0.98031E-01   -0.97958E-01  9828   0.104E+00-0.167E-02
CGA:   4    -0.380729402369E+03   -0.17609E-01   -0.17671E-01  9828   0.198E-01 0.172E-02
CGA:   5    -0.380733885354E+03   -0.44830E-02   -0.44789E-02  9828   0.481E-02-0.128E-03
CGA:   6    -0.380735078208E+03   -0.11929E-02   -0.11933E-02  9828   0.161E-02 0.230E-03
CGA:   7    -0.380735529406E+03   -0.45120E-03   -0.44914E-03  9828   0.690E-03 0.145E-03
CGA:   8    -0.380735791580E+03   -0.26217E-03   -0.25718E-03  9828   0.373E-03 0.558E-04
CGA:   9    -0.380735857313E+03   -0.65733E-04   -0.76717E-04  9828   0.141E-03 0.166E-03
CGA:  10    -0.380735893863E+03   -0.36550E-04   -0.40827E-04  9828   0.651E-04 0.793E-04
CGA:  11    -0.380735919898E+03   -0.26035E-04   -0.26808E-04  9828   0.865E-04-0.476E-05
CGA:  12    -0.380735919533E+03    0.36499E-06   -0.82869E-05  9828   0.491E-04 0.558E-04
 107 F= -.38073592E+03 E0= -.38073592E+03  d E =0.376214E-04  mag=     4.0000
       N       E                     dE             d eps       ncg     rms          ort
SDA:   1    -0.380534635565E+03    0.20128E+00    0.00000E+00  9828   0.502E+00 0.000E+00
CGA:   2    -0.380695858632E+03   -0.16122E+00   -0.16140E+00  9828   0.188E+00-0.223E-02
CGA:   3    -0.380731408920E+03   -0.35550E-01   -0.35588E-01  9828   0.430E-01 0.110E-02
CGA:   4    -0.380739624862E+03   -0.82159E-02   -0.81510E-02  9828   0.805E-02-0.120E-02
CGA:   5    -0.380741373255E+03   -0.17484E-02   -0.17459E-02  9828   0.202E-02-0.137E-03
CGA:   6    -0.380741903071E+03   -0.52982E-03   -0.53583E-03  9828   0.825E-03-0.198E-03
CGA:   7    -0.380742118291E+03   -0.21522E-03   -0.22774E-03  9828   0.448E-03-0.194E-03
CGA:   8    -0.380742227178E+03   -0.10889E-03   -0.15329E-03  9828   0.407E-03-0.219E-03
CGA:   9    -0.380742334884E+03   -0.10771E-03    0.19265E-02  9828   0.161E-03-0.668E-04
CGA:  10    -0.380742354208E+03   -0.19324E-04   -0.76238E-04  9828   0.376E-03-0.182E-03
CGA:  11    -0.380742434261E+03   -0.80053E-04   -0.78419E-04  9828   0.637E-04-0.260E-04
CGA:  12    -0.380742438147E+03   -0.38855E-05   -0.78413E-05  9828   0.230E-04 0.293E-04
 108 F= -.38074244E+03 E0= -.38074244E+03  d E =-.651861E-02  mag=     4.0000
       N       E                     dE             d eps       ncg     rms          ort
SDA:   1    -0.380545609828E+03    0.19682E+00    0.00000E+00  9828   0.502E+00 0.000E+00
CGA:   2    -0.380678654256E+03   -0.13304E+00   -0.13304E+00  9828   0.213E+00 0.131E-03
CGA:   3    -0.380723962808E+03   -0.45309E-01   -0.45322E-01  9828   0.480E-01 0.297E-03
CGA:   4    -0.380732566613E+03   -0.86038E-02   -0.85868E-02  9828   0.101E-01-0.215E-03
CGA:   5    -0.380734659822E+03   -0.20932E-02   -0.20842E-02  9828   0.248E-02-0.208E-03
CGA:   6    -0.380735257488E+03   -0.59767E-03   -0.59761E-03  9828   0.808E-03-0.554E-04
CGA:   7    -0.380735469115E+03   -0.21163E-03   -0.21139E-03  9828   0.269E-03 0.115E-04
CGA:   8    -0.380735558047E+03   -0.88932E-04   -0.89314E-04  9828   0.120E-03-0.483E-05
CGA:   9    -0.380735599624E+03   -0.41578E-04   -0.61247E-04  9828   0.146E-03-0.737E-04
CGA:  10    -0.380735620732E+03   -0.21108E-04   -0.23385E-04  9828   0.215E-04 0.218E-04
CGA:  11    -0.380735625841E+03   -0.51091E-05   -0.53902E-05  9828   0.859E-05 0.667E-05
 109 F= -.38073563E+03 E0= -.38073563E+03  d E =0.681231E-02  mag=     4.0000
       N       E                     dE             d eps       ncg     rms          ort
SDA:   1    -0.380627323016E+03    0.10830E+00    0.00000E+00  9828   0.296E+00 0.000E+00
CGA:   2    -0.380708732222E+03   -0.81409E-01   -0.81419E-01  9828   0.125E+00-0.506E-03
CGA:   3    -0.380734968821E+03   -0.26237E-01   -0.26218E-01  9828   0.283E-01-0.386E-03
CGA:   4    -0.380739988244E+03   -0.50194E-02   -0.50441E-02  9828   0.597E-02 0.330E-03
CGA:   5    -0.380741169177E+03   -0.11809E-02   -0.11918E-02  9828   0.137E-02 0.202E-03
CGA:   6    -0.380741522207E+03   -0.35303E-03   -0.35301E-03  9828   0.459E-03 0.201E-04
CGA:   7    -0.380741659029E+03   -0.13682E-03   -0.13844E-03  9828   0.184E-03-0.331E-04
CGA:   8    -0.380741714195E+03   -0.55166E-04   -0.57154E-04  9828   0.832E-04-0.236E-04
CGA:   9    -0.380741726290E+03   -0.12095E-04   -0.13632E-04  9828   0.246E-04 0.229E-04
CGA:  10    -0.380741732941E+03   -0.66507E-05   -0.68131E-05  9828   0.904E-05 0.468E-05
 110 F= -.38074173E+03 E0= -.38074173E+03  d E =-.610710E-02  mag=     4.0000
