       N       E                     dE             d eps       ncg     rms          ort
DAV:   1     0.229502937486E+04    0.22950E+04   -0.13635E+05 10080   0.153E+03
DAV:   2    -0.224173042199E+03   -0.25192E+04   -0.24253E+04 10080   0.403E+02
DAV:   3    -0.445045668922E+03   -0.22087E+03   -0.21576E+03 10080   0.139E+02
DAV:   4    -0.454263387430E+03   -0.92177E+01   -0.90075E+01 10080   0.305E+01
DAV:   5    -0.454761594076E+03   -0.49821E+00   -0.49407E+00 10080   0.482E+00
SDA:   6    -0.279833412075E+03    0.17493E+03   -0.49407E+00 10080   0.548E+03 0.000E+00
CGA:   7    -0.319322113042E+03   -0.39489E+02   -0.49321E+02 10080   0.394E+03 0.143E+01
CGA:   8    -0.334970611450E+03   -0.15648E+02   -0.23946E+02 10080   0.208E+03 0.120E+03
CGA:   9    -0.339076896866E+03   -0.41063E+01   -0.19426E+02 10080   0.108E+03 0.165E+02
CGA:  10    -0.327085154416E+03    0.11992E+02   -0.70919E+01 10080   0.193E+03-0.361E+02
CGA:  11    -0.342500025900E+03   -0.15415E+02   -0.36550E+01 10080   0.341E+03 0.384E+03
CGA:  12    -0.341345099098E+03    0.11549E+01   -0.25763E+02 10080   0.271E+03-0.229E+02
CGA:  13    -0.335435347010E+03    0.59098E+01   -0.18547E+02 10080   0.401E+03-0.324E+02
CGA:  14    -0.340920578487E+03   -0.54852E+01   -0.17265E+02 10080   0.468E+03 0.180E+02
CGA:  15    -0.337235773440E+03    0.36848E+01   -0.29351E+02 10080   0.174E+03-0.854E+02
CGA:  16    -0.349842764416E+03   -0.12607E+02   -0.76388E+01 10080   0.115E+02-0.372E+01
CGA:  17    -0.350521166497E+03   -0.67840E+00   -0.52441E+00 10080   0.224E+02 0.226E+01
CGA:  18    -0.351769905379E+03   -0.12487E+01   -0.91032E+00 10080   0.109E+02 0.104E+02
CGA:  19    -0.351927849599E+03   -0.15794E+00   -0.41157E+00 10080   0.199E+02-0.138E+02
CGA:  20    -0.351992865851E+03   -0.65016E-01   -0.53119E+00 10080   0.126E+02-0.123E+02
CGA:  21    -0.352215000923E+03   -0.22214E+00   -0.20708E+00 10080   0.813E+00-0.127E+01
CGA:  22    -0.352283019515E+03   -0.68019E-01   -0.67458E-01 10080   0.271E+01 0.419E-02
CGA:  23    -0.352412511203E+03   -0.12949E+00   -0.87631E-01 10080   0.821E+00 0.113E+01
CGA:  24    -0.352456128313E+03   -0.43617E-01   -0.52071E-01 10080   0.117E+01-0.154E+00
CGA:  25    -0.352497274252E+03   -0.41146E-01   -0.25604E-01 10080   0.714E+00 0.553E+00
CGA:  26    -0.352518138427E+03   -0.20864E-01   -0.14783E-01 10080   0.290E+00 0.489E+00
CGA:  27    -0.352527985605E+03   -0.98472E-02   -0.10536E-01 10080   0.480E+00-0.600E-02
CGA:  28    -0.352560535779E+03   -0.32550E-01   -0.33118E-01 10080   0.982E+00 0.653E-02
CGA:  29    -0.352595204518E+03   -0.34669E-01   -0.20997E-01 10080   0.385E+00 0.579E+00
CGA:  30    -0.352605271768E+03   -0.10067E-01   -0.11253E-01 10080   0.219E+00-0.754E-01
CGA:  31    -0.352612793709E+03   -0.75219E-02   -0.73668E-02 10080   0.276E+00-0.136E-01
CGA:  32    -0.352643983606E+03   -0.31190E-01   -0.31292E-01 10080   0.426E+00-0.787E-03
CGA:  33    -0.352664205178E+03   -0.20222E-01   -0.20822E-01 10080   0.386E+00-0.309E-01
CGA:  34    -0.352678108204E+03   -0.13903E-01   -0.11700E-01 10080   0.772E-01 0.437E-01
CGA:  35    -0.352685870943E+03   -0.77627E-02   -0.77295E-02 10080   0.127E+00 0.463E-02
CGA:  36    -0.352693005472E+03   -0.71345E-02   -0.72720E-02 10080   0.155E+00-0.953E-02
CGA:  37    -0.352699722985E+03   -0.67175E-02   -0.63755E-02 10080   0.271E-01-0.824E-02
CGA:  38    -0.352702689512E+03   -0.29665E-02   -0.29128E-02 10080   0.544E-01 0.102E-02
CGA:  39    -0.352706238292E+03   -0.35488E-02   -0.34642E-02 10080   0.662E-01-0.613E-02
CGA:  40    -0.352709282074E+03   -0.30438E-02   -0.28272E-02 10080   0.142E-01-0.802E-02
CGA:  41    -0.352709849041E+03   -0.56697E-03   -0.59052E-03 10080   0.120E-01 0.641E-03
CGA:  42    -0.352710966361E+03   -0.11173E-02   -0.11121E-02 10080   0.178E-01 0.208E-03
CGA:  43    -0.352712678877E+03   -0.17125E-02   -0.17701E-02 10080   0.154E-01-0.274E-02
CGA:  44    -0.352713128353E+03   -0.44948E-03   -0.41873E-03 10080   0.575E-02-0.105E-02
CGA:  45    -0.352713595034E+03   -0.46668E-03   -0.46179E-03 10080   0.679E-02 0.510E-03
CGA:  46    -0.352714227768E+03   -0.63273E-03   -0.64051E-03 10080   0.112E-01-0.759E-03
CGA:  47    -0.352714804069E+03   -0.57630E-03   -0.54784E-03 10080   0.303E-02-0.143E-02
CGA:  48    -0.352714889694E+03   -0.85626E-04   -0.10993E-03 10080   0.135E-02 0.680E-03
CGA:  49    -0.352714943875E+03   -0.54180E-04   -0.72640E-04 10080   0.139E-02 0.586E-03
CGA:  50    -0.352715161926E+03   -0.21805E-03   -0.19472E-03 10080   0.763E-03 0.988E-03
CGA:  51    -0.352715190708E+03   -0.28782E-04   -0.26968E-04 10080   0.540E-03-0.511E-04
CGA:  52    -0.352715291259E+03   -0.10055E-03   -0.77303E-04 10080   0.904E-03 0.289E-03
CGA:  53    -0.352715297969E+03   -0.67098E-05   -0.19856E-04 10080   0.250E-03 0.234E-03
   1 F= -.35271530E+03 E0= -.35270424E+03  d E =-.352715E+03  mag=    10.0000
       N       E                     dE             d eps       ncg     rms          ort
SDA:   1    -0.352746955325E+03   -0.31664E-01    0.00000E+00 10080   0.203E+00 0.000E+00
CGA:   2    -0.352750846120E+03   -0.38908E-02   -0.40477E-02 10080   0.117E-01 0.143E-02
CGA:   3    -0.352751311756E+03   -0.46564E-03   -0.49956E-03 10080   0.747E-02 0.121E-02
CGA:   4    -0.352752199665E+03   -0.88791E-03   -0.86638E-03 10080   0.146E-01 0.563E-03
CGA:   5    -0.352753038281E+03   -0.83862E-03   -0.82479E-03 10080   0.170E-02-0.809E-03
CGA:   6    -0.352753209557E+03   -0.17128E-03   -0.17960E-03 10080   0.513E-02-0.202E-03
CGA:   7    -0.352753386316E+03   -0.17676E-03   -0.18010E-03 10080   0.655E-03 0.991E-04
CGA:   8    -0.352753411197E+03   -0.24881E-04   -0.23073E-04 10080   0.472E-03-0.547E-04
CGA:   9    -0.352753254501E+03    0.15670E-03   -0.98734E-04 10080   0.123E-01-0.101E-02
CGA:  10    -0.352753465094E+03   -0.21059E-03   -0.24863E-03 10080   0.119E-02 0.408E-03
CGA:  11    -0.352753493923E+03   -0.28828E-04   -0.50283E-04 10080   0.542E-03 0.271E-03
CGA:  12    -0.352753569850E+03   -0.75927E-04   -0.75961E-04 10080   0.103E-02 0.762E-04
CGA:  13    -0.352753605011E+03   -0.35161E-04   -0.34926E-04 10080   0.120E-03-0.644E-05
CGA:  14    -0.352753542313E+03    0.62698E-04   -0.56622E-04 10080   0.690E-02-0.329E-03
CGA:  15    -0.352753657052E+03   -0.11474E-03   -0.13744E-03 10080   0.253E-03 0.167E-03
CGA:  16    -0.352753658198E+03   -0.11461E-05   -0.79136E-05 10080   0.109E-03 0.719E-04
   2 F= -.35275366E+03 E0= -.35274273E+03  d E =-.383602E-01  mag=    10.0000
       N       E                     dE             d eps       ncg     rms          ort
SDA:   1    -0.351467493451E+03    0.12862E+01    0.00000E+00 10080   0.512E+01 0.000E+00
CGA:   2    -0.352561361198E+03   -0.10939E+01   -0.11023E+01 10080   0.160E+02-0.581E-01
CGA:   3    -0.353081892786E+03   -0.52053E+00   -0.59346E+00 10080   0.429E+01-0.217E+01
CGA:   4    -0.353227485727E+03   -0.14559E+00   -0.14281E+00 10080   0.186E+01-0.669E-01
CGA:   5    -0.353394277601E+03   -0.16679E+00   -0.16849E+00 10080   0.252E+01 0.145E-01
CGA:   6    -0.353495060245E+03   -0.10078E+00   -0.10354E+00 10080   0.211E+00-0.439E-01
CGA:   7    -0.353516387754E+03   -0.21328E-01   -0.21319E-01 10080   0.433E+00-0.178E-02
CGA:   8    -0.353542304213E+03   -0.25916E-01   -0.26057E-01 10080   0.551E-01-0.360E-02
CGA:   9    -0.353545676402E+03   -0.33722E-02   -0.34108E-02 10080   0.809E-01 0.734E-03
CGA:  10    -0.353552696448E+03   -0.70200E-02   -0.70165E-02 10080   0.779E-01-0.572E-03
CGA:  11    -0.353555183801E+03   -0.24874E-02   -0.24637E-02 10080   0.171E-01 0.454E-03
CGA:  12    -0.353557000530E+03   -0.18167E-02   -0.18317E-02 10080   0.360E-01-0.197E-02
CGA:  13    -0.353559425211E+03   -0.24247E-02   -0.24341E-02 10080   0.103E-01 0.112E-03
CGA:  14    -0.353559840003E+03   -0.41479E-03   -0.45515E-03 10080   0.433E-02 0.812E-03
CGA:  15    -0.353561072496E+03   -0.12325E-02   -0.13839E-02 10080   0.130E-01-0.762E-03
CGA:  16    -0.353561384704E+03   -0.31221E-03   -0.27234E-03 10080   0.250E-02-0.411E-03
CGA:  17    -0.353561550870E+03   -0.16617E-03   -0.12888E-03 10080   0.343E-02-0.777E-03
CGA:  18    -0.353561780438E+03   -0.22957E-03   -0.22619E-03 10080   0.101E-01-0.106E-02
CGA:  19    -0.353562035313E+03   -0.25487E-03   -0.26352E-03 10080   0.585E-02-0.812E-04
CGA:  20    -0.353562131203E+03   -0.95890E-04   -0.12252E-03 10080   0.135E-02 0.472E-03
CGA:  21    -0.353562164642E+03   -0.33439E-04   -0.41296E-04 10080   0.116E-02 0.124E-03
CGA:  22    -0.353562301673E+03   -0.13703E-03   -0.14043E-03 10080   0.586E-02-0.159E-03
CGA:  23    -0.353562528393E+03   -0.22672E-03   -0.19226E-03 10080   0.678E-02-0.782E-03
CGA:  24    -0.353562724856E+03   -0.19646E-03   -0.14384E-03 10080   0.289E-02-0.151E-02
CGA:  25    -0.353562838865E+03   -0.11401E-03   -0.60737E-04 10080   0.161E-02-0.979E-03
CGA:  26    -0.353562911636E+03   -0.72772E-04   -0.10625E-03 10080   0.108E-01-0.182E-02
CGA:  27    -0.353563124700E+03   -0.21306E-03   -0.27402E-03 10080   0.210E-02 0.109E-02
CGA:  28    -0.353563195770E+03   -0.71071E-04   -0.85670E-04 10080   0.119E-02 0.332E-03
CGA:  29    -0.353563406240E+03   -0.21047E-03   -0.19856E-03 10080   0.270E-02 0.178E-03
CGA:  30    -0.353563545286E+03   -0.13905E-03   -0.13222E-03 10080   0.529E-03-0.202E-03
CGA:  31    -0.353563583244E+03   -0.37959E-04   -0.40248E-04 10080   0.315E-02-0.651E-03
CGA:  32    -0.353563617159E+03   -0.33914E-04   -0.53670E-04 10080   0.258E-03 0.310E-03
CGA:  33    -0.353563626843E+03   -0.96840E-05   -0.13329E-04 10080   0.324E-03 0.126E-03
CGA:  34    -0.353563656022E+03   -0.29180E-04   -0.89816E-04 10080   0.494E-02-0.552E-03
CGA:  35    -0.353563748556E+03   -0.92534E-04   -0.97751E-04 10080   0.460E-03 0.899E-04
CGA:  36    -0.353563690904E+03    0.57652E-04   -0.80491E-04 10080   0.701E-02-0.147E-02
CGA:  37    -0.353563820852E+03   -0.12995E-03   -0.18227E-03 10080   0.789E-03 0.982E-03
CGA:  38    -0.353563833746E+03   -0.12894E-04   -0.20106E-04 10080   0.822E-04 0.123E-03
CGA:  39    -0.353563839475E+03   -0.57289E-05   -0.62599E-05 10080   0.141E-03 0.517E-04
CGA:  40    -0.353563524688E+03    0.31479E-03   -0.17086E-03 10080   0.192E-01-0.949E-03
CGA:  41    -0.353563938228E+03   -0.41354E-03   -0.42841E-03 10080   0.229E-02-0.372E-03
CGA:  42    -0.353563957860E+03   -0.19632E-04   -0.52330E-04 10080   0.955E-04 0.312E-03
CGA:  43    -0.353563956398E+03    0.14614E-05   -0.30424E-05 10080   0.857E-04 0.453E-04
CGA:  44    -0.353563988977E+03   -0.32579E-04   -0.31627E-04 10080   0.958E-03 0.488E-05
CGA:  45    -0.353564125696E+03   -0.13672E-03   -0.94380E-04 10080   0.725E-02-0.888E-03
CGA:  46    -0.353564352856E+03   -0.22716E-03   -0.20676E-03 10080   0.116E-02-0.215E-03
CGA:  47    -0.353564413976E+03   -0.61119E-04   -0.32997E-04 10080   0.265E-03-0.320E-03
CGA:  48    -0.353564418949E+03   -0.49737E-05   -0.99388E-05 10080   0.121E-03 0.758E-04
CGA:  49    -0.353564430551E+03   -0.11602E-04   -0.11902E-04 10080   0.213E-03 0.724E-05
CGA:  50    -0.353564450653E+03   -0.20102E-04   -0.20589E-04 10080   0.354E-03 0.210E-04
CGA:  51    -0.353561884312E+03    0.25663E-02   -0.12660E-02 10080   0.104E+00-0.502E-02
CGA:  52    -0.353563751886E+03   -0.18676E-02   -0.20247E-02 10080   0.116E-01 0.395E-02
CGA:  53    -0.353564217947E+03   -0.46606E-03   -0.51561E-03 10080   0.419E-02 0.434E-03
CGA:  54    -0.353564956596E+03   -0.73865E-03   -0.72548E-03 10080   0.119E-01-0.715E-03
CGA:  55    -0.353565125386E+03   -0.16879E-03   -0.17595E-03 10080   0.922E-03 0.129E-03
CGA:  56    -0.353565127223E+03   -0.18370E-05   -0.12175E-04 10080   0.166E-03 0.662E-04
   3 F= -.35356513E+03 E0= -.35355417E+03  d E =-.811469E+00  mag=    10.0000
       N       E                     dE             d eps       ncg     rms          ort
SDA:   1    -0.350895449826E+03    0.26697E+01    0.00000E+00 10080   0.786E+01 0.000E+00
CGA:   2    -0.351888800900E+03   -0.99335E+00   -0.10035E+01 10080   0.270E+02-0.459E-01
CGA:   3    -0.353206371905E+03   -0.13176E+01   -0.13810E+01 10080   0.674E+01-0.236E+01
CGA:   4    -0.353384482423E+03   -0.17811E+00   -0.22100E+00 10080   0.444E+01-0.178E+01
CGA:   5    -0.353697353184E+03   -0.31287E+00   -0.31431E+00 10080   0.258E+01-0.425E-02
CGA:   6    -0.353805005771E+03   -0.10765E+00   -0.10514E+00 10080   0.637E+00 0.444E-01
CGA:   7    -0.353835573608E+03   -0.30568E-01   -0.31330E-01 10080   0.719E+00-0.317E-01
CGA:   8    -0.353888934840E+03   -0.53361E-01   -0.53474E-01 10080   0.407E+00 0.494E-02
CGA:   9    -0.353900792567E+03   -0.11858E-01   -0.13298E-01 10080   0.111E+00-0.439E-01
CGA:  10    -0.353909937794E+03   -0.91452E-02   -0.91998E-02 10080   0.201E+00 0.164E-02
CGA:  11    -0.353919114862E+03   -0.91771E-02   -0.89990E-02 10080   0.775E-01-0.536E-02
CGA:  12    -0.353922442805E+03   -0.33279E-02   -0.35299E-02 10080   0.407E-01 0.204E-02
CGA:  13    -0.353925746112E+03   -0.33033E-02   -0.32570E-02 10080   0.669E-01-0.147E-02
CGA:  14    -0.353928936430E+03   -0.31903E-02   -0.33302E-02 10080   0.240E-01 0.155E-02
CGA:  15    -0.353930169161E+03   -0.12327E-02   -0.11608E-02 10080   0.170E-01-0.158E-02
CGA:  16    -0.353931449204E+03   -0.12800E-02   -0.13074E-02 10080   0.200E-01 0.877E-03
CGA:  17    -0.353932428858E+03   -0.97965E-03   -0.91430E-03 10080   0.101E-01-0.111E-02
CGA:  18    -0.353932900742E+03   -0.47188E-03   -0.51873E-03 10080   0.577E-02 0.852E-03
CGA:  19    -0.353933510176E+03   -0.60943E-03   -0.59618E-03 10080   0.190E-01-0.184E-02
CGA:  20    -0.353934138101E+03   -0.62792E-03   -0.61823E-03 10080   0.689E-02-0.728E-03
CGA:  21    -0.353934210288E+03   -0.72187E-04   -0.12298E-03 10080   0.255E-02 0.552E-03
CGA:  22    -0.353934289758E+03   -0.79470E-04   -0.11117E-03 10080   0.294E-02 0.590E-03
CGA:  23    -0.353934472123E+03   -0.18236E-03   -0.17504E-03 10080   0.615E-02-0.142E-03
CGA:  24    -0.353934917306E+03   -0.44518E-03   -0.43733E-03 10080   0.164E-01-0.458E-03
CGA:  25    -0.353935197394E+03   -0.28009E-03   -0.32947E-03 10080   0.407E-02-0.121E-02
CGA:  26    -0.353935279901E+03   -0.82508E-04   -0.80697E-04 10080   0.252E-02-0.107E-03
CGA:  27    -0.353935444685E+03   -0.16478E-03   -0.13733E-03 10080   0.558E-02-0.104E-02
CGA:  28    -0.353935641490E+03   -0.19680E-03   -0.14241E-03 10080   0.143E-01-0.135E-02
CGA:  29    -0.353936106213E+03   -0.46472E-03   -0.38793E-03 10080   0.195E-01-0.262E-03
CGA:  30    -0.353936412837E+03   -0.30662E-03   -0.34290E-03 10080   0.573E-02 0.176E-02
CGA:  31    -0.353936451672E+03   -0.38834E-04   -0.90294E-04 10080   0.213E-02 0.727E-03
SDA:  32    -0.353936488163E+03   -0.36491E-04   -0.67612E-04 10080   0.340E-02 0.707E-03
CGA:  33    -0.353936699324E+03   -0.21116E-03   -0.19032E-03 10080   0.822E-02-0.158E-02
CGA:  34    -0.353936994847E+03   -0.29552E-03   -0.29364E-03 10080   0.150E-01-0.943E-03
CGA:  35    -0.353937186113E+03   -0.19127E-03   -0.25612E-03 10080   0.552E-02 0.123E-02
CGA:  36    -0.353937265520E+03   -0.79407E-04   -0.13459E-03 10080   0.285E-02 0.131E-02
CGA:  37    -0.353937319223E+03   -0.53703E-04   -0.69246E-04 10080   0.694E-03 0.345E-03
CGA:  38    -0.353937370426E+03   -0.51203E-04   -0.54570E-04 10080   0.383E-02-0.408E-03
CGA:  39    -0.353937418206E+03   -0.47780E-04   -0.67545E-04 10080   0.477E-03 0.434E-03
CGA:  40    -0.353937436025E+03   -0.17819E-04   -0.86324E-04 10080   0.454E-02-0.671E-03
CGA:  41    -0.353937554641E+03   -0.11862E-03   -0.11805E-03 10080   0.897E-03-0.464E-04
CGA:  42    -0.353937552391E+03    0.22500E-05   -0.15189E-04 10080   0.240E-03 0.378E-03
   4 F= -.35393755E+03 E0= -.35392798E+03  d E =-.372425E+00  mag=    10.0000
       N       E                     dE             d eps       ncg     rms          ort
SDA:   1    -0.353893632544E+03    0.43922E-01    0.00000E+00 10080   0.176E+00 0.000E+00
CGA:   2    -0.353905246593E+03   -0.11614E-01   -0.11593E-01 10080   0.297E+00-0.122E-03
CGA:   3    -0.353927255533E+03   -0.22009E-01   -0.21828E-01 10080   0.265E+00 0.119E-01
CGA:   4    -0.353936011986E+03   -0.87565E-02   -0.88162E-02 10080   0.429E-01-0.520E-02
CGA:   5    -0.353940297122E+03   -0.42851E-02   -0.44225E-02 10080   0.574E-01-0.307E-02
CGA:   6    -0.353943543310E+03   -0.32462E-02   -0.32462E-02 10080   0.285E-01-0.811E-04
CGA:   7    -0.353944105040E+03   -0.56173E-03   -0.66264E-03 10080   0.410E-02 0.275E-02
CGA:   8    -0.353944609563E+03   -0.50452E-03   -0.48931E-03 10080   0.821E-02 0.294E-03
CGA:   9    -0.353945121551E+03   -0.51199E-03   -0.50613E-03 10080   0.560E-02-0.163E-02
CGA:  10    -0.353945201138E+03   -0.79587E-04   -0.92279E-04 10080   0.123E-02 0.304E-03
CGA:  11    -0.353945235485E+03   -0.34347E-04   -0.41509E-04 10080   0.159E-02 0.259E-03
CGA:  12    -0.353945407056E+03   -0.17157E-03   -0.18178E-03 10080   0.330E-02-0.282E-03
CGA:  13    -0.353945465933E+03   -0.58878E-04   -0.65530E-04 10080   0.160E-02 0.189E-03
CGA:  14    -0.353945472967E+03   -0.70333E-05   -0.25511E-04 10080   0.551E-03 0.432E-03
   5 F= -.35394547E+03 E0= -.35393605E+03  d E =-.792058E-02  mag=    10.0000
       N       E                     dE             d eps       ncg     rms          ort
SDA:   1    -0.353851248403E+03    0.94218E-01    0.00000E+00 10080   0.534E+00 0.000E+00
CGA:   2    -0.353867472880E+03   -0.16224E-01   -0.16324E-01 10080   0.385E+00-0.148E-01
CGA:   3    -0.353922078139E+03   -0.54605E-01   -0.53912E-01 10080   0.390E+00 0.684E-02
CGA:   4    -0.353935830355E+03   -0.13752E-01   -0.14051E-01 10080   0.742E-01-0.292E-02
CGA:   5    -0.353944787446E+03   -0.89571E-02   -0.84924E-02 10080   0.760E-01 0.772E-02
CGA:   6    -0.353948912028E+03   -0.41246E-02   -0.40637E-02 10080   0.524E-01-0.650E-02
CGA:   7    -0.353950406472E+03   -0.14944E-02   -0.15081E-02 10080   0.119E-01 0.438E-03
CGA:   8    -0.353951310915E+03   -0.90444E-03   -0.87336E-03 10080   0.918E-02 0.198E-02
CGA:   9    -0.353951947829E+03   -0.63691E-03   -0.64014E-03 10080   0.124E-01-0.163E-02
CGA:  10    -0.353952312442E+03   -0.36461E-03   -0.36888E-03 10080   0.519E-02 0.171E-03
CGA:  11    -0.353952468469E+03   -0.15603E-03   -0.16077E-03 10080   0.221E-02 0.203E-03
CGA:  12    -0.353952580442E+03   -0.11197E-03   -0.10607E-03 10080   0.385E-02-0.652E-03
CGA:  13    -0.353952785086E+03   -0.20464E-03   -0.20414E-03 10080   0.625E-02 0.242E-04
CGA:  14    -0.353952856941E+03   -0.71854E-04   -0.10324E-03 10080   0.645E-03 0.771E-03
CGA:  15    -0.353952857801E+03   -0.86055E-06   -0.11478E-04 10080   0.412E-03 0.276E-03
CGA:  16    -0.353952869220E+03   -0.11418E-04   -0.18615E-04 10080   0.721E-03 0.351E-03
CGA:  17    -0.353952906120E+03   -0.36900E-04   -0.40075E-04 10080   0.240E-02-0.720E-03
CGA:  18    -0.353952924561E+03   -0.18441E-04   -0.35689E-04 10080   0.232E-03 0.464E-03
CGA:  19    -0.353952925481E+03   -0.91978E-06   -0.53976E-05 10080   0.217E-03 0.148E-03
CGA:  20    -0.353952947912E+03   -0.22431E-04    0.68182E-04 10080   0.277E-03 0.940E-04
CGA:  21    -0.353952972641E+03   -0.24729E-04   -0.22488E-04 10080   0.932E-04 0.259E-03
CGA:  22    -0.353952982610E+03   -0.99689E-05    0.21519E-04 10080   0.867E-04 0.855E-04
   6 F= -.35395298E+03 E0= -.35394367E+03  d E =-.750964E-02  mag=    10.0000
       N       E                     dE             d eps       ncg     rms          ort
SDA:   1    -0.353883420291E+03    0.69552E-01    0.00000E+00 10080   0.193E+00 0.000E+00
CGA:   2    -0.353926506311E+03   -0.43086E-01   -0.10415E-05 10080   0.493E+00-0.571E-01
CGA:   3    -0.353932601104E+03   -0.60948E-02   -0.63237E-02 10080   0.138E+00 0.809E-02
CGA:   4    -0.353938057396E+03   -0.54563E-02   -0.55856E-02 10080   0.238E+00 0.425E-02
CGA:   5    -0.353948583642E+03   -0.10526E-01   -0.10588E-01 10080   0.118E+00 0.811E-03
CGA:   6    -0.353951005974E+03   -0.24223E-02   -0.23853E-02 10080   0.354E-01-0.540E-02
CGA:   7    -0.353952170046E+03   -0.11641E-02   -0.11133E-02 10080   0.234E-01-0.651E-03
CGA:   8    -0.353953163864E+03   -0.99382E-03   -0.98810E-03 10080   0.312E-01-0.243E-03
CGA:   9    -0.353954447398E+03   -0.12835E-02   -0.12465E-02 10080   0.160E-01-0.132E-02
CGA:  10    -0.353954823100E+03   -0.37570E-03   -0.38466E-03 10080   0.649E-02 0.967E-04
CGA:  11    -0.353954933524E+03   -0.11042E-03   -0.15350E-03 10080   0.263E-02 0.941E-03
CGA:  12    -0.353955026250E+03   -0.92726E-04   -0.11146E-03 10080   0.415E-02 0.603E-03
CGA:  13    -0.353955443614E+03   -0.41736E-03   -0.43116E-03 10080   0.331E-02-0.752E-03
CGA:  14    -0.353955511947E+03   -0.68333E-04   -0.45620E-04 10080   0.624E-03-0.468E-03
CGA:  15    -0.353955534185E+03   -0.22238E-04   -0.22881E-04 10080   0.120E-02 0.270E-04
CGA:  16    -0.353955562436E+03   -0.28251E-04   -0.44776E-04 10080   0.816E-03 0.600E-03
CGA:  17    -0.353955584965E+03   -0.22529E-04   -0.23528E-04 10080   0.352E-03 0.267E-04
CGA:  18    -0.353955634844E+03   -0.49879E-04    0.80035E-04 10080   0.330E-03 0.897E-04
CGA:  19    -0.353955649686E+03   -0.14841E-04   -0.18515E-04 10080   0.137E-03 0.235E-03
CGA:  20    -0.353955647471E+03    0.22142E-05   -0.20603E-05 10080   0.808E-04 0.960E-04
   7 F= -.35395565E+03 E0= -.35394643E+03  d E =-.266486E-02  mag=    10.0000
       N       E                     dE             d eps       ncg     rms          ort
SDA:   1    -0.353473055517E+03    0.48259E+00    0.00000E+00 10080   0.207E+01 0.000E+00
CGA:   2    -0.353565655439E+03   -0.92600E-01   -0.93932E-01 10080   0.255E+01 0.125E-01
CGA:   3    -0.353792228665E+03   -0.22657E+00   -0.22660E+00 10080   0.182E+01 0.487E-03
CGA:   4    -0.353859235563E+03   -0.67007E-01   -0.69795E-01 10080   0.546E+00-0.224E-02
CGA:   5    -0.353922685578E+03   -0.63450E-01   -0.62710E-01 10080   0.462E+00 0.119E-01
CGA:   6    -0.353947370998E+03   -0.24685E-01   -0.24713E-01 10080   0.794E-01-0.649E-02
CGA:   7    -0.353950466203E+03   -0.30952E-02   -0.31747E-02 10080   0.716E-01 0.401E-02
CGA:   8    -0.353956196975E+03   -0.57308E-02   -0.56893E-02 10080   0.369E-01 0.208E-02
CGA:   9    -0.353957841721E+03   -0.16447E-02   -0.16245E-02 10080   0.105E-01-0.124E-02
CGA:  10    -0.353958717317E+03   -0.87560E-03   -0.95885E-03 10080   0.182E-01-0.230E-02
CGA:  11    -0.353959307591E+03   -0.59027E-03   -0.60835E-03 10080   0.903E-02 0.104E-02
CGA:  12    -0.353959643623E+03   -0.33603E-03   -0.34277E-03 10080   0.190E-02 0.216E-03
CGA:  13    -0.353959812054E+03   -0.16843E-03   -0.16930E-03 10080   0.466E-02-0.366E-04
CGA:  14    -0.353960014594E+03   -0.20254E-03   -0.20826E-03 10080   0.209E-02 0.411E-03
CGA:  15    -0.353960137209E+03   -0.12262E-03   -0.11546E-03 10080   0.152E-02-0.953E-03
CGA:  16    -0.353960194190E+03   -0.56980E-04   -0.63893E-04 10080   0.247E-02-0.365E-03
CGA:  17    -0.353960213918E+03   -0.19729E-04   -0.39349E-04 10080   0.652E-03 0.510E-03
CGA:  18    -0.353960215979E+03   -0.20606E-05   -0.13543E-04 10080   0.388E-03 0.285E-03
CGA:  19    -0.353960231407E+03   -0.15428E-04   -0.20266E-04 10080   0.618E-03 0.257E-03
CGA:  20    -0.353960263801E+03   -0.32395E-04   -0.37838E-04 10080   0.256E-02-0.771E-03
CGA:  21    -0.353960286912E+03   -0.23110E-04   -0.39235E-04 10080   0.174E-03 0.400E-03
CGA:  22    -0.353960287289E+03   -0.37729E-06   -0.39798E-05 10080   0.149E-03 0.110E-03
CGA:  23    -0.353960303316E+03   -0.16027E-04    0.65947E-04 10080   0.188E-03 0.698E-04
CGA:  24    -0.353960323338E+03   -0.20021E-04   -0.17839E-04 10080   0.738E-04 0.157E-03
CGA:  25    -0.353960337066E+03   -0.13729E-04    0.23699E-05 10080   0.110E-03 0.204E-04
CGA:  26    -0.353960352950E+03   -0.15884E-04   -0.26118E-05 10080   0.157E-02-0.114E-03
CGA:  27    -0.353960390086E+03   -0.37136E-04   -0.33158E-04 10080   0.169E-03-0.641E-04
CGA:  28    -0.353960386462E+03    0.36240E-05   -0.27605E-05 10080   0.547E-04 0.869E-04
   8 F= -.35396039E+03 E0= -.35395132E+03  d E =-.473899E-02  mag=    10.0000
       N       E                     dE             d eps       ncg     rms          ort
SDA:   1    -0.353684815446E+03    0.27557E+00    0.00000E+00 10080   0.856E+00 0.000E+00
CGA:   2    -0.353751587897E+03   -0.66772E-01   -0.66815E-01 10080   0.208E+01 0.254E-02
CGA:   3    -0.353882366375E+03   -0.13078E+00   -0.13069E+00 10080   0.622E+00-0.138E-01
CGA:   4    -0.353915861749E+03   -0.33495E-01   -0.32089E-01 10080   0.197E+00 0.199E-01
CGA:   5    -0.353942596924E+03   -0.26735E-01   -0.26948E-01 10080   0.296E+00-0.442E-02
CGA:   6    -0.353950378721E+03   -0.77818E-02   -0.78663E-02 10080   0.415E-01 0.321E-02
CGA:   7    -0.353952513927E+03   -0.21352E-02   -0.21147E-02 10080   0.380E-01-0.930E-03
CGA:   8    -0.353956573209E+03   -0.40593E-02   -0.40902E-02 10080   0.114E-01-0.101E-02
CGA:   9    -0.353956860976E+03   -0.28777E-03   -0.35776E-03 10080   0.596E-02 0.151E-02
CGA:  10    -0.353957275745E+03   -0.41477E-03   -0.42478E-03 10080   0.658E-02 0.653E-03
CGA:  11    -0.353958033628E+03   -0.75788E-03   -0.79591E-03 10080   0.161E-02-0.120E-02
CGA:  12    -0.353958087329E+03   -0.53700E-04   -0.62972E-04 10080   0.191E-02 0.297E-03
CGA:  13    -0.353958357118E+03   -0.26979E-03   -0.27566E-03 10080   0.240E-02-0.138E-03
CGA:  14    -0.353958394091E+03   -0.36972E-04   -0.53467E-04 10080   0.316E-03 0.294E-03
CGA:  15    -0.353958412442E+03   -0.18351E-04   -0.20115E-04 10080   0.571E-03 0.877E-04
CGA:  16    -0.353958494475E+03   -0.82033E-04   -0.93110E-04 10080   0.152E-02-0.215E-03
CGA:  17    -0.353958500774E+03   -0.62989E-05   -0.13856E-04 10080   0.647E-03 0.121E-03
   9 F= -.35395850E+03 E0= -.35394958E+03  d E =0.188569E-02  mag=    10.0000
       N       E                     dE             d eps       ncg     rms          ort
SDA:   1    -0.353892091216E+03    0.66403E-01    0.00000E+00 10080   0.511E+00 0.000E+00
CGA:   2    -0.353905004168E+03   -0.12913E-01   -0.12945E-01 10080   0.216E+00-0.132E-01
CGA:   3    -0.353943693560E+03   -0.38689E-01   -0.37993E-01 10080   0.226E+00 0.575E-02
CGA:   4    -0.353955333220E+03   -0.11640E-01   -0.11631E-01 10080   0.614E-01-0.975E-02
CGA:   5    -0.353958607809E+03   -0.32746E-02   -0.33249E-02 10080   0.714E-01 0.294E-02
CGA:   6    -0.353963158520E+03   -0.45507E-02   -0.45626E-02 10080   0.348E-01 0.760E-03
CGA:   7    -0.353964423089E+03   -0.12646E-02   -0.12691E-02 10080   0.719E-02 0.382E-03
CGA:   8    -0.353965093816E+03   -0.67073E-03   -0.71625E-03 10080   0.136E-01-0.167E-02
CGA:   9    -0.353965471713E+03   -0.37790E-03   -0.41502E-03 10080   0.670E-02 0.112E-02
CGA:  10    -0.353965697193E+03   -0.22548E-03   -0.25895E-03 10080   0.140E-02 0.982E-03
CGA:  11    -0.353965767407E+03   -0.70214E-04   -0.64029E-04 10080   0.190E-02-0.225E-03
CGA:  12    -0.353965968096E+03   -0.20069E-03   -0.21876E-03 10080   0.344E-02-0.259E-03
CGA:  13    -0.353966027801E+03   -0.59705E-04   -0.56971E-04 10080   0.744E-03-0.653E-04
CGA:  14    -0.353966077237E+03   -0.49436E-04   -0.51237E-04 10080   0.251E-02-0.846E-03
CGA:  15    -0.353966130276E+03   -0.53039E-04   -0.59799E-04 10080   0.471E-03 0.131E-03
CGA:  16    -0.353966131229E+03   -0.95298E-06   -0.11950E-04 10080   0.230E-03 0.262E-03
CGA:  17    -0.353966157676E+03   -0.26446E-04   -0.26266E-04 10080   0.675E-03 0.248E-05
CGA:  18    -0.353966203511E+03   -0.45836E-04   -0.46030E-04 10080   0.423E-03-0.192E-03
CGA:  19    -0.353966201149E+03    0.23627E-05   -0.41217E-05 10080   0.144E-03 0.122E-03
  10 F= -.35396620E+03 E0= -.35395733E+03  d E =-.770037E-02  mag=    10.0000
       N       E                     dE             d eps       ncg     rms          ort
SDA:   1    -0.353959664856E+03    0.65387E-02    0.00000E+00 10080   0.357E-01 0.000E+00
CGA:   2    -0.353960988742E+03   -0.13239E-02   -0.12527E-02 10080   0.303E-01-0.312E-02
CGA:   3    -0.353963955574E+03   -0.29668E-02   -0.30584E-02 10080   0.330E-01-0.187E-02
CGA:   4    -0.353965559382E+03   -0.16038E-02   -0.16202E-02 10080   0.470E-02 0.171E-02
CGA:   5    -0.353966030252E+03   -0.47087E-03   -0.44294E-03 10080   0.520E-02 0.100E-02
CGA:   6    -0.353966394446E+03   -0.36419E-03   -0.36218E-03 10080   0.232E-02-0.361E-03
CGA:   7    -0.353966485409E+03   -0.90963E-04   -0.74615E-04 10080   0.117E-02-0.588E-03
CGA:   8    -0.353966508742E+03   -0.23333E-04   -0.33124E-04 10080   0.368E-03 0.413E-03
CGA:   9    -0.353966516456E+03   -0.77136E-05   -0.14764E-04 10080   0.287E-03 0.229E-03
CGA:  10    -0.353965923594E+03    0.59286E-03   -0.32122E-03 10080   0.442E-01-0.218E-02
CGA:  11    -0.353966576843E+03   -0.65325E-03   -0.75812E-03 10080   0.286E-03 0.626E-03
CGA:  12    -0.353966576628E+03    0.21497E-06   -0.72892E-05 10080   0.874E-04 0.967E-04
  11 F= -.35396658E+03 E0= -.35395775E+03  d E =-.375479E-03  mag=    10.0000
       N       E                     dE             d eps       ncg     rms          ort
SDA:   1    -0.353932505996E+03    0.34071E-01    0.00000E+00 10080   0.253E+00 0.000E+00
CGA:   2    -0.353941070866E+03   -0.85649E-02   -0.87783E-02 10080   0.970E-01 0.571E-03
CGA:   3    -0.353953523520E+03   -0.12453E-01   -0.12362E-01 10080   0.216E+00 0.246E-02
CGA:   4    -0.353960705890E+03   -0.71824E-02   -0.70061E-02 10080   0.318E-01-0.486E-02
CGA:   5    -0.353965436303E+03   -0.47304E-02   -0.47015E-02 10080   0.371E-01 0.463E-03
CGA:   6    -0.353966574247E+03   -0.11379E-02   -0.10739E-02 10080   0.694E-02-0.120E-02
CGA:   7    -0.353966837477E+03   -0.26323E-03   -0.29395E-03 10080   0.344E-02 0.644E-03
CGA:   8    -0.353967217027E+03   -0.37955E-03   -0.37837E-03 10080   0.308E-02 0.945E-04
CGA:   9    -0.353967336236E+03   -0.11921E-03   -0.11730E-03 10080   0.857E-03-0.428E-04
CGA:  10    -0.353967407922E+03   -0.71686E-04   -0.66345E-04 10080   0.285E-02-0.626E-03
CGA:  11    -0.353967430805E+03   -0.22884E-04   -0.49961E-04 10080   0.265E-03 0.384E-03
CGA:  12    -0.353967431488E+03   -0.68292E-06   -0.83234E-05 10080   0.199E-03 0.137E-03
CGA:  13    -0.353967464993E+03   -0.33505E-04    0.17533E-03 10080   0.637E-03-0.358E-04
CGA:  14    -0.353967511040E+03   -0.46047E-04   -0.47290E-04 10080   0.467E-03-0.124E-03
CGA:  15    -0.353967511176E+03   -0.13575E-06   -0.61786E-05 10080   0.154E-03 0.939E-04
  12 F= -.35396751E+03 E0= -.35395873E+03  d E =-.934548E-03  mag=    10.0000
       N       E                     dE             d eps       ncg     rms          ort
SDA:   1    -0.353812159352E+03    0.15535E+00    0.00000E+00 10080   0.389E+00 0.000E+00
CGA:   2    -0.353881099607E+03   -0.68940E-01   -0.68284E-01 10080   0.150E+01 0.602E-02
CGA:   3    -0.353939811378E+03   -0.58712E-01   -0.58299E-01 10080   0.258E+00-0.128E-01
CGA:   4    -0.353949586176E+03   -0.97748E-02   -0.95849E-02 10080   0.128E+00 0.163E-02
CGA:   5    -0.353965104759E+03   -0.15519E-01   -0.15468E-01 10080   0.426E-01 0.933E-03
CGA:   6    -0.353966132749E+03   -0.10280E-02   -0.11102E-02 10080   0.145E-01 0.127E-02
CGA:   7    -0.353968673415E+03   -0.25407E-02   -0.26449E-02 10080   0.846E-02-0.104E-02
CGA:   8    -0.353968835669E+03   -0.16225E-03   -0.20696E-03 10080   0.246E-02 0.832E-03
CGA:   9    -0.353969081198E+03   -0.24553E-03   -0.24159E-03 10080   0.429E-02 0.329E-03
CGA:  10    -0.353969437867E+03   -0.35667E-03   -0.35077E-03 10080   0.118E-02-0.977E-03
CGA:  11    -0.353969471184E+03   -0.33317E-04   -0.36177E-04 10080   0.742E-03 0.733E-04
CGA:  12    -0.353969544227E+03   -0.73043E-04   -0.81589E-04 10080   0.268E-02-0.316E-03
CGA:  13    -0.353969600608E+03   -0.56382E-04   -0.51099E-04 10080   0.201E-02-0.121E-03
CGA:  14    -0.353969626718E+03   -0.26109E-04   -0.29795E-04 10080   0.434E-03 0.582E-04
CGA:  15    -0.353969634331E+03   -0.76137E-05   -0.96940E-05 10080   0.309E-03 0.392E-04
CGA:  16    -0.353969646973E+03   -0.12641E-04   -0.13486E-04 10080   0.526E-03 0.273E-04
CGA:  17    -0.353969670612E+03   -0.23639E-04   -0.25492E-04 10080   0.815E-03 0.775E-04
CGA:  18    -0.353969693268E+03   -0.22656E-04   -0.25260E-04 10080   0.303E-03 0.639E-04
CGA:  19    -0.353969711610E+03   -0.18342E-04   -0.12589E-04 10080   0.256E-03-0.220E-03
CGA:  20    -0.353969726539E+03   -0.14929E-04   -0.11065E-04 10080   0.383E-03-0.190E-03
CGA:  21    -0.353969726747E+03   -0.20815E-06   -0.54482E-05 10080   0.535E-04 0.107E-03
  13 F= -.35396973E+03 E0= -.35396096E+03  d E =-.221557E-02  mag=    10.0000
       N       E                     dE             d eps       ncg     rms          ort
SDA:   1    -0.353269453536E+03    0.70027E+00    0.00000E+00 10080   0.177E+01 0.000E+00
CGA:   2    -0.353653200023E+03   -0.38375E+00   -0.38954E+00 10080   0.594E+01-0.430E-01
CGA:   3    -0.353815289835E+03   -0.16209E+00   -0.17092E+00 10080   0.109E+01-0.249E+00
CGA:   4    -0.353868375290E+03   -0.53085E-01   -0.52902E-01 10080   0.916E+00 0.986E-02
CGA:   5    -0.353945743301E+03   -0.77368E-01   -0.77164E-01 10080   0.154E+00 0.582E-02
CGA:   6    -0.353953440298E+03   -0.76970E-02   -0.76900E-02 10080   0.124E+00-0.824E-03
CGA:   7    -0.353960415894E+03   -0.69756E-02   -0.69456E-02 10080   0.117E+00-0.518E-02
CGA:   8    -0.353966491410E+03   -0.60755E-02   -0.61007E-02 10080   0.129E-01 0.318E-02
CGA:   9    -0.353967777636E+03   -0.12862E-02   -0.12562E-02 10080   0.240E-01 0.890E-03
CGA:  10    -0.353969318075E+03   -0.15404E-02   -0.15415E-02 10080   0.129E-01 0.189E-03
CGA:  11    -0.353969838530E+03   -0.52046E-03   -0.45925E-03 10080   0.433E-02-0.221E-02
CGA:  12    -0.353970111348E+03   -0.27282E-03   -0.26539E-03 10080   0.344E-02 0.664E-03
CGA:  13    -0.353970391217E+03   -0.27987E-03   -0.28065E-03 10080   0.486E-02-0.125E-03
CGA:  14    -0.353970578396E+03   -0.18718E-03   -0.20081E-03 10080   0.126E-02 0.640E-03
CGA:  15    -0.353970661300E+03   -0.82904E-04   -0.22995E-03 10080   0.640E-02-0.150E-02
CGA:  16    -0.353970839521E+03   -0.17822E-03   -0.20569E-03 10080   0.409E-03 0.786E-03
CGA:  17    -0.353970848370E+03   -0.88482E-05   -0.16292E-04 10080   0.291E-03 0.244E-03
CGA:  18    -0.353970896798E+03   -0.48428E-04    0.31870E-04 10080   0.276E-03 0.182E-03
CGA:  19    -0.353970900574E+03   -0.37763E-05   -0.84150E-05 10080   0.217E-03 0.136E-03
CGA:  20    -0.353970968002E+03   -0.67427E-04   -0.57630E-04 10080   0.432E-03 0.850E-04
CGA:  21    -0.353971051215E+03   -0.83214E-04    0.19334E-02 10080   0.485E-03-0.589E-04
CGA:  22    -0.353971066438E+03   -0.15222E-04   -0.13038E-04 10080   0.241E-03-0.598E-04
CGA:  23    -0.353971070675E+03   -0.42375E-05   -0.77286E-05 10080   0.230E-03 0.116E-03
CGA:  24    -0.353971084568E+03   -0.13892E-04   -0.14915E-04 10080   0.204E-03 0.468E-04
CGA:  25    -0.353971118712E+03   -0.34145E-04   -0.37019E-04 10080   0.257E-03-0.323E-04
CGA:  26    -0.353970248431E+03    0.87028E-03   -0.48031E-03 10080   0.234E-01-0.258E-02
CGA:  27    -0.353970823724E+03   -0.57529E-03   -0.64809E-03 10080   0.331E-02 0.134E-02
CGA:  28    -0.353970917235E+03   -0.93511E-04   -0.10102E-03 10080   0.906E-03 0.679E-04
CGA:  29    -0.353971002991E+03   -0.85756E-04   -0.89839E-04 10080   0.110E-02 0.224E-03
CGA:  30    -0.353971158854E+03   -0.15586E-03   -0.15314E-03 10080   0.176E-02-0.911E-03
CGA:  31    -0.353971167074E+03   -0.82201E-05   -0.41108E-04 10080   0.241E-03 0.369E-03
  14 F= -.35397117E+03 E0= -.35396232E+03  d E =-.144033E-02  mag=    10.0000
       N       E                     dE             d eps       ncg     rms          ort
SDA:   1    -0.353933962163E+03    0.37197E-01    0.00000E+00 10080   0.170E+00 0.000E+00
CGA:   2    -0.353942025444E+03   -0.80633E-02   -0.82821E-02 10080   0.188E+00-0.268E-02
CGA:   3    -0.353958657442E+03   -0.16632E-01   -0.16674E-01 10080   0.265E+00 0.285E-02
CGA:   4    -0.353968119900E+03   -0.94625E-02   -0.96303E-02 10080   0.327E-01-0.110E-01
CGA:   5    -0.353972134962E+03   -0.40151E-02   -0.39538E-02 10080   0.321E-01 0.223E-02
CGA:   6    -0.353974135112E+03   -0.20001E-02   -0.19022E-02 10080   0.110E-01-0.263E-02
CGA:   7    -0.353974464041E+03   -0.32893E-03   -0.36432E-03 10080   0.545E-02 0.556E-03
CGA:   8    -0.353974766698E+03   -0.30266E-03   -0.31566E-03 10080   0.451E-02 0.287E-03
CGA:   9    -0.353975127332E+03   -0.36063E-03   -0.35996E-03 10080   0.181E-02-0.551E-04
CGA:  10    -0.353975249482E+03   -0.12215E-03   -0.11891E-03 10080   0.829E-03-0.130E-03
CGA:  11    -0.353975340600E+03   -0.91119E-04   -0.11397E-03 10080   0.336E-02-0.400E-03
CGA:  12    -0.353975367534E+03   -0.26933E-04   -0.37645E-04 10080   0.183E-02 0.146E-03
CGA:  13    -0.353975383099E+03   -0.15565E-04   -0.30281E-04 10080   0.584E-03 0.201E-03
CGA:  14    -0.353975396246E+03   -0.13148E-04   -0.14790E-04 10080   0.355E-03 0.266E-04
CGA:  15    -0.353975426193E+03   -0.29946E-04   -0.23091E-04 10080   0.152E-02-0.332E-03
CGA:  16    -0.353975450276E+03   -0.24083E-04   -0.31989E-04 10080   0.181E-03 0.127E-03
CGA:  17    -0.353975460030E+03   -0.97541E-05   -0.94044E-05 10080   0.174E-03-0.122E-04
CGA:  18    -0.353975469360E+03   -0.93306E-05   -0.10389E-04 10080   0.155E-03 0.784E-04
CGA:  19    -0.353975481790E+03   -0.12430E-04   -0.12089E-04 10080   0.140E-03-0.154E-04
CGA:  20    -0.353975507925E+03   -0.26135E-04    0.12859E-04 10080   0.305E-03-0.120E-03
CGA:  21    -0.353975504723E+03    0.32027E-05   -0.45153E-05 10080   0.721E-04 0.126E-03
  15 F= -.35397550E+03 E0= -.35396664E+03  d E =-.433765E-02  mag=    10.0000
       N       E                     dE             d eps       ncg     rms          ort
SDA:   1    -0.353926959094E+03    0.48549E-01    0.00000E+00 10080   0.128E+00 0.000E+00
CGA:   2    -0.353948822896E+03   -0.21864E-01   -0.22410E-01 10080   0.298E+00-0.483E-02
CGA:   3    -0.353964125125E+03   -0.15302E-01   -0.15391E-01 10080   0.140E+00 0.729E-02
CGA:   4    -0.353968301812E+03   -0.41767E-02   -0.42182E-02 10080   0.372E-01 0.552E-03
CGA:   5    -0.353971949801E+03   -0.36480E-02   -0.36656E-02 10080   0.455E-01-0.736E-03
CGA:   6    -0.353973934895E+03   -0.19851E-02   -0.19647E-02 10080   0.411E-02-0.758E-03
CGA:   7    -0.353974219502E+03   -0.28461E-03   -0.28507E-03 10080   0.733E-02 0.479E-03
CGA:   8    -0.353974752328E+03   -0.53283E-03   -0.52863E-03 10080   0.223E-02-0.640E-03
CGA:   9    -0.353974786629E+03   -0.34300E-04   -0.50852E-04 10080   0.544E-03 0.352E-03
CGA:  10    -0.353974838657E+03   -0.52029E-04   -0.49125E-04 10080   0.571E-03 0.311E-03
CGA:  11    -0.353974868249E+03   -0.29592E-04   -0.54568E-04 10080   0.469E-02-0.958E-03
CGA:  12    -0.353974917629E+03   -0.49380E-04   -0.77046E-04 10080   0.244E-03 0.490E-03
CGA:  13    -0.353974915838E+03    0.17915E-05   -0.53378E-05 10080   0.151E-03 0.148E-03
CGA:  14    -0.353974927494E+03   -0.11656E-04   -0.11445E-04 10080   0.329E-03 0.194E-04
CGA:  15    -0.353974943266E+03   -0.15772E-04   -0.18451E-04 10080   0.160E-03 0.164E-03
CGA:  16    -0.353974977044E+03   -0.33778E-04    0.95067E-04 10080   0.108E-03 0.496E-04
CGA:  17    -0.353974724289E+03    0.25276E-03   -0.13646E-03 10080   0.182E-01-0.871E-03
CGA:  18    -0.353974983626E+03   -0.25934E-03   -0.30562E-03 10080   0.124E-03 0.362E-03
CGA:  19    -0.353974986204E+03   -0.25785E-05   -0.60099E-05 10080   0.104E-03 0.516E-04
CGA:  20    -0.353975000607E+03   -0.14402E-04   -0.14451E-04 10080   0.258E-03 0.358E-05
CGA:  21    -0.353975006238E+03   -0.56316E-05   -0.84519E-05 10080   0.515E-04 0.357E-04
  16 F= -.35397501E+03 E0= -.35396613E+03  d E =0.498484E-03  mag=    10.0000
       N       E                     dE             d eps       ncg     rms          ort
SDA:   1    -0.353949105611E+03    0.25895E-01    0.00000E+00 10080   0.369E+00 0.000E+00
CGA:   2    -0.353956048907E+03   -0.69433E-02   -0.73538E-02 10080   0.578E-01-0.581E-02
CGA:   3    -0.353970253438E+03   -0.14205E-01   -0.13995E-01 10080   0.381E-01 0.138E-02
CGA:   4    -0.353972033025E+03   -0.17796E-02   -0.17263E-02 10080   0.293E-01-0.942E-03
CGA:   5    -0.353973865138E+03   -0.18321E-02   -0.17496E-02 10080   0.284E-01-0.231E-02
CGA:   6    -0.353975140498E+03   -0.12754E-02   -0.13344E-02 10080   0.416E-02 0.129E-02
CGA:   7    -0.353975339686E+03   -0.19919E-03   -0.20042E-03 10080   0.210E-02-0.189E-04
CGA:   8    -0.353975600885E+03   -0.26120E-03   -0.25762E-03 10080   0.208E-02 0.127E-03
CGA:   9    -0.353975693588E+03   -0.92704E-04   -0.67717E-04 10080   0.630E-03-0.398E-03
CGA:  10    -0.353975727044E+03   -0.33456E-04   -0.32772E-04 10080   0.533E-03-0.257E-04
CGA:  11    -0.353975764387E+03   -0.37342E-04   -0.37293E-04 10080   0.443E-03-0.483E-05
CGA:  12    -0.353975768549E+03   -0.41625E-05   -0.12043E-04 10080   0.736E-04 0.122E-03
CGA:  13    -0.353975787176E+03   -0.18626E-04    0.32353E-04 10080   0.113E-03 0.373E-04
CGA:  14    -0.353975791129E+03   -0.39533E-05   -0.33741E-05 10080   0.668E-04-0.108E-04
  17 F= -.35397579E+03 E0= -.35396690E+03  d E =-.784890E-03  mag=    10.0000
       N       E                     dE             d eps       ncg     rms          ort
SDA:   1    -0.353916189457E+03    0.59598E-01    0.00000E+00 10080   0.181E+00 0.000E+00
CGA:   2    -0.353929987053E+03   -0.13798E-01   -0.13831E-01 10080   0.421E+00 0.232E-02
CGA:   3    -0.353960695921E+03   -0.30709E-01   -0.30775E-01 10080   0.256E+00 0.630E-02
CGA:   4    -0.353970031319E+03   -0.93354E-02   -0.93057E-02 10080   0.403E-01-0.109E-01
CGA:   5    -0.353973383055E+03   -0.33517E-02   -0.33575E-02 10080   0.409E-01-0.639E-03
CGA:   6    -0.353976258491E+03   -0.28754E-02   -0.28743E-02 10080   0.134E-01-0.356E-03
CGA:   7    -0.353976527416E+03   -0.26893E-03   -0.31284E-03 10080   0.309E-02 0.730E-03
CGA:   8    -0.353976942235E+03   -0.41482E-03   -0.41038E-03 10080   0.509E-02 0.841E-04
CGA:   9    -0.353977236338E+03   -0.29410E-03   -0.27789E-03 10080   0.147E-02-0.654E-03
CGA:  10    -0.353977251743E+03   -0.15404E-04   -0.31296E-04 10080   0.552E-03 0.294E-03
CGA:  11    -0.353977268030E+03   -0.16287E-04   -0.25565E-04 10080   0.467E-03 0.253E-03
CGA:  12    -0.353977326847E+03   -0.58816E-04   -0.62636E-04 10080   0.203E-02-0.207E-03
CGA:  13    -0.353977347700E+03   -0.20853E-04   -0.15968E-04 10080   0.195E-02-0.816E-04
CGA:  14    -0.353977366794E+03   -0.19094E-04   -0.19262E-04 10080   0.489E-03-0.349E-07
CGA:  15    -0.353977370460E+03   -0.36664E-05   -0.47629E-05 10080   0.189E-03 0.167E-04
  18 F= -.35397737E+03 E0= -.35396846E+03  d E =-.157933E-02  mag=    10.0000
       N       E                     dE             d eps       ncg     rms          ort
SDA:   1    -0.353874985898E+03    0.10238E+00    0.00000E+00 10080   0.786E+00 0.000E+00
CGA:   2    -0.353892808031E+03   -0.17822E-01   -0.17953E-01 10080   0.265E+00 0.688E-02
CGA:   3    -0.353957750065E+03   -0.64942E-01   -0.64940E-01 10080   0.354E+00 0.380E-03
CGA:   4    -0.353968888906E+03   -0.11139E-01   -0.11128E-01 10080   0.529E-01 0.379E-02
CGA:   5    -0.353971595968E+03   -0.27071E-02   -0.27251E-02 10080   0.736E-01 0.851E-03
CGA:   6    -0.353977051860E+03   -0.54559E-02   -0.54793E-02 10080   0.206E-01-0.412E-02
CGA:   7    -0.353977775029E+03   -0.72317E-03   -0.77942E-03 10080   0.381E-02 0.223E-02
CGA:   8    -0.353978229310E+03   -0.45428E-03   -0.42013E-03 10080   0.625E-02 0.102E-02
CGA:   9    -0.353978681943E+03   -0.45263E-03   -0.43788E-03 10080   0.451E-02-0.120E-02
CGA:  10    -0.353978775640E+03   -0.93697E-04   -0.95344E-04 10080   0.800E-03 0.258E-04
CGA:  11    -0.353978800846E+03   -0.25206E-04   -0.32639E-04 10080   0.103E-02 0.300E-03
CGA:  12    -0.353978902726E+03   -0.10188E-03   -0.10049E-03 10080   0.644E-03 0.193E-03
CGA:  13    -0.353978957422E+03   -0.54696E-04   -0.68835E-04 10080   0.128E-02-0.554E-03
CGA:  14    -0.353978980170E+03   -0.22748E-04   -0.29260E-04 10080   0.175E-03 0.143E-03
CGA:  15    -0.353978980292E+03   -0.12225E-06   -0.46328E-05 10080   0.115E-03 0.114E-03
CGA:  16    -0.353978995156E+03   -0.14864E-04    0.67260E-04 10080   0.989E-04 0.664E-04
CGA:  17    -0.353978999598E+03   -0.44421E-05   -0.48502E-05 10080   0.931E-04 0.324E-04
CGA:  18    -0.353979016023E+03   -0.16424E-04   -0.14162E-04 10080   0.141E-03 0.419E-04
CGA:  19    -0.353978505231E+03    0.51079E-03   -0.27762E-03 10080   0.278E-01-0.171E-02
CGA:  20    -0.353978932444E+03   -0.42721E-03   -0.50224E-03 10080   0.981E-03 0.574E-03
CGA:  21    -0.353978959231E+03   -0.26787E-04   -0.35908E-04 10080   0.472E-03 0.119E-03
CGA:  22    -0.353979058271E+03   -0.99040E-04   -0.11556E-03 10080   0.107E-02-0.150E-03
CGA:  23    -0.353979062241E+03   -0.39700E-05   -0.92207E-05 10080   0.217E-03 0.503E-04
  19 F= -.35397906E+03 E0= -.35397012E+03  d E =-.169178E-02  mag=    10.0000
       N       E                     dE             d eps       ncg     rms          ort
SDA:   1    -0.353969435467E+03    0.96228E-02    0.00000E+00 10080   0.128E+00 0.000E+00
CGA:   2    -0.353972092467E+03   -0.26570E-02   -0.26273E-02 10080   0.226E-01-0.466E-02
CGA:   3    -0.353976214061E+03   -0.41216E-02   -0.41749E-02 10080   0.482E-01-0.603E-03
CGA:   4    -0.353978054394E+03   -0.18403E-02   -0.17850E-02 10080   0.952E-02-0.186E-02
CGA:   5    -0.353978337815E+03   -0.28342E-03   -0.33472E-03 10080   0.545E-02 0.822E-03
CGA:   6    -0.353978773366E+03   -0.43555E-03   -0.45147E-03 10080   0.399E-02 0.752E-03
CGA:   7    -0.353979059052E+03   -0.28569E-03   -0.27568E-03 10080   0.102E-02-0.303E-03
CGA:   8    -0.353979093525E+03   -0.34473E-04   -0.39353E-04 10080   0.665E-03 0.875E-04
CGA:   9    -0.353979103238E+03   -0.97127E-05   -0.25526E-04 10080   0.226E-03 0.280E-03
CGA:  10    -0.353979134515E+03   -0.31277E-04   -0.31451E-04 10080   0.580E-03-0.203E-04
CGA:  11    -0.353979157567E+03   -0.23052E-04   -0.19134E-04 10080   0.327E-03-0.749E-04
CGA:  12    -0.353979159284E+03   -0.17170E-05   -0.51525E-05 10080   0.121E-03 0.498E-04
  20 F= -.35397916E+03 E0= -.35397021E+03  d E =-.970430E-04  mag=    10.0000
       N       E                     dE             d eps       ncg     rms          ort
SDA:   1    -0.353964731606E+03    0.14426E-01    0.00000E+00 10080   0.481E-01 0.000E+00
CGA:   2    -0.353968415213E+03   -0.36836E-02   -0.36799E-02 10080   0.953E-01-0.162E-02
CGA:   3    -0.353973914233E+03   -0.54990E-02   -0.54929E-02 10080   0.605E-01-0.534E-03
CGA:   4    -0.353976094471E+03   -0.21802E-02   -0.21772E-02 10080   0.135E-01-0.166E-02
CGA:   5    -0.353977042967E+03   -0.94850E-03   -0.95545E-03 10080   0.108E-01 0.182E-02
CGA:   6    -0.353978084824E+03   -0.10419E-02   -0.10463E-02 10080   0.798E-02-0.500E-03
CGA:   7    -0.353978302196E+03   -0.21737E-03   -0.19095E-03 10080   0.168E-02-0.545E-03
CGA:   8    -0.353978364091E+03   -0.61895E-04   -0.76550E-04 10080   0.598E-03 0.580E-03
CGA:   9    -0.353978406047E+03   -0.41956E-04   -0.46327E-04 10080   0.843E-03 0.283E-03
CGA:  10    -0.353978495805E+03   -0.89757E-04   -0.89790E-04 10080   0.571E-03-0.250E-03
CGA:  11    -0.353978498416E+03   -0.26109E-05   -0.76174E-05 10080   0.179E-03 0.928E-04
  21 F= -.35397850E+03 E0= -.35396956E+03  d E =0.660869E-03  mag=    10.0000
       N       E                     dE             d eps       ncg     rms          ort
SDA:   1    -0.353964515506E+03    0.13980E-01    0.00000E+00 10080   0.111E+00 0.000E+00
CGA:   2    -0.353967223914E+03   -0.27084E-02   -0.27666E-02 10080   0.426E-01 0.550E-03
CGA:   3    -0.353972231037E+03   -0.50071E-02   -0.52685E-02 10080   0.668E-01-0.461E-02
CGA:   4    -0.353975654848E+03   -0.34238E-02   -0.34365E-02 10080   0.132E-01 0.129E-02
CGA:   5    -0.353976360330E+03   -0.70548E-03   -0.72934E-03 10080   0.977E-02 0.183E-02
CGA:   6    -0.353977545210E+03   -0.11849E-02   -0.11782E-02 10080   0.380E-02 0.160E-03
CGA:   7    -0.353977695962E+03   -0.15075E-03   -0.12228E-03 10080   0.191E-02-0.803E-03
CGA:   8    -0.353977799664E+03   -0.10370E-03   -0.10367E-03 10080   0.149E-02 0.796E-05
CGA:   9    -0.353977856393E+03   -0.56730E-04   -0.67072E-04 10080   0.255E-03 0.466E-03
CGA:  10    -0.353977870480E+03   -0.14087E-04   -0.16408E-04 10080   0.172E-03 0.139E-03
CGA:  11    -0.353977893831E+03   -0.23351E-04    0.11249E-03 10080   0.133E-03 0.582E-04
CGA:  12    -0.353977917103E+03   -0.23271E-04    0.76164E-03 10080   0.956E-04 0.105E-03
CGA:  13    -0.353977915696E+03    0.14061E-05   -0.15639E-05 10080   0.562E-04 0.610E-04
  22 F= -.35397792E+03 E0= -.35396897E+03  d E =0.582719E-03  mag=    10.0000
       N       E                     dE             d eps       ncg     rms          ort
SDA:   1    -0.353835492121E+03    0.14242E+00    0.00000E+00 10080   0.372E+00 0.000E+00
CGA:   2    -0.353900706060E+03   -0.65214E-01   -0.65654E-01 10080   0.106E+01-0.522E-02
CGA:   3    -0.353950775186E+03   -0.50069E-01   -0.50022E-01 10080   0.125E+00-0.718E-02
CGA:   4    -0.353959192768E+03   -0.84176E-02   -0.84170E-02 10080   0.224E+00-0.248E-03
CGA:   5    -0.353970467588E+03   -0.11275E-01   -0.11373E-01 10080   0.563E-01 0.623E-02
CGA:   6    -0.353973338429E+03   -0.28708E-02   -0.28407E-02 10080   0.118E-01-0.313E-02
CGA:   7    -0.353974724939E+03   -0.13865E-02   -0.13180E-02 10080   0.136E-01 0.125E-02
CGA:   8    -0.353975232883E+03   -0.50794E-03   -0.51772E-03 10080   0.458E-02 0.151E-03
CGA:   9    -0.353975427093E+03   -0.19421E-03   -0.20320E-03 10080   0.255E-02 0.404E-03
CGA:  10    -0.353975668741E+03   -0.24165E-03   -0.38596E-03 10080   0.977E-02-0.194E-02
CGA:  11    -0.353975825733E+03   -0.15699E-03   -0.21041E-03 10080   0.945E-03 0.118E-02
CGA:  12    -0.353975841765E+03   -0.16032E-04   -0.27510E-04 10080   0.386E-03 0.284E-03
CGA:  13    -0.353975878344E+03   -0.36580E-04   -0.35523E-04 10080   0.798E-03 0.152E-03
CGA:  14    -0.353975958291E+03   -0.79947E-04   -0.80590E-04 10080   0.109E-02-0.813E-04
CGA:  15    -0.353976015629E+03   -0.57338E-04   -0.49269E-04 10080   0.473E-03-0.564E-03
CGA:  16    -0.353976029070E+03   -0.13441E-04   -0.19401E-04 10080   0.308E-03 0.260E-03
CGA:  17    -0.353975792083E+03    0.23699E-03   -0.13001E-03 10080   0.209E-01-0.110E-02
CGA:  18    -0.353976097788E+03   -0.30570E-03   -0.37266E-03 10080   0.583E-03 0.565E-03
CGA:  19    -0.353976102044E+03   -0.42562E-05   -0.14450E-04 10080   0.104E-03 0.118E-03
  23 F= -.35397610E+03 E0= -.35396720E+03  d E =0.181365E-02  mag=    10.0000
       N       E                     dE             d eps       ncg     rms          ort
SDA:   1    -0.353910062870E+03    0.66035E-01    0.00000E+00 10080   0.479E+00 0.000E+00
CGA:   2    -0.353922610501E+03   -0.12548E-01   -0.13623E-01 10080   0.249E+00-0.314E-01
CGA:   3    -0.353948022310E+03   -0.25412E-01   -0.25349E-01 10080   0.398E+00 0.683E-02
CGA:   4    -0.353968107129E+03   -0.20085E-01   -0.20287E-01 10080   0.602E-01-0.943E-02
CGA:   5    -0.353971766615E+03   -0.36595E-02   -0.36346E-02 10080   0.483E-01 0.369E-03
CGA:   6    -0.353975324097E+03   -0.35575E-02   -0.35124E-02 10080   0.607E-01-0.208E-02
CGA:   7    -0.353977145739E+03   -0.18216E-02   -0.18397E-02 10080   0.417E-02 0.695E-03
CGA:   8    -0.353977409890E+03   -0.26415E-03   -0.27244E-03 10080   0.397E-02 0.315E-03
CGA:   9    -0.353977901433E+03   -0.49154E-03   -0.53290E-03 10080   0.643E-02-0.120E-02
CGA:  10    -0.353977968586E+03   -0.67153E-04   -0.85098E-04 10080   0.153E-02 0.229E-03
CGA:  11    -0.353977975434E+03   -0.68476E-05   -0.28038E-04 10080   0.740E-03 0.301E-03
CGA:  12    -0.353977983149E+03   -0.77152E-05   -0.22376E-04 10080   0.642E-03 0.246E-03
CGA:  13    -0.353978015590E+03   -0.32441E-04   -0.35867E-04 10080   0.116E-02 0.830E-04
CGA:  14    -0.353978068200E+03   -0.52610E-04   -0.50923E-04 10080   0.912E-03-0.427E-04
CGA:  15    -0.353978081189E+03   -0.12989E-04   -0.13047E-04 10080   0.216E-03-0.185E-05
CGA:  16    -0.353978086558E+03   -0.53692E-05   -0.47309E-05 10080   0.190E-03-0.133E-04
CGA:  17    -0.353978099304E+03   -0.12746E-04   -0.12485E-04 10080   0.675E-03-0.172E-03
CGA:  18    -0.353978115247E+03   -0.15944E-04   -0.19059E-04 10080   0.119E-03 0.686E-04
CGA:  19    -0.353978113669E+03    0.15785E-05   -0.22219E-05 10080   0.515E-04 0.720E-04
  24 F= -.35397811E+03 E0= -.35396920E+03  d E =-.201163E-02  mag=    10.0000
       N       E                     dE             d eps       ncg     rms          ort
SDA:   1    -0.353894307329E+03    0.83808E-01    0.00000E+00 10080   0.334E+00 0.000E+00
CGA:   2    -0.353906151737E+03   -0.11844E-01   -0.12030E-01 10080   0.347E+00 0.280E-02
CGA:   3    -0.353966310110E+03   -0.60158E-01   -0.60404E-01 10080   0.813E-01-0.237E-02
CGA:   4    -0.353970482320E+03   -0.41722E-02   -0.41656E-02 10080   0.611E-01-0.218E-02
CGA:   5    -0.353976581867E+03   -0.60995E-02   -0.60148E-02 10080   0.222E-01 0.257E-02
CGA:   6    -0.353977283915E+03   -0.70205E-03   -0.65412E-03 10080   0.878E-02-0.144E-02
CGA:   7    -0.353977971019E+03   -0.68710E-03   -0.70057E-03 10080   0.920E-02-0.808E-03
CGA:   8    -0.353978451032E+03   -0.48001E-03   -0.48712E-03 10080   0.224E-02 0.653E-03
CGA:   9    -0.353978494329E+03   -0.43297E-04   -0.63482E-04 10080   0.788E-03 0.476E-03
CGA:  10    -0.353978674928E+03   -0.18060E-03   -0.17644E-03 10080   0.105E-02 0.345E-04
CGA:  11    -0.353978752637E+03   -0.77709E-04   -0.76045E-04 10080   0.827E-03-0.612E-03
CGA:  12    -0.353978764864E+03   -0.12226E-04   -0.20020E-04 10080   0.249E-03 0.161E-03
CGA:  13    -0.353978779820E+03   -0.14956E-04   -0.16028E-04 10080   0.241E-03 0.670E-04
CGA:  14    -0.353978810890E+03   -0.31071E-04   -0.32460E-04 10080   0.378E-03-0.375E-04
CGA:  15    -0.353978821241E+03   -0.10351E-04   -0.82091E-05 10080   0.107E-03-0.487E-04
CGA:  16    -0.353978840304E+03   -0.19063E-04    0.63834E-05 10080   0.271E-03-0.711E-04
CGA:  17    -0.353978841919E+03   -0.16151E-05   -0.57408E-05 10080   0.647E-04 0.860E-04
  25 F= -.35397884E+03 E0= -.35396993E+03  d E =-.728250E-03  mag=    10.0000
       N       E                     dE             d eps       ncg     rms          ort
SDA:   1    -0.353964160749E+03    0.14680E-01    0.00000E+00 10080   0.126E+00 0.000E+00
CGA:   2    -0.353967087429E+03   -0.29267E-02   -0.28861E-02 10080   0.402E-01-0.322E-02
CGA:   3    -0.353975254804E+03   -0.81674E-02   -0.80442E-02 10080   0.493E-01 0.798E-03
CGA:   4    -0.353977160024E+03   -0.19052E-02   -0.18777E-02 10080   0.118E-01-0.204E-02
CGA:   5    -0.353977839665E+03   -0.67964E-03   -0.68978E-03 10080   0.131E-01 0.158E-02
CGA:   6    -0.353978613995E+03   -0.77433E-03   -0.77469E-03 10080   0.656E-02-0.631E-04
CGA:   7    -0.353978926931E+03   -0.31294E-03   -0.30626E-03 10080   0.181E-02-0.367E-03
CGA:   8    -0.353979017898E+03   -0.90966E-04   -0.88013E-04 10080   0.201E-02-0.226E-03
CGA:   9    -0.353979084750E+03   -0.66853E-04   -0.77785E-04 10080   0.290E-03 0.536E-03
CGA:  10    -0.353979113991E+03   -0.29241E-04   -0.51274E-04 10080   0.249E-02-0.294E-03
CGA:  11    -0.353979161816E+03   -0.47825E-04   -0.48342E-04 10080   0.170E-03-0.137E-04
CGA:  12    -0.353979159603E+03    0.22128E-05   -0.27885E-05 10080   0.776E-04 0.103E-03
  26 F= -.35397916E+03 E0= -.35397023E+03  d E =-.317684E-03  mag=    10.0000
       N       E                     dE             d eps       ncg     rms          ort
SDA:   1    -0.353967425943E+03    0.11736E-01    0.00000E+00 10080   0.355E-01 0.000E+00
CGA:   2    -0.353970015679E+03   -0.25897E-02   -0.25808E-02 10080   0.766E-01 0.638E-03
CGA:   3    -0.353975512263E+03   -0.54966E-02   -0.55308E-02 10080   0.521E-01-0.379E-02
CGA:   4    -0.353977363795E+03   -0.18515E-02   -0.18831E-02 10080   0.877E-02 0.130E-02
CGA:   5    -0.353977904543E+03   -0.54075E-03   -0.54119E-03 10080   0.633E-02 0.177E-02
CGA:   6    -0.353978666375E+03   -0.76183E-03   -0.75812E-03 10080   0.209E-02 0.865E-04
CGA:   7    -0.353978747526E+03   -0.81151E-04   -0.69232E-04 10080   0.131E-02-0.411E-03
CGA:   8    -0.353978812865E+03   -0.65339E-04   -0.65085E-04 10080   0.533E-03 0.328E-03
CGA:   9    -0.353978834046E+03   -0.21181E-04   -0.25773E-04 10080   0.241E-03 0.206E-03
CGA:  10    -0.353978499906E+03    0.33414E-03   -0.18050E-03 10080   0.200E-01-0.141E-02
CGA:  11    -0.353978805113E+03   -0.30521E-03   -0.35399E-03 10080   0.951E-03 0.563E-03
CGA:  12    -0.353978837151E+03   -0.32038E-04   -0.43152E-04 10080   0.396E-03 0.182E-03
CGA:  13    -0.353978877680E+03   -0.40529E-04   -0.40833E-04 10080   0.758E-03 0.187E-04
CGA:  14    -0.353978900614E+03   -0.22934E-04   -0.24712E-04 10080   0.826E-04 0.234E-04
CGA:  15    -0.353978917815E+03   -0.17201E-04    0.10779E-03 10080   0.492E-03-0.170E-03
CGA:  16    -0.353978919923E+03   -0.21080E-05   -0.10212E-04 10080   0.491E-04 0.103E-03
  27 F= -.35397892E+03 E0= -.35397001E+03  d E =0.239680E-03  mag=    10.0000
       N       E                     dE             d eps       ncg     rms          ort
SDA:   1    -0.353939823482E+03    0.39094E-01    0.00000E+00 10080   0.122E+00 0.000E+00
CGA:   2    -0.353948852855E+03   -0.90294E-02   -0.89868E-02 10080   0.287E+00-0.459E-02
CGA:   3    -0.353966818841E+03   -0.17966E-01   -0.17953E-01 10080   0.166E+00-0.114E-02
CGA:   4    -0.353974666194E+03   -0.78474E-02   -0.78343E-02 10080   0.216E-01 0.598E-02
CGA:   5    -0.353976580009E+03   -0.19138E-02   -0.19138E-02 10080   0.534E-01-0.114E-02
CGA:   6    -0.353978500987E+03   -0.19210E-02   -0.19408E-02 10080   0.700E-02 0.329E-03
CGA:   7    -0.353978701995E+03   -0.20101E-03   -0.21914E-03 10080   0.329E-02 0.411E-03
CGA:   8    -0.353978922643E+03   -0.22065E-03   -0.21621E-03 10080   0.586E-02-0.263E-03
CGA:   9    -0.353979198740E+03   -0.27610E-03   -0.27451E-03 10080   0.174E-02-0.612E-04
CGA:  10    -0.353979218856E+03   -0.20116E-04   -0.35333E-04 10080   0.592E-03 0.261E-03
CGA:  11    -0.353979228975E+03   -0.10119E-04   -0.20503E-04 10080   0.430E-03 0.229E-03
CGA:  12    -0.353979253571E+03   -0.24596E-04   -0.26944E-04 10080   0.660E-03 0.822E-04
CGA:  13    -0.353979302874E+03   -0.49303E-04   -0.48410E-04 10080   0.442E-03-0.890E-04
CGA:  14    -0.353979317621E+03   -0.14747E-04   -0.89535E-05 10080   0.138E-03-0.124E-03
CGA:  15    -0.353979341353E+03   -0.23732E-04    0.46615E-05 10080   0.318E-03-0.779E-04
CGA:  16    -0.353979340190E+03    0.11631E-05   -0.62800E-05 10080   0.945E-04 0.151E-03
  28 F= -.35397934E+03 E0= -.35397043E+03  d E =-.420267E-03  mag=    10.0000
       N       E                     dE             d eps       ncg     rms          ort
SDA:   1    -0.353857461835E+03    0.12188E+00    0.00000E+00 10080   0.294E+00 0.000E+00
CGA:   2    -0.353920795258E+03   -0.63333E-01   -0.63389E-01 10080   0.114E+01-0.192E-02
CGA:   3    -0.353960846722E+03   -0.40051E-01   -0.39965E-01 10080   0.217E+00-0.114E-01
CGA:   4    -0.353967754746E+03   -0.69080E-02   -0.69041E-02 10080   0.721E-01 0.242E-02
CGA:   5    -0.353975297031E+03   -0.75423E-02   -0.74394E-02 10080   0.580E-01 0.285E-02
CGA:   6    -0.353978492518E+03   -0.31955E-02   -0.31650E-02 10080   0.157E-01-0.239E-02
CGA:   7    -0.353979066657E+03   -0.57414E-03   -0.53854E-03 10080   0.118E-01-0.117E-02
CGA:   8    -0.353980082764E+03   -0.10161E-02   -0.98070E-03 10080   0.211E-02 0.153E-02
CGA:   9    -0.353980330348E+03   -0.24758E-03   -0.29891E-03 10080   0.511E-02-0.906E-03
CGA:  10    -0.353980442669E+03   -0.11232E-03   -0.11421E-03 10080   0.381E-02 0.556E-04
CGA:  11    -0.353980528664E+03   -0.85995E-04   -0.10361E-03 10080   0.918E-03 0.409E-03
CGA:  12    -0.353980544996E+03   -0.16333E-04   -0.24427E-04 10080   0.457E-03 0.184E-03
CGA:  13    -0.353980567082E+03   -0.22085E-04   -0.25877E-04 10080   0.655E-03 0.211E-03
CGA:  14    -0.353980639583E+03   -0.72501E-04   -0.73600E-04 10080   0.885E-03-0.873E-04
CGA:  15    -0.353980683141E+03   -0.43558E-04   -0.26446E-04 10080   0.213E-03-0.569E-03
CGA:  16    -0.353980686117E+03   -0.29760E-05   -0.68898E-05 10080   0.144E-03 0.126E-03
CGA:  17    -0.353980574463E+03    0.11165E-03   -0.60782E-04 10080   0.104E-01-0.496E-03
CGA:  18    -0.353980719528E+03   -0.14507E-03   -0.17272E-03 10080   0.494E-04 0.216E-03
CGA:  19    -0.353980723911E+03   -0.43829E-05   -0.43417E-05 10080   0.122E-03-0.204E-05
CGA:  20    -0.353980721347E+03    0.25636E-05   -0.21879E-04 10080   0.148E-02-0.303E-03
CGA:  21    -0.353980734000E+03   -0.12653E-04   -0.26540E-04 10080   0.139E-03 0.145E-03
CGA:  22    -0.353980733827E+03    0.17274E-06   -0.45822E-05 10080   0.686E-04 0.622E-04
  29 F= -.35398073E+03 E0= -.35397182E+03  d E =-.139364E-02  mag=    10.0000
       N       E                     dE             d eps       ncg     rms          ort
SDA:   1    -0.353361239735E+03    0.61949E+00    0.00000E+00 10080   0.153E+01 0.000E+00
CGA:   2    -0.353627980426E+03   -0.26674E+00   -0.26406E+00 10080   0.548E+01 0.325E-01
CGA:   3    -0.353847742523E+03   -0.21976E+00   -0.22338E+00 10080   0.221E+01-0.121E+00
CGA:   4    -0.353922999513E+03   -0.75257E-01   -0.84269E-01 10080   0.305E+00-0.175E+00
CGA:   5    -0.353957228071E+03   -0.34229E-01   -0.34161E-01 10080   0.368E+00 0.105E-02
CGA:   6    -0.353972100755E+03   -0.14873E-01   -0.15281E-01 10080   0.877E-01-0.260E-02
CGA:   7    -0.353974915950E+03   -0.28152E-02   -0.28615E-02 10080   0.443E-01 0.289E-03
CGA:   8    -0.353978473358E+03   -0.35574E-02   -0.35217E-02 10080   0.430E-01-0.332E-02
CGA:   9    -0.353981123242E+03   -0.26499E-02   -0.27069E-02 10080   0.441E-02 0.262E-02
CGA:  10    -0.353981595813E+03   -0.47257E-03   -0.47982E-03 10080   0.154E-01-0.607E-03
CGA:  11    -0.353982219343E+03   -0.62353E-03   -0.63210E-03 10080   0.644E-02 0.186E-03
CGA:  12    -0.353982367636E+03   -0.14829E-03   -0.16491E-03 10080   0.175E-02 0.332E-03
CGA:  13    -0.353982439673E+03   -0.72037E-04   -0.63352E-04 10080   0.155E-02-0.187E-03
CGA:  14    -0.353982423035E+03    0.16638E-04   -0.41475E-03 10080   0.157E-01-0.200E-02
CGA:  15    -0.353982705713E+03   -0.28268E-03   -0.35651E-03 10080   0.247E-02 0.123E-02
CGA:  16    -0.353982758756E+03   -0.53044E-04   -0.75537E-04 10080   0.452E-03 0.366E-03
CGA:  17    -0.353982825236E+03   -0.66480E-04   -0.67802E-04 10080   0.183E-02-0.318E-04
CGA:  18    -0.353982871360E+03   -0.46124E-04   -0.51449E-04 10080   0.590E-03 0.871E-04
CGA:  19    -0.353982885593E+03   -0.14233E-04   -0.14187E-04 10080   0.198E-03-0.143E-05
CGA:  20    -0.353982901645E+03   -0.16052E-04   -0.10042E-04 10080   0.342E-03-0.188E-03
CGA:  21    -0.353982907395E+03   -0.57501E-05   -0.91372E-05 10080   0.789E-04 0.602E-04
  30 F= -.35398291E+03 E0= -.35397393E+03  d E =-.217357E-02  mag=    10.0000
       N       E                     dE             d eps       ncg     rms          ort
SDA:   1    -0.353739713492E+03    0.24319E+00    0.00000E+00 10080   0.708E+00 0.000E+00
CGA:   2    -0.353789958243E+03   -0.50245E-01   -0.50284E-01 10080   0.171E+01-0.421E-02
CGA:   3    -0.353925133429E+03   -0.13518E+00   -0.13520E+00 10080   0.899E+00-0.364E-02
CGA:   4    -0.353955827678E+03   -0.30694E-01   -0.29915E-01 10080   0.114E+00 0.183E-01
CGA:   5    -0.353969507775E+03   -0.13680E-01   -0.13826E-01 10080   0.144E+00-0.389E-02
CGA:   6    -0.353977542557E+03   -0.80348E-02   -0.80726E-02 10080   0.408E-01 0.271E-02
CGA:   7    -0.353978420983E+03   -0.87843E-03   -0.97636E-03 10080   0.100E-01 0.206E-02
CGA:   8    -0.353980221072E+03   -0.18001E-02   -0.17288E-02 10080   0.109E-01 0.779E-03
CGA:   9    -0.353980784533E+03   -0.56346E-03   -0.50619E-03 10080   0.346E-02-0.179E-02
CGA:  10    -0.353980895506E+03   -0.11097E-03   -0.11733E-03 10080   0.265E-02 0.167E-03
CGA:  11    -0.353981053519E+03   -0.15801E-03   -0.16340E-03 10080   0.191E-02 0.333E-03
CGA:  12    -0.353981203901E+03   -0.15038E-03   -0.14983E-03 10080   0.951E-03-0.152E-03
CGA:  13    -0.353981246089E+03   -0.42188E-04   -0.44204E-04 10080   0.535E-03 0.861E-04
CGA:  14    -0.353981279869E+03   -0.33779E-04   -0.29483E-04 10080   0.822E-03-0.203E-03
CGA:  15    -0.353981332553E+03   -0.52684E-04   -0.58730E-04 10080   0.610E-03-0.138E-03
CGA:  16    -0.353981334174E+03   -0.16209E-05   -0.87278E-05 10080   0.222E-03 0.125E-03
  31 F= -.35398133E+03 E0= -.35397240E+03  d E =0.157322E-02  mag=    10.0000
       N       E                     dE             d eps       ncg     rms          ort
SDA:   1    -0.353775606053E+03    0.20573E+00    0.00000E+00 10080   0.519E+00 0.000E+00
CGA:   2    -0.353839810310E+03   -0.64204E-01   -0.63659E-01 10080   0.205E+01 0.876E-02
CGA:   3    -0.353944215688E+03   -0.10441E+00   -0.10428E+00 10080   0.295E+00-0.974E-02
CGA:   4    -0.353958388118E+03   -0.14172E-01   -0.14217E-01 10080   0.127E+00 0.446E-02
CGA:   5    -0.353969121879E+03   -0.10734E-01   -0.10680E-01 10080   0.151E+00 0.308E-02
CGA:   6    -0.353974976930E+03   -0.58551E-02   -0.58586E-02 10080   0.376E-01-0.462E-03
CGA:   7    -0.353976415678E+03   -0.14387E-02   -0.13586E-02 10080   0.144E-01-0.305E-02
CGA:   8    -0.353978034827E+03   -0.16191E-02   -0.15329E-02 10080   0.112E-01 0.170E-02
CGA:   9    -0.353978426040E+03   -0.39121E-03   -0.37723E-03 10080   0.382E-02-0.454E-03
CGA:  10    -0.353978761396E+03   -0.33536E-03   -0.33773E-03 10080   0.458E-02-0.108E-03
CGA:  11    -0.353978964798E+03   -0.20340E-03   -0.19481E-03 10080   0.194E-02-0.375E-03
CGA:  12    -0.353979016598E+03   -0.51801E-04   -0.64517E-04 10080   0.462E-03 0.410E-03
CGA:  13    -0.353979113039E+03   -0.96441E-04   -0.17236E-03 10080   0.402E-02-0.314E-03
CGA:  14    -0.353979169071E+03   -0.56032E-04   -0.70926E-04 10080   0.250E-03 0.227E-03
CGA:  15    -0.353979186098E+03   -0.17027E-04   -0.16791E-04 10080   0.330E-03-0.224E-04
CGA:  16    -0.353978710473E+03    0.47562E-03   -0.25623E-03 10080   0.198E-01-0.152E-02
CGA:  17    -0.353979016389E+03   -0.30592E-03   -0.37623E-03 10080   0.181E-02 0.553E-03
CGA:  18    -0.353979073123E+03   -0.56734E-04   -0.84462E-04 10080   0.879E-03 0.334E-03
CGA:  19    -0.353979211024E+03   -0.13790E-03   -0.13966E-03 10080   0.229E-02-0.189E-03
CGA:  20    -0.353979244291E+03   -0.33267E-04   -0.36763E-04 10080   0.512E-03 0.281E-04
CGA:  21    -0.353979248240E+03   -0.39493E-05   -0.80644E-05 10080   0.128E-03 0.406E-04
  32 F= -.35397925E+03 E0= -.35397033E+03  d E =0.208593E-02  mag=    10.0000
       N       E                     dE             d eps       ncg     rms          ort
SDA:   1    -0.353871675124E+03    0.10757E+00    0.00000E+00 10080   0.388E+00 0.000E+00
CGA:   2    -0.353887694503E+03   -0.16019E-01   -0.16475E-01 10080   0.535E+00-0.224E-02
CGA:   3    -0.353963642070E+03   -0.75948E-01   -0.75862E-01 10080   0.147E+00 0.197E-02
CGA:   4    -0.353970095570E+03   -0.64535E-02   -0.64022E-02 10080   0.678E-01-0.727E-02
CGA:   5    -0.353976344800E+03   -0.62492E-02   -0.62510E-02 10080   0.798E-01 0.357E-03
CGA:   6    -0.353978782253E+03   -0.24375E-02   -0.24526E-02 10080   0.192E-01-0.520E-03
CGA:   7    -0.353979477813E+03   -0.69556E-03   -0.72819E-03 10080   0.493E-02 0.496E-03
CGA:   8    -0.353980490941E+03   -0.10131E-02   -0.10436E-02 10080   0.263E-02-0.286E-03
CGA:   9    -0.353980596117E+03   -0.10518E-03   -0.10302E-03 10080   0.106E-02-0.540E-04
CGA:  10    -0.353980675350E+03   -0.79234E-04   -0.82290E-04 10080   0.153E-02 0.139E-03
CGA:  11    -0.353980737316E+03   -0.61966E-04   -0.73579E-04 10080   0.575E-03 0.201E-03
CGA:  12    -0.353980800128E+03   -0.62812E-04   -0.67692E-04 10080   0.202E-02-0.651E-03
CGA:  13    -0.353980814618E+03   -0.14489E-04   -0.40471E-04 10080   0.276E-03 0.339E-03
CGA:  14    -0.353980812924E+03    0.16936E-05   -0.71242E-05 10080   0.958E-04 0.124E-03
  33 F= -.35398081E+03 E0= -.35397189E+03  d E =-.156468E-02  mag=    10.0000
       N       E                     dE             d eps       ncg     rms          ort
SDA:   1    -0.353891351420E+03    0.89463E-01    0.00000E+00 10080   0.296E+00 0.000E+00
CGA:   2    -0.353907733957E+03   -0.16383E-01   -0.16602E-01 10080   0.514E+00 0.320E-04
CGA:   3    -0.353951881858E+03   -0.44148E-01   -0.44145E-01 10080   0.479E+00 0.448E-02
CGA:   4    -0.353971957643E+03   -0.20076E-01   -0.20364E-01 10080   0.604E-01-0.165E-01
CGA:   5    -0.353975433618E+03   -0.34760E-02   -0.34561E-02 10080   0.450E-01-0.304E-03
CGA:   6    -0.353979565679E+03   -0.41321E-02   -0.41245E-02 10080   0.370E-01 0.691E-03
CGA:   7    -0.353980494185E+03   -0.92851E-03   -0.88981E-03 10080   0.423E-02-0.818E-03
CGA:   8    -0.353980979538E+03   -0.48535E-03   -0.47105E-03 10080   0.537E-02 0.407E-03
CGA:   9    -0.353981332134E+03   -0.35260E-03   -0.34251E-03 10080   0.344E-02-0.470E-03
CGA:  10    -0.353981401335E+03   -0.69201E-04   -0.89278E-04 10080   0.801E-03 0.380E-03
CGA:  11    -0.353981431152E+03   -0.29817E-04   -0.37912E-04 10080   0.505E-03 0.231E-03
CGA:  12    -0.353981457448E+03   -0.26295E-04   -0.13881E-03 10080   0.899E-02-0.822E-03
CGA:  13    -0.353981582290E+03   -0.12484E-03   -0.14922E-03 10080   0.179E-03 0.338E-03
CGA:  14    -0.353981585294E+03   -0.30039E-05   -0.64519E-05 10080   0.106E-03 0.771E-04
  34 F= -.35398159E+03 E0= -.35397267E+03  d E =-.772370E-03  mag=    10.0000
       N       E                     dE             d eps       ncg     rms          ort
SDA:   1    -0.353960023859E+03    0.21558E-01    0.00000E+00 10080   0.407E+00 0.000E+00
CGA:   2    -0.353968412328E+03   -0.83885E-02   -0.84305E-02 10080   0.601E-01-0.559E-02
CGA:   3    -0.353971700291E+03   -0.32880E-02   -0.33284E-02 10080   0.457E-01 0.283E-02
CGA:   4    -0.353979153671E+03   -0.74534E-02   -0.74036E-02 10080   0.334E-01 0.553E-03
CGA:   5    -0.353980502666E+03   -0.13490E-02   -0.12757E-02 10080   0.788E-02-0.203E-02
CGA:   6    -0.353981193674E+03   -0.69101E-03   -0.70403E-03 10080   0.175E-01-0.669E-03
CGA:   7    -0.353981676445E+03   -0.48277E-03   -0.50827E-03 10080   0.126E-02 0.528E-03
CGA:   8    -0.353981769066E+03   -0.92620E-04   -0.90939E-04 10080   0.284E-02-0.465E-03
CGA:   9    -0.353981869902E+03   -0.10084E-03   -0.87274E-04 10080   0.331E-02-0.555E-03
CGA:  10    -0.353981915774E+03   -0.45872E-04   -0.60755E-04 10080   0.130E-02 0.292E-03
CGA:  11    -0.353981917413E+03   -0.16389E-05   -0.20346E-04 10080   0.325E-03 0.338E-03
  35 F= -.35398192E+03 E0= -.35397298E+03  d E =-.332119E-03  mag=    10.0000
       N       E                     dE             d eps       ncg     rms          ort
SDA:   1    -0.353906284814E+03    0.75631E-01    0.00000E+00 10080   0.253E+00 0.000E+00
CGA:   2    -0.353923302083E+03   -0.17017E-01   -0.17048E-01 10080   0.370E+00-0.476E-02
CGA:   3    -0.353959395345E+03   -0.36093E-01   -0.36390E-01 10080   0.497E+00-0.912E-02
CGA:   4    -0.353973093280E+03   -0.13698E-01   -0.13569E-01 10080   0.685E-01 0.794E-02
CGA:   5    -0.353976275745E+03   -0.31825E-02   -0.32401E-02 10080   0.302E-01 0.438E-02
CGA:   6    -0.353980025381E+03   -0.37496E-02   -0.37837E-02 10080   0.532E-01-0.686E-03
CGA:   7    -0.353981216633E+03   -0.11913E-02   -0.11943E-02 10080   0.367E-02 0.346E-04
CGA:   8    -0.353981517135E+03   -0.30050E-03   -0.31334E-03 10080   0.983E-02-0.620E-03
CGA:   9    -0.353981901806E+03   -0.38467E-03   -0.37992E-03 10080   0.665E-02-0.270E-03
CGA:  10    -0.353982013757E+03   -0.11195E-03   -0.14198E-03 10080   0.121E-02 0.709E-03
CGA:  11    -0.353982024026E+03   -0.10269E-04   -0.24356E-04 10080   0.542E-03 0.319E-03
CGA:  12    -0.353982052194E+03   -0.28168E-04   -0.31631E-04 10080   0.112E-02 0.253E-03
CGA:  13    -0.353982164115E+03   -0.11192E-03   -0.11472E-03 10080   0.375E-03-0.263E-03
CGA:  14    -0.353981176490E+03    0.98762E-03   -0.54435E-03 10080   0.366E-01-0.335E-02
CGA:  15    -0.353982012510E+03   -0.83602E-03   -0.94625E-03 10080   0.328E-02 0.852E-03
CGA:  16    -0.353982059603E+03   -0.47093E-04   -0.82162E-04 10080   0.857E-03 0.446E-03
CGA:  17    -0.353982129673E+03   -0.70070E-04   -0.73372E-04 10080   0.109E-02 0.127E-03
CGA:  18    -0.353982234227E+03   -0.10455E-03   -0.10142E-03 10080   0.118E-02-0.174E-03
CGA:  19    -0.353982247498E+03   -0.13271E-04   -0.17113E-04 10080   0.120E-03 0.439E-04
CGA:  20    -0.353982247007E+03    0.49090E-06   -0.16725E-05 10080   0.442E-04 0.261E-04
  36 F= -.35398225E+03 E0= -.35397332E+03  d E =-.329594E-03  mag=    10.0000
       N       E                     dE             d eps       ncg     rms          ort
SDA:   1    -0.353969451983E+03    0.12796E-01    0.00000E+00 10080   0.271E+00 0.000E+00
CGA:   2    -0.353974165209E+03   -0.47132E-02   -0.49263E-02 10080   0.227E-01-0.173E-02
CGA:   3    -0.353979599350E+03   -0.54341E-02   -0.52120E-02 10080   0.135E-01 0.149E-02
CGA:   4    -0.353980547452E+03   -0.94810E-03   -0.91885E-03 10080   0.185E-01-0.112E-02
CGA:   5    -0.353981545135E+03   -0.99768E-03   -0.96802E-03 10080   0.141E-01-0.101E-02
CGA:   6    -0.353981912827E+03   -0.36769E-03   -0.42672E-03 10080   0.179E-02 0.112E-02
CGA:   7    -0.353981972894E+03   -0.60067E-04   -0.73066E-04 10080   0.963E-03 0.271E-03
CGA:   8    -0.353982056549E+03   -0.83655E-04   -0.80827E-04 10080   0.240E-02-0.286E-03
CGA:   9    -0.353982130710E+03   -0.74161E-04   -0.64291E-04 10080   0.148E-02-0.223E-03
CGA:  10    -0.353982150304E+03   -0.19594E-04   -0.20547E-04 10080   0.356E-03 0.138E-04
CGA:  11    -0.353982159185E+03   -0.88808E-05   -0.86583E-05 10080   0.272E-03-0.452E-05
CGA:  12    -0.353982176368E+03   -0.17183E-04   -0.14453E-04 10080   0.635E-03-0.134E-03
CGA:  13    -0.353982187265E+03   -0.10898E-04   -0.73696E-05 10080   0.837E-03-0.707E-04
CGA:  14    -0.353982197150E+03   -0.98846E-05   -0.12594E-04 10080   0.362E-03 0.483E-04
  37 F= -.35398220E+03 E0= -.35397328E+03  d E =0.498570E-04  mag=    10.0000
       N       E                     dE             d eps       ncg     rms          ort
SDA:   1    -0.353972265385E+03    0.99219E-02    0.00000E+00 10080   0.127E+00 0.000E+00
CGA:   2    -0.353977207299E+03   -0.49419E-02   -0.49383E-02 10080   0.175E-01-0.731E-02
CGA:   3    -0.353978778905E+03   -0.15716E-02   -0.15197E-02 10080   0.325E-01 0.181E-02
CGA:   4    -0.353980865175E+03   -0.20863E-02   -0.20817E-02 10080   0.224E-01-0.737E-03
CGA:   5    -0.353981595169E+03   -0.72999E-03   -0.72200E-03 10080   0.454E-02-0.227E-03
CGA:   6    -0.353981940096E+03   -0.34493E-03   -0.35266E-03 10080   0.383E-02-0.535E-03
CGA:   7    -0.353982141965E+03   -0.20187E-03   -0.20368E-03 10080   0.184E-02 0.463E-03
CGA:   8    -0.353982201798E+03   -0.59833E-04   -0.61004E-04 10080   0.401E-03 0.235E-04
CGA:   9    -0.353982214413E+03   -0.12615E-04   -0.16687E-04 10080   0.176E-03 0.192E-03
CGA:  10    -0.353982247424E+03   -0.33011E-04    0.23298E-03 10080   0.845E-04 0.157E-03
CGA:  11    -0.353982222682E+03    0.24743E-04   -0.15703E-04 10080   0.257E-02-0.177E-03
CGA:  12    -0.353982275562E+03   -0.52880E-04   -0.64180E-04 10080   0.912E-04 0.160E-03
CGA:  13    -0.353982287311E+03   -0.11749E-04   -0.63459E-05 10080   0.307E-03-0.131E-03
CGA:  14    -0.353982288379E+03   -0.10679E-05   -0.52244E-05 10080   0.287E-04 0.460E-04
  38 F= -.35398229E+03 E0= -.35397338E+03  d E =-.912290E-04  mag=    10.0000
       N       E                     dE             d eps       ncg     rms          ort
SDA:   1    -0.353956433110E+03    0.25854E-01    0.00000E+00 10080   0.719E-01 0.000E+00
CGA:   2    -0.353962625025E+03   -0.61919E-02   -0.61992E-02 10080   0.215E+00 0.320E-03
CGA:   3    -0.353977459326E+03   -0.14834E-01   -0.14783E-01 10080   0.710E-01-0.285E-02
CGA:   4    -0.353980315564E+03   -0.28562E-02   -0.29247E-02 10080   0.105E-01 0.225E-02
CGA:   5    -0.353981488314E+03   -0.11727E-02   -0.11581E-02 10080   0.147E-01 0.972E-03
CGA:   6    -0.353982399203E+03   -0.91089E-03   -0.87399E-03 10080   0.356E-02-0.101E-02
CGA:   7    -0.353982509946E+03   -0.11074E-03   -0.94536E-04 10080   0.158E-02-0.281E-03
CGA:   8    -0.353982614164E+03   -0.10422E-03   -0.10990E-03 10080   0.702E-03 0.465E-03
CGA:   9    -0.353982693632E+03   -0.79469E-04   -0.79530E-04 10080   0.132E-02-0.233E-03
CGA:  10    -0.353982727938E+03   -0.34306E-04   -0.33844E-04 10080   0.817E-03-0.111E-04
CGA:  11    -0.353982733078E+03   -0.51391E-05   -0.14979E-04 10080   0.184E-03 0.148E-03
  39 F= -.35398273E+03 E0= -.35397382E+03  d E =-.444699E-03  mag=    10.0000
       N       E                     dE             d eps       ncg     rms          ort
SDA:   1    -0.335913016623E+03    0.18070E+02    0.00000E+00 10080   0.458E+02 0.000E+00
CGA:   2    -0.342981096793E+03   -0.70681E+01   -0.60477E+01 10080   0.660E+02 0.172E+02
CGA:   3    -0.348300353340E+03   -0.53193E+01   -0.55324E+01 10080   0.656E+02-0.928E+01
CGA:   4    -0.352370425900E+03   -0.40701E+01   -0.40162E+01 10080   0.122E+02-0.220E+01
CGA:   5    -0.352734315303E+03   -0.36389E+00   -0.41715E+00 10080   0.125E+02-0.120E+01
CGA:   6    -0.353125181568E+03   -0.39087E+00   -0.33574E+00 10080   0.732E+01 0.851E+00
CGA:   7    -0.353392730188E+03   -0.26755E+00   -0.28368E+00 10080   0.101E+02-0.388E+00
CGA:   8    -0.353667567108E+03   -0.27484E+00   -0.28357E+00 10080   0.480E+01-0.212E+00
CGA:   9    -0.353746536894E+03   -0.78970E-01   -0.80382E-01 10080   0.128E+01-0.181E+00
CGA:  10    -0.353790741670E+03   -0.44205E-01   -0.47032E-01 10080   0.154E+01-0.234E-01
CGA:  11    -0.353832373658E+03   -0.41632E-01   -0.40210E-01 10080   0.101E+01 0.466E-01
CGA:  12    -0.353878439222E+03   -0.46066E-01   -0.46033E-01 10080   0.143E+01 0.441E-02
CGA:  13    -0.353915426566E+03   -0.36987E-01   -0.38091E-01 10080   0.642E+00-0.378E-01
CGA:  14    -0.353930809928E+03   -0.15383E-01   -0.15490E-01 10080   0.337E+00-0.239E-01
CGA:  15    -0.353939243038E+03   -0.84331E-02   -0.83425E-02 10080   0.179E+00-0.592E-02
CGA:  16    -0.353946331292E+03   -0.70883E-02   -0.71515E-02 10080   0.264E+00 0.425E-02
CGA:  17    -0.353955382644E+03   -0.90514E-02   -0.92202E-02 10080   0.182E+00 0.514E-02
CGA:  18    -0.353961843499E+03   -0.64609E-02   -0.64129E-02 10080   0.187E+00-0.549E-02
CGA:  19    -0.353967510238E+03   -0.56667E-02   -0.55852E-02 10080   0.581E-01-0.102E-01
CGA:  20    -0.353968870267E+03   -0.13600E-02   -0.13654E-02 10080   0.432E-01-0.111E-03
CGA:  21    -0.353970958329E+03   -0.20881E-02   -0.20983E-02 10080   0.431E-01 0.280E-02
CGA:  22    -0.353972323089E+03   -0.13648E-02   -0.13613E-02 10080   0.379E-01-0.415E-03
CGA:  23    -0.353975003301E+03   -0.26802E-02   -0.28316E-02 10080   0.527E-01-0.647E-02
CGA:  24    -0.353975836877E+03   -0.83358E-03   -0.79437E-03 10080   0.149E-01-0.166E-02
CGA:  25    -0.353976173456E+03   -0.33658E-03   -0.36035E-03 10080   0.117E-01 0.923E-03
CGA:  26    -0.353976449825E+03   -0.27637E-03   -0.30571E-03 10080   0.552E-02 0.118E-02
CGA:  27    -0.353976637262E+03   -0.18744E-03   -0.18796E-03 10080   0.830E-02 0.482E-06
CGA:  28    -0.353977304477E+03   -0.66722E-03   -0.77130E-03 10080   0.317E-01-0.231E-02
CGA:  29    -0.353977659828E+03   -0.35535E-03   -0.31879E-03 10080   0.131E-01-0.118E-02
CGA:  30    -0.353977793085E+03   -0.13326E-03   -0.12971E-03 10080   0.376E-02-0.162E-03
CGA:  31    -0.353977838548E+03   -0.45463E-04   -0.51563E-04 10080   0.284E-02 0.180E-03
SDA:  32    -0.353977883525E+03   -0.44977E-04   -0.53947E-04 10080   0.288E-02 0.331E-03
CGA:  33    -0.353977971591E+03   -0.88066E-04   -0.86598E-04 10080   0.202E-02-0.133E-03
CGA:  34    -0.353978238050E+03   -0.26646E-03   -0.10237E-04 10080   0.773E-02-0.113E-02
CGA:  35    -0.353978461547E+03   -0.22350E-03   -0.21690E-03 10080   0.922E-03-0.282E-03
CGA:  36    -0.353978475708E+03   -0.14161E-04   -0.22183E-04 10080   0.319E-03 0.158E-03
CGA:  37    -0.353978487530E+03   -0.11822E-04   -0.17550E-04 10080   0.304E-03 0.226E-03
CGA:  38    -0.353978477296E+03    0.10234E-04   -0.45961E-04 10080   0.586E-02-0.706E-03
CGA:  39    -0.353978558205E+03   -0.80909E-04   -0.10123E-03 10080   0.269E-03 0.317E-03
CGA:  40    -0.353978556030E+03    0.21755E-05   -0.58051E-05 10080   0.127E-03 0.154E-03
  40 F= -.35397856E+03 E0= -.35396964E+03  d E =0.417705E-02  mag=    10.0000
       N       E                     dE             d eps       ncg     rms          ort
SDA:   1    -0.345725643139E+03    0.82529E+01    0.00000E+00 10080   0.199E+02 0.000E+00
CGA:   2    -0.350119354381E+03   -0.43937E+01   -0.39981E+01 10080   0.441E+02 0.391E+01
CGA:   3    -0.352186969648E+03   -0.20676E+01   -0.21636E+01 10080   0.288E+02-0.123E+02
CGA:   4    -0.353105163975E+03   -0.91819E+00   -0.89082E+00 10080   0.103E+02-0.385E+00
CGA:   5    -0.353370611436E+03   -0.26545E+00   -0.29396E+00 10080   0.627E+01-0.114E+01
CGA:   6    -0.353640245194E+03   -0.26963E+00   -0.25923E+00 10080   0.298E+01-0.140E-01
CGA:   7    -0.353813017255E+03   -0.17277E+00   -0.16910E+00 10080   0.187E+01-0.919E-01
CGA:   8    -0.353878859382E+03   -0.65842E-01   -0.67392E-01 10080   0.999E+00-0.395E-01
CGA:   9    -0.353915837345E+03   -0.36978E-01   -0.35973E-01 10080   0.355E+00-0.422E-02
CGA:  10    -0.353943576951E+03   -0.27740E-01   -0.27785E-01 10080   0.325E+00 0.804E-03
CGA:  11    -0.353956194910E+03   -0.12618E-01   -0.12576E-01 10080   0.250E+00-0.531E-02
CGA:  12    -0.353968817520E+03   -0.12623E-01   -0.12558E-01 10080   0.677E-01-0.836E-02
CGA:  13    -0.353973239609E+03   -0.44221E-02   -0.44047E-02 10080   0.571E-01 0.476E-02
CGA:  14    -0.353975989822E+03   -0.27502E-02   -0.27354E-02 10080   0.550E-01-0.121E-02
CGA:  15    -0.353979618651E+03   -0.36288E-02   -0.36464E-02 10080   0.383E-01-0.369E-02
CGA:  16    -0.353981241745E+03   -0.16231E-02   -0.16410E-02 10080   0.831E-02 0.106E-02
CGA:  17    -0.353982147890E+03   -0.90615E-03   -0.89387E-03 10080   0.204E-01 0.253E-03
CGA:  18    -0.353983151134E+03   -0.10032E-02   -0.10042E-02 10080   0.149E-01 0.251E-04
CGA:  19    -0.353984112500E+03   -0.96137E-03   -0.96357E-03 10080   0.309E-02-0.208E-02
CGA:  20    -0.353984363973E+03   -0.25147E-03   -0.24258E-03 10080   0.188E-02 0.310E-03
CGA:  21    -0.353984597701E+03   -0.23373E-03   -0.44411E-03 10080   0.154E-01-0.142E-02
CGA:  22    -0.353984873056E+03   -0.27535E-03   -0.28715E-03 10080   0.907E-03 0.254E-03
CGA:  23    -0.353984911523E+03   -0.38468E-04   -0.37392E-04 10080   0.405E-03-0.444E-04
CGA:  24    -0.353984939471E+03   -0.27948E-04   -0.27320E-04 10080   0.324E-03 0.226E-03
CGA:  25    -0.353984933236E+03    0.62354E-05   -0.53630E-04 10080   0.372E-02-0.621E-03
CGA:  26    -0.353985008332E+03   -0.75097E-04   -0.85792E-04 10080   0.563E-03 0.196E-03
CGA:  27    -0.353985010917E+03   -0.25846E-05   -0.12184E-04 10080   0.105E-03 0.190E-03
  41 F= -.35398501E+03 E0= -.35397614E+03  d E =-.645489E-02  mag=    10.0000
       N       E                     dE             d eps       ncg     rms          ort
SDA:   1    -0.342849529450E+03    0.11135E+02    0.00000E+00 10080   0.284E+02 0.000E+00
CGA:   2    -0.348025576204E+03   -0.51760E+01   -0.47299E+01 10080   0.543E+02 0.314E+01
CGA:   3    -0.351660810673E+03   -0.36352E+01   -0.35659E+01 10080   0.337E+02-0.483E+01
CGA:   4    -0.352641908744E+03   -0.98110E+00   -0.12127E+01 10080   0.142E+02-0.370E+01
CGA:   5    -0.353190878882E+03   -0.54897E+00   -0.58723E+00 10080   0.988E+01-0.147E+00
CGA:   6    -0.353453316432E+03   -0.26244E+00   -0.25368E+00 10080   0.574E+01 0.216E+00
CGA:   7    -0.353621350261E+03   -0.16803E+00   -0.17177E+00 10080   0.401E+01-0.175E+00
CGA:   8    -0.353729182392E+03   -0.10783E+00   -0.11564E+00 10080   0.288E+01-0.212E+00
CGA:   9    -0.353829755875E+03   -0.10057E+00   -0.10089E+00 10080   0.161E+01-0.351E-01
CGA:  10    -0.353862064358E+03   -0.32308E-01   -0.33576E-01 10080   0.732E+00-0.352E-01
CGA:  11    -0.353885979748E+03   -0.23915E-01   -0.24206E-01 10080   0.609E+00 0.103E-01
CGA:  12    -0.353903198504E+03   -0.17219E-01   -0.17435E-01 10080   0.417E+00-0.772E-02
CGA:  13    -0.353922910986E+03   -0.19712E-01   -0.19796E-01 10080   0.474E+00-0.440E-02
CGA:  14    -0.353934833357E+03   -0.11922E-01   -0.11913E-01 10080   0.210E+00-0.381E-02
CGA:  15    -0.353940914035E+03   -0.60807E-02   -0.61038E-02 10080   0.104E+00 0.625E-03
CGA:  16    -0.353943879034E+03   -0.29650E-02   -0.29657E-02 10080   0.770E-01-0.172E-02
CGA:  17    -0.353948131978E+03   -0.42529E-02   -0.42335E-02 10080   0.975E-01 0.271E-02
CGA:  18    -0.353951044012E+03   -0.29120E-02   -0.29613E-02 10080   0.598E-01 0.178E-02
CGA:  19    -0.353953677219E+03   -0.26332E-02   -0.26245E-02 10080   0.371E-01-0.160E-02
CGA:  20    -0.353954811784E+03   -0.11346E-02   -0.10793E-02 10080   0.248E-01-0.310E-02
CGA:  21    -0.353956006892E+03   -0.11951E-02   -0.11950E-02 10080   0.231E-01-0.310E-03
CGA:  22    -0.353956808257E+03   -0.80136E-03   -0.83213E-03 10080   0.181E-01 0.218E-02
CGA:  23    -0.353957537769E+03   -0.72951E-03   -0.73526E-03 10080   0.925E-02 0.198E-03
CGA:  24    -0.353958206676E+03   -0.66891E-03   -0.84119E-03 10080   0.301E-01-0.418E-02
CGA:  25    -0.353958623934E+03   -0.41726E-03   -0.38101E-03 10080   0.199E-01-0.136E-02
CGA:  26    -0.353958881437E+03   -0.25750E-03   -0.29207E-03 10080   0.764E-02 0.830E-03
CGA:  27    -0.353958988065E+03   -0.10663E-03   -0.14193E-03 10080   0.395E-02 0.114E-02
CGA:  28    -0.353959051075E+03   -0.63010E-04   -0.79363E-04 10080   0.202E-02 0.534E-03
CGA:  29    -0.353959118386E+03   -0.67311E-04   -0.69240E-04 10080   0.342E-02 0.122E-03
CGA:  30    -0.353959259606E+03   -0.14122E-03   -0.14224E-03 10080   0.628E-02 0.201E-03
CGA:  31    -0.353959409022E+03   -0.14942E-03   -0.15481E-03 10080   0.511E-02 0.253E-03
SDA:  32    -0.353959541237E+03   -0.13222E-03   -0.12833E-03 10080   0.369E-02-0.215E-03
CGA:  33    -0.353959645009E+03   -0.10377E-03   -0.92191E-04 10080   0.887E-03-0.741E-03
CGA:  34    -0.353959684578E+03   -0.39569E-04   -0.39210E-04 10080   0.649E-03 0.215E-04
CGA:  35    -0.353959715562E+03   -0.30984E-04   -0.12825E-03 10080   0.543E-02-0.646E-03
CGA:  36    -0.353959793300E+03   -0.77738E-04   -0.10056E-03 10080   0.348E-03 0.744E-03
CGA:  37    -0.353959796152E+03   -0.28519E-05   -0.72350E-05 10080   0.119E-03 0.149E-03
  42 F= -.35395980E+03 E0= -.35395074E+03  d E =0.252148E-01  mag=    10.0000
       N       E                     dE             d eps       ncg     rms          ort
SDA:   1    -0.346438311366E+03    0.75215E+01    0.00000E+00 10080   0.185E+02 0.000E+00
CGA:   2    -0.350184338637E+03   -0.37460E+01   -0.32035E+01 10080   0.342E+02 0.531E+01
CGA:   3    -0.352158151948E+03   -0.19738E+01   -0.18890E+01 10080   0.205E+02-0.541E+01
CGA:   4    -0.353193228811E+03   -0.10351E+01   -0.10255E+01 10080   0.822E+01 0.776E+00
CGA:   5    -0.353501738260E+03   -0.30851E+00   -0.31893E+00 10080   0.552E+01-0.156E-02
CGA:   6    -0.353655915277E+03   -0.15418E+00   -0.15176E+00 10080   0.276E+01-0.908E-02
CGA:   7    -0.353785428190E+03   -0.12951E+00   -0.12900E+00 10080   0.318E+01-0.100E+00
CGA:   8    -0.353874177186E+03   -0.88749E-01   -0.89521E-01 10080   0.114E+01-0.407E-01
CGA:   9    -0.353913957567E+03   -0.39780E-01   -0.40261E-01 10080   0.696E+00 0.145E-01
CGA:  10    -0.353930081307E+03   -0.16124E-01   -0.16383E-01 10080   0.264E+00 0.935E-02
CGA:  11    -0.353944240010E+03   -0.14159E-01   -0.14212E-01 10080   0.451E+00-0.750E-02
CGA:  12    -0.353959319324E+03   -0.15079E-01   -0.15024E-01 10080   0.260E+00-0.982E-02
CGA:  13    -0.353968040143E+03   -0.87208E-02   -0.88125E-02 10080   0.169E+00 0.413E-02
CGA:  14    -0.353971627247E+03   -0.35871E-02   -0.37124E-02 10080   0.451E-01 0.557E-02
CGA:  15    -0.353973487065E+03   -0.18598E-02   -0.18597E-02 10080   0.634E-01-0.118E-03
CGA:  16    -0.353976446423E+03   -0.29594E-02   -0.29696E-02 10080   0.699E-01-0.441E-02
CGA:  17    -0.353979202447E+03   -0.27560E-02   -0.27531E-02 10080   0.736E-01-0.198E-02
CGA:  18    -0.353980789168E+03   -0.15867E-02   -0.16048E-02 10080   0.141E-01 0.141E-02
CGA:  19    -0.353981143622E+03   -0.35445E-03   -0.35720E-03 10080   0.110E-01 0.901E-04
CGA:  20    -0.353981911969E+03   -0.76835E-03   -0.85532E-03 10080   0.296E-01-0.255E-02
CGA:  21    -0.353982731425E+03   -0.81946E-03   -0.80347E-03 10080   0.344E-01-0.193E-02
CGA:  22    -0.353983538865E+03   -0.80744E-03   -0.81951E-03 10080   0.118E-01 0.666E-03
CGA:  23    -0.353983702743E+03   -0.16388E-03   -0.17904E-03 10080   0.209E-02 0.518E-03
CGA:  24    -0.353983779615E+03   -0.76873E-04   -0.74941E-04 10080   0.369E-02-0.295E-03
CGA:  25    -0.353983846767E+03   -0.67152E-04   -0.36227E-03 10080   0.230E-01-0.404E-02
CGA:  26    -0.353984321688E+03   -0.47492E-03   -0.51399E-03 10080   0.259E-02 0.157E-02
CGA:  27    -0.353984353551E+03   -0.31863E-04   -0.53366E-04 10080   0.454E-03 0.888E-03
CGA:  28    -0.353984357877E+03   -0.43268E-05   -0.11094E-04 10080   0.282E-03 0.280E-03
CGA:  29    -0.353984382349E+03   -0.24472E-04    0.99646E-04 10080   0.265E-03 0.192E-03
CGA:  30    -0.353984395581E+03   -0.13232E-04   -0.12504E-04 10080   0.332E-03 0.119E-03
CGA:  31    -0.353984487759E+03   -0.92177E-04   -0.13926E-06 10080   0.249E-02-0.227E-03
CGA:  32    -0.353984524886E+03   -0.37128E-04   -0.42570E-04 10080   0.983E-04 0.822E-04
CGA:  33    -0.353984540866E+03   -0.15979E-04    0.43649E-04 10080   0.136E-03 0.348E-04
CGA:  34    -0.353984561763E+03   -0.20897E-04   -0.26662E-04 10080   0.701E-03-0.800E-04
CGA:  35    -0.353984571575E+03   -0.98125E-05   -0.11920E-04 10080   0.355E-04 0.318E-04
  43 F= -.35398457E+03 E0= -.35397560E+03  d E =-.247754E-01  mag=    10.0000
       N       E                     dE             d eps       ncg     rms          ort
SDA:   1    -0.353933213862E+03    0.51348E-01    0.00000E+00 10080   0.643E+00 0.000E+00
CGA:   2    -0.353946636983E+03   -0.13423E-01   -0.13228E-01 10080   0.117E+00 0.682E-02
CGA:   3    -0.353960188883E+03   -0.13552E-01   -0.13771E-01 10080   0.248E+00-0.550E-02
CGA:   4    -0.353975005316E+03   -0.14816E-01   -0.14863E-01 10080   0.590E-01 0.547E-02
CGA:   5    -0.353977593836E+03   -0.25885E-02   -0.26473E-02 10080   0.307E-01 0.304E-02
CGA:   6    -0.353979663601E+03   -0.20698E-02   -0.20633E-02 10080   0.491E-01-0.111E-02
CGA:   7    -0.353982081788E+03   -0.24182E-02   -0.24062E-02 10080   0.686E-02-0.653E-03
CGA:   8    -0.353982310815E+03   -0.22903E-03   -0.24260E-03 10080   0.335E-02 0.433E-03
CGA:   9    -0.353982732238E+03   -0.42142E-03   -0.43813E-03 10080   0.897E-02-0.315E-03
CGA:  10    -0.353982939151E+03   -0.20691E-03   -0.21098E-03 10080   0.123E-02 0.831E-04
CGA:  11    -0.353982971264E+03   -0.32113E-04   -0.36262E-04 10080   0.972E-03 0.100E-03
CGA:  12    -0.353983037001E+03   -0.65737E-04   -0.66065E-04 10080   0.153E-02 0.871E-04
CGA:  13    -0.353983121916E+03   -0.84915E-04   -0.86557E-04 10080   0.113E-02 0.110E-03
CGA:  14    -0.353983155546E+03   -0.33630E-04   -0.32039E-04 10080   0.293E-03-0.434E-04
CGA:  15    -0.353983196396E+03   -0.40850E-04    0.63946E-04 10080   0.432E-03-0.959E-04
CGA:  16    -0.353982897348E+03    0.29905E-03   -0.16134E-03 10080   0.118E-01-0.119E-02
CGA:  17    -0.353983066802E+03   -0.16945E-03   -0.22046E-03 10080   0.968E-03 0.470E-03
CGA:  18    -0.353983096894E+03   -0.30092E-04   -0.46206E-04 10080   0.692E-03 0.244E-03
CGA:  19    -0.353983213195E+03   -0.11630E-03   -0.12407E-03 10080   0.191E-02-0.222E-03
CGA:  20    -0.353983234194E+03   -0.20999E-04   -0.21193E-04 10080   0.579E-03-0.820E-06
CGA:  21    -0.353983239645E+03   -0.54516E-05   -0.79136E-05 10080   0.207E-03 0.252E-04
  44 F= -.35398324E+03 E0= -.35397439E+03  d E =0.133193E-02  mag=    10.0000
       N       E                     dE             d eps       ncg     rms          ort
SDA:   1    -0.353918669540E+03    0.64565E-01    0.00000E+00 10080   0.400E+00 0.000E+00
CGA:   2    -0.353928924738E+03   -0.10255E-01   -0.10676E-01 10080   0.207E+00-0.177E-02
CGA:   3    -0.353960204121E+03   -0.31279E-01   -0.31007E-01 10080   0.374E+00 0.421E-02
CGA:   4    -0.353976226928E+03   -0.16023E-01   -0.16005E-01 10080   0.393E-01-0.809E-02
CGA:   5    -0.353980044426E+03   -0.38175E-02   -0.38148E-02 10080   0.655E-01 0.505E-03
CGA:   6    -0.353982607494E+03   -0.25631E-02   -0.25307E-02 10080   0.250E-01-0.808E-03
CGA:   7    -0.353983449289E+03   -0.84179E-03   -0.86990E-03 10080   0.379E-02 0.507E-03
CGA:   8    -0.353983887826E+03   -0.43854E-03   -0.42495E-03 10080   0.443E-02 0.613E-03
CGA:   9    -0.353984320075E+03   -0.43225E-03   -0.42418E-03 10080   0.271E-02-0.122E-02
CGA:  10    -0.353984388108E+03   -0.68033E-04   -0.83442E-04 10080   0.558E-03 0.330E-03
CGA:  11    -0.353984408111E+03   -0.20003E-04   -0.30295E-04 10080   0.490E-03 0.269E-03
CGA:  12    -0.353984498122E+03   -0.90011E-04   -0.91763E-04 10080   0.745E-03-0.428E-04
CGA:  13    -0.353984526799E+03   -0.28677E-04   -0.26495E-04 10080   0.208E-03-0.473E-04
CGA:  14    -0.353984539433E+03   -0.12634E-04   -0.10307E-04 10080   0.299E-03-0.756E-04
CGA:  15    -0.353984558117E+03   -0.18684E-04   -0.26909E-04 10080   0.890E-03-0.141E-03
CGA:  16    -0.353984566644E+03   -0.85272E-05   -0.91388E-05 10080   0.455E-03 0.838E-05
  45 F= -.35398457E+03 E0= -.35397567E+03  d E =-.132700E-02  mag=    10.0000
       N       E                     dE             d eps       ncg     rms          ort
SDA:   1    -0.353969883639E+03    0.14674E-01    0.00000E+00 10080   0.974E-01 0.000E+00
CGA:   2    -0.353974593824E+03   -0.47102E-02   -0.46919E-02 10080   0.370E-01-0.498E-02
CGA:   3    -0.353979840737E+03   -0.52469E-02   -0.52545E-02 10080   0.118E+00-0.216E-03
CGA:   4    -0.353983472320E+03   -0.36316E-02   -0.36923E-02 10080   0.105E-01 0.163E-02
CGA:   5    -0.353984003946E+03   -0.53163E-03   -0.49410E-03 10080   0.681E-02-0.132E-02
CGA:   6    -0.353984673622E+03   -0.66968E-03   -0.64938E-03 10080   0.211E-02 0.631E-03
CGA:   7    -0.353984738039E+03   -0.64417E-04   -0.72663E-04 10080   0.885E-03 0.164E-03
CGA:   8    -0.353984765568E+03   -0.27530E-04   -0.37243E-04 10080   0.374E-03 0.259E-03
CGA:   9    -0.353984772570E+03   -0.70016E-05   -0.15803E-03 10080   0.334E-02-0.599E-03
CGA:  10    -0.353984835537E+03   -0.62967E-04   -0.78197E-04 10080   0.612E-03 0.220E-03
CGA:  11    -0.353984839103E+03   -0.35661E-05   -0.16517E-04 10080   0.179E-03 0.221E-03
CGA:  12    -0.353984848190E+03   -0.90869E-05   -0.11651E-04 10080   0.265E-03 0.768E-04
CGA:  13    -0.353984879498E+03   -0.31308E-04   -0.32544E-04 10080   0.244E-03-0.184E-03
CGA:  14    -0.353984881230E+03   -0.17321E-05   -0.47395E-05 10080   0.447E-04 0.493E-04
  46 F= -.35398488E+03 E0= -.35397598E+03  d E =-.314586E-03  mag=    10.0000
