 vasp.6.1.2 22Jul20 (build Dec 05 2020 14:50:36) complex                        
  
 executed on         CrayXC-Intel date 2021.06.18  23:25:35
 running on   24 total cores
 distrk:  each k-point on   24 cores,    1 groups
 distr:  one band on NCORE=   4 cores,    6 groups


--------------------------------------------------------------------------------------------------------


 INCAR:
 POTCAR:    PAW_PBE Ca_sv 06Sep2000               
 POTCAR:    PAW_PBE V_pv 07Sep2000                
 POTCAR:    PAW_PBE O 08Apr2002                   
 POTCAR:    PAW_PBE Ca_sv 06Sep2000               
   VRHFIN =Ca: 3s3p4s                                                                               
   LEXCH  = PE                                                                                      
   EATOM  =  1006.0909 eV,   73.9456 Ry                                                             
                                                                                                    
   TITEL  = PAW_PBE Ca_sv 06Sep2000                                                                 
   LULTRA =        F    use ultrasoft PP ?                                                          
   IUNSCR =        1    unscreen: 0-lin 1-nonlin 2-no                                               
   RPACOR =    2.000    partial core radius                                                         
   POMASS =   40.078; ZVAL   =   10.000    mass and valenz                                          
   RCORE  =    2.300    outmost cutoff radius                                                       
   RWIGS  =    2.500; RWIGS  =    1.323    wigner-seitz radius (au A)                               
   ENMAX  =  266.622; ENMIN  =  199.967 eV                                                          
   RCLOC  =    1.808    cutoff for local pot                                                        
   LCOR   =        T    correct aug charges                                                         
   LPAW   =        T    paw PP                                                                      
   EAUG   =  420.852                                                                                
   RMAX   =    2.359    core radius for proj-oper                                                   
   RAUG   =    1.300    factor for augmentation sphere                                              
   RDEP   =    2.392    radius for radial grids                                                     
   RDEPT  =    1.987    core radius for aug-charge                                                  
                                                                                                    
   Atomic configuration                                                                             
    7 entries                                                                                       
     n  l   j            E        occ.                                                              
     1  0  0.50     -3949.1705   2.0000                                                             
     2  0  0.50      -414.3434   2.0000                                                             
     2  1  1.50      -334.7047   6.0000                                                             
     3  0  0.50       -47.0896   2.0000                                                             
     4  0  0.50        -3.7663   2.0000                                                             
     3  1  1.50       -28.0061   6.0000                                                             
     3  2  1.50        -4.0817   0.0000                                                             
   Description                                                                                      
     l       E           TYP  RCUT    TYP  RCUT                                                     
     0    -47.0896403     23  2.300                                                                 
     0     -3.7663320     23  2.300                                                                 
     1    -28.0060855     23  2.300                                                                 
     1      6.8029130     23  2.300                                                                 
     2     -4.0817478     23  2.300                                                                 
     2      0.4464412     23  2.300                                                                 
  local pseudopotential read in
  partial core-charges read in
  partial kinetic energy density read in
  atomic valenz-charges read in
  non local Contribution for L=           0  read in
    real space projection operators read in
  non local Contribution for L=           0  read in
    real space projection operators read in
  non local Contribution for L=           1  read in
    real space projection operators read in
  non local Contribution for L=           1  read in
    real space projection operators read in
  non local Contribution for L=           2  read in
    real space projection operators read in
  non local Contribution for L=           2  read in
    real space projection operators read in
    PAW grid and wavefunctions read in
 
   number of l-projection  operators is LMAX  =           6
   number of lm-projection operators is LMMAX =          18
 
 POTCAR:    PAW_PBE V_pv 07Sep2000                
   VRHFIN =V: p6 d4 s1                                                                              
   LEXCH  = PE                                                                                      
   EATOM  =  1321.6206 eV,   97.1364 Ry                                                             
                                                                                                    
   TITEL  = PAW_PBE V_pv 07Sep2000                                                                  
   LULTRA =        F    use ultrasoft PP ?                                                          
   IUNSCR =        1    unscreen: 0-lin 1-nonlin 2-no                                               
   RPACOR =    1.700    partial core radius                                                         
   POMASS =   50.941; ZVAL   =   11.000    mass and valenz                                          
   RCORE  =    2.300    outmost cutoff radius                                                       
   RWIGS  =    2.300; RWIGS  =    1.217    wigner-seitz radius (au A)                               
   ENMAX  =  263.673; ENMIN  =  197.755 eV                                                          
   RCLOC  =    1.779    cutoff for local pot                                                        
   LCOR   =        T    correct aug charges                                                         
   LPAW   =        T    paw PP                                                                      
   EAUG   =  598.473                                                                                
   DEXC   =    0.000                                                                                
   RMAX   =    2.359    core radius for proj-oper                                                   
   RAUG   =    1.300    factor for augmentation sphere                                              
   RDEP   =    2.430    radius for radial grids                                                     
   RDEPT  =    1.700    core radius for aug-charge                                                  
                                                                                                    
   Atomic configuration                                                                             
    8 entries                                                                                       
     n  l   j            E        occ.                                                              
     1  0  0.50     -5360.7193   2.0000                                                             
     2  0  0.50      -598.4546   2.0000                                                             
     2  1  1.50      -499.0155   6.0000                                                             
     3  0  0.50       -66.5711   2.0000                                                             
     3  1  1.50       -40.5282   6.0000                                                             
     3  2  2.50        -2.4291   4.0000                                                             
     4  0  0.50        -3.8743   1.0000                                                             
     4  3  2.50        -1.3606   0.0000                                                             
   Description                                                                                      
     l       E           TYP  RCUT    TYP  RCUT                                                     
     1    -40.5282431     23  2.000                                                                 
     1      5.4423304     23  2.000                                                                 
     2     -2.4290905     23  2.300                                                                 
     2     -1.0472488     23  2.300                                                                 
     0     -3.8742754     23  2.300                                                                 
     0     27.2116520     23  2.300                                                                 
  local pseudopotential read in
  partial core-charges read in
  partial kinetic energy density read in
  atomic valenz-charges read in
  non local Contribution for L=           1  read in
    real space projection operators read in
  non local Contribution for L=           1  read in
    real space projection operators read in
  non local Contribution for L=           2  read in
    real space projection operators read in
  non local Contribution for L=           2  read in
    real space projection operators read in
  non local Contribution for L=           0  read in
    real space projection operators read in
  non local Contribution for L=           0  read in
    real space projection operators read in
    PAW grid and wavefunctions read in
 
   number of l-projection  operators is LMAX  =           6
   number of lm-projection operators is LMMAX =          18
 
 POTCAR:    PAW_PBE O 08Apr2002                   
   VRHFIN =O: s2p4                                                                                  
   LEXCH  = PE                                                                                      
   EATOM  =   432.3788 eV,   31.7789 Ry                                                             
                                                                                                    
   TITEL  = PAW_PBE O 08Apr2002                                                                     
   LULTRA =        F    use ultrasoft PP ?                                                          
   IUNSCR =        1    unscreen: 0-lin 1-nonlin 2-no                                               
   RPACOR =    1.200    partial core radius                                                         
   POMASS =   16.000; ZVAL   =    6.000    mass and valenz                                          
   RCORE  =    1.520    outmost cutoff radius                                                       
   RWIGS  =    1.550; RWIGS  =    0.820    wigner-seitz radius (au A)                               
   ENMAX  =  400.000; ENMIN  =  300.000 eV                                                          
   ICORE  =        2    local potential                                                             
   LCOR   =        T    correct aug charges                                                         
   LPAW   =        T    paw PP                                                                      
   EAUG   =  605.392                                                                                
   DEXC   =    0.000                                                                                
   RMAX   =    1.553    core radius for proj-oper                                                   
   RAUG   =    1.300    factor for augmentation sphere                                              
   RDEP   =    1.550    radius for radial grids                                                     
   RDEPT  =    1.329    core radius for aug-charge                                                  
                                                                                                    
   Atomic configuration                                                                             
    4 entries                                                                                       
     n  l   j            E        occ.                                                              
     1  0  0.50      -514.6923   2.0000                                                             
     2  0  0.50       -23.9615   2.0000                                                             
     2  1  0.50        -9.0305   4.0000                                                             
     3  2  1.50        -9.5241   0.0000                                                             
   Description                                                                                      
     l       E           TYP  RCUT    TYP  RCUT                                                     
     0    -23.9615318     23  1.200                                                                 
     0     -9.5240782     23  1.200                                                                 
     1     -9.0304911     23  1.520                                                                 
     1      8.1634956     23  1.520                                                                 
     2     -9.5240782      7  1.500                                                                 
  local pseudopotential read in
  partial core-charges read in
  partial kinetic energy density read in
  kinetic energy density of atom read in
  atomic valenz-charges read in
  non local Contribution for L=           0  read in
    real space projection operators read in
  non local Contribution for L=           0  read in
    real space projection operators read in
  non local Contribution for L=           1  read in
    real space projection operators read in
  non local Contribution for L=           1  read in
    real space projection operators read in
    PAW grid and wavefunctions read in
 
   number of l-projection  operators is LMAX  =           4
   number of lm-projection operators is LMMAX =           8
 
 Optimization of the real space projectors (new method)

 maximal supplied QI-value         = 16.25
 optimisation between [QCUT,QGAM] = [ 11.54, 23.24] = [ 37.28,151.24] Ry 
 Optimized for a Real-space Cutoff    1.58 Angstroem

   l    n(q)    QCUT    max X(q) W(low)/X(q) W(high)/X(q)  e(spline) 
   0     11    11.539    11.817    0.25E-04    0.22E-05    0.26E-07
   0     11    11.539     8.461    0.39E-04    0.49E-05    0.55E-07
   1     11    11.539     3.957    0.21E-05    0.44E-05    0.32E-07
   1     11    11.539     4.314    0.56E-04    0.44E-04    0.19E-06
   2     10    11.539    14.565    0.25E-03    0.21E-04    0.75E-06
   2     10    11.539    14.552    0.23E-03    0.22E-04    0.72E-06
 Optimization of the real space projectors (new method)

 maximal supplied QI-value         = 16.25
 optimisation between [QCUT,QGAM] = [ 11.54, 23.24] = [ 37.28,151.24] Ry 
 Optimized for a Real-space Cutoff    1.53 Angstroem

   l    n(q)    QCUT    max X(q) W(low)/X(q) W(high)/X(q)  e(spline) 
   1     10    11.539     3.206    0.43E-05    0.46E-05    0.52E-07
   1     10    11.539     4.597    0.39E-04    0.25E-04    0.17E-06
   2     10    11.539    89.000    0.10E-03    0.13E-03    0.24E-06
   2     10    11.539    82.410    0.10E-03    0.13E-03    0.23E-06
   0     11    11.539    36.565    0.42E-04    0.19E-04    0.30E-06
   0     11    11.539    13.729    0.20E-04    0.13E-04    0.22E-06
 Optimization of the real space projectors (new method)

 maximal supplied QI-value         = 24.76
 optimisation between [QCUT,QGAM] = [ 11.64, 23.27] = [ 37.91,151.63] Ry 
 Optimized for a Real-space Cutoff    1.14 Angstroem

   l    n(q)    QCUT    max X(q) W(low)/X(q) W(high)/X(q)  e(spline) 
   0      8    11.635    20.381    0.10E-03    0.33E-03    0.24E-06
   0      8    11.635    15.268    0.11E-03    0.35E-03    0.26E-06
   1      7    11.635     5.964    0.24E-03    0.31E-03    0.30E-06
   1      7    11.635     5.382    0.22E-03    0.25E-03    0.26E-06
  PAW_PBE Ca_sv 06Sep2000               :
 energy of atom  1       EATOM=-1006.0909
 kinetic energy error for atom=    0.0022 (will be added to EATOM!!)
  PAW_PBE V_pv 07Sep2000                :
 energy of atom  2       EATOM=-1321.6206
 kinetic energy error for atom=    0.0054 (will be added to EATOM!!)
  PAW_PBE O 08Apr2002                   :
 energy of atom  3       EATOM= -432.3788
 kinetic energy error for atom=    0.0208 (will be added to EATOM!!)
 
 
 POSCAR: Ca2 V4 O10
  positions in direct lattice
  velocities in cartesian coordinates

 METAGGA = SCAN     LMAXTAU =  6    LMIXTAU =  F

 exchange correlation table for  LEXCH =        8
   RHO(1)=    0.500       N(1)  =     2000
   RHO(2)=  100.500       N(2)  =     4000
 


--------------------------------------------------------------------------------------------------------


 ion  position               nearest neighbor table
   1  0.250  0.750  0.850-  16 2.33  16 2.33  10 2.51  10 2.51   9 2.51   9 2.51  12 2.53  11 2.53

   2  0.750  0.250  0.150-  15 2.33  15 2.33   7 2.51   7 2.51   8 2.51   8 2.51  13 2.53  14 2.53

   3  0.904  0.750  0.612-   7 1.67  15 1.91  13 1.95  13 1.95  11 1.98
   4  0.596  0.750  0.612-   8 1.67  15 1.91  14 1.95  14 1.95  12 1.98
   5  0.096  0.250  0.388-   9 1.67  16 1.91  11 1.95  11 1.95  13 1.98
   6  0.404  0.250  0.388-  10 1.67  16 1.91  12 1.95  12 1.95  14 1.98
   7  0.876  0.750  0.943-   3 1.67   2 2.51   2 2.51
   8  0.624  0.750  0.943-   4 1.67   2 2.51   2 2.51
   9  0.124  0.250  0.057-   5 1.67   1 2.51   1 2.51
  10  0.376  0.250  0.057-   6 1.67   1 2.51   1 2.51
  11  0.075  0.750  0.534-   5 1.95   5 1.95   3 1.98   1 2.53
  12  0.425  0.750  0.534-   6 1.95   6 1.95   4 1.98   1 2.53
  13  0.925  0.250  0.466-   3 1.95   3 1.95   5 1.98   2 2.53
  14  0.575  0.250  0.466-   4 1.95   4 1.95   6 1.98   2 2.53
  15  0.750  0.750  0.451-   4 1.91   3 1.91   2 2.33   2 2.33
  16  0.250  0.250  0.549-   5 1.91   6 1.91   1 2.33   1 2.33
 

IMPORTANT INFORMATION: All symmetrisations will be switched off!
NOSYMM: (Re-)initialisation of all symmetry stuff for point group C_1.


----------------------------------------------------------------------------------------

                                     Primitive cell                                     

  volume of cell :     200.8191

  direct lattice vectors                    reciprocal lattice vectors
    11.338696164  0.000000035  0.000000939     0.088193562 -0.000000000 -0.000000007
     0.000000017  3.580389861  0.000000008    -0.000000001  0.279299193 -0.000000000
     0.000000415  0.000000008  4.946654009    -0.000000017 -0.000000000  0.202156852

  length of vectors
    11.338696164  3.580389861  4.946654009     0.088193562  0.279299193  0.202156852

  position of ions in fractional coordinates (direct lattice)
     0.250010917  0.749999997  0.850210258
     0.750010901  0.250000012  0.149790142
     0.903634742  0.750000039  0.611665550
     0.596358575  0.749999958  0.611613628
     0.096358903  0.250000004  0.388385395
     0.403634330  0.249999990  0.388332113
     0.876192317  0.750000020  0.942963164
     0.623840390  0.749999965  0.942894908
     0.123840330  0.249999999  0.057106004
     0.376192413  0.250000011  0.057037835
     0.074645893  0.750000006  0.534087484
     0.425320821  0.749999992  0.534064139
     0.925320805  0.250000024  0.465936063
     0.574645876  0.249999972  0.465913034
     0.749996369  0.750000011  0.451338138
     0.249996420  0.249999998  0.548662146

  ion indices of the primitive-cell ions
   primitive index   ion index
                 1           1
                 2           2
                 3           3
                 4           4
                 5           5
                 6           6
                 7           7
                 8           8
                 9           9
                10          10
                11          11
                12          12
                13          13
                14          14
                15          15
                16          16

----------------------------------------------------------------------------------------

 
 
 KPOINTS: K-points file                           

Automatic generation of k-mesh.
Space group operators:
 irot       det(A)        alpha          n_x          n_y          n_z        tau_x        tau_y        tau_z
    1     1.000000     0.000001     1.000000     0.000000     0.000000     0.000000     0.000000     0.000000
 
 Subroutine IBZKPT returns following result:
 ===========================================
 
 Found     95 irreducible k-points:
 
 Following reciprocal coordinates:
            Coordinates               Weight
  0.000000  0.000000  0.000000      1.000000
  0.333333  0.000000 -0.000000      2.000000
 -0.000000  0.111111  0.000000      2.000000
  0.333333  0.111111 -0.000000      2.000000
 -0.333333  0.111111  0.000000      2.000000
 -0.000000  0.222222  0.000000      2.000000
  0.333333  0.222222 -0.000000      2.000000
 -0.333333  0.222222  0.000000      2.000000
 -0.000000  0.333333  0.000000      2.000000
  0.333333  0.333333 -0.000000      2.000000
 -0.333333  0.333333  0.000000      2.000000
 -0.000000  0.444444  0.000000      2.000000
  0.333333  0.444444 -0.000000      2.000000
 -0.333333  0.444444  0.000000      2.000000
 -0.000000  0.000000  0.142857      2.000000
  0.333333  0.000000  0.142857      2.000000
 -0.333333 -0.000000  0.142857      2.000000
 -0.000000  0.111111  0.142857      2.000000
  0.000000  0.111111 -0.142857      2.000000
  0.333333  0.111111  0.142857      2.000000
 -0.333333  0.111111 -0.142857      2.000000
 -0.333333 -0.111111  0.142857      2.000000
  0.333333 -0.111111 -0.142857      2.000000
 -0.000000  0.222222  0.142857      2.000000
  0.000000  0.222222 -0.142857      2.000000
  0.333333  0.222222  0.142857      2.000000
 -0.333333  0.222222 -0.142857      2.000000
 -0.333333 -0.222222  0.142857      2.000000
  0.333333 -0.222222 -0.142857      2.000000
 -0.000000  0.333333  0.142857      2.000000
  0.000000  0.333333 -0.142857      2.000000
  0.333333  0.333333  0.142857      2.000000
 -0.333333  0.333333 -0.142857      2.000000
 -0.333333 -0.333333  0.142857      2.000000
  0.333333 -0.333333 -0.142857      2.000000
 -0.000000  0.444444  0.142857      2.000000
  0.000000  0.444444 -0.142857      2.000000
  0.333333  0.444444  0.142857      2.000000
 -0.333333  0.444444 -0.142857      2.000000
 -0.333333 -0.444444  0.142857      2.000000
  0.333333 -0.444444 -0.142857      2.000000
 -0.000000  0.000000  0.285714      2.000000
  0.333333  0.000000  0.285714      2.000000
 -0.333333  0.000000  0.285714      2.000000
 -0.000000  0.111111  0.285714      2.000000
  0.000000  0.111111 -0.285714      2.000000
  0.333333  0.111111  0.285714      2.000000
 -0.333333  0.111111 -0.285714      2.000000
 -0.333333 -0.111111  0.285714      2.000000
  0.333333 -0.111111 -0.285714      2.000000
 -0.000000  0.222222  0.285714      2.000000
  0.000000  0.222222 -0.285714      2.000000
  0.333333  0.222222  0.285714      2.000000
 -0.333333  0.222222 -0.285714      2.000000
 -0.333333 -0.222222  0.285714      2.000000
  0.333333 -0.222222 -0.285714      2.000000
 -0.000000  0.333333  0.285714      2.000000
  0.000000  0.333333 -0.285714      2.000000
  0.333333  0.333333  0.285714      2.000000
 -0.333333  0.333333 -0.285714      2.000000
 -0.333333 -0.333333  0.285714      2.000000
  0.333333 -0.333333 -0.285714      2.000000
 -0.000000  0.444444  0.285714      2.000000
  0.000000  0.444444 -0.285714      2.000000
  0.333333  0.444444  0.285714      2.000000
 -0.333333  0.444444 -0.285714      2.000000
 -0.333333 -0.444444  0.285714      2.000000
  0.333333 -0.444444 -0.285714      2.000000
 -0.000000  0.000000  0.428571      2.000000
  0.333333  0.000000  0.428571      2.000000
 -0.333333  0.000000  0.428571      2.000000
 -0.000000  0.111111  0.428571      2.000000
  0.000000  0.111111 -0.428571      2.000000
  0.333333  0.111111  0.428571      2.000000
 -0.333333  0.111111 -0.428571      2.000000
 -0.333333 -0.111111  0.428571      2.000000
  0.333333 -0.111111 -0.428571      2.000000
 -0.000000  0.222222  0.428571      2.000000
  0.000000  0.222222 -0.428571      2.000000
  0.333333  0.222222  0.428571      2.000000
 -0.333333  0.222222 -0.428571      2.000000
 -0.333333 -0.222222  0.428571      2.000000
  0.333333 -0.222222 -0.428571      2.000000
 -0.000000  0.333333  0.428571      2.000000
  0.000000  0.333333 -0.428571      2.000000
  0.333333  0.333333  0.428571      2.000000
 -0.333333  0.333333 -0.428571      2.000000
 -0.333333 -0.333333  0.428571      2.000000
  0.333333 -0.333333 -0.428571      2.000000
 -0.000000  0.444444  0.428571      2.000000
  0.000000  0.444444 -0.428571      2.000000
  0.333333  0.444444  0.428571      2.000000
 -0.333333  0.444444 -0.428571      2.000000
 -0.333333 -0.444444  0.428571      2.000000
  0.333333 -0.444444 -0.428571      2.000000
 
 Following cartesian coordinates:
            Coordinates               Weight
  0.000000  0.000000  0.000000      1.000000
  0.029398 -0.000000 -0.000000      2.000000
 -0.000000  0.031033 -0.000000      2.000000
  0.029398  0.031033 -0.000000      2.000000
 -0.029398  0.031033  0.000000      2.000000
 -0.000000  0.062066 -0.000000      2.000000
  0.029398  0.062066 -0.000000      2.000000
 -0.029398  0.062066  0.000000      2.000000
 -0.000000  0.093100 -0.000000      2.000000
  0.029398  0.093100 -0.000000      2.000000
 -0.029398  0.093100  0.000000      2.000000
 -0.000000  0.124133 -0.000000      2.000000
  0.029398  0.124133 -0.000000      2.000000
 -0.029398  0.124133  0.000000      2.000000
 -0.000000 -0.000000  0.028880      2.000000
  0.029398 -0.000000  0.028880      2.000000
 -0.029398  0.000000  0.028880      2.000000
 -0.000000  0.031033  0.028880      2.000000
  0.000000  0.031033 -0.028880      2.000000
  0.029398  0.031033  0.028880      2.000000
 -0.029398  0.031033 -0.028880      2.000000
 -0.029398 -0.031033  0.028880      2.000000
  0.029398 -0.031033 -0.028880      2.000000
 -0.000000  0.062066  0.028880      2.000000
  0.000000  0.062066 -0.028880      2.000000
  0.029398  0.062066  0.028880      2.000000
 -0.029398  0.062066 -0.028880      2.000000
 -0.029398 -0.062066  0.028880      2.000000
  0.029398 -0.062066 -0.028880      2.000000
 -0.000000  0.093100  0.028880      2.000000
  0.000000  0.093100 -0.028880      2.000000
  0.029398  0.093100  0.028880      2.000000
 -0.029398  0.093100 -0.028880      2.000000
 -0.029398 -0.093100  0.028880      2.000000
  0.029398 -0.093100 -0.028880      2.000000
 -0.000000  0.124133  0.028880      2.000000
  0.000000  0.124133 -0.028880      2.000000
  0.029398  0.124133  0.028880      2.000000
 -0.029398  0.124133 -0.028880      2.000000
 -0.029398 -0.124133  0.028880      2.000000
  0.029398 -0.124133 -0.028880      2.000000
 -0.000000 -0.000000  0.057759      2.000000
  0.029398 -0.000000  0.057759      2.000000
 -0.029398  0.000000  0.057759      2.000000
 -0.000000  0.031033  0.057759      2.000000
  0.000000  0.031033 -0.057759      2.000000
  0.029398  0.031033  0.057759      2.000000
 -0.029398  0.031033 -0.057759      2.000000
 -0.029398 -0.031033  0.057759      2.000000
  0.029398 -0.031033 -0.057759      2.000000
 -0.000000  0.062066  0.057759      2.000000
  0.000000  0.062066 -0.057759      2.000000
  0.029398  0.062066  0.057759      2.000000
 -0.029398  0.062066 -0.057759      2.000000
 -0.029398 -0.062066  0.057759      2.000000
  0.029398 -0.062066 -0.057759      2.000000
 -0.000000  0.093100  0.057759      2.000000
  0.000000  0.093100 -0.057759      2.000000
  0.029398  0.093100  0.057759      2.000000
 -0.029398  0.093100 -0.057759      2.000000
 -0.029398 -0.093100  0.057759      2.000000
  0.029398 -0.093100 -0.057759      2.000000
 -0.000000  0.124133  0.057759      2.000000
  0.000000  0.124133 -0.057759      2.000000
  0.029398  0.124133  0.057759      2.000000
 -0.029398  0.124133 -0.057759      2.000000
 -0.029398 -0.124133  0.057759      2.000000
  0.029398 -0.124133 -0.057759      2.000000
 -0.000000 -0.000000  0.086639      2.000000
  0.029398 -0.000000  0.086639      2.000000
 -0.029398 -0.000000  0.086639      2.000000
 -0.000000  0.031033  0.086639      2.000000
  0.000000  0.031033 -0.086639      2.000000
  0.029398  0.031033  0.086639      2.000000
 -0.029398  0.031033 -0.086639      2.000000
 -0.029398 -0.031033  0.086639      2.000000
  0.029398 -0.031033 -0.086639      2.000000
 -0.000000  0.062066  0.086639      2.000000
  0.000000  0.062066 -0.086639      2.000000
  0.029398  0.062066  0.086639      2.000000
 -0.029398  0.062066 -0.086639      2.000000
 -0.029398 -0.062066  0.086639      2.000000
  0.029398 -0.062066 -0.086639      2.000000
 -0.000000  0.093100  0.086639      2.000000
  0.000000  0.093100 -0.086639      2.000000
  0.029398  0.093100  0.086639      2.000000
 -0.029398  0.093100 -0.086639      2.000000
 -0.029398 -0.093100  0.086639      2.000000
  0.029398 -0.093100 -0.086639      2.000000
 -0.000000  0.124133  0.086639      2.000000
  0.000000  0.124133 -0.086639      2.000000
  0.029398  0.124133  0.086639      2.000000
 -0.029398  0.124133 -0.086639      2.000000
 -0.029398 -0.124133  0.086639      2.000000
  0.029398 -0.124133 -0.086639      2.000000
 


--------------------------------------------------------------------------------------------------------




 Dimension of arrays:
   k-points           NKPTS =     95   k-points in BZ     NKDIM =     95   number of bands    NBANDS=     78
   number of dos      NEDOS =    301   number of ions     NIONS =     16
   non local maximal  LDIM  =      6   non local SUM 2l+1 LMDIM =     18
   total plane-waves  NPLWV =  94080
   max r-space proj   IRMAX =   7787   max aug-charges    IRDMAX=  22549
   dimension x,y,z NGX =    84 NGY =   28 NGZ =   40
   dimension x,y,z NGXF=   168 NGYF=   56 NGZF=   80
   support grid    NGXF=   168 NGYF=   56 NGZF=   80
   ions per type =               2   4  10
   NGX,Y,Z   is equivalent  to a cutoff of  12.32, 13.00, 13.44 a.u.
   NGXF,Y,Z  is equivalent  to a cutoff of  24.63, 26.00, 26.89 a.u.

 SYSTEM =  unknown system                          
 POSCAR =  Ca2 V4 O10                              

 Startparameter for this run:
   NWRITE =      2    write-flag & timer
   PREC   = accura    normal or accurate (medium, high low for compatibility)
   ISTART =      0    job   : 0-new  1-cont  2-samecut
   ICHARG =      1    charge: 1-file 2-atom 10-const
   ISPIN  =      2    spin polarized calculation?
   LNONCOLLINEAR =      F non collinear calculations
   LSORBIT =      F    spin-orbit coupling
   INIWAV =      1    electr: 0-lowe 1-rand  2-diag
   LASPH  =      T    aspherical Exc in radial PAW
   METAGGA=      F    non-selfconsistent MetaGGA calc.

 Electronic Relaxation 1
   ENCUT  =  520.0 eV  38.22 Ry    6.18 a.u.  21.08  6.66  9.20*2*pi/ulx,y,z
   ENINI  =  520.0     initial cutoff
   ENAUG  =  605.4 eV  augmentation charge cutoff
   NELM   =    100;   NELMIN=  6; NELMDL= -5     # of ELM steps 
   EDIFF  = 0.1E-04   stopping-criterion for ELM
   LREAL  =      T    real-space projection
   NLSPLINE    = F    spline interpolate recip. space projectors
   LCOMPAT=      F    compatible to vasp.4.4
   GGA_COMPAT  = T    GGA compatible to vasp.4.4-vasp.4.6
   LMAXPAW     = -100 max onsite density
   LMAXMIX     =    4 max onsite mixed and CHGCAR
   VOSKOWN=      0    Vosko Wilk Nusair interpolation
   ROPT   =   -0.00025  -0.00025  -0.00025
 Ionic relaxation
   EDIFFG = -.3E-01   stopping-criterion for IOM
   NSW    =     99    number of steps for IOM
   NBLOCK =      1;   KBLOCK =     99    inner block; outer block 
   IBRION =      2    ionic relax: 0-MD 1-quasi-New 2-CG
   NFREE  =      1    steps in history (QN), initial steepest desc. (CG)
   ISIF   =      3    stress and relaxation
   IWAVPR =     11    prediction:  0-non 1-charg 2-wave 3-comb
   ISYM   =      0    0-nonsym 1-usesym 2-fastsym
   LCORR  =      T    Harris-Foulkes like correction to forces

   POTIM  = 0.5000    time-step for ionic-motion
   TEIN   =    0.0    initial temperature
   TEBEG  =    0.0;   TEEND  =   0.0 temperature during run
   SMASS  =  -3.00    Nose mass-parameter (am)
   estimated Nose-frequenzy (Omega)   =  0.10E-29 period in steps = 0.13E+47 mass=  -0.294E-26a.u.
   SCALEE = 1.0000    scale energy and forces
   NPACO  =    256;   APACO  = 16.0  distance and # of slots for P.C.
   PSTRESS=    0.0 pullay stress

  Mass of Ions in am
   POMASS =  40.08 50.94 16.00
  Ionic Valenz
   ZVAL   =  10.00 11.00  6.00
  Atomic Wigner-Seitz radii
   RWIGS  =  -1.00 -1.00 -1.00
  virtual crystal weights 
   VCA    =   1.00  1.00  1.00
   NELECT =     124.0000    total number of electrons
   NUPDOWN=      -1.0000    fix difference up-down

 DOS related values:
   EMIN   =  10.00;   EMAX   =-10.00  energy-range for DOS
   EFERMI =   0.00
   ISMEAR =     0;   SIGMA  =   0.05  broadening in eV -4-tet -1-fermi 0-gaus

 Electronic relaxation 2 (details)
   IALGO  =     38    algorithm
   LDIAG  =      T    sub-space diagonalisation (order eigenvalues)
   LSUBROT=      F    optimize rotation matrix (better conditioning)
   TURBO    =      0    0=normal 1=particle mesh
   IRESTART =      0    0=no restart 2=restart with 2 vectors
   NREBOOT  =      0    no. of reboots
   NMIN     =      0    reboot dimension
   EREF     =   0.00    reference energy to select bands
   IMIX   =      4    mixing-type and parameters
     AMIX     =   0.40;   BMIX     =  1.00
     AMIX_MAG =   1.60;   BMIX_MAG =  1.00
     AMIN     =   0.10
     WC   =   100.;   INIMIX=   1;  MIXPRE=   1;  MAXMIX= -45

 Intra band minimization:
   WEIMIN = 0.0010     energy-eigenvalue tresh-hold
   EBREAK =  0.32E-07  absolut break condition
   DEPER  =   0.30     relativ break condition  

   TIME   =   0.40     timestep for ELM

  volume/ion in A,a.u.               =      12.55        84.70
  Fermi-wavevector in a.u.,A,eV,Ry     =   1.394057  2.634385 26.441477  1.943394
  Thomas-Fermi vector in A             =   2.517643
 
 Write flags
   LWAVE        =      F    write WAVECAR
   LDOWNSAMPLE  =      F    k-point downsampling of WAVECAR
   LCHARG       =      T    write CHGCAR
   LVTOT        =      F    write LOCPOT, total local potential
   LVHAR        =      F    write LOCPOT, Hartree potential only
   LELF         =      F    write electronic localiz. function (ELF)
   LORBIT       =     11    0 simple, 1 ext, 2 COOP (PROOUT), +10 PAW based schemes


 Dipole corrections
   LMONO  =      F    monopole corrections only (constant potential shift)
   LDIPOL =      F    correct potential (dipole corrections)
   IDIPOL =      0    1-x, 2-y, 3-z, 4-all directions 
   EPSILON=  1.0000000 bulk dielectric constant

 LDA+U is selected, type is set to LDAUTYPE =  2
   angular momentum for each species LDAUL =    -1    2   -1
   U (eV)           for each species LDAUU =   0.0  1.0  0.0
   J (eV)           for each species LDAUJ =   0.0  0.0  0.0
 Exchange correlation treatment:
   GGA     =    --    GGA type
   LEXCH   =     8    internal setting for exchange type
   VOSKOWN=      0    Vosko Wilk Nusair interpolation
   LHFCALC =     F    Hartree Fock is set to
   LHFONE  =     F    Hartree Fock one center treatment
   AEXX    =    0.0000 exact exchange contribution

 Linear response parameters
   LEPSILON=     F    determine dielectric tensor
   LRPA    =     F    only Hartree local field effects (RPA)
   LNABLA  =     F    use nabla operator in PAW spheres
   LVEL    =     F    velocity operator in full k-point grid
   LINTERFAST=   F  fast interpolation
   KINTER  =     0    interpolate to denser k-point grid
   CSHIFT  =0.1000    complex shift for real part using Kramers Kronig
   OMEGAMAX=  -1.0    maximum frequency
   DEG_THRESHOLD= 0.2000000E-02 threshold for treating states as degnerate
   RTIME   =   -0.100 relaxation time in fs
  (WPLASMAI=    0.000 imaginary part of plasma frequency in eV, 0.658/RTIME)
   DFIELD  = 0.0000000 0.0000000 0.0000000 field for delta impulse in time
 
 Orbital magnetization related:
   ORBITALMAG=     F  switch on orbital magnetization
   LCHIMAG   =     F  perturbation theory with respect to B field
   DQ        =  0.001000  dq finite difference perturbation B field
   LLRAUG    =     F  two centre corrections for induced B field



--------------------------------------------------------------------------------------------------------


 conjugate gradient relaxation of ions
 charge density and potential will be updated during run
 spin polarized calculation
 Variant of blocked Davidson
 Davidson routine will perform the subspace rotation
 perform sub-space diagonalisation
    after iterative eigenvector-optimisation
 modified Broyden-mixing scheme, WC =      100.0
 initial mixing is a Kerker type mixing with AMIX =  0.4000 and BMIX =      1.0000
 Hartree-type preconditioning will be used
 using additional bands           16
 real space projection scheme for non local part
 use partial core corrections
 calculate Harris-corrections to forces 
   (improved forces if not selfconsistent)
 use gradient corrections 
 use of overlap-Matrix (Vanderbilt PP)
 Gauss-broadening in eV      SIGMA  =   0.05


--------------------------------------------------------------------------------------------------------


  energy-cutoff  :      520.00
  volume of cell :      200.82
      direct lattice vectors                 reciprocal lattice vectors
    11.338696164  0.000000035  0.000000939     0.088193562 -0.000000000 -0.000000007
     0.000000017  3.580389861  0.000000008    -0.000000001  0.279299193 -0.000000000
     0.000000415  0.000000008  4.946654009    -0.000000017 -0.000000000  0.202156852

  length of vectors
    11.338696164  3.580389861  4.946654009     0.088193562  0.279299193  0.202156852


 
 k-points in units of 2pi/SCALE and weight: K-points file                           
   0.00000000  0.00000000  0.00000000       0.005
   0.02939785 -0.00000000 -0.00000000       0.011
  -0.00000000  0.03103324 -0.00000000       0.011
   0.02939785  0.03103324 -0.00000000       0.011
  -0.02939785  0.03103324  0.00000000       0.011
  -0.00000000  0.06206649 -0.00000000       0.011
   0.02939785  0.06206649 -0.00000000       0.011
  -0.02939785  0.06206649  0.00000000       0.011
  -0.00000000  0.09309973 -0.00000000       0.011
   0.02939785  0.09309973 -0.00000000       0.011
  -0.02939785  0.09309973  0.00000000       0.011
  -0.00000000  0.12413297 -0.00000000       0.011
   0.02939785  0.12413297 -0.00000000       0.011
  -0.02939785  0.12413297  0.00000000       0.011
  -0.00000000 -0.00000000  0.02887955       0.011
   0.02939785 -0.00000000  0.02887955       0.011
  -0.02939786  0.00000000  0.02887955       0.011
  -0.00000000  0.03103324  0.02887955       0.011
   0.00000000  0.03103324 -0.02887955       0.011
   0.02939785  0.03103324  0.02887955       0.011
  -0.02939785  0.03103324 -0.02887955       0.011
  -0.02939786 -0.03103324  0.02887955       0.011
   0.02939786 -0.03103324 -0.02887955       0.011
  -0.00000000  0.06206649  0.02887955       0.011
   0.00000000  0.06206649 -0.02887955       0.011
   0.02939785  0.06206649  0.02887955       0.011
  -0.02939785  0.06206649 -0.02887955       0.011
  -0.02939786 -0.06206649  0.02887955       0.011
   0.02939786 -0.06206649 -0.02887955       0.011
  -0.00000000  0.09309973  0.02887955       0.011
   0.00000000  0.09309973 -0.02887955       0.011
   0.02939785  0.09309973  0.02887955       0.011
  -0.02939785  0.09309973 -0.02887955       0.011
  -0.02939786 -0.09309973  0.02887955       0.011
   0.02939786 -0.09309973 -0.02887955       0.011
  -0.00000000  0.12413297  0.02887955       0.011
   0.00000000  0.12413297 -0.02887955       0.011
   0.02939785  0.12413297  0.02887955       0.011
  -0.02939785  0.12413298 -0.02887955       0.011
  -0.02939786 -0.12413297  0.02887955       0.011
   0.02939786 -0.12413297 -0.02887955       0.011
  -0.00000000 -0.00000000  0.05775910       0.011
   0.02939785 -0.00000000  0.05775910       0.011
  -0.02939786  0.00000000  0.05775910       0.011
  -0.00000000  0.03103324  0.05775910       0.011
   0.00000000  0.03103324 -0.05775910       0.011
   0.02939785  0.03103324  0.05775910       0.011
  -0.02939785  0.03103324 -0.05775910       0.011
  -0.02939786 -0.03103324  0.05775910       0.011
   0.02939786 -0.03103324 -0.05775910       0.011
  -0.00000000  0.06206649  0.05775910       0.011
   0.00000000  0.06206649 -0.05775910       0.011
   0.02939785  0.06206649  0.05775910       0.011
  -0.02939785  0.06206649 -0.05775910       0.011
  -0.02939786 -0.06206649  0.05775910       0.011
   0.02939786 -0.06206649 -0.05775910       0.011
  -0.00000001  0.09309973  0.05775910       0.011
   0.00000000  0.09309973 -0.05775910       0.011
   0.02939785  0.09309973  0.05775910       0.011
  -0.02939785  0.09309973 -0.05775910       0.011
  -0.02939786 -0.09309973  0.05775910       0.011
   0.02939786 -0.09309973 -0.05775910       0.011
  -0.00000001  0.12413297  0.05775910       0.011
   0.00000000  0.12413297 -0.05775910       0.011
   0.02939785  0.12413297  0.05775910       0.011
  -0.02939785  0.12413298 -0.05775910       0.011
  -0.02939786 -0.12413297  0.05775910       0.011
   0.02939786 -0.12413297 -0.05775910       0.011
  -0.00000001 -0.00000000  0.08663865       0.011
   0.02939785 -0.00000000  0.08663865       0.011
  -0.02939786 -0.00000000  0.08663865       0.011
  -0.00000001  0.03103324  0.08663865       0.011
   0.00000001  0.03103324 -0.08663865       0.011
   0.02939785  0.03103324  0.08663865       0.011
  -0.02939785  0.03103324 -0.08663865       0.011
  -0.02939786 -0.03103324  0.08663865       0.011
   0.02939786 -0.03103324 -0.08663865       0.011
  -0.00000001  0.06206649  0.08663865       0.011
   0.00000001  0.06206649 -0.08663865       0.011
   0.02939785  0.06206649  0.08663865       0.011
  -0.02939785  0.06206649 -0.08663865       0.011
  -0.02939786 -0.06206649  0.08663865       0.011
   0.02939786 -0.06206649 -0.08663865       0.011
  -0.00000001  0.09309973  0.08663865       0.011
   0.00000001  0.09309973 -0.08663865       0.011
   0.02939785  0.09309973  0.08663865       0.011
  -0.02939785  0.09309973 -0.08663865       0.011
  -0.02939786 -0.09309973  0.08663865       0.011
   0.02939786 -0.09309973 -0.08663865       0.011
  -0.00000001  0.12413297  0.08663865       0.011
   0.00000001  0.12413297 -0.08663865       0.011
   0.02939785  0.12413297  0.08663865       0.011
  -0.02939785  0.12413298 -0.08663865       0.011
  -0.02939786 -0.12413297  0.08663865       0.011
   0.02939786 -0.12413297 -0.08663865       0.011
 
 k-points in reciprocal lattice and weights: K-points file                           
   0.00000000  0.00000000  0.00000000       0.005
   0.33333333  0.00000000 -0.00000000       0.011
  -0.00000000  0.11111111  0.00000000       0.011
   0.33333333  0.11111111 -0.00000000       0.011
  -0.33333333  0.11111111  0.00000000       0.011
  -0.00000000  0.22222222  0.00000000       0.011
   0.33333333  0.22222222 -0.00000000       0.011
  -0.33333333  0.22222222  0.00000000       0.011
  -0.00000000  0.33333333  0.00000000       0.011
   0.33333333  0.33333333 -0.00000000       0.011
  -0.33333333  0.33333333  0.00000000       0.011
  -0.00000000  0.44444444  0.00000000       0.011
   0.33333333  0.44444444 -0.00000000       0.011
  -0.33333333  0.44444444  0.00000000       0.011
  -0.00000000  0.00000000  0.14285714       0.011
   0.33333333  0.00000000  0.14285714       0.011
  -0.33333333 -0.00000000  0.14285714       0.011
  -0.00000000  0.11111111  0.14285714       0.011
   0.00000000  0.11111111 -0.14285714       0.011
   0.33333333  0.11111111  0.14285714       0.011
  -0.33333333  0.11111111 -0.14285714       0.011
  -0.33333333 -0.11111111  0.14285714       0.011
   0.33333333 -0.11111111 -0.14285714       0.011
  -0.00000000  0.22222222  0.14285714       0.011
   0.00000000  0.22222222 -0.14285714       0.011
   0.33333333  0.22222222  0.14285714       0.011
  -0.33333333  0.22222222 -0.14285714       0.011
  -0.33333333 -0.22222222  0.14285714       0.011
   0.33333333 -0.22222222 -0.14285714       0.011
  -0.00000000  0.33333333  0.14285714       0.011
   0.00000000  0.33333333 -0.14285714       0.011
   0.33333333  0.33333333  0.14285714       0.011
  -0.33333333  0.33333333 -0.14285714       0.011
  -0.33333333 -0.33333333  0.14285714       0.011
   0.33333333 -0.33333333 -0.14285714       0.011
  -0.00000000  0.44444444  0.14285714       0.011
   0.00000000  0.44444444 -0.14285714       0.011
   0.33333333  0.44444444  0.14285714       0.011
  -0.33333333  0.44444444 -0.14285714       0.011
  -0.33333333 -0.44444444  0.14285714       0.011
   0.33333333 -0.44444444 -0.14285714       0.011
  -0.00000000  0.00000000  0.28571429       0.011
   0.33333333  0.00000000  0.28571429       0.011
  -0.33333333  0.00000000  0.28571429       0.011
  -0.00000000  0.11111111  0.28571429       0.011
   0.00000000  0.11111111 -0.28571429       0.011
   0.33333333  0.11111111  0.28571429       0.011
  -0.33333333  0.11111111 -0.28571429       0.011
  -0.33333333 -0.11111111  0.28571429       0.011
   0.33333333 -0.11111111 -0.28571429       0.011
  -0.00000000  0.22222222  0.28571429       0.011
   0.00000000  0.22222222 -0.28571429       0.011
   0.33333333  0.22222222  0.28571429       0.011
  -0.33333333  0.22222222 -0.28571429       0.011
  -0.33333333 -0.22222222  0.28571429       0.011
   0.33333333 -0.22222222 -0.28571429       0.011
  -0.00000000  0.33333333  0.28571429       0.011
   0.00000000  0.33333333 -0.28571429       0.011
   0.33333333  0.33333333  0.28571429       0.011
  -0.33333333  0.33333333 -0.28571429       0.011
  -0.33333333 -0.33333333  0.28571429       0.011
   0.33333333 -0.33333333 -0.28571429       0.011
  -0.00000000  0.44444444  0.28571429       0.011
   0.00000000  0.44444444 -0.28571429       0.011
   0.33333333  0.44444444  0.28571429       0.011
  -0.33333333  0.44444444 -0.28571429       0.011
  -0.33333333 -0.44444444  0.28571429       0.011
   0.33333333 -0.44444444 -0.28571429       0.011
  -0.00000000  0.00000000  0.42857143       0.011
   0.33333333  0.00000000  0.42857143       0.011
  -0.33333333  0.00000000  0.42857143       0.011
  -0.00000000  0.11111111  0.42857143       0.011
   0.00000000  0.11111111 -0.42857143       0.011
   0.33333333  0.11111111  0.42857143       0.011
  -0.33333333  0.11111111 -0.42857143       0.011
  -0.33333333 -0.11111111  0.42857143       0.011
   0.33333333 -0.11111111 -0.42857143       0.011
  -0.00000000  0.22222222  0.42857143       0.011
   0.00000000  0.22222222 -0.42857143       0.011
   0.33333333  0.22222222  0.42857143       0.011
  -0.33333333  0.22222222 -0.42857143       0.011
  -0.33333333 -0.22222222  0.42857143       0.011
   0.33333333 -0.22222222 -0.42857143       0.011
  -0.00000000  0.33333333  0.42857143       0.011
   0.00000000  0.33333333 -0.42857143       0.011
   0.33333333  0.33333333  0.42857143       0.011
  -0.33333333  0.33333333 -0.42857143       0.011
  -0.33333333 -0.33333333  0.42857143       0.011
   0.33333333 -0.33333333 -0.42857143       0.011
  -0.00000000  0.44444444  0.42857143       0.011
   0.00000000  0.44444444 -0.42857143       0.011
   0.33333333  0.44444444  0.42857143       0.011
  -0.33333333  0.44444444 -0.42857143       0.011
  -0.33333333 -0.44444444  0.42857143       0.011
   0.33333333 -0.44444444 -0.42857143       0.011
 
 position of ions in fractional coordinates (direct lattice) 
   0.25001092  0.75000000  0.85021026
   0.75001090  0.25000001  0.14979014
   0.90363474  0.75000004  0.61166555
   0.59635857  0.74999996  0.61161363
   0.09635890  0.25000000  0.38838539
   0.40363433  0.24999999  0.38833211
   0.87619232  0.75000002  0.94296316
   0.62384039  0.74999996  0.94289491
   0.12384033  0.25000000  0.05710600
   0.37619241  0.25000001  0.05703783
   0.07464589  0.75000001  0.53408748
   0.42532082  0.74999999  0.53406414
   0.92532081  0.25000002  0.46593606
   0.57464588  0.24999997  0.46591303
   0.74999637  0.75000001  0.45133814
   0.24999642  0.25000000  0.54866215
 
 position of ions in cartesian coordinates  (Angst):
   2.83479819  2.68529240  4.20569622
   8.50414579  0.89509754  0.74096071
  10.24604004  2.68529257  3.02569870
   6.76192895  2.68529227  3.02544157
   1.09258449  0.89509749  1.92120826
   4.57668720  0.89509745  1.92094499
   9.93487886  2.68529251  4.66451334
   7.07353704  2.68529230  4.66417547
   1.40418790  0.89509747  0.28248376
   4.26553150  0.89509752  0.28214679
   0.84638734  2.68529243  2.64194607
   4.82258380  2.68529239  2.64183092
  10.49193166  0.89509759  2.30482537
   6.51573519  0.89509739  2.30471112
   8.50398115  2.68529247  2.23261432
   2.83463369  0.89509747  2.71404204
 


--------------------------------------------------------------------------------------------------------


 k-point   1 :   0.0000 0.0000 0.0000  plane waves:    5397
 k-point   2 :   0.3333 0.0000-0.0000  plane waves:    5436
 k-point   3 :  -0.0000 0.1111 0.0000  plane waves:    5409
 k-point   4 :   0.3333 0.1111-0.0000  plane waves:    5434
 k-point   5 :  -0.3333 0.1111 0.0000  plane waves:    5434
 k-point   6 :  -0.0000 0.2222 0.0000  plane waves:    5411
 k-point   7 :   0.3333 0.2222-0.0000  plane waves:    5416
 k-point   8 :  -0.3333 0.2222 0.0000  plane waves:    5416
 k-point   9 :  -0.0000 0.3333 0.0000  plane waves:    5389
 k-point  10 :   0.3333 0.3333-0.0000  plane waves:    5377
 k-point  11 :  -0.3333 0.3333 0.0000  plane waves:    5377
 k-point  12 :  -0.0000 0.4444 0.0000  plane waves:    5372
 k-point  13 :   0.3333 0.4444-0.0000  plane waves:    5398
 k-point  14 :  -0.3333 0.4444 0.0000  plane waves:    5398
 k-point  15 :  -0.0000 0.0000 0.1429  plane waves:    5411
 k-point  16 :   0.3333 0.0000 0.1429  plane waves:    5421
 k-point  17 :  -0.3333-0.0000 0.1429  plane waves:    5421
 k-point  18 :  -0.0000 0.1111 0.1429  plane waves:    5397
 k-point  19 :   0.0000 0.1111-0.1429  plane waves:    5397
 k-point  20 :   0.3333 0.1111 0.1429  plane waves:    5419
 k-point  21 :  -0.3333 0.1111-0.1429  plane waves:    5419
 k-point  22 :  -0.3333-0.1111 0.1429  plane waves:    5419
 k-point  23 :   0.3333-0.1111-0.1429  plane waves:    5419
 k-point  24 :  -0.0000 0.2222 0.1429  plane waves:    5402
 k-point  25 :   0.0000 0.2222-0.1429  plane waves:    5402
 k-point  26 :   0.3333 0.2222 0.1429  plane waves:    5403
 k-point  27 :  -0.3333 0.2222-0.1429  plane waves:    5403
 k-point  28 :  -0.3333-0.2222 0.1429  plane waves:    5403
 k-point  29 :   0.3333-0.2222-0.1429  plane waves:    5403
 k-point  30 :  -0.0000 0.3333 0.1429  plane waves:    5395
 k-point  31 :   0.0000 0.3333-0.1429  plane waves:    5395
 k-point  32 :   0.3333 0.3333 0.1429  plane waves:    5390
 k-point  33 :  -0.3333 0.3333-0.1429  plane waves:    5390
 k-point  34 :  -0.3333-0.3333 0.1429  plane waves:    5390
 k-point  35 :   0.3333-0.3333-0.1429  plane waves:    5390
 k-point  36 :  -0.0000 0.4444 0.1429  plane waves:    5390
 k-point  37 :   0.0000 0.4444-0.1429  plane waves:    5390
 k-point  38 :   0.3333 0.4444 0.1429  plane waves:    5395
 k-point  39 :  -0.3333 0.4444-0.1429  plane waves:    5395
 k-point  40 :  -0.3333-0.4444 0.1429  plane waves:    5395
 k-point  41 :   0.3333-0.4444-0.1429  plane waves:    5395
 k-point  42 :  -0.0000 0.0000 0.2857  plane waves:    5416
 k-point  43 :   0.3333 0.0000 0.2857  plane waves:    5426
 k-point  44 :  -0.3333 0.0000 0.2857  plane waves:    5426
 k-point  45 :  -0.0000 0.1111 0.2857  plane waves:    5414
 k-point  46 :   0.0000 0.1111-0.2857  plane waves:    5414
 k-point  47 :   0.3333 0.1111 0.2857  plane waves:    5403
 k-point  48 :  -0.3333 0.1111-0.2857  plane waves:    5403
 k-point  49 :  -0.3333-0.1111 0.2857  plane waves:    5403
 k-point  50 :   0.3333-0.1111-0.2857  plane waves:    5403
 k-point  51 :  -0.0000 0.2222 0.2857  plane waves:    5404
 k-point  52 :   0.0000 0.2222-0.2857  plane waves:    5404
 k-point  53 :   0.3333 0.2222 0.2857  plane waves:    5406
 k-point  54 :  -0.3333 0.2222-0.2857  plane waves:    5406
 k-point  55 :  -0.3333-0.2222 0.2857  plane waves:    5406
 k-point  56 :   0.3333-0.2222-0.2857  plane waves:    5406
 k-point  57 :  -0.0000 0.3333 0.2857  plane waves:    5403
 k-point  58 :   0.0000 0.3333-0.2857  plane waves:    5403
 k-point  59 :   0.3333 0.3333 0.2857  plane waves:    5405
 k-point  60 :  -0.3333 0.3333-0.2857  plane waves:    5405
 k-point  61 :  -0.3333-0.3333 0.2857  plane waves:    5405
 k-point  62 :   0.3333-0.3333-0.2857  plane waves:    5405
 k-point  63 :  -0.0000 0.4444 0.2857  plane waves:    5408
 k-point  64 :   0.0000 0.4444-0.2857  plane waves:    5408
 k-point  65 :   0.3333 0.4444 0.2857  plane waves:    5398
 k-point  66 :  -0.3333 0.4444-0.2857  plane waves:    5398
 k-point  67 :  -0.3333-0.4444 0.2857  plane waves:    5398
 k-point  68 :   0.3333-0.4444-0.2857  plane waves:    5398
 k-point  69 :  -0.0000 0.0000 0.4286  plane waves:    5418
 k-point  70 :   0.3333 0.0000 0.4286  plane waves:    5423
 k-point  71 :  -0.3333 0.0000 0.4286  plane waves:    5423
 k-point  72 :  -0.0000 0.1111 0.4286  plane waves:    5413
 k-point  73 :   0.0000 0.1111-0.4286  plane waves:    5413
 k-point  74 :   0.3333 0.1111 0.4286  plane waves:    5419
 k-point  75 :  -0.3333 0.1111-0.4286  plane waves:    5419
 k-point  76 :  -0.3333-0.1111 0.4286  plane waves:    5419
 k-point  77 :   0.3333-0.1111-0.4286  plane waves:    5419
 k-point  78 :  -0.0000 0.2222 0.4286  plane waves:    5419
 k-point  79 :   0.0000 0.2222-0.4286  plane waves:    5419
 k-point  80 :   0.3333 0.2222 0.4286  plane waves:    5391
 k-point  81 :  -0.3333 0.2222-0.4286  plane waves:    5391
 k-point  82 :  -0.3333-0.2222 0.4286  plane waves:    5391
 k-point  83 :   0.3333-0.2222-0.4286  plane waves:    5391
 k-point  84 :  -0.0000 0.3333 0.4286  plane waves:    5402
 k-point  85 :   0.0000 0.3333-0.4286  plane waves:    5402
 k-point  86 :   0.3333 0.3333 0.4286  plane waves:    5404
 k-point  87 :  -0.3333 0.3333-0.4286  plane waves:    5404
 k-point  88 :  -0.3333-0.3333 0.4286  plane waves:    5404
 k-point  89 :   0.3333-0.3333-0.4286  plane waves:    5404
 k-point  90 :  -0.0000 0.4444 0.4286  plane waves:    5408
 k-point  91 :   0.0000 0.4444-0.4286  plane waves:    5408
 k-point  92 :   0.3333 0.4444 0.4286  plane waves:    5411
 k-point  93 :  -0.3333 0.4444-0.4286  plane waves:    5411
 k-point  94 :  -0.3333-0.4444 0.4286  plane waves:    5411
 k-point  95 :   0.3333-0.4444-0.4286  plane waves:    5411

 maximum and minimum number of plane-waves per node :      1417     1303

 maximum number of plane-waves:      5436
 maximum index in each direction: 
   IXMAX=   21   IYMAX=    7   IZMAX=    9
   IXMIN=  -21   IYMIN=   -7   IZMIN=   -9


 real space projection operators:
  total allocation   :       7732.72 KBytes
  max/ min on nodes  :       1933.48       1932.88


 parallel 3D FFT for wavefunctions:
    minimum data exchange during FFTs selected (reduces bandwidth)
 parallel 3D FFT for charge:
    minimum data exchange during FFTs selected (reduces bandwidth)


 total amount of memory used by VASP MPI-rank0    99574. kBytes
=======================================================================

   base      :      30000. kBytes
   nonlr-proj:       4486. kBytes
   fftplans  :       1785. kBytes
   grid      :       6745. kBytes
   one-center:        124. kBytes
   wavefun   :      56434. kBytes
 
     INWAV:  cpu time    0.0000: real time    0.0000
 Broyden mixing: mesh for mixing (old mesh)
   NGX = 43   NGY = 13   NGZ = 19
  (NGX  =168   NGY  = 56   NGZ  = 80)
  gives a total of  10621 points

 initial charge density was supplied:
 charge density of overlapping atoms calculated
 number of electron     124.0000000 magnetization       4.7200000
 keeping initial charge density in first step


--------------------------------------------------------------------------------------------------------


 Maximum index for non-local projection operator         1868
 Maximum index for augmentation-charges          857 (set IRDMAX)


--------------------------------------------------------------------------------------------------------


 First call to EWALD:  gamma=   0.303
 Maximum number of real-space cells 2x 4x 3
 Maximum number of reciprocal cells 5x 2x 2

    FEWALD:  cpu time    0.0017: real time    0.0017


--------------------------------------- Iteration      1(   1)  ---------------------------------------


    POTLOK:  cpu time    0.0757: real time    0.0805
    SETDIJ:  cpu time    1.2206: real time    1.2207
atom =   3  type =  2  l = 2
 
 onsite density matrix
 
spin component  1
 
  0.3541  0.0000  0.0000  0.0000  0.0000
  0.0000  0.3541  0.0000  0.0000  0.0000
  0.0000  0.0000  0.3541  0.0000 -0.0000
  0.0000  0.0000  0.0000  0.3541  0.0000
  0.0000  0.0000 -0.0000  0.0000  0.3541
 
spin component  2
 
  0.2951  0.0000  0.0000  0.0000  0.0000
  0.0000  0.2951  0.0000  0.0000  0.0000
  0.0000  0.0000  0.2951  0.0000 -0.0000
  0.0000  0.0000  0.0000  0.2951  0.0000
  0.0000  0.0000 -0.0000  0.0000  0.2951
 
 occupancies and eigenvectors
 
  o =  0.2951  v =  0.0000  0.0000  0.0000  0.0000  0.0000  1.0000  0.0000  0.0000  0.0000  0.0000      0.0000  0.0000  0.0000  0.0000  0.0000  0.0000  0.0000  0.0000  0.0000  0.0000
  o =  0.2951  v =  0.0000  0.0000  0.0000  0.0000  0.0000  0.0000  1.0000  0.0000  0.0000  0.0000      0.0000  0.0000  0.0000  0.0000  0.0000  0.0000  0.0000  0.0000  0.0000  0.0000
  o =  0.2951  v =  0.0000  0.0000  0.0000  0.0000  0.0000  0.0000  0.0000  1.0000  0.0000  0.0000      0.0000  0.0000  0.0000  0.0000  0.0000  0.0000  0.0000  0.0000  0.0000  0.0000
  o =  0.2951  v =  0.0000  0.0000  0.0000  0.0000  0.0000  0.0000  0.0000  0.0000  0.0000  1.0000      0.0000  0.0000  0.0000  0.0000  0.0000  0.0000  0.0000  0.0000  0.0000  0.0000
  o =  0.2951  v =  0.0000  0.0000  0.0000  0.0000  0.0000  0.0000  0.0000  0.0000  1.0000  0.0000      0.0000  0.0000  0.0000  0.0000  0.0000  0.0000  0.0000  0.0000  0.0000  0.0000
  o =  0.3541  v =  1.0000  0.0000  0.0000  0.0000  0.0000  0.0000  0.0000  0.0000  0.0000  0.0000      0.0000  0.0000  0.0000  0.0000  0.0000  0.0000  0.0000  0.0000  0.0000  0.0000
  o =  0.3541  v =  0.0000  1.0000  0.0000  0.0000  0.0000  0.0000  0.0000  0.0000  0.0000  0.0000      0.0000  0.0000  0.0000  0.0000  0.0000  0.0000  0.0000  0.0000  0.0000  0.0000
  o =  0.3541  v =  0.0000  0.0000  1.0000  0.0000  0.0000  0.0000  0.0000  0.0000  0.0000  0.0000      0.0000  0.0000  0.0000  0.0000  0.0000  0.0000  0.0000  0.0000  0.0000  0.0000
  o =  0.3541  v =  0.0000  0.0000  0.0000  0.0000  1.0000  0.0000  0.0000  0.0000  0.0000  0.0000      0.0000  0.0000  0.0000  0.0000  0.0000  0.0000  0.0000  0.0000  0.0000  0.0000
  o =  0.3541  v =  0.0000  0.0000  0.0000  1.0000  0.0000  0.0000  0.0000  0.0000  0.0000  0.0000      0.0000  0.0000  0.0000  0.0000  0.0000  0.0000  0.0000  0.0000  0.0000  0.0000
atom =   4  type =  2  l = 2
 
 onsite density matrix
 
spin component  1
 
  0.3541  0.0000  0.0000  0.0000  0.0000
  0.0000  0.3541  0.0000  0.0000  0.0000
  0.0000  0.0000  0.3541  0.0000 -0.0000
  0.0000  0.0000  0.0000  0.3541  0.0000
  0.0000  0.0000 -0.0000  0.0000  0.3541
 
spin component  2
 
  0.2951  0.0000  0.0000  0.0000  0.0000
  0.0000  0.2951  0.0000  0.0000  0.0000
  0.0000  0.0000  0.2951  0.0000 -0.0000
  0.0000  0.0000  0.0000  0.2951  0.0000
  0.0000  0.0000 -0.0000  0.0000  0.2951
 
 occupancies and eigenvectors
 
  o =  0.2951  v =  0.0000  0.0000  0.0000  0.0000  0.0000  1.0000  0.0000  0.0000  0.0000  0.0000      0.0000  0.0000  0.0000  0.0000  0.0000  0.0000  0.0000  0.0000  0.0000  0.0000
  o =  0.2951  v =  0.0000  0.0000  0.0000  0.0000  0.0000  0.0000  1.0000  0.0000  0.0000  0.0000      0.0000  0.0000  0.0000  0.0000  0.0000  0.0000  0.0000  0.0000  0.0000  0.0000
  o =  0.2951  v =  0.0000  0.0000  0.0000  0.0000  0.0000  0.0000  0.0000  1.0000  0.0000  0.0000      0.0000  0.0000  0.0000  0.0000  0.0000  0.0000  0.0000  0.0000  0.0000  0.0000
  o =  0.2951  v =  0.0000  0.0000  0.0000  0.0000  0.0000  0.0000  0.0000  0.0000  0.0000  1.0000      0.0000  0.0000  0.0000  0.0000  0.0000  0.0000  0.0000  0.0000  0.0000  0.0000
  o =  0.2951  v =  0.0000  0.0000  0.0000  0.0000  0.0000  0.0000  0.0000  0.0000  1.0000  0.0000      0.0000  0.0000  0.0000  0.0000  0.0000  0.0000  0.0000  0.0000  0.0000  0.0000
  o =  0.3541  v =  1.0000  0.0000  0.0000  0.0000  0.0000  0.0000  0.0000  0.0000  0.0000  0.0000      0.0000  0.0000  0.0000  0.0000  0.0000  0.0000  0.0000  0.0000  0.0000  0.0000
  o =  0.3541  v =  0.0000  1.0000  0.0000  0.0000  0.0000  0.0000  0.0000  0.0000  0.0000  0.0000      0.0000  0.0000  0.0000  0.0000  0.0000  0.0000  0.0000  0.0000  0.0000  0.0000
  o =  0.3541  v =  0.0000  0.0000  1.0000  0.0000  0.0000  0.0000  0.0000  0.0000  0.0000  0.0000      0.0000  0.0000  0.0000  0.0000  0.0000  0.0000  0.0000  0.0000  0.0000  0.0000
  o =  0.3541  v =  0.0000  0.0000  0.0000  0.0000  1.0000  0.0000  0.0000  0.0000  0.0000  0.0000      0.0000  0.0000  0.0000  0.0000  0.0000  0.0000  0.0000  0.0000  0.0000  0.0000
  o =  0.3541  v =  0.0000  0.0000  0.0000  1.0000  0.0000  0.0000  0.0000  0.0000  0.0000  0.0000      0.0000  0.0000  0.0000  0.0000  0.0000  0.0000  0.0000  0.0000  0.0000  0.0000
atom =   5  type =  2  l = 2
 
 onsite density matrix
 
spin component  1
 
  0.3541  0.0000  0.0000  0.0000  0.0000
  0.0000  0.3541  0.0000  0.0000  0.0000
  0.0000  0.0000  0.3541  0.0000 -0.0000
  0.0000  0.0000  0.0000  0.3541  0.0000
  0.0000  0.0000 -0.0000  0.0000  0.3541
 
spin component  2
 
  0.2951  0.0000  0.0000  0.0000  0.0000
  0.0000  0.2951  0.0000  0.0000  0.0000
  0.0000  0.0000  0.2951  0.0000 -0.0000
  0.0000  0.0000  0.0000  0.2951  0.0000
  0.0000  0.0000 -0.0000  0.0000  0.2951
 
 occupancies and eigenvectors
 
  o =  0.2951  v =  0.0000  0.0000  0.0000  0.0000  0.0000  1.0000  0.0000  0.0000  0.0000  0.0000      0.0000  0.0000  0.0000  0.0000  0.0000  0.0000  0.0000  0.0000  0.0000  0.0000
  o =  0.2951  v =  0.0000  0.0000  0.0000  0.0000  0.0000  0.0000  1.0000  0.0000  0.0000  0.0000      0.0000  0.0000  0.0000  0.0000  0.0000  0.0000  0.0000  0.0000  0.0000  0.0000
  o =  0.2951  v =  0.0000  0.0000  0.0000  0.0000  0.0000  0.0000  0.0000  1.0000  0.0000  0.0000      0.0000  0.0000  0.0000  0.0000  0.0000  0.0000  0.0000  0.0000  0.0000  0.0000
  o =  0.2951  v =  0.0000  0.0000  0.0000  0.0000  0.0000  0.0000  0.0000  0.0000  0.0000  1.0000      0.0000  0.0000  0.0000  0.0000  0.0000  0.0000  0.0000  0.0000  0.0000  0.0000
  o =  0.2951  v =  0.0000  0.0000  0.0000  0.0000  0.0000  0.0000  0.0000  0.0000  1.0000  0.0000      0.0000  0.0000  0.0000  0.0000  0.0000  0.0000  0.0000  0.0000  0.0000  0.0000
  o =  0.3541  v =  1.0000  0.0000  0.0000  0.0000  0.0000  0.0000  0.0000  0.0000  0.0000  0.0000      0.0000  0.0000  0.0000  0.0000  0.0000  0.0000  0.0000  0.0000  0.0000  0.0000
  o =  0.3541  v =  0.0000  1.0000  0.0000  0.0000  0.0000  0.0000  0.0000  0.0000  0.0000  0.0000      0.0000  0.0000  0.0000  0.0000  0.0000  0.0000  0.0000  0.0000  0.0000  0.0000
  o =  0.3541  v =  0.0000  0.0000  1.0000  0.0000  0.0000  0.0000  0.0000  0.0000  0.0000  0.0000      0.0000  0.0000  0.0000  0.0000  0.0000  0.0000  0.0000  0.0000  0.0000  0.0000
  o =  0.3541  v =  0.0000  0.0000  0.0000  0.0000  1.0000  0.0000  0.0000  0.0000  0.0000  0.0000      0.0000  0.0000  0.0000  0.0000  0.0000  0.0000  0.0000  0.0000  0.0000  0.0000
  o =  0.3541  v =  0.0000  0.0000  0.0000  1.0000  0.0000  0.0000  0.0000  0.0000  0.0000  0.0000      0.0000  0.0000  0.0000  0.0000  0.0000  0.0000  0.0000  0.0000  0.0000  0.0000
atom =   6  type =  2  l = 2
 
 onsite density matrix
 
spin component  1
 
  0.3541  0.0000  0.0000  0.0000  0.0000
  0.0000  0.3541  0.0000  0.0000  0.0000
  0.0000  0.0000  0.3541  0.0000 -0.0000
  0.0000  0.0000  0.0000  0.3541  0.0000
  0.0000  0.0000 -0.0000  0.0000  0.3541
 
spin component  2
 
  0.2951  0.0000  0.0000  0.0000  0.0000
  0.0000  0.2951  0.0000  0.0000  0.0000
  0.0000  0.0000  0.2951  0.0000 -0.0000
  0.0000  0.0000  0.0000  0.2951  0.0000
  0.0000  0.0000 -0.0000  0.0000  0.2951
 
 occupancies and eigenvectors
 
  o =  0.2951  v =  0.0000  0.0000  0.0000  0.0000  0.0000  1.0000  0.0000  0.0000  0.0000  0.0000      0.0000  0.0000  0.0000  0.0000  0.0000  0.0000  0.0000  0.0000  0.0000  0.0000
  o =  0.2951  v =  0.0000  0.0000  0.0000  0.0000  0.0000  0.0000  1.0000  0.0000  0.0000  0.0000      0.0000  0.0000  0.0000  0.0000  0.0000  0.0000  0.0000  0.0000  0.0000  0.0000
  o =  0.2951  v =  0.0000  0.0000  0.0000  0.0000  0.0000  0.0000  0.0000  1.0000  0.0000  0.0000      0.0000  0.0000  0.0000  0.0000  0.0000  0.0000  0.0000  0.0000  0.0000  0.0000
  o =  0.2951  v =  0.0000  0.0000  0.0000  0.0000  0.0000  0.0000  0.0000  0.0000  0.0000  1.0000      0.0000  0.0000  0.0000  0.0000  0.0000  0.0000  0.0000  0.0000  0.0000  0.0000
  o =  0.2951  v =  0.0000  0.0000  0.0000  0.0000  0.0000  0.0000  0.0000  0.0000  1.0000  0.0000      0.0000  0.0000  0.0000  0.0000  0.0000  0.0000  0.0000  0.0000  0.0000  0.0000
  o =  0.3541  v =  1.0000  0.0000  0.0000  0.0000  0.0000  0.0000  0.0000  0.0000  0.0000  0.0000      0.0000  0.0000  0.0000  0.0000  0.0000  0.0000  0.0000  0.0000  0.0000  0.0000
  o =  0.3541  v =  0.0000  1.0000  0.0000  0.0000  0.0000  0.0000  0.0000  0.0000  0.0000  0.0000      0.0000  0.0000  0.0000  0.0000  0.0000  0.0000  0.0000  0.0000  0.0000  0.0000
  o =  0.3541  v =  0.0000  0.0000  1.0000  0.0000  0.0000  0.0000  0.0000  0.0000  0.0000  0.0000      0.0000  0.0000  0.0000  0.0000  0.0000  0.0000  0.0000  0.0000  0.0000  0.0000
  o =  0.3541  v =  0.0000  0.0000  0.0000  0.0000  1.0000  0.0000  0.0000  0.0000  0.0000  0.0000      0.0000  0.0000  0.0000  0.0000  0.0000  0.0000  0.0000  0.0000  0.0000  0.0000
  o =  0.3541  v =  0.0000  0.0000  0.0000  1.0000  0.0000  0.0000  0.0000  0.0000  0.0000  0.0000      0.0000  0.0000  0.0000  0.0000  0.0000  0.0000  0.0000  0.0000  0.0000  0.0000
     EDDAV:  cpu time   32.8953: real time   32.9023
       DOS:  cpu time    0.0068: real time    0.0068
    --------------------------------------------
      LOOP:  cpu time   34.1985: real time   34.2103

 eigenvalue-minimisations  : 29760
 total energy-change (2. order) : 0.1669377E+04  (-0.6625472E+04)
 number of electron     124.0000000 magnetization       4.7200000
 augmentation part      124.0000000 magnetization       4.7200000

 Free energy of the ion-electron system (eV)
  ---------------------------------------------------
  alpha Z        PSCENC =       609.00906417
  Ewald energy   TEWEN  =     -7933.45103031
  -Hartree energ DENC   =     -3409.30569055
  -exchange      EXHF   =         0.00000000
  -V(xc)+E(xc)   XCENC  =       561.96338307
  PAW double counting   =      9207.94373453    -9165.61637596
  entropy T*S    EENTRO =        -0.00666430
  eigenvalues    EBANDS =       176.62233574
  atomic energy  EATOM  =     11622.21810193
  Solvation  Ediel_sol  =         0.00000000
  ---------------------------------------------------
  free energy    TOTEN  =      1669.37685831 eV

  energy without entropy =     1669.38352261  energy(sigma->0) =     1669.38019046


--------------------------------------------------------------------------------------------------------




--------------------------------------- Iteration      1(   2)  ---------------------------------------


     EDDAV:  cpu time   32.9221: real time   32.9241
       DOS:  cpu time    0.0060: real time    0.0060
    --------------------------------------------
      LOOP:  cpu time   32.9281: real time   32.9301

 eigenvalue-minimisations  : 29760
 total energy-change (2. order) :-0.1649657E+04  (-0.1599133E+04)
 number of electron     124.0000000 magnetization       4.7200000
 augmentation part      124.0000000 magnetization       4.7200000

 Free energy of the ion-electron system (eV)
  ---------------------------------------------------
  alpha Z        PSCENC =       609.00906417
  Ewald energy   TEWEN  =     -7933.45103031
  -Hartree energ DENC   =     -3409.30569055
  -exchange      EXHF   =         0.00000000
  -V(xc)+E(xc)   XCENC  =       561.96338307
  PAW double counting   =      9207.94373453    -9165.61637596
  entropy T*S    EENTRO =        -0.00939529
  eigenvalues    EBANDS =     -1473.03202717
  atomic energy  EATOM  =     11622.21810193
  Solvation  Ediel_sol  =         0.00000000
  ---------------------------------------------------
  free energy    TOTEN  =        19.71976442 eV

  energy without entropy =       19.72915970  energy(sigma->0) =       19.72446206


--------------------------------------------------------------------------------------------------------




--------------------------------------- Iteration      1(   3)  ---------------------------------------


     EDDAV:  cpu time   40.6347: real time   40.6368
       DOS:  cpu time    0.0065: real time    0.0065
    --------------------------------------------
      LOOP:  cpu time   40.6411: real time   40.6433

 eigenvalue-minimisations  : 40638
 total energy-change (2. order) :-0.2731216E+03  (-0.2678655E+03)
 number of electron     124.0000000 magnetization       4.7200000
 augmentation part      124.0000000 magnetization       4.7200000

 Free energy of the ion-electron system (eV)
  ---------------------------------------------------
  alpha Z        PSCENC =       609.00906417
  Ewald energy   TEWEN  =     -7933.45103031
  -Hartree energ DENC   =     -3409.30569055
  -exchange      EXHF   =         0.00000000
  -V(xc)+E(xc)   XCENC  =       561.96338307
  PAW double counting   =      9207.94373453    -9165.61637596
  entropy T*S    EENTRO =        -0.00989539
  eigenvalues    EBANDS =     -1746.15314533
  atomic energy  EATOM  =     11622.21810193
  Solvation  Ediel_sol  =         0.00000000
  ---------------------------------------------------
  free energy    TOTEN  =      -253.40185384 eV

  energy without entropy =     -253.39195845  energy(sigma->0) =     -253.39690615


--------------------------------------------------------------------------------------------------------




--------------------------------------- Iteration      1(   4)  ---------------------------------------


     EDDAV:  cpu time   40.3728: real time   40.3748
       DOS:  cpu time    0.0064: real time    0.0064
    --------------------------------------------
      LOOP:  cpu time   40.3792: real time   40.3812

 eigenvalue-minimisations  : 40200
 total energy-change (2. order) :-0.1388133E+02  (-0.1346000E+02)
 number of electron     124.0000000 magnetization       4.7200000
 augmentation part      124.0000000 magnetization       4.7200000

 Free energy of the ion-electron system (eV)
  ---------------------------------------------------
  alpha Z        PSCENC =       609.00906417
  Ewald energy   TEWEN  =     -7933.45103031
  -Hartree energ DENC   =     -3409.30569055
  -exchange      EXHF   =         0.00000000
  -V(xc)+E(xc)   XCENC  =       561.96338307
  PAW double counting   =      9207.94373453    -9165.61637596
  entropy T*S    EENTRO =        -0.00975108
  eigenvalues    EBANDS =     -1760.03461817
  atomic energy  EATOM  =     11622.21810193
  Solvation  Ediel_sol  =         0.00000000
  ---------------------------------------------------
  free energy    TOTEN  =      -267.28318237 eV

  energy without entropy =     -267.27343129  energy(sigma->0) =     -267.27830683


--------------------------------------------------------------------------------------------------------




--------------------------------------- Iteration      1(   5)  ---------------------------------------


     EDDAV:  cpu time   52.7001: real time   52.7025
       DOS:  cpu time    0.0064: real time    0.0064
    CHARGE:  cpu time    4.2745: real time    4.2746
    MIXING:  cpu time    0.0009: real time    0.0009
    --------------------------------------------
      LOOP:  cpu time   56.9818: real time   56.9843

 eigenvalue-minimisations  : 57744
 total energy-change (2. order) :-0.1067564E+01  (-0.1054849E+01)
 number of electron     124.0000043 magnetization       3.7359004
 augmentation part       27.2547966 magnetization       2.4635780

 Broyden mixing:
  rms(total) = 0.77862E+01    rms(broyden)= 0.77860E+01
  rms(prec ) = 0.85740E+01
  weight for this iteration     100.00

 Free energy of the ion-electron system (eV)
  ---------------------------------------------------
  alpha Z        PSCENC =       609.00906417
  Ewald energy   TEWEN  =     -7933.45103031
  -Hartree energ DENC   =     -3409.30569055
  -exchange      EXHF   =         0.00000000
  -V(xc)+E(xc)   XCENC  =       561.96338307
  PAW double counting   =      9207.94373453    -9165.61637596
  entropy T*S    EENTRO =        -0.00915904
  eigenvalues    EBANDS =     -1761.10277400
  atomic energy  EATOM  =     11622.21810193
  Solvation  Ediel_sol  =         0.00000000
  ---------------------------------------------------
  free energy    TOTEN  =      -268.35074616 eV

  energy without entropy =     -268.34158712  energy(sigma->0) =     -268.34616664


--------------------------------------------------------------------------------------------------------




--------------------------------------- Iteration      1(   6)  ---------------------------------------


    POTLOK:  cpu time    0.0691: real time    0.0691
    SETDIJ:  cpu time    1.2576: real time    1.2576
atom =   3  type =  2  l = 2
 
 onsite density matrix
 
spin component  1
 
  0.4295  0.0163  0.0002  0.0001 -0.0001
  0.0163  0.2548 -0.0001 -0.0000  0.0000
  0.0002 -0.0001  0.3017 -0.0039  0.0012
  0.0001 -0.0000 -0.0039  0.2367  0.0044
 -0.0001  0.0000  0.0012  0.0044  0.2382
 
spin component  2
 
  0.0890 -0.0220 -0.0001 -0.0001  0.0000
 -0.0220  0.2224  0.0001  0.0000 -0.0000
 -0.0001  0.0001  0.2605 -0.0183 -0.0005
 -0.0001  0.0000 -0.0183  0.2399  0.0028
  0.0000 -0.0000 -0.0005  0.0028  0.2565
 
 occupancies and eigenvectors
 
  o =  0.0855  v =  0.0000  0.0000  0.0000  0.0000  0.0000  0.9873  0.1589  0.0007  0.0007 -0.0001      0.0000  0.0000  0.0000  0.0000  0.0000  0.0000  0.0000  0.0000  0.0000  0.0000
  o =  0.2259  v =  0.0000  0.0000  0.0000  0.0000  0.0000  0.1588 -0.9871  0.0121  0.0177 -0.0017      0.0000  0.0000  0.0000  0.0000  0.0000  0.0000  0.0000  0.0000  0.0000  0.0000
  o =  0.2290  v =  0.0000  0.0000  0.0000  0.0000  0.0000 -0.0043  0.0210  0.5001  0.8621 -0.0787      0.0000  0.0000  0.0000  0.0000  0.0000  0.0000  0.0000  0.0000  0.0000  0.0000
  o =  0.2328  v =  0.0010 -0.0027 -0.0554 -0.7692  0.6366  0.0000  0.0000  0.0000  0.0000  0.0000      0.0000  0.0000  0.0000  0.0000  0.0000  0.0000  0.0000  0.0000  0.0000  0.0000
  o =  0.2418  v = -0.0003  0.0004  0.0258  0.6363  0.7710  0.0000  0.0000  0.0000  0.0000  0.0000      0.0000  0.0000  0.0000  0.0000  0.0000  0.0000  0.0000  0.0000  0.0000  0.0000
  o =  0.2533  v = -0.0923  0.9957  0.0026 -0.0025  0.0015  0.0000  0.0000  0.0000  0.0000  0.0000      0.0000  0.0000  0.0000  0.0000  0.0000  0.0000  0.0000  0.0000  0.0000  0.0000
  o =  0.2565  v =  0.0000  0.0000  0.0000  0.0000  0.0000  0.0000 -0.0002 -0.1457 -0.0058 -0.9893      0.0000  0.0000  0.0000  0.0000  0.0000  0.0000  0.0000  0.0000  0.0000  0.0000
  o =  0.2715  v =  0.0000  0.0000  0.0000  0.0000  0.0000 -0.0005  0.0015  0.8535 -0.5064 -0.1227      0.0000  0.0000  0.0000  0.0000  0.0000  0.0000  0.0000  0.0000  0.0000  0.0000
  o =  0.3019  v = -0.0012 -0.0028  0.9981 -0.0591  0.0154  0.0000  0.0000  0.0000  0.0000  0.0000      0.0000  0.0000  0.0000  0.0000  0.0000  0.0000  0.0000  0.0000  0.0000  0.0000
  o =  0.4310  v = -0.9957 -0.0923 -0.0015 -0.0007  0.0003  0.0000  0.0000  0.0000  0.0000  0.0000      0.0000  0.0000  0.0000  0.0000  0.0000  0.0000  0.0000  0.0000  0.0000  0.0000
atom =   4  type =  2  l = 2
 
 onsite density matrix
 
spin component  1
 
  0.4289 -0.0165  0.0000 -0.0000 -0.0000
 -0.0165  0.2547  0.0003 -0.0001  0.0000
  0.0000  0.0003  0.3018  0.0041  0.0013
 -0.0000 -0.0001  0.0041  0.2366 -0.0043
 -0.0000  0.0000  0.0013 -0.0043  0.2382
 
spin component  2
 
  0.0894  0.0222 -0.0000  0.0000  0.0001
  0.0222  0.2225 -0.0002  0.0001 -0.0000
 -0.0000 -0.0002  0.2603  0.0183 -0.0005
  0.0000  0.0001  0.0183  0.2400 -0.0028
  0.0001 -0.0000 -0.0005 -0.0028  0.2566
 
 occupancies and eigenvectors
 
  o =  0.0858  v =  0.0000  0.0000  0.0000  0.0000  0.0000  0.9871 -0.1602  0.0000 -0.0001 -0.0004      0.0000  0.0000  0.0000  0.0000  0.0000  0.0000  0.0000  0.0000  0.0000  0.0000
  o =  0.2261  v =  0.0000  0.0000  0.0000  0.0000  0.0000 -0.1600 -0.9855 -0.0316  0.0475  0.0030      0.0000  0.0000  0.0000  0.0000  0.0000  0.0000  0.0000  0.0000  0.0000  0.0000
  o =  0.2291  v =  0.0000  0.0000  0.0000  0.0000  0.0000  0.0092  0.0562 -0.5015  0.8597  0.0787      0.0000  0.0000  0.0000  0.0000  0.0000  0.0000  0.0000  0.0000  0.0000  0.0000
  o =  0.2327  v =  0.0005  0.0027 -0.0581  0.7749  0.6294  0.0000  0.0000  0.0000  0.0000  0.0000      0.0000  0.0000  0.0000  0.0000  0.0000  0.0000  0.0000  0.0000  0.0000  0.0000
  o =  0.2417  v =  0.0006  0.0078 -0.0262  0.6290 -0.7769  0.0000  0.0000  0.0000  0.0000  0.0000      0.0000  0.0000  0.0000  0.0000  0.0000  0.0000  0.0000  0.0000  0.0000  0.0000
  o =  0.2531  v =  0.0937  0.9956 -0.0051 -0.0074  0.0043  0.0000  0.0000  0.0000  0.0000  0.0000      0.0000  0.0000  0.0000  0.0000  0.0000  0.0000  0.0000  0.0000  0.0000  0.0000
  o =  0.2565  v =  0.0000  0.0000  0.0000  0.0000  0.0000 -0.0000  0.0020 -0.1504  0.0026 -0.9886      0.0000  0.0000  0.0000  0.0000  0.0000  0.0000  0.0000  0.0000  0.0000  0.0000
  o =  0.2713  v =  0.0000  0.0000  0.0000  0.0000  0.0000 -0.0005 -0.0031  0.8514  0.5086 -0.1282      0.0000  0.0000  0.0000  0.0000  0.0000  0.0000  0.0000  0.0000  0.0000  0.0000
  o =  0.3021  v =  0.0006  0.0054  0.9980  0.0616  0.0162  0.0000  0.0000  0.0000  0.0000  0.0000      0.0000  0.0000  0.0000  0.0000  0.0000  0.0000  0.0000  0.0000  0.0000  0.0000
  o =  0.4304  v = -0.9956  0.0937  0.0001  0.0001  0.0002  0.0000  0.0000  0.0000  0.0000  0.0000      0.0000  0.0000  0.0000  0.0000  0.0000  0.0000  0.0000  0.0000  0.0000  0.0000
atom =   5  type =  2  l = 2
 
 onsite density matrix
 
spin component  1
 
  0.4281  0.0166 -0.0002  0.0002 -0.0000
  0.0166  0.2546  0.0000  0.0001 -0.0000
 -0.0002  0.0000  0.3019 -0.0042  0.0014
  0.0002  0.0001 -0.0042  0.2366  0.0043
 -0.0000 -0.0000  0.0014  0.0043  0.2383
 
spin component  2
 
  0.0900 -0.0223  0.0001 -0.0001 -0.0000
 -0.0223  0.2226  0.0000 -0.0001  0.0000
  0.0001  0.0000  0.2603 -0.0182 -0.0006
 -0.0001 -0.0001 -0.0182  0.2400  0.0028
 -0.0000  0.0000 -0.0006  0.0028  0.2564
 
 occupancies and eigenvectors
 
[...]


--------------------------------------------------------------------------------------------------------


 soft charge-density along one line, spin component           1
         0         1         2         3         4         5         6         7         8         9
 total charge-density along one line
 
 soft charge-density along one line, spin component           2
         0         1         2         3         4         5         6         7         8         9
 total charge-density along one line
 
 pseudopotential strength for first ion, spin component:           1
-18.285  -5.625  -0.000  -0.012  -0.000  -0.000   0.013  -0.000
 -5.625  -1.172   0.000  -0.015   0.000   0.000   0.016   0.000
 -0.000   0.000 -19.893   0.000   0.000   6.862  -0.000   0.000
 -0.012  -0.015   0.000 -19.901  -0.000  -0.000   6.877   0.000
 -0.000   0.000   0.000  -0.000 -19.925   0.000   0.000   6.888
 -0.000   0.000   6.862  -0.000   0.000   8.517  -0.000  -0.000
  0.013   0.016  -0.000   6.877   0.000  -0.000   8.466   0.000
 -0.000   0.000   0.000   0.000   6.888  -0.000   0.000   8.551
  0.000  -0.000  -0.000   0.000  -0.000   0.000  -0.000   0.000
  0.000  -0.000  -0.017  -0.000   0.000   0.047   0.000  -0.000
  0.006  -0.012  -0.000  -0.008   0.000   0.000   0.028  -0.000
 -0.000   0.000   0.000   0.000   0.006  -0.000   0.000   0.012
 -0.016   0.004   0.000   0.011   0.000  -0.000  -0.017  -0.000
  0.000   0.000  -0.000   0.000  -0.000   0.000  -0.000   0.000
  0.000   0.000  -0.021  -0.000   0.000   0.038   0.000  -0.000
  0.007  -0.007  -0.000  -0.009   0.000   0.000   0.026   0.000
 -0.000   0.000   0.000  -0.000   0.005  -0.000  -0.000   0.019
 -0.018   0.001   0.000   0.013   0.000  -0.000  -0.009  -0.000
 pseudopotential strength for first ion, spin component:           2
-18.290  -5.621  -0.000  -0.006  -0.000  -0.000   0.015  -0.000
 -5.621  -1.171  -0.000  -0.014   0.000   0.000   0.003   0.000
 -0.000  -0.000 -19.892   0.000   0.000   6.862  -0.000  -0.000
 -0.006  -0.014   0.000 -19.903  -0.000  -0.000   6.877   0.000
 -0.000   0.000   0.000  -0.000 -19.920  -0.000   0.000   6.888
 -0.000   0.000   6.862  -0.000  -0.000   8.550  -0.000   0.000
  0.015   0.003  -0.000   6.877   0.000  -0.000   8.516   0.000
 -0.000   0.000  -0.000   0.000   6.888   0.000   0.000   8.565
  0.000  -0.000  -0.000   0.000  -0.000   0.000  -0.000   0.000
  0.000  -0.000  -0.014  -0.000   0.000   0.035   0.000  -0.000
  0.002  -0.009  -0.000  -0.003   0.000   0.000   0.012  -0.000
 -0.000   0.000   0.000   0.000   0.006  -0.000  -0.000   0.003
 -0.013   0.002   0.000   0.010  -0.000  -0.000  -0.016   0.000
  0.000  -0.000  -0.000   0.000  -0.000  -0.000  -0.000   0.000
  0.000   0.000  -0.017  -0.000   0.000   0.031   0.000  -0.000
  0.003  -0.006  -0.000  -0.002   0.000   0.000   0.016  -0.000
 -0.000   0.000   0.000   0.000   0.005  -0.000  -0.000   0.013
 -0.015   0.001   0.000   0.011  -0.000  -0.000  -0.009   0.000
 total augmentation occupancy for first ion, spin component:           1
  2.002   0.004   0.000   0.002  -0.000   0.000   0.004  -0.000   0.000   0.000   0.004  -0.000   0.003  -0.000  -0.000  -0.003
  0.004   0.410   0.000   0.033  -0.000  -0.000  -0.029   0.000  -0.000   0.000  -0.007  -0.000  -0.100   0.000  -0.000   0.006
  0.000   0.000   2.007  -0.000  -0.000  -0.006  -0.000   0.000  -0.000   0.015   0.000   0.000  -0.000   0.000  -0.001   0.000
  0.002   0.033  -0.000   2.007   0.000  -0.000   0.002   0.000   0.000  -0.000   0.023  -0.000  -0.003  -0.000   0.000  -0.008
 -0.000  -0.000  -0.000   0.000   2.006   0.000   0.000   0.001  -0.000   0.000   0.000   0.009  -0.000   0.000  -0.000  -0.000
  0.000  -0.000  -0.006  -0.000   0.000   0.034   0.000  -0.000   0.000  -0.036  -0.000  -0.000   0.000  -0.000   0.020   0.000
  0.004  -0.029  -0.000   0.002   0.000   0.000   0.026  -0.000  -0.000  -0.000  -0.023   0.000   0.013   0.000   0.000   0.013
 -0.000   0.000   0.000   0.000   0.001  -0.000  -0.000   0.021   0.000  -0.000  -0.000  -0.009   0.000  -0.000   0.000   0.000
  0.000  -0.000  -0.000   0.000  -0.000   0.000  -0.000   0.000   0.264   0.000   0.000   0.000  -0.000  -0.154  -0.000  -0.000
  0.000   0.000   0.015  -0.000   0.000  -0.036  -0.000  -0.000   0.000   0.476   0.000  -0.000  -0.000  -0.000  -0.271  -0.000
  0.004  -0.007   0.000   0.023   0.000  -0.000  -0.023  -0.000   0.000   0.000   0.118  -0.000   0.006  -0.000  -0.000  -0.067
 -0.000  -0.000   0.000  -0.000   0.009  -0.000   0.000  -0.009   0.000  -0.000  -0.000   0.260  -0.000  -0.000   0.000   0.000
  0.003  -0.100  -0.000  -0.003  -0.000   0.000   0.013   0.000  -0.000  -0.000   0.006  -0.000   0.264   0.000   0.000  -0.005
 -0.000   0.000   0.000  -0.000   0.000  -0.000   0.000  -0.000  -0.154  -0.000  -0.000  -0.000   0.000   0.090   0.000   0.000
 -0.000  -0.000  -0.001   0.000  -0.000   0.020   0.000   0.000  -0.000  -0.271  -0.000   0.000   0.000   0.000   0.158   0.000
 -0.003   0.006   0.000  -0.008  -0.000   0.000   0.013   0.000  -0.000  -0.000  -0.067   0.000  -0.005   0.000   0.000   0.038
  0.000   0.000  -0.000   0.000  -0.002   0.000  -0.000   0.006  -0.000   0.000   0.000  -0.150   0.000   0.000  -0.000  -0.000
  0.001   0.057   0.000  -0.001   0.000  -0.000  -0.007  -0.000   0.000   0.000  -0.005   0.000  -0.150   0.000  -0.000   0.004
 total augmentation occupancy for first ion, spin component:           2
 -0.000  -0.001   0.000   0.000  -0.000   0.000   0.000  -0.000  -0.000  -0.000  -0.000  -0.000  -0.000   0.000   0.000  -0.000
 -0.001   0.015   0.000   0.002  -0.000   0.000  -0.004   0.000  -0.000  -0.000   0.005   0.000  -0.001   0.000   0.000  -0.002
  0.000   0.000  -0.000  -0.000   0.000  -0.000  -0.000  -0.000  -0.000   0.000  -0.000   0.000   0.000   0.000   0.000   0.000
  0.000   0.002  -0.000  -0.000   0.000  -0.000  -0.000  -0.000  -0.000  -0.000  -0.000  -0.000   0.000   0.000  -0.000   0.001
 -0.000  -0.000   0.000   0.000  -0.000   0.000  -0.000   0.000   0.000  -0.000   0.000  -0.000   0.000  -0.000   0.000   0.000
  0.000   0.000  -0.000  -0.000   0.000   0.000   0.000   0.000   0.000  -0.002   0.000   0.000  -0.000  -0.000   0.001   0.000
  0.000  -0.004  -0.000  -0.000  -0.000   0.000   0.001   0.000   0.000  -0.000  -0.001   0.000   0.000  -0.000   0.000   0.000
 -0.000   0.000  -0.000  -0.000   0.000   0.000   0.000  -0.000   0.000   0.000  -0.000  -0.001   0.000   0.000   0.000   0.000
 -0.000  -0.000  -0.000  -0.000   0.000   0.000   0.000   0.000  -0.002   0.000   0.000  -0.000   0.000   0.001  -0.000  -0.000
 -0.000  -0.000   0.000  -0.000  -0.000  -0.002  -0.000   0.000   0.000   0.008   0.000  -0.000   0.000  -0.000  -0.003  -0.000
 -0.000   0.005  -0.000  -0.000   0.000   0.000  -0.001  -0.000   0.000   0.000   0.001  -0.000  -0.000  -0.000   0.000  -0.000
 -0.000   0.000   0.000  -0.000  -0.000   0.000   0.000  -0.001  -0.000  -0.000  -0.000  -0.001   0.000   0.000   0.000   0.000
 -0.000  -0.001   0.000   0.000   0.000  -0.000   0.000   0.000   0.000   0.000  -0.000   0.000  -0.001  -0.000  -0.000   0.000
  0.000   0.000   0.000   0.000  -0.000  -0.000  -0.000   0.000   0.001  -0.000  -0.000   0.000  -0.000  -0.001   0.000   0.000
  0.000   0.000   0.000  -0.000   0.000   0.001   0.000   0.000  -0.000  -0.003   0.000   0.000  -0.000   0.000   0.001   0.000
 -0.000  -0.002   0.000   0.001   0.000   0.000   0.000   0.000  -0.000  -0.000  -0.000   0.000   0.000   0.000   0.000  -0.000
  0.000  -0.000  -0.000   0.000   0.000  -0.000  -0.000   0.000   0.000   0.000   0.000   0.001  -0.000  -0.000  -0.000  -0.000
  0.000   0.000  -0.000  -0.000  -0.000  -0.000  -0.000  -0.000  -0.000   0.000   0.000  -0.000   0.000  -0.000   0.000  -0.000


------------------------ aborting loop because EDIFF is reached ----------------------------------------


 


 total charge     
 
# of ion       s       p       d       tot
------------------------------------------
    1        2.020   5.866   0.221   8.107
    2        2.020   5.866   0.221   8.107
    3        0.348   6.350   3.012   9.711
    4        0.348   6.350   3.012   9.711
    5        0.348   6.350   3.012   9.711
    6        0.348   6.350   3.012   9.711
    7        1.595   3.451   0.000   5.046
    8        1.595   3.451   0.000   5.046
    9        1.595   3.451   0.000   5.046
   10        1.595   3.451   0.000   5.046
   11        1.573   3.538   0.000   5.111
   12        1.573   3.538   0.000   5.111
   13        1.573   3.538   0.000   5.111
   14        1.573   3.538   0.000   5.111
   15        1.572   3.545   0.000   5.117
   16        1.572   3.545   0.000   5.117
--------------------------------------------------
tot         21.252  72.176  12.490 105.919
 


 magnetization (x)
 
# of ion       s       p       d       tot
------------------------------------------
    1        0.001   0.000   0.003   0.005
    2        0.001   0.000   0.003   0.005
    3        0.007   0.005   1.007   1.020
    4        0.007   0.005   1.007   1.020
    5        0.007   0.005   1.007   1.020
    6        0.007   0.005   1.007   1.020
    7       -0.002  -0.084   0.000  -0.086
    8       -0.002  -0.085   0.000  -0.086
    9       -0.002  -0.085   0.000  -0.086
   10       -0.002  -0.084   0.000  -0.086
   11       -0.000  -0.004   0.000  -0.005
   12       -0.000  -0.004   0.000  -0.004
   13       -0.000  -0.004   0.000  -0.004
   14       -0.000  -0.004   0.000  -0.005
   15        0.000   0.042   0.000   0.042
   16        0.000   0.042   0.000   0.042
--------------------------------------------------
tot          0.025  -0.249   4.036   3.812
 
    CHARGE:  cpu time    0.5468: real time    0.5468
    FORLOC:  cpu time    0.0029: real time    0.0029
    FORNL :  cpu time    4.3990: real time    4.3992
    STRESS:  cpu time   83.3855: real time   83.3885
    FORCOR:  cpu time    0.0691: real time    0.0691
    FORHAR:  cpu time    0.0056: real time    0.0056
    MIXING:  cpu time    0.0008: real time    0.0008
    OFIELD:  cpu time    0.0000: real time    0.0000

  FORCE on cell =-STRESS in cart. coord.  units (eV):
  Direction    XX          YY          ZZ          XY          YZ          ZX
  --------------------------------------------------------------------------------------
  Alpha Z   609.19560   609.19560   609.19560
  Ewald   -2319.16395 -2349.06609 -3265.97038     0.00003     0.00037    -0.00042
  Hartree  1455.34005  1392.39550   565.92044     0.00002     0.00017    -0.00017
  E(xc)    -673.43992  -673.38503  -673.66638     0.00000     0.00000    -0.00000
  Local    -958.70440  -860.52932   940.92642    -0.00006    -0.00053     0.00057
  n-local  -577.37535  -580.69941  -570.40149     0.00000     0.00001     0.00000
  augment   294.15237   293.81349   270.43093    -0.00000    -0.00001     0.00002
  Kinetic  2170.02542  2168.15354  2123.48992     0.00000    -0.00000    -0.00002
  Fock        0.00000     0.00000     0.00000     0.00000     0.00000     0.00000
  -------------------------------------------------------------------------------------
  Total       0.02982    -0.12173    -0.07494     0.00000     0.00001    -0.00003
  in kB       0.23796    -0.97145    -0.59808     0.00002     0.00011    -0.00022
  external pressure =       -0.44 kB  Pullay stress =        0.00 kB


 VOLUME and BASIS-vectors are now :
 -----------------------------------------------------------------------------
  energy-cutoff  :      520.00
  volume of cell :      200.76
      direct lattice vectors                 reciprocal lattice vectors
    11.337716618 -0.000000058  0.000002506     0.088201181  0.000000000 -0.000000020
    -0.000000018  3.579845051 -0.000000186     0.000000001  0.279341699  0.000000015
     0.000001099 -0.000000260  4.946319262    -0.000000045  0.000000011  0.202170533

  length of vectors
    11.337716618  3.579845051  4.946319262     0.088201181  0.279341699  0.202170533


 FORCES acting on ions
    electron-ion (+dipol)            ewald-force                    non-local-force                 convergence-correction
 -----------------------------------------------------------------------------------------------
   0.661E-01 -.187E-04 -.147E+03   -.632E-01 0.191E-04 0.143E+03   -.230E-02 -.386E-06 0.343E+01   0.567E-04 0.499E-06 -.445E-02
   0.654E-01 -.634E-05 0.147E+03   -.624E-01 0.547E-05 -.143E+03   -.228E-02 0.145E-05 -.343E+01   0.156E-04 -.623E-06 0.436E-02
   0.443E+01 -.880E-04 -.744E+02   -.522E+01 0.876E-04 0.721E+02   0.661E+00 0.216E-05 0.256E+01   -.253E-02 -.117E-05 -.882E-02
   -.438E+01 -.112E-03 -.744E+02   0.513E+01 0.111E-03 0.721E+02   -.619E+00 0.177E-05 0.257E+01   0.239E-02 0.265E-05 -.876E-02
   -.437E+01 0.995E-04 0.744E+02   0.512E+01 -.996E-04 -.721E+02   -.619E+00 -.297E-05 -.257E+01   0.265E-02 0.135E-05 0.884E-02
   0.442E+01 0.132E-03 0.744E+02   -.521E+01 -.131E-03 -.721E+02   0.661E+00 -.161E-05 -.256E+01   -.268E-02 -.244E-05 0.899E-02
   -.324E+02 0.227E-04 -.204E+03   0.323E+02 -.247E-04 0.225E+03   0.942E-01 0.235E-05 -.209E+02   0.191E-02 -.237E-06 -.609E-02
   0.323E+02 -.654E-05 -.204E+03   -.322E+02 0.734E-05 0.225E+03   -.102E+00 -.115E-05 -.209E+02   -.195E-02 0.483E-07 -.616E-02
   0.323E+02 -.425E-05 0.204E+03   -.322E+02 0.441E-05 -.225E+03   -.102E+00 -.309E-06 0.209E+02   -.192E-02 0.190E-06 0.638E-02
   -.324E+02 -.112E-05 0.204E+03   0.323E+02 0.153E-05 -.225E+03   0.941E-01 -.292E-06 0.209E+02   0.193E-02 0.391E-07 0.638E-02
   -.751E+02 -.936E-04 -.705E+02   0.813E+02 0.103E-03 0.771E+02   -.622E+01 -.612E-05 -.657E+01   -.165E-02 0.316E-06 -.242E-02
   0.750E+02 -.133E-03 -.705E+02   -.812E+02 0.147E-03 0.771E+02   0.620E+01 -.118E-04 -.657E+01   0.165E-02 0.109E-05 -.242E-02
   0.750E+02 0.651E-04 0.705E+02   -.812E+02 -.712E-04 -.771E+02   0.620E+01 0.363E-05 0.657E+01   0.189E-02 -.142E-06 0.227E-02
   -.751E+02 0.136E-03 0.705E+02   0.813E+02 -.150E-03 -.771E+02   -.622E+01 0.130E-04 0.657E+01   -.194E-02 -.148E-05 0.229E-02
   -.153E-02 -.338E-04 0.603E+02   0.593E-02 0.382E-04 -.669E+02   -.476E-02 -.485E-05 0.662E+01   -.749E-05 0.861E-06 0.366E-02
   -.621E-03 0.439E-04 -.603E+02   0.491E-02 -.485E-04 0.669E+02   -.476E-02 0.451E-05 -.662E+01   0.555E-04 -.777E-06 -.381E-02
 -----------------------------------------------------------------------------------------------
   -.298E-01 0.651E-06 -.245E-04   -.426E-13 -.147E-13 -.853E-13   0.288E-01 -.723E-06 -.323E-03   -.120E-03 0.178E-06 0.236E-03
 
 
 POSITION                                       TOTAL-FORCE (eV/Angst)
 -----------------------------------------------------------------------------------
      2.83457      2.68488      4.20574         0.000752      0.000000      0.024044
      8.50343      0.89496      0.74058         0.000741     -0.000000     -0.024022
     10.24425      2.68488      3.02507        -0.027413      0.000001     -0.009694
      6.76226      2.68488      3.02480         0.026963      0.000004     -0.010672
      1.09340      0.89496      1.92152         0.026927     -0.000002      0.010637
      4.57539      0.89496      1.92125        -0.027301     -0.000004      0.009684
      9.93380      2.68488      4.66422        -0.015399      0.000000     -0.003034
      7.07316      2.68488      4.66387         0.016425     -0.000000     -0.004740
      1.40430      0.89496      0.28245         0.016421      0.000000      0.004778
      4.26494      0.89496      0.28209        -0.015410      0.000000      0.003028
      0.84625      2.68488      2.64188        -0.002167      0.000004      0.010375
      4.82220      2.68488      2.64175         0.001145      0.000003      0.009471
     10.49106      0.89496      2.30457         0.001169     -0.000003     -0.009477
      6.51511      0.89496      2.30444        -0.002197     -0.000003     -0.010381
      8.50324      2.68488      2.23279        -0.000306      0.000000      0.009886
      2.83438      0.89496      2.71354        -0.000350     -0.000001     -0.009883
 -----------------------------------------------------------------------------------
    total drift:                               -0.001045      0.000000     -0.000111


--------------------------------------------------------------------------------------------------------



  FREE ENERGIE OF THE ION-ELECTRON SYSTEM (eV)
  ---------------------------------------------------
  free  energy   TOTEN  =      -194.36249384 eV

  energy  without entropy=     -194.36249384  energy(sigma->0) =     -194.36249384
 
 d Force = 0.1268280E-04[-0.335E-03, 0.361E-03]  d Energy = 0.3300303E-03-0.317E-03
 d Force = 0.1116790E+00[ 0.106E+00, 0.118E+00]  d Ewald  =-0.1544781E+01 0.166E+01


--------------------------------------------------------------------------------------------------------


    POTLOK:  cpu time    1.3246: real time    1.3247


--------------------------------------------------------------------------------------------------------




--------------------------------------------------------------------------------------------------------


  
 reached required accuracy - stopping structural energy minimisation
     LOOP+:  cpu time  329.6251: real time  329.6430
    4ORBIT:  cpu time    0.0000: real time    0.0000
 


 total charge     
 
# of ion       s       p       d       tot
------------------------------------------
    1        2.020   5.866   0.221   8.107
    2        2.020   5.866   0.221   8.107
    3        0.348   6.350   3.012   9.711
    4        0.348   6.350   3.012   9.711
    5        0.348   6.350   3.012   9.711
    6        0.348   6.350   3.012   9.711
    7        1.595   3.451   0.000   5.046
    8        1.595   3.451   0.000   5.046
    9        1.595   3.451   0.000   5.046
   10        1.595   3.451   0.000   5.046
   11        1.573   3.538   0.000   5.111
   12        1.573   3.538   0.000   5.111
   13        1.573   3.538   0.000   5.111
   14        1.573   3.538   0.000   5.111
   15        1.572   3.545   0.000   5.117
   16        1.572   3.545   0.000   5.117
--------------------------------------------------
tot         21.252  72.176  12.490 105.919
 


 magnetization (x)
 
# of ion       s       p       d       tot
------------------------------------------
    1        0.001   0.000   0.003   0.005
    2        0.001   0.000   0.003   0.005
    3        0.007   0.005   1.007   1.020
    4        0.007   0.005   1.007   1.020
    5        0.007   0.005   1.007   1.020
    6        0.007   0.005   1.007   1.020
    7       -0.002  -0.084   0.000  -0.086
    8       -0.002  -0.085   0.000  -0.086
    9       -0.002  -0.085   0.000  -0.086
   10       -0.002  -0.084   0.000  -0.086
   11       -0.000  -0.004   0.000  -0.005
   12       -0.000  -0.004   0.000  -0.004
   13       -0.000  -0.004   0.000  -0.004
   14       -0.000  -0.004   0.000  -0.005
   15        0.000   0.042   0.000   0.042
   16        0.000   0.042   0.000   0.042
--------------------------------------------------
tot          0.025  -0.249   4.036   3.812
 

 total amount of memory used by VASP MPI-rank0    99574. kBytes
=======================================================================

   base      :      30000. kBytes
   nonlr-proj:       4486. kBytes
   fftplans  :       1785. kBytes
   grid      :       6745. kBytes
   one-center:        124. kBytes
   wavefun   :      56434. kBytes
 
  
  
 General timing and accounting informations for this job:
 ========================================================
  
                  Total CPU time used (sec):     1653.268
                            User time (sec):     1648.072
                          System time (sec):        5.196
                         Elapsed time (sec):     1653.669
  
                   Maximum memory used (kb):      137504.
                   Average memory used (kb):           0.
  
                          Minor page faults:        46506
                          Major page faults:           16
                 Voluntary context switches:          552
