       N       E                     dE             d eps       ncg     rms          ort
DAV:   1     0.235749672173E+04    0.23575E+04   -0.13951E+05  8364   0.158E+03
DAV:   2    -0.162332784211E+03   -0.25198E+04   -0.23469E+04  8364   0.415E+02
DAV:   3    -0.423527333630E+03   -0.26119E+03   -0.25663E+03  8364   0.147E+02
DAV:   4    -0.431353348260E+03   -0.78260E+01   -0.77530E+01  8364   0.252E+01
DAV:   5    -0.431761530356E+03   -0.40818E+00   -0.40756E+00  8364   0.421E+00
SDA:   6    -0.347688006379E+03    0.84074E+02   -0.40756E+00  8364   0.781E+02 0.000E+00
CGA:   7    -0.351487986969E+03   -0.38000E+01   -0.80649E+01  8364   0.102E+02-0.636E+01
CGA:   8    -0.352764715950E+03   -0.12767E+01   -0.11534E+01  8364   0.109E+01 0.494E+00
CGA:   9    -0.353020161345E+03   -0.25545E+00   -0.25438E+00  8364   0.586E+00 0.302E-01
CGA:  10    -0.353132249340E+03   -0.11209E+00   -0.11232E+00  8364   0.178E+00 0.204E-01
CGA:  11    -0.353176402605E+03   -0.44153E-01   -0.44352E-01  8364   0.859E-01-0.449E-02
CGA:  12    -0.353199704165E+03   -0.23302E-01   -0.24485E-01  8364   0.535E-01-0.125E-01
CGA:  13    -0.353210002564E+03   -0.10298E-01   -0.10370E-01  8364   0.211E-01-0.279E-02
CGA:  14    -0.353214154632E+03   -0.41521E-02   -0.41375E-02  8364   0.650E-02 0.266E-02
CGA:  15    -0.353215644751E+03   -0.14901E-02   -0.14874E-02  8364   0.242E-02 0.186E-02
CGA:  16    -0.353216446810E+03   -0.80206E-03   -0.78043E-03  8364   0.125E-02 0.434E-03
CGA:  17    -0.353216924949E+03   -0.47814E-03   -0.63460E-03  8364   0.171E-02-0.710E-03
CGA:  18    -0.353217170370E+03   -0.24542E-03   -0.25439E-03  8364   0.422E-03 0.153E-03
CGA:  19    -0.353217390561E+03   -0.22019E-03    0.38166E-03  8364   0.132E-03 0.862E-04
CGA:  20    -0.353217542033E+03   -0.15147E-03    0.13617E-04  8364   0.600E-04 0.692E-04
CGA:  21    -0.353217570998E+03   -0.28965E-04    0.46322E-04  8364   0.410E-04 0.228E-04
CGA:  22    -0.353217617543E+03   -0.46545E-04    0.63686E-05  8364   0.205E-04 0.313E-04
CGA:  23    -0.353217626458E+03   -0.89151E-05    0.85426E-04  8364   0.128E-04 0.141E-04
   1 F= -.35321763E+03 E0= -.35321763E+03  d E =-.353218E+03  mag=    18.0000
