       N       E                     dE             d eps       ncg     rms          ort
DAV:   1     0.267196483470E+04    0.26720E+04   -0.14751E+05  6336   0.155E+03
DAV:   2    -0.223155146159E+03   -0.28951E+04   -0.27813E+04  6336   0.433E+02
DAV:   3    -0.504902038551E+03   -0.28175E+03   -0.27579E+03  6336   0.149E+02
DAV:   4    -0.519188349898E+03   -0.14286E+02   -0.14065E+02  6336   0.362E+01
DAV:   5    -0.520323874689E+03   -0.11355E+01   -0.11292E+01  6336   0.665E+00
SDA:   6    -0.346734749098E+03    0.17359E+03   -0.11292E+01  6336   0.616E+03 0.000E+00
CGA:   7    -0.388224808804E+03   -0.41490E+02   -0.67832E+02  6336   0.161E+03 0.291E+02
CGA:   8    -0.403361135907E+03   -0.15136E+02   -0.60476E+01  6336   0.557E+03 0.245E+03
CGA:   9    -0.409551499778E+03   -0.61904E+01   -0.37788E+02  6336   0.282E+03-0.619E+02
CGA:  10    -0.409904770279E+03   -0.35327E+00   -0.22037E+02  6336   0.106E+03-0.490E+01
CGA:  11    -0.406918569532E+03    0.29862E+01   -0.65774E+01  6336   0.384E+03-0.192E+03
CGA:  12    -0.412964615984E+03   -0.60460E+01   -0.21457E+02  6336   0.101E+03-0.116E+03
CGA:  13    -0.419053716475E+03   -0.60891E+01   -0.38782E+01  6336   0.160E+03 0.228E+03
CGA:  14    -0.408914823831E+03    0.10139E+02   -0.98207E+01  6336   0.429E+03-0.901E+02
CGA:  15    -0.407193123146E+03    0.17217E+01   -0.29553E+02  6336   0.223E+03-0.101E+03
CGA:  16    -0.408459868746E+03   -0.12667E+01   -0.11805E+02  6336   0.487E+03 0.246E+03
CGA:  17    -0.417197100964E+03   -0.87372E+01   -0.34507E+02  6336   0.246E+03 0.981E+02
CGA:  18    -0.407017087077E+03    0.10180E+02   -0.18013E+02  6336   0.222E+03-0.616E+02
CGA:  19    -0.408466475630E+03   -0.14494E+01   -0.11031E+02  6336   0.840E+02-0.267E+02
CGA:  20    -0.415105630575E+03   -0.66392E+01   -0.39378E+01  6336   0.639E+02-0.314E+02
CGA:  21    -0.421659118517E+03   -0.65535E+01   -0.32515E+01  6336   0.531E+01 0.123E+01
CGA:  22    -0.422280764135E+03   -0.62165E+00   -0.46280E+00  6336   0.415E+01 0.147E+01
CGA:  23    -0.422325853440E+03   -0.45089E-01   -0.21522E-01  6336   0.427E+01 0.573E+01
CGA:  24    -0.422408945870E+03   -0.83092E-01   -0.40231E-01  6336   0.422E+01 0.464E+01
CGA:  25    -0.422512074433E+03   -0.10313E+00   -0.43252E-01  6336   0.498E+01 0.573E+01
CGA:  26    -0.422653692551E+03   -0.14162E+00   -0.68124E-01  6336   0.371E+01 0.482E+01
CGA:  27    -0.422756601596E+03   -0.10291E+00   -0.59434E-01  6336   0.203E+01 0.265E+01
CGA:  28    -0.422830156641E+03   -0.73555E-01   -0.47986E-01  6336   0.818E+00 0.107E+01
CGA:  29    -0.422904499406E+03   -0.74343E-01   -0.74592E-01  6336   0.130E+01 0.308E-01
CGA:  30    -0.423058869719E+03   -0.15437E+00   -0.14889E+00  6336   0.118E+01 0.221E+00
CGA:  31    -0.423118109451E+03   -0.59240E-01   -0.35631E-01  6336   0.348E+00 0.928E+00
CGA:  32    -0.423132979882E+03   -0.14870E-01   -0.13208E-01  6336   0.174E+00 0.681E-01
CGA:  33    -0.423171784237E+03   -0.38804E-01   -0.46924E-01  6336   0.130E+01-0.622E-01
CGA:  34    -0.423192145266E+03   -0.20361E-01   -0.18074E-01  6336   0.113E+01-0.687E-02
CGA:  35    -0.423209866705E+03   -0.17721E-01   -0.33139E-01  6336   0.373E+00-0.467E+00
CGA:  36    -0.423227174244E+03   -0.17308E-01   -0.17472E-01  6336   0.272E+00 0.216E-03
CGA:  37    -0.423250655244E+03   -0.23481E-01   -0.23396E-01  6336   0.224E+00-0.253E-03
CGA:  38    -0.423262048280E+03   -0.11393E-01   -0.11814E-01  6336   0.550E-01-0.118E-01
CGA:  39    -0.423268012350E+03   -0.59641E-02   -0.63638E-02  6336   0.977E-01-0.122E-01
CGA:  40    -0.423273245662E+03   -0.52333E-02   -0.52601E-02  6336   0.436E-01 0.580E-02
CGA:  41    -0.423275455971E+03   -0.22103E-02   -0.23466E-02  6336   0.433E-01 0.822E-02
CGA:  42    -0.423283011579E+03   -0.75556E-02   -0.82961E-02  6336   0.106E+00-0.887E-02
CGA:  43    -0.423286735798E+03   -0.37242E-02   -0.32098E-02  6336   0.379E-01-0.219E-01
CGA:  44    -0.423289029007E+03   -0.22932E-02   -0.20989E-02  6336   0.465E-01-0.154E-01
CGA:  45    -0.423291861727E+03   -0.28327E-02   -0.30810E-02  6336   0.290E-01-0.821E-02
CGA:  46    -0.423292408499E+03   -0.54677E-03   -0.76235E-03  6336   0.145E-01 0.629E-02
CGA:  47    -0.423292901009E+03   -0.49251E-03   -0.72325E-03  6336   0.159E-01 0.635E-02
CGA:  48    -0.423294287189E+03   -0.13862E-02   -0.14967E-02  6336   0.215E-01 0.719E-02
CGA:  49    -0.423296022940E+03   -0.17358E-02   -0.17938E-02  6336   0.119E-01 0.187E-02
CGA:  50    -0.423296983054E+03   -0.96011E-03   -0.96637E-03  6336   0.156E-01 0.104E-02
CGA:  51    -0.423297643596E+03   -0.66054E-03   -0.85232E-03  6336   0.111E-01 0.695E-02
CGA:  52    -0.423297938845E+03   -0.29525E-03   -0.54913E-03  6336   0.654E-02 0.695E-02
CGA:  53    -0.423298950344E+03   -0.10115E-02    0.37357E-01  6336   0.426E-02 0.513E-02
CGA:  54    -0.423300567630E+03   -0.16173E-02   -0.38780E-05  6336   0.719E-02-0.984E-03
CGA:  55    -0.423301343584E+03   -0.77595E-03   -0.65468E-03  6336   0.141E-01-0.591E-02
CGA:  56    -0.423301559149E+03   -0.21557E-03   -0.49000E-03  6336   0.296E-02 0.464E-02
CGA:  57    -0.423301597932E+03   -0.38783E-04   -0.18446E-03  6336   0.286E-02 0.181E-02
CGA:  58    -0.423293103322E+03    0.84946E-02   -0.56159E-02  6336   0.218E+00-0.137E-01
CGA:  59    -0.423297470346E+03   -0.43670E-02   -0.27176E-02  6336   0.137E+00 0.180E+00
CGA:  60    -0.423300741764E+03   -0.32714E-02   -0.23073E-02  6336   0.619E-01 0.958E-01
CGA:  61    -0.423302322536E+03   -0.15808E-02   -0.14629E-02  6336   0.156E-01 0.313E-01
CGA:  62    -0.423302603136E+03   -0.28060E-03   -0.52901E-03  6336   0.301E-02 0.495E-02
CGA:  63    -0.423302674176E+03   -0.71040E-04   -0.21637E-03  6336   0.325E-02 0.122E-02
CGA:  64    -0.423303401233E+03   -0.72706E-03   -0.70639E-03  6336   0.371E-02-0.624E-03
CGA:  65    -0.423303862367E+03   -0.46113E-03   -0.18913E-03  6336   0.307E-02-0.240E-02
CGA:  66    -0.423303931010E+03   -0.68643E-04   -0.21042E-03  6336   0.195E-02 0.135E-02
CGA:  67    -0.423304543477E+03   -0.61247E-03   -0.61265E-03  6336   0.105E-02-0.290E-04
CGA:  68    -0.423304924261E+03   -0.38078E-03    0.23923E-02  6336   0.148E-02 0.862E-03
CGA:  69    -0.423305026776E+03   -0.10251E-03   -0.15603E-03  6336   0.134E-02 0.750E-03
CGA:  70    -0.423305574688E+03   -0.54791E-03    0.66652E-03  6336   0.607E-02-0.868E-03
CGA:  71    -0.423305564737E+03    0.99510E-05   -0.17924E-03  6336   0.102E-02 0.208E-02
CGA:  72    -0.423305520770E+03    0.43966E-04   -0.38496E-04  6336   0.671E-03 0.649E-03
CGA:  73    -0.423305813657E+03   -0.29289E-03    0.14808E-03  6336   0.787E-03 0.600E-03
CGA:  74    -0.423305815092E+03   -0.14349E-05   -0.52081E-04  6336   0.718E-03 0.543E-03
CGA:  75    -0.423306160186E+03   -0.34509E-03    0.10211E-03  6336   0.130E-02 0.425E-03
CGA:  76    -0.423306127723E+03    0.32463E-04   -0.46466E-04  6336   0.651E-03 0.696E-03
CGA:  77    -0.423306785622E+03   -0.65790E-03   -0.38104E-03  6336   0.129E-02 0.602E-03
CGA:  78    -0.423307258471E+03   -0.47285E-03    0.15642E-02  6336   0.758E-02-0.141E-02
CGA:  79    -0.423307276609E+03   -0.18138E-04   -0.22170E-03  6336   0.114E-02 0.252E-02
CGA:  80    -0.423307230972E+03    0.45637E-04   -0.40009E-04  6336   0.655E-03 0.691E-03
CGA:  81    -0.423307478493E+03   -0.24752E-03    0.25454E-03  6336   0.681E-03 0.642E-03
CGA:  82    -0.423307599905E+03   -0.12141E-03   -0.11487E-03  6336   0.973E-03 0.559E-03
CGA:  83    -0.423308038055E+03   -0.43815E-03    0.17968E-03  6336   0.357E-02-0.301E-03
CGA:  84    -0.423308990857E+03   -0.95280E-03    0.86724E-03  6336   0.106E-01 0.172E-02
CGA:  85    -0.423311381806E+03   -0.23909E-02   -0.24211E-02  6336   0.975E-02 0.562E-02
CGA:  86    -0.423312365134E+03   -0.98333E-03   -0.66119E-03  6336   0.484E-02-0.530E-02
CGA:  87    -0.423312345190E+03    0.19944E-04   -0.14412E-03  6336   0.949E-03 0.180E-02
CGA:  88    -0.423312304971E+03    0.40219E-04   -0.35068E-04  6336   0.639E-03 0.671E-03
CGA:  89    -0.423312530035E+03   -0.22506E-03    0.18143E-03  6336   0.677E-03 0.608E-03
CGA:  90    -0.423312575564E+03   -0.45529E-04   -0.67976E-04  6336   0.735E-03 0.549E-03
CGA:  91    -0.423312900687E+03   -0.32512E-03    0.86363E-04  6336   0.128E-02 0.349E-03
CGA:  92    -0.423313782569E+03   -0.88188E-03   -0.59245E-03  6336   0.114E-02 0.153E-02
CGA:  93    -0.423314228587E+03   -0.44602E-03    0.25500E-03  6336   0.407E-02-0.743E-03
CGA:  94    -0.423314201684E+03    0.26903E-04   -0.12128E-03  6336   0.878E-03 0.160E-02
CGA:  95    -0.423314163983E+03    0.37701E-04   -0.32475E-04  6336   0.599E-03 0.647E-03
CGA:  96    -0.423314372010E+03   -0.20803E-03    0.14762E-03  6336   0.624E-03 0.575E-03
CGA:  97    -0.423314435389E+03   -0.63379E-04   -0.73246E-04  6336   0.708E-03 0.522E-03
CGA:  98    -0.423314749670E+03   -0.31428E-03    0.74702E-04  6336   0.122E-02 0.304E-03
CGA:  99    -0.423315774095E+03   -0.10244E-02   -0.65278E-03  6336   0.106E-02 0.144E-02
CGA: 100    -0.423316200533E+03   -0.42644E-03    0.20967E-03  6336   0.362E-02-0.662E-03
CGA: 101    -0.423316168853E+03    0.31680E-04   -0.10795E-03  6336   0.823E-03 0.147E-02
CGA: 102    -0.423316131282E+03    0.37570E-04   -0.30118E-04  6336   0.555E-03 0.623E-03
CGA: 103    -0.423316315919E+03   -0.18464E-03    0.16530E-03  6336   0.568E-03 0.542E-03
CGA: 104    -0.423316415061E+03   -0.99142E-04   -0.88687E-04  6336   0.687E-03 0.497E-03
CGA: 105    -0.423316728257E+03   -0.31320E-03    0.70056E-04  6336   0.126E-02 0.228E-03
CGA: 106    -0.423318057439E+03   -0.13292E-02   -0.79861E-03  6336   0.794E-03 0.144E-02
CGA: 107    -0.423318435127E+03   -0.37769E-03    0.11091E-03  6336   0.241E-02-0.216E-03
CGA: 108    -0.423319071622E+03   -0.63649E-03    0.75410E-03  6336   0.536E-02 0.143E-02
CGA: 109    -0.423319058989E+03    0.12633E-04   -0.16124E-03  6336   0.944E-03 0.200E-02
CGA: 110    -0.423319015591E+03    0.43398E-04   -0.30756E-04  6336   0.494E-03 0.655E-03
CGA: 111    -0.423319212145E+03   -0.19655E-03   -0.13480E-03  6336   0.635E-03 0.456E-03
CGA: 112    -0.423319526585E+03   -0.31444E-03    0.69149E-04  6336   0.141E-02 0.101E-03
CGA: 113    -0.423321378706E+03   -0.18521E-02   -0.10533E-02  6336   0.644E-03 0.141E-02
CGA: 114    -0.423321374217E+03    0.44894E-05   -0.40919E-04  6336   0.476E-03 0.431E-03
CGA: 115    -0.423321598866E+03   -0.22465E-03    0.96468E-04  6336   0.633E-03 0.348E-03
CGA: 116    -0.423321573161E+03    0.25705E-04   -0.26887E-04  6336   0.428E-03 0.431E-03
CGA: 117    -0.423322414966E+03   -0.84181E-03    0.64008E-02  6336   0.544E-03 0.411E-03
CGA: 118    -0.423322466049E+03   -0.51083E-04   -0.89667E-04  6336   0.639E-03 0.316E-03
CGA: 119    -0.423322876960E+03   -0.41091E-03    0.76008E-03  6336   0.635E-02-0.655E-03
CGA: 120    -0.423322881666E+03   -0.47058E-05   -0.19324E-03  6336   0.103E-02 0.234E-02
CGA: 121    -0.423322821749E+03    0.59917E-04   -0.38059E-04  6336   0.436E-03 0.550E-03
CGA: 122    -0.423323220404E+03   -0.39865E-03   -0.26383E-03  6336   0.761E-03 0.375E-03
CGA: 123    -0.423319405358E+03    0.38150E-02   -0.10399E-02  6336   0.923E-01-0.373E-02
CGA: 124    -0.423320916107E+03   -0.15107E-02   -0.96184E-03  6336   0.670E-01 0.805E-01
CGA: 125    -0.423322285216E+03   -0.13691E-02   -0.93820E-03  6336   0.419E-01 0.544E-01
CGA: 126    -0.423323353600E+03   -0.10684E-02   -0.83488E-03  6336   0.205E-01 0.299E-01
CGA: 127    -0.423323974901E+03   -0.62130E-03   -0.61915E-03  6336   0.697E-02 0.115E-01
CGA: 128    -0.423324260870E+03   -0.28597E-03   -0.38171E-03  6336   0.187E-02 0.260E-02
CGA: 129    -0.423324464806E+03   -0.20394E-03   -0.21253E-03  6336   0.715E-03 0.234E-03
CGA: 130    -0.423323414464E+03    0.10503E-02   -0.56780E-03  6336   0.435E-01-0.335E-02
CGA: 131    -0.423324664688E+03   -0.12502E-02   -0.11306E-02  6336   0.142E-01 0.246E-01
CGA: 132    -0.423325083730E+03   -0.41904E-03   -0.57743E-03  6336   0.374E-02 0.585E-02
CGA: 133    -0.423325226257E+03   -0.14253E-03   -0.23771E-03  6336   0.176E-02 0.192E-02
CGA: 134    -0.423325642618E+03   -0.41636E-03   -0.32822E-03  6336   0.616E-02-0.168E-02
CGA: 135    -0.423325649212E+03   -0.65937E-05   -0.19453E-03  6336   0.103E-02 0.225E-02
CGA: 136    -0.423325597441E+03    0.51771E-04   -0.39293E-04  6336   0.480E-03 0.593E-03
CGA: 137    -0.423325919249E+03   -0.32181E-03   -0.35206E-03  6336   0.271E-02-0.406E-04
CGA: 138    -0.423328671766E+03   -0.27525E-02   -0.73565E-04  6336   0.881E-01-0.340E-02
CGA: 139    -0.423330012443E+03   -0.13407E-02   -0.84612E-03  6336   0.671E-01 0.787E-01
CGA: 140    -0.423331234862E+03   -0.12224E-02   -0.82464E-03  6336   0.457E-01 0.568E-01
CGA: 141    -0.423332236568E+03   -0.10017E-02   -0.76286E-03  6336   0.255E-01 0.350E-01
CGA: 142    -0.423332849624E+03   -0.61306E-03   -0.60343E-03  6336   0.996E-02 0.162E-01
CGA: 143    -0.423333015209E+03   -0.16559E-03   -0.34118E-03  6336   0.248E-02 0.466E-02
CGA: 144    -0.423332972859E+03    0.42350E-04   -0.11210E-03  6336   0.986E-03 0.149E-02
CGA: 145    -0.423333128590E+03   -0.15573E-03   -0.18951E-03  6336   0.570E-03 0.266E-03
CGA: 146    -0.423333168337E+03   -0.39746E-04   -0.11833E-03  6336   0.448E-03 0.498E-03
CGA: 147    -0.423329828850E+03    0.33395E-02   -0.20238E-02  6336   0.721E-01-0.233E-02
CGA: 148    -0.423330693194E+03   -0.86434E-03   -0.56294E-03  6336   0.565E-01 0.646E-01
CGA: 149    -0.423331486183E+03   -0.79299E-03   -0.54143E-03  6336   0.416E-01 0.490E-01
CGA: 150    -0.423332210589E+03   -0.72441E-03   -0.53177E-03  6336   0.275E-01 0.342E-01
CGA: 151    -0.423332828623E+03   -0.61803E-03   -0.50890E-03  6336   0.154E-01 0.206E-01
CGA: 152    -0.423333294187E+03   -0.46556E-03   -0.45456E-03  6336   0.687E-02 0.992E-02
CGA: 153    -0.423333644127E+03   -0.34994E-03   -0.38523E-03  6336   0.221E-02 0.338E-02
CGA: 154    -0.423333832962E+03   -0.18883E-03   -0.20154E-03  6336   0.530E-03 0.956E-03
CGA: 155    -0.423334006379E+03   -0.17342E-03   -0.97377E-04  6336   0.814E-03-0.288E-03
CGA: 156    -0.423333970701E+03    0.35679E-04   -0.46251E-04  6336   0.333E-03 0.327E-03
CGA: 157    -0.423334018423E+03   -0.47722E-04   -0.66354E-04  6336   0.479E-03 0.969E-04
CGA: 158    -0.423333677805E+03    0.34062E-03   -0.49940E-03  6336   0.249E-01-0.191E-02
CGA: 159    -0.423334378906E+03   -0.70110E-03   -0.67735E-03  6336   0.943E-02 0.151E-01
CGA: 160    -0.423334691455E+03   -0.31255E-03   -0.43455E-03  6336   0.273E-02 0.425E-02
CGA: 161    -0.423334819752E+03   -0.12830E-03   -0.19933E-03  6336   0.102E-02 0.137E-02
CGA: 162    -0.423335164962E+03   -0.34521E-03   -0.19870E-03  6336   0.373E-02-0.107E-02
CGA: 163    -0.423335122788E+03    0.42174E-04   -0.11868E-03  6336   0.650E-03 0.145E-02
CGA: 164    -0.423335068762E+03    0.54027E-04   -0.23504E-04  6336   0.241E-03 0.381E-03
CGA: 165    -0.423335075909E+03   -0.71475E-05   -0.32637E-04  6336   0.203E-03 0.157E-03
CGA: 166    -0.423335296479E+03   -0.22057E-03    0.36780E-04  6336   0.104E-02-0.205E-06
CGA: 167    -0.423335683458E+03   -0.38698E-03   -0.35438E-03  6336   0.931E-03 0.574E-03
CGA: 168    -0.423335638280E+03    0.45179E-04   -0.40138E-04  6336   0.331E-03 0.396E-03
CGA: 169    -0.423335628597E+03    0.96826E-05   -0.34845E-04  6336   0.415E-03 0.218E-03
CGA: 170    -0.423335982796E+03   -0.35420E-03    0.10612E-03  6336   0.481E-02-0.730E-03
CGA: 171    -0.423335946259E+03    0.36537E-04   -0.14956E-03  6336   0.667E-03 0.172E-02
CGA: 172    -0.423335892319E+03    0.53939E-04   -0.20892E-04  6336   0.199E-03 0.382E-03
CGA: 173    -0.423335874599E+03    0.17721E-04   -0.11334E-04  6336   0.161E-03 0.149E-03
CGA: 174    -0.423336005429E+03   -0.13083E-03    0.29020E-04  6336   0.205E-03 0.141E-03
CGA: 175    -0.423335984932E+03    0.20497E-04   -0.91536E-05  6336   0.151E-03 0.151E-03
CGA: 176    -0.423336059568E+03   -0.74636E-04    0.26888E-03  6336   0.149E-03 0.150E-03
CGA: 177    -0.423336139604E+03   -0.80036E-04    0.11176E-03  6336   0.150E-03 0.148E-03
CGA: 178    -0.423336205498E+03   -0.65895E-04   -0.50429E-04  6336   0.189E-03 0.143E-03
CGA: 179    -0.423336419079E+03   -0.21358E-03    0.16227E-04  6336   0.838E-03-0.135E-04
CGA: 180    -0.423336851175E+03   -0.43210E-03    0.54873E-03  6336   0.148E-02 0.736E-03
CGA: 181    -0.423336789965E+03    0.61210E-04   -0.44112E-04  6336   0.327E-03 0.634E-03
CGA: 182    -0.423336752315E+03    0.37650E-04   -0.10274E-04  6336   0.166E-03 0.253E-03
CGA: 183    -0.423336750886E+03    0.14290E-05   -0.16332E-04  6336   0.169E-03 0.149E-03
CGA: 184    -0.423336892970E+03   -0.14208E-03    0.18037E-04  6336   0.302E-03 0.119E-03
CGA: 185    -0.423336866092E+03    0.26878E-04   -0.93358E-05  6336   0.175E-03 0.206E-03
CGA: 186    -0.423336857655E+03    0.84368E-05   -0.11977E-04  6336   0.164E-03 0.152E-03
CGA: 187    -0.423336963382E+03   -0.10573E-03    0.24594E-04  6336   0.201E-03 0.148E-03
CGA: 188    -0.423336947477E+03    0.15905E-04   -0.87917E-05  6336   0.162E-03 0.164E-03
CGA: 189    -0.423337329827E+03   -0.38235E-03    0.12940E-02  6336   0.195E-03 0.166E-03
CGA: 190    -0.423337597116E+03   -0.26729E-03    0.33175E-04  6336   0.112E-02 0.234E-04
CGA: 191    -0.423341561120E+03   -0.39640E-02   -0.90381E-04  6336   0.431E-01-0.108E-02
CGA: 192    -0.423342146008E+03   -0.58489E-03   -0.41219E-03  6336   0.315E-01 0.374E-01
CGA: 193    -0.423342645466E+03   -0.49946E-03   -0.38980E-03  6336   0.203E-01 0.257E-01
CGA: 194    -0.423343006781E+03   -0.36132E-03   -0.34373E-03  6336   0.105E-01 0.148E-01
CGA: 195    -0.423343166048E+03   -0.15927E-03   -0.25045E-03  6336   0.370E-02 0.627E-02
CGA: 196    -0.423343144535E+03    0.21513E-04   -0.12318E-03  6336   0.844E-03 0.163E-02
CGA: 197    -0.423343080796E+03    0.63739E-04   -0.37082E-04  6336   0.368E-03 0.491E-03
CGA: 198    -0.423343164841E+03   -0.84045E-04   -0.11704E-03  6336   0.264E-03 0.223E-03
CGA: 199    -0.423343355492E+03   -0.19065E-03   -0.26333E-03  6336   0.323E-02-0.129E-03
CGA: 200    -0.423343323342E+03    0.32150E-04   -0.85930E-04  6336   0.355E-02 0.580E-03
   1 F= -.42334332E+03 E0= -.42334095E+03  d E =-.423343E+03  mag=    10.0000
       N       E                     dE             d eps       ncg     rms          ort
SDA:   1    -0.423319265620E+03    0.24090E-01    0.00000E+00  6336   0.161E+00 0.000E+00
CGA:   2    -0.423333424902E+03   -0.14159E-01   -0.19407E-01  6336   0.117E+00-0.248E-01
CGA:   3    -0.423335216045E+03   -0.17911E-02   -0.10542E-02  6336   0.933E-01 0.883E-01
CGA:   4    -0.423337380461E+03   -0.21644E-02   -0.14073E-02  6336   0.563E-01 0.741E-01
CGA:   5    -0.423339196714E+03   -0.18163E-02   -0.13681E-02  6336   0.248E-01 0.370E-01
CGA:   6    -0.423340467933E+03   -0.12712E-02   -0.13070E-02  6336   0.102E-01 0.101E-01
CGA:   7    -0.423342147336E+03   -0.16794E-02   -0.18145E-02  6336   0.161E-01 0.354E-02
CGA:   8    -0.423343953526E+03   -0.18062E-02   -0.18484E-02  6336   0.311E-02-0.691E-03
CGA:   9    -0.423344489478E+03   -0.53595E-03   -0.37360E-03  6336   0.453E-02-0.990E-03
CGA:  10    -0.423344591679E+03   -0.10220E-03   -0.21173E-03  6336   0.236E-02 0.468E-03
CGA:  11    -0.423344548525E+03    0.43154E-04   -0.82617E-04  6336   0.776E-03 0.841E-03
CGA:  12    -0.423344513251E+03    0.35274E-04   -0.41992E-04  6336   0.678E-03 0.399E-03
CGA:  13    -0.423344920783E+03   -0.40753E-03    0.12753E-02  6336   0.340E-02-0.461E-03
CGA:  14    -0.423344886011E+03    0.34772E-04   -0.11528E-03  6336   0.465E-03 0.115E-02
CGA:  15    -0.423344844595E+03    0.41416E-04   -0.16406E-04  6336   0.179E-03 0.276E-03
CGA:  16    -0.423344843443E+03    0.11513E-05   -0.19187E-04  6336   0.157E-03 0.137E-03
CGA:  17    -0.423344989145E+03   -0.14570E-03    0.22228E-04  6336   0.401E-03 0.617E-04
CGA:  18    -0.423345015221E+03   -0.26076E-04   -0.71704E-04  6336   0.119E-03 0.370E-03
CGA:  19    -0.423345090968E+03   -0.75746E-04    0.44880E-04  6336   0.144E-03 0.101E-03
CGA:  20    -0.423345075037E+03    0.15931E-04   -0.62077E-05  6336   0.109E-03 0.112E-03
CGA:  21    -0.423345109074E+03   -0.34037E-04   -0.29714E-04  6336   0.113E-03 0.106E-03
CGA:  22    -0.423345204801E+03   -0.95727E-04    0.16205E-04  6336   0.198E-03 0.817E-04
CGA:  23    -0.423345184182E+03    0.20619E-04   -0.62803E-05  6336   0.115E-03 0.136E-03
CGA:  24    -0.423345175668E+03    0.85143E-05   -0.75127E-05  6336   0.106E-03 0.101E-03
CGA:  25    -0.423345240057E+03   -0.64389E-04    0.28150E-04  6336   0.122E-03 0.986E-04
CGA:  26    -0.423345229047E+03    0.11010E-04   -0.60155E-05  6336   0.103E-03 0.102E-03
CGA:  27    -0.423345505377E+03   -0.27633E-03    0.45777E-02  6336   0.144E-03 0.972E-04
CGA:  28    -0.423345482510E+03    0.22866E-04   -0.73703E-05  6336   0.975E-04 0.943E-04
CGA:  29    -0.423345563307E+03   -0.80797E-04    0.12372E-03  6336   0.107E-03 0.942E-04
CGA:  30    -0.423345550810E+03    0.12498E-04   -0.10294E-04  6336   0.106E-03 0.854E-04
CGA:  31    -0.423345704808E+03   -0.15400E-03    0.17224E-04  6336   0.506E-03 0.288E-04
CGA:  32    -0.423345939770E+03   -0.23496E-03   -0.23004E-03  6336   0.214E-03 0.492E-03
CGA:  33    -0.423346145492E+03   -0.20572E-03    0.10017E-03  6336   0.428E-02-0.604E-03
CGA:  34    -0.423346134581E+03    0.10911E-04   -0.14247E-03  6336   0.573E-03 0.153E-02
CGA:  35    -0.423346087649E+03    0.46932E-04   -0.19611E-04  6336   0.133E-03 0.297E-03
CGA:  36    -0.423346069646E+03    0.18003E-04   -0.65681E-05  6336   0.923E-04 0.930E-04
CGA:  37    -0.423346126261E+03   -0.56614E-04    0.24170E-02  6336   0.946E-04 0.879E-04
CGA:  38    -0.423346159530E+03   -0.33269E-04   -0.31174E-04  6336   0.111E-03 0.825E-04
CGA:  39    -0.423346293036E+03   -0.13351E-03    0.17645E-04  6336   0.376E-03 0.244E-04
CGA:  40    -0.423346325155E+03   -0.32119E-04   -0.76288E-04  6336   0.276E-03 0.300E-03
CGA:  41    -0.423346402103E+03   -0.76948E-04   -0.70499E-04  6336   0.411E-03-0.127E-03
CGA:  42    -0.423346380400E+03    0.21703E-04   -0.13422E-04  6336   0.394E-03 0.148E-03
CGA:  43    -0.423346381707E+03   -0.13061E-05   -0.51471E-04  6336   0.366E-03 0.277E-03
CGA:  44    -0.423346610987E+03   -0.22928E-03    0.37046E-03  6336   0.427E-02-0.888E-03
CGA:  45    -0.423346598230E+03    0.12758E-04   -0.14949E-03  6336   0.543E-03 0.146E-02
CGA:  46    -0.423346554676E+03    0.43554E-04   -0.18321E-04  6336   0.154E-03 0.311E-03
CGA:  47    -0.423346539034E+03    0.15642E-04   -0.70586E-05  6336   0.104E-03 0.112E-03
CGA:  48    -0.423346564910E+03   -0.25876E-04   -0.25485E-04  6336   0.107E-03 0.808E-04
CGA:  49    -0.423346646289E+03   -0.81379E-04    0.22196E-04  6336   0.144E-03 0.714E-04
CGA:  50    -0.423346630455E+03    0.15834E-04   -0.57239E-05  6336   0.993E-04 0.108E-03
CGA:  51    -0.423346634877E+03   -0.44228E-05   -0.13271E-04  6336   0.978E-04 0.897E-04
CGA:  52    -0.423346716744E+03   -0.81867E-04    0.13094E-04  6336   0.154E-03 0.760E-04
CGA:  53    -0.423346700315E+03    0.16429E-04   -0.51163E-05  6336   0.997E-04 0.113E-03
CGA:  54    -0.423346694754E+03    0.55616E-05   -0.73565E-05  6336   0.948E-04 0.899E-04
CGA:  55    -0.423346753863E+03   -0.59109E-04    0.20477E-04  6336   0.110E-03 0.879E-04
CGA:  56    -0.423346743995E+03    0.98678E-05   -0.52735E-05  6336   0.932E-04 0.937E-04
CGA:  57    -0.423346833147E+03   -0.89152E-04   -0.53356E-04  6336   0.941E-04 0.929E-04
CGA:  58    -0.423346891228E+03   -0.58081E-04    0.25777E-04  6336   0.107E-03 0.885E-04
CGA:  59    -0.423346881674E+03    0.95534E-05   -0.56933E-05  6336   0.926E-04 0.914E-04
CGA:  60    -0.423346922081E+03   -0.40407E-04    0.33049E-03  6336   0.931E-04 0.920E-04
CGA:  61    -0.423346934238E+03   -0.12157E-04   -0.15894E-04  6336   0.974E-04 0.897E-04
CGA:  62    -0.423347011819E+03   -0.77581E-04    0.11387E-04  6336   0.150E-03 0.734E-04
CGA:  63    -0.423346996817E+03    0.15002E-04   -0.47529E-05  6336   0.988E-04 0.112E-03
CGA:  64    -0.423346990949E+03    0.58676E-05   -0.63246E-05  6336   0.917E-04 0.889E-04
CGA:  65    -0.423347036650E+03   -0.45701E-04    0.31394E-04  6336   0.962E-04 0.888E-04
CGA:  66    -0.423347032457E+03    0.41933E-05   -0.67455E-05  6336   0.913E-04 0.880E-04
CGA:  67    -0.423347079530E+03   -0.47073E-04    0.23060E-04  6336   0.976E-04 0.871E-04
CGA:  68    -0.423347073829E+03    0.57012E-05   -0.57104E-05  6336   0.897E-04 0.881E-04
CGA:  69    -0.423347111097E+03   -0.37268E-04    0.56335E-04  6336   0.907E-04 0.884E-04
CGA:  70    -0.423347113851E+03   -0.27534E-05   -0.94631E-05  6336   0.908E-04 0.864E-04
CGA:  71    -0.423347166320E+03   -0.52469E-04    0.12868E-04  6336   0.104E-03 0.816E-04
CGA:  72    -0.423347158170E+03    0.81502E-05   -0.42193E-05  6336   0.880E-04 0.905E-04
CGA:  73    -0.423347172506E+03   -0.14337E-04   -0.14676E-04  6336   0.897E-04 0.858E-04
CGA:  74    -0.423347224785E+03   -0.52278E-04    0.10783E-04  6336   0.104E-03 0.789E-04
CGA:  75    -0.423347216683E+03    0.81020E-05   -0.38744E-05  6336   0.868E-04 0.901E-04
CGA:  76    -0.423347223100E+03   -0.64175E-05   -0.10267E-04  6336   0.872E-04 0.839E-04
CGA:  77    -0.423347268240E+03   -0.45139E-04    0.11711E-04  6336   0.950E-04 0.799E-04
CGA:  78    -0.423347262138E+03    0.61017E-05   -0.40645E-05  6336   0.842E-04 0.856E-04
CGA:  79    -0.423347284269E+03   -0.22131E-04   -0.17627E-04  6336   0.849E-04 0.828E-04
CGA:  80    -0.423347327378E+03   -0.43109E-04    0.11150E-04  6336   0.918E-04 0.780E-04
CGA:  81    -0.423347321671E+03    0.57062E-05   -0.39167E-05  6336   0.819E-04 0.832E-04
CGA:  82    -0.423347342507E+03   -0.20836E-04   -0.16675E-04  6336   0.823E-04 0.806E-04
CGA:  83    -0.423347382681E+03   -0.40174E-04    0.11140E-04  6336   0.877E-04 0.763E-04
CGA:  84    -0.423347377656E+03    0.50256E-05   -0.38799E-05  6336   0.794E-04 0.803E-04
CGA:  85    -0.423347404058E+03   -0.26402E-04   -0.19139E-04  6336   0.791E-04 0.783E-04
CGA:  86    -0.423347440427E+03   -0.36368E-04    0.12427E-04  6336   0.827E-04 0.746E-04
CGA:  87    -0.423347436391E+03    0.40355E-05   -0.40462E-05  6336   0.766E-04 0.767E-04
CGA:  88    -0.423347497024E+03   -0.60633E-04   -0.35901E-04  6336   0.735E-04 0.750E-04
CGA:  89    -0.423347589574E+03   -0.92550E-04   -0.52148E-04  6336   0.702E-04 0.708E-04
CGA:  90    -0.423347589459E+03    0.11506E-06   -0.65423E-05  6336   0.693E-04 0.669E-04
CGA:  91    -0.423347629012E+03   -0.39553E-04    0.12347E-04  6336   0.765E-04 0.638E-04
CGA:  92    -0.423347622249E+03    0.67625E-05   -0.31706E-05  6336   0.668E-04 0.682E-04
CGA:  93    -0.423347632506E+03   -0.10256E-04   -0.11127E-04  6336   0.669E-04 0.653E-04
CGA:  94    -0.423347670708E+03   -0.38203E-04    0.10086E-04  6336   0.742E-04 0.609E-04
CGA:  95    -0.423347664170E+03    0.65388E-05   -0.28260E-05  6336   0.645E-04 0.664E-04
   2 F= -.42334766E+03 E0= -.42334574E+03  d E =-.434083E-02  mag=    10.0000
       N       E                     dE             d eps       ncg     rms          ort
SDA:   1    -0.423347721083E+03   -0.50374E-04    0.00000E+00  6336   0.141E-02 0.000E+00
CGA:   2    -0.423347708942E+03    0.12140E-04   -0.64302E-04  6336   0.538E-03 0.662E-03
CGA:   3    -0.423347717444E+03   -0.85018E-05   -0.49257E-04  6336   0.481E-03 0.410E-03
CGA:   4    -0.423347947011E+03   -0.22957E-03    0.74735E-04  6336   0.107E-02-0.178E-03
CGA:   5    -0.423348039099E+03   -0.92088E-04   -0.92703E-04  6336   0.819E-03 0.252E-04
CGA:   6    -0.423348012827E+03    0.26272E-04   -0.21653E-04  6336   0.270E-03 0.388E-03
CGA:   7    -0.423347992261E+03    0.20566E-04   -0.75137E-05  6336   0.133E-03 0.222E-03
CGA:   8    -0.423347990815E+03    0.14455E-05   -0.75276E-05  6336   0.923E-04 0.103E-03
CGA:   9    -0.423348025144E+03   -0.34329E-04    0.19429E-04  6336   0.622E-04 0.699E-04
CGA:  10    -0.423348025422E+03   -0.27850E-06   -0.43414E-05  6336   0.568E-04 0.579E-04
CGA:  11    -0.423348043551E+03   -0.18129E-04    0.22304E-04  6336   0.522E-04 0.530E-04
CGA:  12    -0.423348043412E+03    0.13886E-06   -0.34311E-05  6336   0.503E-04 0.505E-04
CGA:  13    -0.423348124448E+03   -0.81035E-04   -0.29908E-03  6336   0.766E-04 0.418E-04
CGA:  14    -0.423348113886E+03    0.10561E-04   -0.21197E-05  6336   0.523E-04 0.598E-04
CGA:  15    -0.423348107458E+03    0.64281E-05   -0.23158E-05  6336   0.459E-04 0.468E-04
   3 F= -.42334811E+03 E0= -.42334625E+03  d E =-.443289E-03  mag=    10.0000
       N       E                     dE             d eps       ncg     rms          ort
SDA:   1    -0.423348199528E+03   -0.85642E-04    0.00000E+00  6336   0.539E-03 0.000E+00
CGA:   2    -0.423348174214E+03    0.25314E-04   -0.23202E-04  6336   0.227E-03 0.287E-03
CGA:   3    -0.423348196224E+03   -0.22009E-04   -0.31562E-04  6336   0.117E-03 0.132E-03
CGA:   4    -0.423348285747E+03   -0.89524E-04    0.14282E-04  6336   0.148E-03 0.498E-04
CGA:   5    -0.423348278425E+03    0.73227E-05   -0.12964E-04  6336   0.520E-04 0.139E-03
   4 F= -.42334828E+03 E0= -.42334644E+03  d E =-.170966E-03  mag=    10.0000
       N       E                     dE             d eps       ncg     rms          ort
SDA:   1    -0.423348355921E+03   -0.70174E-04    0.00000E+00  6336   0.219E-03 0.000E+00
CGA:   2    -0.423348340490E+03    0.15431E-04   -0.76857E-05  6336   0.122E-03 0.149E-03
CGA:   3    -0.423348338700E+03    0.17903E-05   -0.88592E-05  6336   0.871E-04 0.947E-04
CGA:   4    -0.423348380575E+03   -0.41876E-04    0.23199E-04  6336   0.656E-04 0.602E-04
CGA:   5    -0.423348374884E+03    0.56912E-05   -0.23430E-05  6336   0.528E-04 0.560E-04
   5 F= -.42334837E+03 E0= -.42334655E+03  d E =-.964594E-04  mag=    10.0000
