       N       E                     dE             d eps       ncg     rms          ort
DAV:   1     0.113030026017E+05    0.11303E+05   -0.60607E+05   720   0.157E+03
DAV:   2    -0.739052377156E+03   -0.12042E+05   -0.11533E+05   720   0.445E+02
DAV:   3    -0.204593913491E+04   -0.13069E+04   -0.12750E+04   720   0.159E+02
DAV:   4    -0.212245841323E+04   -0.76519E+02   -0.75337E+02   720   0.405E+01
DAV:   5    -0.212933676107E+04   -0.68783E+01   -0.68262E+01   720   0.798E+00
SDA:   6    -0.147178351515E+04    0.65755E+03   -0.68262E+01   720   0.196E+04 0.000E+00
CGA:   7    -0.166682840309E+04   -0.19504E+03   -0.21440E+03   720   0.940E+03 0.202E+03
CGA:   8    -0.170107034825E+04   -0.34242E+02   -0.73746E+02   720   0.307E+03-0.360E+02
CGA:   9    -0.170429319983E+04   -0.32229E+01   -0.22198E+02   720   0.547E+03-0.111E+03
CGA:  10    -0.171891047450E+04   -0.14617E+02   -0.15213E+02   720   0.341E+03-0.610E+02
CGA:  11    -0.172230630177E+04   -0.33958E+01   -0.20241E+02   720   0.166E+03-0.486E+02
CGA:  12    -0.172445628998E+04   -0.21500E+01   -0.11368E+02   720   0.116E+03-0.138E+02
CGA:  13    -0.173043064678E+04   -0.59744E+01   -0.76278E+01   720   0.151E+03 0.230E+01
CGA:  14    -0.173283094688E+04   -0.24003E+01   -0.96364E+01   720   0.106E+03-0.126E+02
CGA:  15    -0.173414875837E+04   -0.13178E+01   -0.55488E+01   720   0.526E+02-0.535E+02
CGA:  16    -0.173654067739E+04   -0.23919E+01   -0.39394E+01   720   0.351E+02 0.112E+02
CGA:  17    -0.173696413106E+04   -0.42345E+00   -0.18684E+01   720   0.175E+03-0.490E+02
CGA:  18    -0.173716518009E+04   -0.20105E+00   -0.98767E+01   720   0.141E+03-0.356E+02
CGA:  19    -0.173718942135E+04   -0.24241E-01   -0.68001E+01   720   0.571E+02-0.201E+02
CGA:  20    -0.174000484987E+04   -0.28154E+01   -0.19618E+01   720   0.634E+02 0.256E+02
CGA:  21    -0.173240028825E+04    0.76046E+01   -0.39394E+01   720   0.126E+03-0.696E+02
CGA:  22    -0.173693230599E+04   -0.45320E+01   -0.74257E+01   720   0.676E+02-0.358E+02
CGA:  23    -0.173938464266E+04   -0.24523E+01   -0.27326E+01   720   0.287E+02-0.306E+02
CGA:  24    -0.173986593445E+04   -0.48129E+00   -0.42634E+00   720   0.702E+02 0.149E+02
CGA:  25    -0.173859332701E+04    0.12726E+01   -0.30894E+01   720   0.824E+02-0.309E+02
CGA:  26    -0.173824600382E+04    0.34732E+00   -0.22311E+01   720   0.146E+03-0.824E+01
CGA:  27    -0.173803647066E+04    0.20953E+00   -0.43736E+01   720   0.924E+02-0.656E+02
CGA:  28    -0.174050357259E+04   -0.24671E+01   -0.21996E+01   720   0.379E+02-0.285E+02
CGA:  29    -0.174052805925E+04   -0.24487E-01   -0.61056E+00   720   0.589E+02-0.315E+02
CGA:  30    -0.174095818122E+04   -0.43012E+00   -0.18575E+01   720   0.118E+02-0.157E+02
CGA:  31    -0.174117882712E+04   -0.22065E+00   -0.13412E+00   720   0.529E+01 0.587E+01
CGA:  32    -0.174132222717E+04   -0.14340E+00   -0.73620E-01   720   0.254E+01 0.617E+01
CGA:  33    -0.174136090832E+04   -0.38681E-01   -0.23867E-01   720   0.748E+00 0.144E+01
CGA:  34    -0.174137528484E+04   -0.14377E-01   -0.10799E-01   720   0.179E+00 0.208E+00
CGA:  35    -0.174138790658E+04   -0.12622E-01   -0.12154E-01   720   0.839E+00-0.498E-02
CGA:  36    -0.174141086879E+04   -0.22962E-01   -0.15770E-01   720   0.164E+01 0.335E+00
CGA:  37    -0.174143372638E+04   -0.22858E-01   -0.13712E-01   720   0.121E+01 0.152E+01
CGA:  38    -0.174145537141E+04   -0.21645E-01   -0.25762E-01   720   0.280E+00-0.122E+00
CGA:  39    -0.174146871501E+04   -0.13344E-01   -0.13395E-01   720   0.297E+00 0.285E-04
CGA:  40    -0.174148441706E+04   -0.15702E-01   -0.15831E-01   720   0.428E+00 0.390E-02
CGA:  41    -0.174151799322E+04   -0.33576E-01   -0.39214E-01   720   0.188E+01-0.191E+00
CGA:  42    -0.174152692719E+04   -0.89340E-02   -0.61097E-02   720   0.202E+01 0.505E+00
CGA:  43    -0.174155594648E+04   -0.29019E-01   -0.24455E-01   720   0.766E+00 0.597E+00
CGA:  44    -0.174156757954E+04   -0.11633E-01   -0.17713E-01   720   0.468E+00-0.217E+00
CGA:  45    -0.174157488196E+04   -0.73024E-02   -0.77339E-02   720   0.389E+00-0.123E-01
CGA:  46    -0.174158176682E+04   -0.68849E-02   -0.79947E-02   720   0.135E+00-0.455E-01
CGA:  47    -0.174158525452E+04   -0.34877E-02   -0.35125E-02   720   0.118E+00-0.192E-02
CGA:  48    -0.174158914025E+04   -0.38857E-02   -0.38819E-02   720   0.889E-01 0.186E-02
CGA:  49    -0.174159165782E+04   -0.25176E-02   -0.25128E-02   720   0.569E-01-0.112E-03
CGA:  50    -0.174159378486E+04   -0.21270E-02   -0.20954E-02   720   0.680E-01-0.229E-02
CGA:  51    -0.174159675188E+04   -0.29670E-02   -0.29572E-02   720   0.919E-01-0.239E-02
CGA:  52    -0.174160023456E+04   -0.34827E-02   -0.35121E-02   720   0.956E-01-0.269E-02
CGA:  53    -0.174160381055E+04   -0.35760E-02   -0.35847E-02   720   0.458E-01-0.388E-02
CGA:  54    -0.174160537010E+04   -0.15596E-02   -0.15461E-02   720   0.355E-01-0.350E-03
CGA:  55    -0.174160665696E+04   -0.12869E-02   -0.12905E-02   720   0.190E-01 0.134E-02
CGA:  56    -0.174160753181E+04   -0.87485E-03   -0.87314E-03   720   0.239E-01-0.667E-03
CGA:  57    -0.174160877805E+04   -0.12462E-02   -0.12650E-02   720   0.259E-01-0.310E-02
CGA:  58    -0.174160968681E+04   -0.90876E-03   -0.90405E-03   720   0.171E-01-0.544E-03
CGA:  59    -0.174161014841E+04   -0.46160E-03   -0.48129E-03   720   0.889E-02 0.706E-03
CGA:  60    -0.174161069044E+04   -0.54203E-03   -0.53482E-03   720   0.149E-01 0.670E-03
CGA:  61    -0.174161164074E+04   -0.95030E-03   -0.97127E-03   720   0.287E-01-0.121E-02
CGA:  62    -0.174161276581E+04   -0.11251E-02   -0.11078E-02   720   0.374E-01-0.164E-02
CGA:  63    -0.174161376183E+04   -0.99602E-03   -0.10527E-02   720   0.279E-01-0.221E-02
CGA:  64    -0.174161507516E+04   -0.13133E-02   -0.13046E-02   720   0.184E-01 0.664E-03
CGA:  65    -0.174161598234E+04   -0.90718E-03   -0.91271E-03   720   0.339E-01-0.395E-02
CGA:  66    -0.174161694032E+04   -0.95798E-03   -0.75185E-03   720   0.695E-01-0.109E-02
CGA:  67    -0.174161796221E+04   -0.10219E-02   -0.67153E-03   720   0.759E-01 0.211E-01
SDA:  68    -0.174161949025E+04   -0.15280E-02   -0.12374E-02   720   0.615E-01 0.967E-02
CGA:  69    -0.174162118753E+04   -0.16973E-02   -0.17392E-02   720   0.152E-01 0.579E-03
CGA:  70    -0.174162278307E+04   -0.15955E-02   -0.16640E-02   720   0.295E-01-0.106E-02
CGA:  71    -0.174162628353E+04   -0.35005E-02   -0.41700E-02   720   0.376E-01-0.658E-02
CGA:  72    -0.174162785795E+04   -0.15744E-02   -0.15695E-02   720   0.178E-01 0.132E-02
CGA:  73    -0.174162944742E+04   -0.15895E-02   -0.16072E-02   720   0.312E-01-0.388E-03
CGA:  74    -0.174163138905E+04   -0.19416E-02   -0.19613E-02   720   0.130E-01-0.142E-02
CGA:  75    -0.174163189100E+04   -0.50195E-03   -0.49956E-03   720   0.930E-02-0.517E-03
CGA:  76    -0.174163281356E+04   -0.92255E-03   -0.99875E-03   720   0.166E-01-0.135E-02
CGA:  77    -0.174163353189E+04   -0.71834E-03   -0.71551E-03   720   0.861E-02-0.448E-03
CGA:  78    -0.174163383086E+04   -0.29897E-03   -0.29558E-03   720   0.410E-02-0.249E-03
CGA:  79    -0.174163418153E+04   -0.35067E-03   -0.39203E-03   720   0.100E-01-0.981E-03
CGA:  80    -0.174163467626E+04   -0.49473E-03   -0.50534E-03   720   0.137E-01-0.941E-03
CGA:  81    -0.174163503096E+04   -0.35470E-03   -0.36073E-03   720   0.497E-02 0.350E-03
CGA:  82    -0.174163517401E+04   -0.14304E-03   -0.14510E-03   720   0.267E-02-0.108E-04
CGA:  83    -0.174163533189E+04   -0.15788E-03   -0.16107E-03   720   0.459E-02-0.546E-03
CGA:  84    -0.174163556442E+04   -0.23253E-03   -0.23806E-03   720   0.104E-01-0.512E-03
CGA:  85    -0.174163588579E+04   -0.32137E-03   -0.32228E-03   720   0.691E-02 0.512E-03
CGA:  86    -0.174163601807E+04   -0.13228E-03   -0.15123E-03   720   0.210E-02 0.384E-03
CGA:  87    -0.174163609335E+04   -0.75281E-04   -0.78556E-04   720   0.275E-02 0.155E-03
CGA:  88    -0.174163628058E+04   -0.18723E-03   -0.18578E-03   720   0.461E-02 0.106E-03
CGA:  89    -0.174163643612E+04   -0.15554E-03   -0.15810E-03   720   0.378E-02 0.349E-03
CGA:  90    -0.174163654243E+04   -0.10631E-03   -0.11700E-03   720   0.253E-02 0.553E-03
CGA:  91    -0.174163661023E+04   -0.67794E-04   -0.75537E-04   720   0.167E-02 0.268E-03
CGA:  92    -0.174163670914E+04   -0.98916E-04   -0.99221E-04   720   0.379E-02-0.830E-04
CGA:  93    -0.174163686679E+04   -0.15765E-03   -0.15463E-03   720   0.508E-02-0.289E-03
CGA:  94    -0.174163695805E+04   -0.91258E-04   -0.89283E-04   720   0.365E-02 0.433E-03
CGA:  95    -0.174163702207E+04   -0.64024E-04   -0.73439E-04   720   0.230E-02 0.337E-03
CGA:  96    -0.174163706166E+04   -0.39591E-04   -0.47064E-04   720   0.143E-02 0.189E-03
CGA:  97    -0.174163709967E+04   -0.38007E-04   -0.39482E-04   720   0.163E-02 0.226E-04
CGA:  98    -0.174163717994E+04   -0.80273E-04   -0.80392E-04   720   0.372E-02-0.598E-04
SDA:  99    -0.174163729829E+04   -0.11835E-03   -0.11873E-03   720   0.327E-02 0.242E-03
CGA: 100    -0.174163737764E+04   -0.79354E-04   -0.89320E-04   720   0.421E-03 0.649E-03
CGA: 101    -0.174163739694E+04   -0.19297E-04   -0.19752E-04   720   0.249E-03 0.133E-03
CGA: 102    -0.174163743408E+04   -0.37141E-04   -0.43485E-04   720   0.105E-02-0.716E-04
CGA: 103    -0.174163745482E+04   -0.20735E-04   -0.22454E-04   720   0.134E-02 0.108E-03
CGA: 104    -0.174163748624E+04   -0.31426E-04   -0.36516E-04   720   0.607E-03 0.246E-03
CGA: 105    -0.174163750234E+04   -0.16101E-04   -0.17525E-04   720   0.250E-03 0.691E-04
CGA: 106    -0.174163751547E+04   -0.13123E-04   -0.13750E-04   720   0.392E-03-0.116E-03
CGA: 107    -0.174163752369E+04   -0.82269E-05   -0.76758E-05   720   0.687E-03-0.686E-04
CGA: 108    -0.174163753944E+04   -0.15746E-04   -0.16125E-04   720   0.560E-03 0.385E-04
CGA: 109    -0.174163755152E+04   -0.12081E-04   -0.13474E-04   720   0.277E-03 0.769E-04
CGA: 110    -0.174163755928E+04   -0.77591E-05   -0.77918E-05   720   0.137E-03 0.158E-05
   1 F= -.17416376E+04 E0= -.17416098E+04  d E =-.174164E+04  mag=    46.0000
       N       E                     dE             d eps       ncg     rms          ort
SDA:   1    -0.174164080112E+04   -0.32496E-02    0.00000E+00   720   0.360E+00 0.000E+00
CGA:   2    -0.174165021093E+04   -0.94098E-02   -0.95103E-02   720   0.258E-01-0.422E-02
CGA:   3    -0.174165106530E+04   -0.85437E-03   -0.86587E-03   720   0.318E-02 0.135E-02
CGA:   4    -0.174165130349E+04   -0.23820E-03   -0.22490E-03   720   0.307E-02 0.496E-03
CGA:   5    -0.174165161836E+04   -0.31486E-03   -0.28792E-03   720   0.115E-02 0.689E-03
CGA:   6    -0.174165166081E+04   -0.42449E-04   -0.47154E-04   720   0.418E-03 0.440E-03
CGA:   7    -0.174165168552E+04   -0.24718E-04   -0.17505E-04   720   0.326E-02-0.576E-03
CGA:   8    -0.174165179919E+04   -0.11366E-03   -0.11668E-03   720   0.284E-03 0.958E-04
CGA:   9    -0.174165180812E+04   -0.89387E-05   -0.10831E-04   720   0.102E-03 0.461E-04
CGA:  10    -0.174165166987E+04    0.13826E-03   -0.74893E-04   720   0.463E-02-0.487E-03
CGA:  11    -0.174165177068E+04   -0.10081E-03   -0.12973E-03   720   0.613E-03 0.286E-03
CGA:  12    -0.174165180528E+04   -0.34598E-04   -0.34910E-04   720   0.371E-03 0.324E-05
CGA:  13    -0.174165184236E+04   -0.37081E-04   -0.32833E-04   720   0.228E-03-0.107E-03
CGA:  14    -0.174165184663E+04   -0.42747E-05   -0.54345E-05   720   0.567E-04 0.119E-04
   2 F= -.17416518E+04 E0= -.17416241E+04  d E =-.142874E-01  mag=    46.0000
       N       E                     dE             d eps       ncg     rms          ort
SDA:   1    -0.173976265643E+04    0.18892E+01    0.00000E+00   720   0.165E+02 0.000E+00
CGA:   2    -0.174031486376E+04   -0.55221E+00   -0.10750E+01   720   0.146E+02-0.131E+01
CGA:   3    -0.174144057481E+04   -0.11257E+01   -0.86675E+00   720   0.470E+01 0.238E+01
CGA:   4    -0.174166171202E+04   -0.22114E+00   -0.23165E+00   720   0.431E+01-0.277E+00
CGA:   5    -0.174185914861E+04   -0.19744E+00   -0.20875E+00   720   0.442E+01-0.160E+00
CGA:   6    -0.174205000777E+04   -0.19086E+00   -0.19624E+00   720   0.263E+01-0.963E-01
CGA:   7    -0.174211722992E+04   -0.67222E-01   -0.69816E-01   720   0.777E+00-0.491E-01
CGA:   8    -0.174214579107E+04   -0.28561E-01   -0.26502E-01   720   0.471E+00 0.454E-01
CGA:   9    -0.174217597242E+04   -0.30181E-01   -0.29543E-01   720   0.538E+00-0.209E-02
CGA:  10    -0.174220027421E+04   -0.24302E-01   -0.24736E-01   720   0.358E+00-0.121E-01
CGA:  11    -0.174221095949E+04   -0.10685E-01   -0.11630E-01   720   0.952E-01-0.159E-01
CGA:  12    -0.174221364538E+04   -0.26859E-02   -0.28637E-02   720   0.516E-01-0.174E-02
CGA:  13    -0.174221726410E+04   -0.36187E-02   -0.35777E-02   720   0.863E-01-0.254E-02
CGA:  14    -0.174222173017E+04   -0.44661E-02   -0.43897E-02   720   0.760E-01-0.245E-02
CGA:  15    -0.174222442591E+04   -0.26957E-02   -0.28148E-02   720   0.264E-01 0.165E-02
CGA:  16    -0.174222524569E+04   -0.81978E-03   -0.88796E-03   720   0.138E-01 0.761E-03
CGA:  17    -0.174222651134E+04   -0.12657E-02   -0.12713E-02   720   0.334E-01-0.590E-03
CGA:  18    -0.174222824666E+04   -0.17353E-02   -0.17384E-02   720   0.236E-01 0.117E-04
CGA:  19    -0.174222893384E+04   -0.68717E-03   -0.76011E-03   720   0.765E-02 0.108E-02
CGA:  20    -0.174222919332E+04   -0.25949E-03   -0.27822E-03   720   0.500E-02 0.412E-03
CGA:  21    -0.174222967470E+04   -0.48137E-03   -0.48555E-03   720   0.131E-01-0.253E-03
CGA:  22    -0.174223021780E+04   -0.54310E-03   -0.55262E-03   720   0.666E-02 0.270E-03
CGA:  23    -0.174223036952E+04   -0.15172E-03   -0.17422E-03   720   0.228E-02 0.465E-03
CGA:  24    -0.174223045925E+04   -0.89732E-04   -0.96859E-04   720   0.209E-02 0.246E-03
CGA:  25    -0.174223058017E+04   -0.12092E-03   -0.12189E-03   720   0.262E-02 0.725E-04
CGA:  26    -0.174223072230E+04   -0.14214E-03   -0.14504E-03   720   0.326E-02 0.189E-03
CGA:  27    -0.174223085690E+04   -0.13459E-03   -0.13806E-03   720   0.169E-02 0.113E-03
CGA:  28    -0.174223093340E+04   -0.76505E-04   -0.67608E-04   720   0.104E-02-0.332E-03
CGA:  29    -0.174223098373E+04   -0.50326E-04   -0.48081E-04   720   0.147E-02-0.304E-03
CGA:  30    -0.174223102382E+04   -0.40094E-04   -0.45414E-04   720   0.153E-02 0.250E-03
CGA:  31    -0.174223106566E+04   -0.41840E-04   -0.54765E-04   720   0.536E-03 0.397E-03
SDA:  32    -0.174223109537E+04   -0.29712E-04   -0.29005E-04   720   0.421E-03-0.367E-04
CGA:  33    -0.174223110946E+04   -0.14083E-04   -0.13869E-04   720   0.172E-03-0.103E-04
CGA:  34    -0.174223113130E+04   -0.21840E-04   -0.19299E-04   720   0.199E-03 0.448E-04
CGA:  35    -0.174223115163E+04   -0.20334E-04   -0.20737E-04   720   0.140E-03-0.205E-04
CGA:  36    -0.174223115458E+04   -0.29521E-05   -0.45645E-05   720   0.460E-04 0.594E-04
   3 F= -.17422312E+04 E0= -.17422042E+04  d E =-.579308E+00  mag=    46.0000
       N       E                     dE             d eps       ncg     rms          ort
SDA:   1    -0.173472422411E+04    0.75069E+01    0.00000E+00   720   0.557E+02 0.000E+00
CGA:   2    -0.173693758989E+04   -0.22134E+01   -0.25600E+01   720   0.296E+02 0.308E+01
CGA:   3    -0.173708489614E+04   -0.14731E+00   -0.41438E+01   720   0.315E+03-0.826E+02
CGA:   4    -0.174018268394E+04   -0.30978E+01   -0.10479E+02   720   0.167E+02-0.153E+02
CGA:   5    -0.174056820046E+04   -0.38552E+00   -0.18966E+00   720   0.150E+02 0.169E+02
CGA:   6    -0.174082212162E+04   -0.25392E+00   -0.11493E+00   720   0.165E+02 0.187E+02
CGA:   7    -0.174112097545E+04   -0.29885E+00   -0.12941E+00   720   0.179E+02 0.217E+02
CGA:   8    -0.174148032961E+04   -0.35935E+00   -0.17014E+00   720   0.120E+02 0.183E+02
CGA:   9    -0.174171822175E+04   -0.23789E+00   -0.15486E+00   720   0.277E+01 0.502E+01
CGA:  10    -0.174179476255E+04   -0.76541E-01   -0.68785E-01   720   0.382E+01 0.239E+00
CGA:  11    -0.174195294063E+04   -0.15818E+00   -0.15967E+00   720   0.178E+02-0.200E-02
CGA:  12    -0.174224071120E+04   -0.28777E+00   -0.28895E+00   720   0.182E+02-0.894E-01
CGA:  13    -0.174240157784E+04   -0.16087E+00   -0.22945E+00   720   0.766E+01-0.397E+01
CGA:  14    -0.174246751116E+04   -0.65933E-01   -0.78302E-01   720   0.336E+01-0.700E+00
CGA:  15    -0.174251056643E+04   -0.43055E-01   -0.46655E-01   720   0.178E+01-0.159E+00
CGA:  16    -0.174254532816E+04   -0.34762E-01   -0.34832E-01   720   0.150E+01 0.792E-02
CGA:  17    -0.174258252387E+04   -0.37196E-01   -0.34596E-01   720   0.179E+01 0.731E-01
CGA:  18    -0.174261768500E+04   -0.35161E-01   -0.28538E-01   720   0.206E+01 0.371E+00
CGA:  19    -0.174265958511E+04   -0.41900E-01   -0.39579E-01   720   0.242E+01 0.128E+00
CGA:  20    -0.174269217381E+04   -0.32589E-01   -0.31797E-01   720   0.197E+01 0.566E-01
CGA:  21    -0.174271237286E+04   -0.20199E-01   -0.23672E-01   720   0.129E+01-0.232E+00
CGA:  22    -0.174272584191E+04   -0.13469E-01   -0.15979E-01   720   0.803E+00-0.123E+00
CGA:  23    -0.174273687912E+04   -0.11037E-01   -0.11706E-01   720   0.499E+00-0.308E-01
CGA:  24    -0.174274742502E+04   -0.10546E-01   -0.10733E-01   720   0.464E+00 0.501E-02
CGA:  25    -0.174275890739E+04   -0.11482E-01   -0.11397E-01   720   0.488E+00 0.925E-02
CGA:  26    -0.174277168024E+04   -0.12773E-01   -0.12782E-01   720   0.682E+00 0.894E-02
CGA:  27    -0.174278980664E+04   -0.18126E-01   -0.18080E-01   720   0.770E+00-0.308E-02
CGA:  28    -0.174280347470E+04   -0.13668E-01   -0.13725E-01   720   0.437E+00-0.174E-01
CGA:  29    -0.174281037965E+04   -0.69049E-02   -0.69243E-02   720   0.199E+00-0.142E-01
CGA:  30    -0.174281406810E+04   -0.36885E-02   -0.36791E-02   720   0.151E+00-0.259E-02
CGA:  31    -0.174281787020E+04   -0.38021E-02   -0.38161E-02   720   0.180E+00 0.372E-02
CGA:  32    -0.174282269084E+04   -0.48206E-02   -0.48313E-02   720   0.218E+00 0.555E-02
CGA:  33    -0.174282849836E+04   -0.58075E-02   -0.58188E-02   720   0.230E+00 0.216E-02
CGA:  34    -0.174283342652E+04   -0.49282E-02   -0.48887E-02   720   0.135E+00-0.696E-02
CGA:  35    -0.174283581310E+04   -0.23866E-02   -0.23390E-02   720   0.603E-01-0.716E-02
CGA:  36    -0.174283702295E+04   -0.12099E-02   -0.11921E-02   720   0.436E-01-0.301E-02
CGA:  37    -0.174283829417E+04   -0.12712E-02   -0.12714E-02   720   0.628E-01-0.121E-03
CGA:  38    -0.174284063244E+04   -0.23383E-02   -0.23194E-02   720   0.969E-01 0.209E-02
SDA:  39    -0.174284355794E+04   -0.29255E-02   -0.29243E-02   720   0.765E-01 0.108E-02
CGA:  40    -0.174284622128E+04   -0.26633E-02   -0.26814E-02   720   0.180E-01-0.317E-02
CGA:  41    -0.174284729745E+04   -0.10762E-02   -0.10051E-02   720   0.137E-01 0.238E-02
CGA:  42    -0.174284925720E+04   -0.19598E-02   -0.17322E-02   720   0.100E-01 0.276E-02
CGA:  43    -0.174285014429E+04   -0.88709E-03   -0.87213E-03   720   0.766E-02 0.354E-03
CGA:  44    -0.174285094162E+04   -0.79732E-03   -0.76924E-03   720   0.722E-02 0.463E-03
CGA:  45    -0.174285136539E+04   -0.42378E-03   -0.41622E-03   720   0.344E-02 0.490E-03
CGA:  46    -0.174285161214E+04   -0.24675E-03   -0.23137E-03   720   0.296E-02 0.660E-03
CGA:  47    -0.174285202328E+04   -0.41114E-03   -0.30435E-04   720   0.170E-01-0.236E-02
CGA:  48    -0.174285251625E+04   -0.49296E-03   -0.52104E-03   720   0.174E-02 0.789E-03
CGA:  49    -0.174285256681E+04   -0.50566E-04   -0.69048E-04   720   0.769E-03 0.540E-03
CGA:  50    -0.174285267615E+04   -0.10934E-03   -0.10183E-03   720   0.128E-02 0.255E-03
CGA:  51    -0.174285281757E+04   -0.14142E-03   -0.14680E-03   720   0.200E-02-0.397E-03
CGA:  52    -0.174285287236E+04   -0.54790E-04   -0.56093E-04   720   0.153E-02 0.382E-04
CGA:  53    -0.174285291654E+04   -0.44180E-04   -0.51083E-04   720   0.124E-02 0.177E-03
CGA:  54    -0.174285301058E+04   -0.94043E-04   -0.93940E-04   720   0.195E-02-0.530E-04
CGA:  55    -0.174285311532E+04   -0.10474E-03   -0.94264E-04   720   0.200E-02-0.565E-03
CGA:  56    -0.174285317963E+04   -0.64313E-04   -0.55417E-04   720   0.162E-02-0.308E-03
CGA:  57    -0.174285321257E+04   -0.32940E-04   -0.37228E-04   720   0.112E-02 0.106E-03
CGA:  58    -0.174285324418E+04   -0.31609E-04   -0.40219E-04   720   0.114E-02 0.278E-03
CGA:  59    -0.174285329354E+04   -0.49366E-04   -0.54935E-04   720   0.844E-03 0.238E-03
CGA:  60    -0.174285333449E+04   -0.40947E-04   -0.40543E-04   720   0.594E-03-0.107E-04
CGA:  61    -0.174285335440E+04   -0.19910E-04   -0.20076E-04   720   0.353E-03 0.690E-05
CGA:  62    -0.174285336749E+04   -0.13086E-04   -0.13743E-04   720   0.394E-03 0.303E-04
CGA:  63    -0.174285339832E+04   -0.30828E-04   -0.31403E-04   720   0.605E-03-0.393E-04
CGA:  64    -0.174285341545E+04   -0.17139E-04   -0.16900E-04   720   0.322E-03-0.103E-04
CGA:  65    -0.174285341913E+04   -0.36718E-05   -0.68990E-05   720   0.180E-03 0.904E-04
   4 F= -.17428534E+04 E0= -.17428282E+04  d E =-.622265E+00  mag=    46.0000
       N       E                     dE             d eps       ncg     rms          ort
SDA:   1    -0.173960053706E+04    0.32529E+01    0.00000E+00   720   0.221E+02 0.000E+00
CGA:   2    -0.174045043882E+04   -0.84990E+00   -0.91252E+00   720   0.139E+02 0.367E+00
CGA:   3    -0.174211433277E+04   -0.16639E+01   -0.17413E+01   720   0.962E+01-0.129E+01
CGA:   4    -0.174247293549E+04   -0.35860E+00   -0.36773E+00   720   0.234E+01 0.114E+00
CGA:   5    -0.174274767166E+04   -0.27474E+00   -0.27395E+00   720   0.412E+01 0.168E-01
CGA:   6    -0.174291264511E+04   -0.16497E+00   -0.16985E+00   720   0.120E+01 0.211E-01
CGA:   7    -0.174296376067E+04   -0.51116E-01   -0.52146E-01   720   0.411E+00 0.479E-02
CGA:   8    -0.174299630224E+04   -0.32542E-01   -0.32583E-01   720   0.384E+00-0.124E-02
CGA:   9    -0.174302097644E+04   -0.24674E-01   -0.24650E-01   720   0.163E+00 0.118E-02
CGA:  10    -0.174302824736E+04   -0.72709E-02   -0.72750E-02   720   0.573E-01-0.617E-03
CGA:  11    -0.174303257061E+04   -0.43232E-02   -0.43823E-02   720   0.884E-01-0.334E-02
CGA:  12    -0.174303944959E+04   -0.68790E-02   -0.67544E-02   720   0.514E-01 0.526E-02
CGA:  13    -0.174304214058E+04   -0.26910E-02   -0.26794E-02   720   0.198E-01-0.220E-02
CGA:  14    -0.174304535841E+04   -0.32178E-02   -0.32118E-02   720   0.334E-01 0.787E-04
CGA:  15    -0.174304774417E+04   -0.23858E-02   -0.24020E-02   720   0.244E-01-0.286E-02
CGA:  16    -0.174304886488E+04   -0.11207E-02   -0.11329E-02   720   0.932E-02 0.123E-02
CGA:  17    -0.174305016001E+04   -0.12951E-02   -0.13098E-02   720   0.143E-01-0.204E-03
CGA:  18    -0.174305113206E+04   -0.97205E-03   -0.97258E-03   720   0.867E-02-0.511E-03
CGA:  19    -0.174305150052E+04   -0.36846E-03   -0.37619E-03   720   0.357E-02 0.311E-03
CGA:  20    -0.174305183035E+04   -0.32983E-03   -0.31845E-03   720   0.257E-02 0.616E-03
CGA:  21    -0.174305210550E+04   -0.27515E-03   -0.29610E-03   720   0.541E-02-0.699E-03
CGA:  22    -0.174305227838E+04   -0.17288E-03   -0.17353E-03   720   0.302E-02 0.145E-04
CGA:  23    -0.174305234241E+04   -0.64028E-04   -0.82043E-04   720   0.157E-02 0.431E-03
CGA:  24    -0.174305240249E+04   -0.60082E-04   -0.71633E-04   720   0.144E-02 0.449E-03
CGA:  25    -0.174305248220E+04   -0.79712E-04   -0.81660E-04   720   0.113E-02 0.117E-03
CGA:  26    -0.174305254355E+04   -0.61346E-04   -0.59608E-04   720   0.102E-02-0.108E-03
CGA:  27    -0.174305258062E+04   -0.37077E-04   -0.37891E-04   720   0.103E-02 0.356E-04
CGA:  28    -0.174305262822E+04   -0.47596E-04   -0.48365E-04   720   0.882E-03 0.439E-04
CGA:  29    -0.174305267330E+04   -0.45083E-04   -0.42886E-04   720   0.732E-03-0.155E-03
CGA:  30    -0.174305269681E+04   -0.23504E-04   -0.22160E-04   720   0.340E-03-0.558E-04
CGA:  31    -0.174305270212E+04   -0.53130E-05   -0.71796E-05   720   0.166E-03 0.515E-04
   5 F= -.17430527E+04 E0= -.17430284E+04  d E =-.199283E+00  mag=    46.0000
       N       E                     dE             d eps       ncg     rms          ort
SDA:   1    -0.173895425203E+04    0.40984E+01    0.00000E+00   720   0.160E+02 0.000E+00
CGA:   2    -0.174010089915E+04   -0.11466E+01   -0.11445E+01   720   0.242E+02 0.330E+00
CGA:   3    -0.174215494609E+04   -0.20540E+01   -0.20641E+01   720   0.580E+01-0.392E+00
CGA:   4    -0.174249593417E+04   -0.34099E+00   -0.34238E+00   720   0.456E+01-0.457E+00
CGA:   5    -0.174291056284E+04   -0.41463E+00   -0.41141E+00   720   0.290E+01 0.726E-01
CGA:   6    -0.174302715316E+04   -0.11659E+00   -0.11768E+00   720   0.864E+00 0.117E-01
CGA:   7    -0.174307447781E+04   -0.47325E-01   -0.47194E-01   720   0.619E+00-0.950E-03
CGA:   8    -0.174310464842E+04   -0.30171E-01   -0.30101E-01   720   0.450E+00-0.113E-01
CGA:   9    -0.174313093397E+04   -0.26286E-01   -0.26288E-01   720   0.171E+00-0.252E-02
CGA:  10    -0.174313852614E+04   -0.75922E-02   -0.76036E-02   720   0.776E-01 0.192E-02
CGA:  11    -0.174314338255E+04   -0.48564E-02   -0.48607E-02   720   0.950E-01-0.128E-02
CGA:  12    -0.174315002830E+04   -0.66457E-02   -0.65991E-02   720   0.659E-01 0.351E-02
CGA:  13    -0.174315312367E+04   -0.30954E-02   -0.30706E-02   720   0.361E-01-0.187E-02
CGA:  14    -0.174315595921E+04   -0.28355E-02   -0.28542E-02   720   0.333E-01-0.106E-02
CGA:  15    -0.174315773222E+04   -0.17730E-02   -0.17832E-02   720   0.252E-01 0.206E-02
CGA:  16    -0.174315972207E+04   -0.19899E-02   -0.20178E-02   720   0.289E-01-0.192E-02
CGA:  17    -0.174316166939E+04   -0.19473E-02   -0.19373E-02   720   0.159E-01 0.781E-03
CGA:  18    -0.174316253917E+04   -0.86978E-03   -0.87671E-03   720   0.941E-02 0.100E-02
CGA:  19    -0.174316324979E+04   -0.71062E-03   -0.72421E-03   720   0.112E-01-0.117E-02
CGA:  20    -0.174316398086E+04   -0.73107E-03   -0.72406E-03   720   0.888E-02 0.509E-03
CGA:  21    -0.174316446105E+04   -0.48018E-03   -0.48144E-03   720   0.259E-02 0.995E-04
CGA:  22    -0.174316459142E+04   -0.13037E-03   -0.13096E-03   720   0.225E-02 0.474E-04
CGA:  23    -0.174316481110E+04   -0.21968E-03   -0.20139E-03   720   0.201E-02 0.668E-03
CGA:  24    -0.174316499536E+04   -0.18426E-03   -0.18976E-03   720   0.211E-02-0.507E-03
CGA:  25    -0.174316506116E+04   -0.65800E-04   -0.66691E-04   720   0.116E-02 0.390E-04
CGA:  26    -0.174316510045E+04   -0.39292E-04   -0.45819E-04   720   0.760E-03 0.289E-03
CGA:  27    -0.174316513874E+04   -0.38286E-04   -0.40094E-04   720   0.523E-03 0.100E-03
CGA:  28    -0.174316520348E+04   -0.64736E-04   -0.74459E-04   720   0.171E-02-0.148E-03
CGA:  29    -0.174316522810E+04   -0.24621E-04   -0.28917E-04   720   0.962E-03 0.110E-03
CGA:  30    -0.174316524076E+04   -0.12658E-04   -0.17966E-04   720   0.368E-03 0.125E-03
CGA:  31    -0.174316525133E+04   -0.10574E-04   -0.11231E-04   720   0.295E-03 0.210E-04
SDA:  32    -0.174316526724E+04   -0.15915E-04   -0.14117E-04   720   0.397E-03-0.153E-03
CGA:  33    -0.174316528045E+04   -0.13201E-04   -0.14662E-04   720   0.874E-04 0.734E-04
CGA:  34    -0.174316528968E+04   -0.92318E-05   -0.85984E-05   720   0.951E-04 0.226E-04
CGA:  35    -0.174316530383E+04   -0.14156E-04   -0.14106E-04   720   0.132E-03 0.505E-06
CGA:  36    -0.174316531190E+04   -0.80657E-05   -0.81146E-05   720   0.409E-04-0.340E-04
   6 F= -.17431653E+04 E0= -.17431417E+04  d E =-.112610E+00  mag=    46.0000
       N       E                     dE             d eps       ncg     rms          ort
SDA:   1    -0.173074934988E+04    0.12416E+02    0.00000E+00   720   0.397E+02 0.000E+00
CGA:   2    -0.173496616873E+04   -0.42168E+01   -0.42469E+01   720   0.793E+02 0.266E+01
CGA:   3    -0.174006407910E+04   -0.50979E+01   -0.51270E+01   720   0.196E+02 0.824E+01
CGA:   4    -0.174095268396E+04   -0.88860E+00   -0.91900E+00   720   0.267E+02 0.342E-01
CGA:   5    -0.174146796919E+04   -0.51529E+00   -0.35176E+00   720   0.165E+02 0.967E+01
CGA:   6    -0.174170528722E+04   -0.23732E+00   -0.41928E+00   720   0.275E+02-0.980E+01
CGA:   7    -0.174215457762E+04   -0.44929E+00   -0.73117E+00   720   0.960E+01-0.613E+01
CGA:   8    -0.174240878166E+04   -0.25420E+00   -0.25851E+00   720   0.415E+01-0.870E-01
CGA:   9    -0.174272562037E+04   -0.31684E+00   -0.31670E+00   720   0.360E+01-0.791E-03
CGA:  10    -0.174294627192E+04   -0.22065E+00   -0.22071E+00   720   0.216E+01-0.824E-02
CGA:  11    -0.174303133516E+04   -0.85063E-01   -0.87508E-01   720   0.847E+00 0.429E-02
CGA:  12    -0.174308167483E+04   -0.50340E-01   -0.50137E-01   720   0.766E+00 0.373E-01
CGA:  13    -0.174313290928E+04   -0.51234E-01   -0.51218E-01   720   0.618E+00-0.100E-01
CGA:  14    -0.174316483870E+04   -0.31929E-01   -0.31926E-01   720   0.136E+00 0.436E-02
CGA:  15    -0.174317306929E+04   -0.82306E-02   -0.82320E-02   720   0.923E-01-0.275E-02
CGA:  16    -0.174317923450E+04   -0.61652E-02   -0.60558E-02   720   0.941E-01 0.856E-02
CGA:  17    -0.174318645905E+04   -0.72245E-02   -0.73102E-02   720   0.752E-01-0.674E-02
CGA:  18    -0.174319116945E+04   -0.47104E-02   -0.46619E-02   720   0.470E-01 0.412E-02
CGA:  19    -0.174319487931E+04   -0.37099E-02   -0.37139E-02   720   0.482E-01-0.699E-03
CGA:  20    -0.174320020292E+04   -0.53236E-02   -0.53415E-02   720   0.500E-01-0.498E-03
CGA:  21    -0.174320260544E+04   -0.24025E-02   -0.23949E-02   720   0.161E-01-0.768E-03
CGA:  22    -0.174320363722E+04   -0.10318E-02   -0.10263E-02   720   0.108E-01 0.119E-02
CGA:  23    -0.174320499790E+04   -0.13607E-02   -0.14932E-02   720   0.204E-01-0.195E-02
CGA:  24    -0.174320563215E+04   -0.63425E-03   -0.68105E-03   720   0.581E-02 0.195E-02
CGA:  25    -0.174320596963E+04   -0.33748E-03   -0.33765E-03   720   0.453E-02 0.543E-04
CGA:  26    -0.174320633262E+04   -0.36299E-03   -0.39737E-03   720   0.101E-01-0.142E-02
CGA:  27    -0.174320660739E+04   -0.27477E-03   -0.28680E-03   720   0.656E-02 0.516E-03
CGA:  28    -0.174320674243E+04   -0.13504E-03   -0.16721E-03   720   0.303E-02 0.863E-03
CGA:  29    -0.174320691446E+04   -0.17203E-03   -0.17445E-03   720   0.371E-02 0.285E-03
CGA:  30    -0.174320706890E+04   -0.15444E-03   -0.14267E-03   720   0.186E-02-0.328E-03
CGA:  31    -0.174320712488E+04   -0.55987E-04   -0.58861E-04   720   0.160E-02 0.127E-03
CGA:  32    -0.174320717454E+04   -0.49656E-04   -0.58886E-04   720   0.141E-02 0.400E-03
CGA:  33    -0.174320726118E+04   -0.86646E-04   -0.87591E-04   720   0.174E-02 0.137E-03
CGA:  34    -0.174320735663E+04   -0.95447E-04   -0.91854E-04   720   0.100E-02-0.467E-03
CGA:  35    -0.174320737007E+04   -0.13442E-04   -0.16705E-04   720   0.560E-03 0.985E-04
CGA:  36    -0.174320737814E+04   -0.80636E-05   -0.14372E-04   720   0.444E-03 0.206E-03
SDA:  37    -0.174320739783E+04   -0.19696E-04   -0.22159E-04   720   0.423E-03 0.158E-03
CGA:  38    -0.174320733917E+04    0.58661E-04   -0.60072E-04   720   0.653E-02-0.132E-02
CGA:  39    -0.174320743071E+04   -0.91537E-04   -0.13119E-03   720   0.303E-03 0.113E-02
CGA:  40    -0.174320743305E+04   -0.23353E-05   -0.64520E-05   720   0.742E-04 0.113E-03
   7 F= -.17432074E+04 E0= -.17431852E+04  d E =-.421211E-01  mag=    46.0000
       N       E                     dE             d eps       ncg     rms          ort
SDA:   1    -0.174003967746E+04    0.31678E+01    0.00000E+00   720   0.911E+01 0.000E+00
CGA:   2    -0.174163456116E+04   -0.15949E+01   -0.15263E+01   720   0.180E+02 0.772E+00
CGA:   3    -0.174256712166E+04   -0.93256E+00   -0.94168E+00   720   0.514E+01 0.210E+00
CGA:   4    -0.174281467735E+04   -0.24756E+00   -0.25211E+00   720   0.398E+01 0.125E+00
CGA:   5    -0.174306955643E+04   -0.25488E+00   -0.25435E+00   720   0.290E+01 0.738E-01
CGA:   6    -0.174318465005E+04   -0.11509E+00   -0.11853E+00   720   0.129E+01 0.103E-01
CGA:   7    -0.174322465356E+04   -0.40004E-01   -0.41755E-01   720   0.450E+00-0.955E-02
CGA:   8    -0.174324797139E+04   -0.23318E-01   -0.23271E-01   720   0.402E+00-0.328E-02
CGA:   9    -0.174326826670E+04   -0.20295E-01   -0.20201E-01   720   0.281E+00-0.830E-02
CGA:  10    -0.174327948979E+04   -0.11223E-01   -0.11241E-01   720   0.860E-01 0.307E-02
CGA:  11    -0.174328285990E+04   -0.33701E-02   -0.33935E-02   720   0.519E-01 0.978E-03
CGA:  12    -0.174328638425E+04   -0.35243E-02   -0.35318E-02   720   0.551E-01-0.659E-03
CGA:  13    -0.174328933878E+04   -0.29545E-02   -0.29545E-02   720   0.371E-01-0.275E-03
CGA:  14    -0.174329091845E+04   -0.15797E-02   -0.15793E-02   720   0.201E-01-0.555E-03
CGA:  15    -0.174329196344E+04   -0.10450E-02   -0.10447E-02   720   0.138E-01-0.397E-03
CGA:  16    -0.174329272044E+04   -0.75700E-03   -0.75685E-03   720   0.144E-01 0.334E-04
CGA:  17    -0.174329365760E+04   -0.93716E-03   -0.94687E-03   720   0.146E-01-0.933E-03
CGA:  18    -0.174329445041E+04   -0.79280E-03   -0.79463E-03   720   0.965E-02-0.579E-03
CGA:  19    -0.174329475316E+04   -0.30275E-03   -0.31773E-03   720   0.390E-02 0.711E-03
CGA:  20    -0.174329504726E+04   -0.29410E-03   -0.29267E-03   720   0.613E-02 0.853E-04
CGA:  21    -0.174329549634E+04   -0.44908E-03   -0.46504E-03   720   0.803E-02-0.831E-03
CGA:  22    -0.174329571845E+04   -0.22211E-03   -0.23607E-03   720   0.257E-02 0.616E-03
CGA:  23    -0.174329577335E+04   -0.54897E-04   -0.69044E-04   720   0.112E-02 0.476E-03
CGA:  24    -0.174329584777E+04   -0.74419E-04   -0.74242E-04   720   0.173E-02 0.598E-04
CGA:  25    -0.174329596827E+04   -0.12050E-03   -0.13488E-03   720   0.373E-02-0.693E-03
CGA:  26    -0.174329602111E+04   -0.52844E-04   -0.52471E-04   720   0.304E-02-0.143E-04
CGA:  27    -0.174329606087E+04   -0.39760E-04   -0.52029E-04   720   0.119E-02 0.339E-03
CGA:  28    -0.174329607766E+04   -0.16787E-04   -0.25036E-04   720   0.770E-03 0.252E-03
CGA:  29    -0.174329610160E+04   -0.23947E-04   -0.26035E-04   720   0.709E-03 0.966E-04
CGA:  30    -0.174329613472E+04   -0.33111E-04   -0.31272E-04   720   0.107E-02-0.205E-03
CGA:  31    -0.174329615950E+04   -0.24788E-04   -0.22593E-04   720   0.165E-02-0.123E-03
SDA:  32    -0.174329618523E+04   -0.25726E-04   -0.29449E-04   720   0.114E-02 0.139E-03
CGA:  33    -0.174329621326E+04   -0.28031E-04   -0.33314E-04   720   0.303E-03 0.322E-03
CGA:  34    -0.174329623516E+04   -0.21900E-04   -0.22435E-04   720   0.112E-03-0.399E-04
CGA:  35    -0.174329624512E+04   -0.99574E-05    0.17516E-04   720   0.110E-03 0.619E-04
   8 F= -.17432962E+04 E0= -.17432734E+04  d E =-.888121E-01  mag=    46.0000
       N       E                     dE             d eps       ncg     rms          ort
SDA:   1    -0.174270513612E+04    0.59110E+00    0.00000E+00   720   0.244E+01 0.000E+00
CGA:   2    -0.174285634851E+04   -0.15121E+00   -0.15197E+00   720   0.353E+01-0.364E-01
CGA:   3    -0.174316122776E+04   -0.30488E+00   -0.30594E+00   720   0.105E+01-0.235E-01
CGA:   4    -0.174322396742E+04   -0.62740E-01   -0.61620E-01   720   0.475E+00 0.708E-01
CGA:   5    -0.174328586568E+04   -0.61898E-01   -0.61398E-01   720   0.390E+00 0.659E-02
CGA:   6    -0.174330322485E+04   -0.17359E-01   -0.17340E-01   720   0.110E+00 0.403E-02
CGA:   7    -0.174330997737E+04   -0.67525E-02   -0.67952E-02   720   0.840E-01-0.485E-02
CGA:   8    -0.174331531803E+04   -0.53407E-02   -0.52671E-02   720   0.372E-01 0.549E-02
CGA:   9    -0.174331770916E+04   -0.23911E-02   -0.23888E-02   720   0.159E-01 0.383E-03
CGA:  10    -0.174331875459E+04   -0.10454E-02   -0.10535E-02   720   0.118E-01-0.653E-03
CGA:  11    -0.174331986659E+04   -0.11120E-02   -0.10955E-02   720   0.732E-02 0.407E-03
CGA:  12    -0.174332050979E+04   -0.64320E-03   -0.65404E-03   720   0.599E-02-0.350E-03
CGA:  13    -0.174332086232E+04   -0.35253E-03   -0.34934E-03   720   0.314E-02 0.872E-03
CGA:  14    -0.174332113218E+04   -0.26986E-03   -0.26362E-03   720   0.338E-02 0.404E-03
CGA:  15    -0.174332150920E+04   -0.37702E-03   -0.37056E-03   720   0.268E-02 0.168E-03
CGA:  16    -0.174332170173E+04   -0.19253E-03   -0.19439E-03   720   0.198E-02-0.225E-03
CGA:  17    -0.174332184217E+04   -0.14044E-03   -0.13874E-03   720   0.135E-02 0.111E-03
CGA:  18    -0.174332192194E+04   -0.79768E-04   -0.81649E-04   720   0.627E-03 0.457E-03
CGA:  19    -0.174332199544E+04   -0.73494E-04   -0.13826E-03   720   0.297E-02-0.625E-03
CGA:  20    -0.174332208612E+04   -0.90683E-04   -0.99371E-04   720   0.331E-03 0.243E-03
CGA:  21    -0.174332211045E+04   -0.24330E-04   -0.25477E-04   720   0.480E-03-0.182E-03
CGA:  22    -0.174332211741E+04   -0.69584E-05   -0.11958E-04   720   0.114E-03 0.124E-03
CGA:  23    -0.174332212910E+04   -0.11694E-04   -0.12513E-04   720   0.280E-03-0.343E-04
CGA:  24    -0.174332213878E+04   -0.96760E-05   -0.20192E-04   720   0.125E-02-0.274E-03
CGA:  25    -0.174332217196E+04   -0.33188E-04   -0.40986E-04   720   0.153E-03 0.232E-03
CGA:  26    -0.174332217865E+04   -0.66861E-05   -0.19303E-04   720   0.735E-03-0.303E-03
CGA:  27    -0.174332218652E+04   -0.78735E-05   -0.16773E-04   720   0.125E-03 0.204E-03
   9 F= -.17433222E+04 E0= -.17432988E+04  d E =-.259414E-01  mag=    46.0000
       N       E                     dE             d eps       ncg     rms          ort
SDA:   1    -0.174211280718E+04    0.12094E+01    0.00000E+00   720   0.349E+01 0.000E+00
CGA:   2    -0.174279384668E+04   -0.68104E+00   -0.66417E+00   720   0.664E+01 0.150E+00
CGA:   3    -0.174305236725E+04   -0.25852E+00   -0.26360E+00   720   0.183E+01-0.143E+00
CGA:   4    -0.174318223806E+04   -0.12987E+00   -0.13131E+00   720   0.154E+01-0.147E+00
CGA:   5    -0.174328290530E+04   -0.10067E+00   -0.10020E+00   720   0.690E+00 0.895E-01
CGA:   6    -0.174331287050E+04   -0.29965E-01   -0.32917E-01   720   0.226E+00 0.654E-02
CGA:   7    -0.174332534119E+04   -0.12471E-01   -0.12362E-01   720   0.140E+00-0.146E-02
CGA:   8    -0.174333624757E+04   -0.10906E-01   -0.10862E-01   720   0.896E-01 0.475E-02
CGA:   9    -0.174334057742E+04   -0.43299E-02   -0.43645E-02   720   0.218E-01-0.160E-02
CGA:  10    -0.174334241832E+04   -0.18409E-02   -0.18287E-02   720   0.205E-01 0.583E-03
CGA:  11    -0.174334397951E+04   -0.15612E-02   -0.15718E-02   720   0.167E-01-0.145E-02
CGA:  12    -0.174334478435E+04   -0.80484E-03   -0.82893E-03   720   0.709E-02 0.175E-02
CGA:  13    -0.174334530315E+04   -0.51880E-03   -0.51865E-03   720   0.505E-02-0.433E-03
CGA:  14    -0.174334594475E+04   -0.64160E-03   -0.63474E-03   720   0.484E-02 0.105E-03
CGA:  15    -0.174334631160E+04   -0.36685E-03   -0.36773E-03   720   0.489E-02-0.213E-03
CGA:  16    -0.174334660565E+04   -0.29405E-03   -0.29507E-03   720   0.244E-02 0.108E-03
CGA:  17    -0.174334684536E+04   -0.23971E-03   -0.26468E-03   720   0.452E-02-0.690E-03
CGA:  18    -0.174334703247E+04   -0.18711E-03   -0.19083E-03   720   0.283E-02 0.292E-03
CGA:  19    -0.174334713567E+04   -0.10320E-03   -0.11485E-03   720   0.810E-03 0.359E-03
CGA:  20    -0.174334719365E+04   -0.57981E-04   -0.56398E-04   720   0.122E-02-0.209E-03
CGA:  21    -0.174334727332E+04   -0.79663E-04   -0.93629E-04   720   0.212E-02-0.402E-03
CGA:  22    -0.174334731286E+04   -0.39544E-04   -0.39563E-04   720   0.115E-02-0.418E-06
CGA:  23    -0.174334734289E+04   -0.30029E-04   -0.32188E-04   720   0.516E-03 0.566E-04
CGA:  24    -0.174334736106E+04   -0.18169E-04   -0.17609E-04   720   0.332E-03-0.111E-04
CGA:  25    -0.174334737565E+04   -0.14595E-04   -0.14828E-04   720   0.404E-03 0.143E-04
CGA:  26    -0.174334739016E+04   -0.14503E-04   -0.16298E-04   720   0.366E-03 0.712E-04
CGA:  27    -0.174334741163E+04   -0.21475E-04   -0.21380E-04   720   0.402E-03-0.796E-05
CGA:  28    -0.174334743652E+04   -0.24893E-04   -0.26238E-04   720   0.448E-03-0.283E-03
CGA:  29    -0.174334744326E+04   -0.67330E-05   -0.12188E-04   720   0.959E-04 0.157E-03
  10 F= -.17433474E+04 E0= -.17433239E+04  d E =-.252567E-01  mag=    46.0000
       N       E                     dE             d eps       ncg     rms          ort
SDA:   1    -0.173612907416E+04    0.72184E+01    0.00000E+00   720   0.188E+02 0.000E+00
CGA:   2    -0.173994451362E+04   -0.38154E+01   -0.42051E+01   720   0.809E+02-0.242E+01
CGA:   3    -0.174164612445E+04   -0.17016E+01   -0.21705E+01   720   0.121E+02-0.947E+01
CGA:   4    -0.174222537166E+04   -0.57925E+00   -0.58208E+00   720   0.108E+02 0.806E-01
CGA:   5    -0.174275526392E+04   -0.52989E+00   -0.49727E+00   720   0.848E+01-0.131E+00
CGA:   6    -0.174307271083E+04   -0.31745E+00   -0.33938E+00   720   0.343E+01-0.488E-01
CGA:   7    -0.174317597310E+04   -0.10326E+00   -0.10861E+00   720   0.112E+01-0.814E-01
CGA:   8    -0.174324137010E+04   -0.65397E-01   -0.65334E-01   720   0.110E+01-0.189E-01
CGA:   9    -0.174329824877E+04   -0.56879E-01   -0.56720E-01   720   0.646E+00-0.109E-01
CGA:  10    -0.174332473254E+04   -0.26484E-01   -0.26662E-01   720   0.243E+00-0.404E-03
CGA:  11    -0.174333642306E+04   -0.11691E-01   -0.11671E-01   720   0.156E+00 0.498E-02
CGA:  12    -0.174334515613E+04   -0.87331E-02   -0.87220E-02   720   0.130E+00-0.247E-02
CGA:  13    -0.174335384327E+04   -0.86871E-02   -0.87301E-02   720   0.118E+00-0.477E-02
CGA:  14    -0.174335806658E+04   -0.42233E-02   -0.42187E-02   720   0.317E-01 0.118E-02
CGA:  15    -0.174335982844E+04   -0.17619E-02   -0.17570E-02   720   0.346E-01-0.147E-02
CGA:  16    -0.174336209101E+04   -0.22626E-02   -0.22703E-02   720   0.348E-01-0.573E-03
CGA:  17    -0.174336379721E+04   -0.17062E-02   -0.17125E-02   720   0.213E-01 0.754E-03
CGA:  18    -0.174336488682E+04   -0.10896E-02   -0.10632E-02   720   0.143E-01-0.309E-02
CGA:  19    -0.174336592109E+04   -0.10343E-02   -0.10992E-02   720   0.194E-01-0.204E-02
CGA:  20    -0.174336642853E+04   -0.50744E-03   -0.55484E-03   720   0.665E-02 0.188E-02
CGA:  21    -0.174336685696E+04   -0.42842E-03   -0.42798E-03   720   0.107E-01 0.605E-03
CGA:  22    -0.174336768838E+04   -0.83142E-03   -0.87645E-03   720   0.952E-02-0.259E-02
CGA:  23    -0.174336793907E+04   -0.25070E-03   -0.26431E-03   720   0.617E-02 0.606E-03
CGA:  24    -0.174336812337E+04   -0.18429E-03   -0.21689E-03   720   0.338E-02 0.134E-02
CGA:  25    -0.174336832875E+04   -0.20538E-03   -0.20645E-03   720   0.391E-02 0.168E-03
CGA:  26    -0.174336859247E+04   -0.26372E-03   -0.28167E-03   720   0.422E-02-0.148E-02
CGA:  27    -0.174336868994E+04   -0.97477E-04   -0.94535E-04   720   0.406E-02-0.154E-03
CGA:  28    -0.174336885004E+04   -0.16010E-03   -0.16514E-03   720   0.313E-02 0.348E-03
CGA:  29    -0.174336898746E+04   -0.13742E-03   -0.13303E-03   720   0.176E-02-0.265E-03
CGA:  30    -0.174336907075E+04   -0.83291E-04   -0.82913E-04   720   0.157E-02-0.953E-04
CGA:  31    -0.174336910379E+04   -0.33035E-04   -0.42365E-04   720   0.957E-03 0.375E-03
SDA:  32    -0.174336914047E+04   -0.36677E-04   -0.41935E-04   720   0.916E-03 0.302E-03
CGA:  33    -0.174336890687E+04    0.23360E-03   -0.19430E-03   720   0.214E-01-0.266E-02
CGA:  34    -0.174336926721E+04   -0.36034E-03   -0.43774E-03   720   0.634E-03 0.192E-02
CGA:  35    -0.174336928451E+04   -0.17299E-04   -0.22282E-04   720   0.317E-03 0.194E-03
CGA:  36    -0.174336931290E+04   -0.28392E-04   -0.38117E-04   720   0.575E-03-0.268E-03
CGA:  37    -0.174336931775E+04   -0.48544E-05   -0.13571E-04   720   0.160E-03 0.251E-03
  11 F= -.17433693E+04 E0= -.17433460E+04  d E =-.218745E-01  mag=    46.0000
       N       E                     dE             d eps       ncg     rms          ort
SDA:   1    -0.173092556824E+04    0.12444E+02    0.00000E+00   720   0.319E+02 0.000E+00
CGA:   2    -0.173622415458E+04   -0.52986E+01   -0.68827E+01   720   0.202E+03-0.876E+01
CGA:   3    -0.173966663494E+04   -0.34425E+01   -0.36717E+01   720   0.571E+02-0.924E+01
CGA:   4    -0.174048591271E+04   -0.81928E+00   -0.15379E+01   720   0.246E+02-0.136E+02
CGA:   5    -0.174130445267E+04   -0.81854E+00   -0.73593E+00   720   0.182E+02-0.356E+00
CGA:   6    -0.174228977007E+04   -0.98532E+00   -0.94143E+00   720   0.183E+02-0.269E+01
CGA:   7    -0.174274113838E+04   -0.45137E+00   -0.48908E+00   720   0.531E+01-0.530E+00
CGA:   8    -0.174289260378E+04   -0.15147E+00   -0.17931E+00   720   0.310E+01-0.148E+00
CGA:   9    -0.174302363960E+04   -0.13104E+00   -0.12969E+00   720   0.284E+01-0.459E-02
CGA:  10    -0.174315848789E+04   -0.13485E+00   -0.13105E+00   720   0.234E+01-0.115E+00
CGA:  11    -0.174323671710E+04   -0.78229E-01   -0.77662E-01   720   0.104E+01-0.172E-01
CGA:  12    -0.174327959551E+04   -0.42878E-01   -0.43681E-01   720   0.548E+00 0.181E-01
CGA:  13    -0.174330303076E+04   -0.23435E-01   -0.23622E-01   720   0.468E+00 0.112E-01
CGA:  14    -0.174332927118E+04   -0.26240E-01   -0.26264E-01   720   0.425E+00-0.784E-02
CGA:  15    -0.174334507075E+04   -0.15800E-01   -0.15653E-01   720   0.263E+00-0.107E-01
CGA:  16    -0.174335441805E+04   -0.93473E-02   -0.93058E-02   720   0.112E+00 0.123E-02
CGA:  17    -0.174335895524E+04   -0.45372E-02   -0.45781E-02   720   0.846E-01 0.390E-02
CGA:  18    -0.174336371072E+04   -0.47555E-02   -0.47632E-02   720   0.891E-01-0.229E-02
CGA:  19    -0.174336803732E+04   -0.43266E-02   -0.43228E-02   720   0.588E-01-0.442E-02
CGA:  20    -0.174336975765E+04   -0.17203E-02   -0.17465E-02   720   0.276E-01 0.397E-03
CGA:  21    -0.174337115421E+04   -0.13966E-02   -0.13960E-02   720   0.250E-01 0.127E-02
CGA:  22    -0.174337234551E+04   -0.11913E-02   -0.11849E-02   720   0.205E-01-0.144E-02
CGA:  23    -0.174337352528E+04   -0.11798E-02   -0.12109E-02   720   0.180E-01-0.243E-02
CGA:  24    -0.174337414795E+04   -0.62266E-03   -0.62430E-03   720   0.131E-01-0.204E-04
CGA:  25    -0.174337481511E+04   -0.66717E-03   -0.66652E-03   720   0.940E-02 0.713E-03
CGA:  26    -0.174337521653E+04   -0.40142E-03   -0.40336E-03   720   0.693E-02 0.259E-03
CGA:  27    -0.174337561218E+04   -0.39564E-03   -0.39563E-03   720   0.684E-02-0.640E-05
CGA:  28    -0.174337602621E+04   -0.41404E-03   -0.41684E-03   720   0.971E-02-0.263E-03
CGA:  29    -0.174337648464E+04   -0.45843E-03   -0.45852E-03   720   0.627E-02 0.859E-04
CGA:  30    -0.174337671674E+04   -0.23210E-03   -0.23451E-03   720   0.360E-02 0.140E-03
CGA:  31    -0.174337690476E+04   -0.18801E-03   -0.18902E-03   720   0.379E-02-0.570E-03
SDA:  32    -0.174337713119E+04   -0.22643E-03   -0.28055E-03   720   0.779E-02-0.142E-02
CGA:  33    -0.174337731070E+04   -0.17951E-03   -0.19914E-03   720   0.144E-02 0.763E-03
CGA:  34    -0.174337744322E+04   -0.13252E-03   -0.12350E-03   720   0.119E-02 0.337E-03
CGA:  35    -0.174337753738E+04   -0.94157E-04   -0.96912E-04   720   0.155E-02-0.183E-03
CGA:  36    -0.174337759750E+04   -0.60122E-04   -0.61406E-04   720   0.117E-02 0.236E-03
CGA:  37    -0.174337765483E+04   -0.57334E-04   -0.58197E-04   720   0.916E-03 0.971E-04
CGA:  38    -0.174337771147E+04   -0.56633E-04   -0.79239E-04   720   0.152E-02-0.798E-03
CGA:  39    -0.174337774664E+04   -0.35176E-04   -0.41733E-04   720   0.261E-03 0.251E-03
CGA:  40    -0.174337776144E+04   -0.14799E-04   -0.15052E-04   720   0.213E-03 0.113E-03
CGA:  41    -0.174337778137E+04   -0.19930E-04   -0.18859E-04   720   0.171E-03 0.105E-03
CGA:  42    -0.174337779841E+04   -0.17043E-04   -0.16257E-04   720   0.192E-03 0.675E-04
CGA:  43    -0.174337766190E+04    0.13652E-03   -0.76524E-04   720   0.340E-02-0.795E-03
CGA:  44    -0.174337776858E+04   -0.10669E-03   -0.12433E-03   720   0.913E-03 0.323E-03
CGA:  45    -0.174337782342E+04   -0.54839E-04   -0.59227E-04   720   0.466E-03 0.146E-03
CGA:  46    -0.174337786973E+04   -0.46301E-04   -0.45471E-04   720   0.707E-03-0.115E-03
CGA:  47    -0.174337790691E+04   -0.37185E-04   -0.33773E-04   720   0.236E-03-0.123E-03
CGA:  48    -0.174337791198E+04   -0.50664E-05   -0.55858E-05   720   0.876E-04 0.886E-05
  12 F= -.17433779E+04 E0= -.17433542E+04  d E =-.859422E-02  mag=    46.0000
       N       E                     dE             d eps       ncg     rms          ort
SDA:   1    -0.174138057175E+04    0.19973E+01    0.00000E+00   720   0.563E+01 0.000E+00
CGA:   2    -0.174224004307E+04   -0.85947E+00   -0.93402E+00   720   0.221E+02-0.899E+00
CGA:   3    -0.174289042001E+04   -0.65038E+00   -0.73287E+00   720   0.456E+01-0.101E+01
CGA:   4    -0.174304852695E+04   -0.15811E+00   -0.18266E+00   720   0.314E+01-0.364E+00
CGA:   5    -0.174318868624E+04   -0.14016E+00   -0.12981E+00   720   0.200E+01 0.998E-01
CGA:   6    -0.174331562961E+04   -0.12694E+00   -0.12559E+00   720   0.131E+01-0.914E-02
CGA:   7    -0.174335814272E+04   -0.42513E-01   -0.44846E-01   720   0.324E+00-0.737E-01
CGA:   8    -0.174338014220E+04   -0.21999E-01   -0.22036E-01   720   0.213E+00-0.179E-02
CGA:   9    -0.174339455264E+04   -0.14410E-01   -0.14246E-01   720   0.121E+00-0.375E-02
CGA:  10    -0.174340195122E+04   -0.73986E-02   -0.73975E-02   720   0.712E-01-0.640E-03
CGA:  11    -0.174340481633E+04   -0.28651E-02   -0.29365E-02   720   0.271E-01 0.135E-02
CGA:  12    -0.174340745097E+04   -0.26346E-02   -0.26300E-02   720   0.294E-01 0.203E-03
CGA:  13    -0.174340926730E+04   -0.18163E-02   -0.18237E-02   720   0.181E-01 0.381E-03
CGA:  14    -0.174340999424E+04   -0.72694E-03   -0.77324E-03   720   0.643E-02 0.157E-02
CGA:  15    -0.174341053616E+04   -0.54192E-03   -0.54051E-03   720   0.861E-02 0.397E-03
CGA:  16    -0.174341125086E+04   -0.71470E-03   -0.71483E-03   720   0.624E-02-0.492E-04
CGA:  17    -0.174341150266E+04   -0.25180E-03   -0.27528E-03   720   0.319E-02 0.768E-03
CGA:  18    -0.174341173404E+04   -0.23137E-03   -0.23200E-03   720   0.315E-02 0.681E-04
CGA:  19    -0.174341207036E+04   -0.33633E-03   -0.51219E-03   720   0.810E-02-0.201E-02
CGA:  20    -0.174341226306E+04   -0.19270E-03   -0.23862E-03   720   0.189E-02 0.101E-02
CGA:  21    -0.174341238663E+04   -0.12357E-03   -0.12689E-03   720   0.909E-03 0.264E-03
CGA:  22    -0.174341248719E+04   -0.10056E-03   -0.11623E-03   720   0.218E-02-0.401E-03
CGA:  23    -0.174341251117E+04   -0.23980E-04   -0.31362E-04   720   0.176E-02 0.154E-03
CGA:  24    -0.174341254300E+04   -0.31828E-04   -0.45756E-04   720   0.106E-02 0.289E-03
CGA:  25    -0.174341259618E+04   -0.53181E-04   -0.51965E-04   720   0.113E-02-0.437E-04
CGA:  26    -0.174341266632E+04   -0.70139E-04   -0.59856E-04   720   0.163E-02-0.754E-03
CGA:  27    -0.174341270573E+04   -0.39409E-04   -0.50292E-04   720   0.355E-03 0.297E-03
CGA:  28    -0.174341273265E+04   -0.26922E-04   -0.26894E-04   720   0.285E-03-0.628E-05
CGA:  29    -0.174341274849E+04   -0.15838E-04   -0.16545E-04   720   0.241E-03 0.961E-04
CGA:  30    -0.174341276701E+04   -0.18523E-04   -0.19079E-04   720   0.204E-03 0.812E-04
CGA:  31    -0.174341243066E+04    0.33635E-03   -0.18683E-03   720   0.871E-02-0.124E-02
CGA:  32    -0.174341269713E+04   -0.26647E-03   -0.30625E-03   720   0.181E-02 0.103E-02
CGA:  33    -0.174341279357E+04   -0.96437E-04   -0.92401E-04   720   0.452E-03 0.625E-04
CGA:  34    -0.174341281754E+04   -0.23975E-04   -0.26355E-04   720   0.299E-03 0.419E-04
CGA:  35    -0.174341285730E+04   -0.39755E-04   -0.39660E-04   720   0.124E-03 0.791E-05
CGA:  36    -0.174341287170E+04   -0.14409E-04   -0.10793E-04   720   0.279E-03-0.144E-03
CGA:  37    -0.174341286956E+04    0.21422E-05   -0.54583E-05   720   0.412E-04 0.850E-04
  13 F= -.17434129E+04 E0= -.17433899E+04  d E =-.349576E-01  mag=    46.0000
       N       E                     dE             d eps       ncg     rms          ort
SDA:   1    -0.174291304442E+04    0.49983E+00    0.00000E+00   720   0.139E+01 0.000E+00
CGA:   2    -0.174314066048E+04   -0.22762E+00   -0.23079E+00   720   0.379E+01-0.397E-01
CGA:   3    -0.174332560038E+04   -0.18494E+00   -0.18597E+00   720   0.884E+00-0.505E-01
CGA:   4    -0.174337111690E+04   -0.45517E-01   -0.39555E-01   720   0.284E+00 0.865E-01
CGA:   5    -0.174340733013E+04   -0.36213E-01   -0.36304E-01   720   0.317E+00-0.386E-02
CGA:   6    -0.174342212181E+04   -0.14792E-01   -0.15071E-01   720   0.503E-01-0.212E-02
CGA:   7    -0.174342545932E+04   -0.33375E-02   -0.33366E-02   720   0.544E-01 0.394E-03
CGA:   8    -0.174342925683E+04   -0.37975E-02   -0.37952E-02   720   0.311E-01-0.222E-03
CGA:   9    -0.174343077425E+04   -0.15174E-02   -0.15423E-02   720   0.639E-02 0.291E-03
CGA:  10    -0.174343140656E+04   -0.63231E-03   -0.63065E-03   720   0.728E-02 0.270E-03
CGA:  11    -0.174343201776E+04   -0.61120E-03   -0.60795E-03   720   0.425E-02-0.285E-03
CGA:  12    -0.174343233921E+04   -0.32146E-03   -0.31987E-03   720   0.173E-02-0.147E-03
CGA:  13    -0.174343249335E+04   -0.15414E-03   -0.15769E-03   720   0.371E-02-0.918E-03
CGA:  14    -0.174343256427E+04   -0.70923E-04   -0.10510E-03   720   0.791E-03 0.559E-03
CGA:  15    -0.174343263925E+04   -0.74976E-04   -0.74998E-04   720   0.970E-03 0.379E-05
CGA:  16    -0.174343272382E+04   -0.84568E-04   -0.84440E-04   720   0.129E-02-0.197E-03
CGA:  17    -0.174343277227E+04   -0.48453E-04   -0.50921E-04   720   0.753E-03 0.645E-04
CGA:  18    -0.174343281297E+04   -0.40699E-04   -0.37221E-04   720   0.465E-03-0.967E-04
CGA:  19    -0.174343283707E+04   -0.24098E-04   -0.57806E-04   720   0.213E-02-0.571E-03
CGA:  20    -0.174343289026E+04   -0.53193E-04   -0.72953E-04   720   0.424E-03 0.395E-03
CGA:  21    -0.174343291892E+04   -0.28658E-04   -0.28533E-04   720   0.162E-03-0.467E-06
CGA:  22    -0.174343292813E+04   -0.92131E-05   -0.10063E-04   720   0.150E-03 0.416E-04
CGA:  23    -0.174343291186E+04    0.16275E-04   -0.59753E-04   720   0.159E-02-0.323E-03
CGA:  24    -0.174343294911E+04   -0.37249E-04   -0.48881E-04   720   0.228E-03 0.190E-03
CGA:  25    -0.174343296303E+04   -0.13925E-04   -0.14569E-04   720   0.150E-03 0.194E-04
CGA:  26    -0.174343297109E+04   -0.80599E-05   -0.97878E-05   720   0.937E-04 0.611E-04
CGA:  27    -0.174343297887E+04   -0.77820E-05   -0.21938E-04   720   0.593E-03-0.178E-03
CGA:  28    -0.174343298988E+04   -0.11008E-04   -0.17150E-04   720   0.500E-04 0.986E-04
CGA:  29    -0.174343298969E+04    0.19404E-06   -0.14481E-05   720   0.185E-04 0.260E-04
  14 F= -.17434330E+04 E0= -.17434101E+04  d E =-.201201E-01  mag=    46.0000
       N       E                     dE             d eps       ncg     rms          ort
SDA:   1    -0.174317087077E+04    0.26212E+00    0.00000E+00   720   0.165E+01 0.000E+00
CGA:   2    -0.174323483452E+04   -0.63964E-01   -0.71381E-01   720   0.911E+00-0.114E+00
CGA:   3    -0.174337137680E+04   -0.13654E+00   -0.13641E+00   720   0.711E+00 0.575E-02
CGA:   4    -0.174340814000E+04   -0.36763E-01   -0.34719E-01   720   0.248E+00 0.326E-01
CGA:   5    -0.174341955400E+04   -0.11414E-01   -0.11905E-01   720   0.146E+00-0.348E-02
CGA:   6    -0.174343390831E+04   -0.14354E-01   -0.14300E-01   720   0.797E-01-0.260E-04
CGA:   7    -0.174343707575E+04   -0.31674E-02   -0.29867E-02   720   0.154E-01 0.533E-02
CGA:   8    -0.174343842731E+04   -0.13516E-02   -0.13322E-02   720   0.183E-01-0.559E-03
CGA:   9    -0.174343939020E+04   -0.96289E-03   -0.10275E-02   720   0.895E-02 0.911E-03
CGA:  10    -0.174343982483E+04   -0.43463E-03   -0.46314E-03   720   0.288E-02 0.488E-03
CGA:  11    -0.174344009299E+04   -0.26817E-03   -0.23372E-03   720   0.387E-02-0.781E-03
CGA:  12    -0.174344021289E+04   -0.11990E-03   -0.12663E-03   720   0.227E-02 0.924E-04
CGA:  13    -0.174344030210E+04   -0.89211E-04   -0.10956E-03   720   0.178E-02 0.307E-03
CGA:  14    -0.174344040098E+04   -0.98880E-04   -0.84743E-04   720   0.663E-03-0.171E-03
CGA:  15    -0.174344046343E+04   -0.62450E-04   -0.60881E-04   720   0.113E-02-0.202E-03
CGA:  16    -0.174344049281E+04   -0.29380E-04   -0.32942E-04   720   0.849E-03 0.521E-04
CGA:  17    -0.174344054444E+04   -0.51628E-04   -0.47072E-04   720   0.514E-03-0.841E-04
CGA:  18    -0.174344058039E+04   -0.35950E-04   -0.25309E-04   720   0.675E-03-0.222E-03
CGA:  19    -0.174344059601E+04   -0.15617E-04   -0.17827E-04   720   0.630E-03 0.408E-04
CGA:  20    -0.174344060526E+04   -0.92522E-05   -0.17259E-04   720   0.219E-03 0.111E-03
CGA:  21    -0.174344062294E+04   -0.17678E-04   -0.14772E-04   720   0.276E-03-0.792E-04
CGA:  22    -0.174344063702E+04   -0.14085E-04   -0.92441E-05   720   0.393E-03-0.122E-03
CGA:  23    -0.174344063840E+04   -0.13804E-05   -0.44973E-05   720   0.326E-03 0.445E-04
  15 F= -.17434406E+04 E0= -.17434178E+04  d E =-.764872E-02  mag=    46.0000
       N       E                     dE             d eps       ncg     rms          ort
SDA:   1    -0.172380599405E+04    0.19635E+02    0.00000E+00   720   0.542E+02 0.000E+00
CGA:   2    -0.173275528325E+04   -0.89493E+01   -0.90764E+01   720   0.153E+03 0.239E+01
CGA:   3    -0.173897538670E+04   -0.62201E+01   -0.74347E+01   720   0.274E+02-0.902E+01
CGA:   4    -0.174095584360E+04   -0.19805E+01   -0.18796E+01   720   0.294E+02-0.266E+01
CGA:   5    -0.174215356369E+04   -0.11977E+01   -0.91347E+00   720   0.140E+02 0.692E+01
CGA:   6    -0.174259545706E+04   -0.44189E+00   -0.60947E+00   720   0.136E+02-0.321E+01
CGA:   7    -0.174285332615E+04   -0.25787E+00   -0.22889E+00   720   0.867E+01 0.910E+00
CGA:   8    -0.174313423310E+04   -0.28091E+00   -0.32006E+00   720   0.331E+01-0.193E+00
CGA:   9    -0.174321695944E+04   -0.82726E-01   -0.98240E-01   720   0.176E+01-0.349E+00
CGA:  10    -0.174331187539E+04   -0.94916E-01   -0.95350E-01   720   0.206E+01-0.161E-02
CGA:  11    -0.174336557568E+04   -0.53700E-01   -0.49128E-01   720   0.715E+00 0.174E+00
CGA:  12    -0.174339482646E+04   -0.29251E-01   -0.29685E-01   720   0.637E+00 0.120E-01
CGA:  13    -0.174341833981E+04   -0.23513E-01   -0.24885E-01   720   0.374E+00-0.155E-01
CGA:  14    -0.174343333788E+04   -0.14998E-01   -0.15023E-01   720   0.303E+00-0.126E-01
CGA:  15    -0.174344418684E+04   -0.10849E-01   -0.10818E-01   720   0.193E+00 0.610E-03
CGA:  16    -0.174345114837E+04   -0.69615E-02   -0.70645E-02   720   0.123E+00 0.392E-02
CGA:  17    -0.174345645886E+04   -0.53105E-02   -0.53788E-02   720   0.107E+00-0.130E-02
CGA:  18    -0.174346212005E+04   -0.56612E-02   -0.56633E-02   720   0.878E-01-0.132E-02
CGA:  19    -0.174346591916E+04   -0.37991E-02   -0.38238E-02   720   0.671E-01 0.122E-03
CGA:  20    -0.174346906055E+04   -0.31414E-02   -0.31455E-02   720   0.383E-01-0.160E-02
CGA:  21    -0.174347088683E+04   -0.18263E-02   -0.18173E-02   720   0.340E-01-0.113E-02
CGA:  22    -0.174347275778E+04   -0.18709E-02   -0.18727E-02   720   0.366E-01 0.580E-03
CGA:  23    -0.174347492426E+04   -0.21665E-02   -0.21657E-02   720   0.211E-01-0.132E-02
CGA:  24    -0.174347582722E+04   -0.90297E-03   -0.87733E-03   720   0.183E-01-0.160E-02
CGA:  25    -0.174347692622E+04   -0.10990E-02   -0.10973E-02   720   0.974E-02 0.251E-03
CGA:  26    -0.174347740025E+04   -0.47403E-03   -0.47345E-03   720   0.108E-01-0.154E-03
CGA:  27    -0.174347824458E+04   -0.84433E-03   -0.88617E-03   720   0.926E-02-0.168E-02
CGA:  28    -0.174347858222E+04   -0.33764E-03   -0.34608E-03   720   0.625E-02 0.522E-03
CGA:  29    -0.174347886831E+04   -0.28609E-03   -0.29107E-03   720   0.310E-02 0.443E-03
CGA:  30    -0.174347911254E+04   -0.24424E-03   -0.26587E-03   720   0.700E-02-0.975E-03
CGA:  31    -0.174347934350E+04   -0.23096E-03   -0.22925E-03   720   0.718E-02-0.166E-03
SDA:  32    -0.174347951668E+04   -0.17318E-03   -0.18846E-03   720   0.332E-02 0.501E-03
CGA:  33    -0.174347969392E+04   -0.17724E-03   -0.17579E-03   720   0.193E-02-0.374E-03
CGA:  34    -0.174347975720E+04   -0.63280E-04   -0.69434E-04   720   0.828E-03 0.381E-03
CGA:  35    -0.174347984786E+04   -0.90664E-04   -0.88670E-04   720   0.144E-02 0.590E-04
CGA:  36    -0.174347994935E+04   -0.10149E-03   -0.10796E-03   720   0.168E-02-0.521E-03
CGA:  37    -0.174347996924E+04   -0.19888E-04   -0.27929E-04   720   0.912E-03 0.251E-03
CGA:  38    -0.174347997662E+04   -0.73811E-05   -0.19255E-04   720   0.390E-03 0.311E-03
CGA:  39    -0.174347998526E+04   -0.86430E-05   -0.14095E-04   720   0.396E-03 0.197E-03
CGA:  40    -0.174348002752E+04   -0.42255E-04    0.58549E-02   720   0.418E-03-0.367E-04
CGA:  41    -0.174348005964E+04   -0.32126E-04   -0.29870E-04   720   0.231E-03 0.882E-04
CGA:  42    -0.174348006328E+04   -0.36364E-05   -0.77818E-05   720   0.960E-04 0.155E-03
  16 F= -.17434801E+04 E0= -.17434574E+04  d E =-.394249E-01  mag=    46.0000
       N       E                     dE             d eps       ncg     rms          ort
SDA:   1    -0.172974983434E+04    0.13730E+02    0.00000E+00   720   0.102E+03 0.000E+00
CGA:   2    -0.173317324747E+04   -0.34234E+01   -0.41900E+01   720   0.353E+02 0.889E+01
CGA:   3    -0.173693516405E+04   -0.37619E+01   -0.36329E+01   720   0.528E+02 0.497E+01
CGA:   4    -0.173947195727E+04   -0.25368E+01   -0.20078E+01   720   0.360E+02 0.255E+01
CGA:   5    -0.174065287466E+04   -0.11809E+01   -0.11387E+01   720   0.232E+02-0.738E+01
CGA:   6    -0.174137595179E+04   -0.72308E+00   -0.77593E+00   720   0.250E+02 0.931E+00
CGA:   7    -0.174191032753E+04   -0.53438E+00   -0.55568E+00   720   0.131E+02-0.266E+01
CGA:   8    -0.174212194625E+04   -0.21162E+00   -0.17820E+00   720   0.718E+01 0.138E+01
CGA:   9    -0.174227182334E+04   -0.14988E+00   -0.17058E+00   720   0.601E+01-0.692E+00
CGA:  10    -0.174236711628E+04   -0.95293E-01   -0.10650E+00   720   0.460E+01-0.424E+00
CGA:  11    -0.174246669542E+04   -0.99579E-01   -0.10446E+00   720   0.393E+01-0.824E-01
CGA:  12    -0.174255618913E+04   -0.89494E-01   -0.87898E-01   720   0.231E+01 0.303E-01
CGA:  13    -0.174259953349E+04   -0.43344E-01   -0.42364E-01   720   0.147E+01 0.576E-02
CGA:  14    -0.174262943142E+04   -0.29898E-01   -0.29098E-01   720   0.876E+00-0.180E-01
CGA:  15    -0.174264718266E+04   -0.17751E-01   -0.18703E-01   720   0.817E+00-0.336E-01
CGA:  16    -0.174266982137E+04   -0.22639E-01   -0.23023E-01   720   0.858E+00 0.932E-02
CGA:  17    -0.174268942994E+04   -0.19609E-01   -0.19645E-01   720   0.569E+00 0.888E-02
CGA:  18    -0.174270460142E+04   -0.15171E-01   -0.15368E-01   720   0.492E+00-0.748E-02
CGA:  19    -0.174271607961E+04   -0.11478E-01   -0.11904E-01   720   0.295E+00-0.175E-01
CGA:  20    -0.174272425277E+04   -0.81732E-02   -0.82710E-02   720   0.211E+00-0.305E-02
CGA:  21    -0.174273036945E+04   -0.61167E-02   -0.61716E-02   720   0.138E+00 0.555E-02
CGA:  22    -0.174273506333E+04   -0.46939E-02   -0.47231E-02   720   0.130E+00 0.453E-02
CGA:  23    -0.174274018817E+04   -0.51248E-02   -0.51231E-02   720   0.115E+00-0.207E-02
CGA:  24    -0.174274429810E+04   -0.41099E-02   -0.41085E-02   720   0.761E-01-0.430E-02
CGA:  25    -0.174274682989E+04   -0.25318E-02   -0.25454E-02   720   0.443E-01 0.421E-02
CGA:  26    -0.174274831589E+04   -0.14860E-02   -0.14997E-02   720   0.261E-01 0.271E-02
CGA:  27    -0.174274967189E+04   -0.13560E-02   -0.14068E-02   720   0.355E-01-0.398E-02
CGA:  28    -0.174275135541E+04   -0.16835E-02   -0.17869E-02   720   0.467E-01-0.504E-02
CGA:  29    -0.174275240488E+04   -0.10495E-02   -0.10798E-02   720   0.166E-01 0.241E-02
CGA:  30    -0.174275277583E+04   -0.37095E-03   -0.39907E-03   720   0.720E-02 0.183E-02
CGA:  31    -0.174275313995E+04   -0.36412E-03   -0.37326E-03   720   0.109E-01-0.105E-02
SDA:  32    -0.174275365561E+04   -0.51566E-03   -0.72693E-03   720   0.326E-01-0.538E-02
CGA:  33    -0.174275436687E+04   -0.71126E-03   -0.76502E-03   720   0.426E-02 0.306E-02
CGA:  34    -0.174275464507E+04   -0.27819E-03   -0.27705E-03   720   0.268E-02 0.583E-04
CGA:  35    -0.174275486077E+04   -0.21571E-03   -0.29457E-03   720   0.886E-02-0.115E-02
CGA:  36    -0.174275505710E+04   -0.19632E-03   -0.19698E-03   720   0.902E-02 0.111E-03
CGA:  37    -0.174275531226E+04   -0.25517E-03   -0.26198E-03   720   0.585E-02 0.444E-03
CGA:  38    -0.174275564833E+04   -0.33607E-03   -0.34989E-03   720   0.760E-02-0.981E-03
CGA:  39    -0.174275584357E+04   -0.19524E-03   -0.18625E-03   720   0.424E-02-0.694E-03
CGA:  40    -0.174275593154E+04   -0.87978E-04   -0.94575E-04   720   0.264E-02 0.336E-03
CGA:  41    -0.174275599216E+04   -0.60615E-04   -0.70846E-04   720   0.180E-02 0.613E-03
CGA:  42    -0.174275606177E+04   -0.69614E-04   -0.71769E-04   720   0.187E-02 0.243E-03
CGA:  43    -0.174275617904E+04   -0.11727E-03   -0.13745E-03   720   0.472E-02-0.847E-03
CGA:  44    -0.174275623662E+04   -0.57579E-04   -0.47253E-04   720   0.520E-02-0.477E-03
CGA:  45    -0.174275632611E+04   -0.89490E-04   -0.86978E-04   720   0.365E-02-0.202E-03
CGA:  46    -0.174275638588E+04   -0.59773E-04   -0.64502E-04   720   0.268E-02 0.188E-03
CGA:  47    -0.174275643341E+04   -0.47529E-04   -0.52082E-04   720   0.176E-02 0.215E-03
CGA:  48    -0.174275647307E+04   -0.39655E-04   -0.39807E-04   720   0.144E-02 0.561E-06
CGA:  49    -0.174275651556E+04   -0.42495E-04   -0.41041E-04   720   0.179E-02-0.183E-03
CGA:  50    -0.174275654669E+04   -0.31128E-04   -0.30629E-04   720   0.149E-02-0.214E-04
CGA:  51    -0.174275656489E+04   -0.18197E-04   -0.22150E-04   720   0.101E-02 0.191E-03
CGA:  52    -0.174275657723E+04   -0.12346E-04   -0.18043E-04   720   0.917E-03 0.301E-03
CGA:  53    -0.174275659468E+04   -0.17445E-04   -0.22668E-04   720   0.946E-03 0.359E-03
CGA:  54    -0.174275662299E+04   -0.28310E-04   -0.30338E-04   720   0.863E-03 0.201E-03
CGA:  55    -0.174275665694E+04   -0.33949E-04   -0.34093E-04   720   0.985E-03-0.357E-03
CGA:  56    -0.174275667502E+04   -0.18087E-04   -0.12992E-04   720   0.852E-03-0.531E-03
CGA:  57    -0.174275670598E+04   -0.30955E-04   -0.30638E-04   720   0.322E-03 0.709E-04
CGA:  58    -0.174275672506E+04   -0.19083E-04   -0.17534E-04   720   0.828E-04 0.839E-04
CGA:  59    -0.174275672566E+04   -0.60326E-06   -0.18474E-05   720   0.600E-04 0.806E-04
  17 F= -.17427567E+04 E0= -.17427357E+04  d E =0.723338E+00  mag=    46.0000
       N       E                     dE             d eps       ncg     rms          ort
SDA:   1    -0.174204696706E+04    0.70976E+00    0.00000E+00   720   0.412E+01 0.000E+00
CGA:   2    -0.174228961030E+04   -0.24264E+00   -0.35002E+00   720   0.107E+02-0.217E+01
CGA:   3    -0.174257186158E+04   -0.28225E+00   -0.29249E+00   720   0.191E+01 0.294E+00
CGA:   4    -0.174280983476E+04   -0.23797E+00   -0.24303E+00   720   0.482E+01-0.593E-01
CGA:   5    -0.174315625742E+04   -0.34642E+00   -0.34790E+00   720   0.113E+01-0.393E-01
CGA:   6    -0.174319479219E+04   -0.38535E-01   -0.38880E-01   720   0.229E+00 0.983E-02
CGA:   7    -0.174321211612E+04   -0.17324E-01   -0.16852E-01   720   0.313E+00 0.142E-01
CGA:   8    -0.174323567551E+04   -0.23559E-01   -0.23390E-01   720   0.106E+00 0.486E-02
CGA:   9    -0.174324049696E+04   -0.48214E-02   -0.48192E-02   720   0.239E-01 0.442E-02
CGA:  10    -0.174324250325E+04   -0.20063E-02   -0.20889E-02   720   0.456E-01-0.211E-02
CGA:  11    -0.174324561473E+04   -0.31115E-02   -0.30416E-02   720   0.223E-01 0.249E-02
CGA:  12    -0.174324672458E+04   -0.11098E-02   -0.11101E-02   720   0.757E-02-0.939E-03
CGA:  13    -0.174324723355E+04   -0.50898E-03   -0.55165E-03   720   0.105E-01-0.146E-02
CGA:  14    -0.174324777890E+04   -0.54534E-03   -0.53031E-03   720   0.905E-02 0.104E-02
CGA:  15    -0.174324831766E+04   -0.53876E-03   -0.54409E-03   720   0.332E-02-0.101E-02
CGA:  16    -0.174324848028E+04   -0.16262E-03   -0.17136E-03   720   0.367E-02-0.101E-02
CGA:  17    -0.174324862634E+04   -0.14606E-03   -0.14277E-03   720   0.221E-02 0.533E-03
CGA:  18    -0.174324873218E+04   -0.10585E-03   -0.10610E-03   720   0.129E-02 0.258E-04
CGA:  19    -0.174324880788E+04   -0.75695E-04   -0.14300E-03   720   0.415E-02-0.113E-02
CGA:  20    -0.174324887428E+04   -0.66404E-04   -0.93570E-04   720   0.471E-03 0.920E-03
CGA:  21    -0.174324888653E+04   -0.12249E-04   -0.16047E-04   720   0.188E-03 0.164E-03
CGA:  22    -0.174324883205E+04    0.54480E-04   -0.54279E-04   720   0.389E-02-0.664E-03
CGA:  23    -0.174324892793E+04   -0.95878E-04   -0.11295E-03   720   0.513E-03 0.586E-03
CGA:  24    -0.174324895827E+04   -0.30338E-04   -0.28869E-04   720   0.176E-03-0.194E-03
CGA:  25    -0.174324895855E+04   -0.28351E-06   -0.26360E-05   720   0.114E-03 0.723E-04
  18 F= -.17432490E+04 E0= -.17432274E+04  d E =-.492233E+00  mag=    46.0000
       N       E                     dE             d eps       ncg     rms          ort
SDA:   1    -0.174291624749E+04    0.33271E+00    0.00000E+00   720   0.179E+01 0.000E+00
CGA:   2    -0.174304776299E+04   -0.13152E+00   -0.15749E+00   720   0.363E+01-0.680E+00
CGA:   3    -0.174321715568E+04   -0.16939E+00   -0.16925E+00   720   0.448E+01-0.103E-02
CGA:   4    -0.174335008351E+04   -0.13293E+00   -0.14786E+00   720   0.107E+01-0.117E+00
CGA:   5    -0.174338076100E+04   -0.30677E-01   -0.29213E-01   720   0.321E+00 0.406E-01
CGA:   6    -0.174340165678E+04   -0.20896E-01   -0.21149E-01   720   0.464E+00-0.149E-01
CGA:   7    -0.174342182071E+04   -0.20164E-01   -0.20223E-01   720   0.351E+00 0.252E-02
CGA:   8    -0.174343221169E+04   -0.10391E-01   -0.10772E-01   720   0.111E+00-0.464E-03
CGA:   9    -0.174343560518E+04   -0.33935E-02   -0.35021E-02   720   0.476E-01 0.314E-02
CGA:  10    -0.174343789257E+04   -0.22874E-02   -0.22855E-02   720   0.403E-01-0.438E-03
CGA:  11    -0.174344007364E+04   -0.21811E-02   -0.21875E-02   720   0.408E-01-0.192E-02
CGA:  12    -0.174344172889E+04   -0.16553E-02   -0.16686E-02   720   0.228E-01 0.171E-02
CGA:  13    -0.174344261766E+04   -0.88877E-03   -0.90170E-03   720   0.142E-01 0.128E-02
CGA:  14    -0.174344326883E+04   -0.65117E-03   -0.63548E-03   720   0.666E-02-0.173E-02
CGA:  15    -0.174344358774E+04   -0.31891E-03   -0.32690E-03   720   0.937E-02-0.136E-02
CGA:  16    -0.174344392351E+04   -0.33577E-03   -0.33837E-03   720   0.782E-02 0.597E-03
CGA:  17    -0.174344420922E+04   -0.28571E-03   -0.29662E-03   720   0.483E-02 0.730E-03
CGA:  18    -0.174344445759E+04   -0.24837E-03   -0.24514E-03   720   0.185E-02-0.122E-02
CGA:  19    -0.174344453187E+04   -0.74286E-04   -0.10545E-03   720   0.496E-02-0.116E-02
CGA:  20    -0.174344462089E+04   -0.89017E-04   -0.11351E-03   720   0.686E-03 0.889E-03
CGA:  21    -0.174344465476E+04   -0.33867E-04   -0.35463E-04   720   0.596E-03 0.309E-03
CGA:  22    -0.174344472514E+04   -0.70381E-04   -0.84890E-04   720   0.146E-02-0.296E-03
CGA:  23    -0.174344473907E+04   -0.13933E-04   -0.15906E-04   720   0.157E-02 0.665E-04
CGA:  24    -0.174344476563E+04   -0.26558E-04   -0.34349E-04   720   0.781E-03 0.267E-03
CGA:  25    -0.174344478722E+04   -0.21590E-04   -0.24183E-04   720   0.577E-03 0.117E-03
CGA:  26    -0.174344481592E+04   -0.28703E-04   -0.27258E-04   720   0.414E-03-0.241E-03
CGA:  27    -0.174344481341E+04    0.25104E-05   -0.20328E-04   720   0.160E-02-0.614E-03
CGA:  28    -0.174344485139E+04   -0.37983E-04   -0.46194E-04   720   0.445E-03 0.411E-03
CGA:  29    -0.174344488653E+04   -0.35139E-04   -0.35473E-04   720   0.181E-03-0.191E-04
CGA:  30    -0.174344490594E+04   -0.19409E-04    0.27129E-04   720   0.194E-03 0.102E-04
CGA:  31    -0.174344492306E+04   -0.17122E-04   -0.38280E-04   720   0.449E-03-0.154E-03
CGA:  32    -0.174344494421E+04   -0.21149E-04   -0.20823E-04   720   0.931E-04-0.366E-04
CGA:  33    -0.174344495620E+04   -0.11990E-04    0.85602E-05   720   0.559E-04 0.405E-04
CGA:  34    -0.174344495794E+04   -0.17376E-05   -0.28012E-05   720   0.287E-04 0.528E-04
  19 F= -.17434450E+04 E0= -.17434230E+04  d E =-.195999E+00  mag=    46.0000
       N       E                     dE             d eps       ncg     rms          ort
SDA:   1    -0.174291758820E+04    0.52737E+00    0.00000E+00   720   0.207E+01 0.000E+00
CGA:   2    -0.174307614541E+04   -0.15856E+00   -0.19269E+00   720   0.457E+01-0.824E+00
CGA:   3    -0.174321643367E+04   -0.14029E+00   -0.14047E+00   720   0.651E+01 0.167E-01
CGA:   4    -0.174340427349E+04   -0.18784E+00   -0.20542E+00   720   0.218E+01-0.176E+00
CGA:   5    -0.174346124019E+04   -0.56967E-01   -0.56716E-01   720   0.372E+00 0.214E-02
CGA:   6    -0.174348735316E+04   -0.26113E-01   -0.26251E-01   720   0.558E+00-0.466E-02
CGA:   7    -0.174351365810E+04   -0.26305E-01   -0.26320E-01   720   0.345E+00 0.454E-02
CGA:   8    -0.174352540453E+04   -0.11746E-01   -0.11986E-01   720   0.112E+00-0.930E-04
CGA:   9    -0.174352954607E+04   -0.41415E-02   -0.41738E-02   720   0.525E-01 0.451E-03
CGA:  10    -0.174353212511E+04   -0.25790E-02   -0.25807E-02   720   0.406E-01 0.603E-03
CGA:  11    -0.174353456128E+04   -0.24362E-02   -0.24403E-02   720   0.382E-01-0.405E-03
CGA:  12    -0.174353629213E+04   -0.17309E-02   -0.17372E-02   720   0.223E-01 0.111E-02
CGA:  13    -0.174353721938E+04   -0.92725E-03   -0.92842E-03   720   0.815E-02 0.309E-03
CGA:  14    -0.174353760939E+04   -0.39001E-03   -0.38481E-03   720   0.796E-02-0.131E-02
CGA:  15    -0.174353818282E+04   -0.57343E-03   -0.57887E-03   720   0.107E-01-0.151E-03
CGA:  16    -0.174353852134E+04   -0.33851E-03   -0.35916E-03   720   0.413E-02 0.112E-02
CGA:  17    -0.174353874111E+04   -0.21977E-03   -0.21732E-03   720   0.210E-02-0.677E-03
CGA:  18    -0.174353879522E+04   -0.54118E-04   -0.18484E-03   720   0.117E-01-0.242E-02
CGA:  19    -0.174353898618E+04   -0.19096E-03   -0.24616E-03   720   0.106E-02 0.173E-02
CGA:  20    -0.174353901744E+04   -0.31252E-04   -0.39419E-04   720   0.594E-03 0.419E-03
CGA:  21    -0.174353907597E+04   -0.58538E-04   -0.65938E-04   720   0.137E-02-0.263E-03
CGA:  22    -0.174353910031E+04   -0.24333E-04   -0.23535E-04   720   0.198E-02-0.367E-04
CGA:  23    -0.174353914878E+04   -0.48470E-04   -0.52695E-04   720   0.121E-02 0.171E-03
CGA:  24    -0.174353918787E+04   -0.39092E-04   -0.38735E-04   720   0.664E-03-0.176E-04
CGA:  25    -0.174353922024E+04   -0.32368E-04   -0.32636E-04   720   0.772E-03-0.507E-03
CGA:  26    -0.174353924310E+04   -0.22861E-04   -0.26180E-04   720   0.275E-03 0.214E-03
CGA:  27    -0.174353927212E+04   -0.29024E-04   -0.38985E-04   720   0.778E-03-0.160E-03
CGA:  28    -0.174353929693E+04   -0.24811E-04   -0.26565E-04   720   0.152E-03 0.103E-03
CGA:  29    -0.174353931538E+04   -0.18449E-04    0.76440E-04   720   0.131E-03-0.182E-04
CGA:  30    -0.174353932617E+04   -0.10784E-04   -0.27803E-05   720   0.929E-03-0.107E-03
CGA:  31    -0.174353937410E+04   -0.47933E-04   -0.41546E-04   720   0.380E-03-0.142E-03
CGA:  32    -0.174353937638E+04   -0.22758E-05   -0.79178E-05   720   0.883E-04 0.855E-04
  20 F= -.17435394E+04 E0= -.17435170E+04  d E =-.944184E-01  mag=    46.0000
       N       E                     dE             d eps       ncg     rms          ort
SDA:   1    -0.174351223562E+04    0.27138E-01    0.00000E+00   720   0.145E+00 0.000E+00
CGA:   2    -0.174352059917E+04   -0.83635E-02   -0.84337E-02   720   0.148E+00 0.206E-02
CGA:   3    -0.174353152140E+04   -0.10922E-01   -0.10871E-01   720   0.149E+00-0.466E-02
CGA:   4    -0.174354140787E+04   -0.98865E-02   -0.99324E-02   720   0.235E-01 0.162E-02
CGA:   5    -0.174354338517E+04   -0.19773E-02   -0.19764E-02   720   0.257E-01 0.722E-03
CGA:   6    -0.174354509682E+04   -0.17116E-02   -0.17040E-02   720   0.126E-01-0.556E-03
CGA:   7    -0.174354549049E+04   -0.39367E-03   -0.44758E-03   720   0.294E-02 0.124E-02
CGA:   8    -0.174354573171E+04   -0.24122E-03   -0.24066E-03   720   0.330E-02-0.146E-03
CGA:   9    -0.174354592726E+04   -0.19555E-03   -0.19493E-03   720   0.188E-02-0.479E-04
CGA:  10    -0.174354599206E+04   -0.64801E-04   -0.77971E-04   720   0.851E-03 0.374E-03
CGA:  11    -0.174354605185E+04   -0.59791E-04   -0.58507E-04   720   0.496E-03-0.616E-04
CGA:  12    -0.174354608060E+04   -0.28750E-04   -0.28421E-04   720   0.617E-03-0.269E-04
CGA:  13    -0.174354611353E+04   -0.32929E-04   -0.34872E-04   720   0.390E-03 0.135E-03
CGA:  14    -0.174354614430E+04   -0.30774E-04   -0.29384E-04   720   0.377E-03-0.123E-03
CGA:  15    -0.174354615950E+04   -0.15192E-04   -0.11963E-04   720   0.277E-03-0.123E-03
CGA:  16    -0.174354616576E+04   -0.62604E-05   -0.78803E-05   720   0.263E-03 0.546E-04
CGA:  17    -0.174354617305E+04   -0.72919E-05   -0.10780E-04   720   0.110E-03 0.971E-04
CGA:  18    -0.174354618455E+04   -0.11505E-04   -0.12378E-04   720   0.255E-03-0.621E-04
CGA:  19    -0.174354619479E+04   -0.10234E-04   -0.93794E-05   720   0.811E-04-0.272E-04
CGA:  20    -0.174354619791E+04   -0.31275E-05   -0.35196E-05   720   0.341E-04 0.207E-04
  21 F= -.17435462E+04 E0= -.17435237E+04  d E =-.682154E-02  mag=    46.0000
       N       E                     dE             d eps       ncg     rms          ort
SDA:   1    -0.174350915813E+04    0.37037E-01    0.00000E+00   720   0.169E+00 0.000E+00
CGA:   2    -0.174352303080E+04   -0.13873E-01   -0.13948E-01   720   0.243E+00-0.421E-02
CGA:   3    -0.174353970187E+04   -0.16671E-01   -0.16674E-01   720   0.104E+00-0.184E-02
CGA:   4    -0.174354504325E+04   -0.53414E-02   -0.53613E-02   720   0.586E-01 0.199E-02
CGA:   5    -0.174354907191E+04   -0.40287E-02   -0.40299E-02   720   0.385E-01-0.964E-03
CGA:   6    -0.174355162587E+04   -0.25540E-02   -0.25538E-02   720   0.151E-01-0.681E-05
CGA:   7    -0.174355217313E+04   -0.54726E-03   -0.59902E-03   720   0.576E-02 0.191E-02
CGA:   8    -0.174355261727E+04   -0.44414E-03   -0.44654E-03   720   0.430E-02-0.676E-03
CGA:   9    -0.174355287725E+04   -0.25998E-03   -0.25877E-03   720   0.203E-02 0.445E-03
CGA:  10    -0.174355300095E+04   -0.12370E-03   -0.12667E-03   720   0.687E-03 0.330E-03
CGA:  11    -0.174355305801E+04   -0.57054E-04   -0.60178E-04   720   0.117E-02-0.307E-03
CGA:  12    -0.174355306905E+04   -0.11048E-04   -0.18284E-04   720   0.107E-02 0.193E-03
CGA:  13    -0.174355308801E+04   -0.18961E-04   -0.31723E-04   720   0.606E-03 0.332E-03
CGA:  14    -0.174355312790E+04   -0.39883E-04   -0.38563E-04   720   0.428E-03-0.105E-03
CGA:  15    -0.174355309182E+04    0.36080E-04   -0.44294E-04   720   0.491E-02-0.125E-02
CGA:  16    -0.174355315220E+04   -0.60386E-04   -0.99918E-04   720   0.527E-03 0.907E-03
CGA:  17    -0.174355315994E+04   -0.77389E-05   -0.16424E-04   720   0.247E-03 0.245E-03
CGA:  18    -0.174355317629E+04   -0.16349E-04   -0.15935E-04   720   0.110E-03-0.235E-04
CGA:  19    -0.174355305945E+04    0.11684E-03   -0.62929E-04   720   0.446E-02-0.476E-03
CGA:  20    -0.174355316153E+04   -0.10207E-03   -0.12646E-03   720   0.540E-03 0.341E-03
CGA:  21    -0.174355319728E+04   -0.35753E-04   -0.32477E-04   720   0.183E-03-0.701E-04
CGA:  22    -0.174355321146E+04   -0.14177E-04   -0.10887E-04   720   0.224E-03-0.973E-04
CGA:  23    -0.174355321417E+04   -0.27123E-05   -0.59284E-05   720   0.437E-04 0.438E-04
  22 F= -.17435532E+04 E0= -.17435307E+04  d E =-.701625E-02  mag=    46.0000
       N       E                     dE             d eps       ncg     rms          ort
SDA:   1    -0.174354143241E+04    0.11779E-01    0.00000E+00   720   0.761E-01 0.000E+00
CGA:   2    -0.174354552446E+04   -0.40921E-02   -0.40384E-02   720   0.654E-01-0.167E-03
CGA:   3    -0.174355338274E+04   -0.78583E-02   -0.78847E-02   720   0.284E-01-0.957E-03
CGA:   4    -0.174355480593E+04   -0.14232E-02   -0.13607E-02   720   0.226E-01-0.168E-02
CGA:   5    -0.174355673305E+04   -0.19271E-02   -0.19291E-02   720   0.686E-02 0.194E-02
CGA:   6    -0.174355715288E+04   -0.41983E-03   -0.39910E-03   720   0.319E-02-0.658E-03
CGA:   7    -0.174355732591E+04   -0.17303E-03   -0.18730E-03   720   0.160E-02 0.578E-03
CGA:   8    -0.174355741421E+04   -0.88303E-04   -0.92492E-04   720   0.936E-03 0.104E-03
CGA:   9    -0.174355747217E+04   -0.57953E-04   -0.60679E-04   720   0.366E-03 0.104E-03
CGA:  10    -0.174355751284E+04   -0.40673E-04   -0.42349E-04   720   0.406E-03-0.901E-04
CGA:  11    -0.174355751996E+04   -0.71238E-05   -0.12098E-04   720   0.188E-03 0.106E-03
  23 F= -.17435575E+04 E0= -.17435350E+04  d E =-.430580E-02  mag=    46.0000
       N       E                     dE             d eps       ncg     rms          ort
SDA:   1    -0.174355318201E+04    0.43308E-02    0.00000E+00   720   0.704E-01 0.000E+00
CGA:   2    -0.174355518227E+04   -0.20003E-02   -0.20717E-02   720   0.172E-01 0.202E-02
[...]
CGA:  13    -0.174368830852E+04   -0.14498E-04    0.23800E-04   720   0.424E-04 0.358E-04
CGA:  14    -0.174368831967E+04   -0.11144E-04    0.18404E-05   720   0.203E-04-0.387E-05
CGA:  15    -0.174368831958E+04    0.87908E-07   -0.36056E-06   720   0.147E-04 0.132E-04
  90 F= -.17436883E+04 E0= -.17436640E+04  d E =0.128238E-02  mag=    46.0000
       N       E                     dE             d eps       ncg     rms          ort
SDA:   1    -0.174026112559E+04    0.34272E+01    0.00000E+00   720   0.104E+02 0.000E+00
CGA:   2    -0.174159578167E+04   -0.13347E+01   -0.14946E+01   720   0.406E+02-0.185E+01
CGA:   3    -0.174259443092E+04   -0.99865E+00   -0.10412E+01   720   0.793E+01-0.499E+00
CGA:   4    -0.174285453253E+04   -0.26010E+00   -0.27474E+00   720   0.488E+01-0.424E-01
CGA:   5    -0.174310540314E+04   -0.25087E+00   -0.25046E+00   720   0.756E+01-0.275E+00
CGA:   6    -0.174339966115E+04   -0.29426E+00   -0.29221E+00   720   0.335E+01-0.747E-01
CGA:   7    -0.174348123196E+04   -0.81571E-01   -0.82624E-01   720   0.704E+00-0.964E-01
CGA:   8    -0.174351070131E+04   -0.29469E-01   -0.29430E-01   720   0.685E+00-0.492E-02
CGA:   9    -0.174353762729E+04   -0.26926E-01   -0.26554E-01   720   0.495E+00 0.301E-02
CGA:  10    -0.174355726998E+04   -0.19643E-01   -0.19496E-01   720   0.384E+00-0.814E-02
CGA:  11    -0.174357043674E+04   -0.13167E-01   -0.13157E-01   720   0.155E+00-0.125E-01
CGA:  12    -0.174357542099E+04   -0.49843E-02   -0.50378E-02   720   0.105E+00-0.113E-02
CGA:  13    -0.174357969389E+04   -0.42729E-02   -0.43073E-02   720   0.669E-01 0.450E-02
CGA:  14    -0.174358265912E+04   -0.29652E-02   -0.29669E-02   720   0.535E-01 0.248E-03
CGA:  15    -0.174358536146E+04   -0.27023E-02   -0.26979E-02   720   0.501E-01 0.780E-03
CGA:  16    -0.174358801527E+04   -0.26538E-02   -0.26429E-02   720   0.311E-01 0.230E-02
CGA:  17    -0.174358892322E+04   -0.90795E-03   -0.91385E-03   720   0.103E-01 0.377E-03
CGA:  18    -0.174358981445E+04   -0.89122E-03   -0.90268E-03   720   0.241E-01-0.293E-03
CGA:  19    -0.174359096239E+04   -0.11479E-02   -0.11472E-02   720   0.184E-01 0.140E-02
CGA:  20    -0.174359179938E+04   -0.83698E-03   -0.84002E-03   720   0.124E-01 0.518E-03
CGA:  21    -0.174359236739E+04   -0.56802E-03   -0.56534E-03   720   0.882E-02-0.746E-03
CGA:  22    -0.174359274859E+04   -0.38120E-03   -0.38192E-03   720   0.789E-02 0.377E-03
CGA:  23    -0.174359323755E+04   -0.48896E-03   -0.47920E-03   720   0.833E-02 0.921E-03
CGA:  24    -0.174359366172E+04   -0.42417E-03   -0.42274E-03   720   0.569E-02-0.530E-03
CGA:  25    -0.174359398088E+04   -0.31916E-03   -0.32501E-03   720   0.476E-02-0.459E-03
CGA:  26    -0.174359416601E+04   -0.18513E-03   -0.18666E-03   720   0.303E-02 0.241E-03
CGA:  27    -0.174359431754E+04   -0.15153E-03   -0.15134E-03   720   0.224E-02-0.188E-03
CGA:  28    -0.174359448638E+04   -0.16883E-03   -0.17131E-03   720   0.312E-02-0.778E-04
CGA:  29    -0.174359459246E+04   -0.10609E-03   -0.10997E-03   720   0.148E-02 0.274E-03
CGA:  30    -0.174359468703E+04   -0.94567E-04   -0.95781E-04   720   0.138E-02-0.124E-03
CGA:  31    -0.174359473843E+04   -0.51398E-04   -0.51118E-04   720   0.957E-03-0.330E-04
SDA:  32    -0.174359476579E+04   -0.27363E-04   -0.31958E-04   720   0.569E-03 0.302E-03
CGA:  33    -0.174359478738E+04   -0.21592E-04   -0.22230E-04   720   0.353E-03 0.648E-04
CGA:  34    -0.174359482278E+04   -0.35401E-04   -0.33819E-04   720   0.312E-03 0.409E-04
CGA:  35    -0.174359484524E+04   -0.22459E-04   -0.20782E-04   720   0.175E-03 0.174E-03
CGA:  36    -0.174359486339E+04   -0.18145E-04    0.20283E-03   720   0.121E-03 0.257E-04
CGA:  37    -0.174359486463E+04   -0.12437E-05   -0.35499E-05   720   0.706E-04 0.915E-04
  91 F= -.17435949E+04 E0= -.17435702E+04  d E =0.934550E-01  mag=    46.0000
       N       E                     dE             d eps       ncg     rms          ort
SDA:   1    -0.174137752365E+04    0.22173E+01    0.00000E+00   720   0.722E+01 0.000E+00
CGA:   2    -0.174263411613E+04   -0.12566E+01   -0.11781E+01   720   0.794E+01 0.798E+00
CGA:   3    -0.174310639508E+04   -0.47228E+00   -0.47152E+00   720   0.418E+01-0.135E+01
CGA:   4    -0.174333984007E+04   -0.23344E+00   -0.23060E+00   720   0.312E+01 0.147E+00
CGA:   5    -0.174351520779E+04   -0.17537E+00   -0.17536E+00   720   0.167E+01 0.667E-01
CGA:   6    -0.174358770516E+04   -0.72497E-01   -0.72571E-01   720   0.790E+00 0.865E-02
CGA:   7    -0.174362934733E+04   -0.41642E-01   -0.41709E-01   720   0.395E+00 0.230E-01
CGA:   8    -0.174364811922E+04   -0.18772E-01   -0.18820E-01   720   0.208E+00 0.107E-01
CGA:   9    -0.174365793947E+04   -0.98203E-02   -0.98928E-02   720   0.110E+00 0.800E-02
CGA:  10    -0.174366507331E+04   -0.71338E-02   -0.71024E-02   720   0.766E-01 0.104E-02
CGA:  11    -0.174366881522E+04   -0.37419E-02   -0.37600E-02   720   0.476E-01 0.379E-02
CGA:  12    -0.174367098279E+04   -0.21676E-02   -0.21763E-02   720   0.241E-01 0.162E-02
CGA:  13    -0.174367307418E+04   -0.20914E-02   -0.21525E-02   720   0.302E-01-0.189E-02
CGA:  14    -0.174367433526E+04   -0.12611E-02   -0.12651E-02   720   0.196E-01 0.409E-03
CGA:  15    -0.174367531439E+04   -0.97913E-03   -0.97776E-03   720   0.937E-02-0.270E-03
CGA:  16    -0.174367602433E+04   -0.70993E-03   -0.74030E-03   720   0.197E-01-0.119E-02
CGA:  17    -0.174367706712E+04   -0.10428E-02   -0.10463E-02   720   0.143E-01-0.604E-03
CGA:  18    -0.174367760999E+04   -0.54287E-03   -0.53457E-03   720   0.656E-02-0.503E-03
CGA:  19    -0.174367791994E+04   -0.30995E-03   -0.30824E-03   720   0.616E-02-0.330E-03
CGA:  20    -0.174367832935E+04   -0.40941E-03   -0.40310E-03   720   0.798E-02 0.419E-03
CGA:  21    -0.174367874700E+04   -0.41765E-03   -0.41697E-03   720   0.371E-02-0.131E-03
CGA:  22    -0.174367891367E+04   -0.16667E-03   -0.16500E-03   720   0.261E-02-0.185E-03
CGA:  23    -0.174367901576E+04   -0.10209E-03   -0.10717E-03   720   0.142E-02 0.462E-03
CGA:  24    -0.174367911975E+04   -0.10400E-03   -0.10427E-03   720   0.214E-02-0.363E-04
CGA:  25    -0.174367926101E+04   -0.14126E-03   -0.15427E-03   720   0.299E-02-0.653E-03
CGA:  26    -0.174367931392E+04   -0.52909E-04   -0.59533E-04   720   0.154E-02 0.251E-03
CGA:  27    -0.174367933764E+04   -0.23722E-04   -0.33405E-04   720   0.527E-03 0.293E-03
CGA:  28    -0.174367935857E+04   -0.20921E-04   -0.21805E-04   720   0.628E-03 0.505E-04
CGA:  29    -0.174367940483E+04   -0.46260E-04   -0.57980E-04   720   0.203E-02-0.354E-03
CGA:  30    -0.174367945225E+04   -0.47422E-04   -0.54358E-04   720   0.275E-03 0.270E-03
CGA:  31    -0.174367945816E+04   -0.59158E-05   -0.40735E-04   720   0.149E-02-0.438E-03
CGA:  32    -0.174367949387E+04   -0.35705E-04   -0.42644E-04   720   0.158E-03 0.254E-03
CGA:  33    -0.174367950504E+04   -0.11167E-04   -0.12149E-04   720   0.215E-03-0.866E-04
CGA:  34    -0.174367950668E+04   -0.16455E-05   -0.46277E-05   720   0.646E-04 0.895E-04
  92 F= -.17436795E+04 E0= -.17436552E+04  d E =-.846421E-01  mag=    46.0000
       N       E                     dE             d eps       ncg     rms          ort
SDA:   1    -0.174367392010E+04    0.55849E-02    0.00000E+00   720   0.670E-01 0.000E+00
CGA:   2    -0.174367550747E+04   -0.15874E-02   -0.16858E-02   720   0.129E-01 0.392E-02
CGA:   3    -0.174367666281E+04   -0.11553E-02   -0.11622E-02   720   0.193E-01-0.212E-03
CGA:   4    -0.174367816614E+04   -0.15033E-02   -0.14929E-02   720   0.851E-02 0.386E-03
CGA:   5    -0.174367841176E+04   -0.24561E-03   -0.27030E-03   720   0.287E-02 0.108E-02
CGA:   6    -0.174367867189E+04   -0.26014E-03   -0.26185E-03   720   0.350E-02-0.588E-04
CGA:   7    -0.174367886450E+04   -0.19261E-03   -0.19292E-03   720   0.207E-02-0.154E-03
CGA:   8    -0.174367892947E+04   -0.64964E-04   -0.65202E-04   720   0.372E-03 0.950E-05
CGA:   9    -0.174367848791E+04    0.44156E-03   -0.23839E-03   720   0.209E-01-0.195E-02
CGA:  10    -0.174367896160E+04   -0.47369E-03   -0.52358E-03   720   0.172E-02 0.367E-03
CGA:  11    -0.174367901455E+04   -0.52953E-04   -0.58741E-04   720   0.186E-03 0.108E-03
CGA:  12    -0.174367901731E+04   -0.27558E-05   -0.70761E-05   720   0.923E-04 0.791E-04
  93 F= -.17436790E+04 E0= -.17436546E+04  d E =0.489375E-03  mag=    46.0000
       N       E                     dE             d eps       ncg     rms          ort
SDA:   1    -0.174367256610E+04    0.64484E-02    0.00000E+00   720   0.107E+00 0.000E+00
CGA:   2    -0.174367552155E+04   -0.29554E-02   -0.29664E-02   720   0.138E-01 0.978E-03
CGA:   3    -0.174367631942E+04   -0.79787E-03   -0.78485E-03   720   0.141E-01-0.694E-03
CGA:   4    -0.174367748146E+04   -0.11620E-02   -0.11556E-02   720   0.882E-02 0.171E-02
CGA:   5    -0.174367816599E+04   -0.68452E-03   -0.67458E-03   720   0.419E-02-0.660E-03
CGA:   6    -0.174367830939E+04   -0.14341E-03   -0.15364E-03   720   0.166E-02 0.237E-03
CGA:   7    -0.174367844055E+04   -0.13116E-03   -0.13119E-03   720   0.117E-02 0.693E-05
CGA:   8    -0.174367851682E+04   -0.76263E-04   -0.73535E-04   720   0.542E-03-0.160E-03
CGA:   9    -0.174367853418E+04   -0.17361E-04   -0.19620E-04   720   0.228E-03 0.608E-04
CGA:  10    -0.174367854112E+04   -0.69456E-05   -0.33298E-04   720   0.154E-02-0.481E-03
CGA:  11    -0.174367856728E+04   -0.26155E-04   -0.40117E-04   720   0.155E-03 0.273E-03
CGA:  12    -0.174367857238E+04   -0.50998E-05   -0.58542E-05   720   0.297E-04 0.184E-04
  94 F= -.17436786E+04 E0= -.17436542E+04  d E =0.444928E-03  mag=    46.0000
       N       E                     dE             d eps       ncg     rms          ort
SDA:   1    -0.174366041315E+04    0.18154E-01    0.00000E+00   720   0.494E-01 0.000E+00
CGA:   2    -0.174366619777E+04   -0.57846E-02   -0.57704E-02   720   0.109E+00 0.120E-03
CGA:   3    -0.174367196748E+04   -0.57697E-02   -0.58628E-02   720   0.406E-01 0.474E-02
CGA:   4    -0.174367405675E+04   -0.20893E-02   -0.20586E-02   720   0.196E-01-0.217E-02
CGA:   5    -0.174367572400E+04   -0.16673E-02   -0.16783E-02   720   0.156E-01-0.600E-03
CGA:   6    -0.174367627847E+04   -0.55446E-03   -0.54929E-03   720   0.377E-02-0.274E-03
CGA:   7    -0.174367649850E+04   -0.22003E-03   -0.22026E-03   720   0.122E-02 0.354E-04
CGA:   8    -0.174367660386E+04   -0.10536E-03   -0.33694E-03   720   0.470E-02-0.114E-02
CGA:   9    -0.174367672481E+04   -0.12095E-03   -0.13964E-03   720   0.483E-03 0.370E-03
CGA:  10    -0.174367675689E+04   -0.32081E-04   -0.33669E-04   720   0.347E-03 0.117E-03
CGA:  11    -0.174367678865E+04   -0.31760E-04   -0.31819E-04   720   0.173E-03 0.153E-04
CGA:  12    -0.174367679236E+04   -0.37044E-05   -0.66152E-05   720   0.539E-04 0.716E-04
  95 F= -.17436768E+04 E0= -.17436524E+04  d E =0.178002E-02  mag=    46.0000
       N       E                     dE             d eps       ncg     rms          ort
SDA:   1    -0.174361740138E+04    0.59387E-01    0.00000E+00   720   0.155E+00 0.000E+00
CGA:   2    -0.174363637232E+04   -0.18971E-01   -0.19507E-01   720   0.415E+00-0.912E-02
CGA:   3    -0.174366397882E+04   -0.27606E-01   -0.27630E-01   720   0.761E-01 0.240E-02
CGA:   4    -0.174366766278E+04   -0.36840E-02   -0.36878E-02   720   0.415E-01-0.116E-02
CGA:   5    -0.174367097569E+04   -0.33129E-02   -0.33108E-02   720   0.309E-01 0.372E-03
CGA:   6    -0.174367272254E+04   -0.17468E-02   -0.17238E-02   720   0.954E-02-0.139E-02
CGA:   7    -0.174367319244E+04   -0.46990E-03   -0.42622E-03   720   0.516E-02-0.167E-02
CGA:   8    -0.174367347083E+04   -0.27839E-03   -0.28168E-03   720   0.331E-02 0.494E-03
CGA:   9    -0.174367366733E+04   -0.19650E-03   -0.19329E-03   720   0.150E-02-0.174E-03
CGA:  10    -0.174367373591E+04   -0.68577E-04   -0.73109E-04   720   0.645E-03 0.227E-03
CGA:  11    -0.174367379201E+04   -0.56101E-04   -0.56637E-04   720   0.635E-03-0.929E-04
CGA:  12    -0.174367381176E+04   -0.19751E-04   -0.24922E-04   720   0.267E-03 0.208E-03
CGA:  13    -0.174367382346E+04   -0.11697E-04   -0.13802E-04   720   0.125E-03 0.688E-04
CGA:  14    -0.174367380535E+04    0.18106E-04   -0.38844E-04   720   0.209E-02-0.316E-03
CGA:  15    -0.174367383763E+04   -0.32272E-04   -0.51298E-04   720   0.244E-03 0.365E-03
CGA:  16    -0.174367385023E+04   -0.12606E-04   -0.12177E-04   720   0.845E-04-0.127E-04
CGA:  17    -0.174367386471E+04   -0.14481E-04    0.11989E-04   720   0.111E-03-0.196E-04
CGA:  18    -0.174367386691E+04   -0.21953E-05   -0.31474E-05   720   0.686E-04 0.267E-04
  96 F= -.17436739E+04 E0= -.17436495E+04  d E =0.292545E-02  mag=    46.0000
       N       E                     dE             d eps       ncg     rms          ort
SDA:   1    -0.174310027943E+04    0.57359E+00    0.00000E+00   720   0.138E+01 0.000E+00
CGA:   2    -0.174347111778E+04   -0.37084E+00   -0.37478E+00   720   0.300E+01-0.324E-01
CGA:   3    -0.174357116337E+04   -0.10005E+00   -0.10611E+00   720   0.748E+00-0.999E-01
CGA:   4    -0.174360574872E+04   -0.34585E-01   -0.35367E-01   720   0.507E+00 0.121E-01
CGA:   5    -0.174364058808E+04   -0.34839E-01   -0.34805E-01   720   0.253E+00-0.779E-02
CGA:   6    -0.174365444540E+04   -0.13857E-01   -0.14109E-01   720   0.106E+00 0.767E-03
CGA:   7    -0.174365881843E+04   -0.43730E-02   -0.44266E-02   720   0.408E-01 0.186E-02
CGA:   8    -0.174366205062E+04   -0.32322E-02   -0.32648E-02   720   0.433E-01-0.433E-02
CGA:   9    -0.174366344974E+04   -0.13991E-02   -0.14439E-02   720   0.162E-01 0.170E-02
CGA:  10    -0.174366450751E+04   -0.10578E-02   -0.10655E-02   720   0.129E-01 0.994E-03
CGA:  11    -0.174366517306E+04   -0.66555E-03   -0.62073E-03   720   0.735E-02-0.206E-02
CGA:  12    -0.174366542894E+04   -0.25587E-03   -0.26147E-03   720   0.329E-02 0.178E-03
CGA:  13    -0.174366559468E+04   -0.16575E-03   -0.18072E-03   720   0.259E-02 0.106E-02
CGA:  14    -0.174366577183E+04   -0.17715E-03   -0.17639E-03   720   0.217E-02-0.339E-04
CGA:  15    -0.174366587946E+04   -0.10763E-03   -0.11105E-03   720   0.952E-03 0.245E-03
CGA:  16    -0.174366593047E+04   -0.51016E-04   -0.54002E-04   720   0.104E-02 0.204E-03
CGA:  17    -0.174366603702E+04   -0.10655E-03   -0.11123E-03   720   0.118E-02-0.204E-03
CGA:  18    -0.174366605857E+04   -0.21545E-04   -0.28615E-04   720   0.619E-03 0.194E-03
CGA:  19    -0.174366608197E+04   -0.23406E-04   -0.28758E-04   720   0.648E-03 0.220E-03
CGA:  20    -0.174366613220E+04   -0.50223E-04   -0.50014E-04   720   0.519E-03-0.270E-04
CGA:  21    -0.174366616084E+04   -0.28646E-04   -0.28659E-04   720   0.477E-03 0.426E-05
CGA:  22    -0.174366617572E+04   -0.14872E-04   -0.17029E-04   720   0.307E-03 0.786E-04
CGA:  23    -0.174366619501E+04   -0.19297E-04   -0.45927E-04   720   0.119E-02-0.392E-03
CGA:  24    -0.174366623429E+04   -0.39274E-04   -0.39354E-04   720   0.244E-03 0.136E-06
CGA:  25    -0.174366623306E+04    0.12247E-05   -0.45621E-05   720   0.900E-04 0.131E-03
  97 F= -.17436662E+04 E0= -.17436418E+04  d E =0.763384E-02  mag=    46.0000
       N       E                     dE             d eps       ncg     rms          ort
SDA:   1    -0.174362857854E+04    0.37656E-01    0.00000E+00   720   0.138E+00 0.000E+00
CGA:   2    -0.174364878536E+04   -0.20207E-01   -0.20815E-01   720   0.247E+00-0.664E-02
CGA:   3    -0.174365898305E+04   -0.10198E-01   -0.10117E-01   720   0.573E-01-0.211E-02
CGA:   4    -0.174366436002E+04   -0.53770E-02   -0.53483E-02   720   0.665E-01 0.875E-03
CGA:   5    -0.174366811456E+04   -0.37545E-02   -0.37737E-02   720   0.188E-01 0.289E-02
CGA:   6    -0.174366920908E+04   -0.10945E-02   -0.10863E-02   720   0.927E-02-0.105E-02
CGA:   7    -0.174366963145E+04   -0.42237E-03   -0.43703E-03   720   0.488E-02 0.111E-02
CGA:   8    -0.174367000411E+04   -0.37266E-03   -0.37054E-03   720   0.221E-02 0.406E-03
CGA:   9    -0.174367012235E+04   -0.11824E-03   -0.12166E-03   720   0.123E-02 0.282E-03
CGA:  10    -0.174367020142E+04   -0.79075E-04   -0.79238E-04   720   0.744E-03 0.312E-04
CGA:  11    -0.174367024796E+04   -0.46534E-04   -0.46649E-04   720   0.342E-03 0.146E-03
CGA:  12    -0.174367013886E+04    0.10909E-03   -0.12206E-03   720   0.633E-02-0.974E-03
CGA:  13    -0.174367030389E+04   -0.16503E-03   -0.18967E-03   720   0.590E-03 0.575E-03
CGA:  14    -0.174367033001E+04   -0.26119E-04   -0.26082E-04   720   0.168E-03-0.630E-06
CGA:  15    -0.174367034095E+04   -0.10942E-04   -0.11196E-04   720   0.131E-03 0.725E-04
CGA:  16    -0.174367035892E+04   -0.17973E-04   -0.22894E-04   720   0.364E-03-0.941E-04
CGA:  17    -0.174367036204E+04   -0.31181E-05   -0.75637E-05   720   0.517E-04 0.851E-04
  98 F= -.17436704E+04 E0= -.17436459E+04  d E =-.412898E-02  mag=    46.0000
       N       E                     dE             d eps       ncg     rms          ort
SDA:   1    -0.174360067079E+04    0.69688E-01    0.00000E+00   720   0.244E+00 0.000E+00
CGA:   2    -0.174361563673E+04   -0.14966E-01   -0.15007E-01   720   0.370E+00 0.530E-02
CGA:   3    -0.174365494541E+04   -0.39309E-01   -0.39573E-01   720   0.162E+00-0.739E-02
CGA:   4    -0.174366086673E+04   -0.59213E-02   -0.59107E-02   720   0.685E-01 0.404E-02
CGA:   5    -0.174366754614E+04   -0.66794E-02   -0.67450E-02   720   0.554E-01-0.254E-02
CGA:   6    -0.174366993246E+04   -0.23863E-02   -0.24135E-02   720   0.951E-02 0.101E-02
CGA:   7    -0.174367049259E+04   -0.56013E-03   -0.56319E-03   720   0.735E-02 0.279E-03
CGA:   8    -0.174367100244E+04   -0.50985E-03   -0.51015E-03   720   0.509E-02 0.590E-03
CGA:   9    -0.174367134458E+04   -0.34215E-03   -0.33870E-03   720   0.157E-02-0.563E-03
CGA:  10    -0.174367138207E+04   -0.37481E-04   -0.49405E-04   720   0.687E-03 0.368E-03
CGA:  11    -0.174367145594E+04   -0.73873E-04   -0.74912E-04   720   0.893E-03-0.464E-04
CGA:  12    -0.174367151690E+04   -0.60963E-04   -0.62477E-04   720   0.828E-03-0.191E-03
CGA:  13    -0.174367152871E+04   -0.11809E-04   -0.16841E-04   720   0.300E-03 0.119E-03
CGA:  14    -0.174367153500E+04   -0.62857E-05   -0.88559E-05   720   0.156E-03 0.647E-04
CGA:  15    -0.174367154823E+04   -0.13228E-04   -0.14173E-04   720   0.397E-03-0.836E-04
CGA:  16    -0.174367155927E+04   -0.11040E-04   -0.12441E-04   720   0.748E-04 0.434E-04
CGA:  17    -0.174367157070E+04   -0.11432E-04    0.24805E-04   720   0.791E-04 0.827E-05
CGA:  18    -0.174367157369E+04   -0.29877E-05   -0.38792E-05   720   0.527E-04 0.489E-04
  99 F= -.17436716E+04 E0= -.17436472E+04  d E =-.121164E-02  mag=    46.0000
       N       E                     dE             d eps       ncg     rms          ort
SDA:   1    -0.174366643497E+04    0.51357E-02    0.00000E+00   720   0.508E-01 0.000E+00
CGA:   2    -0.174366804250E+04   -0.16075E-02   -0.16217E-02   720   0.178E-01 0.170E-02
CGA:   3    -0.174367007092E+04   -0.20284E-02   -0.22122E-02   720   0.320E-01-0.310E-02
CGA:   4    -0.174367119541E+04   -0.11245E-02   -0.11533E-02   720   0.131E-01 0.136E-02
CGA:   5    -0.174367175264E+04   -0.55723E-03   -0.56640E-03   720   0.485E-02 0.551E-03
CGA:   6    -0.174367213469E+04   -0.38205E-03   -0.39778E-03   720   0.892E-02-0.911E-03
CGA:   7    -0.174367235617E+04   -0.22148E-03   -0.24184E-03   720   0.326E-02 0.690E-03
CGA:   8    -0.174367240741E+04   -0.51245E-04   -0.72583E-04   720   0.940E-03 0.531E-03
CGA:   9    -0.174367244032E+04   -0.32905E-04   -0.34305E-04   720   0.553E-03 0.527E-04
CGA:  10    -0.174367246694E+04   -0.26626E-04   -0.63069E-04   720   0.320E-02-0.721E-03
CGA:  11    -0.174367251143E+04   -0.44492E-04   -0.67321E-04   720   0.382E-03 0.585E-03
CGA:  12    -0.174367252143E+04   -0.99955E-05   -0.12924E-04   720   0.948E-04 0.102E-03
CGA:  13    -0.174367252312E+04   -0.16916E-05   -0.12356E-04   720   0.808E-03-0.230E-03
CGA:  14    -0.174367252967E+04   -0.65454E-05   -0.15072E-04   720   0.113E-03 0.210E-03
 100 F= -.17436725E+04 E0= -.17436481E+04  d E =-.955982E-03  mag=    46.0000
