       N       E                     dE             d eps       ncg     rms          ort
DAV:   1     0.210020820368E+04    0.21002E+04   -0.13591E+05  9450   0.163E+03
DAV:   2    -0.227200660390E+03   -0.23274E+04   -0.21822E+04  9450   0.423E+02
DAV:   3    -0.447345656966E+03   -0.22014E+03   -0.21296E+03  9450   0.140E+02
DAV:   4    -0.453401202923E+03   -0.60555E+01   -0.59205E+01  9450   0.221E+01
DAV:   5    -0.453758234181E+03   -0.35703E+00   -0.34730E+00  9450   0.372E+00
SDA:   6    -0.368312930271E+03    0.85445E+02   -0.34730E+00  9450   0.839E+03 0.000E+00
CGA:   7    -0.354141794434E+03    0.14171E+02   -0.70641E+02  9450   0.358E+03-0.159E+03
CGA:   8    -0.368227999707E+03   -0.14086E+02   -0.60716E+01  9450   0.268E+03 0.366E+03
CGA:   9    -0.362842952021E+03    0.53850E+01   -0.12487E+02  9450   0.188E+04-0.138E+04
CGA:  10    -0.345851231239E+03    0.16992E+02   -0.15515E+03  9450   0.329E+03-0.202E+03
CGA:  11    -0.357671179479E+03   -0.11820E+02   -0.50680E+01  9450   0.329E+03 0.379E+03
CGA:  12    -0.378016306758E+03   -0.20345E+02   -0.10753E+02  9450   0.428E+01 0.386E+02
CGA:  13    -0.378172617346E+03   -0.15631E+00   -0.16526E+00  9450   0.136E+01-0.271E+00
CGA:  14    -0.378389727499E+03   -0.21711E+00   -0.21770E+00  9450   0.210E+01-0.431E-01
CGA:  15    -0.378500202395E+03   -0.11047E+00   -0.10246E+00  9450   0.527E+00 0.227E-01
CGA:  16    -0.378573172198E+03   -0.72970E-01   -0.72522E-01  9450   0.114E+01-0.527E-01
CGA:  17    -0.378644685813E+03   -0.71514E-01   -0.69640E-01  9450   0.320E+00-0.114E+00
CGA:  18    -0.378672683015E+03   -0.27997E-01   -0.27243E-01  9450   0.489E+00-0.376E-01
CGA:  19    -0.378722578277E+03   -0.49895E-01   -0.48002E-01  9450   0.188E+00-0.721E-01
CGA:  20    -0.378735178291E+03   -0.12600E-01   -0.11131E-01  9450   0.128E+00-0.231E-01
CGA:  21    -0.378754625594E+03   -0.19447E-01   -0.22724E-01  9450   0.163E+00-0.506E-01
CGA:  22    -0.378760707932E+03   -0.60823E-02   -0.48766E-02  9450   0.511E-01-0.185E-01
CGA:  23    -0.378764165364E+03   -0.34574E-02   -0.31738E-02  9450   0.507E-01-0.550E-02
CGA:  24    -0.378769162871E+03   -0.49975E-02   -0.48669E-02  9450   0.376E-01-0.524E-02
CGA:  25    -0.378770875202E+03   -0.17123E-02   -0.16380E-02  9450   0.138E-01-0.145E-02
CGA:  26    -0.378772222235E+03   -0.13470E-02   -0.13484E-02  9450   0.219E-01-0.158E-04
CGA:  27    -0.378774032693E+03   -0.18105E-02   -0.18487E-02  9450   0.114E-01 0.883E-03
CGA:  28    -0.378774540078E+03   -0.50738E-03   -0.59962E-03  9450   0.563E-02 0.122E-02
CGA:  29    -0.378774908390E+03   -0.36831E-03   -0.47525E-03  9450   0.659E-02 0.242E-02
CGA:  30    -0.378775364913E+03   -0.45652E-03   -0.63638E-03  9450   0.256E-02 0.357E-02
CGA:  31    -0.378775499804E+03   -0.13489E-03   -0.16740E-03  9450   0.101E-02 0.644E-03
CGA:  32    -0.378775545615E+03   -0.45811E-04   -0.89776E-04  9450   0.989E-03 0.105E-02
CGA:  33    -0.378775573456E+03   -0.27841E-04   -0.59549E-04  9450   0.639E-03 0.628E-03
CGA:  34    -0.378775584788E+03   -0.11332E-04   -0.39212E-04  9450   0.570E-03 0.597E-03
CGA:  35    -0.378775590445E+03   -0.56572E-05   -0.32285E-04  9450   0.521E-03 0.543E-03
CGA:  36    -0.378775593191E+03   -0.27459E-05   -0.27725E-04  9450   0.481E-03 0.499E-03
CGA:  37    -0.378775593952E+03   -0.76141E-06   -0.24192E-04  9450   0.449E-03 0.464E-03
CGA:  38    -0.378775593392E+03    0.55991E-06   -0.21403E-04  9450   0.422E-03 0.434E-03
CGA:  39    -0.378775591929E+03    0.14630E-05   -0.19134E-04  9450   0.398E-03 0.409E-03
CGA:  40    -0.378775589850E+03    0.20796E-05   -0.17250E-04  9450   0.378E-03 0.387E-03
CGA:  41    -0.378775587354E+03    0.24961E-05   -0.15663E-04  9450   0.360E-03 0.368E-03
CGA:  42    -0.378775584582E+03    0.27717E-05   -0.14307E-04  9450   0.345E-03 0.352E-03
CGA:  43    -0.378775581638E+03    0.29440E-05   -0.13136E-04  9450   0.331E-03 0.337E-03
CGA:  44    -0.378775578599E+03    0.30390E-05   -0.12117E-04  9450   0.318E-03 0.324E-03
CGA:  45    -0.378775575526E+03    0.30723E-05   -0.11226E-04  9450   0.307E-03 0.312E-03
CGA:  46    -0.378775572472E+03    0.30549E-05   -0.10446E-04  9450   0.297E-03 0.301E-03
   1 F= -.37877557E+03 E0= -.37877140E+03  d E =-.378776E+03  mag=     8.0000
       N       E                     dE             d eps       ncg     rms          ort
SDA:   1    -0.378709586056E+03    0.65989E-01    0.00000E+00  9450   0.177E+00 0.000E+00
CGA:   2    -0.378750756965E+03   -0.41171E-01   -0.40194E-01  9450   0.142E+00 0.637E-02
CGA:   3    -0.378762698167E+03   -0.11941E-01   -0.11942E-01  9450   0.486E-01 0.139E-02
CGA:   4    -0.378771316786E+03   -0.86186E-02   -0.86174E-02  9450   0.100E-01 0.168E-04
CGA:   5    -0.378772756482E+03   -0.14397E-02   -0.14537E-02  9450   0.630E-02-0.236E-03
CGA:   6    -0.378773302613E+03   -0.54613E-03   -0.54612E-03  9450   0.145E-02-0.102E-04
CGA:   7    -0.378773509764E+03   -0.20715E-03   -0.19068E-03  9450   0.352E-03 0.389E-03
CGA:   8    -0.378773534356E+03   -0.24592E-04   -0.31395E-04  9450   0.211E-03 0.319E-03
CGA:   9    -0.378773538541E+03   -0.41860E-05   -0.11132E-04  9450   0.165E-03 0.183E-03
   2 F= -.37877354E+03 E0= -.37876939E+03  d E =0.203393E-02  mag=     8.0000
       N       E                     dE             d eps       ncg     rms          ort
SDA:   1    -0.378754049930E+03    0.19484E-01    0.00000E+00  9450   0.562E-01 0.000E+00
CGA:   2    -0.378767344470E+03   -0.13295E-01   -0.13793E-01  9450   0.584E-01-0.313E-02
CGA:   3    -0.378771518938E+03   -0.41745E-02   -0.41597E-02  9450   0.155E-01-0.778E-03
CGA:   4    -0.378774212114E+03   -0.26932E-02   -0.26728E-02  9450   0.288E-02 0.246E-03
CGA:   5    -0.378774633511E+03   -0.42140E-03   -0.41702E-03  9450   0.190E-02 0.971E-04
CGA:   6    -0.378774809092E+03   -0.17558E-03   -0.17525E-03  9450   0.498E-03-0.307E-04
CGA:   7    -0.378774389930E+03    0.41916E-03   -0.23561E-03  9450   0.655E-02-0.133E-02
CGA:   8    -0.378774880080E+03   -0.49015E-03   -0.46618E-03  9450   0.167E-02-0.215E-03
CGA:   9    -0.378775122778E+03   -0.24270E-03   -0.23131E-03  9450   0.504E-03-0.351E-03
CGA:  10    -0.378775194249E+03   -0.71471E-04   -0.74397E-04  9450   0.755E-03-0.224E-03
CGA:  11    -0.378775262119E+03   -0.67870E-04   -0.55149E-04  9450   0.213E-03-0.297E-03
CGA:  12    -0.378775323307E+03   -0.61189E-04    0.30121E-04  9450   0.988E-04 0.507E-04
CGA:  13    -0.378775050126E+03    0.27318E-03   -0.10167E-03  9450   0.531E-02-0.569E-03
CGA:  14    -0.378775362973E+03   -0.31285E-03   -0.30915E-03  9450   0.591E-03-0.367E-04
CGA:  15    -0.378775475433E+03   -0.11246E-03   -0.11202E-03  9450   0.191E-03-0.606E-04
CGA:  16    -0.378775498029E+03   -0.22596E-04   -0.16570E-04  9450   0.933E-04-0.597E-04
CGA:  17    -0.378775542399E+03   -0.44370E-04    0.77340E-05  9450   0.186E-04-0.297E-05
CGA:  18    -0.378775554587E+03   -0.12188E-04    0.23081E-05  9450   0.362E-04-0.408E-05
CGA:  19    -0.378775582931E+03   -0.28344E-04    0.17068E-05  9450   0.264E-04-0.972E-05
CGA:  20    -0.378775623684E+03   -0.40753E-04    0.41486E-06  9450   0.213E-04 0.120E-04
CGA:  21    -0.378775668428E+03   -0.44744E-04    0.10811E-05  9450   0.354E-04-0.948E-06
CGA:  22    -0.378775736048E+03   -0.67619E-04    0.77909E-06  9450   0.450E-04-0.257E-04
CGA:  23    -0.378775738050E+03   -0.20024E-05   -0.37759E-05  9450   0.176E-04 0.163E-04
   3 F= -.37877574E+03 E0= -.37877186E+03  d E =-.165579E-03  mag=     8.0000
       N       E                     dE             d eps       ncg     rms          ort
SDA:   1    -0.378774481803E+03    0.12542E-02    0.00000E+00  9450   0.414E-02 0.000E+00
CGA:   2    -0.378775323297E+03   -0.84149E-03   -0.84886E-03  9450   0.522E-02-0.332E-03
CGA:   3    -0.378775741748E+03   -0.41845E-03   -0.40006E-03  9450   0.107E-02-0.179E-03
CGA:   4    -0.378775944938E+03   -0.20319E-03   -0.20465E-03  9450   0.420E-03-0.789E-04
CGA:   5    -0.378775981066E+03   -0.36128E-04   -0.35238E-04  9450   0.187E-03-0.100E-04
CGA:   6    -0.378776002973E+03   -0.21907E-04   -0.21670E-04  9450   0.553E-04-0.418E-05
CGA:   7    -0.378776024140E+03   -0.21167E-04    0.34094E-04  9450   0.419E-04-0.627E-05
CGA:   8    -0.378776056049E+03   -0.31908E-04    0.21526E-05  9450   0.569E-04-0.257E-04
CGA:   9    -0.378776065826E+03   -0.97770E-05   -0.99000E-05  9450   0.164E-03-0.697E-04
CGA:  10    -0.378776081100E+03   -0.15275E-04   -0.11365E-04  9450   0.160E-04-0.376E-04
CGA:  11    -0.378776092087E+03   -0.10986E-04    0.61968E-06  9450   0.141E-04-0.356E-05
CGA:  12    -0.378776113415E+03   -0.21328E-04    0.19125E-06  9450   0.397E-05 0.386E-05
CGA:  13    -0.378776127286E+03   -0.13871E-04    0.58673E-07  9450   0.305E-05 0.345E-05
CGA:  14    -0.378776134668E+03   -0.73822E-05    0.40997E-07  9450   0.539E-05 0.808E-06
   4 F= -.37877613E+03 E0= -.37877231E+03  d E =-.562196E-03  mag=     8.0000
       N       E                     dE             d eps       ncg     rms          ort
SDA:   1    -0.378775993074E+03    0.13421E-03    0.00000E+00  9450   0.855E-03 0.000E+00
CGA:   2    -0.378776111243E+03   -0.11817E-03   -0.11336E-03  9450   0.909E-03-0.138E-03
CGA:   3    -0.378776236022E+03   -0.12478E-03   -0.12427E-03  9450   0.262E-03-0.206E-03
CGA:   4    -0.378776272345E+03   -0.36323E-04   -0.37236E-04  9450   0.202E-03-0.497E-04
CGA:   5    -0.378776288110E+03   -0.15765E-04   -0.13407E-04  9450   0.439E-04-0.279E-04
CGA:   6    -0.378776273177E+03    0.14933E-04   -0.24353E-04  9450   0.262E-03-0.816E-04
CGA:   7    -0.378776321413E+03   -0.48236E-04   -0.47526E-04  9450   0.313E-03-0.140E-03
CGA:   8    -0.378776343103E+03   -0.21690E-04   -0.18493E-04  9450   0.247E-04-0.246E-04
CGA:   9    -0.378776353872E+03   -0.10769E-04    0.64207E-05  9450   0.183E-04-0.706E-05
CGA:  10    -0.378776368268E+03   -0.14396E-04    0.56932E-06  9450   0.305E-04-0.114E-04
CGA:  11    -0.378776372060E+03   -0.37921E-05   -0.26477E-05  9450   0.157E-04-0.123E-04
   5 F= -.37877637E+03 E0= -.37877260E+03  d E =-.799588E-03  mag=     8.0000
       N       E                     dE             d eps       ncg     rms          ort
SDA:   1    -0.378775545293E+03    0.82298E-03    0.00000E+00  9450   0.288E-02 0.000E+00
CGA:   2    -0.378775967844E+03   -0.42255E-03   -0.41452E-03  9450   0.343E-02-0.256E-03
CGA:   3    -0.378776356764E+03   -0.38892E-03   -0.37298E-03  9450   0.700E-03-0.292E-03
CGA:   4    -0.378776476035E+03   -0.11927E-03   -0.11947E-03  9450   0.251E-03-0.130E-04
CGA:   5    -0.378776501625E+03   -0.25590E-04   -0.24231E-04  9450   0.118E-03-0.185E-04
CGA:   6    -0.378776518834E+03   -0.17209E-04   -0.16734E-04  9450   0.570E-04-0.320E-04
CGA:   7    -0.378776536348E+03   -0.17514E-04    0.13342E-04  9450   0.564E-04-0.198E-04
CGA:   8    -0.378776566907E+03   -0.30558E-04    0.20814E-05  9450   0.488E-04-0.288E-04
CGA:   9    -0.378776132810E+03    0.43410E-03   -0.23786E-03  9450   0.890E-02-0.531E-03
CGA:  10    -0.378776609840E+03   -0.47703E-03   -0.47701E-03  9450   0.356E-03 0.605E-04
CGA:  11    -0.378776645629E+03   -0.35789E-04   -0.42313E-04  9450   0.686E-04 0.373E-04
CGA:  12    -0.378776648965E+03   -0.33361E-05   -0.56298E-05  9450   0.127E-04 0.110E-04
CGA:  13    -0.378776647954E+03    0.10114E-05   -0.10273E-04  9450   0.574E-04-0.265E-04
CGA:  14    -0.378776659802E+03   -0.11848E-04   -0.26223E-04  9450   0.431E-03-0.885E-04
CGA:  15    -0.378776685333E+03   -0.25531E-04   -0.24151E-04  9450   0.281E-04-0.381E-05
CGA:  16    -0.378776682577E+03    0.27559E-05   -0.16880E-04  9450   0.219E-03-0.621E-04
CGA:  17    -0.378776696588E+03   -0.14011E-04   -0.16568E-04  9450   0.655E-04 0.114E-04
CGA:  18    -0.378776706238E+03   -0.96494E-05   -0.96922E-05  9450   0.524E-05 0.286E-06
   6 F= -.37877671E+03 E0= -.37877300E+03  d E =-.113377E-02  mag=     8.0000
