       N       E                     dE             d eps       ncg     rms          ort
DAV:   1     0.228754129577E+04    0.22875E+04   -0.13627E+05 10080   0.152E+03
DAV:   2    -0.225952053803E+03   -0.25135E+04   -0.24198E+04 10080   0.401E+02
DAV:   3    -0.446531303038E+03   -0.22058E+03   -0.21560E+03 10080   0.138E+02
DAV:   4    -0.455680382649E+03   -0.91491E+01   -0.89525E+01 10080   0.304E+01
DAV:   5    -0.456163491946E+03   -0.48311E+00   -0.47939E+00 10080   0.473E+00
SDA:   6    -0.278569730044E+03    0.17759E+03   -0.47939E+00 10080   0.612E+03 0.000E+00
CGA:   7    -0.317119568203E+03   -0.38550E+02   -0.37907E+02 10080   0.202E+03 0.191E+03
CGA:   8    -0.331171222838E+03   -0.14052E+02   -0.23375E+02 10080   0.374E+03-0.135E+03
CGA:   9    -0.336170061242E+03   -0.49988E+01   -0.12998E+02 10080   0.188E+03 0.901E+02
CGA:  10    -0.341182833639E+03   -0.50128E+01   -0.14949E+02 10080   0.277E+03-0.995E+02
CGA:  11    -0.339251922176E+03    0.19309E+01   -0.20304E+02 10080   0.347E+03 0.494E+02
CGA:  12    -0.331367656100E+03    0.78843E+01   -0.22196E+02 10080   0.431E+03 0.210E+02
CGA:  13    -0.335211312012E+03   -0.38437E+01   -0.24477E+02 10080   0.762E+02-0.315E+02
CGA:  14    -0.340010275086E+03   -0.47990E+01   -0.11121E+01 10080   0.339E+03 0.387E+03
CGA:  15    -0.338821504618E+03    0.11888E+01   -0.17279E+02 10080   0.393E+03-0.134E+03
CGA:  16    -0.347155875205E+03   -0.83344E+01   -0.18398E+02 10080   0.565E+02 0.549E+01
CGA:  17    -0.349555321107E+03   -0.23994E+01   -0.26329E+01 10080   0.460E+02 0.108E+02
CGA:  18    -0.350602180556E+03   -0.10469E+01   -0.15672E+01 10080   0.481E+02-0.953E+02
CGA:  19    -0.350545764185E+03    0.56416E-01   -0.27176E+01 10080   0.513E+02-0.309E+02
CGA:  20    -0.352209172158E+03   -0.16634E+01   -0.16301E+01 10080   0.646E+01-0.169E+02
CGA:  21    -0.352525779290E+03   -0.31661E+00   -0.28704E+00 10080   0.233E+01 0.301E+00
CGA:  22    -0.352892216786E+03   -0.36644E+00   -0.35390E+00 10080   0.542E+01 0.394E+00
CGA:  23    -0.353065485329E+03   -0.17327E+00   -0.96777E-01 10080   0.272E+01 0.481E+01
CGA:  24    -0.353165908455E+03   -0.10042E+00   -0.70223E-01 10080   0.710E+00 0.102E+01
CGA:  25    -0.353223975722E+03   -0.58067E-01   -0.53252E-01 10080   0.153E+01 0.211E-02
CGA:  26    -0.353293726664E+03   -0.69751E-01   -0.54418E-01 10080   0.303E+01 0.196E+00
CGA:  27    -0.353369437818E+03   -0.75711E-01   -0.87024E-01 10080   0.406E+01-0.758E+00
CGA:  28    -0.353295081766E+03    0.74356E-01   -0.71530E-01 10080   0.915E+01-0.680E+01
CGA:  29    -0.353389463762E+03   -0.94382E-01   -0.25274E+00 10080   0.658E+01-0.484E+01
CGA:  30    -0.353471421431E+03   -0.81958E-01   -0.13843E+00 10080   0.233E+01-0.284E+01
CGA:  31    -0.353538470744E+03   -0.67049E-01   -0.71229E-01 10080   0.111E+01-0.537E-01
CGA:  32    -0.353583374499E+03   -0.44904E-01   -0.40498E-01 10080   0.699E+00 0.296E-01
CGA:  33    -0.353660555527E+03   -0.77181E-01   -0.76349E-01 10080   0.105E+01 0.213E-01
CGA:  34    -0.353698735887E+03   -0.38180E-01   -0.40511E-01 10080   0.388E+00-0.113E-01
CGA:  35    -0.353723045443E+03   -0.24310E-01   -0.25131E-01 10080   0.202E+00 0.217E-02
CGA:  36    -0.353739022047E+03   -0.15977E-01   -0.16035E-01 10080   0.285E+00 0.599E-02
CGA:  37    -0.353771848063E+03   -0.32826E-01   -0.32015E-01 10080   0.307E+00 0.135E-01
CGA:  38    -0.353790592798E+03   -0.18745E-01   -0.18050E-01 10080   0.135E+00 0.112E-02
CGA:  39    -0.353800336938E+03   -0.97441E-02   -0.96973E-02 10080   0.951E-01-0.844E-02
CGA:  40    -0.353814841694E+03   -0.14505E-01   -0.14783E-01 10080   0.122E+00-0.280E-02
CGA:  41    -0.353825335080E+03   -0.10493E-01   -0.10508E-01 10080   0.821E-01-0.132E-01
CGA:  42    -0.353831367592E+03   -0.60325E-02   -0.60319E-02 10080   0.731E-01-0.597E-03
CGA:  43    -0.353839964986E+03   -0.85974E-02   -0.89157E-02 10080   0.139E+00-0.948E-02
CGA:  44    -0.353851337156E+03   -0.11372E-01   -0.14668E-01 10080   0.191E+00-0.812E-01
CGA:  45    -0.353857558295E+03   -0.62211E-02   -0.61897E-02 10080   0.296E-01 0.542E-02
CGA:  46    -0.353864491806E+03   -0.69335E-02   -0.66240E-02 10080   0.118E+00 0.212E-02
CGA:  47    -0.353879547843E+03   -0.15056E-01   -0.15823E-01 10080   0.107E+00-0.171E-01
CGA:  48    -0.353884331855E+03   -0.47840E-02   -0.49207E-02 10080   0.664E-01 0.101E-02
CGA:  49    -0.353891922033E+03   -0.75902E-02   -0.77180E-02 10080   0.993E-01-0.330E-02
CGA:  50    -0.353896786672E+03   -0.48646E-02   -0.48420E-02 10080   0.248E-01-0.169E-02
CGA:  51    -0.353897824173E+03   -0.10375E-02   -0.99950E-03 10080   0.127E-01-0.655E-03
CGA:  52    -0.353899398686E+03   -0.15745E-02   -0.16626E-02 10080   0.352E-01-0.198E-02
CGA:  53    -0.353901518869E+03   -0.21202E-02   -0.20302E-02 10080   0.230E-01-0.235E-02
CGA:  54    -0.353902316423E+03   -0.79755E-03   -0.75329E-03 10080   0.112E-01 0.110E-04
CGA:  55    -0.353903494120E+03   -0.11777E-02   -0.12011E-02 10080   0.372E-01-0.108E-02
CGA:  56    -0.353905632592E+03   -0.21385E-02   -0.20483E-02 10080   0.227E-01-0.396E-03
CGA:  57    -0.353906183523E+03   -0.55093E-03   -0.51183E-03 10080   0.613E-02 0.803E-03
CGA:  58    -0.353906570572E+03   -0.38705E-03   -0.36714E-03 10080   0.139E-01-0.749E-03
CGA:  59    -0.353907503832E+03   -0.93326E-03   -0.90572E-03 10080   0.310E-01-0.258E-02
CGA:  60    -0.353908164875E+03   -0.66104E-03   -0.52788E-03 10080   0.147E-01 0.137E-03
CGA:  61    -0.353908488462E+03   -0.32359E-03   -0.26772E-03 10080   0.499E-02-0.102E-02
CGA:  62    -0.353908668696E+03   -0.18023E-03   -0.14513E-03 10080   0.657E-02-0.895E-03
CGA:  63    -0.353909050211E+03   -0.38151E-03   -0.37608E-03 10080   0.249E-01-0.137E-02
CGA:  64    -0.353909845243E+03   -0.79503E-03   -0.70610E-03 10080   0.272E-01 0.232E-03
CGA:  65    -0.353910347644E+03   -0.50240E-03   -0.45092E-03 10080   0.113E-01 0.368E-02
CGA:  66    -0.353910572856E+03   -0.22521E-03   -0.22465E-03 10080   0.480E-02 0.133E-03
CGA:  67    -0.353910711073E+03   -0.13822E-03   -0.12463E-03 10080   0.481E-02-0.458E-03
CGA:  68    -0.353910912837E+03   -0.20176E-03   -0.19307E-03 10080   0.119E-01-0.562E-03
CGA:  69    -0.353911365074E+03   -0.45224E-03   -0.47955E-03 10080   0.192E-01 0.966E-03
CGA:  70    -0.353911732151E+03   -0.36708E-03   -0.44547E-03 10080   0.483E-02 0.312E-02
CGA:  71    -0.353911785242E+03   -0.53091E-04   -0.96406E-04 10080   0.163E-02 0.103E-02
CGA:  72    -0.353911816618E+03   -0.31376E-04   -0.50499E-04 10080   0.182E-02 0.581E-03
CGA:  73    -0.353911929773E+03   -0.11316E-03   -0.11946E-03 10080   0.416E-02 0.752E-03
CGA:  74    -0.353912208945E+03   -0.27917E-03   -0.28869E-03 10080   0.549E-02 0.131E-02
SDA:  75    -0.353912360415E+03   -0.15147E-03   -0.19211E-03 10080   0.182E-02 0.127E-02
CGA:  76    -0.353912402764E+03   -0.42350E-04   -0.55444E-04 10080   0.580E-03 0.541E-03
CGA:  77    -0.353912442278E+03   -0.39514E-04   -0.39741E-04 10080   0.715E-03 0.444E-03
CGA:  78    -0.353912490757E+03   -0.48479E-04   -0.49303E-04 10080   0.855E-03-0.581E-04
CGA:  79    -0.353912532532E+03   -0.41774E-04   -0.42074E-04 10080   0.606E-03 0.573E-03
CGA:  80    -0.353912550904E+03   -0.18372E-04   -0.21315E-04 10080   0.207E-03 0.154E-03
CGA:  81    -0.353912573599E+03   -0.22695E-04   -0.18952E-04 10080   0.324E-03 0.188E-03
CGA:  82    -0.353912591094E+03   -0.17494E-04   -0.17500E-04 10080   0.240E-03 0.423E-04
CGA:  83    -0.353912622117E+03   -0.31023E-04   -0.23425E-04 10080   0.212E-03 0.238E-03
CGA:  84    -0.353912631558E+03   -0.94412E-05   -0.10032E-04 10080   0.143E-03 0.704E-04
CGA:  85    -0.353912650350E+03   -0.18792E-04   -0.14910E-04 10080   0.168E-03 0.170E-03
CGA:  86    -0.353912659522E+03   -0.91715E-05   -0.92281E-05 10080   0.139E-03 0.400E-04
CGA:  87    -0.353912675553E+03   -0.16031E-04   -0.13020E-04 10080   0.131E-03 0.158E-03
CGA:  88    -0.353912680646E+03   -0.50927E-05   -0.57994E-05 10080   0.887E-04 0.541E-04
   1 F= -.35391268E+03 E0= -.35390501E+03  d E =-.353913E+03  mag=    10.0000
       N       E                     dE             d eps       ncg     rms          ort
SDA:   1    -0.353918195011E+03   -0.55195E-02    0.00000E+00 10080   0.632E-01 0.000E+00
CGA:   2    -0.353920079791E+03   -0.18848E-02   -0.18827E-02 10080   0.149E-02-0.356E-03
CGA:   3    -0.353920165770E+03   -0.85978E-04   -0.85159E-04 10080   0.148E-02 0.526E-03
CGA:   4    -0.353920451540E+03   -0.28577E-03   -0.37120E-03 10080   0.248E-02-0.662E-03
CGA:   5    -0.353920464678E+03   -0.13138E-04   -0.25598E-04 10080   0.105E-02 0.282E-03
CGA:   6    -0.353920471626E+03   -0.69476E-05   -0.19435E-04 10080   0.475E-03 0.283E-03
CGA:   7    -0.353920481973E+03   -0.10347E-04   -0.16964E-04 10080   0.608E-03 0.221E-03
CGA:   8    -0.353920525239E+03   -0.43266E-04   -0.44270E-04 10080   0.605E-03 0.149E-03
CGA:   9    -0.353920551324E+03   -0.26085E-04   -0.23550E-04 10080   0.165E-03-0.106E-03
CGA:  10    -0.353920552918E+03   -0.15933E-05   -0.29733E-05 10080   0.999E-04 0.415E-04
   2 F= -.35392055E+03 E0= -.35391282E+03  d E =-.787227E-02  mag=    10.0000
       N       E                     dE             d eps       ncg     rms          ort
SDA:   1    -0.353602471921E+03    0.31808E+00    0.00000E+00 10080   0.276E+01 0.000E+00
CGA:   2    -0.353700913282E+03   -0.98441E-01   -0.99900E-01 10080   0.142E+01-0.245E-01
CGA:   3    -0.353983081704E+03   -0.28217E+00   -0.28216E+00 10080   0.928E+00-0.420E-02
CGA:   4    -0.354020844632E+03   -0.37763E-01   -0.38225E-01 10080   0.289E+00-0.357E-02
CGA:   5    -0.354069403703E+03   -0.48559E-01   -0.47396E-01 10080   0.228E+00 0.101E-01
CGA:   6    -0.354077271635E+03   -0.78679E-02   -0.78578E-02 10080   0.396E-01-0.349E-02
CGA:   7    -0.354082795462E+03   -0.55238E-02   -0.54775E-02 10080   0.661E-01 0.412E-03
CGA:   8    -0.354086104938E+03   -0.33095E-02   -0.33192E-02 10080   0.101E-01 0.244E-03
CGA:   9    -0.354086996254E+03   -0.89132E-03   -0.89224E-03 10080   0.158E-01-0.857E-04
CGA:  10    -0.354088586463E+03   -0.15902E-02   -0.16615E-02 10080   0.856E-02-0.179E-02
CGA:  11    -0.354088867251E+03   -0.28079E-03   -0.29529E-03 10080   0.260E-02 0.480E-03
CGA:  12    -0.354089507509E+03   -0.64026E-03   -0.76002E-03 10080   0.520E-02-0.564E-03
CGA:  13    -0.354089645712E+03   -0.13820E-03   -0.13866E-03 10080   0.105E-02 0.200E-04
CGA:  14    -0.354089724260E+03   -0.78549E-04   -0.78561E-04 10080   0.200E-02 0.848E-04
CGA:  15    -0.354089933793E+03   -0.20953E-03   -0.20904E-03 10080   0.625E-03 0.250E-04
CGA:  16    -0.354089958609E+03   -0.24816E-04   -0.23594E-04 10080   0.271E-03-0.355E-04
CGA:  17    -0.354090014528E+03   -0.55919E-04   -0.39958E-05 10080   0.130E-02-0.182E-03
CGA:  18    -0.354090058115E+03   -0.43586E-04   -0.42518E-04 10080   0.163E-03-0.142E-04
CGA:  19    -0.354090084650E+03   -0.26536E-04   -0.25250E-04 10080   0.222E-03 0.477E-04
CGA:  20    -0.354090099903E+03   -0.15252E-04   -0.14334E-04 10080   0.105E-03-0.126E-04
CGA:  21    -0.354090105282E+03   -0.53794E-05   -0.68097E-05 10080   0.330E-04 0.242E-04
CGA:  22    -0.354090115873E+03   -0.10591E-04    0.48428E-04 10080   0.767E-04 0.102E-04
CGA:  23    -0.354090126403E+03   -0.10530E-04   -0.10713E-04 10080   0.533E-04 0.104E-04
CGA:  24    -0.354090133887E+03   -0.74838E-05   -0.78530E-05 10080   0.307E-03-0.572E-04
   3 F= -.35409013E+03 E0= -.35408202E+03  d E =-.169581E+00  mag=    10.0000
       N       E                     dE             d eps       ncg     rms          ort
SDA:   1    -0.353392467491E+03    0.69766E+00    0.00000E+00 10080   0.661E+01 0.000E+00
CGA:   2    -0.353575382596E+03   -0.18292E+00   -0.22784E+00 10080   0.281E+01-0.144E+01
CGA:   3    -0.353996944053E+03   -0.42156E+00   -0.42205E+00 10080   0.174E+01-0.550E-02
CGA:   4    -0.354057290501E+03   -0.60346E-01   -0.61678E-01 10080   0.459E+00-0.418E-01
CGA:   5    -0.354125578360E+03   -0.68288E-01   -0.68089E-01 10080   0.588E+00 0.308E-02
CGA:   6    -0.354148743028E+03   -0.23165E-01   -0.23199E-01 10080   0.697E-01 0.317E-02
CGA:   7    -0.354155741710E+03   -0.69987E-02   -0.69936E-02 10080   0.117E+00-0.105E-02
CGA:   8    -0.354163977398E+03   -0.82357E-02   -0.82570E-02 10080   0.206E-01 0.521E-03
CGA:   9    -0.354165214908E+03   -0.12375E-02   -0.12194E-02 10080   0.196E-01-0.546E-03
CGA:  10    -0.354167821047E+03   -0.26061E-02   -0.26072E-02 10080   0.114E-01-0.403E-04
CGA:  11    -0.354168323135E+03   -0.50209E-03   -0.48575E-03 10080   0.457E-02-0.347E-03
CGA:  12    -0.354169050058E+03   -0.72692E-03   -0.71736E-03 10080   0.716E-02 0.172E-03
CGA:  13    -0.354169440662E+03   -0.39060E-03   -0.37354E-03 10080   0.214E-02-0.360E-03
CGA:  14    -0.354169594014E+03   -0.15335E-03   -0.15691E-03 10080   0.187E-02 0.128E-03
CGA:  15    -0.354169812704E+03   -0.21869E-03   -0.22123E-03 10080   0.289E-02-0.339E-03
CGA:  16    -0.354169937663E+03   -0.12496E-03   -0.12598E-03 10080   0.292E-03 0.218E-04
CGA:  17    -0.354169827560E+03    0.11010E-03   -0.74691E-04 10080   0.947E-02-0.540E-03
CGA:  18    -0.354170042250E+03   -0.21469E-03   -0.22691E-03 10080   0.372E-03-0.123E-04
CGA:  19    -0.354170119119E+03   -0.76869E-04   -0.80771E-04 10080   0.105E-02-0.981E-04
CGA:  20    -0.354170129455E+03   -0.10336E-04   -0.21211E-04 10080   0.218E-03 0.724E-04
CGA:  21    -0.354170128691E+03    0.76411E-06   -0.50831E-05 10080   0.927E-04 0.388E-04
   4 F= -.35417013E+03 E0= -.35416178E+03  d E =-.799948E-01  mag=    10.0000
       N       E                     dE             d eps       ncg     rms          ort
SDA:   1    -0.354136854025E+03    0.33275E-01    0.00000E+00 10080   0.603E+00 0.000E+00
CGA:   2    -0.354152716393E+03   -0.15862E-01   -0.16342E-01 10080   0.603E-01-0.123E-02
CGA:   3    -0.354162700066E+03   -0.99837E-02   -0.99799E-02 10080   0.160E+00 0.224E-03
CGA:   4    -0.354169947367E+03   -0.72473E-02   -0.74123E-02 10080   0.165E-01-0.180E-02
CGA:   5    -0.354172480464E+03   -0.25331E-02   -0.25303E-02 10080   0.227E-01 0.355E-03
CGA:   6    -0.354173551703E+03   -0.10712E-02   -0.10200E-02 10080   0.269E-02-0.900E-03
CGA:   7    -0.354173891239E+03   -0.33954E-03   -0.33936E-03 10080   0.393E-02-0.207E-04
CGA:   8    -0.354174078205E+03   -0.18697E-03   -0.18195E-03 10080   0.750E-03-0.693E-04
CGA:   9    -0.354174148937E+03   -0.70733E-04   -0.59778E-04 10080   0.133E-02-0.199E-03
CGA:  10    -0.354174221697E+03   -0.72759E-04   -0.79607E-04 10080   0.315E-03 0.128E-03
CGA:  11    -0.354174226214E+03   -0.45169E-05   -0.10825E-04 10080   0.167E-03 0.615E-04
CGA:  12    -0.354174251821E+03   -0.25607E-04   -0.25543E-04 10080   0.275E-03 0.620E-04
CGA:  13    -0.354174268882E+03   -0.17061E-04   -0.17007E-04 10080   0.940E-04-0.184E-05
CGA:  14    -0.354174270772E+03   -0.18905E-05   -0.44301E-05 10080   0.528E-04 0.335E-04
CGA:  15    -0.354174282341E+03   -0.11569E-04   -0.13889E-04 10080   0.362E-03-0.315E-04
CGA:  16    -0.354174294481E+03   -0.12140E-04   -0.10632E-04 10080   0.202E-04-0.169E-04
CGA:  17    -0.354174299363E+03   -0.48822E-05    0.15966E-04 10080   0.477E-04 0.315E-05
   5 F= -.35417430E+03 E0= -.35416592E+03  d E =-.417067E-02  mag=    10.0000
       N       E                     dE             d eps       ncg     rms          ort
SDA:   1    -0.354118036818E+03    0.56258E-01    0.00000E+00 10080   0.207E+00 0.000E+00
CGA:   2    -0.354132895778E+03   -0.14859E-01   -0.14921E-01 10080   0.292E+00 0.155E-03
CGA:   3    -0.354161617386E+03   -0.28722E-01   -0.28764E-01 10080   0.108E+00 0.234E-02
CGA:   4    -0.354166598865E+03   -0.49815E-02   -0.49229E-02 10080   0.620E-01-0.225E-02
CGA:   5    -0.354174218962E+03   -0.76201E-02   -0.76095E-02 10080   0.873E-02 0.736E-03
CGA:   6    -0.354175276564E+03   -0.10576E-02   -0.10684E-02 10080   0.198E-01-0.129E-02
CGA:   7    -0.354175989463E+03   -0.71290E-03   -0.73485E-03 10080   0.266E-02 0.325E-03
CGA:   8    -0.354176056340E+03   -0.66877E-04   -0.92841E-04 10080   0.161E-02 0.347E-03
CGA:   9    -0.354176255574E+03   -0.19923E-03   -0.19878E-03 10080   0.264E-02 0.115E-03
CGA:  10    -0.354176386447E+03   -0.13087E-03   -0.11572E-03 10080   0.459E-03-0.250E-03
CGA:  11    -0.354176403105E+03   -0.16659E-04   -0.22521E-04 10080   0.495E-03 0.121E-03
CGA:  12    -0.354176451345E+03   -0.48240E-04   -0.51442E-04 10080   0.196E-03 0.181E-03
CGA:  13    -0.354176476462E+03   -0.25116E-04   -0.37010E-04 10080   0.149E-02-0.305E-03
CGA:  14    -0.354176489800E+03   -0.13338E-04   -0.33040E-04 10080   0.841E-04 0.247E-03
CGA:  15    -0.354176489045E+03    0.75490E-06   -0.24399E-05 10080   0.515E-04 0.440E-04
   6 F= -.35417649E+03 E0= -.35416807E+03  d E =-.218968E-02  mag=    10.0000
       N       E                     dE             d eps       ncg     rms          ort
SDA:   1    -0.354109732332E+03    0.66757E-01    0.00000E+00 10080   0.220E+00 0.000E+00
CGA:   2    -0.354130012746E+03   -0.20280E-01   -0.20276E-01 10080   0.403E+00-0.509E-02
CGA:   3    -0.354161099065E+03   -0.31086E-01   -0.31159E-01 10080   0.767E-01 0.511E-02
CGA:   4    -0.354167825934E+03   -0.67269E-02   -0.67268E-02 10080   0.120E+00-0.182E-04
CGA:   5    -0.354174579916E+03   -0.67540E-02   -0.67670E-02 10080   0.881E-02-0.194E-03
CGA:   6    -0.354175983137E+03   -0.14032E-02   -0.14313E-02 10080   0.123E-01-0.403E-03
CGA:   7    -0.354176395459E+03   -0.41232E-03   -0.42721E-03 10080   0.144E-02 0.294E-03
CGA:   8    -0.354176633173E+03   -0.23771E-03   -0.25603E-03 10080   0.397E-02-0.227E-03
CGA:   9    -0.354176750996E+03   -0.11782E-03   -0.12109E-03 10080   0.714E-03 0.449E-04
CGA:  10    -0.354176767056E+03   -0.16059E-04   -0.22084E-04 10080   0.424E-03 0.950E-04
CGA:  11    -0.354176806849E+03   -0.39793E-04   -0.40478E-04 10080   0.695E-03 0.132E-03
CGA:  12    -0.354176853840E+03   -0.46991E-04   -0.44504E-04 10080   0.107E-03-0.634E-04
CGA:  13    -0.354176870621E+03   -0.16782E-04   -0.32543E-04 10080   0.739E-03-0.642E-04
CGA:  14    -0.354176885900E+03   -0.15279E-04   -0.19307E-04 10080   0.520E-04 0.536E-04
CGA:  15    -0.354176894668E+03   -0.87674E-05   -0.91164E-05 10080   0.180E-03-0.532E-05
CGA:  16    -0.354176910764E+03   -0.16097E-04   -0.14387E-04 10080   0.816E-04-0.167E-03
CGA:  17    -0.354176910334E+03    0.43059E-06   -0.24550E-05 10080   0.403E-04 0.419E-04
   7 F= -.35417691E+03 E0= -.35416846E+03  d E =-.421289E-03  mag=    10.0000
       N       E                     dE             d eps       ncg     rms          ort
SDA:   1    -0.353664485546E+03    0.51243E+00    0.00000E+00 10080   0.239E+01 0.000E+00
CGA:   2    -0.353769937996E+03   -0.10545E+00   -0.12792E+00 10080   0.250E+01-0.392E+00
CGA:   3    -0.354069005236E+03   -0.29907E+00   -0.29878E+00 10080   0.107E+01-0.251E-02
CGA:   4    -0.354108282742E+03   -0.39278E-01   -0.38514E-01 10080   0.368E+00 0.772E-02
CGA:   5    -0.354162832267E+03   -0.54550E-01   -0.54545E-01 10080   0.840E-01-0.420E-03
CGA:   6    -0.354166479821E+03   -0.36476E-02   -0.37770E-02 10080   0.567E-01 0.113E-02
CGA:   7    -0.354172954517E+03   -0.64747E-02   -0.64689E-02 10080   0.290E-01-0.230E-03
CGA:   8    -0.354174028804E+03   -0.10743E-02   -0.10627E-02 10080   0.734E-02-0.630E-03
CGA:   9    -0.354175574675E+03   -0.15459E-02   -0.15492E-02 10080   0.218E-02-0.509E-04
CGA:  10    -0.354175752776E+03   -0.17810E-03   -0.16834E-03 10080   0.294E-02-0.142E-03
CGA:  11    -0.354176092949E+03   -0.34017E-03   -0.33892E-03 10080   0.559E-03-0.590E-04
CGA:  12    -0.354176135485E+03   -0.42536E-04   -0.47725E-04 10080   0.103E-02 0.887E-04
CGA:  13    -0.354176296447E+03   -0.16096E-03   -0.15870E-03 10080   0.961E-03-0.276E-03
CGA:  14    -0.354176312046E+03   -0.15599E-04   -0.21344E-04 10080   0.200E-03 0.497E-04
CGA:  15    -0.354176322158E+03   -0.10112E-04   -0.13881E-04 10080   0.389E-03 0.533E-04
CGA:  16    -0.354176386345E+03   -0.64188E-04   -0.63950E-04 10080   0.134E-03-0.103E-03
CGA:  17    -0.354176392913E+03   -0.65680E-05   -0.44617E-05 10080   0.841E-04-0.246E-04
CGA:  18    -0.354176387643E+03    0.52706E-05   -0.43185E-04 10080   0.265E-03-0.970E-04
CGA:  19    -0.354176394578E+03   -0.69349E-05   -0.11430E-04 10080   0.186E-03 0.399E-04
CGA:  20    -0.354176428066E+03   -0.33488E-04   -0.33659E-04 10080   0.704E-04-0.178E-04
CGA:  21    -0.354176428480E+03   -0.41455E-06   -0.20057E-05 10080   0.254E-04 0.136E-04
   8 F= -.35417643E+03 E0= -.35416792E+03  d E =0.481853E-03  mag=    10.0000
       N       E                     dE             d eps       ncg     rms          ort
SDA:   1    -0.353853954600E+03    0.32247E+00    0.00000E+00 10080   0.109E+01 0.000E+00
CGA:   2    -0.353927253503E+03   -0.73299E-01   -0.74107E-01 10080   0.157E+01-0.161E-01
CGA:   3    -0.354110470249E+03   -0.18322E+00   -0.18318E+00 10080   0.653E+00-0.472E-02
CGA:   4    -0.354134787014E+03   -0.24317E-01   -0.24860E-01 10080   0.228E+00-0.526E-02
CGA:   5    -0.354167569110E+03   -0.32782E-01   -0.32775E-01 10080   0.331E-01 0.542E-03
CGA:   6    -0.354170795210E+03   -0.32261E-02   -0.31934E-02 10080   0.518E-01-0.109E-02
CGA:   7    -0.354173691992E+03   -0.28968E-02   -0.29901E-02 10080   0.554E-02 0.130E-02
CGA:   8    -0.354174254188E+03   -0.56220E-03   -0.55466E-03 10080   0.116E-01-0.261E-03
CGA:   9    -0.354175016237E+03   -0.76205E-03   -0.75014E-03 10080   0.169E-02-0.227E-03
CGA:  10    -0.354175104408E+03   -0.88171E-04   -0.90116E-04 10080   0.162E-02 0.209E-04
CGA:  11    -0.354175370693E+03   -0.26628E-03   -0.28775E-03 10080   0.143E-02-0.389E-03
CGA:  12    -0.354175406721E+03   -0.36029E-04   -0.30785E-04 10080   0.434E-03-0.613E-04
CGA:  13    -0.354175466682E+03   -0.59961E-04   -0.64315E-04 10080   0.222E-02-0.120E-03
CGA:  14    -0.354175526533E+03   -0.59850E-04   -0.54338E-04 10080   0.111E-02-0.659E-04
CGA:  15    -0.354175541352E+03   -0.14819E-04   -0.18133E-04 10080   0.223E-03 0.333E-04
CGA:  16    -0.354175542350E+03   -0.99766E-06   -0.50950E-05 10080   0.180E-03 0.457E-04
   9 F= -.35417554E+03 E0= -.35416701E+03  d E =0.886131E-03  mag=    10.0000
       N       E                     dE             d eps       ncg     rms          ort
SDA:   1    -0.354147778386E+03    0.27763E-01    0.00000E+00 10080   0.661E+00 0.000E+00
CGA:   2    -0.354164974435E+03   -0.17196E-01   -0.16418E-01 10080   0.284E-01 0.353E-01
CGA:   3    -0.354168463833E+03   -0.34894E-02   -0.34512E-02 10080   0.732E-01 0.230E-02
CGA:   4    -0.354174215031E+03   -0.57512E-02   -0.57227E-02 10080   0.795E-02-0.113E-02
CGA:   5    -0.354175366068E+03   -0.11510E-02   -0.12125E-02 10080   0.198E-01-0.111E-02
CGA:   6    -0.354175884198E+03   -0.51813E-03   -0.54561E-03 10080   0.201E-02 0.409E-03
CGA:   7    -0.354175933117E+03   -0.48920E-04   -0.65359E-04 10080   0.139E-02 0.244E-03
CGA:   8    -0.354176095096E+03   -0.16198E-03   -0.16128E-03 10080   0.153E-02 0.768E-04
CGA:   9    -0.354176169024E+03   -0.73928E-04   -0.55947E-04 10080   0.399E-03-0.306E-03
CGA:  10    -0.354176196179E+03   -0.27156E-04   -0.27109E-04 10080   0.556E-03-0.711E-05
CGA:  11    -0.354176222008E+03   -0.25828E-04   -0.29839E-04 10080   0.121E-03 0.107E-03
CGA:  12    -0.354176229465E+03   -0.74574E-05   -0.24107E-04 10080   0.149E-02-0.219E-03
CGA:  13    -0.354176248944E+03   -0.19479E-04   -0.31320E-04 10080   0.468E-04 0.161E-03
CGA:  14    -0.354176248570E+03    0.37398E-06   -0.13183E-05 10080   0.318E-04 0.260E-04
  10 F= -.35417625E+03 E0= -.35416772E+03  d E =-.706221E-03  mag=    10.0000
       N       E                     dE             d eps       ncg     rms          ort
SDA:   1    -0.354169476674E+03    0.67723E-02    0.00000E+00 10080   0.801E-01 0.000E+00
CGA:   2    -0.354171657359E+03   -0.21807E-02   -0.21366E-02 10080   0.131E-01-0.225E-02
CGA:   3    -0.354175231189E+03   -0.35738E-02   -0.35162E-02 10080   0.899E-02 0.294E-03
CGA:   4    -0.354175594143E+03   -0.36295E-03   -0.35496E-03 10080   0.340E-02-0.182E-03
CGA:   5    -0.354176004316E+03   -0.41017E-03   -0.40555E-03 10080   0.216E-02 0.144E-03
CGA:   6    -0.354176113593E+03   -0.10928E-03   -0.94498E-04 10080   0.644E-03-0.306E-03
CGA:   7    -0.354176152409E+03   -0.38816E-04   -0.40928E-04 10080   0.225E-03 0.131E-03
CGA:   8    -0.354176179598E+03   -0.27189E-04   -0.40980E-04 10080   0.140E-02-0.224E-03
CGA:   9    -0.354176198071E+03   -0.18473E-04   -0.29186E-04 10080   0.437E-04 0.147E-03
CGA:  10    -0.354176197875E+03    0.19630E-06   -0.13202E-05 10080   0.330E-04 0.247E-04
  11 F= -.35417620E+03 E0= -.35416767E+03  d E =0.506959E-04  mag=    10.0000
       N       E                     dE             d eps       ncg     rms          ort
SDA:   1    -0.354150112164E+03    0.26086E-01    0.00000E+00 10080   0.155E+00 0.000E+00
CGA:   2    -0.354155506282E+03   -0.53941E-02   -0.53707E-02 10080   0.762E-01-0.373E-02
CGA:   3    -0.354172035949E+03   -0.16530E-01   -0.16350E-01 10080   0.224E-01 0.129E-02
CGA:   4    -0.354173532919E+03   -0.14970E-02   -0.15086E-02 10080   0.215E-01 0.505E-03
CGA:   5    -0.354175503993E+03   -0.19711E-02   -0.19717E-02 10080   0.277E-02-0.637E-03
CGA:   6    -0.354175693760E+03   -0.18977E-03   -0.18924E-03 10080   0.344E-02-0.359E-04
CGA:   7    -0.354175941999E+03   -0.24824E-03   -0.24930E-03 10080   0.658E-03 0.674E-04
CGA:   8    -0.354175999640E+03   -0.57641E-04   -0.56344E-04 10080   0.160E-02-0.428E-03
CGA:   9    -0.354176018862E+03   -0.19222E-04   -0.36673E-04 10080   0.160E-03 0.270E-03
CGA:  10    -0.354176022067E+03   -0.32058E-05   -0.71380E-05 10080   0.155E-03 0.862E-04
CGA:  11    -0.354175646442E+03    0.37563E-03   -0.20331E-03 10080   0.201E-01-0.105E-02
CGA:  12    -0.354176058071E+03   -0.41163E-03   -0.48521E-03 10080   0.242E-03 0.834E-03
CGA:  13    -0.354176062285E+03   -0.42141E-05   -0.79759E-05 10080   0.780E-04 0.337E-04
CGA:  14    -0.354176077985E+03   -0.15700E-04   -0.24463E-04 10080   0.215E-03-0.633E-04
CGA:  15    -0.354176081820E+03   -0.38342E-05   -0.59692E-05 10080   0.356E-04 0.178E-04
  12 F= -.35417608E+03 E0= -.35416755E+03  d E =0.116055E-03  mag=    10.0000
       N       E                     dE             d eps       ncg     rms          ort
SDA:   1    -0.354048775804E+03    0.12730E+00    0.00000E+00 10080   0.683E+00 0.000E+00
CGA:   2    -0.354077627406E+03   -0.28852E-01   -0.27998E-01 10080   0.335E+00 0.150E-01
CGA:   3    -0.354156848217E+03   -0.79221E-01   -0.79107E-01 10080   0.155E+00 0.112E-02
CGA:   4    -0.354162825663E+03   -0.59774E-02   -0.60619E-02 10080   0.790E-01-0.487E-02
CGA:   5    -0.354172715922E+03   -0.98903E-02   -0.98936E-02 10080   0.185E-01 0.476E-03
CGA:   6    -0.354173548239E+03   -0.83232E-03   -0.80032E-03 10080   0.927E-02-0.416E-03
CGA:   7    -0.354174801263E+03   -0.12530E-02   -0.12516E-02 10080   0.360E-02 0.181E-03
CGA:   8    -0.354174970967E+03   -0.16970E-03   -0.15423E-03 10080   0.196E-02-0.201E-03
CGA:   9    -0.354175248938E+03   -0.27797E-03   -0.27599E-03 10080   0.568E-03 0.868E-04
CGA:  10    -0.354175294091E+03   -0.45152E-04   -0.37462E-04 10080   0.800E-03-0.123E-03
CGA:  11    -0.354175366600E+03   -0.72509E-04   -0.72656E-04 10080   0.198E-03 0.169E-04
CGA:  12    -0.354175373308E+03   -0.67081E-05   -0.89992E-05 10080   0.167E-03 0.285E-04
CGA:  13    -0.354175399563E+03   -0.26255E-04   -0.63284E-04 10080   0.947E-03-0.176E-03
CGA:  14    -0.354175418764E+03   -0.19201E-04   -0.25476E-04 10080   0.102E-03 0.545E-04
CGA:  15    -0.354175434194E+03   -0.15431E-04   -0.15595E-04 10080   0.252E-03-0.872E-05
CGA:  16    -0.354175441821E+03   -0.76270E-05   -0.89812E-05 10080   0.274E-04 0.152E-04
  13 F= -.35417544E+03 E0= -.35416691E+03  d E =0.639998E-03  mag=    10.0000
       N       E                     dE             d eps       ncg     rms          ort
SDA:   1    -0.354003292257E+03    0.17214E+00    0.00000E+00 10080   0.451E+00 0.000E+00
CGA:   2    -0.354079064111E+03   -0.75772E-01   -0.75327E-01 10080   0.120E+01 0.566E-02
CGA:   3    -0.354144876524E+03   -0.65812E-01   -0.64227E-01 10080   0.121E+00 0.225E-01
CGA:   4    -0.354157524997E+03   -0.12648E-01   -0.12675E-01 10080   0.215E+00 0.160E-02
CGA:   5    -0.354169122171E+03   -0.11597E-01   -0.11546E-01 10080   0.182E-01-0.238E-02
CGA:   6    -0.354170500623E+03   -0.13785E-02   -0.14116E-02 10080   0.218E-01 0.977E-03
CGA:   7    -0.354172370134E+03   -0.18695E-02   -0.18545E-02 10080   0.373E-02-0.561E-03
CGA:   8    -0.354172605533E+03   -0.23540E-03   -0.24827E-03 10080   0.367E-02 0.309E-03
CGA:   9    -0.354173020317E+03   -0.41478E-03   -0.41375E-03 10080   0.277E-02-0.335E-03
CGA:  10    -0.354173105603E+03   -0.85287E-04   -0.92404E-04 10080   0.561E-03 0.901E-04
CGA:  11    -0.354173215248E+03   -0.10964E-03   -0.10579E-03 10080   0.109E-02 0.476E-04
CGA:  12    -0.354173292219E+03   -0.76971E-04   -0.66221E-04 10080   0.415E-03-0.214E-03
CGA:  13    -0.354173303720E+03   -0.11501E-04   -0.16017E-04 10080   0.199E-03 0.785E-04
CGA:  14    -0.354173325982E+03   -0.22262E-04   -0.22402E-04 10080   0.355E-03 0.175E-04
CGA:  15    -0.354173365588E+03   -0.39605E-04   -0.39722E-04 10080   0.170E-03-0.940E-04
CGA:  16    -0.354173364524E+03    0.10638E-05   -0.25407E-05 10080   0.655E-04 0.439E-04
  14 F= -.35417336E+03 E0= -.35416480E+03  d E =0.207730E-02  mag=    10.0000
       N       E                     dE             d eps       ncg     rms          ort
SDA:   1    -0.354090714277E+03    0.82651E-01    0.00000E+00 10080   0.232E+00 0.000E+00
CGA:   2    -0.354116221265E+03   -0.25507E-01   -0.25436E-01 10080   0.573E+00 0.455E-02
CGA:   3    -0.354161443876E+03   -0.45223E-01   -0.45204E-01 10080   0.870E-01-0.353E-02
CGA:   4    -0.354166197654E+03   -0.47538E-02   -0.47712E-02 10080   0.771E-01-0.958E-03
CGA:   5    -0.354173466170E+03   -0.72685E-02   -0.72662E-02 10080   0.783E-02 0.647E-03
CGA:   6    -0.354174217004E+03   -0.75083E-03   -0.75140E-03 10080   0.134E-01-0.229E-03
CGA:   7    -0.354175071481E+03   -0.85448E-03   -0.84908E-03 10080   0.183E-02-0.215E-03
CGA:   8    -0.354175148882E+03   -0.77400E-04   -0.91057E-04 10080   0.140E-02 0.335E-03
CGA:   9    -0.354175390262E+03   -0.24138E-03   -0.25233E-03 10080   0.555E-03-0.175E-03
CGA:  10    -0.354175397798E+03   -0.75369E-05   -0.16867E-04 10080   0.243E-03 0.162E-03
CGA:  11    -0.354175427354E+03   -0.29556E-04   -0.29095E-04 10080   0.342E-03 0.130E-03
CGA:  12    -0.354175456062E+03   -0.28708E-04   -0.21316E-04 10080   0.575E-03-0.277E-03
CGA:  13    -0.354175458626E+03   -0.25646E-05   -0.12310E-04 10080   0.754E-04 0.145E-03
  15 F= -.35417546E+03 E0= -.35416690E+03  d E =-.209410E-02  mag=    10.0000
       N       E                     dE             d eps       ncg     rms          ort
SDA:   1    -0.354096620082E+03    0.78836E-01    0.00000E+00 10080   0.211E+00 0.000E+00
CGA:   2    -0.354124693769E+03   -0.28074E-01   -0.27825E-01 10080   0.565E+00 0.464E-02
CGA:   3    -0.354163927465E+03   -0.39234E-01   -0.39184E-01 10080   0.744E-01-0.598E-02
CGA:   4    -0.354168074937E+03   -0.41475E-02   -0.41708E-02 10080   0.700E-01 0.561E-03
CGA:   5    -0.354174316446E+03   -0.62415E-02   -0.62384E-02 10080   0.869E-02 0.433E-03
CGA:   6    -0.354174927587E+03   -0.61114E-03   -0.60656E-03 10080   0.102E-01-0.417E-03
CGA:   7    -0.354175761937E+03   -0.83435E-03   -0.83340E-03 10080   0.154E-02 0.210E-03
CGA:   8    -0.354175830984E+03   -0.69047E-04   -0.79246E-04 10080   0.124E-02 0.319E-03
CGA:   9    -0.354176050509E+03   -0.21952E-03   -0.27203E-03 10080   0.113E-02-0.517E-03
CGA:  10    -0.354176056183E+03   -0.56741E-05   -0.13954E-04 10080   0.427E-03 0.128E-03
CGA:  11    -0.354176060729E+03   -0.45461E-05   -0.12106E-04 10080   0.367E-03 0.132E-03
CGA:  12    -0.354176092448E+03   -0.31719E-04   -0.32995E-04 10080   0.669E-03 0.118E-03
CGA:  13    -0.354176139819E+03   -0.47371E-04   -0.39730E-04 10080   0.138E-03-0.228E-03
CGA:  14    -0.354176146372E+03   -0.65533E-05   -0.62793E-05 10080   0.203E-03-0.350E-04
  16 F= -.35417615E+03 E0= -.35416760E+03  d E =-.687746E-03  mag=    10.0000
       N       E                     dE             d eps       ncg     rms          ort
SDA:   1    -0.354110816865E+03    0.65323E-01    0.00000E+00 10080   0.235E+00 0.000E+00
CGA:   2    -0.354123545883E+03   -0.12729E-01   -0.12820E-01 10080   0.278E+00 0.947E-03
CGA:   3    -0.354166923045E+03   -0.43377E-01   -0.43578E-01 10080   0.981E-01-0.261E-02
CGA:   4    -0.354170390891E+03   -0.34678E-02   -0.35112E-02 10080   0.286E-01 0.240E-02
CGA:   5    -0.354175311030E+03   -0.49201E-02   -0.49653E-02 10080   0.675E-02-0.494E-03
CGA:   6    -0.354175591202E+03   -0.28017E-03   -0.29818E-03 10080   0.387E-02 0.500E-03
CGA:   7    -0.354176192900E+03   -0.60170E-03   -0.60598E-03 10080   0.146E-02-0.668E-04
CGA:   8    -0.354176280378E+03   -0.87478E-04   -0.75990E-04 10080   0.157E-02-0.394E-03
CGA:   9    -0.354176393239E+03   -0.11286E-03   -0.11116E-03 10080   0.384E-03 0.108E-03
CGA:  10    -0.354176397141E+03   -0.39022E-05   -0.10953E-04 10080   0.165E-03 0.126E-03
CGA:  11    -0.354176412090E+03   -0.14949E-04   -0.15738E-04 10080   0.262E-03 0.101E-03
CGA:  12    -0.354176432620E+03   -0.20530E-04   -0.21170E-04 10080   0.106E-02-0.366E-03
CGA:  13    -0.354176441368E+03   -0.87481E-05   -0.21274E-04 10080   0.768E-04 0.209E-03
  17 F= -.35417644E+03 E0= -.35416790E+03  d E =-.294996E-03  mag=    10.0000
       N       E                     dE             d eps       ncg     rms          ort
SDA:   1    -0.354155253856E+03    0.21179E-01    0.00000E+00 10080   0.565E-01 0.000E+00
CGA:   2    -0.354162925226E+03   -0.76714E-02   -0.78970E-02 10080   0.169E+00-0.358E-02
CGA:   3    -0.354173500852E+03   -0.10576E-01   -0.10608E-01 10080   0.166E-01 0.338E-02
CGA:   4    -0.354174608761E+03   -0.11079E-02   -0.11218E-02 10080   0.193E-01 0.140E-02
CGA:   5    -0.354176258977E+03   -0.16502E-02   -0.16538E-02 10080   0.188E-02-0.113E-02
CGA:   6    -0.354176570781E+03   -0.31180E-03   -0.30336E-03 10080   0.183E-02 0.862E-04
CGA:   7    -0.354176655197E+03   -0.84415E-04   -0.82669E-04 10080   0.472E-03-0.584E-04
CGA:   8    -0.354176721007E+03   -0.65810E-04   -0.65471E-04 10080   0.549E-03 0.418E-05
CGA:   9    -0.354176737335E+03   -0.16329E-04   -0.19720E-04 10080   0.104E-03 0.712E-04
CGA:  10    -0.354176751577E+03   -0.14241E-04   -0.24717E-04 10080   0.744E-03-0.811E-04
CGA:  11    -0.354176763559E+03   -0.11982E-04   -0.17890E-04 10080   0.337E-04 0.938E-04
CGA:  12    -0.354176764566E+03   -0.10076E-05   -0.15447E-05 10080   0.313E-04 0.126E-04
  18 F= -.35417676E+03 E0= -.35416822E+03  d E =-.323198E-03  mag=    10.0000
       N       E                     dE             d eps       ncg     rms          ort
SDA:   1    -0.354157164726E+03    0.19599E-01    0.00000E+00 10080   0.142E+00 0.000E+00
CGA:   2    -0.354162149168E+03   -0.49844E-02   -0.49169E-02 10080   0.470E-01 0.182E-03
CGA:   3    -0.354172021550E+03   -0.98724E-02   -0.96227E-02 10080   0.842E-01 0.200E-02
CGA:   4    -0.354175079251E+03   -0.30577E-02   -0.30548E-02 10080   0.868E-02-0.107E-02
CGA:   5    -0.354176412498E+03   -0.13332E-02   -0.13087E-02 10080   0.853E-02 0.355E-03
CGA:   6    -0.354176797627E+03   -0.38513E-03   -0.34835E-03 10080   0.168E-02-0.805E-03
CGA:   7    -0.354176899319E+03   -0.10169E-03   -0.10460E-03 10080   0.113E-02 0.156E-03
CGA:   8    -0.354177014334E+03   -0.11502E-03   -0.11737E-03 10080   0.136E-02-0.264E-03
CGA:   9    -0.354177063697E+03   -0.49362E-04   -0.49412E-04 10080   0.149E-03-0.277E-05
CGA:  10    -0.354177070282E+03   -0.65850E-05   -0.86028E-05 10080   0.129E-03 0.758E-04
  19 F= -.35417707E+03 E0= -.35416853E+03  d E =-.305716E-03  mag=    10.0000
       N       E                     dE             d eps       ncg     rms          ort
SDA:   1    -0.354167065187E+03    0.99985E-02    0.00000E+00 10080   0.301E+00 0.000E+00
CGA:   2    -0.354174585885E+03   -0.75207E-02   -0.74853E-02 10080   0.898E-02-0.522E-02
CGA:   3    -0.354175164299E+03   -0.57841E-03   -0.58134E-03 10080   0.110E-01 0.193E-03
CGA:   4    -0.354176515359E+03   -0.13511E-02   -0.13819E-02 10080   0.289E-02-0.723E-03
CGA:   5    -0.354176749147E+03   -0.23379E-03   -0.23288E-03 10080   0.328E-02 0.182E-03
CGA:   6    -0.354176976730E+03   -0.22758E-03   -0.22695E-03 10080   0.852E-03-0.455E-04
CGA:   7    -0.354176998198E+03   -0.21467E-04   -0.29076E-04 10080   0.218E-03 0.162E-03
CGA:   8    -0.354177031778E+03   -0.33580E-04   -0.30862E-04 10080   0.178E-03 0.666E-04
CGA:   9    -0.354177042439E+03   -0.10661E-04   -0.11052E-04 10080   0.760E-04 0.114E-04
CGA:  10    -0.354177045231E+03   -0.27917E-05   -0.38504E-05 10080   0.357E-04 0.338E-04
CGA:  11    -0.354176979120E+03    0.66110E-04   -0.35720E-04 10080   0.306E-02-0.225E-03
CGA:  12    -0.354177054545E+03   -0.75425E-04   -0.83394E-04 10080   0.560E-04 0.595E-04
CGA:  13    -0.354177068414E+03   -0.13869E-04   -0.16713E-04 10080   0.143E-03-0.181E-04
CGA:  14    -0.354177073862E+03   -0.54476E-05   -0.27858E-05 10080   0.216E-04-0.238E-04
  20 F= -.35417707E+03 E0= -.35416853E+03  d E =-.358005E-05  mag=    10.0000
       N       E                     dE             d eps       ncg     rms          ort
SDA:   1    -0.354172628700E+03    0.44397E-02    0.00000E+00 10080   0.326E-01 0.000E+00
CGA:   2    -0.354173780590E+03   -0.11519E-02   -0.11243E-02 10080   0.101E-01 0.367E-04
CGA:   3    -0.354175945097E+03   -0.21645E-02   -0.21606E-02 10080   0.183E-01 0.371E-04
CGA:   4    -0.354176583411E+03   -0.63831E-03   -0.61276E-03 10080   0.201E-02-0.444E-03
CGA:   5    -0.354176915631E+03   -0.33222E-03   -0.32286E-03 10080   0.925E-03 0.248E-03
CGA:   6    -0.354176982744E+03   -0.67112E-04   -0.49695E-04 10080   0.627E-03-0.222E-03
CGA:   7    -0.354177016131E+03   -0.33388E-04   -0.37986E-04 10080   0.143E-03 0.101E-03
CGA:   8    -0.354177018491E+03   -0.23597E-05   -0.65207E-05 10080   0.716E-04 0.494E-04
CGA:   9    -0.354177004330E+03    0.14161E-04   -0.45856E-04 10080   0.641E-03-0.168E-03
CGA:  10    -0.354177013907E+03   -0.95778E-05   -0.18626E-04 10080   0.191E-03 0.825E-04
CGA:  11    -0.354177044520E+03   -0.30613E-04   -0.30429E-04 10080   0.101E-03 0.189E-04
CGA:  12    -0.354177057308E+03   -0.12788E-04   -0.58730E-05 10080   0.118E-03-0.892E-04
CGA:  13    -0.354177055799E+03    0.15095E-05   -0.21689E-05 10080   0.143E-04 0.333E-04
  21 F= -.35417706E+03 E0= -.35416852E+03  d E =0.180627E-04  mag=    10.0000
       N       E                     dE             d eps       ncg     rms          ort
SDA:   1    -0.354163870135E+03    0.13187E-01    0.00000E+00 10080   0.316E-01 0.000E+00
CGA:   2    -0.354170133882E+03   -0.62637E-02   -0.62681E-02 10080   0.102E+00-0.108E-03
CGA:   3    -0.354175237205E+03   -0.51033E-02   -0.51071E-02 10080   0.912E-02-0.129E-03
CGA:   4    -0.354175742700E+03   -0.50550E-03   -0.52988E-03 10080   0.920E-02 0.381E-03
CGA:   5    -0.354176637805E+03   -0.89510E-03   -0.88714E-03 10080   0.989E-03-0.380E-03
CGA:   6    -0.354176694895E+03   -0.57090E-04   -0.65110E-04 10080   0.948E-03 0.177E-03
CGA:   7    -0.354176811693E+03   -0.11680E-03   -0.11532E-03 10080   0.777E-03-0.190E-03
CGA:   8    -0.354176823812E+03   -0.12119E-04   -0.18394E-04 10080   0.135E-03 0.759E-04
CGA:   9    -0.354176826551E+03   -0.27387E-05   -0.61211E-05 10080   0.142E-03 0.514E-04
CGA:  10    -0.354176848398E+03   -0.21847E-04   -0.22059E-04 10080   0.925E-04-0.237E-04
CGA:  11    -0.354176857022E+03   -0.86235E-05   -0.54130E-05 10080   0.150E-03-0.962E-04
  22 F= -.35417686E+03 E0= -.35416832E+03  d E =0.198777E-03  mag=    10.0000
       N       E                     dE             d eps       ncg     rms          ort
SDA:   1    -0.353915467361E+03    0.26138E+00    0.00000E+00 10080   0.655E+00 0.000E+00
CGA:   2    -0.354018967852E+03   -0.10350E+00   -0.10346E+00 10080   0.198E+01 0.183E-03
CGA:   3    -0.354142287476E+03   -0.12332E+00   -0.12350E+00 10080   0.209E+00-0.533E-02
CGA:   4    -0.354152440431E+03   -0.10153E-01   -0.10269E-01 10080   0.168E+00 0.229E-02
CGA:   5    -0.354171115004E+03   -0.18675E-01   -0.18690E-01 10080   0.162E-01-0.128E-02
CGA:   6    -0.354172749100E+03   -0.16341E-02   -0.16347E-02 10080   0.298E-01-0.259E-03
CGA:   7    -0.354174638657E+03   -0.18896E-02   -0.18880E-02 10080   0.392E-02-0.562E-04
CGA:   8    -0.354174837322E+03   -0.19866E-03   -0.21091E-03 10080   0.332E-02 0.287E-03
CGA:   9    -0.354175319860E+03   -0.48254E-03   -0.50014E-03 10080   0.131E-02-0.383E-03
CGA:  10    -0.354175346329E+03   -0.26469E-04   -0.41345E-04 10080   0.534E-03 0.244E-03
CGA:  11    -0.354175459084E+03   -0.11276E-03   -0.10779E-03 10080   0.937E-03 0.642E-04
CGA:  12    -0.354175527539E+03   -0.68455E-04   -0.52509E-04 10080   0.417E-03-0.346E-03
CGA:  13    -0.354175539498E+03   -0.11958E-04   -0.14927E-04 10080   0.224E-03 0.780E-04
CGA:  14    -0.354175557211E+03   -0.17713E-04   -0.18863E-04 10080   0.277E-03 0.521E-04
CGA:  15    -0.354175559580E+03   -0.23690E-05   -0.81200E-04 10080   0.160E-02-0.539E-03
CGA:  16    -0.354175578091E+03   -0.18511E-04   -0.39048E-04 10080   0.196E-03 0.271E-03
CGA:  17    -0.354175586329E+03   -0.82376E-05   -0.12306E-04 10080   0.224E-03 0.977E-04
CGA:  18    -0.354175624669E+03   -0.38341E-04   -0.45607E-04 10080   0.191E-03-0.172E-03
CGA:  19    -0.354175622950E+03    0.17195E-05   -0.35433E-05 10080   0.373E-04 0.681E-04
  23 F= -.35417562E+03 E0= -.35416707E+03  d E =0.123407E-02  mag=    10.0000
       N       E                     dE             d eps       ncg     rms          ort
SDA:   1    -0.354065676209E+03    0.10995E+00    0.00000E+00 10080   0.264E+00 0.000E+00
CGA:   2    -0.354124986415E+03   -0.59310E-01   -0.59144E-01 10080   0.798E+00 0.989E-03
CGA:   3    -0.354163587471E+03   -0.38601E-01   -0.38283E-01 10080   0.522E-01 0.500E-02
CGA:   4    -0.354171906469E+03   -0.83190E-02   -0.83673E-02 10080   0.892E-01-0.789E-03
CGA:   5    -0.354174717034E+03   -0.28106E-02   -0.28644E-02 10080   0.600E-02 0.417E-03
CGA:   6    -0.354175931754E+03   -0.12147E-02   -0.12815E-02 10080   0.919E-02-0.560E-03
CGA:   7    -0.354176163214E+03   -0.23146E-03   -0.25778E-03 10080   0.152E-02 0.418E-03
CGA:   8    -0.354176272270E+03   -0.10906E-03   -0.11585E-03 10080   0.211E-02 0.303E-03
CGA:   9    -0.354176462204E+03   -0.18993E-03   -0.18267E-03 10080   0.484E-03-0.336E-03
CGA:  10    -0.354176487689E+03   -0.25485E-04   -0.25966E-04 10080   0.502E-03 0.151E-04
CGA:  11    -0.354176529894E+03   -0.42205E-04   -0.43077E-04 10080   0.226E-03 0.105E-03
CGA:  12    -0.354176538725E+03   -0.88309E-05   -0.43702E-04 10080   0.259E-02-0.508E-03
CGA:  13    -0.354176570079E+03   -0.31354E-04   -0.57259E-04 10080   0.102E-03 0.353E-03
CGA:  14    -0.354176568672E+03    0.14070E-05   -0.24739E-05 10080   0.516E-04 0.557E-04
CGA:  15    -0.354176577887E+03   -0.92146E-05    0.10425E-03 10080   0.355E-04 0.341E-04
  24 F= -.35417658E+03 E0= -.35416803E+03  d E =-.954937E-03  mag=    10.0000
       N       E                     dE             d eps       ncg     rms          ort
SDA:   1    -0.354136462924E+03    0.40106E-01    0.00000E+00 10080   0.966E-01 0.000E+00
CGA:   2    -0.354162022656E+03   -0.25560E-01   -0.25206E-01 10080   0.242E+00 0.187E-02
CGA:   3    -0.354170254341E+03   -0.82317E-02   -0.82262E-02 10080   0.295E-01-0.425E-02
CGA:   4    -0.354174949932E+03   -0.46956E-02   -0.46300E-02 10080   0.189E-01 0.916E-03
CGA:   5    -0.354175645054E+03   -0.69512E-03   -0.67266E-03 10080   0.430E-02-0.523E-03
CGA:   6    -0.354176197554E+03   -0.55250E-03   -0.54002E-03 10080   0.351E-02 0.319E-03
CGA:   7    -0.354176387129E+03   -0.18958E-03   -0.17484E-03 10080   0.131E-02-0.339E-03
CGA:   8    -0.354176472277E+03   -0.85148E-04   -0.88093E-04 10080   0.577E-03 0.179E-03
CGA:   9    -0.354176536604E+03   -0.64326E-04   -0.66586E-04 10080   0.129E-02-0.195E-03
CGA:  10    -0.354176571390E+03   -0.34787E-04   -0.38116E-04 10080   0.404E-03 0.725E-04
CGA:  11    -0.354176574507E+03   -0.31169E-05   -0.81351E-05 10080   0.103E-03 0.714E-04
  25 F= -.35417657E+03 E0= -.35416802E+03  d E =0.337962E-05  mag=    10.0000
       N       E                     dE             d eps       ncg     rms          ort
SDA:   1    -0.354152283461E+03    0.24288E-01    0.00000E+00 10080   0.270E+00 0.000E+00
CGA:   2    -0.354159221773E+03   -0.69383E-02   -0.70069E-02 10080   0.453E-01 0.488E-02
CGA:   3    -0.354173459993E+03   -0.14238E-01   -0.14156E-01 10080   0.300E-01 0.356E-03
CGA:   4    -0.354174600254E+03   -0.11403E-02   -0.10744E-02 10080   0.124E-01-0.163E-02
CGA:   5    -0.354176203058E+03   -0.16028E-02   -0.15912E-02 10080   0.640E-02 0.235E-03
CGA:   6    -0.354176389870E+03   -0.18681E-03   -0.20624E-03 10080   0.912E-03 0.342E-03
CGA:   7    -0.354176624075E+03   -0.23421E-03   -0.24486E-03 10080   0.293E-03-0.639E-04
CGA:   8    -0.354176634493E+03   -0.10418E-04   -0.14247E-04 10080   0.225E-03 0.871E-04
CGA:   9    -0.354176670804E+03   -0.36311E-04   -0.60831E-04 10080   0.576E-03-0.215E-03
CGA:  10    -0.354176679041E+03   -0.82374E-05   -0.14397E-04 10080   0.106E-03 0.809E-04
CGA:  11    -0.354176691546E+03   -0.12505E-04   -0.12348E-04 10080   0.104E-03 0.245E-04
CGA:  12    -0.354176701900E+03   -0.10354E-04   -0.69952E-05 10080   0.101E-03-0.816E-04
CGA:  13    -0.354176701579E+03    0.32112E-06   -0.18619E-05 10080   0.141E-04 0.286E-04
  26 F= -.35417670E+03 E0= -.35416815E+03  d E =-.127072E-03  mag=    10.0000
       N       E                     dE             d eps       ncg     rms          ort
SDA:   1    -0.354155424933E+03    0.21277E-01    0.00000E+00 10080   0.543E-01 0.000E+00
CGA:   2    -0.354162957286E+03   -0.75324E-02   -0.74795E-02 10080   0.162E+00 0.920E-03
CGA:   3    -0.354173416375E+03   -0.10459E-01   -0.10441E-01 10080   0.200E-01-0.120E-02
CGA:   4    -0.354174428206E+03   -0.10118E-02   -0.10371E-02 10080   0.144E-01 0.623E-03
CGA:   5    -0.354176046981E+03   -0.16188E-02   -0.16314E-02 10080   0.219E-02-0.548E-03
CGA:   6    -0.354176154481E+03   -0.10750E-03   -0.11617E-03 10080   0.171E-02 0.264E-03
CGA:   7    -0.354176360562E+03   -0.20608E-03   -0.21076E-03 10080   0.116E-02-0.197E-03
CGA:   8    -0.354176387698E+03   -0.27137E-04   -0.32683E-04 10080   0.220E-03 0.982E-04
CGA:   9    -0.354176415795E+03   -0.28096E-04   -0.26418E-04 10080   0.344E-03 0.632E-04
CGA:  10    -0.354176444880E+03   -0.29085E-04   -0.25367E-04 10080   0.205E-03-0.134E-03
CGA:  11    -0.354176448439E+03   -0.35592E-05   -0.46450E-05 10080   0.560E-04 0.228E-04
  27 F= -.35417645E+03 E0= -.35416789E+03  d E =0.253140E-03  mag=    10.0000
       N       E                     dE             d eps       ncg     rms          ort
SDA:   1    -0.354165563753E+03    0.10881E-01    0.00000E+00 10080   0.622E-01 0.000E+00
CGA:   2    -0.354167622792E+03   -0.20590E-02   -0.21027E-02 10080   0.296E-01 0.935E-03
CGA:   3    -0.354174854688E+03   -0.72319E-02   -0.74078E-02 10080   0.124E-01-0.104E-02
CGA:   4    -0.354175330592E+03   -0.47590E-03   -0.49046E-03 10080   0.539E-02 0.324E-03
CGA:   5    -0.354176051439E+03   -0.72085E-03   -0.71046E-03 10080   0.252E-02 0.227E-03
CGA:   6    -0.354176157498E+03   -0.10606E-03   -0.96646E-04 10080   0.904E-03-0.208E-03
CGA:   7    -0.354176248795E+03   -0.91296E-04   -0.86914E-04 10080   0.215E-03 0.200E-03
CGA:   8    -0.354176250062E+03   -0.12678E-05   -0.56815E-04 10080   0.325E-02-0.422E-03
CGA:   9    -0.354176300762E+03   -0.50700E-04   -0.71866E-04 10080   0.900E-04 0.310E-03
CGA:  10    -0.354176301241E+03   -0.47897E-06   -0.27275E-05 10080   0.453E-04 0.375E-04
  28 F= -.35417630E+03 E0= -.35416774E+03  d E =0.147198E-03  mag=    10.0000
       N       E                     dE             d eps       ncg     rms          ort
SDA:   1    -0.354159434162E+03    0.16867E-01    0.00000E+00 10080   0.262E+00 0.000E+00
CGA:   2    -0.354166829592E+03   -0.73954E-02   -0.72385E-02 10080   0.233E-01 0.992E-02
CGA:   3    -0.354172391517E+03   -0.55619E-02   -0.54442E-02 10080   0.685E-01 0.788E-03
CGA:   4    -0.354175239114E+03   -0.28476E-02   -0.28217E-02 10080   0.576E-02-0.121E-02
CGA:   5    -0.354175843846E+03   -0.60473E-03   -0.59381E-03 10080   0.718E-02 0.623E-03
CGA:   6    -0.354176293170E+03   -0.44932E-03   -0.42921E-03 10080   0.128E-02-0.616E-03
CGA:   7    -0.354176346885E+03   -0.53715E-04   -0.59744E-04 10080   0.610E-03 0.163E-03
CGA:   8    -0.354176423355E+03   -0.76470E-04   -0.78301E-04 10080   0.877E-03-0.650E-04
CGA:   9    -0.354176454625E+03   -0.31270E-04   -0.31473E-04 10080   0.899E-04 0.238E-05
CGA:  10    -0.354176466258E+03   -0.11633E-04   -0.11297E-04 10080   0.214E-03 0.793E-05
CGA:  11    -0.354176479894E+03   -0.13636E-04   -0.12835E-04 10080   0.348E-04-0.264E-04
CGA:  12    -0.354176479940E+03   -0.46210E-07   -0.91573E-06 10080   0.161E-04 0.159E-04
  29 F= -.35417648E+03 E0= -.35416792E+03  d E =-.178699E-03  mag=    10.0000
       N       E                     dE             d eps       ncg     rms          ort
SDA:   1    -0.354013747802E+03    0.16273E+00    0.00000E+00 10080   0.469E+00 0.000E+00
CGA:   2    -0.354056320393E+03   -0.42573E-01   -0.42512E-01 10080   0.103E+01 0.415E-02
CGA:   3    -0.354149868173E+03   -0.93548E-01   -0.93558E-01 10080   0.171E+00-0.293E-02
CGA:   4    -0.354159758236E+03   -0.98901E-02   -0.98910E-02 10080   0.139E+00 0.159E-02
CGA:   5    -0.354173026212E+03   -0.13268E-01   -0.13274E-01 10080   0.145E-01-0.693E-03
CGA:   6    -0.354174520644E+03   -0.14944E-02   -0.14671E-02 10080   0.189E-01 0.138E-02
CGA:   7    -0.354175834878E+03   -0.13142E-02   -0.12871E-02 10080   0.474E-02-0.139E-02
CGA:   8    -0.354176030057E+03   -0.19518E-03   -0.21450E-03 10080   0.235E-02 0.574E-03
CGA:   9    -0.354176336447E+03   -0.30639E-03   -0.31107E-03 10080   0.334E-02-0.132E-03
CGA:  10    -0.354176479909E+03   -0.14346E-03   -0.13891E-03 10080   0.406E-03-0.134E-03
CGA:  11    -0.354176524494E+03   -0.44586E-04   -0.40695E-04 10080   0.382E-03 0.162E-03
CGA:  12    -0.354176569926E+03   -0.45432E-04   -0.90603E-04 10080   0.263E-02-0.516E-03
CGA:  13    -0.354176607580E+03   -0.37654E-04   -0.59696E-04 10080   0.127E-03 0.347E-03
CGA:  14    -0.354176608366E+03   -0.78662E-06   -0.41211E-05 10080   0.803E-04 0.615E-04
CGA:  15    -0.354176619525E+03   -0.11159E-04   -0.10792E-04 10080   0.159E-03 0.352E-04
CGA:  16    -0.354176637023E+03   -0.17498E-04   -0.16818E-04 10080   0.839E-04-0.994E-04
CGA:  17    -0.354176636500E+03    0.52302E-06   -0.20341E-05 10080   0.379E-04 0.455E-04
  30 F= -.35417664E+03 E0= -.35416807E+03  d E =-.156560E-03  mag=    10.0000
       N       E                     dE             d eps       ncg     rms          ort
SDA:   1    -0.354094263395E+03    0.82374E-01    0.00000E+00 10080   0.217E+00 0.000E+00
CGA:   2    -0.354121912831E+03   -0.27649E-01   -0.27643E-01 10080   0.596E+00 0.219E-04
CGA:   3    -0.354163686396E+03   -0.41774E-01   -0.41825E-01 10080   0.772E-01 0.190E-03
CGA:   4    -0.354168499632E+03   -0.48132E-02   -0.47690E-02 10080   0.853E-01-0.292E-02
CGA:   5    -0.354174750382E+03   -0.62507E-02   -0.62607E-02 10080   0.651E-02 0.159E-02
CGA:   6    -0.354175622179E+03   -0.87180E-03   -0.88268E-03 10080   0.121E-01-0.227E-03
CGA:   7    -0.354176207518E+03   -0.58534E-03   -0.58370E-03 10080   0.121E-02-0.856E-04
CGA:   8    -0.354176351910E+03   -0.14439E-03   -0.13619E-03 10080   0.169E-02 0.265E-03
CGA:   9    -0.354176490767E+03   -0.13886E-03   -0.13262E-03 10080   0.712E-03-0.317E-03
CGA:  10    -0.354176509616E+03   -0.18849E-04   -0.24092E-04 10080   0.200E-03 0.124E-03
CGA:  11    -0.354176529059E+03   -0.19443E-04   -0.19374E-04 10080   0.297E-03 0.503E-04
CGA:  12    -0.354176568074E+03   -0.39014E-04   -0.49043E-04 10080   0.371E-03-0.200E-03
CGA:  13    -0.354176571267E+03   -0.31937E-05   -0.88311E-05 10080   0.716E-04 0.926E-04
  31 F= -.35417657E+03 E0= -.35416801E+03  d E =0.652327E-04  mag=    10.0000
       N       E                     dE             d eps       ncg     rms          ort
SDA:   1    -0.354051998501E+03    0.12457E+00    0.00000E+00 10080   0.409E+00 0.000E+00
CGA:   2    -0.354078418463E+03   -0.26420E-01   -0.26461E-01 10080   0.601E+00 0.383E-02
CGA:   3    -0.354154324344E+03   -0.75906E-01   -0.75982E-01 10080   0.190E+00-0.219E-02
CGA:   4    -0.354162198268E+03   -0.78739E-02   -0.79181E-02 10080   0.828E-01-0.257E-02
CGA:   5    -0.354172992215E+03   -0.10794E-01   -0.10732E-01 10080   0.125E-01 0.114E-02
CGA:   6    -0.354173951027E+03   -0.95881E-03   -0.95083E-03 10080   0.169E-01-0.130E-02
CGA:   7    -0.354175180409E+03   -0.12294E-02   -0.12296E-02 10080   0.194E-02 0.728E-03
CGA:   8    -0.354175287903E+03   -0.10749E-03   -0.11782E-03 10080   0.198E-02 0.445E-03
CGA:   9    -0.354175609471E+03   -0.32157E-03   -0.36303E-03 10080   0.862E-03-0.605E-03
CGA:  10    -0.354175620942E+03   -0.11471E-04   -0.19430E-04 10080   0.392E-03 0.154E-03
CGA:  11    -0.354175656421E+03   -0.35479E-04   -0.35944E-04 10080   0.635E-03 0.138E-03
CGA:  12    -0.354175730693E+03   -0.74272E-04   -0.78635E-04 10080   0.419E-03-0.408E-03
CGA:  13    -0.354175733476E+03   -0.27830E-05   -0.10516E-04 10080   0.116E-03 0.136E-03
  32 F= -.35417573E+03 E0= -.35416717E+03  d E =0.837792E-03  mag=    10.0000
       N       E                     dE             d eps       ncg     rms          ort
SDA:   1    -0.354134613637E+03    0.41117E-01    0.00000E+00 10080   0.232E+00 0.000E+00
CGA:   2    -0.354143252850E+03   -0.86392E-02   -0.88066E-02 10080   0.113E+00 0.590E-02
CGA:   3    -0.354168453091E+03   -0.25200E-01   -0.25320E-01 10080   0.109E+00-0.897E-03
CGA:   4    -0.354171856365E+03   -0.34033E-02   -0.34549E-02 10080   0.224E-01-0.180E-02
CGA:   5    -0.354175456508E+03   -0.36001E-02   -0.36035E-02 10080   0.723E-02-0.469E-04
CGA:   6    -0.354175773681E+03   -0.31717E-03   -0.31720E-03 10080   0.344E-02-0.184E-04
CGA:   7    -0.354176248799E+03   -0.47512E-03   -0.49563E-03 10080   0.145E-02-0.331E-03
CGA:   8    -0.354176277383E+03   -0.28584E-04   -0.40518E-04 10080   0.522E-03 0.217E-03
CGA:   9    -0.354176349045E+03   -0.71662E-04   -0.67196E-04 10080   0.648E-03 0.150E-03
CGA:  10    -0.354176397151E+03   -0.48106E-04   -0.40421E-04 10080   0.335E-03-0.221E-03
CGA:  11    -0.354176402326E+03   -0.51752E-05   -0.82167E-05 10080   0.111E-03 0.674E-04
  33 F= -.35417640E+03 E0= -.35416784E+03  d E =-.668851E-03  mag=    10.0000
       N       E                     dE             d eps       ncg     rms          ort
SDA:   1    -0.354163641714E+03    0.12755E-01    0.00000E+00 10080   0.575E-01 0.000E+00
CGA:   2    -0.354166349681E+03   -0.27080E-02   -0.27447E-02 10080   0.475E-01 0.752E-03
CGA:   3    -0.354173265116E+03   -0.69154E-02   -0.69970E-02 10080   0.342E-01-0.121E-02
CGA:   4    -0.354174488461E+03   -0.12233E-02   -0.12454E-02 10080   0.104E-01 0.604E-03
CGA:   5    -0.354176097900E+03   -0.16094E-02   -0.16144E-02 10080   0.169E-02-0.686E-04
CGA:   6    -0.354176268992E+03   -0.17109E-03   -0.16705E-03 10080   0.205E-02 0.211E-03
CGA:   7    -0.354176395076E+03   -0.12608E-03   -0.12421E-03 10080   0.443E-03-0.747E-04
CGA:   8    -0.354176429442E+03   -0.34366E-04   -0.34407E-04 10080   0.724E-03-0.124E-03
CGA:   9    -0.354176455100E+03   -0.25658E-04   -0.28279E-04 10080   0.178E-03 0.996E-04
CGA:  10    -0.354176462058E+03   -0.69582E-05   -0.70116E-05 10080   0.108E-03 0.258E-06
CGA:  11    -0.354176480427E+03   -0.18369E-04    0.38435E-04 10080   0.883E-04 0.393E-04
CGA:  12    -0.354176484412E+03   -0.39852E-05   -0.46582E-05 10080   0.327E-04 0.174E-04
  34 F= -.35417648E+03 E0= -.35416791E+03  d E =-.820854E-04  mag=    10.0000
       N       E                     dE             d eps       ncg     rms          ort
SDA:   1    -0.354171727852E+03    0.47526E-02    0.00000E+00 10080   0.201E-01 0.000E+00
CGA:   2    -0.354172583135E+03   -0.85528E-03   -0.90294E-03 10080   0.139E-01 0.169E-02
CGA:   3    -0.354175818350E+03   -0.32352E-02   -0.33201E-02 10080   0.518E-02-0.571E-03
CGA:   4    -0.354175999603E+03   -0.18125E-03   -0.18388E-03 10080   0.242E-02 0.408E-04
CGA:   5    -0.354176345567E+03   -0.34596E-03   -0.35236E-03 10080   0.104E-02-0.961E-04
CGA:   6    -0.354176373598E+03   -0.28031E-04   -0.32104E-04 10080   0.233E-03 0.798E-04
CGA:   7    -0.354176416989E+03   -0.43391E-04   -0.42879E-04 10080   0.363E-03 0.533E-05
CGA:   8    -0.354176430385E+03   -0.13396E-04   -0.12908E-04 10080   0.522E-04-0.114E-04
CGA:   9    -0.354176434377E+03   -0.39916E-05   -0.40112E-05 10080   0.489E-04 0.237E-04
CGA:  10    -0.354176440208E+03   -0.58314E-05   -0.10861E-04 10080   0.240E-03-0.698E-04
  35 F= -.35417644E+03 E0= -.35416787E+03  d E =0.442037E-04  mag=    10.0000
       N       E                     dE             d eps       ncg     rms          ort
SDA:   1    -0.354150932278E+03    0.25502E-01    0.00000E+00 10080   0.637E-01 0.000E+00
CGA:   2    -0.354161632585E+03   -0.10700E-01   -0.10670E-01 10080   0.196E+00 0.168E-03
CGA:   3    -0.354172717648E+03   -0.11085E-01   -0.11066E-01 10080   0.207E-01 0.321E-03
CGA:   4    -0.354173840344E+03   -0.11227E-02   -0.11457E-02 10080   0.188E-01 0.818E-03
CGA:   5    -0.354175712319E+03   -0.18720E-02   -0.18829E-02 10080   0.263E-02-0.797E-03
CGA:   6    -0.354175826403E+03   -0.11408E-03   -0.13012E-03 10080   0.174E-02 0.508E-03
CGA:   7    -0.354176104412E+03   -0.27801E-03   -0.30785E-03 10080   0.132E-02-0.452E-03
CGA:   8    -0.354176118490E+03   -0.14078E-04   -0.24302E-04 10080   0.367E-03 0.169E-03
CGA:   9    -0.354176126538E+03   -0.80480E-05   -0.14534E-04 10080   0.382E-03 0.138E-03
CGA:  10    -0.354176171254E+03   -0.44715E-04   -0.44555E-04 10080   0.272E-03 0.292E-04
CGA:  11    -0.354176194606E+03   -0.23352E-04   -0.17135E-04 10080   0.358E-03-0.295E-03
CGA:  12    -0.354176194625E+03   -0.19259E-07   -0.72302E-05 10080   0.710E-04 0.123E-03
  36 F= -.35417619E+03 E0= -.35416762E+03  d E =0.245583E-03  mag=    10.0000
       N       E                     dE             d eps       ncg     rms          ort
SDA:   1    -0.354175002589E+03    0.11920E-02    0.00000E+00 10080   0.196E-01 0.000E+00
CGA:   2    -0.354175424424E+03   -0.42183E-03   -0.48158E-03 10080   0.199E-02 0.128E-02
CGA:   3    -0.354175716829E+03   -0.29241E-03   -0.26585E-03 10080   0.393E-02 0.483E-03
CGA:   4    -0.354176059921E+03   -0.34309E-03   -0.33944E-03 10080   0.191E-02-0.969E-03
CGA:   5    -0.354176100175E+03   -0.40254E-04   -0.52352E-04 10080   0.550E-03 0.327E-03
CGA:   6    -0.354176120588E+03   -0.20413E-04   -0.26872E-04 10080   0.421E-03 0.218E-03
CGA:   7    -0.354176176979E+03   -0.56391E-04   -0.60014E-04 10080   0.403E-03-0.113E-03
CGA:   8    -0.354176181054E+03   -0.40752E-05   -0.57060E-05 10080   0.114E-03 0.305E-04
  37 F= -.35417618E+03 E0= -.35416760E+03  d E =0.135706E-04  mag=    10.0000
       N       E                     dE             d eps       ncg     rms          ort
SDA:   1    -0.354172746507E+03    0.34305E-02    0.00000E+00 10080   0.134E-01 0.000E+00
CGA:   2    -0.354173585723E+03   -0.83922E-03   -0.83519E-03 10080   0.171E-01-0.120E-02
CGA:   3    -0.354175694394E+03   -0.21087E-02   -0.20974E-02 10080   0.517E-02 0.156E-03
CGA:   4    -0.354175857463E+03   -0.16307E-03   -0.18636E-03 10080   0.224E-02 0.680E-03
CGA:   5    -0.354176198152E+03   -0.34069E-03   -0.37018E-03 10080   0.801E-03-0.376E-03
CGA:   6    -0.354176243555E+03   -0.45404E-04   -0.43704E-04 10080   0.105E-02-0.285E-03
CGA:   7    -0.354176279937E+03   -0.36382E-04   -0.38027E-04 10080   0.442E-03 0.107E-03
CGA:   8    -0.354176287385E+03   -0.74480E-05   -0.11618E-04 10080   0.908E-04 0.881E-04
  38 F= -.35417629E+03 E0= -.35416771E+03  d E =-.106331E-03  mag=    10.0000
       N       E                     dE             d eps       ncg     rms          ort
SDA:   1    -0.354169307190E+03    0.69727E-02    0.00000E+00 10080   0.199E+00 0.000E+00
CGA:   2    -0.354174674248E+03   -0.53671E-02   -0.52925E-02 10080   0.427E-02 0.402E-02
CGA:   3    -0.354175304216E+03   -0.62997E-03   -0.59608E-03 10080   0.105E-01 0.467E-03
CGA:   4    -0.354176000250E+03   -0.69603E-03   -0.69351E-03 10080   0.185E-02-0.287E-03
CGA:   5    -0.354176099585E+03   -0.99335E-04   -0.10348E-03 10080   0.127E-02 0.360E-03
CGA:   6    -0.354176251205E+03   -0.15162E-03   -0.16826E-03 10080   0.133E-02-0.393E-03
CGA:   7    -0.354176269748E+03   -0.18542E-04   -0.24147E-04 10080   0.281E-03 0.124E-03
CGA:   8    -0.354176272589E+03   -0.28413E-05   -0.67188E-05 10080   0.149E-03 0.825E-04
CGA:   9    -0.354176281998E+03   -0.94092E-05   -0.10179E-04 10080   0.224E-03 0.590E-04
CGA:  10    -0.354176301898E+03   -0.19900E-04   -0.19474E-04 10080   0.839E-04-0.138E-03
CGA:  11    -0.354176303206E+03   -0.13083E-05   -0.22803E-05 10080   0.288E-04 0.254E-04
  39 F= -.35417630E+03 E0= -.35416772E+03  d E =-.158210E-04  mag=    10.0000
       N       E                     dE             d eps       ncg     rms          ort
SDA:   1    -0.352653636981E+03    0.15227E+01    0.00000E+00 10080   0.368E+01 0.000E+00
CGA:   2    -0.353587350150E+03   -0.93371E+00   -0.91307E+00 10080   0.859E+01 0.152E+00
CGA:   3    -0.353935164503E+03   -0.34781E+00   -0.33041E+00 10080   0.120E+01 0.896E-01
CGA:   4    -0.354037871311E+03   -0.10271E+00   -0.10278E+00 10080   0.161E+01-0.111E-03
CGA:   5    -0.354137547056E+03   -0.99676E-01   -0.99719E-01 10080   0.159E+00-0.658E-02
CGA:   6    -0.354150417260E+03   -0.12870E-01   -0.12863E-01 10080   0.212E+00 0.115E-02
CGA:   7    -0.354165191245E+03   -0.14774E-01   -0.14777E-01 10080   0.549E-01 0.102E-03
CGA:   8    -0.354167578891E+03   -0.23876E-02   -0.23282E-02 10080   0.276E-01-0.265E-02
CGA:   9    -0.354171217901E+03   -0.36390E-02   -0.35211E-02 10080   0.146E-01 0.183E-02
CGA:  10    -0.354172066710E+03   -0.84881E-03   -0.81318E-03 10080   0.791E-02-0.174E-02
CGA:  11    -0.354172944508E+03   -0.87780E-03   -0.84402E-03 10080   0.426E-02 0.685E-03
CGA:  12    -0.354173270266E+03   -0.32576E-03   -0.32306E-03 10080   0.463E-02-0.529E-03
CGA:  13    -0.354173724535E+03   -0.45427E-03   -0.47750E-03 10080   0.417E-02-0.554E-03
CGA:  14    -0.354173829069E+03   -0.10453E-03   -0.12165E-03 10080   0.931E-03 0.386E-03
CGA:  15    -0.354173989831E+03   -0.16076E-03   -0.19574E-03 10080   0.566E-02-0.302E-03
CGA:  16    -0.354174128942E+03   -0.13911E-03   -0.12343E-03 10080   0.333E-02-0.328E-03
CGA:  17    -0.354174181336E+03   -0.52394E-04   -0.51780E-04 10080   0.673E-03-0.117E-04
CGA:  18    -0.354174189187E+03   -0.78510E-05   -0.12938E-04 10080   0.414E-03 0.890E-04
CGA:  19    -0.354174199550E+03   -0.10363E-04   -0.15907E-04 10080   0.667E-03 0.143E-03
CGA:  20    -0.354174249675E+03   -0.50125E-04   -0.51762E-04 10080   0.948E-03 0.127E-03
CGA:  21    -0.354174298975E+03   -0.49300E-04   -0.39639E-04 10080   0.212E-03-0.283E-03
CGA:  22    -0.354174309145E+03   -0.10170E-04   -0.79421E-05 10080   0.369E-03-0.151E-03
CGA:  23    -0.354174312209E+03   -0.30643E-05   -0.82249E-05 10080   0.940E-04 0.114E-03
  40 F= -.35417431E+03 E0= -.35416570E+03  d E =0.199100E-02  mag=    10.0000
       N       E                     dE             d eps       ncg     rms          ort
SDA:   1    -0.353462946325E+03    0.71136E+00    0.00000E+00 10080   0.178E+01 0.000E+00
CGA:   2    -0.353889162340E+03   -0.42622E+00   -0.42505E+00 10080   0.402E+01 0.530E-02
CGA:   3    -0.354042688307E+03   -0.15353E+00   -0.15697E+00 10080   0.702E+00-0.960E-01
CGA:   4    -0.354122751885E+03   -0.80064E-01   -0.79913E-01 10080   0.840E+00 0.217E-02
CGA:   5    -0.354154929599E+03   -0.32178E-01   -0.31891E-01 10080   0.805E-01-0.560E-03
CGA:   6    -0.354167065367E+03   -0.12136E-01   -0.12212E-01 10080   0.107E+00-0.110E-02
CGA:   7    -0.354171135071E+03   -0.40697E-02   -0.40725E-02 10080   0.139E-01 0.951E-03
CGA:   8    -0.354173077463E+03   -0.19424E-02   -0.18683E-02 10080   0.226E-01 0.122E-02
CGA:   9    -0.354174327820E+03   -0.12504E-02   -0.12161E-02 10080   0.450E-02-0.141E-02
CGA:  10    -0.354174586233E+03   -0.25841E-03   -0.26712E-03 10080   0.294E-02 0.719E-03
CGA:  11    -0.354175020467E+03   -0.43423E-03   -0.47397E-03 10080   0.592E-02-0.627E-03
CGA:  12    -0.354175177902E+03   -0.15743E-03   -0.16877E-03 10080   0.949E-03 0.261E-03
CGA:  13    -0.354175203363E+03   -0.25462E-04   -0.34762E-04 10080   0.846E-03 0.225E-03
CGA:  14    -0.354175354169E+03   -0.15081E-03   -0.13938E-03 10080   0.158E-02 0.192E-03
CGA:  15    -0.354175458135E+03   -0.10397E-03   -0.89241E-04 10080   0.525E-03-0.491E-03
CGA:  16    -0.354175469549E+03   -0.11414E-04   -0.13811E-04 10080   0.245E-03 0.634E-04
CGA:  17    -0.354175478451E+03   -0.89021E-05   -0.12355E-04 10080   0.227E-03 0.121E-03
CGA:  18    -0.354175515906E+03   -0.37455E-04   -0.42668E-04 10080   0.784E-03-0.981E-04
CGA:  19    -0.354175527276E+03   -0.11370E-04   -0.87750E-05 10080   0.546E-03-0.478E-04
CGA:  20    -0.354175534202E+03   -0.69261E-05   -0.66982E-05 10080   0.125E-03-0.629E-05
  41 F= -.35417553E+03 E0= -.35416695E+03  d E =-.122199E-02  mag=    10.0000
       N       E                     dE             d eps       ncg     rms          ort
SDA:   1    -0.353235049038E+03    0.94048E+00    0.00000E+00 10080   0.241E+01 0.000E+00
CGA:   2    -0.353619892278E+03   -0.38484E+00   -0.38034E+00 10080   0.735E+01 0.572E-01
CGA:   3    -0.354012518779E+03   -0.39263E+00   -0.39154E+00 10080   0.776E+00-0.311E-01
CGA:   4    -0.354076866255E+03   -0.64347E-01   -0.64286E-01 10080   0.101E+01 0.573E-02
CGA:   5    -0.354144396076E+03   -0.67530E-01   -0.67530E-01 10080   0.912E-01-0.506E-02
CGA:   6    -0.354154798470E+03   -0.10402E-01   -0.10200E-01 10080   0.131E+00 0.462E-02
CGA:   7    -0.354162655917E+03   -0.78574E-02   -0.78077E-02 10080   0.235E-01-0.404E-02
CGA:   8    -0.354164030023E+03   -0.13741E-02   -0.13895E-02 10080   0.200E-01 0.144E-02
CGA:   9    -0.354166182339E+03   -0.21523E-02   -0.21735E-02 10080   0.152E-01-0.733E-03
CGA:  10    -0.354166843796E+03   -0.66146E-03   -0.65386E-03 10080   0.369E-02-0.371E-03
CGA:  11    -0.354167344805E+03   -0.50101E-03   -0.47801E-03 10080   0.508E-02 0.364E-03
CGA:  12    -0.354167749148E+03   -0.40434E-03   -0.40309E-03 10080   0.291E-02-0.614E-03
CGA:  13    -0.354167910537E+03   -0.16139E-03   -0.16264E-03 10080   0.121E-02 0.110E-03
CGA:  14    -0.354168007349E+03   -0.96813E-04   -0.96136E-04 10080   0.124E-02 0.237E-03
CGA:  15    -0.354168173992E+03   -0.16664E-03   -0.21841E-03 10080   0.394E-02-0.712E-03
CGA:  16    -0.354168233222E+03   -0.59230E-04   -0.85591E-04 10080   0.197E-03 0.472E-03
CGA:  17    -0.354168235570E+03   -0.23489E-05   -0.70915E-05 10080   0.169E-03 0.111E-03
CGA:  18    -0.354168263149E+03   -0.27579E-04    0.48800E-04 10080   0.236E-03 0.487E-04
CGA:  19    -0.354168293690E+03   -0.30541E-04   -0.28257E-04 10080   0.697E-04 0.111E-03
CGA:  20    -0.354168305644E+03   -0.11954E-04   -0.12689E-04 10080   0.316E-03-0.153E-04
CGA:  21    -0.354168315873E+03   -0.10229E-04   -0.10807E-04 10080   0.436E-03 0.178E-04
CGA:  22    -0.354168322869E+03   -0.69965E-05   -0.88276E-05 10080   0.873E-04 0.321E-04
  42 F= -.35416832E+03 E0= -.35415977E+03  d E =0.721133E-02  mag=    10.0000
       N       E                     dE             d eps       ncg     rms          ort
SDA:   1    -0.353539797212E+03    0.62852E+00    0.00000E+00 10080   0.166E+01 0.000E+00
CGA:   2    -0.353827201995E+03   -0.28740E+00   -0.28458E+00 10080   0.449E+01 0.360E-01
CGA:   3    -0.354058628523E+03   -0.23143E+00   -0.22903E+00 10080   0.637E+00-0.169E-01
CGA:   4    -0.354107253086E+03   -0.48625E-01   -0.48650E-01 10080   0.784E+00-0.645E-02
CGA:   5    -0.354158247279E+03   -0.50994E-01   -0.51038E-01 10080   0.685E-01 0.348E-02
CGA:   6    -0.354166334236E+03   -0.80870E-02   -0.82436E-02 10080   0.126E+00-0.357E-02
CGA:   7    -0.354172063347E+03   -0.57291E-02   -0.57936E-02 10080   0.135E-01 0.272E-02
CGA:   8    -0.354173139127E+03   -0.10758E-02   -0.10754E-02 10080   0.200E-01 0.806E-04
CGA:   9    -0.354174951961E+03   -0.18128E-02   -0.18223E-02 10080   0.319E-02-0.610E-03
CGA:  10    -0.354175144745E+03   -0.19278E-03   -0.19886E-03 10080   0.335E-02 0.564E-03
CGA:  11    -0.354175695978E+03   -0.55123E-03   -0.59726E-03 10080   0.222E-02-0.602E-03
CGA:  12    -0.354175750902E+03   -0.54924E-04   -0.62807E-04 10080   0.794E-03 0.176E-03
CGA:  13    -0.354175865403E+03   -0.11450E-03   -0.11011E-03 10080   0.210E-02 0.815E-04
CGA:  14    -0.354176028469E+03   -0.16307E-03   -0.15855E-03 10080   0.538E-03-0.448E-03
CGA:  15    -0.354176039421E+03   -0.10952E-04   -0.13595E-04 10080   0.256E-03 0.555E-04
CGA:  16    -0.354176069141E+03   -0.29721E-04   -0.27946E-04 10080   0.495E-03 0.763E-04
CGA:  17    -0.354176117199E+03   -0.48057E-04   -0.47229E-04 10080   0.454E-03-0.231E-03
CGA:  18    -0.354176122499E+03   -0.53006E-05   -0.58096E-05 10080   0.156E-03 0.881E-05
  43 F= -.35417612E+03 E0= -.35416755E+03  d E =-.779963E-02  mag=    10.0000
       N       E                     dE             d eps       ncg     rms          ort
SDA:   1    -0.354166346711E+03    0.97705E-02    0.00000E+00 10080   0.511E-01 0.000E+00
CGA:   2    -0.354168434676E+03   -0.20880E-02   -0.20587E-02 10080   0.309E-01-0.160E-02
CGA:   3    -0.354173104636E+03   -0.46700E-02   -0.45343E-02 10080   0.237E-01 0.163E-02
CGA:   4    -0.354174118507E+03   -0.10139E-02   -0.10083E-02 10080   0.738E-02-0.160E-03
CGA:   5    -0.354175348985E+03   -0.12305E-02   -0.12372E-02 10080   0.379E-02-0.770E-04
CGA:   6    -0.354175496369E+03   -0.14738E-03   -0.14840E-03 10080   0.122E-02 0.190E-04
CGA:   7    -0.354175642361E+03   -0.14599E-03   -0.14233E-03 10080   0.125E-02 0.866E-04
CGA:   8    -0.354175715571E+03   -0.73210E-04   -0.67311E-04 10080   0.453E-03-0.223E-03
CGA:   9    -0.354175730616E+03   -0.15045E-04   -0.18564E-04 10080   0.129E-03 0.135E-03
CGA:  10    -0.354175761871E+03   -0.31255E-04   -0.36431E-04 10080   0.486E-03-0.363E-04
CGA:  11    -0.354175766672E+03   -0.48007E-05   -0.81873E-05 10080   0.213E-03 0.579E-04
  44 F= -.35417577E+03 E0= -.35416719E+03  d E =0.355827E-03  mag=    10.0000
       N       E                     dE             d eps       ncg     rms          ort
SDA:   1    -0.354169496521E+03    0.62654E-02    0.00000E+00 10080   0.325E-01 0.000E+00
CGA:   2    -0.354171112894E+03   -0.16164E-02   -0.15970E-02 10080   0.231E-01-0.103E-02
CGA:   3    -0.354174658425E+03   -0.35455E-02   -0.35518E-02 10080   0.778E-02-0.857E-04
CGA:   4    -0.354175160569E+03   -0.50214E-03   -0.50420E-03 10080   0.932E-02 0.110E-03
CGA:   5    -0.354175949933E+03   -0.78936E-03   -0.79136E-03 10080   0.154E-02-0.361E-03
CGA:   6    -0.354175992761E+03   -0.42828E-04   -0.57027E-04 10080   0.687E-03 0.355E-03
CGA:   7    -0.354176114672E+03   -0.12191E-03   -0.12325E-03 10080   0.224E-03-0.196E-04
CGA:   8    -0.354176119719E+03   -0.50470E-05   -0.39870E-04 10080   0.238E-02-0.338E-03
CGA:   9    -0.354176157078E+03   -0.37359E-04   -0.53206E-04 10080   0.854E-04 0.247E-03
CGA:  10    -0.354176158578E+03   -0.15008E-05   -0.30526E-05 10080   0.511E-04 0.312E-04
CGA:  11    -0.354176096773E+03    0.61805E-04   -0.33895E-04 10080   0.170E-02-0.223E-03
CGA:  12    -0.354176145660E+03   -0.48887E-04   -0.50848E-04 10080   0.264E-03 0.101E-04
CGA:  13    -0.354176185252E+03   -0.39591E-04   -0.40025E-04 10080   0.449E-03-0.375E-04
CGA:  14    -0.354176189586E+03   -0.43344E-05   -0.10074E-04 10080   0.391E-04 0.495E-04
  45 F= -.35417619E+03 E0= -.35416761E+03  d E =-.422914E-03  mag=    10.0000
       N       E                     dE             d eps       ncg     rms          ort
SDA:   1    -0.354174664734E+03    0.15205E-02    0.00000E+00 10080   0.608E-02 0.000E+00
CGA:   2    -0.354175013363E+03   -0.34863E-03   -0.33243E-03 10080   0.686E-02-0.247E-03
CGA:   3    -0.354175924572E+03   -0.91121E-03   -0.90809E-03 10080   0.360E-02 0.222E-03
CGA:   4    -0.354176068800E+03   -0.14423E-03   -0.13933E-03 10080   0.959E-03-0.804E-04
CGA:   5    -0.354176204812E+03   -0.13601E-03   -0.13530E-03 10080   0.236E-03 0.297E-04
CGA:   6    -0.354176218700E+03   -0.13889E-04   -0.13958E-04 10080   0.189E-03-0.307E-06
CGA:   7    -0.354176239474E+03   -0.20774E-04   -0.20423E-04 10080   0.123E-03-0.348E-04
CGA:   8    -0.354176240217E+03   -0.74324E-06   -0.25015E-05 10080   0.257E-04 0.186E-04
  46 F= -.35417624E+03 E0= -.35416766E+03  d E =-.506315E-04  mag=    10.0000
