       N       E                     dE             d eps       ncg     rms          ort
DAV:   1     0.270477997613E+04    0.27048E+04   -0.16138E+05 10962   0.165E+03
DAV:   2    -0.152582021432E+03   -0.28574E+04   -0.26812E+04 10962   0.446E+02
DAV:   3    -0.445503894838E+03   -0.29292E+03   -0.28647E+03 10962   0.161E+02
DAV:   4    -0.455790135692E+03   -0.10286E+02   -0.10030E+02 10962   0.316E+01
DAV:   5    -0.456485839457E+03   -0.69570E+00   -0.69218E+00 10962   0.594E+00
SDA:   6    -0.272532714083E+03    0.18395E+03   -0.69218E+00 10962   0.635E+03 0.000E+00
CGA:   7    -0.335786012120E+03   -0.63253E+02   -0.70213E+02 10962   0.843E+02-0.291E+02
CGA:   8    -0.348754359019E+03   -0.12968E+02   -0.12934E+02 10962   0.188E+02-0.302E+00
CGA:   9    -0.352184478341E+03   -0.34301E+01   -0.34276E+01 10962   0.861E+01-0.159E+00
CGA:  10    -0.353799546189E+03   -0.16151E+01   -0.16153E+01 10962   0.321E+01 0.247E-01
CGA:  11    -0.354425237450E+03   -0.62569E+00   -0.62563E+00 10962   0.118E+01 0.377E-01
CGA:  12    -0.354688465136E+03   -0.26323E+00   -0.26294E+00 10962   0.425E+00 0.111E-01
CGA:  13    -0.354783702699E+03   -0.95238E-01   -0.94894E-01 10962   0.136E+00 0.132E-01
CGA:  14    -0.354813937363E+03   -0.30235E-01   -0.30031E-01 10962   0.389E-01 0.112E-01
CGA:  15    -0.354824900110E+03   -0.10963E-01   -0.10947E-01 10962   0.149E-01 0.285E-03
CGA:  16    -0.354828719218E+03   -0.38191E-02   -0.37208E-02 10962   0.491E-02 0.210E-02
CGA:  17    -0.354830458309E+03   -0.17391E-02   -0.17456E-02 10962   0.238E-02-0.583E-04
CGA:  18    -0.354831182388E+03   -0.72408E-03   -0.13182E-02 10962   0.342E-02-0.170E-02
CGA:  19    -0.354831629644E+03   -0.44726E-03   -0.51309E-03 10962   0.559E-03 0.874E-03
CGA:  20    -0.354831659057E+03   -0.29413E-04   -0.45983E-03 10962   0.188E-02-0.995E-03
CGA:  21    -0.354832043377E+03   -0.38432E-03   -0.39302E-03 10962   0.136E-03 0.253E-03
CGA:  22    -0.354832123192E+03   -0.79815E-04    0.25773E-03 10962   0.267E-04 0.205E-04
CGA:  23    -0.354832121294E+03    0.18982E-05   -0.21958E-05 10962   0.178E-04 0.241E-04
   1 F= -.35483212E+03 E0= -.35483212E+03  d E =-.354832E+03  mag=     8.0000
       N       E                     dE             d eps       ncg     rms          ort
SDA:   1    -0.354834144045E+03   -0.20209E-02    0.00000E+00 10962   0.564E-03 0.000E+00
CGA:   2    -0.354834274864E+03   -0.13082E-03   -0.13060E-03 10962   0.265E-03 0.309E-04
CGA:   3    -0.354834339095E+03   -0.64231E-04   -0.64961E-04 10962   0.252E-03-0.103E-03
CGA:   4    -0.354834367431E+03   -0.28335E-04   -0.23811E-04 10962   0.854E-04-0.637E-04
CGA:   5    -0.354834374781E+03   -0.73503E-05   -0.78846E-05 10962   0.408E-04 0.542E-05
   2 F= -.35483437E+03 E0= -.35483437E+03  d E =-.225349E-02  mag=     8.0000
       N       E                     dE             d eps       ncg     rms          ort
SDA:   1    -0.354539176425E+03    0.29519E+00    0.00000E+00 10962   0.102E+01 0.000E+00
CGA:   2    -0.354787205834E+03   -0.24803E+00   -0.24804E+00 10962   0.509E+00-0.383E-03
CGA:   3    -0.354867290640E+03   -0.80085E-01   -0.80026E-01 10962   0.190E+00-0.123E-02
CGA:   4    -0.354897266082E+03   -0.29975E-01   -0.29928E-01 10962   0.483E-01-0.899E-03
CGA:   5    -0.354905262445E+03   -0.79964E-02   -0.79914E-02 10962   0.131E-01-0.125E-03
CGA:   6    -0.354907726037E+03   -0.24636E-02   -0.24637E-02 10962   0.467E-02 0.404E-05
CGA:   7    -0.354908849043E+03   -0.11230E-02   -0.11391E-02 10962   0.234E-02-0.423E-03
CGA:   8    -0.354909439595E+03   -0.59055E-03   -0.65226E-03 10962   0.146E-02-0.624E-03
CGA:   9    -0.354909702111E+03   -0.26252E-03   -0.27040E-03 10962   0.596E-03-0.197E-03
CGA:  10    -0.354909820518E+03   -0.11841E-03   -0.11807E-03 10962   0.180E-03 0.231E-04
CGA:  11    -0.354909846744E+03   -0.26226E-04   -0.30070E-04 10962   0.692E-04 0.701E-04
CGA:  12    -0.354909853483E+03   -0.67395E-05   -0.11590E-04 10962   0.347E-04 0.526E-04
   3 F= -.35490985E+03 E0= -.35490985E+03  d E =-.754787E-01  mag=     8.0000
       N       E                     dE             d eps       ncg     rms          ort
SDA:   1    -0.353717008964E+03    0.11928E+01    0.00000E+00 10962   0.377E+01 0.000E+00
CGA:   2    -0.354556480786E+03   -0.83947E+00   -0.83943E+00 10962   0.183E+01 0.538E-03
CGA:   3    -0.354850807699E+03   -0.29433E+00   -0.29424E+00 10962   0.695E+00-0.264E-02
CGA:   4    -0.354959198675E+03   -0.10839E+00   -0.10833E+00 10962   0.171E+00-0.135E-02
CGA:   5    -0.354987072533E+03   -0.27874E-01   -0.27875E-01 10962   0.444E-01-0.312E-04
CGA:   6    -0.354995396684E+03   -0.83242E-02   -0.83230E-02 10962   0.155E-01-0.105E-03
CGA:   7    -0.354998968060E+03   -0.35714E-02   -0.35942E-02 10962   0.729E-02-0.676E-03
CGA:   8    -0.355000894328E+03   -0.19263E-02   -0.19892E-02 10962   0.396E-02-0.740E-03
CGA:   9    -0.355001855673E+03   -0.96134E-03   -0.98327E-03 10962   0.180E-02-0.306E-03
CGA:  10    -0.355002296689E+03   -0.44102E-03   -0.44180E-03 10962   0.596E-03-0.145E-04
CGA:  11    -0.355002427796E+03   -0.13111E-03   -0.13006E-03 10962   0.185E-03 0.115E-03
CGA:  12    -0.355002473040E+03   -0.45244E-04   -0.45584E-04 10962   0.748E-04 0.735E-04
CGA:  13    -0.355002487789E+03   -0.14750E-04   -0.17270E-04 10962   0.386E-04 0.547E-04
CGA:  14    -0.355002492468E+03   -0.46786E-05   -0.60812E-05 10962   0.231E-04 0.272E-04
   4 F= -.35500249E+03 E0= -.35500249E+03  d E =-.926390E-01  mag=     8.0000
       N       E                     dE             d eps       ncg     rms          ort
SDA:   1    -0.354102959025E+03    0.89953E+00    0.00000E+00 10962   0.283E+01 0.000E+00
CGA:   2    -0.354723997994E+03   -0.62104E+00   -0.62100E+00 10962   0.138E+01 0.105E-02
CGA:   3    -0.354947054416E+03   -0.22306E+00   -0.22303E+00 10962   0.526E+00-0.105E-02
CGA:   4    -0.355027673376E+03   -0.80619E-01   -0.80610E-01 10962   0.124E+00-0.322E-03
CGA:   5    -0.355047840832E+03   -0.20167E-01   -0.20166E-01 10962   0.323E-01-0.865E-04
CGA:   6    -0.355053894340E+03   -0.60535E-02   -0.60525E-02 10962   0.112E-01-0.100E-03
CGA:   7    -0.355056406552E+03   -0.25122E-02   -0.25155E-02 10962   0.513E-02-0.125E-03
CGA:   8    -0.355057790025E+03   -0.13835E-02   -0.13827E-02 10962   0.266E-02 0.102E-04
CGA:   9    -0.355058536614E+03   -0.74659E-03   -0.74353E-03 10962   0.127E-02 0.396E-04
CGA:  10    -0.355058911869E+03   -0.37525E-03   -0.37713E-03 10962   0.504E-03-0.226E-04
CGA:  11    -0.355059045526E+03   -0.13366E-03   -0.13328E-03 10962   0.172E-03 0.647E-05
CGA:  12    -0.355059101438E+03   -0.55911E-04   -0.57056E-04 10962   0.777E-04-0.101E-04
CGA:  13    -0.355059116531E+03   -0.15093E-04   -0.15363E-04 10962   0.301E-04 0.274E-04
CGA:  14    -0.355059125731E+03   -0.92008E-05   -0.91459E-05 10962   0.125E-04 0.110E-04
   5 F= -.35505913E+03 E0= -.35505913E+03  d E =-.566333E-01  mag=     8.0000
       N       E                     dE             d eps       ncg     rms          ort
SDA:   1    -0.352639643735E+03    0.24195E+01    0.00000E+00 10962   0.703E+01 0.000E+00
CGA:   2    -0.354310727910E+03   -0.16711E+01   -0.16710E+01 10962   0.333E+01 0.244E-02
CGA:   3    -0.354847668734E+03   -0.53694E+00   -0.53689E+00 10962   0.127E+01-0.124E-02
CGA:   4    -0.355037772254E+03   -0.19010E+00   -0.19013E+00 10962   0.282E+00-0.917E-04
CGA:   5    -0.355083421309E+03   -0.45649E-01   -0.45650E-01 10962   0.751E-01-0.111E-03
CGA:   6    -0.355097590244E+03   -0.14169E-01   -0.14165E-01 10962   0.262E-01-0.176E-03
CGA:   7    -0.355103438327E+03   -0.58481E-02   -0.58489E-02 10962   0.121E-01-0.956E-04
CGA:   8    -0.355106783200E+03   -0.33449E-02   -0.33386E-02 10962   0.651E-02 0.103E-03
CGA:   9    -0.355108679580E+03   -0.18964E-02   -0.18889E-02 10962   0.328E-02 0.105E-03
CGA:  10    -0.355109657176E+03   -0.97760E-03   -0.98267E-03 10962   0.130E-02-0.723E-04
CGA:  11    -0.355110016360E+03   -0.35918E-03   -0.36276E-03 10962   0.472E-03-0.613E-04
CGA:  12    -0.355110161863E+03   -0.14550E-03   -0.15120E-03 10962   0.218E-03-0.533E-04
CGA:  13    -0.355110216334E+03   -0.54471E-04   -0.53268E-04 10962   0.787E-04 0.287E-04
CGA:  14    -0.355110248239E+03   -0.31905E-04   -0.33229E-04 10962   0.434E-04-0.977E-05
CGA:  15    -0.355110254400E+03   -0.61616E-05   -0.70552E-05 10962   0.195E-04 0.156E-04
   6 F= -.35511025E+03 E0= -.35511025E+03  d E =-.511287E-01  mag=     8.0000
       N       E                     dE             d eps       ncg     rms          ort
SDA:   1    -0.350630484777E+03    0.44798E+01    0.00000E+00 10962   0.120E+02 0.000E+00
CGA:   2    -0.353830515064E+03   -0.32000E+01   -0.31998E+01 10962   0.564E+01 0.428E-02
CGA:   3    -0.354726224943E+03   -0.89571E+00   -0.89583E+00 10962   0.206E+01-0.335E-03
CGA:   4    -0.355023099843E+03   -0.29687E+00   -0.29688E+00 10962   0.429E+00-0.708E-03
CGA:   5    -0.355093163625E+03   -0.70064E-01   -0.70039E-01 10962   0.119E+00-0.525E-03
CGA:   6    -0.355115653758E+03   -0.22490E-01   -0.22490E-01 10962   0.406E-01-0.512E-04
CGA:   7    -0.355124636632E+03   -0.89829E-02   -0.89819E-02 10962   0.184E-01-0.165E-03
CGA:   8    -0.355129693449E+03   -0.50568E-02   -0.50633E-02 10962   0.989E-02-0.132E-03
CGA:   9    -0.355132555531E+03   -0.28621E-02   -0.28612E-02 10962   0.508E-02 0.106E-04
CGA:  10    -0.355134037059E+03   -0.14815E-02   -0.14909E-02 10962   0.198E-02-0.157E-03
CGA:  11    -0.355134570622E+03   -0.53356E-03   -0.53557E-03 10962   0.699E-03-0.478E-04
CGA:  12    -0.355134798633E+03   -0.22801E-03   -0.23825E-03 10962   0.353E-03-0.919E-04
CGA:  13    -0.355134886146E+03   -0.87513E-04   -0.85781E-04 10962   0.137E-03 0.476E-04
CGA:  14    -0.355134942718E+03   -0.56571E-04   -0.59002E-04 10962   0.780E-04-0.182E-04
CGA:  15    -0.355134953513E+03   -0.10796E-04   -0.12623E-04 10962   0.359E-04 0.280E-04
CGA:  16    -0.355134964390E+03   -0.10876E-04   -0.11031E-04 10962   0.142E-04 0.695E-05
CGA:  17    -0.355134975679E+03   -0.11290E-04    0.60561E-05 10962   0.843E-05 0.503E-05
CGA:  18    -0.355134978573E+03   -0.28933E-05   -0.28747E-05 10962   0.589E-05 0.420E-05
   7 F= -.35513498E+03 E0= -.35513498E+03  d E =-.247242E-01  mag=     8.0000
       N       E                     dE             d eps       ncg     rms          ort
SDA:   1    -0.354740834433E+03    0.39414E+00    0.00000E+00 10962   0.118E+01 0.000E+00
CGA:   2    -0.354991520453E+03   -0.25069E+00   -0.25074E+00 10962   0.682E+00 0.294E-03
CGA:   3    -0.355102680591E+03   -0.11116E+00   -0.11115E+00 10962   0.243E+00-0.174E-03
CGA:   4    -0.355138399249E+03   -0.35719E-01   -0.35709E-01 10962   0.537E-01-0.141E-03
CGA:   5    -0.355147149699E+03   -0.87505E-02   -0.87609E-02 10962   0.144E-01 0.964E-04
CGA:   6    -0.355149784820E+03   -0.26351E-02   -0.26364E-02 10962   0.462E-02 0.148E-04
CGA:   7    -0.355150747475E+03   -0.96265E-03   -0.96120E-03 10962   0.168E-02-0.393E-04
CGA:   8    -0.355151157370E+03   -0.40989E-03   -0.40984E-03 10962   0.723E-03 0.351E-04
CGA:   9    -0.355151361101E+03   -0.20373E-03   -0.20407E-03 10962   0.339E-03-0.107E-04
CGA:  10    -0.355151453820E+03   -0.92719E-04   -0.92352E-04 10962   0.133E-03 0.118E-04
CGA:  11    -0.355151491439E+03   -0.37619E-04   -0.37413E-04 10962   0.488E-04 0.824E-05
CGA:  12    -0.355151510736E+03   -0.19297E-04   -0.23238E-04 10962   0.454E-04-0.197E-04
CGA:  13    -0.355151515281E+03   -0.45453E-05   -0.50558E-05 10962   0.256E-04 0.709E-05
   8 F= -.35515152E+03 E0= -.35515152E+03  d E =-.165367E-01  mag=     8.0000
       N       E                     dE             d eps       ncg     rms          ort
SDA:   1    -0.354922219209E+03    0.22929E+00    0.00000E+00 10962   0.688E+00 0.000E+00
CGA:   2    -0.355073307985E+03   -0.15109E+00   -0.15111E+00 10962   0.406E+00 0.406E-03
CGA:   3    -0.355137978315E+03   -0.64670E-01   -0.64672E-01 10962   0.135E+00-0.494E-04
CGA:   4    -0.355157515561E+03   -0.19537E-01   -0.19530E-01 10962   0.291E-01-0.105E-03
CGA:   5    -0.355162300855E+03   -0.47853E-02   -0.47888E-02 10962   0.776E-02 0.360E-04
CGA:   6    -0.355163709796E+03   -0.14089E-02   -0.14092E-02 10962   0.238E-02 0.274E-05
CGA:   7    -0.355164186221E+03   -0.47643E-03   -0.47724E-03 10962   0.804E-03 0.235E-04
CGA:   8    -0.355164373162E+03   -0.18694E-03   -0.18710E-03 10962   0.323E-03 0.713E-04
CGA:   9    -0.355164469003E+03   -0.95842E-04   -0.95094E-04 10962   0.151E-03 0.196E-04
CGA:  10    -0.355164515104E+03   -0.46101E-04   -0.45630E-04 10962   0.660E-04 0.923E-05
CGA:  11    -0.355164536119E+03   -0.21015E-04   -0.21134E-04 10962   0.284E-04-0.188E-05
CGA:  12    -0.355164543721E+03   -0.76020E-05   -0.16445E-04 10962   0.538E-04-0.249E-04
   9 F= -.35516454E+03 E0= -.35516454E+03  d E =-.130284E-01  mag=     8.0000
       N       E                     dE             d eps       ncg     rms          ort
SDA:   1    -0.353949817978E+03    0.12147E+01    0.00000E+00 10962   0.324E+01 0.000E+00
CGA:   2    -0.354770711330E+03   -0.82089E+00   -0.82089E+00 10962   0.197E+01 0.218E-02
CGA:   3    -0.355068055350E+03   -0.29734E+00   -0.29731E+00 10962   0.583E+00-0.583E-03
CGA:   4    -0.355150666155E+03   -0.82611E-01   -0.82554E-01 10962   0.120E+00-0.682E-03
CGA:   5    -0.355170217436E+03   -0.19551E-01   -0.19546E-01 10962   0.323E-01-0.110E-03
CGA:   6    -0.355176098494E+03   -0.58811E-02   -0.58814E-02 10962   0.978E-02-0.275E-05
CGA:   7    -0.355178015750E+03   -0.19173E-02   -0.19193E-02 10962   0.312E-02 0.486E-04
CGA:   8    -0.355178775033E+03   -0.75928E-03   -0.75830E-03 10962   0.134E-02 0.119E-03
CGA:   9    -0.355179166681E+03   -0.39165E-03   -0.39088E-03 10962   0.654E-03 0.168E-04
CGA:  10    -0.355179364759E+03   -0.19808E-03   -0.19835E-03 10962   0.290E-03-0.426E-05
CGA:  11    -0.355179451302E+03   -0.86543E-04   -0.88050E-04 10962   0.122E-03-0.229E-04
CGA:  12    -0.355179491049E+03   -0.39747E-04   -0.46928E-04 10962   0.938E-04-0.408E-04
CGA:  13    -0.355179509914E+03   -0.18866E-04   -0.18907E-04 10962   0.478E-04-0.824E-06
CGA:  14    -0.355179526078E+03   -0.16164E-04   -0.26285E-04 10962   0.714E-04-0.337E-04
CGA:  15    -0.355179536903E+03   -0.10825E-04   -0.12529E-04 10962   0.102E-04 0.181E-04
CGA:  16    -0.355179470114E+03    0.66789E-04   -0.35975E-04 10962   0.344E-03-0.620E-04
CGA:  17    -0.355179521393E+03   -0.51279E-04   -0.67702E-04 10962   0.515E-04 0.572E-04
CGA:  18    -0.355179549336E+03   -0.27943E-04   -0.28741E-04 10962   0.140E-03-0.804E-04
CGA:  19    -0.355179546426E+03    0.29099E-05   -0.13944E-04 10962   0.217E-04 0.455E-04
  10 F= -.35517955E+03 E0= -.35517955E+03  d E =-.150027E-01  mag=     8.0000
       N       E                     dE             d eps       ncg     rms          ort
SDA:   1    -0.345398671090E+03    0.97809E+01    0.00000E+00 10962   0.255E+02 0.000E+00
CGA:   2    -0.352112115400E+03   -0.67134E+01   -0.67241E+01 10962   0.148E+02 0.125E-01
CGA:   3    -0.354351861556E+03   -0.22397E+01   -0.22392E+01 10962   0.437E+01 0.747E-01
CGA:   4    -0.354977726137E+03   -0.62586E+00   -0.62507E+00 10962   0.883E+00 0.689E-02
CGA:   5    -0.355122640799E+03   -0.14491E+00   -0.14483E+00 10962   0.247E+00-0.748E-03
CGA:   6    -0.355168632888E+03   -0.45992E-01   -0.46012E-01 10962   0.768E-01 0.362E-04
CGA:   7    -0.355183917680E+03   -0.15285E-01   -0.15297E-01 10962   0.260E-01 0.249E-04
CGA:   8    -0.355190574623E+03   -0.66569E-02   -0.66658E-02 10962   0.122E-01 0.669E-04
CGA:   9    -0.355194091394E+03   -0.35168E-02   -0.34965E-02 10962   0.600E-02-0.269E-03
CGA:  10    -0.355195822344E+03   -0.17310E-02   -0.17211E-02 10962   0.245E-02-0.154E-03
CGA:  11    -0.355196510190E+03   -0.68785E-03   -0.68241E-03 10962   0.902E-03-0.808E-04
CGA:  12    -0.355196809744E+03   -0.29955E-03   -0.29892E-03 10962   0.459E-03-0.782E-04
CGA:  13    -0.355196948862E+03   -0.13912E-03   -0.13972E-03 10962   0.228E-03 0.347E-04
CGA:  14    -0.355197056283E+03   -0.10742E-03   -0.11133E-03 10962   0.169E-03-0.379E-04
CGA:  15    -0.355197077942E+03   -0.21659E-04   -0.29188E-04 10962   0.758E-04 0.508E-04
CGA:  16    -0.355197101448E+03   -0.23506E-04   -0.24289E-04 10962   0.276E-04 0.770E-05
CGA:  17    -0.355197126163E+03   -0.24716E-04    0.27394E-04 10962   0.200E-04-0.301E-05
CGA:  18    -0.355197124701E+03    0.14628E-05   -0.15843E-05 10962   0.133E-04 0.120E-04
  11 F= -.35519712E+03 E0= -.35519712E+03  d E =-.175783E-01  mag=     8.0000
       N       E                     dE             d eps       ncg     rms          ort
SDA:   1    -0.350453728300E+03    0.47434E+01    0.00000E+00 10962   0.125E+02 0.000E+00
CGA:   2    -0.353726517704E+03   -0.32728E+01   -0.32745E+01 10962   0.685E+01 0.161E-01
CGA:   3    -0.354783819049E+03   -0.10573E+01   -0.10569E+01 10962   0.220E+01 0.340E-02
CGA:   4    -0.355094854189E+03   -0.31104E+00   -0.31054E+00 10962   0.433E+00-0.275E-02
CGA:   5    -0.355165124556E+03   -0.70270E-01   -0.70126E-01 10962   0.121E+00-0.125E-02
CGA:   6    -0.355187648975E+03   -0.22524E-01   -0.22522E-01 10962   0.372E-01-0.561E-04
CGA:   7    -0.355195018134E+03   -0.73692E-02   -0.73898E-02 10962   0.127E-01 0.215E-03
CGA:   8    -0.355198316642E+03   -0.32985E-02   -0.33026E-02 10962   0.614E-02 0.164E-03
CGA:   9    -0.355200143121E+03   -0.18265E-02   -0.18283E-02 10962   0.324E-02-0.134E-03
CGA:  10    -0.355201100652E+03   -0.95753E-03   -0.96043E-03 10962   0.143E-02-0.132E-03
CGA:  11    -0.355201506854E+03   -0.40620E-03   -0.40723E-03 10962   0.570E-03-0.774E-04
CGA:  12    -0.355201692218E+03   -0.18536E-03   -0.18978E-03 10962   0.306E-03-0.648E-04
CGA:  13    -0.355201783157E+03   -0.90939E-04   -0.89970E-04 10962   0.149E-03 0.215E-04
CGA:  14    -0.355201850312E+03   -0.67155E-04   -0.71395E-04 10962   0.107E-03-0.270E-04
CGA:  15    -0.355201866230E+03   -0.15918E-04   -0.18549E-04 10962   0.488E-04 0.307E-04
CGA:  16    -0.355201883536E+03   -0.17305E-04   -0.17298E-04 10962   0.214E-04-0.499E-06
CGA:  17    -0.355201897794E+03   -0.14258E-04    0.20013E-04 10962   0.135E-04 0.298E-05
CGA:  18    -0.355201899232E+03   -0.14380E-05   -0.25070E-05 10962   0.791E-05 0.832E-05
  12 F= -.35520190E+03 E0= -.35520190E+03  d E =-.477453E-02  mag=     8.0000
       N       E                     dE             d eps       ncg     rms          ort
SDA:   1    -0.353300673717E+03    0.19012E+01    0.00000E+00 10962   0.508E+01 0.000E+00
CGA:   2    -0.354521648609E+03   -0.12210E+01   -0.12212E+01 10962   0.326E+01 0.122E-02
CGA:   3    -0.355027659120E+03   -0.50601E+00   -0.50598E+00 10962   0.969E+00 0.597E-04
CGA:   4    -0.355163936271E+03   -0.13628E+00   -0.13633E+00 10962   0.201E+00 0.253E-03
CGA:   5    -0.355196952378E+03   -0.33016E-01   -0.33100E-01 10962   0.563E-01 0.716E-03
CGA:   6    -0.355207334040E+03   -0.10382E-01   -0.10385E-01 10962   0.175E-01 0.287E-04
CGA:   7    -0.355210911902E+03   -0.35779E-02   -0.35681E-02 10962   0.602E-02-0.176E-03
CGA:   8    -0.355212382341E+03   -0.14704E-02   -0.14704E-02 10962   0.260E-02-0.353E-05
CGA:   9    -0.355213112694E+03   -0.73035E-03   -0.73368E-03 10962   0.122E-02-0.134E-03
CGA:  10    -0.355213432620E+03   -0.31993E-03   -0.32012E-03 10962   0.453E-03-0.123E-04
CGA:  11    -0.355213559913E+03   -0.12729E-03   -0.12773E-03 10962   0.163E-03-0.176E-04
CGA:  12    -0.355213606837E+03   -0.46924E-04   -0.46838E-04 10962   0.665E-04 0.225E-05
CGA:  13    -0.355213628192E+03   -0.21355E-04   -0.20934E-04 10962   0.310E-04 0.885E-05
CGA:  14    -0.355213643668E+03   -0.15476E-04   -0.16880E-04 10962   0.278E-04-0.658E-05
CGA:  15    -0.355213646641E+03   -0.29730E-05   -0.39070E-05 10962   0.149E-04 0.951E-05
  13 F= -.35521365E+03 E0= -.35521365E+03  d E =-.117474E-01  mag=     8.0000
       N       E                     dE             d eps       ncg     rms          ort
SDA:   1    -0.355145531402E+03    0.68112E-01    0.00000E+00 10962   0.192E+00 0.000E+00
CGA:   2    -0.355201410389E+03   -0.55879E-01   -0.55891E-01 10962   0.990E-01-0.529E-03
CGA:   3    -0.355216620428E+03   -0.15210E-01   -0.15205E-01 10962   0.357E-01-0.826E-04
CGA:   4    -0.355222072628E+03   -0.54522E-02   -0.54574E-02 10962   0.912E-02 0.372E-04
CGA:   5    -0.355223650536E+03   -0.15779E-02   -0.15823E-02 10962   0.287E-02 0.511E-04
CGA:   6    -0.355224206475E+03   -0.55594E-03   -0.55638E-03 10962   0.102E-02 0.716E-05
CGA:   7    -0.355224451724E+03   -0.24525E-03   -0.24465E-03 10962   0.521E-03-0.653E-04
CGA:   8    -0.355224581272E+03   -0.12955E-03   -0.13108E-03 10962   0.230E-03-0.751E-04
CGA:   9    -0.355224624629E+03   -0.43357E-04   -0.43530E-04 10962   0.753E-04 0.606E-05
CGA:  10    -0.355224641657E+03   -0.17028E-04   -0.17274E-04 10962   0.216E-04 0.991E-05
CGA:  11    -0.355224646571E+03   -0.49139E-05   -0.51157E-05 10962   0.756E-05 0.535E-05
  14 F= -.35522465E+03 E0= -.35522465E+03  d E =-.109999E-01  mag=     8.0000
       N       E                     dE             d eps       ncg     rms          ort
SDA:   1    -0.355142209003E+03    0.82433E-01    0.00000E+00 10962   0.221E+00 0.000E+00
CGA:   2    -0.355204184773E+03   -0.61976E-01   -0.61917E-01 10962   0.929E-01 0.135E-02
CGA:   3    -0.355220430262E+03   -0.16245E-01   -0.16224E-01 10962   0.353E-01-0.314E-03
CGA:   4    -0.355225102862E+03   -0.46726E-02   -0.46443E-02 10962   0.630E-02-0.276E-03
CGA:   5    -0.355226178248E+03   -0.10754E-02   -0.10707E-02 10962   0.197E-02-0.770E-04
CGA:   6    -0.355226527486E+03   -0.34924E-03   -0.35026E-03 10962   0.561E-03 0.197E-04
CGA:   7    -0.355226640361E+03   -0.11287E-03   -0.11370E-03 10962   0.215E-03 0.294E-04
CGA:   8    -0.355226696661E+03   -0.56300E-04   -0.55803E-04 10962   0.101E-03 0.256E-04
CGA:   9    -0.355226730178E+03   -0.33517E-04   -0.32830E-04 10962   0.578E-04 0.111E-04
CGA:  10    -0.355226750174E+03   -0.19996E-04   -0.19999E-04 10962   0.293E-04-0.436E-07
CGA:  11    -0.355226759236E+03   -0.90617E-05   -0.93724E-05 10962   0.141E-04-0.367E-05
  15 F= -.35522676E+03 E0= -.35522676E+03  d E =-.211267E-02  mag=     8.0000
       N       E                     dE             d eps       ncg     rms          ort
SDA:   1    -0.351051551408E+03    0.41752E+01    0.00000E+00 10962   0.117E+02 0.000E+00
CGA:   2    -0.353810782036E+03   -0.27592E+01   -0.27604E+01 10962   0.633E+01 0.226E-01
CGA:   3    -0.354816104602E+03   -0.10053E+01   -0.10052E+01 10962   0.223E+01 0.289E-03
CGA:   4    -0.355140105880E+03   -0.32400E+00   -0.32371E+00 10962   0.455E+00-0.271E-02
CGA:   5    -0.355212158453E+03   -0.72053E-01   -0.72054E-01 10962   0.119E+00-0.293E-03
CGA:   6    -0.355234160266E+03   -0.22002E-01   -0.22004E-01 10962   0.378E-01 0.405E-05
CGA:   7    -0.355241802825E+03   -0.76426E-02   -0.76500E-02 10962   0.133E-01 0.154E-03
CGA:   8    -0.355245205132E+03   -0.34023E-02   -0.33982E-02 10962   0.642E-02 0.333E-03
CGA:   9    -0.355247176970E+03   -0.19718E-02   -0.19798E-02 10962   0.359E-02-0.141E-03
CGA:  10    -0.355248206094E+03   -0.10291E-02   -0.10289E-02 10962   0.155E-02 0.365E-05
CGA:  11    -0.355248667157E+03   -0.46106E-03   -0.46409E-03 10962   0.643E-03-0.606E-04
CGA:  12    -0.355248871948E+03   -0.20479E-03   -0.20904E-03 10962   0.323E-03-0.490E-04
CGA:  13    -0.355248977145E+03   -0.10520E-03   -0.10545E-03 10962   0.164E-03-0.269E-05
CGA:  14    -0.355249043257E+03   -0.66112E-04   -0.73290E-04 10962   0.109E-03-0.377E-04
CGA:  15    -0.355249058587E+03   -0.15330E-04   -0.17206E-04 10962   0.463E-04 0.291E-04
CGA:  16    -0.355249073707E+03   -0.15119E-04   -0.15119E-04 10962   0.179E-04-0.127E-06
CGA:  17    -0.355249083659E+03   -0.99523E-05    0.50893E-04 10962   0.993E-05 0.393E-05
  16 F= -.35524908E+03 E0= -.35524908E+03  d E =-.223244E-01  mag=     8.0000
       N       E                     dE             d eps       ncg     rms          ort
SDA:   1    -0.352005103588E+03    0.32440E+01    0.00000E+00 10962   0.772E+01 0.000E+00
CGA:   2    -0.354171019266E+03   -0.21659E+01   -0.21657E+01 10962   0.395E+01 0.718E-02
CGA:   3    -0.354770942824E+03   -0.59992E+00   -0.60008E+00 10962   0.139E+01 0.121E-02
CGA:   4    -0.354983373463E+03   -0.21243E+00   -0.21240E+00 10962   0.350E+00-0.613E-03
CGA:   5    -0.355043284608E+03   -0.59911E-01   -0.59897E-01 10962   0.105E+00-0.328E-03
CGA:   6    -0.355063127027E+03   -0.19842E-01   -0.19856E-01 10962   0.367E-01 0.209E-03
CGA:   7    -0.355071180369E+03   -0.80533E-02   -0.80654E-02 10962   0.156E-01 0.498E-03
CGA:   8    -0.355074986743E+03   -0.38064E-02   -0.38070E-02 10962   0.589E-02 0.492E-03
CGA:   9    -0.355076602760E+03   -0.16160E-02   -0.16149E-02 10962   0.253E-02 0.486E-04
CGA:  10    -0.355077297407E+03   -0.69465E-03   -0.69720E-03 10962   0.882E-03-0.856E-04
CGA:  11    -0.355077538316E+03   -0.24091E-03   -0.24235E-03 10962   0.329E-03-0.369E-04
CGA:  12    -0.355077640418E+03   -0.10210E-03   -0.10636E-03 10962   0.159E-03-0.470E-04
CGA:  13    -0.355077687825E+03   -0.47407E-04   -0.47956E-04 10962   0.774E-04-0.562E-05
CGA:  14    -0.355077641105E+03    0.46720E-04   -0.83450E-04 10962   0.507E-03-0.151E-03
CGA:  15    -0.355077719578E+03   -0.78473E-04   -0.91431E-04 10962   0.590E-04 0.109E-03
CGA:  16    -0.355077743841E+03   -0.24262E-04   -0.34581E-04 10962   0.747E-04-0.546E-04
CGA:  17    -0.355077742289E+03    0.15520E-05   -0.71840E-05 10962   0.253E-04 0.422E-04
  17 F= -.35507774E+03 E0= -.35507774E+03  d E =0.171341E+00  mag=     8.0000
       N       E                     dE             d eps       ncg     rms          ort
SDA:   1    -0.354895130547E+03    0.18261E+00    0.00000E+00 10962   0.736E+00 0.000E+00
CGA:   2    -0.355132895524E+03   -0.23776E+00   -0.23782E+00 10962   0.251E+00-0.155E-02
CGA:   3    -0.355184800235E+03   -0.51905E-01   -0.51940E-01 10962   0.102E+00 0.348E-03
CGA:   4    -0.355198645188E+03   -0.13845E-01   -0.13838E-01 10962   0.259E-01-0.608E-04
CGA:   5    -0.355203735107E+03   -0.50899E-02   -0.50865E-02 10962   0.897E-02-0.421E-04
CGA:   6    -0.355205388561E+03   -0.16535E-02   -0.16567E-02 10962   0.336E-02 0.359E-04
CGA:   7    -0.355206277352E+03   -0.88879E-03   -0.88818E-03 10962   0.175E-02-0.183E-03
CGA:   8    -0.355206665240E+03   -0.38789E-03   -0.38279E-03 10962   0.690E-03-0.146E-03
CGA:   9    -0.355206810988E+03   -0.14575E-03   -0.14714E-03 10962   0.217E-03 0.429E-04
CGA:  10    -0.355206867306E+03   -0.56318E-04   -0.56392E-04 10962   0.712E-04 0.387E-05
CGA:  11    -0.355206885664E+03   -0.18358E-04   -0.18395E-04 10962   0.234E-04 0.427E-05
CGA:  12    -0.355206889498E+03   -0.38341E-05   -0.45148E-05 10962   0.811E-05 0.848E-05
  18 F= -.35520689E+03 E0= -.35520689E+03  d E =-.129147E+00  mag=     8.0000
       N       E                     dE             d eps       ncg     rms          ort
SDA:   1    -0.355087017836E+03    0.11987E+00    0.00000E+00 10962   0.393E+00 0.000E+00
CGA:   2    -0.355213511125E+03   -0.12649E+00   -0.12658E+00 10962   0.138E+00-0.134E-02
CGA:   3    -0.355240744174E+03   -0.27233E-01   -0.27258E-01 10962   0.587E-01 0.363E-03
CGA:   4    -0.355248785618E+03   -0.80414E-02   -0.80451E-02 10962   0.143E-01 0.187E-04
CGA:   5    -0.355251537077E+03   -0.27515E-02   -0.27504E-02 10962   0.510E-02-0.180E-04
CGA:   6    -0.355252462142E+03   -0.92506E-03   -0.92731E-03 10962   0.184E-02 0.336E-04
CGA:   7    -0.355252954127E+03   -0.49198E-03   -0.49501E-03 10962   0.100E-02-0.133E-03
CGA:   8    -0.355253183328E+03   -0.22920E-03   -0.22924E-03 10962   0.431E-03-0.141E-03
CGA:   9    -0.355253263227E+03   -0.79899E-04   -0.80824E-04 10962   0.132E-03 0.338E-04
CGA:  10    -0.355253294776E+03   -0.31549E-04   -0.31818E-04 10962   0.421E-04 0.130E-04
CGA:  11    -0.355253307311E+03   -0.12534E-04   -0.12552E-04 10962   0.182E-04-0.647E-06
CGA:  12    -0.355253308669E+03   -0.13580E-05   -0.23473E-05 10962   0.782E-05 0.871E-05
  19 F= -.35525331E+03 E0= -.35525331E+03  d E =-.464192E-01  mag=     8.0000
       N       E                     dE             d eps       ncg     rms          ort
SDA:   1    -0.355193540952E+03    0.59766E-01    0.00000E+00 10962   0.167E+00 0.000E+00
CGA:   2    -0.355246129381E+03   -0.52588E-01   -0.52687E-01 10962   0.659E-01-0.122E-02
CGA:   3    -0.355257446413E+03   -0.11317E-01   -0.11333E-01 10962   0.280E-01 0.228E-03
CGA:   4    -0.355261538064E+03   -0.40917E-02   -0.41023E-02 10962   0.664E-02 0.114E-03
CGA:   5    -0.355262735820E+03   -0.11978E-02   -0.11991E-02 10962   0.223E-02 0.269E-04
CGA:   6    -0.355263163431E+03   -0.42761E-03   -0.42778E-03 10962   0.835E-03 0.452E-05
CGA:   7    -0.355263384169E+03   -0.22074E-03   -0.22617E-03 10962   0.511E-03-0.120E-03
CGA:   8    -0.355263497329E+03   -0.11316E-03   -0.11914E-03 10962   0.257E-03-0.133E-03
CGA:   9    -0.355263535389E+03   -0.38060E-04   -0.38452E-04 10962   0.830E-04 0.144E-04
CGA:  10    -0.355263550405E+03   -0.15016E-04   -0.15908E-04 10962   0.278E-04 0.190E-04
CGA:  11    -0.355263556519E+03   -0.61141E-05   -0.64171E-05 10962   0.110E-04 0.791E-05
  20 F= -.35526356E+03 E0= -.35526356E+03  d E =-.102479E-01  mag=     8.0000
       N       E                     dE             d eps       ncg     rms          ort
SDA:   1    -0.355255123462E+03    0.84269E-02    0.00000E+00 10962   0.253E-01 0.000E+00
CGA:   2    -0.355262037547E+03   -0.69141E-02   -0.69420E-02 10962   0.143E-01-0.514E-03
CGA:   3    -0.355264076547E+03   -0.20390E-02   -0.20367E-02 10962   0.463E-02-0.324E-04
CGA:   4    -0.355264799113E+03   -0.72257E-03   -0.72684E-03 10962   0.124E-02 0.689E-04
CGA:   5    -0.355264998416E+03   -0.19930E-03   -0.20231E-03 10962   0.307E-03 0.556E-04
CGA:   6    -0.355265063160E+03   -0.64744E-04   -0.64728E-04 10962   0.128E-03-0.165E-05
CGA:   7    -0.355265093072E+03   -0.29912E-04   -0.54198E-04 10962   0.250E-03-0.113E-03
CGA:   8    -0.355265126579E+03   -0.33507E-04   -0.33497E-04 10962   0.354E-04-0.185E-06
CGA:   9    -0.355265134503E+03   -0.79241E-05   -0.79268E-05 10962   0.942E-05-0.490E-06
  21 F= -.35526513E+03 E0= -.35526513E+03  d E =-.157798E-02  mag=     8.0000
       N       E                     dE             d eps       ncg     rms          ort
SDA:   1    -0.355255355395E+03    0.97712E-02    0.00000E+00 10962   0.286E-01 0.000E+00
CGA:   2    -0.355262800569E+03   -0.74452E-02   -0.74559E-02 10962   0.166E-01-0.334E-03
CGA:   3    -0.355265308075E+03   -0.25075E-02   -0.25014E-02 10962   0.516E-02-0.811E-04
CGA:   4    -0.355266087656E+03   -0.77958E-03   -0.78271E-03 10962   0.132E-02 0.411E-04
CGA:   5    -0.355266295559E+03   -0.20790E-03   -0.21222E-03 10962   0.320E-03 0.678E-04
CGA:   6    -0.355266364305E+03   -0.68746E-04   -0.68724E-04 10962   0.124E-03-0.152E-05
CGA:   7    -0.355266396369E+03   -0.32064E-04   -0.49216E-04 10962   0.200E-03-0.952E-04
CGA:   8    -0.355266423178E+03   -0.26809E-04   -0.27031E-04 10962   0.284E-04 0.235E-05
CGA:   9    -0.355266430795E+03   -0.76175E-05   -0.78554E-05 10962   0.113E-04-0.474E-05
  22 F= -.35526643E+03 E0= -.35526643E+03  d E =-.129629E-02  mag=     8.0000
       N       E                     dE             d eps       ncg     rms          ort
SDA:   1    -0.355263335815E+03    0.30874E-02    0.00000E+00 10962   0.959E-02 0.000E+00
CGA:   2    -0.355265765116E+03   -0.24293E-02   -0.24296E-02 10962   0.623E-02-0.616E-04
CGA:   3    -0.355266702860E+03   -0.93774E-03   -0.93459E-03 10962   0.188E-02-0.335E-04
CGA:   4    -0.355266950024E+03   -0.24716E-03   -0.24808E-03 10962   0.454E-03 0.773E-05
CGA:   5    -0.355267015811E+03   -0.65787E-04   -0.68125E-04 10962   0.103E-03 0.262E-04
CGA:   6    -0.355267035544E+03   -0.19733E-04   -0.19997E-04 10962   0.354E-04 0.530E-05
CGA:   7    -0.355267044422E+03   -0.88775E-05   -0.15280E-04 10962   0.719E-04-0.358E-04
  23 F= -.35526704E+03 E0= -.35526704E+03  d E =-.613626E-03  mag=     8.0000
       N       E                     dE             d eps       ncg     rms          ort
SDA:   1    -0.355207300251E+03    0.59735E-01    0.00000E+00 10962   0.181E+00 0.000E+00
CGA:   2    -0.355242433449E+03   -0.35133E-01   -0.35140E-01 10962   0.112E+00 0.729E-04
CGA:   3    -0.355261935921E+03   -0.19502E-01   -0.19499E-01 10962   0.406E-01-0.877E-04
CGA:   4    -0.355267502463E+03   -0.55665E-02   -0.55664E-02 10962   0.722E-02-0.113E-04
CGA:   5    -0.355268632081E+03   -0.11296E-02   -0.11385E-02 10962   0.195E-02 0.130E-03
CGA:   6    -0.355268999891E+03   -0.36781E-03   -0.36853E-03 10962   0.613E-03 0.196E-04
CGA:   7    -0.355269128856E+03   -0.12897E-03   -0.12856E-03 10962   0.203E-03-0.347E-04
CGA:   8    -0.355269175471E+03   -0.46616E-04   -0.47099E-04 10962   0.889E-04-0.180E-04
CGA:   9    -0.355269198113E+03   -0.22642E-04   -0.23790E-04 10962   0.445E-04-0.157E-04
CGA:  10    -0.355269205771E+03   -0.76577E-05   -0.77193E-05 10962   0.133E-04 0.461E-05
  24 F= -.35526921E+03 E0= -.35526921E+03  d E =-.216135E-02  mag=     8.0000
       N       E                     dE             d eps       ncg     rms          ort
SDA:   1    -0.355175410250E+03    0.93788E-01    0.00000E+00 10962   0.246E+00 0.000E+00
CGA:   2    -0.355239613035E+03   -0.64203E-01   -0.64200E-01 10962   0.163E+00 0.642E-05
CGA:   3    -0.355263410860E+03   -0.23798E-01   -0.23803E-01 10962   0.431E-01 0.293E-04
CGA:   4    -0.355269390136E+03   -0.59793E-02   -0.59823E-02 10962   0.903E-02 0.252E-04
CGA:   5    -0.355270888729E+03   -0.14986E-02   -0.15028E-02 10962   0.251E-02 0.796E-04
CGA:   6    -0.355271351642E+03   -0.46291E-03   -0.46309E-03 10962   0.754E-03 0.482E-05
CGA:   7    -0.355271504338E+03   -0.15270E-03   -0.15255E-03 10962   0.254E-03-0.125E-04
CGA:   8    -0.355271565528E+03   -0.61190E-04   -0.61233E-04 10962   0.108E-03-0.137E-05
CGA:   9    -0.355271594820E+03   -0.29292E-04   -0.29296E-04 10962   0.478E-04-0.717E-07
CGA:  10    -0.355271607810E+03   -0.12990E-04   -0.12887E-04 10962   0.172E-04 0.196E-05
CGA:  11    -0.355271613454E+03   -0.56439E-05   -0.60061E-05 10962   0.844E-05-0.315E-05
  25 F= -.35527161E+03 E0= -.35527161E+03  d E =-.240768E-02  mag=     8.0000
       N       E                     dE             d eps       ncg     rms          ort
SDA:   1    -0.348700451638E+03    0.65712E+01    0.00000E+00 10962   0.158E+02 0.000E+00
CGA:   2    -0.353463489494E+03   -0.47630E+01   -0.47618E+01 10962   0.946E+01 0.855E-02
CGA:   3    -0.354785586779E+03   -0.13221E+01   -0.13222E+01 10962   0.240E+01 0.329E-02
CGA:   4    -0.355126216731E+03   -0.34063E+00   -0.34050E+00 10962   0.533E+00-0.154E-02
CGA:   5    -0.355215090422E+03   -0.88874E-01   -0.88892E-01 10962   0.152E+00 0.444E-04
CGA:   6    -0.355242867118E+03   -0.27777E-01   -0.27777E-01 10962   0.458E-01-0.376E-04
CGA:   7    -0.355252159925E+03   -0.92928E-02   -0.92887E-02 10962   0.159E-01-0.368E-03
CGA:   8    -0.355256145626E+03   -0.39857E-02   -0.39965E-02 10962   0.717E-02-0.273E-03
CGA:   9    -0.355258136439E+03   -0.19908E-02   -0.20183E-02 10962   0.345E-02-0.388E-03
CGA:  10    -0.355259074320E+03   -0.93788E-03   -0.95980E-03 10962   0.136E-02-0.293E-03
CGA:  11    -0.355259418359E+03   -0.34404E-03   -0.34977E-03 10962   0.466E-03-0.999E-04
CGA:  12    -0.355259545692E+03   -0.12733E-03   -0.12720E-03 10962   0.183E-03 0.165E-05
CGA:  13    -0.355259607864E+03   -0.62172E-04   -0.59559E-04 10962   0.944E-04 0.273E-04
CGA:  14    -0.355259647746E+03   -0.39882E-04   -0.36991E-04 10962   0.540E-04 0.269E-04
CGA:  15    -0.355259672310E+03   -0.24565E-04   -0.22752E-04 10962   0.268E-04 0.203E-04
CGA:  16    -0.355259686279E+03   -0.13969E-04   -0.12992E-04 10962   0.139E-04 0.882E-05
CGA:  17    -0.355259694066E+03   -0.77867E-05   -0.71582E-05 10962   0.847E-05 0.441E-05
  26 F= -.35525969E+03 E0= -.35525969E+03  d E =0.119194E-01  mag=     8.0000
       N       E                     dE             d eps       ncg     rms          ort
SDA:   1    -0.353833281885E+03    0.14264E+01    0.00000E+00 10962   0.357E+01 0.000E+00
CGA:   2    -0.354871143869E+03   -0.10379E+01   -0.10384E+01 10962   0.194E+01 0.420E-03
CGA:   3    -0.355159431087E+03   -0.28829E+00   -0.28823E+00 10962   0.601E+00 0.205E-02
CGA:   4    -0.355246047834E+03   -0.86617E-01   -0.86578E-01 10962   0.133E+00-0.143E-03
CGA:   5    -0.355268868896E+03   -0.22821E-01   -0.22794E-01 10962   0.413E-01-0.174E-03
CGA:   6    -0.355276570052E+03   -0.77012E-02   -0.77233E-02 10962   0.132E-01 0.848E-04
CGA:   7    -0.355279269547E+03   -0.26995E-02   -0.27290E-02 10962   0.508E-02 0.145E-03
CGA:   8    -0.355280514688E+03   -0.12451E-02   -0.12654E-02 10962   0.204E-02 0.136E-03
CGA:   9    -0.355281065603E+03   -0.55091E-03   -0.55622E-03 10962   0.887E-03 0.438E-04
CGA:  10    -0.355281320671E+03   -0.25507E-03   -0.25369E-03 10962   0.330E-03-0.137E-04
CGA:  11    -0.355281408011E+03   -0.87340E-04   -0.88120E-04 10962   0.117E-03 0.739E-05
CGA:  12    -0.355281447173E+03   -0.39161E-04   -0.38817E-04 10962   0.561E-04-0.755E-05
CGA:  13    -0.355281467555E+03   -0.20382E-04   -0.20487E-04 10962   0.345E-04-0.468E-05
CGA:  14    -0.355281472752E+03   -0.51971E-05   -0.28116E-04 10962   0.126E-03-0.441E-04
CGA:  15    -0.355281487414E+03   -0.14662E-04   -0.20891E-04 10962   0.186E-04 0.272E-04
CGA:  16    -0.355281493429E+03   -0.60145E-05   -0.59918E-05 10962   0.618E-05-0.201E-06
  27 F= -.35528149E+03 E0= -.35528149E+03  d E =-.217994E-01  mag=     8.0000
       N       E                     dE             d eps       ncg     rms          ort
SDA:   1    -0.354241911666E+03    0.10396E+01    0.00000E+00 10962   0.256E+01 0.000E+00
CGA:   2    -0.354968086682E+03   -0.72618E+00   -0.72618E+00 10962   0.166E+01-0.880E-03
CGA:   3    -0.355204113090E+03   -0.23603E+00   -0.23609E+00 10962   0.430E+00 0.268E-03
CGA:   4    -0.355264643002E+03   -0.60530E-01   -0.60522E-01 10962   0.948E-01-0.276E-04
CGA:   5    -0.355280510719E+03   -0.15868E-01   -0.15873E-01 10962   0.275E-01 0.153E-04
CGA:   6    -0.355285528268E+03   -0.50175E-02   -0.50236E-02 10962   0.836E-02 0.357E-04
CGA:   7    -0.355287271945E+03   -0.17437E-02   -0.17276E-02 10962   0.300E-02-0.137E-03
CGA:   8    -0.355288036784E+03   -0.76484E-03   -0.75512E-03 10962   0.135E-02-0.153E-03
CGA:   9    -0.355288389249E+03   -0.35247E-03   -0.34954E-03 10962   0.588E-03-0.677E-04
CGA:  10    -0.355288547551E+03   -0.15830E-03   -0.15711E-03 10962   0.210E-03-0.366E-04
CGA:  11    -0.355288597040E+03   -0.49489E-04   -0.49896E-04 10962   0.627E-04 0.679E-05
CGA:  12    -0.355288621282E+03   -0.24242E-04   -0.27965E-04 10962   0.545E-04-0.305E-04
CGA:  13    -0.355288624934E+03   -0.36514E-05   -0.48430E-05 10962   0.333E-04 0.833E-05
  28 F= -.35528862E+03 E0= -.35528862E+03  d E =-.713151E-02  mag=     8.0000
       N       E                     dE             d eps       ncg     rms          ort
SDA:   1    -0.355135911596E+03    0.15271E+00    0.00000E+00 10962   0.382E+00 0.000E+00
CGA:   2    -0.355238470142E+03   -0.10256E+00   -0.10256E+00 10962   0.220E+00-0.160E-03
CGA:   3    -0.355272625694E+03   -0.34156E-01   -0.34104E-01 10962   0.762E-01-0.390E-03
CGA:   4    -0.355283863699E+03   -0.11238E-01   -0.11214E-01 10962   0.172E-01-0.191E-03
CGA:   5    -0.355286739573E+03   -0.28759E-02   -0.28841E-02 10962   0.518E-02 0.644E-04
CGA:   6    -0.355287755856E+03   -0.10163E-02   -0.10127E-02 10962   0.185E-02-0.424E-04
CGA:   7    -0.355288184392E+03   -0.42854E-03   -0.42224E-03 10962   0.867E-03-0.139E-03
CGA:   8    -0.355288404768E+03   -0.22038E-03   -0.22069E-03 10962   0.408E-03-0.130E-03
CGA:   9    -0.355288498011E+03   -0.93242E-04   -0.92939E-04 10962   0.175E-03-0.574E-04
CGA:  10    -0.355288531875E+03   -0.33865E-04   -0.34218E-04 10962   0.467E-04 0.775E-05
CGA:  11    -0.355288540020E+03   -0.81451E-05   -0.92502E-05 10962   0.151E-04 0.137E-04
  29 F= -.35528854E+03 E0= -.35528854E+03  d E =0.849133E-04  mag=     8.0000
       N       E                     dE             d eps       ncg     rms          ort
SDA:   1    -0.355067879518E+03    0.22065E+00    0.00000E+00 10962   0.545E+00 0.000E+00
CGA:   2    -0.355240243004E+03   -0.17236E+00   -0.17233E+00 10962   0.270E+00 0.472E-03
CGA:   3    -0.355278830440E+03   -0.38587E-01   -0.38606E-01 10962   0.782E-01 0.842E-04
CGA:   4    -0.355289939548E+03   -0.11109E-01   -0.11106E-01 10962   0.172E-01-0.565E-04
CGA:   5    -0.355292840978E+03   -0.29014E-02   -0.28986E-02 10962   0.510E-02-0.392E-04
CGA:   6    -0.355293763786E+03   -0.92281E-03   -0.92580E-03 10962   0.151E-02 0.446E-04
CGA:   7    -0.355294053057E+03   -0.28927E-03   -0.29361E-03 10962   0.508E-03 0.848E-04
CGA:   8    -0.355294176881E+03   -0.12382E-03   -0.12442E-03 10962   0.208E-03 0.630E-04
CGA:   9    -0.355294239292E+03   -0.62411E-04   -0.61770E-04 10962   0.100E-03 0.282E-04
CGA:  10    -0.355294272239E+03   -0.32947E-04   -0.32642E-04 10962   0.443E-04 0.679E-05
CGA:  11    -0.355294286117E+03   -0.13879E-04   -0.13942E-04 10962   0.187E-04-0.128E-05
CGA:  12    -0.355294290829E+03   -0.47116E-05   -0.46829E-05 10962   0.710E-05 0.266E-05
CGA:  13    -0.355294266898E+03    0.23931E-04   -0.13106E-04 10962   0.141E-03-0.278E-04
CGA:  14    -0.355294296373E+03   -0.29475E-04   -0.31021E-04 10962   0.135E-04 0.666E-05
CGA:  15    -0.355294302919E+03   -0.65462E-05   -0.71683E-05 10962   0.135E-04-0.942E-05
  30 F= -.35529430E+03 E0= -.35529430E+03  d E =-.576290E-02  mag=     8.0000
       N       E                     dE             d eps       ncg     rms          ort
SDA:   1    -0.347343383326E+03    0.79509E+01    0.00000E+00 10962   0.198E+02 0.000E+00
CGA:   2    -0.352964601332E+03   -0.56212E+01   -0.56267E+01 10962   0.119E+02 0.474E-02
CGA:   3    -0.354680539100E+03   -0.17159E+01   -0.17151E+01 10962   0.315E+01 0.915E-01
CGA:   4    -0.355127231264E+03   -0.44669E+00   -0.44629E+00 10962   0.655E+00 0.707E-02
CGA:   5    -0.355237134893E+03   -0.10990E+00   -0.10998E+00 10962   0.189E+00-0.135E-03
CGA:   6    -0.355272065907E+03   -0.34931E-01   -0.34956E-01 10962   0.585E-01 0.603E-04
CGA:   7    -0.355283716400E+03   -0.11650E-01   -0.11666E-01 10962   0.198E-01 0.598E-04
CGA:   8    -0.355288812036E+03   -0.50956E-02   -0.51059E-02 10962   0.930E-02 0.877E-04
CGA:   9    -0.355291473536E+03   -0.26615E-02   -0.26509E-02 10962   0.453E-02-0.146E-03
CGA:  10    -0.355292786175E+03   -0.13126E-02   -0.13044E-02 10962   0.183E-02-0.135E-03
CGA:  11    -0.355293303211E+03   -0.51704E-03   -0.51205E-03 10962   0.694E-03-0.823E-04
CGA:  12    -0.355293515641E+03   -0.21243E-03   -0.21220E-03 10962   0.323E-03-0.912E-05
CGA:  13    -0.355293646557E+03   -0.13092E-03   -0.13238E-03 10962   0.223E-03-0.213E-04
CGA:  14    -0.355293732158E+03   -0.85601E-04   -0.85790E-04 10962   0.128E-03-0.364E-05
CGA:  15    -0.355293777728E+03   -0.45570E-04   -0.45564E-04 10962   0.537E-04 0.294E-06
CGA:  16    -0.355293789804E+03   -0.12076E-04   -0.13489E-04 10962   0.212E-04 0.137E-04
CGA:  17    -0.355293798662E+03   -0.88578E-05   -0.88815E-05 10962   0.126E-04 0.160E-05
  31 F= -.35529380E+03 E0= -.35529380E+03  d E =0.504257E-03  mag=     8.0000
       N       E                     dE             d eps       ncg     rms          ort
SDA:   1    -0.332869793623E+03    0.22424E+02    0.00000E+00 10962   0.528E+02 0.000E+00
CGA:   2    -0.346757245873E+03   -0.13887E+02   -0.13890E+02 10962   0.293E+02-0.141E-01
CGA:   3    -0.351275516249E+03   -0.45183E+01   -0.45176E+01 10962   0.998E+01 0.120E+00
CGA:   4    -0.352836434051E+03   -0.15609E+01   -0.15608E+01 10962   0.261E+01 0.794E-02
CGA:   5    -0.353289706101E+03   -0.45327E+00   -0.45395E+00 10962   0.792E+00 0.173E-02
CGA:   6    -0.353442970491E+03   -0.15326E+00   -0.15320E+00 10962   0.292E+00 0.141E-03
CGA:   7    -0.353508687138E+03   -0.65717E-01   -0.65450E-01 10962   0.130E+00-0.286E-02
CGA:   8    -0.353540940382E+03   -0.32253E-01   -0.32112E-01 10962   0.500E-01-0.244E-02
CGA:   9    -0.353553667101E+03   -0.12727E-01   -0.12676E-01 10962   0.202E-01-0.107E-02
CGA:  10    -0.353558837985E+03   -0.51709E-02   -0.51534E-02 10962   0.609E-02-0.405E-03
CGA:  11    -0.353560363023E+03   -0.15250E-02   -0.15338E-02 10962   0.190E-02 0.198E-03
CGA:  12    -0.353560909325E+03   -0.54630E-03   -0.54676E-03 10962   0.631E-03 0.231E-04
CGA:  13    -0.353561055584E+03   -0.14626E-03   -0.15542E-03 10962   0.233E-03 0.168E-03
CGA:  14    -0.353561114316E+03   -0.58732E-04   -0.66301E-04 10962   0.111E-03 0.107E-03
CGA:  15    -0.353561152746E+03   -0.38430E-04   -0.40791E-04 10962   0.692E-04 0.603E-04
CGA:  16    -0.353561176765E+03   -0.24018E-04   -0.23191E-04 10962   0.368E-04 0.181E-04
CGA:  17    -0.353561203942E+03   -0.27178E-04    0.20275E-02 10962   0.257E-04 0.280E-04
CGA:  18    -0.353561201867E+03    0.20749E-05   -0.22026E-05 10962   0.183E-04 0.207E-04
  32 F= -.35356120E+03 E0= -.35356120E+03  d E =0.173260E+01  mag=     8.0000
       N       E                     dE             d eps       ncg     rms          ort
SDA:   1    -0.349824279351E+03    0.37369E+01    0.00000E+00 10962   0.120E+02 0.000E+00
CGA:   2    -0.353682632352E+03   -0.38584E+01   -0.38583E+01 10962   0.445E+01-0.486E-03
CGA:   3    -0.354525615641E+03   -0.84298E+00   -0.84354E+00 10962   0.183E+01 0.495E-02
CGA:   4    -0.354776344414E+03   -0.25073E+00   -0.25078E+00 10962   0.431E+00-0.109E-02
CGA:   5    -0.354859598929E+03   -0.83255E-01   -0.83090E-01 10962   0.154E+00-0.236E-02
CGA:   6    -0.354887864393E+03   -0.28265E-01   -0.28325E-01 10962   0.540E-01 0.699E-03
CGA:   7    -0.354900919886E+03   -0.13055E-01   -0.13065E-01 10962   0.260E-01 0.476E-03
CGA:   8    -0.354906945938E+03   -0.60261E-02   -0.60175E-02 10962   0.950E-02-0.275E-03
CGA:   9    -0.354909325843E+03   -0.23799E-02   -0.23823E-02 10962   0.350E-02 0.451E-03
CGA:  10    -0.354910284543E+03   -0.95870E-03   -0.95911E-03 10962   0.116E-02-0.129E-03
CGA:  11    -0.354910600265E+03   -0.31572E-03   -0.31746E-03 10962   0.389E-03-0.694E-04
CGA:  12    -0.354910697480E+03   -0.97215E-04   -0.97203E-04 10962   0.125E-03 0.205E-05
CGA:  13    -0.354910121284E+03    0.57620E-03   -0.31074E-03 10962   0.327E-02-0.559E-03
CGA:  14    -0.354910637403E+03   -0.51612E-03   -0.60249E-03 10962   0.436E-03 0.296E-03
CGA:  15    -0.354910823521E+03   -0.18612E-03   -0.16086E-03 10962   0.339E-03-0.208E-03
CGA:  16    -0.354910816108E+03    0.74123E-05   -0.17602E-04 10962   0.180E-03 0.704E-04
CGA:  17    -0.354910802683E+03    0.13425E-04   -0.16478E-04 10962   0.656E-04 0.828E-04
CGA:  18    -0.354910798198E+03    0.44849E-05   -0.86584E-05 10962   0.368E-04 0.400E-04
  33 F= -.35491080E+03 E0= -.35491080E+03  d E =-.134960E+01  mag=     8.0000
       N       E                     dE             d eps       ncg     rms          ort
SDA:   1    -0.353600267985E+03    0.13105E+01    0.00000E+00 10962   0.388E+01 0.000E+00
CGA:   2    -0.354826237958E+03   -0.12260E+01   -0.12268E+01 10962   0.147E+01 0.274E-02
CGA:   3    -0.355101069757E+03   -0.27483E+00   -0.27539E+00 10962   0.643E+00 0.220E-02
CGA:   4    -0.355190135713E+03   -0.89066E-01   -0.89078E-01 10962   0.145E+00 0.719E-04
CGA:   5    -0.355217749846E+03   -0.27614E-01   -0.27463E-01 10962   0.514E-01-0.892E-03
CGA:   6    -0.355227233904E+03   -0.94841E-02   -0.95477E-02 10962   0.185E-01 0.330E-03
CGA:   7    -0.355231478897E+03   -0.42450E-02   -0.43132E-02 10962   0.855E-02 0.540E-03
CGA:   8    -0.355233490135E+03   -0.20112E-02   -0.20285E-02 10962   0.309E-02 0.145E-03
CGA:   9    -0.355234264162E+03   -0.77403E-03   -0.79291E-03 10962   0.116E-02 0.205E-03
CGA:  10    -0.355234593030E+03   -0.32887E-03   -0.32580E-03 10962   0.394E-03-0.405E-04
CGA:  11    -0.355234707374E+03   -0.11434E-03   -0.11277E-03 10962   0.144E-03-0.401E-04
CGA:  12    -0.355234747517E+03   -0.40143E-04   -0.39490E-04 10962   0.573E-04-0.234E-04
CGA:  13    -0.355234785877E+03   -0.38360E-04    0.39312E-04 10962   0.257E-04-0.529E-05
CGA:  14    -0.355234791645E+03   -0.57682E-05   -0.61594E-05 10962   0.115E-04 0.566E-05
CGA:  15    -0.355234802815E+03   -0.11170E-04    0.10867E-04 10962   0.697E-05 0.108E-05
CGA:  16    -0.355234804743E+03   -0.19277E-05   -0.20878E-05 10962   0.359E-05 0.287E-05
  34 F= -.35523480E+03 E0= -.35523480E+03  d E =-.324007E+00  mag=     8.0000
       N       E                     dE             d eps       ncg     rms          ort
SDA:   1    -0.354514094420E+03    0.72071E+00    0.00000E+00 10962   0.187E+01 0.000E+00
CGA:   2    -0.355079270342E+03   -0.56518E+00   -0.56531E+00 10962   0.764E+00 0.410E-02
CGA:   3    -0.355210747044E+03   -0.13148E+00   -0.13177E+00 10962   0.344E+00 0.150E-02
CGA:   4    -0.355261740580E+03   -0.50994E-01   -0.51037E-01 10962   0.781E-01 0.238E-03
CGA:   5    -0.355275588173E+03   -0.13848E-01   -0.13777E-01 10962   0.253E-01-0.582E-03
CGA:   6    -0.355280459965E+03   -0.48718E-02   -0.48918E-02 10962   0.970E-02 0.182E-03
CGA:   7    -0.355282510274E+03   -0.20503E-02   -0.21029E-02 10962   0.400E-02 0.666E-03
CGA:   8    -0.355283437842E+03   -0.92757E-03   -0.95662E-03 10962   0.140E-02 0.439E-03
CGA:   9    -0.355283817995E+03   -0.38015E-03   -0.38674E-03 10962   0.571E-03 0.175E-03
CGA:  10    -0.355283980070E+03   -0.16207E-03   -0.16300E-03 10962   0.184E-03 0.294E-04
CGA:  11    -0.355284046024E+03   -0.65954E-04   -0.72244E-04 10962   0.125E-03-0.697E-04
CGA:  12    -0.355284066316E+03   -0.20292E-04   -0.19690E-04 10962   0.478E-04-0.178E-04
CGA:  13    -0.355283713774E+03    0.35254E-03   -0.19039E-03 10962   0.177E-02-0.275E-03
CGA:  14    -0.355284079818E+03   -0.36604E-03   -0.38692E-03 10962   0.131E-03 0.682E-04
CGA:  15    -0.355284127698E+03   -0.47880E-04   -0.43484E-04 10962   0.501E-04-0.235E-04
CGA:  16    -0.355284120406E+03    0.72921E-05   -0.36897E-05 10962   0.264E-04 0.269E-04
  35 F= -.35528412E+03 E0= -.35528412E+03  d E =-.493157E-01  mag=     8.0000
       N       E                     dE             d eps       ncg     rms          ort
SDA:   1    -0.355131514526E+03    0.15261E+00    0.00000E+00 10962   0.428E+00 0.000E+00
CGA:   2    -0.355241708556E+03   -0.11019E+00   -0.11057E+00 10962   0.222E+00 0.153E-02
CGA:   3    -0.355274900000E+03   -0.33191E-01   -0.33307E-01 10962   0.810E-01 0.433E-03
CGA:   4    -0.355288109365E+03   -0.13209E-01   -0.13206E-01 10962   0.233E-01-0.323E-04
CGA:   5    -0.355291998771E+03   -0.38894E-02   -0.38541E-02 10962   0.603E-02-0.153E-03
CGA:   6    -0.355293131686E+03   -0.11329E-02   -0.11303E-02 10962   0.233E-02-0.143E-04
CGA:   7    -0.355293563378E+03   -0.43169E-03   -0.47627E-03 10962   0.853E-03 0.233E-03
CGA:   8    -0.355293699259E+03   -0.13588E-03   -0.18137E-03 10962   0.291E-03 0.236E-03
CGA:   9    -0.355293759058E+03   -0.59799E-04   -0.76672E-04 10962   0.124E-03 0.993E-04
CGA:  10    -0.355293791944E+03   -0.32886E-04   -0.38274E-04 10962   0.477E-04 0.392E-04
CGA:  11    -0.355293807778E+03   -0.15834E-04   -0.16507E-04 10962   0.179E-04 0.681E-05
CGA:  12    -0.355293588417E+03    0.21936E-03   -0.11840E-03 10962   0.977E-03-0.138E-03
CGA:  13    -0.355293738652E+03   -0.15023E-03   -0.18492E-03 10962   0.138E-03 0.748E-04
CGA:  14    -0.355293826848E+03   -0.88196E-04   -0.78856E-04 10962   0.204E-03-0.953E-04
CGA:  15    -0.355293806510E+03    0.20338E-04   -0.22335E-04 10962   0.482E-04 0.831E-04
CGA:  16    -0.355293801698E+03    0.48114E-05   -0.81072E-05 10962   0.193E-04 0.271E-04
  36 F= -.35529380E+03 E0= -.35529380E+03  d E =-.968129E-02  mag=     8.0000
       N       E                     dE             d eps       ncg     rms          ort
SDA:   1    -0.355236007410E+03    0.57799E-01    0.00000E+00 10962   0.179E+00 0.000E+00
CGA:   2    -0.355278466222E+03   -0.42459E-01   -0.42679E-01 10962   0.109E+00 0.569E-03
CGA:   3    -0.355295691614E+03   -0.17225E-01   -0.17207E-01 10962   0.377E-01-0.770E-05
CGA:   4    -0.355301403246E+03   -0.57116E-02   -0.56561E-02 10962   0.925E-02-0.150E-03
CGA:   5    -0.355303014540E+03   -0.16113E-02   -0.15946E-02 10962   0.279E-02-0.522E-04
CGA:   6    -0.355303557208E+03   -0.54267E-03   -0.52768E-03 10962   0.967E-03-0.491E-04
CGA:   7    -0.355303744671E+03   -0.18746E-03   -0.19357E-03 10962   0.369E-03 0.216E-04
CGA:   8    -0.355303813887E+03   -0.69216E-04   -0.82718E-04 10962   0.128E-03 0.538E-04
CGA:   9    -0.355303852054E+03   -0.38167E-04   -0.38289E-04 10962   0.586E-04 0.604E-06
CGA:  10    -0.355303868976E+03   -0.16922E-04   -0.16421E-04 10962   0.229E-04-0.298E-05
CGA:  11    -0.355303877976E+03   -0.89995E-05   -0.83188E-05 10962   0.187E-04-0.119E-04
  37 F= -.35530388E+03 E0= -.35530388E+03  d E =-.100763E-01  mag=     8.0000
       N       E                     dE             d eps       ncg     rms          ort
SDA:   1    -0.355289360703E+03    0.14508E-01    0.00000E+00 10962   0.460E-01 0.000E+00
CGA:   2    -0.355298054440E+03   -0.86937E-02   -0.87328E-02 10962   0.269E-01 0.144E-03
CGA:   3    -0.355302772153E+03   -0.47177E-02   -0.47162E-02 10962   0.109E-01-0.119E-04
CGA:   4    -0.355304350161E+03   -0.15780E-02   -0.15674E-02 10962   0.222E-02-0.441E-04
CGA:   5    -0.355304702234E+03   -0.35207E-03   -0.35279E-03 10962   0.613E-03 0.240E-05
CGA:   6    -0.355304822026E+03   -0.11979E-03   -0.11764E-03 10962   0.214E-03-0.119E-04
CGA:   7    -0.355304866644E+03   -0.44617E-04   -0.43371E-04 10962   0.740E-04-0.789E-05
CGA:   8    -0.355304883166E+03   -0.16523E-04   -0.16727E-04 10962   0.288E-04 0.163E-05
CGA:   9    -0.355304892855E+03   -0.96887E-05   -0.94543E-05 10962   0.180E-04-0.757E-05
  38 F= -.35530489E+03 E0= -.35530489E+03  d E =-.101488E-02  mag=     8.0000
       N       E                     dE             d eps       ncg     rms          ort
SDA:   1    -0.355283110099E+03    0.21773E-01    0.00000E+00 10962   0.738E-01 0.000E+00
CGA:   2    -0.355295333069E+03   -0.12223E-01   -0.12252E-01 10962   0.378E-01 0.119E-03
CGA:   3    -0.355302352209E+03   -0.70191E-02   -0.70209E-02 10962   0.174E-01-0.122E-06
CGA:   4    -0.355304846648E+03   -0.24944E-02   -0.24937E-02 10962   0.314E-02-0.855E-05
CGA:   5    -0.355305317950E+03   -0.47130E-03   -0.47595E-03 10962   0.792E-03 0.267E-04
CGA:   6    -0.355305468309E+03   -0.15036E-03   -0.15046E-03 10962   0.264E-03 0.530E-06
CGA:   7    -0.355305520160E+03   -0.51852E-04   -0.51839E-04 10962   0.753E-04-0.240E-06
CGA:   8    -0.355305535578E+03   -0.15417E-04   -0.15911E-04 10962   0.263E-04 0.562E-05
CGA:   9    -0.355305543724E+03   -0.81465E-05   -0.81374E-05 10962   0.134E-04-0.138E-05
  39 F= -.35530554E+03 E0= -.35530554E+03  d E =-.650869E-03  mag=     8.0000
       N       E                     dE             d eps       ncg     rms          ort
SDA:   1    -0.355185060163E+03    0.12048E+00    0.00000E+00 10962   0.398E+00 0.000E+00
CGA:   2    -0.355251335213E+03   -0.66275E-01   -0.66331E-01 10962   0.205E+00 0.128E-03
CGA:   3    -0.355289569936E+03   -0.38235E-01   -0.38204E-01 10962   0.938E-01-0.371E-03
CGA:   4    -0.355302879854E+03   -0.13310E-01   -0.13302E-01 10962   0.167E-01-0.764E-04
CGA:   5    -0.355305396992E+03   -0.25171E-02   -0.25425E-02 10962   0.424E-02 0.204E-03
CGA:   6    -0.355306180509E+03   -0.78352E-03   -0.79018E-03 10962   0.136E-02 0.790E-04
CGA:   7    -0.355306459771E+03   -0.27926E-03   -0.27778E-03 10962   0.399E-03-0.247E-04
CGA:   8    -0.355306557443E+03   -0.97671E-04   -0.97199E-04 10962   0.181E-03-0.417E-04
CGA:   9    -0.355306606943E+03   -0.49501E-04   -0.53957E-04 10962   0.127E-03-0.598E-04
CGA:  10    -0.355306623552E+03   -0.16608E-04   -0.17002E-04 10962   0.457E-04 0.626E-05
CGA:  11    -0.355306629763E+03   -0.62113E-05   -0.76418E-05 10962   0.179E-04 0.143E-04
  40 F= -.35530663E+03 E0= -.35530663E+03  d E =-.108604E-02  mag=     8.0000
       N       E                     dE             d eps       ncg     rms          ort
SDA:   1    -0.355023508518E+03    0.28312E+00    0.00000E+00 10962   0.803E+00 0.000E+00
CGA:   2    -0.355190507204E+03   -0.16700E+00   -0.16704E+00 10962   0.512E+00 0.556E-03
CGA:   3    -0.355276262686E+03   -0.85755E-01   -0.85719E-01 10962   0.174E+00-0.552E-03
CGA:   4    -0.355299979489E+03   -0.23717E-01   -0.23712E-01 10962   0.313E-01-0.860E-04
CGA:   5    -0.355304872876E+03   -0.48934E-02   -0.49212E-02 10962   0.842E-02 0.332E-03
CGA:   6    -0.355306441810E+03   -0.15689E-02   -0.15745E-02 10962   0.264E-02 0.112E-03
CGA:   7    -0.355306972009E+03   -0.53020E-03   -0.52968E-03 10962   0.803E-03-0.170E-04
CGA:   8    -0.355307168038E+03   -0.19603E-03   -0.19651E-03 10962   0.366E-03-0.288E-04
CGA:   9    -0.355307274406E+03   -0.10637E-03   -0.11180E-03 10962   0.219E-03-0.631E-04
CGA:  10    -0.355307317260E+03   -0.42855E-04   -0.42831E-04 10962   0.786E-04 0.162E-04
CGA:  11    -0.355307335808E+03   -0.18548E-04   -0.18750E-04 10962   0.277E-04 0.158E-04
CGA:  12    -0.355307342685E+03   -0.68763E-05   -0.70680E-05 10962   0.120E-04 0.884E-05
  41 F= -.35530734E+03 E0= -.35530734E+03  d E =-.712922E-03  mag=     8.0000
       N       E                     dE             d eps       ncg     rms          ort
SDA:   1    -0.354372894903E+03    0.93444E+00    0.00000E+00 10962   0.251E+01 0.000E+00
CGA:   2    -0.354951041898E+03   -0.57815E+00   -0.57815E+00 10962   0.167E+01 0.162E-02
CGA:   3    -0.355215362164E+03   -0.26432E+00   -0.26426E+00 10962   0.506E+00-0.984E-03
CGA:   4    -0.355284109957E+03   -0.68748E-01   -0.68752E-01 10962   0.951E-01-0.365E-04
CGA:   5    -0.355299329246E+03   -0.15219E-01   -0.15266E-01 10962   0.265E-01 0.694E-03
CGA:   6    -0.355304221476E+03   -0.48922E-02   -0.49015E-02 10962   0.815E-02 0.243E-03
CGA:   7    -0.355305851033E+03   -0.16296E-02   -0.16291E-02 10962   0.255E-02-0.276E-04
CGA:   8    -0.355306476292E+03   -0.62526E-03   -0.62656E-03 10962   0.116E-02-0.462E-04
CGA:   9    -0.355306804853E+03   -0.32856E-03   -0.33596E-03 10962   0.603E-03-0.979E-04
CGA:  10    -0.355306951110E+03   -0.14626E-03   -0.14524E-03 10962   0.224E-03 0.252E-04
CGA:  11    -0.355307012599E+03   -0.61489E-04   -0.60772E-04 10962   0.787E-04 0.197E-04
CGA:  12    -0.355307036613E+03   -0.24014E-04   -0.23429E-04 10962   0.352E-04 0.124E-04
CGA:  13    -0.355307053391E+03   -0.16777E-04   -0.18090E-04 10962   0.331E-04-0.615E-05
CGA:  14    -0.355307062127E+03   -0.87361E-05   -0.16981E-04 10962   0.469E-04-0.217E-04
  42 F= -.35530706E+03 E0= -.35530706E+03  d E =0.280558E-03  mag=     8.0000
       N       E                     dE             d eps       ncg     rms          ort
SDA:   1    -0.355210469654E+03    0.96584E-01    0.00000E+00 10962   0.328E+00 0.000E+00
CGA:   2    -0.355264735908E+03   -0.54266E-01   -0.54271E-01 10962   0.164E+00-0.118E-03
CGA:   3    -0.355295124778E+03   -0.30389E-01   -0.30366E-01 10962   0.754E-01-0.414E-03
CGA:   4    -0.355306117052E+03   -0.10992E-01   -0.10975E-01 10962   0.152E-01-0.196E-03
CGA:   5    -0.355308477001E+03   -0.23599E-02   -0.23641E-02 10962   0.397E-02 0.426E-04
CGA:   6    -0.355309202841E+03   -0.72584E-03   -0.72801E-03 10962   0.124E-02 0.385E-04
CGA:   7    -0.355309468747E+03   -0.26591E-03   -0.26431E-03 10962   0.419E-03-0.707E-04
CGA:   8    -0.355309574044E+03   -0.10530E-03   -0.11008E-03 10962   0.240E-03-0.105E-03
CGA:   9    -0.355309624082E+03   -0.50038E-04   -0.59628E-04 10962   0.168E-03-0.100E-03
CGA:  10    -0.355309646359E+03   -0.22277E-04   -0.22071E-04 10962   0.590E-04-0.135E-04
CGA:  11    -0.355309652620E+03   -0.62609E-05   -0.80219E-05 10962   0.241E-04 0.192E-04
  43 F= -.35530965E+03 E0= -.35530965E+03  d E =-.259049E-02  mag=     8.0000
       N       E                     dE             d eps       ncg     rms          ort
SDA:   1    -0.355217565199E+03    0.92081E-01    0.00000E+00 10962   0.325E+00 0.000E+00
CGA:   2    -0.355267889558E+03   -0.50324E-01   -0.50385E-01 10962   0.147E+00 0.636E-03
CGA:   3    -0.355295972513E+03   -0.28083E-01   -0.28094E-01 10962   0.749E-01 0.258E-03
CGA:   4    -0.355307176813E+03   -0.11204E-01   -0.11196E-01 10962   0.146E-01-0.141E-03
CGA:   5    -0.355309426008E+03   -0.22492E-02   -0.22368E-02 10962   0.365E-02-0.193E-03
CGA:   6    -0.355310105315E+03   -0.67931E-03   -0.67702E-03 10962   0.123E-02-0.819E-04
CGA:   7    -0.355310331030E+03   -0.22571E-03   -0.22666E-03 10962   0.331E-03 0.355E-04
CGA:   8    -0.355310388097E+03   -0.57067E-04   -0.60008E-04 10962   0.101E-03 0.783E-04
CGA:   9    -0.355310408577E+03   -0.20480E-04   -0.22074E-04 10962   0.416E-04 0.446E-04
CGA:  10    -0.355310420830E+03   -0.12253E-04   -0.12328E-04 10962   0.212E-04 0.182E-04
CGA:  11    -0.355310429215E+03   -0.83851E-05   -0.80273E-05 10962   0.119E-04 0.671E-05
  44 F= -.35531043E+03 E0= -.35531043E+03  d E =-.776596E-03  mag=     8.0000
       N       E                     dE             d eps       ncg     rms          ort
SDA:   1    -0.355211782600E+03    0.98638E-01    0.00000E+00 10962   0.240E+00 0.000E+00
CGA:   2    -0.355284147997E+03   -0.72365E-01   -0.72344E-01 10962   0.145E+00 0.191E-03
CGA:   3    -0.355304121188E+03   -0.19973E-01   -0.19971E-01 10962   0.362E-01-0.519E-04
CGA:   4    -0.355309199124E+03   -0.50779E-02   -0.50763E-02 10962   0.784E-02-0.313E-04
CGA:   5    -0.355310504996E+03   -0.13059E-02   -0.13079E-02 10962   0.220E-02 0.443E-04
CGA:   6    -0.355310900652E+03   -0.39566E-03   -0.39648E-03 10962   0.637E-03 0.270E-04
CGA:   7    -0.355311022628E+03   -0.12198E-03   -0.12244E-03 10962   0.192E-03 0.265E-04
CGA:   8    -0.355311071276E+03   -0.48648E-04   -0.48286E-04 10962   0.823E-04 0.106E-04
CGA:   9    -0.355311097985E+03   -0.26709E-04   -0.27955E-04 10962   0.522E-04-0.110E-04
CGA:  10    -0.355311108760E+03   -0.10776E-04   -0.10700E-04 10962   0.181E-04 0.342E-05
CGA:  11    -0.355311113075E+03   -0.43149E-05   -0.42972E-05 10962   0.587E-05 0.248E-05
  45 F= -.35531111E+03 E0= -.35531111E+03  d E =-.683860E-03  mag=     8.0000
       N       E                     dE             d eps       ncg     rms          ort
SDA:   1    -0.334333458265E+03    0.20978E+02    0.00000E+00 10962   0.631E+02 0.000E+00
CGA:   2    -0.346143463228E+03   -0.11810E+02   -0.11832E+02 10962   0.351E+02 0.322E+00
CGA:   3    -0.352409573830E+03   -0.62661E+01   -0.62652E+01 10962   0.138E+02-0.130E-02
CGA:   4    -0.354368750502E+03   -0.19592E+01   -0.19585E+01 10962   0.276E+01 0.218E-02
CGA:   5    -0.354807387311E+03   -0.43864E+00   -0.43939E+00 10962   0.737E+00 0.862E-02
CGA:   6    -0.354945854158E+03   -0.13847E+00   -0.13855E+00 10962   0.241E+00 0.424E-02
CGA:   7    -0.354993965900E+03   -0.48112E-01   -0.48122E-01 10962   0.782E-01 0.159E-02
CGA:   8    -0.355012361066E+03   -0.18395E-01   -0.18313E-01 10962   0.316E-01 0.290E-02
CGA:   9    -0.355021325127E+03   -0.89641E-02   -0.89669E-02 10962   0.144E-01-0.511E-04
CGA:  10    -0.355025355701E+03   -0.40306E-02   -0.40131E-02 10962   0.589E-02 0.248E-03
CGA:  11    -0.355026981182E+03   -0.16255E-02   -0.16011E-02 10962   0.218E-02 0.446E-03
CGA:  12    -0.355027758503E+03   -0.77732E-03   -0.78940E-03 10962   0.117E-02-0.101E-03
CGA:  13    -0.355028049455E+03   -0.29095E-03   -0.28175E-03 10962   0.531E-03 0.296E-03
CGA:  14    -0.355028306316E+03   -0.25686E-03   -0.27097E-03 10962   0.462E-03-0.774E-04
CGA:  15    -0.355028441274E+03   -0.13496E-03   -0.14036E-03 10962   0.308E-03-0.445E-04
CGA:  16    -0.355028499869E+03   -0.58594E-04   -0.60141E-04 10962   0.144E-03 0.676E-04
CGA:  17    -0.355028547894E+03   -0.48026E-04   -0.48147E-04 10962   0.637E-04-0.352E-05
CGA:  18    -0.355028371319E+03    0.17658E-03   -0.96796E-04 10962   0.827E-03-0.214E-03
CGA:  19    -0.355028558962E+03   -0.18764E-03   -0.21232E-03 10962   0.122E-03 0.137E-03
CGA:  20    -0.355028714001E+03   -0.15504E-03    0.11149E-03 10962   0.115E-03-0.536E-04
CGA:  21    -0.355028701263E+03    0.12738E-04   -0.32002E-05 10962   0.796E-04 0.422E-04
CGA:  22    -0.355028680141E+03    0.21122E-04   -0.41759E-05 10962   0.400E-04 0.683E-04
CGA:  23    -0.355028671217E+03    0.89238E-05   -0.19410E-05 10962   0.257E-04 0.318E-04
  46 F= -.35502867E+03 E0= -.35502867E+03  d E =0.282442E+00  mag=     8.0000
       N       E                     dE             d eps       ncg     rms          ort
SDA:   1    -0.352302031364E+03    0.27266E+01    0.00000E+00 10962   0.709E+01 0.000E+00
CGA:   2    -0.354370145092E+03   -0.20681E+01   -0.20672E+01 10962   0.353E+01-0.834E-02
CGA:   3    -0.354930949274E+03   -0.56080E+00   -0.56054E+00 10962   0.135E+01 0.213E-02
CGA:   4    -0.355134091340E+03   -0.20314E+00   -0.20328E+00 10962   0.332E+00-0.494E-03
CGA:   5    -0.355192567005E+03   -0.58476E-01   -0.58459E-01 10962   0.110E+00-0.327E-03
CGA:   6    -0.355213919591E+03   -0.21353E-01   -0.21310E-01 10962   0.384E-01-0.284E-03
CGA:   7    -0.355222585848E+03   -0.86663E-02   -0.86313E-02 10962   0.180E-01-0.368E-03
CGA:   8    -0.355226938813E+03   -0.43530E-02   -0.43338E-02 10962   0.657E-02-0.270E-03
CGA:   9    -0.355228601394E+03   -0.16626E-02   -0.16580E-02 10962   0.265E-02-0.847E-04
CGA:  10    -0.355229277609E+03   -0.67622E-03   -0.67531E-03 10962   0.803E-03-0.182E-04
CGA:  11    -0.355229478942E+03   -0.20133E-03   -0.20350E-03 10962   0.251E-03 0.424E-04
CGA:  12    -0.355229551201E+03   -0.72259E-04   -0.72544E-04 10962   0.862E-04 0.955E-05
CGA:  13    -0.355229570733E+03   -0.19532E-04   -0.21190E-04 10962   0.324E-04 0.253E-04
CGA:  14    -0.355229578035E+03   -0.73022E-05   -0.88091E-05 10962   0.157E-04 0.170E-04
CGA:  15    -0.355229586883E+03   -0.88485E-05   -0.10958E-04 10962   0.278E-04-0.528E-05
  47 F= -.35522959E+03 E0= -.35522959E+03  d E =-.200916E+00  mag=     8.0000
       N       E                     dE             d eps       ncg     rms          ort
SDA:   1    -0.355135576550E+03    0.94001E-01    0.00000E+00 10962   0.310E+00 0.000E+00
CGA:   2    -0.355227408319E+03   -0.91832E-01   -0.91831E-01 10962   0.144E+00-0.189E-03
CGA:   3    -0.355250766894E+03   -0.23359E-01   -0.23385E-01 10962   0.562E-01 0.145E-03
CGA:   4    -0.355258951995E+03   -0.81851E-02   -0.82098E-02 10962   0.134E-01 0.143E-03
CGA:   5    -0.355261338414E+03   -0.23864E-02   -0.23936E-02 10962   0.453E-02 0.615E-04
CGA:   6    -0.355262196138E+03   -0.85772E-03   -0.85766E-03 10962   0.155E-02-0.960E-06
CGA:   7    -0.355262534526E+03   -0.33839E-03   -0.33929E-03 10962   0.697E-03 0.144E-04
CGA:   8    -0.355262706746E+03   -0.17222E-03   -0.17237E-03 10962   0.254E-03 0.455E-05
CGA:   9    -0.355262778618E+03   -0.71871E-04   -0.71992E-04 10962   0.124E-03-0.231E-04
CGA:  10    -0.355262804611E+03   -0.25994E-04   -0.26208E-04 10962   0.337E-04 0.484E-05
CGA:  11    -0.355262815543E+03   -0.10931E-04   -0.11322E-04 10962   0.176E-04-0.814E-05
CGA:  12    -0.355262818989E+03   -0.34458E-05   -0.34319E-05 10962   0.677E-05-0.675E-06
  48 F= -.35526282E+03 E0= -.35526282E+03  d E =-.332321E-01  mag=     8.0000
       N       E                     dE             d eps       ncg     rms          ort
SDA:   1    -0.355089353039E+03    0.17346E+00    0.00000E+00 10962   0.517E+00 0.000E+00
CGA:   2    -0.355205593550E+03   -0.11624E+00   -0.11625E+00 10962   0.317E+00-0.106E-03
CGA:   3    -0.355255741129E+03   -0.50148E-01   -0.50154E-01 10962   0.107E+00 0.582E-05
CGA:   4    -0.355271225421E+03   -0.15484E-01   -0.15517E-01 10962   0.239E-01 0.230E-03
CGA:   5    -0.355275156238E+03   -0.39308E-02   -0.39534E-02 10962   0.683E-02 0.218E-03
CGA:   6    -0.355276444679E+03   -0.12884E-02   -0.12895E-02 10962   0.219E-02 0.131E-04
CGA:   7    -0.355276900120E+03   -0.45544E-03   -0.45456E-03 10962   0.819E-03-0.187E-04
CGA:   8    -0.355277101944E+03   -0.20182E-03   -0.20184E-03 10962   0.342E-03 0.337E-05
CGA:   9    -0.355277198559E+03   -0.96615E-04   -0.97613E-04 10962   0.164E-03-0.326E-04
CGA:  10    -0.355277235195E+03   -0.36637E-04   -0.36697E-04 10962   0.528E-04 0.774E-05
CGA:  11    -0.355277251647E+03   -0.16452E-04   -0.16702E-04 10962   0.231E-04-0.528E-05
CGA:  12    -0.355277258195E+03   -0.65476E-05   -0.66776E-05 10962   0.116E-04-0.205E-05
  49 F= -.35527726E+03 E0= -.35527726E+03  d E =-.144392E-01  mag=     8.0000
       N       E                     dE             d eps       ncg     rms          ort
SDA:   1    -0.355202093888E+03    0.75158E-01    0.00000E+00 10962   0.250E+00 0.000E+00
CGA:   2    -0.355249705178E+03   -0.47611E-01   -0.47621E-01 10962   0.144E+00-0.144E-04
CGA:   3    -0.355274402757E+03   -0.24698E-01   -0.24697E-01 10962   0.552E-01-0.452E-04
CGA:   4    -0.355282218920E+03   -0.78162E-02   -0.78334E-02 10962   0.110E-01 0.132E-03
CGA:   5    -0.355283931020E+03   -0.17121E-02   -0.17281E-02 10962   0.284E-02 0.160E-03
CGA:   6    -0.355284461823E+03   -0.53080E-03   -0.53164E-03 10962   0.882E-03 0.120E-04
CGA:   7    -0.355284644180E+03   -0.18236E-03   -0.18139E-03 10962   0.295E-03-0.237E-04
CGA:   8    -0.355284713103E+03   -0.68923E-04   -0.68899E-04 10962   0.126E-03-0.616E-05
CGA:   9    -0.355284751438E+03   -0.38335E-04   -0.40853E-04 10962   0.828E-04-0.293E-04
CGA:  10    -0.355284766007E+03   -0.14569E-04   -0.14634E-04 10962   0.309E-04 0.360E-05
CGA:  11    -0.355284773014E+03   -0.70072E-05   -0.71337E-05 10962   0.114E-04 0.479E-05
  50 F= -.35528477E+03 E0= -.35528477E+03  d E =-.751482E-02  mag=     8.0000
       N       E                     dE             d eps       ncg     rms          ort
SDA:   1    -0.354599860910E+03    0.68491E+00    0.00000E+00 10962   0.219E+01 0.000E+00
CGA:   2    -0.354995519189E+03   -0.39566E+00   -0.39592E+00 10962   0.120E+01 0.199E-02
CGA:   3    -0.355207016420E+03   -0.21150E+00   -0.21147E+00 10962   0.488E+00-0.555E-03
CGA:   4    -0.355276669115E+03   -0.69653E-01   -0.69659E-01 10962   0.966E-01-0.170E-05
CGA:   5    -0.355291664354E+03   -0.14995E-01   -0.15051E-01 10962   0.248E-01 0.651E-03
CGA:   6    -0.355296216423E+03   -0.45521E-02   -0.45574E-02 10962   0.778E-02 0.102E-03
CGA:   7    -0.355297772246E+03   -0.15558E-02   -0.15546E-02 10962   0.241E-02-0.445E-04
CGA:   8    -0.355298316527E+03   -0.54428E-03   -0.54428E-03 10962   0.945E-03 0.776E-04
CGA:   9    -0.355298596393E+03   -0.27987E-03   -0.28355E-03 10962   0.484E-03-0.581E-04
CGA:  10    -0.355298717779E+03   -0.12139E-03   -0.12060E-03 10962   0.196E-03 0.223E-04
CGA:  11    -0.355298772264E+03   -0.54486E-04   -0.53827E-04 10962   0.729E-04 0.211E-04
CGA:  12    -0.355298799159E+03   -0.26894E-04   -0.27213E-04 10962   0.422E-04-0.313E-05
CGA:  13    -0.355298808542E+03   -0.93838E-05   -0.94441E-05 10962   0.195E-04 0.128E-04
CGA:  14    -0.355298818121E+03   -0.95787E-05   -0.11280E-04 10962   0.233E-04-0.833E-05
  51 F= -.35529882E+03 E0= -.35529882E+03  d E =-.140451E-01  mag=     8.0000
       N       E                     dE             d eps       ncg     rms          ort
SDA:   1    -0.354465126319E+03    0.83368E+00    0.00000E+00 10962   0.258E+01 0.000E+00
CGA:   2    -0.354948252157E+03   -0.48313E+00   -0.48344E+00 10962   0.145E+01 0.241E-02
CGA:   3    -0.355200174314E+03   -0.25192E+00   -0.25188E+00 10962   0.569E+00-0.744E-03
CGA:   4    -0.355280669944E+03   -0.80496E-01   -0.80492E-01 10962   0.111E+00-0.115E-03
CGA:   5    -0.355297975247E+03   -0.17305E-01   -0.17366E-01 10962   0.286E-01 0.684E-03
CGA:   6    -0.355303251738E+03   -0.52765E-02   -0.52870E-02 10962   0.899E-02 0.201E-03
CGA:   7    -0.355305034700E+03   -0.17830E-02   -0.17837E-02 10962   0.276E-02 0.188E-04
CGA:   8    -0.355305670397E+03   -0.63570E-03   -0.63560E-03 10962   0.112E-02 0.850E-04
CGA:   9    -0.355306008456E+03   -0.33806E-03   -0.34369E-03 10962   0.608E-03-0.811E-04
CGA:  10    -0.355306162260E+03   -0.15380E-03   -0.15313E-03 10962   0.254E-03 0.173E-04
CGA:  11    -0.355306231458E+03   -0.69199E-04   -0.68456E-04 10962   0.940E-04 0.265E-04
CGA:  12    -0.355306263601E+03   -0.32142E-04   -0.31759E-04 10962   0.475E-04 0.542E-05
CGA:  13    -0.355306277725E+03   -0.14124E-04   -0.13704E-04 10962   0.231E-04 0.125E-04
CGA:  14    -0.355306279922E+03   -0.21975E-05   -0.25996E-04 10962   0.105E-03-0.368E-04
CGA:  15    -0.355306295626E+03   -0.15703E-04   -0.18387E-04 10962   0.131E-04 0.273E-04
CGA:  16    -0.355306300220E+03   -0.45944E-05   -0.45947E-05 10962   0.397E-05-0.559E-07
  52 F= -.35530630E+03 E0= -.35530630E+03  d E =-.748210E-02  mag=     8.0000
       N       E                     dE             d eps       ncg     rms          ort
SDA:   1    -0.354341964130E+03    0.96433E+00    0.00000E+00 10962   0.324E+01 0.000E+00
CGA:   2    -0.354879409749E+03   -0.53745E+00   -0.53816E+00 10962   0.161E+01 0.279E-02
CGA:   3    -0.355173302023E+03   -0.29389E+00   -0.29385E+00 10962   0.730E+00-0.882E-03
CGA:   4    -0.355279258253E+03   -0.10596E+00   -0.10593E+00 10962   0.144E+00-0.306E-03
CGA:   5    -0.355301195740E+03   -0.21937E-01   -0.22023E-01 10962   0.357E-01 0.826E-03
CGA:   6    -0.355307727977E+03   -0.65322E-02   -0.65542E-02 10962   0.113E-01 0.358E-03
CGA:   7    -0.355309976806E+03   -0.22488E-02   -0.22533E-02 10962   0.333E-02 0.103E-03
CGA:   8    -0.355310701711E+03   -0.72491E-03   -0.72853E-03 10962   0.121E-02 0.183E-03
CGA:   9    -0.355311059571E+03   -0.35786E-03   -0.35820E-03 10962   0.597E-03-0.823E-05
CGA:  10    -0.355311220639E+03   -0.16107E-03   -0.15974E-03 10962   0.253E-03 0.414E-04
CGA:  11    -0.355311283744E+03   -0.63105E-04   -0.63422E-04 10962   0.952E-04 0.635E-04
CGA:  12    -0.355311317017E+03   -0.33273E-04   -0.32537E-04 10962   0.474E-04 0.213E-04
CGA:  13    -0.355311332608E+03   -0.15591E-04   -0.15219E-04 10962   0.247E-04 0.169E-04
CGA:  14    -0.355311346278E+03   -0.13671E-04   -0.13751E-04 10962   0.211E-04-0.593E-06
CGA:  15    -0.355311349565E+03   -0.32866E-05   -0.14983E-04 10962   0.470E-04-0.247E-04
  53 F= -.35531135E+03 E0= -.35531135E+03  d E =-.504934E-02  mag=     8.0000
       N       E                     dE             d eps       ncg     rms          ort
SDA:   1    -0.355273460351E+03    0.37886E-01    0.00000E+00 10962   0.133E+00 0.000E+00
CGA:   2    -0.355294868089E+03   -0.21408E-01   -0.21433E-01 10962   0.652E-01 0.163E-03
CGA:   3    -0.355307134795E+03   -0.12267E-01   -0.12265E-01 10962   0.314E-01-0.434E-04
CGA:   4    -0.355311727897E+03   -0.45931E-02   -0.45906E-02 10962   0.605E-02-0.295E-04
CGA:   5    -0.355312635289E+03   -0.90739E-03   -0.91452E-03 10962   0.148E-02 0.679E-04
CGA:   6    -0.355312901550E+03   -0.26626E-03   -0.26895E-03 10962   0.462E-03 0.390E-04
CGA:   7    -0.355312995148E+03   -0.93598E-04   -0.93929E-04 10962   0.135E-03 0.700E-05
CGA:   8    -0.355313025683E+03   -0.30535E-04   -0.30584E-04 10962   0.495E-04 0.264E-05
CGA:   9    -0.355313041033E+03   -0.15351E-04   -0.16378E-04 10962   0.321E-04-0.123E-04
CGA:  10    -0.355313045642E+03   -0.46086E-05   -0.47686E-05 10962   0.117E-04 0.336E-05
  54 F= -.35531305E+03 E0= -.35531305E+03  d E =-.169608E-02  mag=     8.0000
       N       E                     dE             d eps       ncg     rms          ort
SDA:   1    -0.355301710028E+03    0.11331E-01    0.00000E+00 10962   0.358E-01 0.000E+00
CGA:   2    -0.355308346704E+03   -0.66367E-02   -0.66421E-02 10962   0.205E-01 0.890E-04
CGA:   3    -0.355311979561E+03   -0.36329E-02   -0.36286E-02 10962   0.807E-02-0.786E-04
CGA:   4    -0.355313128535E+03   -0.11490E-02   -0.11437E-02 10962   0.163E-02-0.610E-04
CGA:   5    -0.355313387975E+03   -0.25944E-03   -0.25921E-03 10962   0.441E-03-0.401E-05
CGA:   6    -0.355313465657E+03   -0.77681E-04   -0.77969E-04 10962   0.127E-03 0.601E-05
CGA:   7    -0.355313490906E+03   -0.25249E-04   -0.25298E-04 10962   0.392E-04 0.189E-05
CGA:   8    -0.355313500405E+03   -0.94991E-05   -0.95003E-05 10962   0.160E-04-0.716E-07
  55 F= -.35531350E+03 E0= -.35531350E+03  d E =-.454763E-03  mag=     8.0000
       N       E                     dE             d eps       ncg     rms          ort
SDA:   1    -0.355269573777E+03    0.43917E-01    0.00000E+00 10962   0.136E+00 0.000E+00
CGA:   2    -0.355294388708E+03   -0.24815E-01   -0.24823E-01 10962   0.769E-01 0.108E-03
CGA:   3    -0.355308034578E+03   -0.13646E-01   -0.13640E-01 10962   0.312E-01-0.145E-03
CGA:   4    -0.355312437274E+03   -0.44027E-02   -0.44014E-02 10962   0.587E-02-0.234E-04
CGA:   5    -0.355313333434E+03   -0.89616E-03   -0.90314E-03 10962   0.148E-02 0.109E-03
CGA:   6    -0.355313597551E+03   -0.26412E-03   -0.26647E-03 10962   0.450E-03 0.637E-04
CGA:   7    -0.355313691917E+03   -0.94366E-04   -0.94471E-04 10962   0.139E-03 0.997E-05
CGA:   8    -0.355313726486E+03   -0.34569E-04   -0.34695E-04 10962   0.623E-04-0.387E-05
CGA:   9    -0.355313745214E+03   -0.18727E-04   -0.21835E-04 10962   0.510E-04-0.211E-04
CGA:  10    -0.355313750943E+03   -0.57296E-05   -0.59752E-05 10962   0.209E-04 0.568E-05
  56 F= -.35531375E+03 E0= -.35531375E+03  d E =-.250538E-03  mag=     8.0000
       N       E                     dE             d eps       ncg     rms          ort
SDA:   1    -0.355135511361E+03    0.17823E+00    0.00000E+00 10962   0.498E+00 0.000E+00
CGA:   2    -0.355243037041E+03   -0.10753E+00   -0.10752E+00 10962   0.317E+00 0.559E-03
CGA:   3    -0.355294761346E+03   -0.51724E-01   -0.51699E-01 10962   0.104E+00-0.567E-03
CGA:   4    -0.355309091363E+03   -0.14330E-01   -0.14313E-01 10962   0.201E-01-0.260E-03
CGA:   5    -0.355312335536E+03   -0.32442E-02   -0.32502E-02 10962   0.552E-02 0.127E-03
CGA:   6    -0.355313336618E+03   -0.10011E-02   -0.10029E-02 10962   0.167E-02 0.727E-04
CGA:   7    -0.355313674986E+03   -0.33837E-03   -0.33837E-03 10962   0.541E-03-0.113E-05
CGA:   8    -0.355313811279E+03   -0.13629E-03   -0.13693E-03 10962   0.255E-03-0.130E-04
CGA:   9    -0.355313886352E+03   -0.75073E-04   -0.80630E-04 10962   0.163E-03-0.474E-04
CGA:  10    -0.355313917952E+03   -0.31600E-04   -0.31348E-04 10962   0.592E-04 0.103E-04
CGA:  11    -0.355313930328E+03   -0.12376E-04   -0.12583E-04 10962   0.207E-04 0.154E-04
CGA:  12    -0.355313935351E+03   -0.50233E-05   -0.51380E-05 10962   0.867E-05 0.744E-05
  57 F= -.35531394E+03 E0= -.35531394E+03  d E =-.184408E-03  mag=     8.0000
       N       E                     dE             d eps       ncg     rms          ort
SDA:   1    -0.354535777941E+03    0.77815E+00    0.00000E+00 10962   0.213E+01 0.000E+00
CGA:   2    -0.355005779046E+03   -0.47000E+00   -0.46997E+00 10962   0.139E+01 0.202E-02
CGA:   3    -0.355228433263E+03   -0.22265E+00   -0.22260E+00 10962   0.438E+00-0.124E-02
CGA:   4    -0.355288748312E+03   -0.60315E-01   -0.60277E-01 10962   0.853E-01-0.652E-03
CGA:   5    -0.355302681813E+03   -0.13934E-01   -0.13945E-01 10962   0.239E-01 0.234E-03
CGA:   6    -0.355307006488E+03   -0.43247E-02   -0.43276E-02 10962   0.721E-02 0.123E-03
CGA:   7    -0.355308448706E+03   -0.14422E-02   -0.14422E-02 10962   0.231E-02-0.200E-04
CGA:   8    -0.355309011139E+03   -0.56243E-03   -0.56205E-03 10962   0.101E-02 0.826E-05
CGA:   9    -0.355309302711E+03   -0.29157E-03   -0.29788E-03 10962   0.530E-03-0.706E-04
CGA:  10    -0.355309440527E+03   -0.13782E-03   -0.13764E-03 10962   0.215E-03 0.229E-05
CGA:  11    -0.355309498817E+03   -0.58290E-04   -0.57581E-04 10962   0.759E-04 0.127E-04
CGA:  12    -0.355309524595E+03   -0.25777E-04   -0.25813E-04 10962   0.377E-04-0.404E-06
CGA:  13    -0.355309535723E+03   -0.11128E-04   -0.10609E-04 10962   0.180E-04 0.820E-05
CGA:  14    -0.355309544920E+03   -0.91968E-05   -0.13072E-04 10962   0.294E-04-0.105E-04
  58 F= -.35530954E+03 E0= -.35530954E+03  d E =0.439043E-02  mag=     8.0000
       N       E                     dE             d eps       ncg     rms          ort
SDA:   1    -0.355110264004E+03    0.19927E+00    0.00000E+00 10962   0.705E+00 0.000E+00
CGA:   2    -0.355220559885E+03   -0.11030E+00   -0.11037E+00 10962   0.327E+00 0.417E-03
CGA:   3    -0.355282001506E+03   -0.61442E-01   -0.61438E-01 10962   0.162E+00-0.175E-03
[...]
CGA:   7    -0.355315544400E+03   -0.14209E-03   -0.14176E-03 10962   0.242E-03 0.294E-04
CGA:   8    -0.355315612433E+03   -0.68032E-04   -0.67966E-04 10962   0.129E-03 0.771E-06
CGA:   9    -0.355315652261E+03   -0.39828E-04   -0.42788E-04 10962   0.878E-04-0.219E-04
CGA:  10    -0.355315670411E+03   -0.18150E-04   -0.18029E-04 10962   0.335E-04 0.268E-05
CGA:  11    -0.355315676056E+03   -0.56452E-05   -0.60041E-05 10962   0.125E-04 0.117E-04
  97 F= -.35531568E+03 E0= -.35531568E+03  d E =0.145830E-03  mag=     8.0000
       N       E                     dE             d eps       ncg     rms          ort
SDA:   1    -0.355279895633E+03    0.35775E-01    0.00000E+00 10962   0.118E+00 0.000E+00
CGA:   2    -0.355300549859E+03   -0.20654E-01   -0.20658E-01 10962   0.603E-01 0.114E-03
CGA:   3    -0.355311159035E+03   -0.10609E-01   -0.10609E-01 10962   0.258E-01-0.329E-04
CGA:   4    -0.355314997064E+03   -0.38380E-02   -0.38379E-02 10962   0.559E-02-0.146E-04
CGA:   5    -0.355315896545E+03   -0.89948E-03   -0.89972E-03 10962   0.149E-02 0.489E-05
CGA:   6    -0.355316161069E+03   -0.26452E-03   -0.26514E-03 10962   0.459E-03 0.394E-04
CGA:   7    -0.355316250442E+03   -0.89373E-04   -0.89480E-04 10962   0.137E-03 0.354E-04
CGA:   8    -0.355316286252E+03   -0.35810E-04   -0.35497E-04 10962   0.582E-04 0.650E-05
CGA:   9    -0.355316304245E+03   -0.17993E-04   -0.19588E-04 10962   0.389E-04-0.126E-04
CGA:  10    -0.355316311838E+03   -0.75925E-05   -0.77033E-05 10962   0.153E-04-0.214E-05
  98 F= -.35531631E+03 E0= -.35531631E+03  d E =-.635781E-03  mag=     8.0000
       N       E                     dE             d eps       ncg     rms          ort
SDA:   1    -0.355302796423E+03    0.13508E-01    0.00000E+00 10962   0.450E-01 0.000E+00
CGA:   2    -0.355310534520E+03   -0.77381E-02   -0.77399E-02 10962   0.228E-01 0.350E-04
CGA:   3    -0.355314604791E+03   -0.40703E-02   -0.40712E-02 10962   0.992E-02 0.343E-04
CGA:   4    -0.355316062473E+03   -0.14577E-02   -0.14591E-02 10962   0.203E-02 0.233E-04
CGA:   5    -0.355316389268E+03   -0.32679E-03   -0.32646E-03 10962   0.537E-03-0.102E-04
CGA:   6    -0.355316489788E+03   -0.10052E-03   -0.10035E-03 10962   0.179E-03-0.229E-04
CGA:   7    -0.355316524355E+03   -0.34567E-04   -0.34637E-04 10962   0.574E-04-0.942E-05
CGA:   8    -0.355316536427E+03   -0.12072E-04   -0.11998E-04 10962   0.210E-04 0.292E-05
CGA:   9    -0.355316541370E+03   -0.49438E-05   -0.48494E-05 10962   0.755E-05 0.407E-05
  99 F= -.35531654E+03 E0= -.35531654E+03  d E =-.229533E-03  mag=     8.0000
       N       E                     dE             d eps       ncg     rms          ort
SDA:   1    -0.355310589167E+03    0.59473E-02    0.00000E+00 10962   0.179E-01 0.000E+00
CGA:   2    -0.355314087377E+03   -0.34982E-02   -0.34983E-02 10962   0.106E-01 0.202E-05
CGA:   3    -0.355315907052E+03   -0.18197E-02   -0.18188E-02 10962   0.395E-02-0.317E-04
CGA:   4    -0.355316455384E+03   -0.54833E-03   -0.54923E-03 10962   0.756E-03 0.137E-04
CGA:   5    -0.355316569909E+03   -0.11452E-03   -0.11591E-03 10962   0.188E-03 0.319E-04
CGA:   6    -0.355316604870E+03   -0.34961E-04   -0.35058E-04 10962   0.567E-04 0.639E-05
CGA:   7    -0.355316617554E+03   -0.12684E-04   -0.12785E-04 10962   0.204E-04-0.403E-05
CGA:   8    -0.355316622573E+03   -0.50189E-05   -0.56056E-05 10962   0.132E-04-0.579E-05
 100 F= -.35531662E+03 E0= -.35531662E+03  d E =-.812024E-04  mag=     8.0000
       N       E                     dE             d eps       ncg     rms          ort
SDA:   1    -0.355169591853E+03    0.14703E+00    0.00000E+00 10962   0.399E+00 0.000E+00
CGA:   2    -0.355263515527E+03   -0.93924E-01   -0.93916E-01 10962   0.239E+00 0.216E-03
CGA:   3    -0.355300264359E+03   -0.36749E-01   -0.36738E-01 10962   0.763E-01-0.227E-03
CGA:   4    -0.355311238153E+03   -0.10974E-01   -0.10967E-01 10962   0.166E-01-0.118E-03
CGA:   5    -0.355313904256E+03   -0.26661E-02   -0.26670E-02 10962   0.438E-02 0.120E-04
CGA:   6    -0.355314692109E+03   -0.78785E-03   -0.78748E-03 10962   0.137E-02-0.139E-04
CGA:   7    -0.355314976969E+03   -0.28486E-03   -0.28491E-03 10962   0.485E-03-0.308E-04
CGA:   8    -0.355315099337E+03   -0.12237E-03   -0.12391E-03 10962   0.235E-03-0.288E-04
CGA:   9    -0.355315164292E+03   -0.64955E-04   -0.68371E-04 10962   0.136E-03-0.345E-04
CGA:  10    -0.355315195867E+03   -0.31575E-04   -0.31926E-04 10962   0.516E-04-0.586E-05
CGA:  11    -0.355315207412E+03   -0.11545E-04   -0.11443E-04 10962   0.168E-04 0.758E-05
CGA:  12    -0.355315210625E+03   -0.32127E-05   -0.35097E-05 10962   0.728E-05 0.798E-05
 101 F= -.35531521E+03 E0= -.35531521E+03  d E =0.141195E-02  mag=     8.0000
       N       E                     dE             d eps       ncg     rms          ort
SDA:   1    -0.354270656232E+03    0.10446E+01    0.00000E+00 10962   0.275E+01 0.000E+00
CGA:   2    -0.354984057486E+03   -0.71340E+00   -0.71317E+00 10962   0.151E+01 0.351E-02
CGA:   3    -0.355215329074E+03   -0.23127E+00   -0.23123E+00 10962   0.495E+00-0.913E-03
CGA:   4    -0.355285975196E+03   -0.70646E-01   -0.70574E-01 10962   0.101E+00-0.120E-02
CGA:   5    -0.355302278994E+03   -0.16304E-01   -0.16283E-01 10962   0.273E-01-0.464E-03
CGA:   6    -0.355307341950E+03   -0.50630E-02   -0.50598E-02 10962   0.867E-02-0.160E-03
CGA:   7    -0.355309110278E+03   -0.17683E-02   -0.17682E-02 10962   0.315E-02-0.116E-03
CGA:   8    -0.355309938006E+03   -0.82773E-03   -0.83305E-03 10962   0.163E-02-0.869E-04
CGA:   9    -0.355310410479E+03   -0.47247E-03   -0.48315E-03 10962   0.939E-03-0.111E-03
CGA:  10    -0.355310675781E+03   -0.26530E-03   -0.27379E-03 10962   0.430E-03-0.862E-04
CGA:  11    -0.355310786338E+03   -0.11056E-03   -0.11178E-03 10962   0.164E-03-0.184E-04
CGA:  12    -0.355310833691E+03   -0.47353E-04   -0.46783E-04 10962   0.689E-04 0.751E-05
CGA:  13    -0.355310850576E+03   -0.16885E-04   -0.16721E-04 10962   0.300E-04 0.267E-04
CGA:  14    -0.355310859172E+03   -0.85958E-05   -0.88433E-05 10962   0.144E-04 0.177E-04
 102 F= -.35531086E+03 E0= -.35531086E+03  d E =0.435145E-02  mag=     8.0000
       N       E                     dE             d eps       ncg     rms          ort
SDA:   1    -0.354917387752E+03    0.39346E+00    0.00000E+00 10962   0.100E+01 0.000E+00
CGA:   2    -0.355189284974E+03   -0.27190E+00   -0.27181E+00 10962   0.535E+00 0.183E-02
CGA:   3    -0.355269886675E+03   -0.80602E-01   -0.80596E-01 10962   0.175E+00-0.138E-03
CGA:   4    -0.355295406757E+03   -0.25520E-01   -0.25476E-01 10962   0.379E-01-0.575E-03
CGA:   5    -0.355301667694E+03   -0.62609E-02   -0.62436E-02 10962   0.107E-01-0.299E-03
CGA:   6    -0.355303658422E+03   -0.19907E-02   -0.19875E-02 10962   0.349E-02-0.949E-04
CGA:   7    -0.355304365653E+03   -0.70723E-03   -0.70741E-03 10962   0.127E-02 0.914E-05
CGA:   8    -0.355304682552E+03   -0.31690E-03   -0.31547E-03 10962   0.549E-03 0.527E-04
CGA:   9    -0.355304842564E+03   -0.16001E-03   -0.15959E-03 10962   0.267E-03 0.739E-05
CGA:  10    -0.355304927492E+03   -0.84928E-04   -0.88569E-04 10962   0.137E-03-0.355E-04
CGA:  11    -0.355304965151E+03   -0.37659E-04   -0.45417E-04 10962   0.966E-04-0.511E-04
CGA:  12    -0.355304983552E+03   -0.18400E-04   -0.21687E-04 10962   0.562E-04-0.273E-04
CGA:  13    -0.355304993254E+03   -0.97024E-05   -0.97205E-05 10962   0.247E-04 0.779E-05
 103 F= -.35530499E+03 E0= -.35530499E+03  d E =0.586592E-02  mag=     8.0000
       N       E                     dE             d eps       ncg     rms          ort
SDA:   1    -0.354640926822E+03    0.66406E+00    0.00000E+00 10962   0.171E+01 0.000E+00
CGA:   2    -0.355132579187E+03   -0.49165E+00   -0.49159E+00 10962   0.828E+00 0.200E-03
CGA:   3    -0.355262333949E+03   -0.12975E+00   -0.12978E+00 10962   0.278E+00 0.101E-03
CGA:   4    -0.355300726602E+03   -0.38393E-01   -0.38435E-01 10962   0.532E-01 0.284E-03
CGA:   5    -0.355309649983E+03   -0.89234E-02   -0.89399E-02 10962   0.158E-01 0.230E-03
CGA:   6    -0.355312582975E+03   -0.29330E-02   -0.29393E-02 10962   0.488E-02 0.136E-03
CGA:   7    -0.355313602203E+03   -0.10192E-02   -0.10195E-02 10962   0.190E-02 0.110E-04
CGA:   8    -0.355314120088E+03   -0.51788E-03   -0.51957E-03 10962   0.977E-03-0.374E-04
CGA:   9    -0.355314396268E+03   -0.27618E-03   -0.27680E-03 10962   0.508E-03-0.106E-04
CGA:  10    -0.355314537267E+03   -0.14100E-03   -0.14036E-03 10962   0.193E-03 0.137E-04
CGA:  11    -0.355314590698E+03   -0.53431E-04   -0.52864E-04 10962   0.720E-04 0.178E-04
CGA:  12    -0.355314618363E+03   -0.27665E-04   -0.28302E-04 10962   0.448E-04-0.521E-05
CGA:  13    -0.355314634946E+03   -0.16583E-04   -0.21650E-04 10962   0.471E-04-0.183E-04
CGA:  14    -0.355314643709E+03   -0.87634E-05   -0.98607E-05 10962   0.254E-04-0.113E-04
 104 F= -.35531464E+03 E0= -.35531464E+03  d E =-.965046E-02  mag=     8.0000
       N       E                     dE             d eps       ncg     rms          ort
SDA:   1    -0.355281894608E+03    0.32740E-01    0.00000E+00 10962   0.946E-01 0.000E+00
CGA:   2    -0.355301372834E+03   -0.19478E-01   -0.19475E-01 10962   0.576E-01-0.105E-03
CGA:   3    -0.355310790925E+03   -0.94181E-02   -0.94086E-02 10962   0.199E-01-0.116E-03
CGA:   4    -0.355313583589E+03   -0.27927E-02   -0.27962E-02 10962   0.410E-02 0.260E-04
CGA:   5    -0.355314239118E+03   -0.65553E-03   -0.66069E-03 10962   0.109E-02 0.598E-04
CGA:   6    -0.355314435636E+03   -0.19652E-03   -0.19818E-03 10962   0.331E-03 0.263E-04
CGA:   7    -0.355314506057E+03   -0.70420E-04   -0.70243E-04 10962   0.114E-03-0.590E-05
CGA:   8    -0.355314537383E+03   -0.31327E-04   -0.32472E-04 10962   0.684E-04-0.213E-04
CGA:   9    -0.355314552296E+03   -0.14913E-04   -0.15232E-04 10962   0.324E-04-0.910E-05
CGA:  10    -0.355314558548E+03   -0.62519E-05   -0.63071E-05 10962   0.103E-04 0.334E-05
 105 F= -.35531456E+03 E0= -.35531456E+03  d E =0.851610E-04  mag=     8.0000
       N       E                     dE             d eps       ncg     rms          ort
SDA:   1    -0.355118609888E+03    0.19594E+00    0.00000E+00 10962   0.509E+00 0.000E+00
CGA:   2    -0.355244036073E+03   -0.12543E+00   -0.12542E+00 10962   0.338E+00 0.158E-03
CGA:   3    -0.355295079897E+03   -0.51044E-01   -0.51041E-01 10962   0.970E-01-0.997E-04
CGA:   4    -0.355308379351E+03   -0.13299E-01   -0.13297E-01 10962   0.192E-01-0.543E-04
CGA:   5    -0.355311559563E+03   -0.31802E-02   -0.31795E-02 10962   0.541E-02-0.185E-04
CGA:   6    -0.355312555123E+03   -0.99556E-03   -0.99505E-03 10962   0.165E-02-0.139E-04
CGA:   7    -0.355312879500E+03   -0.32438E-03   -0.32434E-03 10962   0.523E-03-0.194E-05
CGA:   8    -0.355313006609E+03   -0.12711E-03   -0.12685E-03 10962   0.224E-03 0.123E-04
CGA:   9    -0.355313069010E+03   -0.62401E-04   -0.62062E-04 10962   0.103E-03 0.704E-05
CGA:  10    -0.355313102061E+03   -0.33052E-04   -0.33726E-04 10962   0.503E-04-0.731E-05
CGA:  11    -0.355313116447E+03   -0.14386E-04   -0.15212E-04 10962   0.241E-04-0.865E-05
CGA:  12    -0.355313123053E+03   -0.66059E-05   -0.77232E-05 10962   0.152E-04-0.735E-05
 106 F= -.35531312E+03 E0= -.35531312E+03  d E =0.143550E-02  mag=     8.0000
       N       E                     dE             d eps       ncg     rms          ort
SDA:   1    -0.352970104670E+03    0.23430E+01    0.00000E+00 10962   0.560E+01 0.000E+00
CGA:   2    -0.354755988903E+03   -0.17859E+01   -0.17854E+01 10962   0.264E+01 0.390E-02
CGA:   3    -0.355140823011E+03   -0.38483E+00   -0.38496E+00 10962   0.805E+00 0.447E-03
CGA:   4    -0.355253941346E+03   -0.11312E+00   -0.11306E+00 10962   0.170E+00-0.910E-03
CGA:   5    -0.355282940094E+03   -0.28999E-01   -0.28946E-01 10962   0.504E-01-0.830E-03
CGA:   6    -0.355292125016E+03   -0.91849E-02   -0.91873E-02 10962   0.152E-01 0.287E-04
CGA:   7    -0.355295197698E+03   -0.30727E-02   -0.30772E-02 10962   0.551E-02 0.142E-03
CGA:   8    -0.355296633579E+03   -0.14359E-02   -0.14346E-02 10962   0.253E-02 0.474E-04
CGA:   9    -0.355297352402E+03   -0.71882E-03   -0.71745E-03 10962   0.124E-02 0.280E-04
CGA:  10    -0.355297742078E+03   -0.38968E-03   -0.40268E-03 10962   0.587E-03-0.153E-03
CGA:  11    -0.355297891240E+03   -0.14916E-03   -0.15247E-03 10962   0.238E-03-0.583E-04
CGA:  12    -0.355297965502E+03   -0.74262E-04   -0.82675E-04 10962   0.154E-03-0.591E-04
CGA:  13    -0.355298006114E+03   -0.40611E-04   -0.40465E-04 10962   0.827E-04 0.136E-05
CGA:  14    -0.355298040159E+03   -0.34045E-04   -0.38134E-04 10962   0.609E-04-0.203E-04
CGA:  15    -0.355298048845E+03   -0.86860E-05   -0.95878E-05 10962   0.283E-04 0.161E-04
 107 F= -.35529805E+03 E0= -.35529805E+03  d E =0.150742E-01  mag=     8.0000
       N       E                     dE             d eps       ncg     rms          ort
SDA:   1    -0.354983453458E+03    0.31459E+00    0.00000E+00 10962   0.883E+00 0.000E+00
CGA:   2    -0.355176708819E+03   -0.19326E+00   -0.19327E+00 10962   0.550E+00 0.127E-03
CGA:   3    -0.355266292143E+03   -0.89583E-01   -0.89577E-01 10962   0.196E+00-0.256E-03
CGA:   4    -0.355294664541E+03   -0.28372E-01   -0.28348E-01 10962   0.434E-01-0.282E-03
CGA:   5    -0.355301929868E+03   -0.72653E-02   -0.72620E-02 10962   0.128E-01-0.522E-04
CGA:   6    -0.355304355028E+03   -0.24252E-02   -0.24236E-02 10962   0.430E-02-0.308E-04
CGA:   7    -0.355305261968E+03   -0.90694E-03   -0.90435E-03 10962   0.164E-02-0.881E-04
CGA:   8    -0.355305670128E+03   -0.40816E-03   -0.40897E-03 10962   0.677E-03-0.534E-04
CGA:   9    -0.355305838672E+03   -0.16854E-03   -0.16919E-03 10962   0.272E-03-0.356E-04
CGA:  10    -0.355305907541E+03   -0.68868E-04   -0.68988E-04 10962   0.867E-04-0.443E-05
CGA:  11    -0.355305925127E+03   -0.17587E-04   -0.18114E-04 10962   0.254E-04 0.177E-04
CGA:  12    -0.355305931440E+03   -0.63122E-05   -0.65499E-05 10962   0.981E-05 0.887E-05
 108 F= -.35530593E+03 E0= -.35530593E+03  d E =-.788259E-02  mag=     8.0000
       N       E                     dE             d eps       ncg     rms          ort
SDA:   1    -0.355138897295E+03    0.16703E+00    0.00000E+00 10962   0.446E+00 0.000E+00
CGA:   2    -0.355255647410E+03   -0.11675E+00   -0.11675E+00 10962   0.269E+00-0.332E-03
CGA:   3    -0.355295446650E+03   -0.39799E-01   -0.39766E-01 10962   0.805E-01-0.370E-03
CGA:   4    -0.355306933952E+03   -0.11487E-01   -0.11502E-01 10962   0.176E-01 0.138E-03
CGA:   5    -0.355309841929E+03   -0.29080E-02   -0.29260E-02 10962   0.491E-02 0.284E-03
CGA:   6    -0.355310765341E+03   -0.92341E-03   -0.92531E-03 10962   0.157E-02 0.470E-04
CGA:   7    -0.355311109457E+03   -0.34412E-03   -0.34362E-03 10962   0.631E-03-0.740E-04
CGA:   8    -0.355311274579E+03   -0.16512E-03   -0.17065E-03 10962   0.338E-03-0.902E-04
CGA:   9    -0.355311354721E+03   -0.80142E-04   -0.83734E-04 10962   0.171E-03-0.565E-04
CGA:  10    -0.355311387264E+03   -0.32543E-04   -0.32547E-04 10962   0.512E-04 0.106E-04
CGA:  11    -0.355311399387E+03   -0.12122E-04   -0.12165E-04 10962   0.180E-04 0.862E-05
CGA:  12    -0.355311404347E+03   -0.49604E-05   -0.49339E-05 10962   0.803E-05 0.426E-05
 109 F= -.35531140E+03 E0= -.35531140E+03  d E =-.547291E-02  mag=     8.0000
       N       E                     dE             d eps       ncg     rms          ort
SDA:   1    -0.355204931999E+03    0.10647E+00    0.00000E+00 10962   0.357E+00 0.000E+00
CGA:   2    -0.355262598994E+03   -0.57667E-01   -0.57693E-01 10962   0.174E+00 0.137E-03
CGA:   3    -0.355295097435E+03   -0.32498E-01   -0.32482E-01 10962   0.822E-01-0.480E-03
CGA:   4    -0.355307046071E+03   -0.11949E-01   -0.11942E-01 10962   0.157E-01-0.110E-03
CGA:   5    -0.355309452526E+03   -0.24065E-02   -0.24208E-02 10962   0.402E-02 0.212E-03
CGA:   6    -0.355310195161E+03   -0.74264E-03   -0.74398E-03 10962   0.127E-02 0.382E-04
CGA:   7    -0.355310462405E+03   -0.26724E-03   -0.26678E-03 10962   0.401E-03-0.685E-04
CGA:   8    -0.355310554423E+03   -0.92018E-04   -0.93362E-04 10962   0.175E-03-0.425E-04
CGA:   9    -0.355310596939E+03   -0.42515E-04   -0.44986E-04 10962   0.859E-04-0.344E-04
CGA:  10    -0.355310612044E+03   -0.15106E-04   -0.15108E-04 10962   0.263E-04 0.558E-05
CGA:  11    -0.355310617937E+03   -0.58923E-05   -0.59319E-05 10962   0.851E-05 0.523E-05
 110 F= -.35531062E+03 E0= -.35531062E+03  d E =0.786410E-03  mag=     8.0000
       N       E                     dE             d eps       ncg     rms          ort
SDA:   1    -0.355256790037E+03    0.53822E-01    0.00000E+00 10962   0.125E+00 0.000E+00
CGA:   2    -0.355298864196E+03   -0.42074E-01   -0.42009E-01 10962   0.505E-01 0.539E-03
CGA:   3    -0.355306916705E+03   -0.80525E-02   -0.80400E-02 10962   0.168E-01-0.191E-03
CGA:   4    -0.355309202859E+03   -0.22862E-02   -0.22782E-02 10962   0.355E-02-0.968E-04
CGA:   5    -0.355309829429E+03   -0.62657E-03   -0.62519E-03 10962   0.116E-02-0.333E-04
CGA:   6    -0.355310044481E+03   -0.21505E-03   -0.21403E-03 10962   0.374E-03-0.331E-04
CGA:   7    -0.355310114475E+03   -0.69993E-04   -0.70497E-04 10962   0.132E-03 0.231E-04
CGA:   8    -0.355310144222E+03   -0.29748E-04   -0.29814E-04 10962   0.494E-04 0.267E-04
CGA:   9    -0.355310161527E+03   -0.17305E-04   -0.17087E-04 10962   0.298E-04 0.298E-05
CGA:  10    -0.355310170452E+03   -0.89244E-05   -0.90042E-05 10962   0.142E-04-0.120E-05
CGA:  11    -0.355310116329E+03    0.54122E-04   -0.29194E-04 10962   0.312E-03-0.623E-04
CGA:  12    -0.355310163427E+03   -0.47098E-04   -0.53113E-04 10962   0.369E-04 0.255E-04
CGA:  13    -0.355310176588E+03   -0.13161E-04   -0.12842E-04 10962   0.154E-04-0.452E-05
CGA:  14    -0.355310176561E+03    0.26383E-07   -0.20345E-05 10962   0.831E-05 0.863E-05
 111 F= -.35531018E+03 E0= -.35531018E+03  d E =0.441375E-03  mag=     8.0000
       N       E                     dE             d eps       ncg     rms          ort
SDA:   1    -0.355234476196E+03    0.75700E-01    0.00000E+00 10962   0.248E+00 0.000E+00
CGA:   2    -0.355277011697E+03   -0.42536E-01   -0.42605E-01 10962   0.127E+00 0.228E-03
CGA:   3    -0.355299469183E+03   -0.22457E-01   -0.22500E-01 10962   0.534E-01 0.182E-03
CGA:   4    -0.355307353298E+03   -0.78841E-02   -0.78847E-02 10962   0.112E-01-0.171E-04
CGA:   5    -0.355309219947E+03   -0.18666E-02   -0.18516E-02 10962   0.310E-02-0.800E-04
CGA:   6    -0.355309774472E+03   -0.55453E-03   -0.55306E-03 10962   0.927E-03-0.964E-05
CGA:   7    -0.355309939439E+03   -0.16497E-03   -0.17283E-03 10962   0.261E-03 0.490E-04
CGA:   8    -0.355309984895E+03   -0.45456E-04   -0.53469E-04 10962   0.878E-04 0.557E-04
CGA:   9    -0.355310001766E+03   -0.16871E-04   -0.20998E-04 10962   0.341E-04 0.308E-04
CGA:  10    -0.355310010254E+03   -0.84877E-05   -0.99706E-05 10962   0.155E-04 0.137E-04
 112 F= -.35531001E+03 E0= -.35531001E+03  d E =0.166307E-03  mag=     8.0000
       N       E                     dE             d eps       ncg     rms          ort
SDA:   1    -0.355295194549E+03    0.14807E-01    0.00000E+00 10962   0.427E-01 0.000E+00
CGA:   2    -0.355305016535E+03   -0.98220E-02   -0.98101E-02 10962   0.266E-01-0.160E-03
CGA:   3    -0.355309130468E+03   -0.41139E-02   -0.40975E-02 10962   0.836E-02-0.110E-03
CGA:   4    -0.355310319909E+03   -0.11894E-02   -0.11944E-02 10962   0.181E-02 0.284E-04
CGA:   5    -0.355310605322E+03   -0.28541E-03   -0.29485E-03 10962   0.473E-03 0.710E-04
CGA:   6    -0.355310694151E+03   -0.88829E-04   -0.89527E-04 10962   0.154E-03 0.651E-05
CGA:   7    -0.355310735855E+03   -0.41704E-04   -0.40812E-04 10962   0.892E-04-0.412E-04
CGA:   8    -0.355310755476E+03   -0.19622E-04   -0.23628E-04 10962   0.925E-04-0.501E-04
CGA:   9    -0.355310768155E+03   -0.12679E-04   -0.13522E-04 10962   0.181E-04 0.604E-05
CGA:  10    -0.355310770647E+03   -0.24921E-05   -0.32378E-05 10962   0.450E-05 0.677E-05
 113 F= -.35531077E+03 E0= -.35531077E+03  d E =-.760393E-03  mag=     8.0000
