       N       E                     dE             d eps       ncg     rms          ort
DAV:   1     0.259793017829E+04    0.25979E+04   -0.14107E+05 10584   0.165E+03
DAV:   2    -0.125677510671E+03   -0.27236E+04   -0.25172E+04 10584   0.428E+02
DAV:   3    -0.443866292432E+03   -0.31819E+03   -0.31301E+03 10584   0.168E+02
DAV:   4    -0.455900756797E+03   -0.12034E+02   -0.11751E+02 10584   0.315E+01
DAV:   5    -0.456425654703E+03   -0.52490E+00   -0.51570E+00 10584   0.495E+00
SDA:   6    -0.247862714930E+03    0.20856E+03   -0.51570E+00 10584   0.515E+03 0.000E+00
CGA:   7    -0.323655322952E+03   -0.75793E+02   -0.68739E+02 10584   0.243E+03-0.661E+02
CGA:   8    -0.325865828956E+03   -0.22105E+01   -0.18158E+02 10584   0.147E+03-0.284E+02
CGA:   9    -0.333268297403E+03   -0.74025E+01   -0.12163E+02 10584   0.172E+03-0.720E+01
CGA:  10    -0.327833772459E+03    0.54345E+01   -0.91477E+01 10584   0.278E+03-0.860E+02
CGA:  11    -0.336788894769E+03   -0.89551E+01   -0.24753E+02 10584   0.891E+02-0.385E+02
CGA:  12    -0.340170416611E+03   -0.33815E+01   -0.48035E+01 10584   0.990E+02 0.346E+01
CGA:  13    -0.342650214744E+03   -0.24798E+01   -0.46508E+01 10584   0.108E+03-0.114E+03
CGA:  14    -0.343808166949E+03   -0.11580E+01   -0.60635E+01 10584   0.859E+02-0.626E+02
CGA:  15    -0.343236982752E+03    0.57118E+00   -0.58248E+01 10584   0.311E+02-0.129E+02
CGA:  16    -0.344568304156E+03   -0.13313E+01   -0.61146E+00 10584   0.420E+02 0.436E+02
CGA:  17    -0.346098317714E+03   -0.15300E+01   -0.11501E+01 10584   0.132E+02-0.287E+02
CGA:  18    -0.346151378206E+03   -0.53060E-01   -0.44801E+00 10584   0.164E+02-0.137E+02
CGA:  19    -0.346242223541E+03   -0.90845E-01   -0.51499E+00 10584   0.135E+02-0.124E+02
CGA:  20    -0.346256979273E+03   -0.14756E-01   -0.45121E+00 10584   0.176E+02-0.146E+02
CGA:  21    -0.346330776958E+03   -0.73798E-01   -0.55298E+00 10584   0.148E+02-0.138E+02
CGA:  22    -0.346391044645E+03   -0.60268E-01   -0.46380E+00 10584   0.160E+02-0.150E+02
CGA:  23    -0.346465249206E+03   -0.74205E-01   -0.48754E+00 10584   0.129E+02-0.122E+02
CGA:  24    -0.346603319906E+03   -0.13807E+00   -0.34665E+00 10584   0.795E+01-0.941E+01
CGA:  25    -0.346691431779E+03   -0.88112E-01   -0.20924E+00 10584   0.430E+01-0.431E+01
CGA:  26    -0.346770891727E+03   -0.79460E-01   -0.81712E-01 10584   0.869E+00-0.254E+00
CGA:  27    -0.347224434483E+03   -0.45354E+00   -0.47490E-02 10584   0.847E+01-0.179E+00
CGA:  28    -0.347297267059E+03   -0.72833E-01   -0.18486E+00 10584   0.157E+01-0.419E+01
CGA:  29    -0.347313145211E+03   -0.15878E-01   -0.22657E-01 10584   0.341E+00-0.228E+00
CGA:  30    -0.347335516040E+03   -0.22371E-01   -0.23868E-01 10584   0.106E+01-0.605E-02
CGA:  31    -0.347391866555E+03   -0.56351E-01   -0.57883E-01 10584   0.188E+00 0.100E-02
CGA:  32    -0.347413966677E+03   -0.22100E-01   -0.22278E-01 10584   0.291E+00 0.539E-02
CGA:  33    -0.347445390106E+03   -0.31423E-01   -0.31121E-01 10584   0.465E+00 0.830E-02
CGA:  34    -0.347466396542E+03   -0.21006E-01   -0.16869E-01 10584   0.125E+00 0.129E+00
CGA:  35    -0.347472019866E+03   -0.56233E-02   -0.56211E-02 10584   0.135E+00 0.649E-02
CGA:  36    -0.347487173095E+03   -0.15153E-01   -0.14522E-01 10584   0.288E+00 0.515E-02
CGA:  37    -0.347494963213E+03   -0.77901E-02   -0.60636E-02 10584   0.140E+00 0.970E-01
CGA:  38    -0.347498654220E+03   -0.36910E-02   -0.35282E-02 10584   0.373E-01 0.137E-01
CGA:  39    -0.347501078736E+03   -0.24245E-02   -0.25835E-02 10584   0.981E-01-0.627E-03
CGA:  40    -0.347503879527E+03   -0.28008E-02   -0.19814E-02 10584   0.750E-01 0.398E-01
CGA:  41    -0.347506847208E+03   -0.29677E-02   -0.22965E-02 10584   0.881E-01 0.307E-01
CGA:  42    -0.347510443368E+03   -0.35962E-02   -0.31669E-02 10584   0.831E-01 0.177E-01
CGA:  43    -0.347511909798E+03   -0.14664E-02   -0.21417E-02 10584   0.567E-01-0.264E-01
CGA:  44    -0.347513710641E+03   -0.18008E-02   -0.18997E-02 10584   0.915E-01-0.904E-03
CGA:  45    -0.347515142924E+03   -0.14323E-02   -0.10016E-02 10584   0.374E-01 0.342E-01
CGA:  46    -0.347515988348E+03   -0.84542E-03   -0.73789E-03 10584   0.232E-01 0.601E-02
CGA:  47    -0.347516648952E+03   -0.66060E-03   -0.64368E-03 10584   0.350E-01-0.449E-03
CGA:  48    -0.347517631883E+03   -0.98293E-03   -0.11392E-02 10584   0.955E-01-0.533E-02
CGA:  49    -0.347520110593E+03   -0.24787E-02   -0.17068E-02 10584   0.994E-01 0.280E-01
CGA:  50    -0.347521868480E+03   -0.17579E-02   -0.12033E-02 10584   0.437E-01 0.472E-01
CGA:  51    -0.347522874994E+03   -0.10065E-02   -0.87193E-03 10584   0.286E-01 0.572E-02
CGA:  52    -0.347523397840E+03   -0.52285E-03   -0.49920E-03 10584   0.249E-01-0.538E-03
CGA:  53    -0.347523751526E+03   -0.35369E-03   -0.38310E-03 10584   0.259E-01-0.300E-02
CGA:  54    -0.347524223980E+03   -0.47245E-03   -0.55524E-03 10584   0.509E-01-0.351E-02
CGA:  55    -0.347525461715E+03   -0.12377E-02   -0.10575E-02 10584   0.715E-01 0.440E-02
SDA:  56    -0.347526705805E+03   -0.12441E-02   -0.82650E-03 10584   0.600E-01 0.323E-01
CGA:  57    -0.347528152430E+03   -0.14466E-02   -0.14170E-02 10584   0.111E-01 0.565E-03
CGA:  58    -0.347528639434E+03   -0.48700E-03   -0.50306E-03 10584   0.158E-01 0.102E-02
CGA:  59    -0.347530256148E+03   -0.16167E-02   -0.15154E-02 10584   0.225E-01 0.377E-02
CGA:  60    -0.347532003572E+03   -0.17474E-02   -0.17456E-02 10584   0.538E-02 0.385E-02
CGA:  61    -0.347532371443E+03   -0.36787E-03   -0.36826E-03 10584   0.130E-01 0.203E-03
CGA:  62    -0.347533391837E+03   -0.10204E-02   -0.10327E-02 10584   0.230E-01-0.899E-03
CGA:  63    -0.347534548311E+03   -0.11565E-02   -0.11676E-02 10584   0.128E-01-0.203E-03
CGA:  64    -0.347534852638E+03   -0.30433E-03   -0.30136E-03 10584   0.484E-02 0.758E-03
CGA:  65    -0.347535046525E+03   -0.19389E-03   -0.20804E-03 10584   0.512E-02 0.623E-03
CGA:  66    -0.347535627451E+03   -0.58093E-03   -0.51603E-03 10584   0.107E-01 0.210E-02
CGA:  67    -0.347536055912E+03   -0.42846E-03   -0.43332E-03 10584   0.259E-02 0.164E-02
CGA:  68    -0.347536749707E+03   -0.69379E-03   -0.61845E-03 10584   0.138E-01 0.730E-03
CGA:  69    -0.347537314911E+03   -0.56520E-03   -0.40511E-03 10584   0.212E-02 0.458E-02
CGA:  70    -0.347536833001E+03    0.48191E-03   -0.35746E-03 10584   0.912E-01-0.584E-02
CGA:  71    -0.347538437467E+03   -0.16045E-02   -0.15938E-02 10584   0.392E-02 0.131E-02
CGA:  72    -0.347538596054E+03   -0.15859E-03   -0.18015E-03 10584   0.401E-02 0.373E-03
CGA:  73    -0.347538857382E+03   -0.26133E-03   -0.30527E-03 10584   0.426E-02 0.113E-02
CGA:  74    -0.347539023127E+03   -0.16575E-03   -0.22931E-03 10584   0.105E-02 0.931E-03
CGA:  75    -0.347539243825E+03   -0.22070E-03   -0.21374E-03 10584   0.611E-02 0.109E-03
CGA:  76    -0.347539523017E+03   -0.27919E-03   -0.28423E-03 10584   0.246E-02 0.450E-04
CGA:  77    -0.347539607432E+03   -0.84415E-04   -0.83003E-04 10584   0.838E-03 0.190E-03
CGA:  78    -0.347539674275E+03   -0.66843E-04   -0.61578E-04 10584   0.315E-02-0.112E-03
CGA:  79    -0.347539842371E+03   -0.16810E-03   -0.10713E-03 10584   0.508E-02 0.463E-03
CGA:  80    -0.347539961495E+03   -0.11912E-03   -0.83446E-04 10584   0.141E-02 0.111E-02
CGA:  81    -0.347539994323E+03   -0.32827E-04   -0.32733E-04 10584   0.103E-02-0.109E-03
CGA:  82    -0.347540021726E+03   -0.27403E-04   -0.34141E-04 10584   0.184E-02 0.134E-03
CGA:  83    -0.347540056474E+03   -0.34749E-04   -0.41042E-04 10584   0.142E-02 0.707E-03
CGA:  84    -0.347540079592E+03   -0.23118E-04   -0.33551E-04 10584   0.937E-03 0.578E-03
CGA:  85    -0.347540090973E+03   -0.11381E-04   -0.24453E-04 10584   0.746E-03 0.264E-03
CGA:  86    -0.347540101747E+03   -0.10774E-04   -0.22898E-04 10584   0.114E-02 0.218E-03
CGA:  87    -0.347540127728E+03   -0.25981E-04   -0.39653E-04 10584   0.154E-02 0.362E-03
CGA:  88    -0.347540154745E+03   -0.27016E-04   -0.30607E-04 10584   0.923E-03 0.544E-03
CGA:  89    -0.347540176833E+03   -0.22088E-04   -0.21333E-04 10584   0.935E-03 0.137E-03
CGA:  90    -0.347540211348E+03   -0.34515E-04   -0.28799E-04 10584   0.224E-02-0.186E-04
CGA:  91    -0.347540243060E+03   -0.31712E-04   -0.17417E-04 10584   0.236E-02 0.103E-02
CGA:  92    -0.347540286066E+03   -0.43006E-04   -0.25101E-04 10584   0.124E-02 0.140E-02
CGA:  93    -0.347540332038E+03   -0.45972E-04   -0.41788E-04 10584   0.159E-02-0.174E-03
CGA:  94    -0.347540504354E+03   -0.17232E-03    0.35907E-03 10584   0.115E-02 0.985E-03
CGA:  95    -0.347540529875E+03   -0.25521E-04   -0.24635E-04 10584   0.515E-03-0.286E-04
CGA:  96    -0.347540585851E+03   -0.55976E-04    0.17417E-02 10584   0.414E-03 0.457E-03
CGA:  97    -0.347540605802E+03   -0.19951E-04   -0.19927E-04 10584   0.920E-03-0.485E-05
CGA:  98    -0.347540929411E+03   -0.32361E-03   -0.12553E-04 10584   0.217E-02-0.982E-04
CGA:  99    -0.347540972883E+03   -0.43472E-04   -0.47323E-04 10584   0.505E-03-0.213E-03
CGA: 100    -0.347540987567E+03   -0.14684E-04   -0.16375E-04 10584   0.370E-03 0.353E-04
CGA: 101    -0.347541021849E+03   -0.34282E-04   -0.35190E-04 10584   0.289E-03 0.212E-03
CGA: 102    -0.347541029020E+03   -0.71705E-05   -0.75555E-05 10584   0.226E-03 0.538E-05
CGA: 103    -0.347541135971E+03   -0.10695E-03   -0.99567E-04 10584   0.410E-03 0.223E-04
CGA: 104    -0.347541156066E+03   -0.20095E-04   -0.17451E-04 10584   0.228E-03-0.401E-04
CGA: 105    -0.347541201677E+03   -0.45611E-04   -0.41708E-04 10584   0.171E-02 0.391E-04
CGA: 106    -0.347541285665E+03   -0.83988E-04   -0.64369E-04 10584   0.379E-03 0.645E-03
CGA: 107    -0.347541325296E+03   -0.39631E-04   -0.38334E-04 10584   0.108E-02-0.489E-04
CGA: 108    -0.347541393210E+03   -0.67914E-04   -0.61207E-04 10584   0.223E-02 0.988E-05
CGA: 109    -0.347541438419E+03   -0.45209E-04   -0.34798E-04 10584   0.115E-02 0.902E-03
CGA: 110    -0.347541459796E+03   -0.21377E-04   -0.25249E-04 10584   0.211E-03 0.560E-04
CGA: 111    -0.347541474204E+03   -0.14407E-04   -0.15247E-04 10584   0.953E-03 0.322E-04
CGA: 112    -0.347541646492E+03   -0.17229E-03   -0.16705E-03 10584   0.958E-03 0.845E-04
CGA: 113    -0.347541680661E+03   -0.34169E-04   -0.36003E-04 10584   0.478E-03-0.380E-04
CGA: 114    -0.347541734472E+03   -0.53812E-04   -0.52789E-04 10584   0.171E-02 0.539E-04
CGA: 115    -0.347541827114E+03   -0.92641E-04   -0.11353E-03 10584   0.604E-03 0.137E-03
CGA: 116    -0.347541850545E+03   -0.23432E-04   -0.22616E-04 10584   0.428E-03 0.958E-05
CGA: 117    -0.347541875115E+03   -0.24569E-04   -0.24615E-04 10584   0.666E-03-0.176E-04
CGA: 118    -0.347541918446E+03   -0.43331E-04   -0.43980E-04 10584   0.145E-03 0.459E-04
CGA: 119    -0.347541923251E+03   -0.48052E-05   -0.43812E-05 10584   0.105E-03-0.908E-05
CGA: 120    -0.347541936304E+03   -0.13053E-04   -0.16795E-04 10584   0.506E-03-0.435E-04
CGA: 121    -0.347541944893E+03   -0.85887E-05   -0.76563E-05 10584   0.146E-03-0.235E-04
   1 F= -.34754194E+03 E0= -.34753290E+03  d E =-.347542E+03  mag=    18.0000
       N       E                     dE             d eps       ncg     rms          ort
SDA:   1    -0.347417608406E+03    0.12433E+00    0.00000E+00 10584   0.816E+01 0.000E+00
CGA:   2    -0.347518593553E+03   -0.10099E+00   -0.16014E+00 10584   0.157E+01-0.329E+01
CGA:   3    -0.347539231532E+03   -0.20638E-01   -0.22213E-01 10584   0.534E-01-0.585E-01
CGA:   4    -0.347540276627E+03   -0.10451E-02   -0.10507E-02 10584   0.946E-02 0.667E-03
CGA:   5    -0.347540594375E+03   -0.31775E-03   -0.32300E-03 10584   0.687E-02 0.138E-03
CGA:   6    -0.347541386660E+03   -0.79229E-03   -0.79694E-03 10584   0.129E-01-0.112E-03
CGA:   7    -0.347541618192E+03   -0.23153E-03   -0.23303E-03 10584   0.135E-02-0.361E-04
CGA:   8    -0.347541785931E+03   -0.16774E-03   -0.16413E-03 10584   0.394E-02 0.678E-04
CGA:   9    -0.347541898590E+03   -0.11266E-03   -0.11084E-03 10584   0.107E-02-0.527E-04
CGA:  10    -0.347541931724E+03   -0.33134E-04   -0.31051E-04 10584   0.244E-03-0.522E-04
CGA:  11    -0.347541951187E+03   -0.19463E-04   -0.19730E-04 10584   0.609E-03-0.162E-04
CGA:  12    -0.347541970365E+03   -0.19177E-04   -0.19111E-04 10584   0.815E-04-0.195E-05
CGA:  13    -0.347541976051E+03   -0.56864E-05   -0.59517E-05 10584   0.187E-03-0.450E-04
   2 F= -.34754198E+03 E0= -.34753291E+03  d E =-.311582E-04  mag=    18.0000
       N       E                     dE             d eps       ncg     rms          ort
SDA:   1    -0.347540190856E+03    0.17795E-02    0.00000E+00 10584   0.114E+00 0.000E+00
CGA:   2    -0.347541727969E+03   -0.15371E-02   -0.15558E-02 10584   0.128E-02-0.185E-02
CGA:   3    -0.347541787699E+03   -0.59730E-04   -0.57794E-04 10584   0.120E-02-0.115E-03
CGA:   4    -0.347541901094E+03   -0.11339E-03   -0.12058E-03 10584   0.323E-02-0.149E-03
CGA:   5    -0.347541962238E+03   -0.61145E-04   -0.60560E-04 10584   0.252E-03-0.110E-04
CGA:   6    -0.347541978684E+03   -0.16446E-04   -0.16420E-04 10584   0.688E-03 0.784E-05
CGA:   7    -0.347542005408E+03   -0.26724E-04   -0.26073E-04 10584   0.830E-04-0.263E-04
CGA:   8    -0.347542010864E+03   -0.54559E-05   -0.59959E-05 10584   0.172E-03-0.387E-04
   3 F= -.34754201E+03 E0= -.34753291E+03  d E =-.348125E-04  mag=    18.0000
