       N       E                     dE             d eps       ncg     rms          rms(c)
DAV:   1     0.271723473531E+04    0.27172E+04   -0.13236E+05 25984   0.148E+03
DAV:   2     0.249614852130E+02   -0.26923E+04   -0.25140E+04 27204   0.411E+02
DAV:   3    -0.264938343078E+03   -0.28990E+03   -0.28619E+03 28424   0.149E+02
DAV:   4    -0.274064587846E+03   -0.91262E+01   -0.90150E+01 33112   0.259E+01
DAV:   5    -0.274640895114E+03   -0.57631E+00   -0.57524E+00 39664   0.492E+00    0.115E+02
DAV:   6    -0.239170612416E+03    0.35470E+02   -0.16786E+02 28440   0.354E+01    0.659E+01
DAV:   7    -0.241539569394E+03   -0.23690E+01   -0.20389E+01 27358   0.128E+01    0.236E+01
DAV:   8    -0.242079031783E+03   -0.53946E+00   -0.14137E+00 28712   0.392E+00    0.887E+00
DAV:   9    -0.242186706752E+03   -0.10767E+00   -0.18855E-01 33632   0.165E+00    0.282E+00
DAV:  10    -0.242195064319E+03   -0.83576E-02   -0.45285E-02 28424   0.696E-01    0.135E+00
DAV:  11    -0.242201981821E+03   -0.69175E-02   -0.15737E-02 28552   0.453E-01    0.448E-01
DAV:  12    -0.242202880691E+03   -0.89887E-03   -0.18175E-03 29680   0.161E-01    0.142E-01
DAV:  13    -0.242203105511E+03   -0.22482E-03   -0.48717E-04 29760   0.648E-02    0.760E-02
DAV:  14    -0.242203212637E+03   -0.10713E-03   -0.82472E-05 27680   0.314E-02    0.374E-02
DAV:  15    -0.242203251652E+03   -0.39014E-04   -0.60019E-05 26120   0.284E-02    0.194E-02
DAV:  16    -0.242203253912E+03   -0.22602E-05   -0.14163E-05 19736   0.130E-02
   1 F= -.24220325E+03 E0= -.24220325E+03  d E =-.242203E+03  mag=    19.9986
       N       E                     dE             d eps       ncg     rms          rms(c)
DAV:   1    -0.242212954808E+03   -0.97032E-02   -0.72283E-03 27776   0.314E-01    0.642E-02
DAV:   2    -0.242212989918E+03   -0.35109E-04   -0.44250E-04 28008   0.626E-02    0.333E-02
DAV:   3    -0.242212987597E+03    0.23202E-05   -0.19714E-05 23904   0.153E-02    0.191E-02
DAV:   4    -0.242212986874E+03    0.72298E-06   -0.49878E-06 16352   0.811E-03
   2 F= -.24221299E+03 E0= -.24221299E+03  d E =-.973296E-02  mag=    20.0000
       N       E                     dE             d eps       ncg     rms          rms(c)
DAV:   1    -0.242436452249E+03   -0.22346E+00   -0.87562E+00 26212   0.110E+01    0.222E+00
DAV:   2    -0.242480757117E+03   -0.44305E-01   -0.54570E-01 27968   0.219E+00    0.113E+00
DAV:   3    -0.242478529862E+03    0.22273E-02   -0.26608E-02 32072   0.525E-01    0.651E-01
DAV:   4    -0.242477606116E+03    0.92375E-03   -0.44634E-03 31912   0.234E-01    0.386E-01
DAV:   5    -0.242477457006E+03    0.14911E-03   -0.74646E-04 29800   0.109E-01    0.123E-01
DAV:   6    -0.242477452134E+03    0.48712E-05   -0.37598E-04 31512   0.684E-02    0.561E-02
DAV:   7    -0.242477448132E+03    0.40024E-05   -0.49806E-05 27520   0.258E-02
   3 F= -.24247745E+03 E0= -.24247745E+03  d E =-.264461E+00  mag=    20.0000
       N       E                     dE             d eps       ncg     rms          rms(c)
DAV:   1    -0.242585350387E+03   -0.10790E+00   -0.24424E+01 26184   0.192E+01    0.241E+00
DAV:   2    -0.242728725328E+03   -0.14337E+00   -0.16392E+00 27292   0.361E+00    0.132E+00
DAV:   3    -0.242728051504E+03    0.67382E-03   -0.65742E-02 35040   0.757E-01    0.752E-01
DAV:   4    -0.242725696239E+03    0.23553E-02   -0.10561E-02 32168   0.349E-01    0.360E-01
DAV:   5    -0.242725576941E+03    0.11930E-03   -0.17901E-03 31016   0.150E-01    0.135E-01
DAV:   6    -0.242725571329E+03    0.56124E-05   -0.63204E-04 30960   0.803E-02    0.650E-02
DAV:   7    -0.242725561664E+03    0.96650E-05   -0.57477E-05 28392   0.270E-02
   4 F= -.24272556E+03 E0= -.24272556E+03  d E =-.248114E+00  mag=    20.0000
       N       E                     dE             d eps       ncg     rms          rms(c)
DAV:   1    -0.242727307751E+03   -0.17364E-02   -0.15888E+01 26176   0.164E+01    0.197E+00
DAV:   2    -0.242839090140E+03   -0.11178E+00   -0.12122E+00 25780   0.307E+00    0.918E-01
DAV:   3    -0.242839594495E+03   -0.50435E-03   -0.38423E-02 35584   0.571E-01    0.545E-01
DAV:   4    -0.242838022568E+03    0.15719E-02   -0.48302E-03 31656   0.248E-01    0.308E-01
DAV:   5    -0.242837825382E+03    0.19719E-03   -0.11786E-03 32184   0.124E-01    0.101E-01
DAV:   6    -0.242837829254E+03   -0.38724E-05   -0.32252E-04 30648   0.618E-02    0.498E-02
DAV:   7    -0.242837828749E+03    0.50516E-06   -0.39076E-05 26936   0.202E-02
   5 F= -.24283783E+03 E0= -.24283783E+03  d E =-.112267E+00  mag=    20.0000
       N       E                     dE             d eps       ncg     rms          rms(c)
DAV:   1    -0.242689732235E+03    0.14810E+00   -0.24263E+01 26200   0.222E+01    0.284E+00
DAV:   2    -0.242900726846E+03   -0.21099E+00   -0.22106E+00 25428   0.421E+00    0.121E+00
DAV:   3    -0.242904045501E+03   -0.33187E-02   -0.66947E-02 34608   0.791E-01    0.642E-01
DAV:   4    -0.242902121938E+03    0.19236E-02   -0.70850E-03 31746   0.308E-01    0.363E-01
DAV:   5    -0.242901764651E+03    0.35729E-03   -0.16989E-03 33176   0.157E-01    0.123E-01
DAV:   6    -0.242901762247E+03    0.24041E-05   -0.41691E-04 30740   0.733E-02    0.562E-02
DAV:   7    -0.242901762412E+03   -0.16578E-06   -0.74861E-05 29344   0.280E-02
   6 F= -.24290176E+03 E0= -.24290176E+03  d E =-.639337E-01  mag=    20.0000
       N       E                     dE             d eps       ncg     rms          rms(c)
DAV:   1    -0.242416449214E+03    0.48531E+00   -0.53793E+01 26168   0.339E+01    0.427E+00
DAV:   2    -0.242906730884E+03   -0.49028E+00   -0.50778E+00 26022   0.644E+00    0.193E+00
DAV:   3    -0.242917538624E+03   -0.10808E-01   -0.16217E-01 32600   0.124E+00    0.101E+00
DAV:   4    -0.242912768395E+03    0.47702E-02   -0.16367E-02 32008   0.462E-01    0.597E-01
DAV:   5    -0.242911347758E+03    0.14206E-02   -0.35601E-03 31352   0.255E-01    0.230E-01
DAV:   6    -0.242911343522E+03    0.42359E-05   -0.14447E-03 30088   0.136E-01    0.963E-02
DAV:   7    -0.242911347903E+03   -0.43814E-05   -0.22639E-04 30784   0.514E-02    0.482E-02
DAV:   8    -0.242911340962E+03    0.69415E-05   -0.32196E-05 27128   0.235E-02
   7 F= -.24291134E+03 E0= -.24291134E+03  d E =-.957855E-02  mag=    20.0000
       N       E                     dE             d eps       ncg     rms          rms(c)
DAV:   1    -0.242926955798E+03   -0.15608E-01   -0.41776E+00 25784   0.806E+00    0.189E+00
DAV:   2    -0.242952311774E+03   -0.25356E-01   -0.29834E-01 27656   0.162E+00    0.871E-01
DAV:   3    -0.242950735371E+03    0.15764E-02   -0.12550E-02 31360   0.377E-01    0.464E-01
DAV:   4    -0.242950115510E+03    0.61986E-03   -0.20522E-03 30520   0.170E-01    0.261E-01
DAV:   5    -0.242949965595E+03    0.14991E-03   -0.46902E-04 30256   0.874E-02    0.781E-02
DAV:   6    -0.242949969752E+03   -0.41569E-05   -0.22340E-04 31000   0.522E-02    0.381E-02
DAV:   7    -0.242949968334E+03    0.14178E-05   -0.28648E-05 24608   0.187E-02
   8 F= -.24294997E+03 E0= -.24294997E+03  d E =-.386274E-01  mag=    20.0000
       N       E                     dE             d eps       ncg     rms          rms(c)
DAV:   1    -0.242958493628E+03   -0.85239E-02   -0.12056E+00 25656   0.420E+00    0.877E-01
DAV:   2    -0.242965040165E+03   -0.65465E-02   -0.69148E-02 27480   0.767E-01    0.299E-01
DAV:   3    -0.242964768063E+03    0.27210E-03   -0.24479E-03 33016   0.168E-01    0.149E-01
DAV:   4    -0.242964680624E+03    0.87440E-04   -0.37819E-04 31624   0.717E-02    0.827E-02
DAV:   5    -0.242964660716E+03    0.19908E-04   -0.77497E-05 29816   0.334E-02    0.285E-02
DAV:   6    -0.242964659955E+03    0.76130E-06   -0.14776E-05 19688   0.145E-02
   9 F= -.24296466E+03 E0= -.24296466E+03  d E =-.146916E-01  mag=    20.0000
       N       E                     dE             d eps       ncg     rms          rms(c)
DAV:   1    -0.242944565433E+03    0.20095E-01   -0.52707E+00 26018   0.943E+00    0.111E+00
DAV:   2    -0.242977358923E+03   -0.32793E-01   -0.31808E-01 27824   0.163E+00    0.446E-01
DAV:   3    -0.242978022952E+03   -0.66403E-03   -0.96550E-03 31662   0.295E-01    0.216E-01
DAV:   4    -0.242977725020E+03    0.29793E-03   -0.94124E-04 31576   0.110E-01    0.130E-01
DAV:   5    -0.242977645652E+03    0.79368E-04   -0.25665E-04 30728   0.705E-02    0.450E-02
DAV:   6    -0.242977650809E+03   -0.51562E-05   -0.75922E-05 28912   0.297E-02
  10 F= -.24297765E+03 E0= -.24297765E+03  d E =-.129909E-01  mag=    20.0000
       N       E                     dE             d eps       ncg     rms          rms(c)
DAV:   1    -0.242841723123E+03    0.13592E+00   -0.26845E+01 25896   0.207E+01    0.208E+00
DAV:   2    -0.242993545192E+03   -0.15182E+00   -0.14889E+00 27050   0.361E+00    0.951E-01
DAV:   3    -0.242996568270E+03   -0.30231E-02   -0.42199E-02 30240   0.625E-01    0.473E-01
DAV:   4    -0.242995171840E+03    0.13964E-02   -0.40331E-03 31360   0.229E-01    0.299E-01
DAV:   5    -0.242994623430E+03    0.54841E-03   -0.11678E-03 30056   0.160E-01    0.102E-01
DAV:   6    -0.242994652682E+03   -0.29252E-04   -0.51844E-04 29376   0.756E-02    0.481E-02
DAV:   7    -0.242994652415E+03    0.26681E-06   -0.37235E-05 25704   0.221E-02
  11 F= -.24299465E+03 E0= -.24299465E+03  d E =-.170016E-01  mag=    20.0000
       N       E                     dE             d eps       ncg     rms          rms(c)
DAV:   1    -0.241056733320E+03    0.19379E+01   -0.13183E+02 26120   0.371E+01    0.162E+01
DAV:   2    -0.241721498280E+03   -0.66476E+00   -0.82495E+00 29560   0.799E+00    0.550E+00
DAV:   3    -0.241638412230E+03    0.83086E-01   -0.28024E-01 29704   0.176E+00    0.326E+00
DAV:   4    -0.241600771451E+03    0.37641E-01   -0.53635E-02 31136   0.919E-01    0.224E+00
DAV:   5    -0.241593716054E+03    0.70554E-02   -0.26594E-02 29480   0.575E-01    0.589E-01
DAV:   6    -0.241594252381E+03   -0.53633E-03   -0.94394E-03 32248   0.325E-01    0.262E-01
DAV:   7    -0.241594178027E+03    0.74354E-04   -0.11788E-03 31816   0.119E-01    0.122E-01
DAV:   8    -0.241594171757E+03    0.62698E-05   -0.30035E-04 29440   0.537E-02    0.592E-02
DAV:   9    -0.241594182176E+03   -0.10419E-04   -0.64733E-05 28048   0.251E-02    0.265E-02
DAV:  10    -0.241594191991E+03   -0.98156E-05   -0.13798E-05 18760   0.137E-02
  12 F= -.24159419E+03 E0= -.24159419E+03  d E =0.140046E+01  mag=    20.0000
       N       E                     dE             d eps       ncg     rms          rms(c)
DAV:   1    -0.242593346617E+03   -0.99916E+00   -0.26763E+01 26104   0.155E+01    0.634E+00
DAV:   2    -0.242697758612E+03   -0.10441E+00   -0.15224E+00 29256   0.354E+00    0.332E+00
DAV:   3    -0.242680600857E+03    0.17158E-01   -0.52932E-02 29800   0.746E-01    0.244E+00
DAV:   4    -0.242668287784E+03    0.12313E-01   -0.15255E-02 29832   0.514E-01    0.134E+00
DAV:   5    -0.242667156564E+03    0.11312E-02   -0.83500E-03 29128   0.316E-01    0.236E-01
DAV:   6    -0.242667274259E+03   -0.11770E-03   -0.28706E-03 32280   0.178E-01    0.178E-01
DAV:   7    -0.242667253336E+03    0.20923E-04   -0.28347E-04 31144   0.567E-02    0.994E-02
DAV:   8    -0.242667242077E+03    0.11260E-04   -0.14811E-04 28592   0.383E-02    0.419E-02
DAV:   9    -0.242667245482E+03   -0.34049E-05   -0.26401E-05 23208   0.181E-02
  13 F= -.24266725E+03 E0= -.24266725E+03  d E =-.107305E+01  mag=    20.0000
       N       E                     dE             d eps       ncg     rms          rms(c)
DAV:   1    -0.242967995203E+03   -0.30075E+00   -0.15004E+01 26184   0.108E+01    0.509E+00
DAV:   2    -0.243023742386E+03   -0.55747E-01   -0.81308E-01 29536   0.252E+00    0.202E+00
DAV:   3    -0.243011035713E+03    0.12707E-01   -0.29319E-02 29968   0.570E-01    0.112E+00
DAV:   4    -0.243006490057E+03    0.45457E-02   -0.66185E-03 30112   0.309E-01    0.724E-01
DAV:   5    -0.243005734858E+03    0.75520E-03   -0.28253E-03 29512   0.200E-01    0.182E-01
DAV:   6    -0.243005812034E+03   -0.77175E-04   -0.11429E-03 32208   0.108E-01    0.917E-02
DAV:   7    -0.243005800290E+03    0.11744E-04   -0.13227E-04 31904   0.411E-02    0.392E-02
DAV:   8    -0.243005799796E+03    0.49386E-06   -0.63441E-05 28384   0.245E-02
  14 F= -.24300580E+03 E0= -.24300580E+03  d E =-.338554E+00  mag=    20.0000
       N       E                     dE             d eps       ncg     rms          rms(c)
DAV:   1    -0.243024379990E+03   -0.18580E-01   -0.13820E+00 26836   0.304E+00    0.157E+00
DAV:   2    -0.243029826678E+03   -0.54467E-02   -0.71304E-02 29416   0.671E-01    0.567E-01
DAV:   3    -0.243028552886E+03    0.12738E-02   -0.28801E-03 29728   0.184E-01    0.212E-01
DAV:   4    -0.243028400335E+03    0.15255E-03   -0.59998E-04 30248   0.734E-02    0.117E-01
DAV:   5    -0.243028362929E+03    0.37406E-04   -0.13540E-04 30464   0.392E-02    0.527E-02
DAV:   6    -0.243028359438E+03    0.34911E-05   -0.28258E-05 26376   0.168E-02
  15 F= -.24302836E+03 E0= -.24302836E+03  d E =-.225596E-01  mag=    20.0000
       N       E                     dE             d eps       ncg     rms          rms(c)
DAV:   1    -0.243031518977E+03   -0.31560E-02   -0.34821E-01 25558   0.180E+00    0.623E-01
DAV:   2    -0.243032703604E+03   -0.11846E-02   -0.15738E-02 29312   0.367E-01    0.296E-01
DAV:   3    -0.243032517235E+03    0.18637E-03   -0.77450E-04 30662   0.997E-02    0.157E-01
DAV:   4    -0.243032483498E+03    0.33736E-04   -0.18360E-04 30000   0.434E-02    0.904E-02
DAV:   5    -0.243032478845E+03    0.46531E-05   -0.27272E-05 25568   0.189E-02
  16 F= -.24303248E+03 E0= -.24303248E+03  d E =-.411941E-02  mag=    20.0000
       N       E                     dE             d eps       ncg     rms          rms(c)
DAV:   1    -0.243033767837E+03   -0.12843E-02   -0.15070E-01 25726   0.139E+00    0.336E-01
DAV:   2    -0.243034366073E+03   -0.59824E-03   -0.78745E-03 28992   0.273E-01    0.178E-01
DAV:   3    -0.243034309271E+03    0.56801E-04   -0.37579E-04 30422   0.686E-02    0.957E-02
DAV:   4    -0.243034293292E+03    0.15980E-04   -0.76129E-05 29576   0.317E-02    0.534E-02
DAV:   5    -0.243034290069E+03    0.32224E-05   -0.10616E-05 19336   0.138E-02
  17 F= -.24303429E+03 E0= -.24303429E+03  d E =-.181122E-02  mag=    20.0000
       N       E                     dE             d eps       ncg     rms          rms(c)
DAV:   1    -0.243033713140E+03    0.58015E-03   -0.29380E-01 25932   0.206E+00    0.317E-01
DAV:   2    -0.243034970381E+03   -0.12572E-02   -0.14617E-02 28408   0.370E-01    0.188E-01
DAV:   3    -0.243034943678E+03    0.26702E-04   -0.56498E-04 30448   0.805E-02    0.103E-01
DAV:   4    -0.243034925295E+03    0.18383E-04   -0.12808E-04 30832   0.379E-02    0.500E-02
DAV:   5    -0.243034922561E+03    0.27347E-05   -0.13948E-05 19744   0.156E-02
  18 F= -.24303492E+03 E0= -.24303492E+03  d E =-.632491E-03  mag=    20.0000
       N       E                     dE             d eps       ncg     rms          rms(c)
DAV:   1    -0.243029544963E+03    0.53803E-02   -0.11828E+00 25904   0.431E+00    0.438E-01
DAV:   2    -0.243035350983E+03   -0.58060E-02   -0.60797E-02 27662   0.746E-01    0.207E-01
DAV:   3    -0.243035418047E+03   -0.67064E-04   -0.18318E-03 30760   0.134E-01    0.113E-01
DAV:   4    -0.243035346906E+03    0.71141E-04   -0.25699E-04 31398   0.587E-02    0.633E-02
DAV:   5    -0.243035335684E+03    0.11223E-04   -0.49575E-05 27616   0.298E-02    0.207E-02
DAV:   6    -0.243035335541E+03    0.14278E-06   -0.19885E-05 19296   0.161E-02
  19 F= -.24303534E+03 E0= -.24303534E+03  d E =-.412980E-03  mag=    20.0000
       N       E                     dE             d eps       ncg     rms          rms(c)
DAV:   1    -0.242980990956E+03    0.54345E-01   -0.10861E+01 25920   0.132E+01    0.132E+00
DAV:   2    -0.243037802221E+03   -0.56811E-01   -0.56781E-01 26832   0.229E+00    0.576E-01
DAV:   3    -0.243038714878E+03   -0.91266E-03   -0.16719E-02 30624   0.412E-01    0.301E-01
DAV:   4    -0.243038175327E+03    0.53955E-03   -0.17303E-03 31774   0.155E-01    0.185E-01
DAV:   5    -0.243037991581E+03    0.18375E-03   -0.43613E-04 30208   0.971E-02    0.600E-02
DAV:   6    -0.243037999603E+03   -0.80218E-05   -0.19626E-04 29752   0.483E-02    0.306E-02
DAV:   7    -0.243037999780E+03   -0.17778E-06   -0.15258E-05 19928   0.153E-02
  20 F= -.24303800E+03 E0= -.24303800E+03  d E =-.266424E-02  mag=    20.0000
       N       E                     dE             d eps       ncg     rms          rms(c)
DAV:   1    -0.242430374190E+03    0.60763E+00   -0.10669E+02 25632   0.417E+01    0.410E+00
DAV:   2    -0.243031948182E+03   -0.60157E+00   -0.59490E+00 26504   0.727E+00    0.187E+00
DAV:   3    -0.243044617742E+03   -0.12670E-01   -0.17411E-01 31312   0.129E+00    0.910E-01
DAV:   4    -0.243039404221E+03    0.52135E-02   -0.17394E-02 31352   0.473E-01    0.575E-01
DAV:   5    -0.243037721887E+03    0.16823E-02   -0.37692E-03 31096   0.284E-01    0.228E-01
DAV:   6    -0.243037792024E+03   -0.70138E-04   -0.16066E-03 29944   0.134E-01    0.857E-02
DAV:   7    -0.243037803471E+03   -0.11446E-04   -0.11870E-04 29256   0.388E-02    0.411E-02
DAV:   8    -0.243037796890E+03    0.65807E-05   -0.37032E-05 25976   0.273E-02
  21 F= -.24303780E+03 E0= -.24303780E+03  d E =0.202890E-03  mag=    20.0000
       N       E                     dE             d eps       ncg     rms          rms(c)
DAV:   1    -0.242561101783E+03    0.47670E+00   -0.76886E+01 26416   0.346E+01    0.499E+00
DAV:   2    -0.242963378640E+03   -0.40228E+00   -0.40670E+00 27468   0.606E+00    0.186E+00
DAV:   3    -0.242962279329E+03    0.10993E-02   -0.12553E-01 30088   0.118E+00    0.935E-01
DAV:   4    -0.242957918216E+03    0.43611E-02   -0.17437E-02 30856   0.470E-01    0.539E-01
DAV:   5    -0.242956786722E+03    0.11315E-02   -0.29890E-03 30504   0.230E-01    0.205E-01
DAV:   6    -0.242956803873E+03   -0.17151E-04   -0.12952E-03 31672   0.129E-01    0.100E-01
DAV:   7    -0.242956796511E+03    0.73615E-05   -0.14780E-04 30256   0.433E-02    0.431E-02
DAV:   8    -0.242956787758E+03    0.87538E-05   -0.47722E-05 27392   0.270E-02
  22 F= -.24295679E+03 E0= -.24295679E+03  d E =0.810091E-01  mag=    20.0000
       N       E                     dE             d eps       ncg     rms          rms(c)
DAV:   1    -0.242723458185E+03    0.23334E+00   -0.68923E+01 26632   0.326E+01    0.452E+00
DAV:   2    -0.243072909105E+03   -0.34945E+00   -0.35321E+00 28018   0.567E+00    0.183E+00
DAV:   3    -0.243073299625E+03   -0.39052E-03   -0.10706E-01 30368   0.107E+00    0.111E+00
DAV:   4    -0.243069352889E+03    0.39467E-02   -0.13331E-02 31008   0.413E-01    0.746E-01
DAV:   5    -0.243067891350E+03    0.14615E-02   -0.31144E-03 30272   0.254E-01    0.228E-01
DAV:   6    -0.243068009140E+03   -0.11779E-03   -0.16322E-03 29776   0.147E-01    0.925E-02
DAV:   7    -0.243068003274E+03    0.58668E-05   -0.16824E-04 29232   0.481E-02    0.488E-02
DAV:   8    -0.243067994691E+03    0.85825E-05   -0.42432E-05 27624   0.231E-02
  23 F= -.24306799E+03 E0= -.24306799E+03  d E =-.111207E+00  mag=    20.0000
       N       E                     dE             d eps       ncg     rms          rms(c)
DAV:   1    -0.243054031770E+03    0.13972E-01   -0.37241E+00 25632   0.768E+00    0.892E-01
DAV:   2    -0.243074471646E+03   -0.20440E-01   -0.20450E-01 27068   0.134E+00    0.397E-01
DAV:   3    -0.243074744174E+03   -0.27253E-03   -0.62148E-03 30336   0.251E-01    0.222E-01
DAV:   4    -0.243074532927E+03    0.21125E-03   -0.82340E-04 30888   0.107E-01    0.135E-01
DAV:   5    -0.243074494937E+03    0.37990E-04   -0.16732E-04 30976   0.540E-02    0.450E-02
DAV:   6    -0.243074497204E+03   -0.22671E-05   -0.60992E-05 28272   0.278E-02
  24 F= -.24307450E+03 E0= -.24307450E+03  d E =-.650251E-02  mag=    20.0000
       N       E                     dE             d eps       ncg     rms          rms(c)
DAV:   1    -0.242983790385E+03    0.90705E-01   -0.19619E+01 26176   0.176E+01    0.151E+00
DAV:   2    -0.243085622819E+03   -0.10183E+00   -0.10088E+00 25898   0.301E+00    0.751E-01
DAV:   3    -0.243087609808E+03   -0.19870E-02   -0.28755E-02 30056   0.522E-01    0.394E-01
DAV:   4    -0.243086710868E+03    0.89894E-03   -0.32472E-03 31320   0.198E-01    0.257E-01
DAV:   5    -0.243086396402E+03    0.31447E-03   -0.75967E-04 30176   0.126E-01    0.894E-02
DAV:   6    -0.243086412850E+03   -0.16448E-04   -0.33893E-04 29912   0.632E-02    0.364E-02
DAV:   7    -0.243086417432E+03   -0.45824E-05   -0.29159E-05 22880   0.189E-02
  25 F= -.24308642E+03 E0= -.24308642E+03  d E =-.119202E-01  mag=    20.0000
       N       E                     dE             d eps       ncg     rms          rms(c)
DAV:   1    -0.242864985046E+03    0.22143E+00   -0.50872E+01 25632   0.262E+01    0.270E+00
DAV:   2    -0.243087512265E+03   -0.22253E+00   -0.22684E+00 26712   0.452E+00    0.120E+00
DAV:   3    -0.243087930786E+03   -0.41852E-03   -0.58170E-02 29864   0.789E-01    0.618E-01
DAV:   4    -0.243085288043E+03    0.26427E-02   -0.10505E-02 30560   0.377E-01    0.350E-01
DAV:   5    -0.243084895783E+03    0.39226E-03   -0.17863E-03 31016   0.170E-01    0.136E-01
DAV:   6    -0.243084907566E+03   -0.11783E-04   -0.71192E-04 29880   0.920E-02    0.647E-02
DAV:   7    -0.243084912798E+03   -0.52315E-05   -0.60417E-05 28448   0.280E-02
  26 F= -.24308491E+03 E0= -.24308491E+03  d E =0.150463E-02  mag=    20.0000
       N       E                     dE             d eps       ncg     rms          rms(c)
DAV:   1    -0.242987880670E+03    0.97027E-01   -0.20850E+01 25632   0.177E+01    0.216E+00
DAV:   2    -0.243094149246E+03   -0.10627E+00   -0.10769E+00 26612   0.310E+00    0.874E-01
DAV:   3    -0.243094870866E+03   -0.72162E-03   -0.31811E-02 29776   0.578E-01    0.446E-01
DAV:   4    -0.243093722024E+03    0.11488E-02   -0.47818E-03 31192   0.251E-01    0.252E-01
DAV:   5    -0.243093501931E+03    0.22009E-03   -0.77724E-04 30728   0.119E-01    0.103E-01
DAV:   6    -0.243093513441E+03   -0.11510E-04   -0.32821E-04 30568   0.610E-02    0.461E-02
DAV:   7    -0.243093513623E+03   -0.18190E-06   -0.24298E-05 22056   0.188E-02
  27 F= -.24309351E+03 E0= -.24309351E+03  d E =-.860083E-02  mag=    20.0000
       N       E                     dE             d eps       ncg     rms          rms(c)
DAV:   1    -0.243082562941E+03    0.10951E-01   -0.14615E+00 25928   0.498E+00    0.791E-01
DAV:   2    -0.243091366555E+03   -0.88036E-02   -0.91421E-02 27872   0.913E-01    0.367E-01
DAV:   3    -0.243091311433E+03    0.55123E-04   -0.32863E-03 29856   0.194E-01    0.209E-01
DAV:   4    -0.243091183893E+03    0.12754E-03   -0.48462E-04 31736   0.835E-02    0.117E-01
DAV:   5    -0.243091150448E+03    0.33445E-04   -0.92276E-05 29112   0.431E-02    0.334E-02
DAV:   6    -0.243091151454E+03   -0.10060E-05   -0.51156E-05 27656   0.254E-02
  28 F= -.24309115E+03 E0= -.24309115E+03  d E =0.236217E-02  mag=    20.0000
       N       E                     dE             d eps       ncg     rms          rms(c)
DAV:   1    -0.243091959982E+03   -0.80953E-03   -0.62335E-01 25632   0.277E+00    0.411E-01
DAV:   2    -0.243094416203E+03   -0.24562E-02   -0.25918E-02 27720   0.485E-01    0.176E-01
DAV:   3    -0.243094346064E+03    0.70139E-04   -0.77020E-04 30048   0.979E-02    0.970E-02
DAV:   4    -0.243094311498E+03    0.34566E-04   -0.14878E-04 31120   0.456E-02    0.532E-02
DAV:   5    -0.243094303493E+03    0.80050E-05   -0.22603E-05 24264   0.206E-02
  29 F= -.24309430E+03 E0= -.24309430E+03  d E =-.315204E-02  mag=    20.0000
       N       E                     dE             d eps       ncg     rms          rms(c)
DAV:   1    -0.243093476710E+03    0.83479E-03   -0.61352E-01 25632   0.274E+00    0.253E-01
DAV:   2    -0.243095883936E+03   -0.24072E-02   -0.24123E-02 27384   0.455E-01    0.120E-01
DAV:   3    -0.243095899494E+03   -0.15558E-04   -0.61734E-04 30800   0.790E-02    0.636E-02
DAV:   4    -0.243095870057E+03    0.29437E-04   -0.10206E-04 30200   0.378E-02    0.360E-02
DAV:   5    -0.243095865685E+03    0.43715E-05   -0.19205E-05 20288   0.182E-02
  30 F= -.24309587E+03 E0= -.24309587E+03  d E =-.156219E-02  mag=    20.0000
       N       E                     dE             d eps       ncg     rms          rms(c)
DAV:   1    -0.242623433712E+03    0.47244E+00   -0.11199E+02 26208   0.377E+01    0.365E+00
DAV:   2    -0.243088365691E+03   -0.46493E+00   -0.46158E+00 27188   0.627E+00    0.157E+00
DAV:   3    -0.243090506580E+03   -0.21409E-02   -0.12114E-01 30496   0.110E+00    0.891E-01
DAV:   4    -0.243085548103E+03    0.49585E-02   -0.14007E-02 31352   0.409E-01    0.605E-01
DAV:   5    -0.243083585202E+03    0.19629E-02   -0.35746E-03 30192   0.264E-01    0.224E-01
DAV:   6    -0.243083641693E+03   -0.56492E-04   -0.17555E-03 29240   0.137E-01    0.792E-02
DAV:   7    -0.243083657488E+03   -0.15795E-04   -0.11527E-04 29512   0.401E-02    0.416E-02
DAV:   8    -0.243083655275E+03    0.22130E-05   -0.24718E-05 22952   0.200E-02
  31 F= -.24308366E+03 E0= -.24308366E+03  d E =0.122104E-01  mag=    20.0000
       N       E                     dE             d eps       ncg     rms          rms(c)
DAV:   1    -0.243062921304E+03    0.20736E-01   -0.99509E+00 25632   0.111E+01    0.193E+00
DAV:   2    -0.243101510908E+03   -0.38590E-01   -0.42345E-01 28328   0.202E+00    0.754E-01
DAV:   3    -0.243099924862E+03    0.15860E-02   -0.13986E-02 29872   0.417E-01    0.455E-01
DAV:   4    -0.243099298994E+03    0.62587E-03   -0.19261E-03 31296   0.175E-01    0.243E-01
DAV:   5    -0.243099034063E+03    0.26493E-03   -0.45709E-04 29936   0.106E-01    0.736E-02
DAV:   6    -0.243099040216E+03   -0.61537E-05   -0.31637E-04 30112   0.626E-02    0.440E-02
DAV:   7    -0.243099038695E+03    0.15216E-05   -0.29564E-05 25024   0.197E-02
  32 F= -.24309904E+03 E0= -.24309904E+03  d E =-.153834E-01  mag=    20.0000
       N       E                     dE             d eps       ncg     rms          rms(c)
DAV:   1    -0.243065394685E+03    0.33646E-01   -0.92255E+00 25936   0.110E+01    0.142E+00
DAV:   2    -0.243105396004E+03   -0.40001E-01   -0.40067E-01 27896   0.186E+00    0.546E-01
DAV:   3    -0.243105246239E+03    0.14976E-03   -0.11683E-02 30048   0.358E-01    0.283E-01
DAV:   4    -0.243104777374E+03    0.46887E-03   -0.17127E-03 32040   0.155E-01    0.164E-01
DAV:   5    -0.243104670884E+03    0.10649E-03   -0.33907E-04 29440   0.759E-02    0.563E-02
DAV:   6    -0.243104675105E+03   -0.42212E-05   -0.13297E-04 30000   0.402E-02    0.330E-02
DAV:   7    -0.243104674294E+03    0.81092E-06   -0.97619E-06 18144   0.135E-02
  33 F= -.24310467E+03 E0= -.24310467E+03  d E =-.563560E-02  mag=    20.0000
       N       E                     dE             d eps       ncg     rms          rms(c)
DAV:   1    -0.243099021471E+03    0.56536E-02   -0.19923E+00 25328   0.450E+00    0.552E-01
DAV:   2    -0.243105142525E+03   -0.61211E-02   -0.64243E-02 27736   0.738E-01    0.236E-01
DAV:   3    -0.243104974560E+03    0.16796E-03   -0.15801E-03 30312   0.138E-01    0.126E-01
DAV:   4    -0.243104887587E+03    0.86974E-04   -0.35543E-04 31104   0.707E-02    0.750E-02
DAV:   5    -0.243104879061E+03    0.85258E-05   -0.59903E-05 28768   0.291E-02
  34 F= -.24310488E+03 E0= -.24310488E+03  d E =-.204767E-03  mag=    20.0000
       N       E                     dE             d eps       ncg     rms          rms(c)
DAV:   1    -0.243095535482E+03    0.93521E-02   -0.19933E+00 25728   0.503E+00    0.540E-01
DAV:   2    -0.243103420981E+03   -0.78855E-02   -0.80733E-02 26718   0.842E-01    0.216E-01
DAV:   3    -0.243103407512E+03    0.13469E-04   -0.20851E-03 29776   0.149E-01    0.120E-01
DAV:   4    -0.243103306956E+03    0.10056E-03   -0.28282E-04 31552   0.643E-02    0.728E-02
DAV:   5    -0.243103287122E+03    0.19834E-04   -0.80391E-05 28920   0.362E-02    0.217E-02
DAV:   6    -0.243103288230E+03   -0.11079E-05   -0.22812E-05 22224   0.174E-02
  35 F= -.24310329E+03 E0= -.24310329E+03  d E =0.159083E-02  mag=    20.0000
       N       E                     dE             d eps       ncg     rms          rms(c)
DAV:   1    -0.243094122054E+03    0.91651E-02   -0.16141E+00 25584   0.454E+00    0.408E-01
DAV:   2    -0.243100680106E+03   -0.65581E-02   -0.69318E-02 26024   0.772E-01    0.203E-01
DAV:   3    -0.243100664291E+03    0.15814E-04   -0.15270E-03 30864   0.126E-01    0.119E-01
DAV:   4    -0.243100574062E+03    0.90229E-04   -0.29161E-04 30880   0.671E-02    0.613E-02
DAV:   5    -0.243100570998E+03    0.30642E-05   -0.71495E-05 28472   0.290E-02
  36 F= -.24310057E+03 E0= -.24310057E+03  d E =0.271723E-02  mag=    20.0000
       N       E                     dE             d eps       ncg     rms          rms(c)
DAV:   1    -0.243028854774E+03    0.71719E-01   -0.15335E+01 25584   0.139E+01    0.125E+00
DAV:   2    -0.243093116910E+03   -0.64262E-01   -0.68473E-01 25810   0.237E+00    0.614E-01
DAV:   3    -0.243093009505E+03    0.10741E-03   -0.14895E-02 31248   0.387E-01    0.344E-01
DAV:   4    -0.243092251018E+03    0.75849E-03   -0.27349E-03 30696   0.198E-01    0.180E-01
DAV:   5    -0.243092194886E+03    0.56132E-04   -0.52597E-04 30144   0.828E-02    0.631E-02
DAV:   6    -0.243092195329E+03   -0.44296E-06   -0.18839E-04 30856   0.450E-02    0.319E-02
DAV:   7    -0.243092196270E+03   -0.94096E-06   -0.15447E-05 20120   0.142E-02
  37 F= -.24309220E+03 E0= -.24309220E+03  d E =0.837473E-02  mag=    20.0000
       N       E                     dE             d eps       ncg     rms          rms(c)
DAV:   1    -0.242864475558E+03    0.22772E+00   -0.60324E+01 25040   0.256E+01    0.234E+00
DAV:   2    -0.243079902090E+03   -0.21543E+00   -0.23276E+00 26716   0.433E+00    0.132E+00
DAV:   3    -0.243077490966E+03    0.24111E-02   -0.51696E-02 30096   0.742E-01    0.854E-01
DAV:   4    -0.243074043148E+03    0.34478E-02   -0.11047E-02 31152   0.385E-01    0.516E-01
DAV:   5    -0.243073796055E+03    0.24709E-03   -0.29251E-03 29512   0.190E-01    0.182E-01
DAV:   6    -0.243073747007E+03    0.49049E-04   -0.10524E-03 30512   0.114E-01    0.903E-02
DAV:   7    -0.243073746301E+03    0.70621E-06   -0.14462E-04 28496   0.369E-02    0.409E-02
DAV:   8    -0.243073735927E+03    0.10374E-04   -0.24791E-05 23264   0.206E-02    0.237E-02
DAV:   9    -0.243073736062E+03   -0.13489E-06   -0.98230E-06 17336   0.989E-03
  38 F= -.24307374E+03 E0= -.24307374E+03  d E =0.184602E-01  mag=    20.0000
       N       E                     dE             d eps       ncg     rms          rms(c)
DAV:   1    -0.243052180612E+03    0.21555E-01   -0.93036E+00 25584   0.102E+01    0.156E+00
DAV:   2    -0.243085381346E+03   -0.33201E-01   -0.34971E-01 28328   0.176E+00    0.573E-01
DAV:   3    -0.243084357279E+03    0.10241E-02   -0.97829E-03 29440   0.351E-01    0.312E-01
DAV:   4    -0.243083935731E+03    0.42155E-03   -0.18376E-03 31248   0.161E-01    0.179E-01
DAV:   5    -0.243083817149E+03    0.11858E-03   -0.29899E-04 29712   0.731E-02    0.614E-02
DAV:   6    -0.243083815398E+03    0.17509E-05   -0.15553E-04 29776   0.450E-02    0.338E-02
DAV:   7    -0.243083815084E+03    0.31364E-06   -0.13803E-05 19688   0.153E-02
  39 F= -.24308382E+03 E0= -.24308382E+03  d E =-.100790E-01  mag=    20.0000
       N       E                     dE             d eps       ncg     rms          rms(c)
DAV:   1    -0.243059744724E+03    0.24071E-01   -0.99822E+00 25040   0.974E+00    0.165E+00
DAV:   2    -0.243087865973E+03   -0.28121E-01   -0.32008E-01 28312   0.167E+00    0.770E-01
DAV:   3    -0.243086274042E+03    0.15919E-02   -0.10032E-02 30192   0.367E-01    0.413E-01
DAV:   4    -0.243085988947E+03    0.28510E-03   -0.24847E-03 30640   0.175E-01    0.259E-01
DAV:   5    -0.243085956947E+03    0.31999E-04   -0.26836E-04 29960   0.633E-02    0.955E-02
DAV:   6    -0.243085947228E+03    0.97190E-05   -0.16163E-04 30384   0.459E-02    0.439E-02
DAV:   7    -0.243085945282E+03    0.19464E-05   -0.21876E-05 22464   0.183E-02
  40 F= -.24308595E+03 E0= -.24308595E+03  d E =-.213020E-02  mag=    20.0000
       N       E                     dE             d eps       ncg     rms          rms(c)
DAV:   1    -0.243075085834E+03    0.10861E-01   -0.16360E+00 25568   0.451E+00    0.130E+00
DAV:   2    -0.243083107488E+03   -0.80217E-02   -0.94697E-02 28560   0.926E-01    0.518E-01
DAV:   3    -0.243082210840E+03    0.89665E-03   -0.39170E-03 29744   0.228E-01    0.273E-01
DAV:   4    -0.243082081129E+03    0.12971E-03   -0.59220E-04 30400   0.904E-02    0.133E-01
DAV:   5    -0.243082024067E+03    0.57062E-04   -0.12382E-04 29472   0.489E-02    0.424E-02
DAV:   6    -0.243082024422E+03   -0.35448E-06   -0.72271E-05 28984   0.286E-02
  41 F= -.24308202E+03 E0= -.24308202E+03  d E =0.392086E-02  mag=    20.0000
       N       E                     dE             d eps       ncg     rms          rms(c)
DAV:   1    -0.243083939824E+03   -0.19158E-02   -0.15539E+00 25048   0.382E+00    0.928E-01
DAV:   2    -0.243088654823E+03   -0.47150E-02   -0.57749E-02 29168   0.702E-01    0.421E-01
DAV:   3    -0.243088186073E+03    0.46875E-03   -0.22278E-03 29600   0.168E-01    0.230E-01
DAV:   4    -0.243088102825E+03    0.83248E-04   -0.47765E-04 30304   0.728E-02    0.137E-01
DAV:   5    -0.243088092954E+03    0.98711E-05   -0.70647E-05 28792   0.312E-02
  42 F= -.24308809E+03 E0= -.24308809E+03  d E =-.606853E-02  mag=    20.0000
       N       E                     dE             d eps       ncg     rms          rms(c)
DAV:   1    -0.243085800119E+03    0.23027E-02   -0.69472E-01 25456   0.275E+00    0.218E-01
DAV:   2    -0.243087989664E+03   -0.21895E-02   -0.22573E-02 27600   0.449E-01    0.112E-01
DAV:   3    -0.243087974159E+03    0.15504E-04   -0.53674E-04 30808   0.747E-02    0.660E-02
DAV:   4    -0.243087936570E+03    0.37589E-04   -0.10950E-04 30376   0.409E-02    0.361E-02
DAV:   5    -0.243087934421E+03    0.21493E-05   -0.32031E-05 24608   0.203E-02
  43 F= -.24308793E+03 E0= -.24308793E+03  d E =0.158533E-03  mag=    20.0000
       N       E                     dE             d eps       ncg     rms          rms(c)
DAV:   1    -0.242771371522E+03    0.31657E+00   -0.67028E+01 25360   0.286E+01    0.327E+00
DAV:   2    -0.243045412163E+03   -0.27404E+00   -0.29304E+00 27566   0.504E+00    0.168E+00
DAV:   3    -0.243042574649E+03    0.28375E-02   -0.75734E-02 30592   0.908E-01    0.105E+00
DAV:   4    -0.243038326324E+03    0.42483E-02   -0.13252E-02 31888   0.438E-01    0.632E-01
DAV:   5    -0.243037768806E+03    0.55752E-03   -0.34481E-03 29560   0.224E-01    0.184E-01
DAV:   6    -0.243037749254E+03    0.19552E-04   -0.12892E-03 31088   0.134E-01    0.867E-02
DAV:   7    -0.243037750528E+03   -0.12738E-05   -0.17990E-04 28448   0.437E-02    0.403E-02
DAV:   8    -0.243037738491E+03    0.12037E-04   -0.31799E-05 24784   0.240E-02    0.248E-02
DAV:   9    -0.243037739007E+03   -0.51585E-06   -0.13549E-05 18704   0.124E-02
  44 F= -.24303774E+03 E0= -.24303774E+03  d E =0.501954E-01  mag=    20.0000
       N       E                     dE             d eps       ncg     rms          rms(c)
DAV:   1    -0.242947074229E+03    0.90664E-01   -0.44771E+01 24776   0.198E+01    0.334E+00
DAV:   2    -0.243074885769E+03   -0.12781E+00   -0.14343E+00 27868   0.336E+00    0.125E+00
DAV:   3    -0.243068627215E+03    0.62586E-02   -0.36313E-02 29880   0.656E-01    0.716E-01
DAV:   4    -0.243066833261E+03    0.17940E-02   -0.69492E-03 30872   0.300E-01    0.448E-01
DAV:   5    -0.243066264252E+03    0.56901E-03   -0.11032E-03 29856   0.146E-01    0.161E-01
DAV:   6    -0.243066266321E+03   -0.20690E-05   -0.82093E-04 30936   0.106E-01    0.750E-02
DAV:   7    -0.243066273530E+03   -0.72085E-05   -0.12250E-04 28896   0.371E-02    0.326E-02
DAV:   8    -0.243066269219E+03    0.43103E-05   -0.34382E-05 23864   0.202E-02
  45 F= -.24306627E+03 E0= -.24306627E+03  d E =-.285302E-01  mag=    20.0000
       N       E                     dE             d eps       ncg     rms          rms(c)
DAV:   1    -0.242902252671E+03    0.16402E+00   -0.49216E+01 25304   0.238E+01    0.307E+00
DAV:   2    -0.243083027177E+03   -0.18077E+00   -0.19603E+00 27728   0.408E+00    0.164E+00
DAV:   3    -0.243079249140E+03    0.37780E-02   -0.56866E-02 30520   0.803E-01    0.828E-01
DAV:   4    -0.243077324029E+03    0.19251E-02   -0.11494E-02 31104   0.400E-01    0.374E-01
DAV:   5    -0.243077330572E+03   -0.65428E-05   -0.17294E-03 29968   0.145E-01    0.180E-01
DAV:   6    -0.243077322167E+03    0.84057E-05   -0.49946E-04 30656   0.747E-02    0.816E-02
DAV:   7    -0.243077317501E+03    0.46653E-05   -0.66382E-05 28464   0.286E-02
  46 F= -.24307732E+03 E0= -.24307732E+03  d E =-.110483E-01  mag=    20.0000
       N       E                     dE             d eps       ncg     rms          rms(c)
DAV:   1    -0.243040672888E+03    0.36649E-01   -0.14501E+01 24776   0.118E+01    0.158E+00
DAV:   2    -0.243085570166E+03   -0.44897E-01   -0.49912E-01 27740   0.199E+00    0.706E-01
DAV:   3    -0.243083912407E+03    0.16578E-02   -0.11635E-02 29944   0.357E-01    0.404E-01
DAV:   4    -0.243083278273E+03    0.63413E-03   -0.24290E-03 30720   0.174E-01    0.248E-01
DAV:   5    -0.243083186291E+03    0.91981E-04   -0.39581E-04 30368   0.752E-02    0.759E-02
DAV:   6    -0.243083194807E+03   -0.85158E-05   -0.20461E-04 30968   0.498E-02    0.346E-02
DAV:   7    -0.243083194716E+03    0.91284E-07   -0.23603E-05 23728   0.176E-02
  47 F= -.24308319E+03 E0= -.24308319E+03  d E =-.587721E-02  mag=    20.0000
       N       E                     dE             d eps       ncg     rms          rms(c)
DAV:   1    -0.242983022187E+03    0.10017E+00   -0.28428E+01 25144   0.180E+01    0.175E+00
DAV:   2    -0.243087129739E+03   -0.10411E+00   -0.11321E+00 27510   0.306E+00    0.101E+00
DAV:   3    -0.243086105961E+03    0.10238E-02   -0.27526E-02 30568   0.534E-01    0.624E-01
DAV:   4    -0.243084533625E+03    0.15723E-02   -0.63239E-03 31040   0.288E-01    0.328E-01
DAV:   5    -0.243084469309E+03    0.64316E-04   -0.12283E-03 29728   0.126E-01    0.121E-01
DAV:   6    -0.243084458650E+03    0.10659E-04   -0.54110E-04 30488   0.771E-02    0.553E-02
DAV:   7    -0.243084455447E+03    0.32025E-05   -0.54167E-05 27104   0.251E-02
  48 F= -.24308446E+03 E0= -.24308446E+03  d E =-.126073E-02  mag=    20.0000
       N       E                     dE             d eps       ncg     rms          rms(c)
DAV:   1    -0.243069864984E+03    0.14594E-01   -0.17613E+00 26160   0.455E+00    0.123E+00
DAV:   2    -0.243076838519E+03   -0.69735E-02   -0.87191E-02 29048   0.889E-01    0.508E-01
DAV:   3    -0.243075920733E+03    0.91779E-03   -0.39401E-03 29296   0.219E-01    0.278E-01
DAV:   4    -0.243075743227E+03    0.17751E-03   -0.55640E-04 31168   0.916E-02    0.137E-01
DAV:   5    -0.243075672264E+03    0.70963E-04   -0.13328E-04 29320   0.525E-02    0.388E-02
DAV:   6    -0.243075672670E+03   -0.40562E-06   -0.91954E-05 30096   0.328E-02
  49 F= -.24307567E+03 E0= -.24307567E+03  d E =0.878278E-02  mag=    20.0000
       N       E                     dE             d eps       ncg     rms          rms(c)
DAV:   1    -0.243076584914E+03   -0.91265E-03   -0.34451E+00 25176   0.593E+00    0.108E+00
DAV:   2    -0.243087671859E+03   -0.11087E-01   -0.12933E-01 27992   0.106E+00    0.436E-01
DAV:   3    -0.243086925980E+03    0.74588E-03   -0.39737E-03 29832   0.217E-01    0.243E-01
DAV:   4    -0.243086737495E+03    0.18849E-03   -0.59747E-04 30728   0.949E-02    0.128E-01
DAV:   5    -0.243086674017E+03    0.63477E-04   -0.12300E-04 29536   0.506E-02    0.375E-02
DAV:   6    -0.243086674472E+03   -0.45497E-06   -0.82005E-05 29464   0.323E-02
  50 F= -.24308667E+03 E0= -.24308667E+03  d E =-.110018E-01  mag=    20.0000
       N       E                     dE             d eps       ncg     rms          rms(c)
DAV:   1    -0.243086586171E+03    0.87846E-04   -0.41142E-02 25636   0.724E-01    0.633E-02
DAV:   2    -0.243086749719E+03   -0.16355E-03   -0.16361E-03 27912   0.121E-01    0.328E-02
DAV:   3    -0.243086750810E+03   -0.10913E-05   -0.41371E-05 23680   0.209E-02    0.190E-02
DAV:   4    -0.243086748800E+03    0.20104E-05   -0.59789E-06 16168   0.104E-02
  51 F= -.24308675E+03 E0= -.24308675E+03  d E =-.743275E-04  mag=    20.0000
