       N       E                     dE             d eps       ncg     rms          ort
DAV:   1     0.267133326416E+04    0.26713E+04   -0.14768E+05  6336   0.155E+03
DAV:   2    -0.226412991706E+03   -0.28977E+04   -0.27845E+04  6336   0.433E+02
DAV:   3    -0.505633401350E+03   -0.27922E+03   -0.27342E+03  6336   0.149E+02
DAV:   4    -0.519816397666E+03   -0.14183E+02   -0.13982E+02  6336   0.360E+01
DAV:   5    -0.520908013792E+03   -0.10916E+01   -0.10856E+01  6336   0.659E+00
SDA:   6    -0.345930110450E+03    0.17498E+03   -0.10856E+01  6336   0.681E+03 0.000E+00
CGA:   7    -0.390528495638E+03   -0.44598E+02   -0.58848E+02  6336   0.200E+03 0.103E+03
CGA:   8    -0.407863302730E+03   -0.17335E+02   -0.13756E+02  6336   0.146E+03-0.176E+03
CGA:   9    -0.404985319162E+03    0.28780E+01   -0.10341E+02  6336   0.104E+03-0.859E+01
CGA:  10    -0.416393626193E+03   -0.11408E+02   -0.41489E+01  6336   0.539E+02-0.810E+02
CGA:  11    -0.415383280551E+03    0.10103E+01   -0.20805E+01  6336   0.242E+03-0.151E+03
CGA:  12    -0.414132244692E+03    0.12510E+01   -0.18109E+02  6336   0.213E+03-0.570E+02
CGA:  13    -0.413254888542E+03    0.87736E+00   -0.11511E+02  6336   0.816E+02 0.123E+02
CGA:  14    -0.409541084541E+03    0.37138E+01   -0.47059E+01  6336   0.776E+02-0.411E+02
CGA:  15    -0.412059561672E+03   -0.25185E+01   -0.35607E+01  6336   0.203E+03 0.654E+01
CGA:  16    -0.413051541568E+03   -0.99198E+00   -0.13114E+02  6336   0.142E+03-0.435E+02
CGA:  17    -0.418626401017E+03   -0.55749E+01   -0.75698E+01  6336   0.819E+01-0.173E+01
CGA:  18    -0.419937751310E+03   -0.13114E+01   -0.11036E+01  6336   0.389E+02-0.286E+02
CGA:  19    -0.420738806039E+03   -0.80105E+00   -0.24888E+01  6336   0.136E+02-0.120E+02
CGA:  20    -0.420966839553E+03   -0.22803E+00   -0.10353E+00  6336   0.151E+02 0.119E+02
CGA:  21    -0.421438056978E+03   -0.47122E+00   -0.19216E+00  6336   0.165E+02 0.226E+02
CGA:  22    -0.421893018772E+03   -0.45496E+00   -0.24147E+00  6336   0.523E+01 0.110E+02
CGA:  23    -0.422039768847E+03   -0.14675E+00   -0.11185E+00  6336   0.339E+01 0.135E+01
CGA:  24    -0.422577318053E+03   -0.53755E+00   -0.54363E+00  6336   0.134E+02-0.322E+00
CGA:  25    -0.422608624663E+03   -0.31307E-01   -0.25278E+00  6336   0.262E+02-0.125E+02
CGA:  26    -0.423174202221E+03   -0.56558E+00   -0.11453E+01  6336   0.927E+01-0.961E+01
CGA:  27    -0.423319229240E+03   -0.14503E+00   -0.15939E+00  6336   0.399E+01-0.880E+00
CGA:  28    -0.423461332083E+03   -0.14210E+00   -0.92260E-01  6336   0.146E+01 0.175E+01
CGA:  29    -0.423528347664E+03   -0.67016E-01   -0.61507E-01  6336   0.990E+00 0.190E+00
CGA:  30    -0.423654257035E+03   -0.12591E+00   -0.13828E+00  6336   0.574E+01-0.325E+00
CGA:  31    -0.423709677528E+03   -0.55420E-01   -0.36155E-01  6336   0.606E+01 0.195E+01
CGA:  32    -0.423864036247E+03   -0.15436E+00   -0.11892E+00  6336   0.229E+01 0.156E+01
CGA:  33    -0.423902119534E+03   -0.38083E-01   -0.31315E-01  6336   0.110E+01 0.401E+00
CGA:  34    -0.423917024548E+03   -0.14905E-01   -0.13065E-01  6336   0.870E+00 0.900E-01
CGA:  35    -0.423927191949E+03   -0.10167E-01   -0.14842E-01  6336   0.125E+01-0.246E+00
CGA:  36    -0.423945485331E+03   -0.18293E-01   -0.25147E-01  6336   0.188E+01-0.115E+00
CGA:  37    -0.423994770444E+03   -0.49285E-01   -0.46637E-01  6336   0.377E+00 0.190E+00
CGA:  38    -0.424005744820E+03   -0.10974E-01   -0.96185E-02  6336   0.154E+00 0.629E-01
CGA:  39    -0.424011943527E+03   -0.61987E-02   -0.57246E-02  6336   0.195E+00 0.182E-01
CGA:  40    -0.424022459808E+03   -0.10516E-01   -0.10544E-01  6336   0.471E+00 0.203E-02
CGA:  41    -0.424037112824E+03   -0.14653E-01   -0.16059E-01  6336   0.319E+00-0.222E-01
CGA:  42    -0.424043801317E+03   -0.66885E-02   -0.85702E-02  6336   0.939E-01-0.549E-01
CGA:  43    -0.424046969299E+03   -0.31680E-02   -0.31622E-02  6336   0.766E-01-0.646E-02
CGA:  44    -0.424056816785E+03   -0.98475E-02   -0.11529E-01  6336   0.218E+00-0.189E-01
CGA:  45    -0.424060768746E+03   -0.39520E-02   -0.42746E-02  6336   0.435E-01-0.130E-01
CGA:  46    -0.424063420368E+03   -0.26516E-02   -0.26524E-02  6336   0.540E-01 0.253E-02
CGA:  47    -0.424065224759E+03   -0.18044E-02   -0.17229E-02  6336   0.500E-01 0.147E-02
CGA:  48    -0.424070434043E+03   -0.52093E-02   -0.54243E-02  6336   0.114E+00-0.433E-02
CGA:  49    -0.424072155882E+03   -0.17218E-02   -0.15963E-02  6336   0.279E-01 0.108E-01
CGA:  50    -0.424072920763E+03   -0.76488E-03   -0.76057E-03  6336   0.337E-01-0.212E-03
CGA:  51    -0.424074273637E+03   -0.13529E-02   -0.13527E-02  6336   0.297E-01-0.240E-02
CGA:  52    -0.424074906253E+03   -0.63262E-03   -0.61528E-03  6336   0.275E-01-0.177E-02
CGA:  53    -0.424076971799E+03   -0.20655E-02   -0.19524E-02  6336   0.552E-01 0.643E-02
CGA:  54    -0.424077978111E+03   -0.10063E-02   -0.10409E-02  6336   0.906E-02 0.142E-01
CGA:  55    -0.424078293777E+03   -0.31567E-03   -0.38595E-03  6336   0.123E-01 0.344E-02
SDA:  56    -0.424078703799E+03   -0.41002E-03   -0.49325E-03  6336   0.736E-02 0.381E-02
CGA:  57    -0.424079449091E+03   -0.74529E-03   -0.12394E-02  6336   0.499E-01-0.421E-02
CGA:  58    -0.424080148747E+03   -0.69966E-03   -0.80087E-03  6336   0.792E-02 0.194E-02
CGA:  59    -0.424080618191E+03   -0.46944E-03   -0.47093E-03  6336   0.367E-02 0.236E-02
CGA:  60    -0.424080866863E+03   -0.24867E-03   -0.25060E-03  6336   0.109E-01 0.326E-03
CGA:  61    -0.424082240211E+03   -0.13733E-02   -0.12271E-02  6336   0.195E-01 0.343E-02
CGA:  62    -0.424083112812E+03   -0.87260E-03   -0.79014E-03  6336   0.327E-01 0.323E-02
CGA:  63    -0.424084212486E+03   -0.10997E-02   -0.98467E-03  6336   0.470E-01 0.164E-02
CGA:  64    -0.424084939474E+03   -0.72699E-03   -0.89212E-03  6336   0.132E-01-0.114E-01
CGA:  65    -0.424085113909E+03   -0.17443E-03   -0.18401E-03  6336   0.122E-01-0.127E-02
CGA:  66    -0.424086010531E+03   -0.89662E-03   -0.80569E-03  6336   0.186E-01 0.448E-02
CGA:  67    -0.424086401965E+03   -0.39143E-03   -0.39167E-03  6336   0.659E-02 0.535E-02
CGA:  68    -0.424087089701E+03   -0.68774E-03   -0.98599E-03  6336   0.901E-01-0.505E-02
CGA:  69    -0.424088436209E+03   -0.13465E-02   -0.12919E-02  6336   0.367E-02-0.195E-02
CGA:  70    -0.424088826689E+03   -0.39048E-03    0.45542E-02  6336   0.299E-02 0.315E-02
CGA:  71    -0.424089149843E+03   -0.32315E-03    0.53347E-02  6336   0.304E-02 0.268E-02
CGA:  72    -0.424089473003E+03   -0.32316E-03   -0.32116E-03  6336   0.187E-01 0.220E-04
CGA:  73    -0.424092029437E+03   -0.25564E-02   -0.38358E-02  6336   0.369E-01-0.972E-02
CGA:  74    -0.424092622746E+03   -0.59331E-03   -0.56850E-03  6336   0.473E-02-0.869E-03
CGA:  75    -0.424094126304E+03   -0.15036E-02   -0.12415E-02  6336   0.868E-02 0.121E-02
CGA:  76    -0.424094437792E+03   -0.31149E-03   -0.29165E-03  6336   0.501E-02-0.715E-03
CGA:  77    -0.424094860925E+03   -0.42313E-03   -0.46154E-03  6336   0.113E-01-0.116E-02
CGA:  78    -0.424095239755E+03   -0.37883E-03   -0.37422E-03  6336   0.544E-02-0.126E-02
CGA:  79    -0.424095475062E+03   -0.23531E-03   -0.24445E-03  6336   0.553E-02 0.768E-03
CGA:  80    -0.424095803897E+03   -0.32884E-03   -0.34562E-03  6336   0.560E-02 0.860E-03
CGA:  81    -0.424096263446E+03   -0.45955E-03   -0.46492E-03  6336   0.204E-01-0.591E-03
CGA:  82    -0.424096926352E+03   -0.66291E-03   -0.42841E-03  6336   0.397E-01 0.642E-02
CGA:  83    -0.424098038694E+03   -0.11123E-02   -0.67210E-03  6336   0.294E-01 0.279E-01
CGA:  84    -0.424098495593E+03   -0.45690E-03   -0.43380E-03  6336   0.283E-02-0.549E-03
CGA:  85    -0.424097969510E+03    0.52608E-03   -0.39339E-03  6336   0.459E-01-0.481E-02
CGA:  86    -0.424098977232E+03   -0.10077E-02   -0.10853E-02  6336   0.243E-01 0.165E-02
CGA:  87    -0.424099616713E+03   -0.63948E-03   -0.69312E-03  6336   0.170E-02 0.483E-02
CGA:  88    -0.424099642339E+03   -0.25625E-04   -0.44632E-04  6336   0.130E-02 0.239E-03
CGA:  89    -0.424099739408E+03   -0.97069E-04   -0.11092E-03  6336   0.201E-02 0.605E-03
CGA:  90    -0.424099922210E+03   -0.18280E-03   -0.19212E-03  6336   0.939E-02 0.259E-04
CGA:  91    -0.424100821561E+03   -0.89935E-03   -0.70930E-03  6336   0.512E-02-0.196E-02
CGA:  92    -0.424101206027E+03   -0.38447E-03   -0.36455E-03  6336   0.264E-01-0.280E-02
CGA:  93    -0.424101626357E+03   -0.42033E-03   -0.44477E-03  6336   0.687E-02-0.979E-04
CGA:  94    -0.424102515938E+03   -0.88958E-03   -0.84097E-03  6336   0.248E-02 0.153E-02
CGA:  95    -0.424102912308E+03   -0.39637E-03   -0.62081E-03  6336   0.466E-02-0.195E-02
CGA:  96    -0.424103072942E+03   -0.16063E-03   -0.20831E-03  6336   0.256E-02 0.108E-02
CGA:  97    -0.424103113794E+03   -0.40852E-04   -0.72467E-04  6336   0.871E-03 0.459E-03
CGA:  98    -0.424103200677E+03   -0.86884E-04   -0.88866E-04  6336   0.117E-02 0.410E-03
CGA:  99    -0.424103477187E+03   -0.27651E-03   -0.29892E-03  6336   0.808E-02-0.302E-03
CGA: 100    -0.424103568478E+03   -0.91291E-04   -0.51356E-04  6336   0.447E-02 0.225E-02
CGA: 101    -0.424103632555E+03   -0.64076E-04   -0.45916E-04  6336   0.174E-02 0.103E-02
CGA: 102    -0.424103677947E+03   -0.45393E-04   -0.39523E-04  6336   0.411E-02 0.133E-03
CGA: 103    -0.424103778161E+03   -0.10021E-03   -0.75920E-04  6336   0.126E-01 0.126E-02
CGA: 104    -0.424103948157E+03   -0.17000E-03   -0.98892E-04  6336   0.173E-01 0.121E-01
CGA: 105    -0.424104181232E+03   -0.23308E-03   -0.24201E-03  6336   0.130E-02-0.123E-04
CGA: 106    -0.424104439299E+03   -0.25807E-03   -0.21048E-03  6336   0.456E-03 0.538E-03
CGA: 107    -0.424104541577E+03   -0.10228E-03    0.11430E-02  6336   0.344E-03 0.446E-03
CGA: 108    -0.424104578475E+03   -0.36899E-04   -0.34517E-04  6336   0.169E-02 0.100E-03
CGA: 109    -0.424104874802E+03   -0.29633E-03   -0.31378E-03  6336   0.126E-01-0.308E-03
CGA: 110    -0.424105017294E+03   -0.14249E-03   -0.93098E-04  6336   0.160E-01 0.662E-02
CGA: 111    -0.424105228996E+03   -0.21170E-03   -0.21305E-03  6336   0.406E-03-0.704E-04
CGA: 112    -0.424105304711E+03   -0.75715E-04    0.61142E-04  6336   0.302E-03 0.313E-03
CGA: 113    -0.424105427217E+03   -0.12251E-03   -0.78720E-04  6336   0.355E-03 0.233E-03
CGA: 114    -0.424105444999E+03   -0.17782E-04   -0.52891E-04  6336   0.767E-02-0.547E-03
CGA: 115    -0.424105539391E+03   -0.94392E-04   -0.10291E-03  6336   0.316E-03 0.376E-04
CGA: 116    -0.424105551217E+03   -0.11826E-04   -0.18143E-04  6336   0.245E-03 0.237E-03
CGA: 117    -0.424105599574E+03   -0.48357E-04   -0.58228E-04  6336   0.522E-02-0.710E-04
CGA: 118    -0.424105743934E+03   -0.14436E-03   -0.95480E-04  6336   0.142E-01 0.128E-02
CGA: 119    -0.424106164963E+03   -0.42103E-03   -0.25214E-03  6336   0.106E-01 0.113E-01
CGA: 120    -0.424106295996E+03   -0.13103E-03   -0.13952E-03  6336   0.235E-03 0.239E-04
CGA: 121    -0.424106305495E+03   -0.94992E-05   -0.13709E-04  6336   0.194E-03 0.193E-03
CGA: 122    -0.424106368199E+03   -0.62704E-04   -0.57589E-04  6336   0.361E-02 0.159E-04
CGA: 123    -0.424106789211E+03   -0.42101E-03   -0.52614E-03  6336   0.289E-01-0.266E-02
CGA: 124    -0.424107150015E+03   -0.36080E-03   -0.37930E-03  6336   0.533E-03-0.130E-03
CGA: 125    -0.424107184816E+03   -0.34801E-04   -0.39103E-04  6336   0.292E-03 0.303E-03
CGA: 126    -0.424107241963E+03   -0.57147E-04    0.10648E-03  6336   0.372E-03 0.207E-03
CGA: 127    -0.424107253714E+03   -0.11750E-04   -0.11058E-04  6336   0.475E-03-0.133E-04
CGA: 128    -0.424107417532E+03   -0.16382E-03   -0.15155E-03  6336   0.562E-03 0.428E-04
CGA: 129    -0.424107456456E+03   -0.38924E-04   -0.29758E-04  6336   0.167E-02-0.216E-03
CGA: 130    -0.424107328241E+03    0.12822E-03   -0.19912E-03  6336   0.111E-01-0.347E-02
CGA: 131    -0.424107813586E+03   -0.48534E-03   -0.55255E-03  6336   0.255E-02 0.243E-02
CGA: 132    -0.424107849155E+03   -0.35569E-04   -0.64001E-04  6336   0.923E-03 0.373E-03
CGA: 133    -0.424107868909E+03   -0.19754E-04   -0.44493E-04  6336   0.519E-03 0.496E-03
CGA: 134    -0.424107968277E+03   -0.99368E-04    0.41478E-03  6336   0.325E-03 0.302E-03
CGA: 135    -0.424107989152E+03   -0.20875E-04   -0.24573E-04  6336   0.274E-03 0.247E-03
CGA: 136    -0.424108011274E+03   -0.22122E-04   -0.22065E-04  6336   0.131E-02-0.727E-05
CGA: 137    -0.424108125425E+03   -0.11415E-03   -0.11409E-03  6336   0.375E-03 0.219E-03
CGA: 138    -0.424108126160E+03   -0.73519E-06   -0.79468E-05  6336   0.185E-03 0.960E-04
   1 F= -.42410813E+03 E0= -.42409570E+03  d E =-.424108E+03  mag=    10.0000
       N       E                     dE             d eps       ncg     rms          ort
SDA:   1    -0.424101422352E+03    0.67031E-02    0.00000E+00  6336   0.465E+00 0.000E+00
CGA:   2    -0.424107243935E+03   -0.58216E-02   -0.60398E-02  6336   0.491E-02-0.122E-01
CGA:   3    -0.424107784247E+03   -0.54031E-03   -0.59407E-03  6336   0.251E-01-0.120E-02
CGA:   4    -0.424108251867E+03   -0.46762E-03   -0.43348E-03  6336   0.606E-02-0.598E-03
CGA:   5    -0.424108344216E+03   -0.92348E-04   -0.11544E-03  6336   0.523E-02 0.345E-03
CGA:   6    -0.424108500820E+03   -0.15660E-03   -0.20037E-03  6336   0.357E-02 0.127E-02
CGA:   7    -0.424108560026E+03   -0.59206E-04   -0.74668E-04  6336   0.134E-02 0.245E-03
CGA:   8    -0.424108730195E+03   -0.17017E-03   -0.22483E-03  6336   0.310E-02-0.638E-03
CGA:   9    -0.424108746853E+03   -0.16659E-04   -0.12995E-04  6336   0.106E-02-0.687E-04
CGA:  10    -0.424108756698E+03   -0.98451E-05   -0.90530E-05  6336   0.511E-03-0.192E-04
CGA:  11    -0.424108770800E+03   -0.14102E-04   -0.12900E-04  6336   0.153E-02-0.320E-04
CGA:  12    -0.424108825026E+03   -0.54226E-04   -0.48823E-04  6336   0.405E-02-0.186E-03
CGA:  13    -0.424108868349E+03   -0.43322E-04   -0.34186E-04  6336   0.152E-02-0.120E-04
CGA:  14    -0.424108879744E+03   -0.11395E-04   -0.10464E-04  6336   0.393E-03 0.437E-06
CGA:  15    -0.424108880937E+03   -0.11932E-05   -0.36158E-05  6336   0.339E-03 0.477E-04
   2 F= -.42410888E+03 E0= -.42409642E+03  d E =-.754777E-03  mag=    10.0000
       N       E                     dE             d eps       ncg     rms          ort
SDA:   1    -0.424063779607E+03    0.45100E-01    0.00000E+00  6336   0.346E+01 0.000E+00
CGA:   2    -0.424107846357E+03   -0.44067E-01   -0.45357E-01  6336   0.116E-01-0.134E+00
CGA:   3    -0.424108168079E+03   -0.32172E-03   -0.30350E-03  6336   0.871E-02-0.709E-03
CGA:   4    -0.424108724986E+03   -0.55691E-03   -0.63308E-03  6336   0.858E-02-0.292E-02
CGA:   5    -0.424108877454E+03   -0.15247E-03   -0.15863E-03  6336   0.498E-02 0.230E-03
CGA:   6    -0.424109071327E+03   -0.19387E-03   -0.21073E-03  6336   0.102E-02 0.170E-02
CGA:   7    -0.424109105521E+03   -0.34194E-04   -0.43524E-04  6336   0.946E-03 0.492E-03
CGA:   8    -0.424109148548E+03   -0.43027E-04   -0.50290E-04  6336   0.545E-03 0.514E-03
CGA:   9    -0.424109216082E+03   -0.67534E-04    0.52588E-04  6336   0.426E-03 0.174E-03
CGA:  10    -0.424109198839E+03    0.17243E-04   -0.66610E-04  6336   0.897E-02-0.121E-02
CGA:  11    -0.424109312223E+03   -0.11338E-03   -0.12028E-03  6336   0.586E-03 0.999E-04
CGA:  12    -0.424109314663E+03   -0.24396E-05   -0.13095E-04  6336   0.257E-03 0.376E-03
   3 F= -.42410931E+03 E0= -.42409684E+03  d E =-.433726E-03  mag=    10.0000
       N       E                     dE             d eps       ncg     rms          ort
SDA:   1    -0.424107236194E+03    0.20760E-02    0.00000E+00  6336   0.653E-01 0.000E+00
CGA:   2    -0.424108482670E+03   -0.12465E-02   -0.11829E-02  6336   0.175E-01-0.167E-02
CGA:   3    -0.424109289655E+03   -0.80699E-03   -0.81282E-03  6336   0.268E-02-0.498E-02
CGA:   4    -0.424109322481E+03   -0.32826E-04   -0.37044E-04  6336   0.111E-02 0.147E-03
CGA:   5    -0.424109346750E+03   -0.24269E-04   -0.33778E-04  6336   0.469E-03 0.597E-03
CGA:   6    -0.424109354373E+03   -0.76223E-05   -0.95794E-05  6336   0.264E-03 0.806E-04
   4 F= -.42410935E+03 E0= -.42409688E+03  d E =-.397102E-04  mag=    10.0000
       N       E                     dE             d eps       ncg     rms          ort
SDA:   1    -0.424104144358E+03    0.52024E-02    0.00000E+00  6336   0.423E+00 0.000E+00
CGA:   2    -0.424109419092E+03   -0.52747E-02   -0.53307E-02  6336   0.272E-02-0.337E-02
CGA:   3    -0.424109480035E+03   -0.60943E-04   -0.76749E-04  6336   0.678E-03 0.129E-02
CGA:   4    -0.424109484350E+03   -0.43150E-05   -0.17215E-04  6336   0.237E-03 0.568E-03
   5 F= -.42410948E+03 E0= -.42409700E+03  d E =-.129977E-03  mag=    10.0000
