       N       E                     dE             d eps       ncg     rms          ort
DAV:   1     0.229702849868E+04    0.22970E+04   -0.13724E+05  9576   0.171E+03
DAV:   2    -0.179154063749E+03   -0.24762E+04   -0.23190E+04  9576   0.453E+02
DAV:   3    -0.443048276833E+03   -0.26389E+03   -0.25283E+03  9576   0.159E+02
DAV:   4    -0.451777688706E+03   -0.87294E+01   -0.86636E+01  9576   0.281E+01
DAV:   5    -0.452212199627E+03   -0.43451E+00   -0.43376E+00  9576   0.444E+00
SDA:   6    -0.374757322878E+03    0.77455E+02   -0.43376E+00  9576   0.158E+02 0.000E+00
CGA:   7    -0.377605209294E+03   -0.28479E+01   -0.28512E+01  9576   0.214E+01-0.162E-01
CGA:   8    -0.378105864021E+03   -0.50065E+00   -0.50068E+00  9576   0.813E+00-0.669E-02
CGA:   9    -0.378313254187E+03   -0.20739E+00   -0.21065E+00  9576   0.288E+00-0.576E-01
CGA:  10    -0.378390088732E+03   -0.76835E-01   -0.81149E-01  9576   0.202E+00-0.442E-01
CGA:  11    -0.378434144975E+03   -0.44056E-01   -0.46530E-01  9576   0.139E+00-0.399E-01
CGA:  12    -0.378465585756E+03   -0.31441E-01   -0.35457E-01  9576   0.819E-01-0.386E-01
CGA:  13    -0.378481327780E+03   -0.15742E-01   -0.17067E-01  9576   0.351E-01-0.189E-01
CGA:  14    -0.378488985543E+03   -0.76578E-02   -0.83623E-02  9576   0.171E-01-0.802E-02
CGA:  15    -0.378492959115E+03   -0.39736E-02   -0.40965E-02  9576   0.764E-02-0.145E-02
CGA:  16    -0.378494551273E+03   -0.15922E-02   -0.15948E-02  9576   0.281E-02 0.201E-02
CGA:  17    -0.378495008071E+03   -0.45680E-03   -0.57395E-03  9576   0.124E-02 0.173E-02
CGA:  18    -0.378495096402E+03   -0.88331E-04   -0.17036E-03  9576   0.746E-03 0.919E-03
CGA:  19    -0.378495084349E+03    0.12053E-04   -0.71499E-04  9576   0.600E-03 0.664E-03
CGA:  20    -0.378495059543E+03    0.24805E-04   -0.48962E-04  9576   0.513E-03 0.551E-03
CGA:  21    -0.378495030934E+03    0.28609E-04   -0.36846E-04  9576   0.452E-03 0.478E-03
CGA:  22    -0.378495001612E+03    0.29322E-04   -0.29169E-04  9576   0.407E-03 0.426E-03
CGA:  23    -0.378494972851E+03    0.28761E-04   -0.23841E-04  9576   0.371E-03 0.386E-03
CGA:  24    -0.378494945210E+03    0.27641E-04   -0.19923E-04  9576   0.342E-03 0.354E-03
CGA:  25    -0.378494918925E+03    0.26285E-04   -0.16924E-04  9576   0.318E-03 0.328E-03
CGA:  26    -0.378494894074E+03    0.24851E-04   -0.14559E-04  9576   0.297E-03 0.306E-03
CGA:  27    -0.378494870654E+03    0.23420E-04   -0.12648E-04  9576   0.280E-03 0.287E-03
CGA:  28    -0.378494848622E+03    0.22032E-04   -0.11077E-04  9576   0.264E-03 0.270E-03
CGA:  29    -0.378494827914E+03    0.20708E-04   -0.97646E-05  9576   0.251E-03 0.256E-03
CGA:  30    -0.378494808458E+03    0.19456E-04   -0.86572E-05  9576   0.239E-03 0.243E-03
CGA:  31    -0.378494790179E+03    0.18279E-04   -0.77126E-05  9576   0.228E-03 0.232E-03
CGA:  32    -0.378494773003E+03    0.17176E-04   -0.69008E-05  9576   0.218E-03 0.222E-03
CGA:  33    -0.378494756858E+03    0.16145E-04   -0.61986E-05  9576   0.210E-03 0.213E-03
CGA:  34    -0.378494741676E+03    0.15182E-04   -0.55866E-05  9576   0.202E-03 0.205E-03
CGA:  35    -0.378494727392E+03    0.14283E-04   -0.50499E-05  9576   0.195E-03 0.198E-03
CGA:  36    -0.378494713947E+03    0.13445E-04   -0.45779E-05  9576   0.188E-03 0.191E-03
CGA:  37    -0.378494701286E+03    0.12661E-04   -0.41624E-05  9576   0.182E-03 0.185E-03
CGA:  38    -0.378494689357E+03    0.11930E-04   -0.37941E-05  9576   0.177E-03 0.179E-03
CGA:  39    -0.378494678110E+03    0.11246E-04   -0.34658E-05  9576   0.172E-03 0.174E-03
CGA:  40    -0.378494667502E+03    0.10608E-04   -0.31727E-05  9576   0.167E-03 0.169E-03
CGA:  41    -0.378494657491E+03    0.10012E-04   -0.29095E-05  9576   0.163E-03 0.164E-03
CGA:  42    -0.378494648037E+03    0.94538E-05   -0.26730E-05  9576   0.159E-03 0.160E-03
   1 F= -.37849465E+03 E0= -.37849465E+03  d E =-.378495E+03  mag=    12.0000
       N       E                     dE             d eps       ncg     rms          ort
SDA:   1    -0.378473984526E+03    0.20673E-01    0.00000E+00  9576   0.493E-01 0.000E+00
CGA:   2    -0.378487255109E+03   -0.13271E-01   -0.11191E-01  9576   0.134E-01 0.146E-01
CGA:   3    -0.378491892677E+03   -0.46376E-02   -0.43489E-02  9576   0.414E-02 0.183E-02
CGA:   4    -0.378492486632E+03   -0.59396E-03   -0.55691E-03  9576   0.102E-02 0.197E-02
CGA:   5    -0.378492650043E+03   -0.16341E-03   -0.15941E-03  9576   0.419E-03 0.753E-03
CGA:   6    -0.378492740387E+03   -0.90344E-04    0.30901E-03  9576   0.235E-03 0.301E-03
CGA:   7    -0.378492809559E+03   -0.69172E-04   -0.51640E-04  9576   0.103E-03 0.147E-03
CGA:   8    -0.378492811785E+03   -0.22263E-05   -0.64102E-05  9576   0.869E-04 0.945E-04
   2 F= -.37849281E+03 E0= -.37849281E+03  d E =0.183625E-02  mag=    12.0000
       N       E                     dE             d eps       ncg     rms          ort
SDA:   1    -0.378480359877E+03    0.12450E-01    0.00000E+00  9576   0.290E-01 0.000E+00
CGA:   2    -0.378480610437E+03   -0.25056E-03   -0.29255E-02  9576   0.856E-01-0.330E-01
CGA:   3    -0.378491313689E+03   -0.10703E-01   -0.11151E-01  9576   0.946E-02 0.803E-02
CGA:   4    -0.378493043789E+03   -0.17301E-02   -0.17465E-02  9576   0.131E-02 0.111E-02
CGA:   5    -0.378493304190E+03   -0.26040E-03   -0.26024E-03  9576   0.396E-03-0.297E-04
CGA:   6    -0.378493322686E+03   -0.18496E-04   -0.36070E-04  9576   0.139E-03 0.197E-03
CGA:   7    -0.378493321516E+03    0.11705E-05   -0.12813E-04  9576   0.620E-04 0.120E-03
   3 F= -.37849332E+03 E0= -.37849332E+03  d E =0.132652E-02  mag=    12.0000
