       N       E                     dE             d eps       ncg     rms          ort
DAV:   1     0.251146188070E+04    0.25115E+04   -0.13809E+05 10206   0.169E+03
DAV:   2    -0.165206190243E+03   -0.26767E+04   -0.24628E+04 10206   0.437E+02
DAV:   3    -0.481955351182E+03   -0.31675E+03   -0.31154E+03 10206   0.171E+02
DAV:   4    -0.493197567802E+03   -0.11242E+02   -0.11136E+02 10206   0.318E+01
DAV:   5    -0.493490219332E+03   -0.29265E+00   -0.29199E+00 10206   0.432E+00
SDA:   6    -0.188651642540E+03    0.30484E+03   -0.29199E+00 10206   0.101E+04 0.000E+00
CGA:   7    -0.267623260907E+03   -0.78972E+02   -0.10237E+03 10206   0.173E+04-0.424E+03
CGA:   8    -0.298644519828E+03   -0.31021E+02   -0.42290E+02 10206   0.425E+03-0.493E+02
CGA:   9    -0.325618614600E+03   -0.26974E+02   -0.14219E+02 10206   0.212E+03 0.309E+03
CGA:  10    -0.343508416030E+03   -0.17890E+02   -0.24134E+02 10206   0.901E+02 0.552E+01
CGA:  11    -0.353931702315E+03   -0.10423E+02   -0.72241E+01 10206   0.205E+02 0.221E+02
CGA:  12    -0.358008765428E+03   -0.40771E+01   -0.40783E+01 10206   0.328E+02 0.122E+00
CGA:  13    -0.360219616386E+03   -0.22109E+01   -0.25081E+01 10206   0.173E+02-0.163E+01
CGA:  14    -0.361297529938E+03   -0.10779E+01   -0.14640E+01 10206   0.625E+01-0.708E+00
CGA:  15    -0.362150702066E+03   -0.85317E+00   -0.85507E+00 10206   0.314E+01-0.252E-01
CGA:  16    -0.362663963390E+03   -0.51326E+00   -0.51353E+00 10206   0.166E+01-0.860E-01
CGA:  17    -0.362935689327E+03   -0.27173E+00   -0.27189E+00 10206   0.922E+00-0.295E-01
CGA:  18    -0.363086237910E+03   -0.15055E+00   -0.15046E+00 10206   0.488E+00 0.315E-02
CGA:  19    -0.363197268254E+03   -0.11103E+00   -0.11074E+00 10206   0.333E+00 0.359E-02
CGA:  20    -0.363248378240E+03   -0.51110E-01   -0.51130E-01 10206   0.133E+00 0.706E-02
CGA:  21    -0.363277923379E+03   -0.29545E-01   -0.29317E-01 10206   0.888E-01 0.500E-02
CGA:  22    -0.363292970406E+03   -0.15047E-01   -0.15056E-01 10206   0.434E-01 0.197E-02
CGA:  23    -0.363302702515E+03   -0.97321E-02   -0.96126E-02 10206   0.244E-01 0.278E-02
CGA:  24    -0.363308376190E+03   -0.56737E-02   -0.58531E-02 10206   0.229E-01-0.278E-02
CGA:  25    -0.363312889106E+03   -0.45129E-02   -0.59282E-02 10206   0.188E-01-0.118E-01
CGA:  26    -0.363318177369E+03   -0.52883E-02   -0.51213E-02 10206   0.538E-02 0.177E-02
CGA:  27    -0.363314342257E+03    0.38351E-02   -0.53059E-02 10206   0.733E-01-0.130E-01
CGA:  28    -0.363320600419E+03   -0.62582E-02   -0.66803E-02 10206   0.710E-02 0.520E-02
CGA:  29    -0.363322699258E+03   -0.20988E-02   -0.20818E-02 10206   0.304E-02 0.285E-03
CGA:  30    -0.363323255044E+03   -0.55579E-03   -0.11273E-02 10206   0.116E-01-0.408E-02
CGA:  31    -0.363323987933E+03   -0.73289E-03   -0.91892E-03 10206   0.723E-03 0.144E-02
CGA:  32    -0.363324159363E+03   -0.17143E-03   -0.17181E-03 10206   0.876E-03 0.957E-04
CGA:  33    -0.363324627028E+03   -0.46767E-03    0.11144E-02 10206   0.384E-03-0.120E-03
CGA:  34    -0.363324956702E+03   -0.32967E-03    0.27223E-04 10206   0.392E-03 0.233E-03
CGA:  35    -0.363325059019E+03   -0.10232E-03   -0.10301E-03 10206   0.481E-03-0.129E-04
CGA:  36    -0.363325405213E+03   -0.34619E-03    0.71389E-04 10206   0.170E-03-0.101E-04
CGA:  37    -0.363325593061E+03   -0.18785E-03    0.11402E-04 10206   0.129E-03 0.138E-03
CGA:  38    -0.363325650466E+03   -0.57405E-04    0.67502E-03 10206   0.959E-04 0.570E-04
CGA:  39    -0.363325811963E+03   -0.16150E-03    0.89196E-05 10206   0.530E-04 0.600E-04
CGA:  40    -0.363325857553E+03   -0.45589E-04    0.58948E-05 10206   0.517E-04 0.332E-04
CGA:  41    -0.363325949885E+03   -0.92332E-04    0.18161E-05 10206   0.692E-04 0.140E-04
CGA:  42    -0.363326075897E+03   -0.12601E-03    0.41713E-05 10206   0.354E-04 0.729E-04
CGA:  43    -0.363326091853E+03   -0.15956E-04    0.11247E-03 10206   0.493E-04 0.772E-05
CGA:  44    -0.363326206734E+03   -0.11488E-03    0.19241E-05 10206   0.263E-04 0.498E-04
CGA:  45    -0.363326270759E+03   -0.64024E-04    0.62133E-06 10206   0.405E-04 0.646E-06
CGA:  46    -0.363326358013E+03   -0.87254E-04    0.11785E-05 10206   0.273E-04 0.344E-04
CGA:  47    -0.363326356986E+03    0.10273E-05   -0.15441E-05 10206   0.124E-04 0.160E-04
   1 F= -.36332636E+03 E0= -.36332636E+03  d E =-.363326E+03  mag=    16.0000
       N       E                     dE             d eps       ncg     rms          ort
SDA:   1    -0.363374375911E+03   -0.48018E-01    0.00000E+00 10206   0.716E-02 0.000E+00
CGA:   2    -0.363375657901E+03   -0.12820E-02   -0.13150E-02 10206   0.233E-02 0.127E-02
CGA:   3    -0.363376255893E+03   -0.59799E-03   -0.60930E-03 10206   0.238E-02-0.823E-03
CGA:   4    -0.363376376688E+03   -0.12080E-03   -0.14815E-03 10206   0.846E-03 0.244E-03
CGA:   5    -0.363376407789E+03   -0.31101E-04   -0.59848E-04 10206   0.296E-03 0.207E-03
CGA:   6    -0.363376471179E+03   -0.63390E-04   -0.61292E-04 10206   0.320E-03-0.697E-04
CGA:   7    -0.363376575440E+03   -0.10426E-03    0.25371E-03 10206   0.418E-03-0.487E-03
CGA:   8    -0.363376588188E+03   -0.12748E-04   -0.36166E-04 10206   0.143E-03 0.216E-03
CGA:   9    -0.363376618736E+03   -0.30549E-04   -0.29911E-04 10206   0.176E-04 0.332E-04
CGA:  10    -0.363376617963E+03    0.77375E-06   -0.13061E-05 10206   0.104E-04 0.160E-04
   2 F= -.36337662E+03 E0= -.36337662E+03  d E =-.502610E-01  mag=    16.0000
       N       E                     dE             d eps       ncg     rms          ort
SDA:   1    -0.361470906852E+03    0.19057E+01    0.00000E+00 10206   0.103E+02 0.000E+00
CGA:   2    -0.364123046826E+03   -0.26521E+01   -0.26517E+01 10206   0.250E+01 0.557E-03
CGA:   3    -0.364749976912E+03   -0.62693E+00   -0.62789E+00 10206   0.100E+01-0.150E-01
CGA:   4    -0.364891680318E+03   -0.14170E+00   -0.14147E+00 10206   0.294E+00-0.133E-01
CGA:   5    -0.364944335717E+03   -0.52655E-01   -0.52666E-01 10206   0.857E-01 0.252E-02
CGA:   6    -0.364963217168E+03   -0.18881E-01   -0.18931E-01 10206   0.387E-01-0.164E-02
CGA:   7    -0.364972255191E+03   -0.90380E-02   -0.89329E-02 10206   0.183E-01 0.230E-02
CGA:   8    -0.364977012961E+03   -0.47578E-02   -0.49120E-02 10206   0.138E-01-0.251E-02
CGA:   9    -0.364978740750E+03   -0.17278E-02   -0.17911E-02 10206   0.419E-02 0.144E-02
CGA:  10    -0.364979771384E+03   -0.10306E-02   -0.10244E-02 10206   0.178E-02 0.215E-03
CGA:  11    -0.364980191219E+03   -0.41983E-03   -0.55562E-03 10206   0.399E-02-0.132E-02
CGA:  12    -0.364980390275E+03   -0.19906E-03   -0.29467E-03 10206   0.435E-03 0.775E-03
CGA:  13    -0.364980437495E+03   -0.47219E-04   -0.61394E-04 10206   0.289E-03 0.189E-03
CGA:  14    -0.364980510851E+03   -0.73357E-04   -0.16386E-03 10206   0.715E-03-0.441E-03
CGA:  15    -0.364980561826E+03   -0.50974E-04   -0.77043E-04 10206   0.210E-03 0.284E-03
CGA:  16    -0.364980614399E+03   -0.52573E-04   -0.52802E-04 10206   0.343E-04 0.151E-04
CGA:  17    -0.364980646760E+03   -0.32361E-04    0.28235E-05 10206   0.355E-04 0.626E-05
CGA:  18    -0.364980657675E+03   -0.10914E-04   -0.10287E-04 10206   0.201E-04 0.124E-04
CGA:  19    -0.364980659115E+03   -0.14402E-05   -0.30799E-05 10206   0.145E-04 0.197E-04
   3 F= -.36498066E+03 E0= -.36498066E+03  d E =-.160404E+01  mag=    16.0000
       N       E                     dE             d eps       ncg     rms          ort
SDA:   1    -0.356429115222E+03    0.85515E+01    0.00000E+00 10206   0.315E+02 0.000E+00
CGA:   2    -0.364052402401E+03   -0.76233E+01   -0.76207E+01 10206   0.809E+01-0.138E-02
CGA:   3    -0.365659920658E+03   -0.16075E+01   -0.16084E+01 10206   0.470E+01-0.123E+00
CGA:   4    -0.366311197512E+03   -0.65128E+00   -0.65751E+00 10206   0.884E+00-0.215E-01
CGA:   5    -0.366497989280E+03   -0.18679E+00   -0.18681E+00 10206   0.254E+00 0.822E-03
CGA:   6    -0.366557140322E+03   -0.59151E-01   -0.59229E-01 10206   0.111E+00-0.219E-02
CGA:   7    -0.366585210002E+03   -0.28070E-01   -0.27881E-01 10206   0.565E-01 0.321E-02
CGA:   8    -0.366598589097E+03   -0.13379E-01   -0.13500E-01 10206   0.350E-01-0.371E-02
CGA:   9    -0.366603972465E+03   -0.53834E-02   -0.54788E-02 10206   0.115E-01 0.299E-02
CGA:  10    -0.366607062421E+03   -0.30900E-02   -0.31188E-02 10206   0.439E-02-0.566E-03
CGA:  11    -0.366608323824E+03   -0.12614E-02   -0.12878E-02 10206   0.180E-02-0.249E-03
CGA:  12    -0.366608743709E+03   -0.41989E-03   -0.41080E-03 10206   0.881E-03 0.260E-03
CGA:  13    -0.366609011065E+03   -0.26736E-03   -0.34370E-03 10206   0.178E-02-0.575E-03
CGA:  14    -0.366609089194E+03   -0.78129E-04   -0.13662E-03 10206   0.258E-03 0.427E-03
CGA:  15    -0.366609112102E+03   -0.22908E-04   -0.35104E-04 10206   0.158E-03 0.124E-03
CGA:  16    -0.366609167490E+03   -0.55388E-04   -0.64452E-04 10206   0.172E-03-0.125E-03
CGA:  17    -0.366609175891E+03   -0.84011E-05   -0.17543E-04 10206   0.579E-04 0.875E-04
CGA:  18    -0.366609062851E+03    0.11304E-03   -0.63123E-04 10206   0.971E-03-0.177E-03
CGA:  19    -0.366609133743E+03   -0.70892E-04   -0.11910E-03 10206   0.243E-03 0.198E-03
CGA:  20    -0.366609222166E+03   -0.88423E-04   -0.75484E-04 10206   0.758E-04-0.133E-03
CGA:  21    -0.366609214895E+03    0.72709E-05   -0.49016E-05 10206   0.276E-04 0.426E-04
   4 F= -.36660921E+03 E0= -.36660921E+03  d E =-.162856E+01  mag=    16.0000
       N       E                     dE             d eps       ncg     rms          ort
SDA:   1    -0.360725119201E+03    0.58841E+01    0.00000E+00 10206   0.207E+02 0.000E+00
CGA:   2    -0.365552176264E+03   -0.48271E+01   -0.48390E+01 10206   0.532E+01 0.286E-01
CGA:   3    -0.366659776237E+03   -0.11076E+01   -0.10984E+01 10206   0.289E+01 0.157E-01
CGA:   4    -0.367067456658E+03   -0.40768E+00   -0.41487E+00 10206   0.587E+00-0.655E-01
CGA:   5    -0.367178712810E+03   -0.11126E+00   -0.11152E+00 10206   0.156E+00 0.564E-02
CGA:   6    -0.367212028795E+03   -0.33316E-01   -0.33296E-01 10206   0.645E-01-0.706E-03
CGA:   7    -0.367225788868E+03   -0.13760E-01   -0.14011E-01 10206   0.352E-01 0.340E-02
CGA:   8    -0.367234789025E+03   -0.90002E-02   -0.88542E-02 10206   0.221E-01-0.293E-02
CGA:   9    -0.367238678552E+03   -0.38895E-02   -0.40072E-02 10206   0.836E-02 0.135E-02
CGA:  10    -0.367241134514E+03   -0.24560E-02   -0.24483E-02 10206   0.382E-02-0.916E-03
CGA:  11    -0.367241721003E+03   -0.58649E-03   -0.63926E-03 10206   0.161E-02 0.551E-03
CGA:  12    -0.367242260904E+03   -0.53990E-03   -0.55250E-03 10206   0.129E-02-0.601E-03
CGA:  13    -0.367242308796E+03   -0.47892E-04   -0.90060E-04 10206   0.668E-03 0.251E-03
CGA:  14    -0.367242362205E+03   -0.53409E-04   -0.91964E-04 10206   0.367E-03 0.246E-03
CGA:  15    -0.367242473252E+03   -0.11105E-03   -0.10282E-03 10206   0.179E-03-0.139E-03
CGA:  16    -0.367242506172E+03   -0.32920E-04   -0.39666E-04 10206   0.151E-03-0.703E-04
CGA:  17    -0.367242510394E+03   -0.42228E-05   -0.95538E-05 10206   0.953E-04 0.330E-04
CGA:  18    -0.367242520870E+03   -0.10476E-04   -0.14622E-04 10206   0.394E-04 0.314E-04
CGA:  19    -0.367242534703E+03   -0.13833E-04   -0.15128E-04 10206   0.430E-04-0.342E-04
CGA:  20    -0.367242531613E+03    0.30905E-05   -0.25494E-05 10206   0.212E-04 0.291E-04
   5 F= -.36724253E+03 E0= -.36724253E+03  d E =-.633317E+00  mag=    16.0000
       N       E                     dE             d eps       ncg     rms          ort
SDA:   1    -0.362642549878E+03    0.46000E+01    0.00000E+00 10206   0.153E+02 0.000E+00
CGA:   2    -0.366199449514E+03   -0.35569E+01   -0.35573E+01 10206   0.408E+01 0.278E-01
CGA:   3    -0.367052267489E+03   -0.85282E+00   -0.85182E+00 10206   0.222E+01-0.168E-02
CGA:   4    -0.367360825277E+03   -0.30856E+00   -0.31011E+00 10206   0.427E+00-0.304E-01
CGA:   5    -0.367445269767E+03   -0.84444E-01   -0.84575E-01 10206   0.110E+00 0.490E-02
CGA:   6    -0.367469329999E+03   -0.24060E-01   -0.24037E-01 10206   0.471E-01-0.166E-02
CGA:   7    -0.367479408084E+03   -0.10078E-01   -0.10112E-01 10206   0.250E-01 0.308E-02
CGA:   8    -0.367486012737E+03   -0.66047E-02   -0.66662E-02 10206   0.177E-01-0.286E-02
CGA:   9    -0.367488807990E+03   -0.27953E-02   -0.28629E-02 10206   0.637E-02 0.145E-02
CGA:  10    -0.367490641106E+03   -0.18331E-02   -0.18492E-02 10206   0.234E-02-0.394E-03
CGA:  11    -0.367491336188E+03   -0.69508E-03   -0.72202E-03 10206   0.982E-03-0.272E-03
CGA:  12    -0.367491461167E+03   -0.12498E-03   -0.14105E-03 10206   0.443E-03 0.224E-03
CGA:  13    -0.367491615291E+03   -0.15412E-03   -0.17125E-03 10206   0.335E-03-0.204E-03
CGA:  14    -0.367491624641E+03   -0.93498E-05   -0.18700E-04 10206   0.215E-03 0.711E-04
CGA:  15    -0.367491646186E+03   -0.21545E-04   -0.30041E-04 10206   0.978E-04 0.751E-04
CGA:  16    -0.367491580823E+03    0.65363E-04   -0.81311E-04 10206   0.846E-03-0.373E-03
CGA:  17    -0.367491628098E+03   -0.47275E-04   -0.87881E-04 10206   0.219E-03 0.293E-03
CGA:  18    -0.367491684352E+03   -0.56254E-04   -0.56173E-04 10206   0.323E-04-0.179E-05
CGA:  19    -0.367491730728E+03   -0.46376E-04    0.17780E-05 10206   0.565E-04-0.246E-04
CGA:  20    -0.367491724680E+03    0.60475E-05   -0.17083E-05 10206   0.263E-04 0.382E-04
   6 F= -.36749172E+03 E0= -.36749172E+03  d E =-.249193E+00  mag=    16.0000
       N       E                     dE             d eps       ncg     rms          ort
SDA:   1    -0.363259893157E+03    0.42318E+01    0.00000E+00 10206   0.123E+02 0.000E+00
CGA:   2    -0.366371772252E+03   -0.31119E+01   -0.31101E+01 10206   0.449E+01 0.190E-01
CGA:   3    -0.367136702163E+03   -0.76493E+00   -0.76192E+00 10206   0.203E+01 0.719E-02
CGA:   4    -0.367451295222E+03   -0.31459E+00   -0.31496E+00 10206   0.374E+00-0.133E-01
CGA:   5    -0.367519863553E+03   -0.68568E-01   -0.68712E-01 10206   0.103E+00 0.612E-02
CGA:   6    -0.367541506325E+03   -0.21643E-01   -0.21638E-01 10206   0.394E-01-0.208E-02
CGA:   7    -0.367548818765E+03   -0.73124E-02   -0.73576E-02 10206   0.197E-01 0.260E-02
CGA:   8    -0.367554060264E+03   -0.52415E-02   -0.53125E-02 10206   0.125E-01-0.160E-02
CGA:   9    -0.367556305189E+03   -0.22449E-02   -0.22599E-02 10206   0.533E-02 0.114E-02
CGA:  10    -0.367557857242E+03   -0.15521E-02   -0.15716E-02 10206   0.236E-02-0.323E-03
CGA:  11    -0.367558253520E+03   -0.39628E-03   -0.40893E-03 10206   0.933E-03 0.451E-03
CGA:  12    -0.367558507717E+03   -0.25420E-03   -0.25386E-03 10206   0.385E-03 0.185E-04
CGA:  13    -0.367558551094E+03   -0.43377E-04   -0.55631E-04 10206   0.163E-03 0.175E-03
CGA:  14    -0.367558579304E+03   -0.28210E-04   -0.34730E-04 10206   0.740E-04 0.105E-03
CGA:  15    -0.367558598838E+03   -0.19534E-04   -0.18981E-04 10206   0.817E-04 0.107E-04
CGA:  16    -0.367558594771E+03    0.40671E-05   -0.59177E-05 10206   0.440E-04 0.691E-04
   7 F= -.36755859E+03 E0= -.36755859E+03  d E =-.668701E-01  mag=    16.0000
       N       E                     dE             d eps       ncg     rms          ort
SDA:   1    -0.359565684562E+03    0.79929E+01    0.00000E+00 10206   0.200E+02 0.000E+00
CGA:   2    -0.365090816975E+03   -0.55251E+01   -0.54705E+01 10206   0.119E+02 0.504E+00
CGA:   3    -0.366758450634E+03   -0.16676E+01   -0.16190E+01 10206   0.311E+01 0.692E-01
CGA:   4    -0.367337475822E+03   -0.57903E+00   -0.57923E+00 10206   0.577E+00 0.546E-02
CGA:   5    -0.367448319677E+03   -0.11084E+00   -0.11085E+00 10206   0.156E+00 0.507E-02
CGA:   6    -0.367481095088E+03   -0.32775E-01   -0.32825E-01 10206   0.598E-01-0.334E-02
CGA:   7    -0.367492542148E+03   -0.11447E-01   -0.11444E-01 10206   0.221E-01 0.154E-02
CGA:   8    -0.367498442894E+03   -0.59007E-02   -0.61169E-02 10206   0.153E-01-0.287E-02
CGA:   9    -0.367500481147E+03   -0.20383E-02   -0.20934E-02 10206   0.552E-02 0.139E-02
CGA:  10    -0.367502062927E+03   -0.15818E-02   -0.16245E-02 10206   0.265E-02-0.576E-03
CGA:  11    -0.367502714078E+03   -0.65115E-03   -0.81207E-03 10206   0.285E-02-0.113E-02
CGA:  12    -0.367502805457E+03   -0.91379E-04   -0.13442E-03 10206   0.134E-02 0.348E-03
CGA:  13    -0.367502892228E+03   -0.86771E-04   -0.12747E-03 10206   0.754E-03 0.353E-03
CGA:  14    -0.367503065808E+03   -0.17358E-03   -0.17078E-03 10206   0.531E-03-0.183E-03
CGA:  15    -0.367497999928E+03    0.50659E-02   -0.27905E-02 10206   0.484E-01-0.523E-02
CGA:  16    -0.367501776617E+03   -0.37767E-02   -0.42794E-02 10206   0.441E-02 0.307E-02
CGA:  17    -0.367503073079E+03   -0.12965E-02   -0.13114E-02 10206   0.118E-02 0.247E-03
CGA:  18    -0.367503384493E+03   -0.31141E-03   -0.21727E-03 10206   0.102E-02-0.585E-03
CGA:  19    -0.367503435047E+03   -0.50554E-04   -0.72608E-04 10206   0.491E-03 0.118E-03
CGA:  20    -0.367503420834E+03    0.14212E-04   -0.32256E-04 10206   0.126E-03 0.179E-03
CGA:  21    -0.367503411091E+03    0.97433E-05   -0.10943E-04 10206   0.890E-04 0.851E-04
CGA:  22    -0.367503479315E+03   -0.68224E-04    0.43509E-04 10206   0.987E-04-0.225E-05
CGA:  23    -0.367503474387E+03    0.49278E-05   -0.69506E-05 10206   0.364E-04 0.535E-04
   8 F= -.36750347E+03 E0= -.36750347E+03  d E =0.551204E-01  mag=    16.0000
       N       E                     dE             d eps       ncg     rms          ort
SDA:   1    -0.365966816992E+03    0.15367E+01    0.00000E+00 10206   0.419E+01 0.000E+00
CGA:   2    -0.367284903486E+03   -0.13181E+01   -0.13183E+01 10206   0.139E+01-0.576E-02
CGA:   3    -0.367526348153E+03   -0.24144E+00   -0.24131E+00 10206   0.582E+00 0.444E-02
CGA:   4    -0.367616437051E+03   -0.90089E-01   -0.90346E-01 10206   0.122E+00-0.157E-02
CGA:   5    -0.367639507718E+03   -0.23071E-01   -0.23139E-01 10206   0.316E-01 0.102E-02
CGA:   6    -0.367646351849E+03   -0.68441E-02   -0.68401E-02 10206   0.115E-01-0.849E-04
CGA:   7    -0.367649086167E+03   -0.27343E-02   -0.27246E-02 10206   0.586E-02-0.524E-03
CGA:   8    -0.367650119600E+03   -0.10334E-02   -0.10610E-02 10206   0.236E-02 0.422E-03
CGA:   9    -0.367650781728E+03   -0.66213E-03   -0.66661E-03 10206   0.154E-02-0.414E-03
CGA:  10    -0.367650951664E+03   -0.16994E-03   -0.19425E-03 10206   0.490E-03 0.243E-03
CGA:  11    -0.367651076527E+03   -0.12486E-03   -0.12449E-03 10206   0.252E-03-0.131E-04
CGA:  12    -0.367651137437E+03   -0.60910E-04   -0.88783E-04 10206   0.624E-03-0.241E-03
CGA:  13    -0.367651155326E+03   -0.17889E-04   -0.47261E-04 10206   0.963E-04 0.167E-03
CGA:  14    -0.367651159819E+03   -0.44937E-05   -0.11858E-04 10206   0.552E-04 0.503E-04
CGA:  15    -0.367651195390E+03   -0.35571E-04    0.17970E-04 10206   0.731E-04-0.120E-04
CGA:  16    -0.367651197775E+03   -0.23851E-05   -0.60043E-05 10206   0.339E-04 0.275E-04
   9 F= -.36765120E+03 E0= -.36765120E+03  d E =-.147723E+00  mag=    16.0000
       N       E                     dE             d eps       ncg     rms          ort
SDA:   1    -0.366883289485E+03    0.76791E+00    0.00000E+00 10206   0.206E+01 0.000E+00
CGA:   2    -0.367500277857E+03   -0.61699E+00   -0.61753E+00 10206   0.704E+00-0.725E-02
CGA:   3    -0.367629573476E+03   -0.12930E+00   -0.12938E+00 10206   0.260E+00 0.252E-02
CGA:   4    -0.367667026824E+03   -0.37453E-01   -0.37570E-01 10206   0.532E-01 0.854E-03
CGA:   5    -0.367676377035E+03   -0.93502E-02   -0.93910E-02 10206   0.144E-01 0.996E-03
CGA:   6    -0.367679508680E+03   -0.31316E-02   -0.31281E-02 10206   0.523E-02-0.103E-02
CGA:   7    -0.367680362036E+03   -0.85336E-03   -0.87333E-03 10206   0.199E-02 0.552E-03
CGA:   8    -0.367680954162E+03   -0.59213E-03   -0.62523E-03 10206   0.164E-02-0.471E-03
CGA:   9    -0.367681074388E+03   -0.12023E-03   -0.15646E-03 10206   0.705E-03 0.389E-03
CGA:  10    -0.367681171645E+03   -0.97257E-04   -0.11608E-03 10206   0.367E-03 0.235E-03
CGA:  11    -0.367681285820E+03   -0.11417E-03   -0.12927E-03 10206   0.450E-03-0.274E-03
CGA:  12    -0.367681292712E+03   -0.68926E-05   -0.34191E-04 10206   0.122E-03 0.201E-03
CGA:  13    -0.367681295271E+03   -0.25590E-05   -0.13414E-04 10206   0.525E-04 0.843E-04
CGA:  14    -0.367681325298E+03   -0.30027E-04    0.11866E-04 10206   0.353E-04 0.757E-05
CGA:  15    -0.367681322117E+03    0.31810E-05   -0.18186E-05 10206   0.234E-04 0.325E-04
  10 F= -.36768132E+03 E0= -.36768132E+03  d E =-.301243E-01  mag=    16.0000
       N       E                     dE             d eps       ncg     rms          ort
SDA:   1    -0.365155018902E+03    0.25263E+01    0.00000E+00 10206   0.600E+01 0.000E+00
CGA:   2    -0.367182757034E+03   -0.20277E+01   -0.20308E+01 10206   0.223E+01-0.189E-01
CGA:   3    -0.367534695732E+03   -0.35194E+00   -0.35196E+00 10206   0.722E+00 0.899E-02
CGA:   4    -0.367644904529E+03   -0.11021E+00   -0.11029E+00 10206   0.156E+00-0.220E-02
CGA:   5    -0.367671524360E+03   -0.26620E-01   -0.26663E-01 10206   0.404E-01 0.303E-02
CGA:   6    -0.367680325331E+03   -0.88010E-02   -0.88892E-02 10206   0.140E-01-0.300E-02
CGA:   7    -0.367682685580E+03   -0.23602E-02   -0.23644E-02 10206   0.481E-02 0.858E-03
CGA:   8    -0.367683926142E+03   -0.12406E-02   -0.12873E-02 10206   0.309E-02-0.724E-03
CGA:   9    -0.367684270968E+03   -0.34483E-03   -0.37532E-03 10206   0.109E-02 0.641E-03
CGA:  10    -0.367684530876E+03   -0.25991E-03   -0.25850E-03 10206   0.537E-03 0.173E-03
CGA:  11    -0.367684632128E+03   -0.10125E-03   -0.22912E-03 10206   0.193E-02-0.711E-03
CGA:  12    -0.367684704549E+03   -0.72421E-04   -0.13608E-03 10206   0.241E-03 0.504E-03
CGA:  13    -0.367684709766E+03   -0.52171E-05   -0.22001E-04 10206   0.117E-03 0.141E-03
CGA:  14    -0.367684758367E+03   -0.48601E-04    0.88153E-04 10206   0.491E-04 0.262E-04
CGA:  15    -0.367684756848E+03    0.15193E-05   -0.36179E-05 10206   0.234E-04 0.410E-04
  11 F= -.36768476E+03 E0= -.36768476E+03  d E =-.343473E-02  mag=    16.0000
       N       E                     dE             d eps       ncg     rms          ort
SDA:   1    -0.353192436603E+03    0.14492E+02    0.00000E+00 10206   0.339E+02 0.000E+00
CGA:   2    -0.364002026869E+03   -0.10810E+02   -0.10739E+02 10206   0.193E+02 0.464E+00
CGA:   3    -0.366404157278E+03   -0.24021E+01   -0.23307E+01 10206   0.404E+01 0.144E+00
CGA:   4    -0.367230692334E+03   -0.82654E+00   -0.82561E+00 10206   0.783E+00 0.182E-01
CGA:   5    -0.367383082376E+03   -0.15239E+00   -0.15235E+00 10206   0.222E+00 0.276E-02
CGA:   6    -0.367427842844E+03   -0.44760E-01   -0.44839E-01 10206   0.783E-01-0.340E-02
CGA:   7    -0.367444460102E+03   -0.16617E-01   -0.16663E-01 10206   0.297E-01-0.124E-02
CGA:   8    -0.367452203158E+03   -0.77431E-02   -0.77933E-02 10206   0.124E-01-0.588E-03
CGA:   9    -0.367455266035E+03   -0.30629E-02   -0.30785E-02 10206   0.688E-02-0.231E-03
CGA:  10    -0.367456525079E+03   -0.12590E-02   -0.12584E-02 10206   0.281E-02-0.231E-03
CGA:  11    -0.367457160083E+03   -0.63500E-03   -0.65614E-03 10206   0.114E-02-0.400E-03
CGA:  12    -0.367457413342E+03   -0.25326E-03   -0.27973E-03 10206   0.690E-03-0.277E-03
CGA:  13    -0.367457528060E+03   -0.11472E-03   -0.12133E-03 10206   0.512E-03-0.185E-03
CGA:  14    -0.367457624497E+03   -0.96437E-04   -0.10500E-03 10206   0.273E-03-0.105E-03
CGA:  15    -0.367457473011E+03    0.15149E-03   -0.21435E-03 10206   0.222E-02-0.468E-03
CGA:  16    -0.367457702368E+03   -0.22936E-03   -0.24490E-03 10206   0.430E-03 0.119E-03
CGA:  17    -0.367457796396E+03   -0.94028E-04   -0.94511E-04 10206   0.663E-04 0.183E-04
CGA:  18    -0.367457817081E+03   -0.20684E-04   -0.20384E-04 10206   0.240E-04 0.489E-05
CGA:  19    -0.367457819479E+03   -0.23982E-05   -0.34952E-05 10206   0.110E-04 0.109E-04
  12 F= -.36745782E+03 E0= -.36745782E+03  d E =0.226937E+00  mag=    16.0000
       N       E                     dE             d eps       ncg     rms          ort
SDA:   1    -0.364990314299E+03    0.24675E+01    0.00000E+00 10206   0.666E+01 0.000E+00
CGA:   2    -0.367053250084E+03   -0.20629E+01   -0.20640E+01 10206   0.280E+01-0.113E-01
CGA:   3    -0.367492521321E+03   -0.43927E+00   -0.44046E+00 10206   0.976E+00-0.838E-02
CGA:   4    -0.367648054404E+03   -0.15553E+00   -0.15530E+00 10206   0.232E+00 0.822E-02
CGA:   5    -0.367689612758E+03   -0.41558E-01   -0.41516E-01 10206   0.599E-01-0.151E-02
CGA:   6    -0.367701733075E+03   -0.12120E-01   -0.12165E-01 10206   0.184E-01 0.294E-02
CGA:   7    -0.367706268023E+03   -0.45349E-02   -0.45437E-02 10206   0.101E-01-0.554E-03
CGA:   8    -0.367707903649E+03   -0.16356E-02   -0.16954E-02 10206   0.368E-02 0.128E-02
CGA:   9    -0.367709014977E+03   -0.11113E-02   -0.11465E-02 10206   0.239E-02-0.599E-03
CGA:  10    -0.367709285733E+03   -0.27076E-03   -0.30680E-03 10206   0.836E-03 0.537E-03
CGA:  11    -0.367709424808E+03   -0.13907E-03   -0.15551E-03 10206   0.327E-03 0.252E-03
CGA:  12    -0.367709533493E+03   -0.10869E-03   -0.11275E-03 10206   0.304E-03-0.795E-04
CGA:  13    -0.367709531525E+03    0.19677E-05   -0.15646E-04 10206   0.195E-03 0.119E-03
CGA:  14    -0.367709526170E+03    0.53548E-05   -0.15929E-04 10206   0.106E-03 0.142E-03
CGA:  15    -0.367709554391E+03   -0.28221E-04   -0.26921E-04 10206   0.327E-04 0.242E-04
CGA:  16    -0.367709549936E+03    0.44550E-05   -0.14758E-05 10206   0.264E-04 0.354E-04
  13 F= -.36770955E+03 E0= -.36770955E+03  d E =-.251730E+00  mag=    16.0000
       N       E                     dE             d eps       ncg     rms          ort
SDA:   1    -0.367448706285E+03    0.26085E+00    0.00000E+00 10206   0.715E+00 0.000E+00
CGA:   2    -0.367693344087E+03   -0.24464E+00   -0.24462E+00 10206   0.249E+00 0.664E-04
CGA:   3    -0.367734411798E+03   -0.41068E-01   -0.41205E-01 10206   0.937E-01 0.497E-02
CGA:   4    -0.367750696739E+03   -0.16285E-01   -0.16161E-01 10206   0.227E-01-0.522E-02
CGA:   5    -0.367754230689E+03   -0.35340E-02   -0.35619E-02 10206   0.561E-02 0.107E-02
CGA:   6    -0.367755736563E+03   -0.15059E-02   -0.16212E-02 10206   0.325E-02-0.136E-02
CGA:   7    -0.367756138302E+03   -0.40174E-03   -0.41001E-03 10206   0.120E-02 0.285E-03
CGA:   8    -0.367756469492E+03   -0.33119E-03   -0.35429E-03 10206   0.729E-03-0.302E-03
CGA:   9    -0.367756602823E+03   -0.13333E-03   -0.14745E-03 10206   0.488E-03-0.196E-03
CGA:  10    -0.367756673785E+03   -0.70962E-04   -0.70866E-04 10206   0.221E-03-0.337E-04
CGA:  11    -0.367755680915E+03    0.99287E-03   -0.53478E-03 10206   0.654E-02-0.118E-02
CGA:  12    -0.367756547166E+03   -0.86625E-03   -0.97734E-03 10206   0.125E-02 0.518E-03
CGA:  13    -0.367756892147E+03   -0.34498E-03   -0.28164E-03 10206   0.653E-03-0.431E-03
CGA:  14    -0.367756908269E+03   -0.16122E-04   -0.45362E-04 10206   0.196E-03 0.121E-03
CGA:  15    -0.367756904585E+03    0.36845E-05   -0.17735E-04 10206   0.811E-04 0.823E-04
CGA:  16    -0.367756917720E+03   -0.13135E-04   -0.16669E-04 10206   0.550E-04 0.197E-04
CGA:  17    -0.367756964658E+03   -0.46938E-04    0.12058E-03 10206   0.188E-03-0.105E-03
CGA:  18    -0.367756956183E+03    0.84749E-05   -0.12502E-04 10206   0.486E-04 0.846E-04
  14 F= -.36775696E+03 E0= -.36775696E+03  d E =-.474062E-01  mag=    16.0000
       N       E                     dE             d eps       ncg     rms          ort
SDA:   1    -0.367569382701E+03    0.18758E+00    0.00000E+00 10206   0.455E+00 0.000E+00
CGA:   2    -0.367726570201E+03   -0.15719E+00   -0.15717E+00 10206   0.148E+00 0.163E-03
CGA:   3    -0.367752211191E+03   -0.25641E-01   -0.25771E-01 10206   0.506E-01 0.120E-02
CGA:   4    -0.367760185770E+03   -0.79746E-02   -0.77903E-02 10206   0.117E-01-0.150E-02
CGA:   5    -0.367762029722E+03   -0.18440E-02   -0.18797E-02 10206   0.300E-02 0.317E-03
CGA:   6    -0.367762807578E+03   -0.77786E-03   -0.76304E-03 10206   0.132E-02-0.548E-03
CGA:   7    -0.367762993528E+03   -0.18595E-03   -0.19420E-03 10206   0.441E-03 0.892E-04
CGA:   8    -0.367763138456E+03   -0.14493E-03   -0.16203E-03 10206   0.475E-03-0.227E-03
CGA:   9    -0.367763167685E+03   -0.29229E-04   -0.50338E-04 10206   0.940E-04 0.127E-03
CGA:  10    -0.367763192077E+03   -0.24392E-04   -0.52656E-04 10206   0.302E-03-0.159E-03
CGA:  11    -0.367763225131E+03   -0.33055E-04   -0.41900E-04 10206   0.313E-04 0.660E-04
CGA:  12    -0.367763255814E+03   -0.30682E-04    0.99450E-05 10206   0.313E-04-0.191E-04
CGA:  13    -0.367763253089E+03    0.27247E-05   -0.15059E-05 10206   0.131E-04 0.194E-04
  15 F= -.36776325E+03 E0= -.36776325E+03  d E =-.629691E-02  mag=    16.0000
       N       E                     dE             d eps       ncg     rms          ort
SDA:   1    -0.366329365943E+03    0.14339E+01    0.00000E+00 10206   0.329E+01 0.000E+00
CGA:   2    -0.367519825108E+03   -0.11905E+01   -0.11913E+01 10206   0.118E+01-0.691E-02
CGA:   3    -0.367685208927E+03   -0.16538E+00   -0.16514E+00 10206   0.360E+00 0.120E-01
CGA:   4    -0.367745197920E+03   -0.59989E-01   -0.59625E-01 10206   0.696E-01-0.626E-02
CGA:   5    -0.367757330540E+03   -0.12133E-01   -0.12251E-01 10206   0.179E-01 0.192E-02
CGA:   6    -0.367761211195E+03   -0.38807E-02   -0.38556E-02 10206   0.584E-02-0.852E-03
CGA:   7    -0.367762195550E+03   -0.98435E-03   -0.10074E-02 10206   0.207E-02 0.409E-03
CGA:   8    -0.367762828426E+03   -0.63288E-03   -0.68112E-03 10206   0.187E-02-0.671E-03
CGA:   9    -0.367762975769E+03   -0.14734E-03   -0.16674E-03 10206   0.792E-03 0.184E-03
CGA:  10    -0.367763111300E+03   -0.13553E-03   -0.14207E-03 10206   0.454E-03 0.937E-04
CGA:  11    -0.367763229565E+03   -0.11827E-03   -0.13137E-03 10206   0.655E-03-0.456E-03
CGA:  12    -0.367763255166E+03   -0.25600E-04   -0.53730E-04 10206   0.118E-03 0.189E-03
CGA:  13    -0.367763271063E+03   -0.15897E-04   -0.19496E-04 10206   0.503E-04 0.378E-04
CGA:  14    -0.367763309348E+03   -0.38285E-04    0.23061E-04 10206   0.498E-04-0.411E-04
CGA:  15    -0.367763306871E+03    0.24769E-05   -0.25606E-05 10206   0.202E-04 0.301E-04
  16 F= -.36776331E+03 E0= -.36776331E+03  d E =-.537816E-04  mag=    16.0000
       N       E                     dE             d eps       ncg     rms          ort
SDA:   1    -0.340907832156E+03    0.26855E+02    0.00000E+00 10206   0.692E+02 0.000E+00
CGA:   2    -0.358358154618E+03   -0.17450E+02   -0.17161E+02 10206   0.484E+02 0.428E+01
CGA:   3    -0.365487417431E+03   -0.71293E+01   -0.66743E+01 10206   0.714E+01 0.142E+01
CGA:   4    -0.367101265953E+03   -0.16138E+01   -0.16136E+01 10206   0.162E+01-0.148E-02
CGA:   5    -0.367382114519E+03   -0.28085E+00   -0.28109E+00 10206   0.518E+00 0.803E-02
CGA:   6    -0.367477915561E+03   -0.95801E-01   -0.95715E-01 10206   0.166E+00-0.667E-02
CGA:   7    -0.367512944342E+03   -0.35029E-01   -0.34981E-01 10206   0.651E-01 0.396E-02
CGA:   8    -0.367528984568E+03   -0.16040E-01   -0.16271E-01 10206   0.460E-01-0.563E-02
CGA:   9    -0.367536863770E+03   -0.78792E-02   -0.78998E-02 10206   0.152E-01 0.142E-02
CGA:  10    -0.367541162429E+03   -0.42987E-02   -0.44525E-02 10206   0.704E-02-0.187E-02
CGA:  11    -0.367542556699E+03   -0.13943E-02   -0.13963E-02 10206   0.213E-02-0.106E-03
CGA:  12    -0.367543058916E+03   -0.50222E-03   -0.52876E-03 10206   0.171E-02-0.598E-03
CGA:  13    -0.367543228999E+03   -0.17008E-03   -0.17374E-03 10206   0.539E-03 0.526E-04
CGA:  14    -0.367543315059E+03   -0.86060E-04   -0.90428E-04 10206   0.346E-03 0.992E-04
CGA:  15    -0.367543398675E+03   -0.83616E-04   -0.83566E-04 10206   0.225E-03-0.799E-04
CGA:  16    -0.367543431907E+03   -0.33231E-04   -0.33673E-04 10206   0.131E-03 0.455E-04
CGA:  17    -0.367543442919E+03   -0.11013E-04   -0.17360E-04 10206   0.603E-04 0.676E-04
CGA:  18    -0.367543452034E+03   -0.91144E-05   -0.10018E-04 10206   0.245E-04 0.273E-04
  17 F= -.36754345E+03 E0= -.36754345E+03  d E =0.219855E+00  mag=    16.0000
       N       E                     dE             d eps       ncg     rms          ort
SDA:   1    -0.366055825322E+03    0.14876E+01    0.00000E+00 10206   0.383E+01 0.000E+00
CGA:   2    -0.367435048341E+03   -0.13792E+01   -0.13815E+01 10206   0.109E+01-0.129E-01
CGA:   3    -0.367646175240E+03   -0.21113E+00   -0.21114E+00 10206   0.372E+00 0.361E-02
CGA:   4    -0.367705484938E+03   -0.59310E-01   -0.59287E-01 10206   0.903E-01-0.114E-02
CGA:   5    -0.367720147330E+03   -0.14662E-01   -0.14746E-01 10206   0.265E-01 0.267E-02
CGA:   6    -0.367725951714E+03   -0.58044E-02   -0.57972E-02 10206   0.934E-02 0.395E-03
CGA:   7    -0.367728009499E+03   -0.20578E-02   -0.20427E-02 10206   0.364E-02 0.784E-03
CGA:   8    -0.367729081629E+03   -0.10721E-02   -0.11083E-02 10206   0.241E-02-0.433E-03
CGA:   9    -0.367729359933E+03   -0.27830E-03   -0.30514E-03 10206   0.840E-03 0.466E-03
CGA:  10    -0.367729513507E+03   -0.15357E-03   -0.16298E-03 10206   0.314E-03 0.262E-03
CGA:  11    -0.367729591986E+03   -0.78480E-04   -0.78639E-04 10206   0.208E-03 0.278E-04
CGA:  12    -0.367729601053E+03   -0.90672E-05   -0.21085E-04 10206   0.933E-04 0.116E-03
  18 F= -.36772960E+03 E0= -.36772960E+03  d E =-.186149E+00  mag=    16.0000
       N       E                     dE             d eps       ncg     rms          ort
SDA:   1    -0.365748939037E+03    0.19807E+01    0.00000E+00 10206   0.458E+01 0.000E+00
CGA:   2    -0.367436674785E+03   -0.16877E+01   -0.16899E+01 10206   0.140E+01-0.111E-01
CGA:   3    -0.367661824354E+03   -0.22515E+00   -0.22532E+00 10206   0.463E+00 0.935E-02
CGA:   4    -0.367730620555E+03   -0.68796E-01   -0.68731E-01 10206   0.932E-01-0.422E-02
CGA:   5    -0.367747424777E+03   -0.16804E-01   -0.16822E-01 10206   0.242E-01 0.204E-02
CGA:   6    -0.367752619405E+03   -0.51946E-02   -0.52160E-02 10206   0.768E-02-0.108E-02
CGA:   7    -0.367754001434E+03   -0.13820E-02   -0.13843E-02 10206   0.267E-02 0.763E-03
CGA:   8    -0.367754805928E+03   -0.80449E-03   -0.90123E-03 10206   0.255E-02-0.839E-03
CGA:   9    -0.367754989643E+03   -0.18371E-03   -0.21323E-03 10206   0.112E-02 0.393E-03
CGA:  10    -0.367755133629E+03   -0.14399E-03   -0.16331E-03 10206   0.594E-03 0.288E-03
CGA:  11    -0.367755289451E+03   -0.15582E-03   -0.16712E-03 10206   0.424E-03-0.335E-03
CGA:  12    -0.367755322057E+03   -0.32606E-04   -0.45438E-04 10206   0.970E-04 0.152E-03
CGA:  13    -0.367755350781E+03   -0.28724E-04   -0.29756E-04 10206   0.451E-04-0.270E-04
CGA:  14    -0.367755361136E+03   -0.10356E-04   -0.11784E-04 10206   0.548E-04-0.836E-05
CGA:  15    -0.367755357821E+03    0.33157E-05   -0.18741E-05 10206   0.377E-04 0.332E-04
  19 F= -.36775536E+03 E0= -.36775536E+03  d E =-.257568E-01  mag=    16.0000
       N       E                     dE             d eps       ncg     rms          ort
SDA:   1    -0.362884341400E+03    0.48710E+01    0.00000E+00 10206   0.113E+02 0.000E+00
CGA:   2    -0.366729081276E+03   -0.38447E+01   -0.38427E+01 10206   0.518E+01 0.129E-01
CGA:   3    -0.367412767914E+03   -0.68369E+00   -0.68012E+00 10206   0.140E+01 0.288E-01
CGA:   4    -0.367658222405E+03   -0.24545E+00   -0.24546E+00 10206   0.272E+00-0.825E-02
CGA:   5    -0.367708805639E+03   -0.50583E-01   -0.50584E-01 10206   0.697E-01 0.465E-02
CGA:   6    -0.367722670036E+03   -0.13864E-01   -0.13875E-01 10206   0.271E-01-0.128E-02
CGA:   7    -0.367727517188E+03   -0.48472E-02   -0.48503E-02 10206   0.950E-02 0.566E-03
CGA:   8    -0.367729912763E+03   -0.23956E-02   -0.24669E-02 10206   0.592E-02-0.107E-02
CGA:   9    -0.367730942913E+03   -0.10302E-02   -0.10300E-02 10206   0.228E-02 0.269E-04
CGA:  10    -0.367731566498E+03   -0.62358E-03   -0.66466E-03 10206   0.118E-02-0.416E-03
CGA:  11    -0.367731744821E+03   -0.17832E-03   -0.17916E-03 10206   0.408E-03 0.759E-04
CGA:  12    -0.367731439351E+03    0.30547E-03   -0.32623E-03 10206   0.382E-02-0.114E-02
CGA:  13    -0.367731799660E+03   -0.36031E-03   -0.43153E-03 10206   0.690E-03 0.652E-03
CGA:  14    -0.367731973464E+03   -0.17380E-03   -0.17310E-03 10206   0.200E-03-0.198E-03
CGA:  15    -0.367732002549E+03   -0.29085E-04   -0.29468E-04 10206   0.685E-04 0.366E-04
CGA:  16    -0.367731635132E+03    0.36742E-03   -0.19784E-03 10206   0.223E-02-0.405E-03
CGA:  17    -0.367731971730E+03   -0.33660E-03   -0.38396E-03 10206   0.324E-03 0.215E-03
CGA:  18    -0.367732070839E+03   -0.99109E-04   -0.69017E-04 10206   0.218E-03-0.159E-03
CGA:  19    -0.367732070983E+03   -0.14468E-06   -0.10515E-04 10206   0.943E-04 0.370E-04
  20 F= -.36773207E+03 E0= -.36773207E+03  d E =0.232868E-01  mag=    16.0000
       N       E                     dE             d eps       ncg     rms          ort
SDA:   1    -0.366765161580E+03    0.96691E+00    0.00000E+00 10206   0.236E+01 0.000E+00
CGA:   2    -0.367574876385E+03   -0.80971E+00   -0.80972E+00 10206   0.853E+00 0.535E-03
CGA:   3    -0.367711698397E+03   -0.13682E+00   -0.13712E+00 10206   0.299E+00 0.378E-03
CGA:   4    -0.367756825358E+03   -0.45127E-01   -0.45288E-01 10206   0.610E-01 0.275E-02
CGA:   5    -0.367768548730E+03   -0.11723E-01   -0.11641E-01 10206   0.162E-01-0.671E-03
CGA:   6    -0.367771944895E+03   -0.33962E-02   -0.33842E-02 10206   0.554E-02-0.109E-03
CGA:   7    -0.367773175590E+03   -0.12307E-02   -0.12330E-02 10206   0.236E-02 0.256E-04
CGA:   8    -0.367773672725E+03   -0.49713E-03   -0.51070E-03 10206   0.105E-02 0.142E-03
CGA:   9    -0.367773901568E+03   -0.22884E-03   -0.23631E-03 10206   0.482E-03 0.800E-04
CGA:  10    -0.367774009883E+03   -0.10832E-03   -0.11107E-03 10206   0.174E-03 0.316E-04
CGA:  11    -0.367774037142E+03   -0.27259E-04   -0.33371E-04 10206   0.531E-04 0.523E-04
CGA:  12    -0.367774048683E+03   -0.11541E-04   -0.13607E-04 10206   0.182E-04 0.220E-04
CGA:  13    -0.367774046712E+03    0.19714E-05   -0.21062E-05 10206   0.124E-04 0.199E-04
  21 F= -.36777405E+03 E0= -.36777405E+03  d E =-.419757E-01  mag=    16.0000
       N       E                     dE             d eps       ncg     rms          ort
SDA:   1    -0.367671332435E+03    0.10272E+00    0.00000E+00 10206   0.242E+00 0.000E+00
CGA:   2    -0.367756922262E+03   -0.85590E-01   -0.85513E-01 10206   0.790E-01 0.846E-03
CGA:   3    -0.367770374365E+03   -0.13452E-01   -0.13457E-01 10206   0.234E-01 0.339E-04
CGA:   4    -0.367773940522E+03   -0.35662E-02   -0.36172E-02 10206   0.528E-02 0.471E-03
CGA:   5    -0.367774965294E+03   -0.10248E-02   -0.10034E-02 10206   0.170E-02-0.294E-03
CGA:   6    -0.367775223731E+03   -0.25844E-03   -0.27011E-03 10206   0.424E-03 0.133E-03
CGA:   7    -0.367775329450E+03   -0.10572E-03   -0.10563E-03 10206   0.179E-03-0.434E-05
CGA:   8    -0.367775347815E+03   -0.18365E-04   -0.25892E-04 10206   0.667E-04 0.720E-04
CGA:   9    -0.367775356735E+03   -0.89199E-05   -0.13117E-04 10206   0.300E-04 0.401E-04
  22 F= -.36777536E+03 E0= -.36777536E+03  d E =-.131002E-02  mag=    16.0000
       N       E                     dE             d eps       ncg     rms          ort
SDA:   1    -0.365282168120E+03    0.24932E+01    0.00000E+00 10206   0.573E+01 0.000E+00
CGA:   2    -0.367348705335E+03   -0.20665E+01   -0.20674E+01 10206   0.214E+01-0.618E-02
CGA:   3    -0.367638092353E+03   -0.28939E+00   -0.28768E+00 10206   0.638E+00 0.282E-01
CGA:   4    -0.367745452487E+03   -0.10736E+00   -0.10712E+00 10206   0.118E+00-0.722E-02
CGA:   5    -0.367767878524E+03   -0.22426E-01   -0.22516E-01 10206   0.304E-01 0.213E-02
CGA:   6    -0.367774269782E+03   -0.63913E-02   -0.63557E-02 10206   0.106E-01-0.124E-02
CGA:   7    -0.367775988367E+03   -0.17186E-02   -0.17712E-02 10206   0.347E-02 0.898E-03
CGA:   8    -0.367777048773E+03   -0.10604E-02   -0.11090E-02 10206   0.273E-02-0.759E-03
CGA:   9    -0.367777308644E+03   -0.25987E-03   -0.30127E-03 10206   0.107E-02 0.452E-03
CGA:  10    -0.367777511011E+03   -0.20237E-03   -0.21350E-03 10206   0.494E-03 0.193E-03
CGA:  11    -0.367777647616E+03   -0.13660E-03   -0.18127E-03 10206   0.111E-02-0.528E-03
CGA:  12    -0.367777674759E+03   -0.27143E-04   -0.79984E-04 10206   0.169E-03 0.335E-03
CGA:  13    -0.367777675666E+03   -0.90740E-06   -0.16032E-04 10206   0.770E-04 0.101E-03
CGA:  14    -0.367777716023E+03   -0.40356E-04    0.37516E-04 10206   0.403E-04 0.566E-05
CGA:  15    -0.367777712106E+03    0.39163E-05   -0.17521E-05 10206   0.231E-04 0.325E-04
  23 F= -.36777771E+03 E0= -.36777771E+03  d E =-.235537E-02  mag=    16.0000
       N       E                     dE             d eps       ncg     rms          ort
SDA:   1    -0.342752843398E+03    0.25025E+02    0.00000E+00 10206   0.662E+02 0.000E+00
CGA:   2    -0.358920720446E+03   -0.16168E+02   -0.15852E+02 10206   0.450E+02 0.487E+01
CGA:   3    -0.365631909445E+03   -0.67112E+01   -0.63032E+01 10206   0.784E+01 0.109E+01
CGA:   4    -0.367268128869E+03   -0.16362E+01   -0.16351E+01 10206   0.166E+01 0.616E-01
CGA:   5    -0.367564247128E+03   -0.29612E+00   -0.29616E+00 10206   0.575E+00 0.968E-02
CGA:   6    -0.367659108947E+03   -0.94862E-01   -0.94879E-01 10206   0.177E+00-0.604E-02
CGA:   7    -0.367696043448E+03   -0.36935E-01   -0.36880E-01 10206   0.709E-01 0.376E-02
CGA:   8    -0.367711392455E+03   -0.15349E-01   -0.15415E-01 10206   0.413E-01-0.391E-02
CGA:   9    -0.367720079244E+03   -0.86868E-02   -0.86681E-02 10206   0.166E-01 0.705E-03
CGA:  10    -0.367724064885E+03   -0.39856E-02   -0.40340E-02 10206   0.869E-02-0.118E-02
CGA:  11    -0.367725565817E+03   -0.15009E-02   -0.15053E-02 10206   0.281E-02 0.352E-03
CGA:  12    -0.367726297847E+03   -0.73203E-03   -0.79257E-03 10206   0.184E-02-0.831E-03
CGA:  13    -0.367726455656E+03   -0.15781E-03   -0.17493E-03 10206   0.637E-03 0.254E-03
CGA:  14    -0.367726550306E+03   -0.94650E-04   -0.10478E-03 10206   0.294E-03 0.187E-03
CGA:  15    -0.367726610720E+03   -0.60414E-04   -0.61873E-04 10206   0.194E-03 0.433E-04
CGA:  16    -0.367726621883E+03   -0.11163E-04   -0.24054E-04 10206   0.144E-03 0.150E-03
CGA:  17    -0.367726625672E+03   -0.37899E-05   -0.12681E-04 10206   0.714E-04 0.875E-04
  24 F= -.36772663E+03 E0= -.36772663E+03  d E =0.510864E-01  mag=    16.0000
       N       E                     dE             d eps       ncg     rms          ort
SDA:   1    -0.365666415606E+03    0.20602E+01    0.00000E+00 10206   0.507E+01 0.000E+00
CGA:   2    -0.367337944649E+03   -0.16715E+01   -0.16725E+01 10206   0.213E+01-0.673E-02
CGA:   3    -0.367639868850E+03   -0.30192E+00   -0.30171E+00 10206   0.655E+00 0.138E-01
CGA:   4    -0.367750758150E+03   -0.11089E+00   -0.11084E+00 10206   0.141E+00-0.607E-02
CGA:   5    -0.367775602696E+03   -0.24845E-01   -0.24864E-01 10206   0.349E-01 0.269E-02
CGA:   6    -0.367783415611E+03   -0.78129E-02   -0.79114E-02 10206   0.132E-01-0.265E-02
CGA:   7    -0.367785723221E+03   -0.23076E-02   -0.23063E-02 10206   0.468E-02 0.586E-03
CGA:   8    -0.367786972743E+03   -0.12495E-02   -0.13204E-02 10206   0.303E-02-0.853E-03
CGA:   9    -0.367787311785E+03   -0.33904E-03   -0.36244E-03 10206   0.109E-02 0.523E-03
CGA:  10    -0.367787592035E+03   -0.28025E-03   -0.28111E-03 10206   0.509E-03-0.278E-04
CGA:  11    -0.367787125555E+03    0.46648E-03   -0.34879E-03 10206   0.759E-02-0.159E-02
CGA:  12    -0.367787593693E+03   -0.46814E-03   -0.61144E-03 10206   0.651E-03 0.110E-02
CGA:  13    -0.367787677860E+03   -0.84166E-04   -0.10192E-03 10206   0.321E-03 0.244E-03
CGA:  14    -0.367787776514E+03   -0.98655E-04   -0.11108E-03 10206   0.294E-03-0.273E-03
CGA:  15    -0.367787778166E+03   -0.16521E-05   -0.20019E-04 10206   0.797E-04 0.131E-03
  25 F= -.36778778E+03 E0= -.36778778E+03  d E =-.611525E-01  mag=    16.0000
       N       E                     dE             d eps       ncg     rms          ort
SDA:   1    -0.367169458429E+03    0.61832E+00    0.00000E+00 10206   0.144E+01 0.000E+00
CGA:   2    -0.367682783241E+03   -0.51332E+00   -0.51358E+00 10206   0.516E+00-0.154E-02
CGA:   3    -0.367763432988E+03   -0.80650E-01   -0.80608E-01 10206   0.163E+00-0.151E-03
CGA:   4    -0.367788143440E+03   -0.24710E-01   -0.24645E-01 10206   0.345E-01-0.156E-02
CGA:   5    -0.367794353878E+03   -0.62104E-02   -0.62192E-02 10206   0.886E-02 0.556E-03
CGA:   6    -0.367796116598E+03   -0.17627E-02   -0.17630E-02 10206   0.259E-02 0.270E-03
CGA:   7    -0.367796726548E+03   -0.60995E-03   -0.61071E-03 10206   0.107E-02-0.237E-04
CGA:   8    -0.367796970648E+03   -0.24410E-03   -0.24546E-03 10206   0.582E-03-0.419E-04
CGA:   9    -0.367797111815E+03   -0.14117E-03   -0.16452E-03 10206   0.627E-03-0.248E-03
CGA:  10    -0.367797149864E+03   -0.38048E-04   -0.40882E-04 10206   0.230E-03 0.312E-04
CGA:  11    -0.367797169718E+03   -0.19855E-04   -0.23845E-04 10206   0.119E-03 0.392E-04
CGA:  12    -0.367797197497E+03   -0.27779E-04   -0.27902E-04 10206   0.645E-04-0.284E-04
CGA:  13    -0.367797206017E+03   -0.85198E-05   -0.12693E-04 10206   0.139E-03-0.668E-04
CGA:  14    -0.367797213108E+03   -0.70910E-05   -0.11091E-04 10206   0.219E-04 0.336E-04
  26 F= -.36779721E+03 E0= -.36779721E+03  d E =-.943494E-02  mag=    16.0000
       N       E                     dE             d eps       ncg     rms          ort
SDA:   1    -0.367714372869E+03    0.82833E-01    0.00000E+00 10206   0.202E+00 0.000E+00
CGA:   2    -0.367783100226E+03   -0.68727E-01   -0.68522E-01 10206   0.740E-01 0.135E-02
CGA:   3    -0.367794691412E+03   -0.11591E-01   -0.11534E-01 10206   0.242E-01-0.143E-02
CGA:   4    -0.367798392836E+03   -0.37014E-02   -0.37028E-02 10206   0.504E-02 0.429E-04
CGA:   5    -0.367799305462E+03   -0.91263E-03   -0.91139E-03 10206   0.131E-02-0.101E-03
CGA:   6    -0.367799501297E+03   -0.19583E-03   -0.20426E-03 10206   0.303E-03 0.251E-03
CGA:   7    -0.367799584516E+03   -0.83219E-04   -0.82268E-04 10206   0.122E-03 0.255E-04
CGA:   8    -0.367799617434E+03   -0.32918E-04   -0.32139E-04 10206   0.482E-04 0.153E-04
CGA:   9    -0.367799642770E+03   -0.25336E-04    0.26767E-04 10206   0.192E-04 0.183E-04
CGA:  10    -0.367799646819E+03   -0.40493E-05   -0.43752E-05 10206   0.722E-05 0.109E-04
  27 F= -.36779965E+03 E0= -.36779965E+03  d E =-.243371E-02  mag=    16.0000
       N       E                     dE             d eps       ncg     rms          ort
SDA:   1    -0.367317770461E+03    0.48187E+00    0.00000E+00 10206   0.111E+01 0.000E+00
CGA:   2    -0.367727535138E+03   -0.40976E+00   -0.41004E+00 10206   0.320E+00-0.154E-02
CGA:   3    -0.367781004469E+03   -0.53469E-01   -0.53572E-01 10206   0.102E+00 0.332E-02
CGA:   4    -0.367796963486E+03   -0.15959E-01   -0.15802E-01 10206   0.232E-01-0.355E-02
CGA:   5    -0.367800606806E+03   -0.36433E-02   -0.36840E-02 10206   0.552E-02 0.123E-02
CGA:   6    -0.367801870731E+03   -0.12639E-02   -0.12750E-02 10206   0.181E-02-0.479E-03
CGA:   7    -0.367802141768E+03   -0.27104E-03   -0.28013E-03 10206   0.542E-03 0.322E-03
CGA:   8    -0.367802321245E+03   -0.17948E-03   -0.25613E-03 10206   0.804E-03-0.374E-03
CGA:   9    -0.367802383749E+03   -0.62504E-04   -0.86213E-04 10206   0.157E-03 0.239E-03
CGA:  10    -0.367802431747E+03   -0.47998E-04   -0.56752E-04 10206   0.142E-03-0.112E-03
CGA:  11    -0.367802455265E+03   -0.23518E-04   -0.24137E-04 10206   0.163E-04 0.175E-04
CGA:  12    -0.367802473568E+03   -0.18303E-04    0.12714E-05 10206   0.113E-04 0.703E-05
CGA:  13    -0.367802475923E+03   -0.23550E-05   -0.26964E-05 10206   0.592E-05 0.930E-05
  28 F= -.36780248E+03 E0= -.36780248E+03  d E =-.282910E-02  mag=    16.0000
       N       E                     dE             d eps       ncg     rms          ort
SDA:   1    -0.361059295628E+03    0.67432E+01    0.00000E+00 10206   0.156E+02 0.000E+00
CGA:   2    -0.366514781104E+03   -0.54555E+01   -0.54495E+01 10206   0.705E+01 0.461E-01
CGA:   3    -0.367371565675E+03   -0.85678E+00   -0.83273E+00 10206   0.170E+01 0.136E+00
CGA:   4    -0.367705100888E+03   -0.33354E+00   -0.33351E+00 10206   0.263E+00-0.711E-02
CGA:   5    -0.367762888803E+03   -0.57788E-01   -0.57793E-01 10206   0.773E-01-0.306E-03
CGA:   6    -0.367776736423E+03   -0.13848E-01   -0.13865E-01 10206   0.255E-01 0.684E-03
CGA:   7    -0.367782365699E+03   -0.56293E-02   -0.56338E-02 10206   0.974E-02-0.285E-03
CGA:   8    -0.367784758456E+03   -0.23928E-02   -0.23935E-02 10206   0.520E-02-0.155E-04
CGA:   9    -0.367785982696E+03   -0.12242E-02   -0.12488E-02 10206   0.350E-02-0.720E-03
CGA:  10    -0.367786457266E+03   -0.47457E-03   -0.48827E-03 10206   0.914E-03 0.298E-03
CGA:  11    -0.367786697309E+03   -0.24004E-03   -0.24093E-03 10206   0.400E-03-0.237E-04
CGA:  12    -0.367786746117E+03   -0.48808E-04   -0.16206E-03 10206   0.153E-02-0.543E-03
CGA:  13    -0.367786821962E+03   -0.75844E-04   -0.11709E-03 10206   0.143E-03 0.294E-03
CGA:  14    -0.367786823301E+03   -0.13390E-05   -0.13480E-04 10206   0.778E-04 0.918E-04
CGA:  15    -0.367786838786E+03   -0.15485E-04   -0.15581E-04 10206   0.390E-04 0.228E-04
CGA:  16    -0.367786836119E+03    0.26672E-05   -0.29014E-05 10206   0.214E-04 0.379E-04
  29 F= -.36778684E+03 E0= -.36778684E+03  d E =0.156398E-01  mag=    16.0000
       N       E                     dE             d eps       ncg     rms          ort
SDA:   1    -0.366882593391E+03    0.90425E+00    0.00000E+00 10206   0.213E+01 0.000E+00
CGA:   2    -0.367592180520E+03   -0.70959E+00   -0.71054E+00 10206   0.886E+00-0.677E-02
CGA:   3    -0.367721060970E+03   -0.12888E+00   -0.12915E+00 10206   0.262E+00 0.821E-02
CGA:   4    -0.367766237387E+03   -0.45176E-01   -0.45038E-01 10206   0.654E-01-0.652E-02
CGA:   5    -0.367776894082E+03   -0.10657E-01   -0.10719E-01 10206   0.151E-01 0.256E-02
CGA:   6    -0.367780357598E+03   -0.34635E-02   -0.34913E-02 10206   0.558E-02-0.896E-03
CGA:   7    -0.367781409269E+03   -0.10517E-02   -0.10483E-02 10206   0.191E-02 0.501E-03
CGA:   8    -0.367781993134E+03   -0.58386E-03   -0.72343E-03 10206   0.215E-02-0.902E-03
CGA:   9    -0.367782083215E+03   -0.90081E-04   -0.11445E-03 10206   0.117E-02 0.245E-03
CGA:  10    -0.367782186227E+03   -0.10301E-03   -0.12948E-03 10206   0.532E-03 0.273E-03
CGA:  11    -0.367782314454E+03   -0.12823E-03   -0.12979E-03 10206   0.320E-03-0.243E-03
CGA:  12    -0.367782322090E+03   -0.76363E-05   -0.64418E-04 10206   0.599E-03-0.319E-03
CGA:  13    -0.367782348829E+03   -0.26739E-04   -0.54270E-04 10206   0.177E-03 0.251E-03
CGA:  14    -0.367782380907E+03   -0.32079E-04   -0.35603E-04 10206   0.745E-04 0.659E-04
CGA:  15    -0.367782439982E+03   -0.59075E-04    0.19513E-04 10206   0.495E-04-0.416E-04
CGA:  16    -0.367782435885E+03    0.40967E-05   -0.16918E-05 10206   0.280E-04 0.366E-04
  30 F= -.36778244E+03 E0= -.36778244E+03  d E =0.440023E-02  mag=    16.0000
       N       E                     dE             d eps       ncg     rms          ort
SDA:   1    -0.366079223071E+03    0.17032E+01    0.00000E+00 10206   0.395E+01 0.000E+00
CGA:   2    -0.367525051607E+03   -0.14458E+01   -0.14491E+01 10206   0.126E+01-0.163E-01
CGA:   3    -0.367706692680E+03   -0.18164E+00   -0.18169E+00 10206   0.444E+00 0.141E-01
CGA:   4    -0.367777702387E+03   -0.71010E-01   -0.70888E-01 10206   0.702E-01-0.652E-02
CGA:   5    -0.367792018947E+03   -0.14317E-01   -0.14266E-01 10206   0.180E-01 0.218E-02
CGA:   6    -0.367795860466E+03   -0.38415E-02   -0.38784E-02 10206   0.744E-02-0.146E-02
CGA:   7    -0.367796972092E+03   -0.11116E-02   -0.11269E-02 10206   0.224E-02 0.743E-03
CGA:   8    -0.367797673221E+03   -0.70113E-03   -0.80994E-03 10206   0.210E-02-0.754E-03
CGA:   9    -0.367797851726E+03   -0.17851E-03   -0.19233E-03 10206   0.974E-03 0.260E-03
CGA:  10    -0.367797998961E+03   -0.14723E-03   -0.15505E-03 10206   0.416E-03 0.165E-03
CGA:  11    -0.367798093672E+03   -0.94711E-04   -0.15210E-03 10206   0.733E-03-0.455E-03
CGA:  12    -0.367798125334E+03   -0.31662E-04   -0.59924E-04 10206   0.149E-03 0.254E-03
CGA:  13    -0.367798140845E+03   -0.15512E-04   -0.21060E-04 10206   0.535E-04 0.672E-04
CGA:  14    -0.367798170836E+03   -0.29991E-04    0.12765E-03 10206   0.254E-04-0.232E-04
CGA:  15    -0.367798169769E+03    0.10676E-05   -0.57528E-06 10206   0.218E-04 0.115E-04
  31 F= -.36779817E+03 E0= -.36779817E+03  d E =-.157339E-01  mag=    16.0000
       N       E                     dE             d eps       ncg     rms          ort
SDA:   1    -0.367691246540E+03    0.10692E+00    0.00000E+00 10206   0.249E+00 0.000E+00
CGA:   2    -0.367770358670E+03   -0.79112E-01   -0.79130E-01 10206   0.100E+00-0.154E-03
CGA:   3    -0.367786893652E+03   -0.16535E-01   -0.16562E-01 10206   0.297E-01 0.257E-02
CGA:   4    -0.367792065837E+03   -0.51722E-02   -0.51657E-02 10206   0.786E-02-0.101E-02
CGA:   5    -0.367793231502E+03   -0.11657E-02   -0.11776E-02 10206   0.188E-02 0.585E-03
CGA:   6    -0.367793691501E+03   -0.46000E-03   -0.47305E-03 10206   0.779E-03-0.221E-03
CGA:   7    -0.367793805847E+03   -0.11435E-03   -0.11578E-03 10206   0.237E-03 0.157E-03
CGA:   8    -0.367793860383E+03   -0.54536E-04   -0.53869E-04 10206   0.941E-04 0.557E-04
CGA:   9    -0.367793882295E+03   -0.21912E-04   -0.21600E-04 10206   0.425E-04 0.374E-04
CGA:  10    -0.367793884141E+03   -0.18463E-05   -0.53622E-05 10206   0.241E-04 0.401E-04
  32 F= -.36779388E+03 E0= -.36779388E+03  d E =0.428563E-02  mag=    16.0000
       N       E                     dE             d eps       ncg     rms          ort
SDA:   1    -0.367759367848E+03    0.34514E-01    0.00000E+00 10206   0.833E-01 0.000E+00
CGA:   2    -0.367788418082E+03   -0.29050E-01   -0.29087E-01 10206   0.292E-01-0.208E-03
CGA:   3    -0.367793360869E+03   -0.49428E-02   -0.49423E-02 10206   0.912E-02-0.578E-04
CGA:   4    -0.367794871186E+03   -0.15103E-02   -0.15018E-02 10206   0.252E-02-0.659E-03
CGA:   5    -0.367795198485E+03   -0.32730E-03   -0.33587E-03 10206   0.541E-03 0.253E-03
CGA:   6    -0.367795321277E+03   -0.12279E-03   -0.12247E-03 10206   0.181E-03 0.106E-04
CGA:   7    -0.367795360266E+03   -0.38989E-04   -0.38437E-04 10206   0.665E-04 0.175E-04
CGA:   8    -0.367795374113E+03   -0.13847E-04   -0.13723E-04 10206   0.280E-04 0.132E-04
CGA:   9    -0.367795387234E+03   -0.13121E-04    0.32800E-04 10206   0.113E-04 0.915E-05
CGA:  10    -0.367795391071E+03   -0.38369E-05   -0.36996E-05 10206   0.482E-05 0.204E-05
  33 F= -.36779539E+03 E0= -.36779539E+03  d E =-.150693E-02  mag=    16.0000
       N       E                     dE             d eps       ncg     rms          ort
SDA:   1    -0.367693440219E+03    0.10195E+00    0.00000E+00 10206   0.227E+00 0.000E+00
CGA:   2    -0.367777942407E+03   -0.84502E-01   -0.84686E-01 10206   0.625E-01-0.950E-03
CGA:   3    -0.367788775584E+03   -0.10833E-01   -0.10870E-01 10206   0.194E-01 0.214E-02
CGA:   4    -0.367791933919E+03   -0.31583E-02   -0.30667E-02 10206   0.555E-02-0.242E-02
CGA:   5    -0.367792586382E+03   -0.65246E-03   -0.69230E-03 10206   0.101E-02 0.851E-03
CGA:   6    -0.367792810139E+03   -0.22376E-03   -0.22311E-03 10206   0.308E-03 0.147E-03
CGA:   7    -0.367792219890E+03    0.59025E-03   -0.31772E-03 10206   0.759E-02-0.127E-02
CGA:   8    -0.367792691745E+03   -0.47185E-03   -0.62503E-03 10206   0.776E-03 0.111E-02
CGA:   9    -0.367792846726E+03   -0.15498E-03   -0.15854E-03 10206   0.344E-03 0.949E-04
CGA:  10    -0.367791842731E+03    0.10040E-02   -0.32746E-03 10206   0.126E-01-0.210E-02
CGA:  11    -0.367792621400E+03   -0.77867E-03   -0.10258E-02 10206   0.111E-02 0.158E-02
CGA:  12    -0.367792805294E+03   -0.18389E-03   -0.20738E-03 10206   0.534E-03 0.331E-03
CGA:  13    -0.367792968740E+03   -0.16345E-03   -0.16951E-03 10206   0.681E-03-0.575E-03
CGA:  14    -0.367792964364E+03    0.43757E-05   -0.40766E-04 10206   0.124E-03 0.259E-03
  34 F= -.36779296E+03 E0= -.36779296E+03  d E =0.242671E-02  mag=    16.0000
       N       E                     dE             d eps       ncg     rms          ort
SDA:   1    -0.365456791252E+03    0.23362E+01    0.00000E+00 10206   0.595E+01 0.000E+00
CGA:   2    -0.367195630881E+03   -0.17388E+01   -0.17380E+01 10206   0.247E+01 0.573E-02
CGA:   3    -0.367575668485E+03   -0.38004E+00   -0.37817E+00 10206   0.893E+00 0.175E-01
CGA:   4    -0.367721252056E+03   -0.14558E+00   -0.14532E+00 10206   0.144E+00-0.972E-02
CGA:   5    -0.367747536576E+03   -0.26285E-01   -0.26361E-01 10206   0.368E-01 0.274E-02
CGA:   6    -0.367755372103E+03   -0.78355E-02   -0.78306E-02 10206   0.130E-01-0.123E-02
CGA:   7    -0.367757537948E+03   -0.21658E-02   -0.22154E-02 10206   0.439E-02 0.139E-02
CGA:   8    -0.367758894745E+03   -0.13568E-02   -0.14323E-02 10206   0.341E-02-0.900E-03
CGA:   9    -0.367759251356E+03   -0.35661E-03   -0.40078E-03 10206   0.146E-02 0.658E-03
CGA:  10    -0.367759556188E+03   -0.30483E-03   -0.31364E-03 10206   0.646E-03 0.277E-03
CGA:  11    -0.367759732687E+03   -0.17650E-03   -0.24408E-03 10206   0.154E-02-0.630E-03
CGA:  12    -0.367759771347E+03   -0.38660E-04   -0.10864E-03 10206   0.246E-03 0.484E-03
CGA:  13    -0.367759770932E+03    0.41524E-06   -0.21955E-04 10206   0.120E-03 0.159E-03
CGA:  14    -0.367759820932E+03   -0.50000E-04    0.34519E-03 10206   0.552E-04 0.317E-04
CGA:  15    -0.367759816069E+03    0.48629E-05   -0.34654E-05 10206   0.352E-04 0.550E-04
  35 F= -.36775982E+03 E0= -.36775982E+03  d E =0.331483E-01  mag=    16.0000
       N       E                     dE             d eps       ncg     rms          ort
SDA:   1    -0.367283755718E+03    0.47607E+00    0.00000E+00 10206   0.111E+01 0.000E+00
CGA:   2    -0.367676238165E+03   -0.39248E+00   -0.39351E+00 10206   0.357E+00-0.604E-02
CGA:   3    -0.367730840366E+03   -0.54602E-01   -0.54779E-01 10206   0.132E+00 0.551E-02
CGA:   4    -0.367752093489E+03   -0.21253E-01   -0.21113E-01 10206   0.252E-01-0.454E-02
CGA:   5    -0.367756489979E+03   -0.43965E-02   -0.44107E-02 10206   0.582E-02 0.153E-02
CGA:   6    -0.367757893338E+03   -0.14034E-02   -0.14223E-02 10206   0.246E-02-0.470E-03
CGA:   7    -0.367758244623E+03   -0.35128E-03   -0.36364E-03 10206   0.762E-03 0.399E-03
CGA:   8    -0.367758486292E+03   -0.24167E-03   -0.36034E-03 10206   0.117E-02-0.548E-03
CGA:   9    -0.367758606836E+03   -0.12054E-03   -0.14090E-03 10206   0.184E-03 0.253E-03
CGA:  10    -0.367758623881E+03   -0.17045E-04   -0.10153E-03 10206   0.736E-03-0.330E-03
CGA:  11    -0.367758669989E+03   -0.46108E-04   -0.70330E-04 10206   0.125E-03 0.212E-03
CGA:  12    -0.367758701857E+03   -0.31868E-04   -0.31592E-04 10206   0.350E-04-0.370E-04
CGA:  13    -0.367758731817E+03   -0.29960E-04    0.12665E-05 10206   0.314E-04-0.705E-05
CGA:  14    -0.367758735073E+03   -0.32562E-05   -0.36140E-05 10206   0.106E-04 0.600E-05
  36 F= -.36775874E+03 E0= -.36775874E+03  d E =0.108100E-02  mag=    16.0000
       N       E                     dE             d eps       ncg     rms          ort
SDA:   1    -0.367068277894E+03    0.69045E+00    0.00000E+00 10206   0.179E+01 0.000E+00
CGA:   2    -0.367624057595E+03   -0.55578E+00   -0.55603E+00 10206   0.598E+00-0.229E-02
CGA:   3    -0.367741091422E+03   -0.11703E+00   -0.11702E+00 10206   0.196E+00-0.342E-02
CGA:   4    -0.367768741067E+03   -0.27650E-01   -0.27851E-01 10206   0.381E-01 0.365E-02
CGA:   5    -0.367775928152E+03   -0.71871E-02   -0.71713E-02 10206   0.121E-01-0.140E-02
CGA:   6    -0.367777977654E+03   -0.20495E-02   -0.20610E-02 10206   0.320E-02 0.610E-03
CGA:   7    -0.367778868616E+03   -0.89096E-03   -0.97560E-03 10206   0.217E-02-0.879E-03
CGA:   8    -0.367779087985E+03   -0.21937E-03   -0.23585E-03 10206   0.888E-03 0.334E-03
CGA:   9    -0.367779282542E+03   -0.19456E-03   -0.19474E-03 10206   0.406E-03 0.284E-04
CGA:  10    -0.367779206427E+03    0.76115E-04   -0.24898E-03 10206   0.253E-02-0.817E-03
CGA:  11    -0.367779352627E+03   -0.14620E-03   -0.22351E-03 10206   0.413E-03 0.608E-03
CGA:  12    -0.367779431305E+03   -0.78677E-04   -0.81686E-04 10206   0.138E-03 0.597E-04
CGA:  13    -0.367779518259E+03   -0.86954E-04    0.49150E-04 10206   0.153E-03-0.113E-03
CGA:  14    -0.367779509326E+03    0.89323E-05   -0.63037E-05 10206   0.575E-04 0.917E-04
  37 F= -.36777951E+03 E0= -.36777951E+03  d E =-.207743E-01  mag=    16.0000
       N       E                     dE             d eps       ncg     rms          ort
SDA:   1    -0.367669962645E+03    0.10956E+00    0.00000E+00 10206   0.274E+00 0.000E+00
CGA:   2    -0.367751358114E+03   -0.81395E-01   -0.81244E-01 10206   0.105E+00 0.139E-02
CGA:   3    -0.367769755082E+03   -0.18397E-01   -0.18365E-01 10206   0.346E-01-0.145E-02
CGA:   4    -0.367775237773E+03   -0.54827E-02   -0.55072E-02 10206   0.750E-02 0.730E-03
CGA:   5    -0.367776638342E+03   -0.14006E-02   -0.13932E-02 10206   0.233E-02-0.635E-03
CGA:   6    -0.367777003998E+03   -0.36566E-03   -0.36902E-03 10206   0.606E-03 0.169E-03
CGA:   7    -0.367777169536E+03   -0.16554E-03   -0.23574E-03 10206   0.798E-03-0.411E-03
CGA:   8    -0.367777225819E+03   -0.56283E-04   -0.79198E-04 10206   0.129E-03 0.227E-03
CGA:   9    -0.367777259554E+03   -0.33734E-04   -0.34105E-04 10206   0.700E-04-0.335E-04
CGA:  10    -0.367777283963E+03   -0.24409E-04    0.24868E-04 10206   0.472E-04 0.755E-05
CGA:  11    -0.367777293199E+03   -0.92365E-05   -0.93153E-05 10206   0.192E-04 0.449E-05
  38 F= -.36777729E+03 E0= -.36777729E+03  d E =0.221613E-02  mag=    16.0000
       N       E                     dE             d eps       ncg     rms          ort
SDA:   1    -0.367750076169E+03    0.27208E-01    0.00000E+00 10206   0.614E-01 0.000E+00
CGA:   2    -0.367770299885E+03   -0.20224E-01   -0.20017E-01 10206   0.214E-01 0.156E-02
CGA:   3    -0.367774362780E+03   -0.40629E-02   -0.40269E-02 10206   0.962E-02-0.197E-02
CGA:   4    -0.367775448141E+03   -0.10854E-02   -0.11193E-02 10206   0.151E-02 0.477E-03
CGA:   5    -0.367775741466E+03   -0.29332E-03   -0.29298E-03 10206   0.499E-03-0.298E-04
CGA:   6    -0.367775856104E+03   -0.11464E-03   -0.14638E-03 10206   0.593E-03-0.308E-03
CGA:   7    -0.367775876993E+03   -0.20889E-04   -0.43814E-04 10206   0.979E-04 0.180E-03
CGA:   8    -0.367775886264E+03   -0.92711E-05   -0.12873E-04 10206   0.465E-04 0.382E-04
CGA:   9    -0.367775917860E+03   -0.31596E-04    0.21835E-04 10206   0.306E-04-0.131E-04
CGA:  10    -0.367775931491E+03   -0.13631E-04    0.33108E-05 10206   0.261E-04-0.205E-05
CGA:  11    -0.367775935237E+03   -0.37461E-05   -0.37454E-05 10206   0.166E-04-0.191E-07
  39 F= -.36777594E+03 E0= -.36777594E+03  d E =0.135796E-02  mag=    16.0000
       N       E                     dE             d eps       ncg     rms          ort
SDA:   1    -0.367684786479E+03    0.91145E-01    0.00000E+00 10206   0.207E+00 0.000E+00
CGA:   2    -0.367755212980E+03   -0.70427E-01   -0.69986E-01 10206   0.626E-01 0.293E-02
CGA:   3    -0.367767939466E+03   -0.12726E-01   -0.12747E-01 10206   0.260E-01-0.441E-02
CGA:   4    -0.367770649425E+03   -0.27100E-02   -0.28367E-02 10206   0.399E-02 0.163E-02
CGA:   5    -0.367771464305E+03   -0.81488E-03   -0.81490E-03 10206   0.133E-02 0.647E-04
CGA:   6    -0.367771765908E+03   -0.30160E-03   -0.34499E-03 10206   0.135E-02-0.698E-03
CGA:   7    -0.367771818446E+03   -0.52538E-04   -0.99972E-04 10206   0.213E-03 0.392E-03
CGA:   8    -0.367771841254E+03   -0.22808E-04   -0.29349E-04 10206   0.114E-03 0.793E-04
CGA:   9    -0.367771915568E+03   -0.74313E-04    0.50434E-04 10206   0.756E-04-0.128E-04
CGA:  10    -0.367771957234E+03   -0.41666E-04    0.91844E-05 10206   0.672E-04 0.791E-05
CGA:  11    -0.367771967760E+03   -0.10526E-04   -0.10884E-04 10206   0.351E-04 0.929E-05
CGA:  12    -0.367771986544E+03   -0.18785E-04    0.12985E-04 10206   0.162E-04 0.353E-05
CGA:  13    -0.367772012842E+03   -0.26298E-04    0.54225E-06 10206   0.975E-05-0.347E-05
CGA:  14    -0.367772018501E+03   -0.56597E-05    0.69205E-06 10206   0.537E-05-0.652E-06
  40 F= -.36777202E+03 E0= -.36777202E+03  d E =0.391674E-02  mag=    16.0000
       N       E                     dE             d eps       ncg     rms          ort
SDA:   1    -0.367406861816E+03    0.36515E+00    0.00000E+00 10206   0.848E+00 0.000E+00
CGA:   2    -0.367689601099E+03   -0.28274E+00   -0.28155E+00 10206   0.294E+00 0.792E-02
CGA:   3    -0.367739773585E+03   -0.50172E-01   -0.50004E-01 10206   0.121E+00-0.935E-02
CGA:   4    -0.367755186411E+03   -0.15413E-01   -0.15603E-01 10206   0.153E-01 0.364E-02
CGA:   5    -0.367758759552E+03   -0.35731E-02   -0.35888E-02 10206   0.457E-02-0.378E-03
CGA:   6    -0.367759715295E+03   -0.95574E-03   -0.97821E-03 10206   0.207E-02-0.733E-03
CGA:   7    -0.367759931265E+03   -0.21597E-03   -0.23491E-03 10206   0.660E-03 0.342E-03
CGA:   8    -0.367760119622E+03   -0.18836E-03   -0.21448E-03 10206   0.652E-03-0.287E-03
CGA:   9    -0.367759853891E+03    0.26573E-03   -0.22765E-03 10206   0.308E-02-0.116E-02
CGA:  10    -0.367760149231E+03   -0.29534E-03   -0.35371E-03 10206   0.665E-03 0.594E-03
CGA:  11    -0.367760351201E+03   -0.20197E-03   -0.21890E-03 10206   0.377E-03-0.251E-03
CGA:  12    -0.367760375176E+03   -0.23975E-04   -0.28781E-04 10206   0.164E-03 0.537E-04
CGA:  13    -0.367760394367E+03   -0.19191E-04   -0.22633E-04 10206   0.704E-04 0.398E-04
CGA:  14    -0.367759918144E+03    0.47622E-03   -0.25692E-03 10206   0.247E-02-0.526E-03
CGA:  15    -0.367760245185E+03   -0.32704E-03   -0.40325E-03 10206   0.662E-03 0.369E-03
CGA:  16    -0.367760461152E+03   -0.21597E-03   -0.16928E-03 10206   0.342E-03-0.340E-03
CGA:  17    -0.367760450130E+03    0.11022E-04   -0.22820E-04 10206   0.577E-04 0.118E-03
CGA:  18    -0.367760443921E+03    0.62092E-05   -0.44923E-05 10206   0.266E-04 0.381E-04
CGA:  19    -0.367760468271E+03   -0.24350E-04    0.10528E-04 10206   0.107E-04 0.662E-06
CGA:  20    -0.367760466252E+03    0.20186E-05   -0.44726E-06 10206   0.704E-05 0.868E-05
  41 F= -.36776047E+03 E0= -.36776047E+03  d E =0.115522E-01  mag=    16.0000
       N       E                     dE             d eps       ncg     rms          ort
SDA:   1    -0.367448676160E+03    0.31179E+00    0.00000E+00 10206   0.709E+00 0.000E+00
CGA:   2    -0.367698081136E+03   -0.24940E+00   -0.24928E+00 10206   0.202E+00 0.213E-02
CGA:   3    -0.367739660815E+03   -0.41580E-01   -0.41439E-01 10206   0.599E-01-0.150E-02
CGA:   4    -0.367747963991E+03   -0.83032E-02   -0.84231E-02 10206   0.135E-01 0.768E-03
CGA:   5    -0.367750709267E+03   -0.27453E-02   -0.26641E-02 10206   0.455E-02-0.876E-03
CGA:   6    -0.367751459201E+03   -0.74993E-03   -0.76207E-03 10206   0.126E-02 0.117E-03
CGA:   7    -0.367751826262E+03   -0.36706E-03   -0.37002E-03 10206   0.865E-03-0.348E-03
CGA:   8    -0.367751900672E+03   -0.74410E-04   -0.91452E-04 10206   0.346E-03 0.129E-03
CGA:   9    -0.367751977938E+03   -0.77265E-04   -0.76917E-04 10206   0.164E-03-0.444E-05
CGA:  10    -0.367750339340E+03    0.16386E-02   -0.88989E-03 10206   0.125E-01-0.131E-02
CGA:  11    -0.367751405875E+03   -0.10665E-02   -0.13203E-02 10206   0.211E-02 0.804E-03
CGA:  12    -0.367751943180E+03   -0.53731E-03   -0.50191E-03 10206   0.460E-03-0.145E-03
CGA:  13    -0.367752047656E+03   -0.10448E-03   -0.10750E-03 10206   0.128E-03 0.148E-04
CGA:  14    -0.367752087890E+03   -0.40234E-04   -0.42815E-04 10206   0.439E-04 0.210E-04
CGA:  15    -0.367751766921E+03    0.32097E-03   -0.96268E-04 10206   0.292E-02-0.289E-03
CGA:  16    -0.367751918843E+03   -0.15192E-03   -0.29032E-03 10206   0.429E-03 0.352E-03
CGA:  17    -0.367752041005E+03   -0.12216E-03   -0.11093E-03 10206   0.964E-04-0.430E-04
CGA:  18    -0.367751741263E+03    0.29974E-03   -0.12720E-03 10206   0.484E-02-0.432E-03
CGA:  19    -0.367751982815E+03   -0.24155E-03   -0.40878E-03 10206   0.289E-03 0.442E-03
CGA:  20    -0.367752048877E+03   -0.66062E-04   -0.70406E-04 10206   0.159E-03 0.153E-04
CGA:  21    -0.367752138560E+03   -0.89683E-04   -0.48679E-04 10206   0.377E-03-0.205E-03
CGA:  22    -0.367752118791E+03    0.19768E-04   -0.25750E-04 10206   0.475E-04 0.111E-03
CGA:  23    -0.367752108911E+03    0.98805E-05   -0.32225E-05 10206   0.208E-04 0.321E-04
  42 F= -.36775211E+03 E0= -.36775211E+03  d E =0.835734E-02  mag=    16.0000
       N       E                     dE             d eps       ncg     rms          ort
SDA:   1    -0.367516021618E+03    0.23610E+00    0.00000E+00 10206   0.577E+00 0.000E+00
CGA:   2    -0.367710222121E+03   -0.19420E+00   -0.19391E+00 10206   0.236E+00-0.346E-02
CGA:   3    -0.367741532886E+03   -0.31311E-01   -0.31826E-01 10206   0.738E-01 0.672E-02
CGA:   4    -0.367754974782E+03   -0.13442E-01   -0.13189E-01 10206   0.122E-01-0.125E-02
CGA:   5    -0.367757178723E+03   -0.22039E-02   -0.23126E-02 10206   0.327E-02 0.538E-03
CGA:   6    -0.367757874189E+03   -0.69547E-03   -0.68330E-03 10206   0.117E-02-0.664E-04
CGA:   7    -0.367758006165E+03   -0.13198E-03   -0.18219E-03 10206   0.370E-03 0.232E-03
CGA:   8    -0.367758125710E+03   -0.11954E-03   -0.11919E-03 10206   0.208E-03-0.361E-05
CGA:   9    -0.367758144660E+03   -0.18950E-04   -0.33341E-04 10206   0.857E-04 0.725E-04
CGA:  10    -0.367758149260E+03   -0.45998E-05   -0.15763E-04 10206   0.358E-04 0.521E-04
CGA:  11    -0.367758159831E+03   -0.10571E-04   -0.10637E-04 10206   0.258E-04 0.156E-05
CGA:  12    -0.367758155425E+03    0.44058E-05   -0.14554E-05 10206   0.156E-04 0.207E-04
  43 F= -.36775816E+03 E0= -.36775816E+03  d E =-.604651E-02  mag=    16.0000
       N       E                     dE             d eps       ncg     rms          ort
SDA:   1    -0.367721898215E+03    0.36262E-01    0.00000E+00 10206   0.925E-01 0.000E+00
CGA:   2    -0.367750161874E+03   -0.28264E-01   -0.28257E-01 10206   0.450E-01-0.162E-02
CGA:   3    -0.367755800456E+03   -0.56386E-02   -0.59084E-02 10206   0.132E-01 0.172E-02
CGA:   4    -0.367758530871E+03   -0.27304E-02   -0.26527E-02 10206   0.301E-02-0.730E-03
CGA:   5    -0.367758944165E+03   -0.41329E-03   -0.44963E-03 10206   0.665E-03 0.265E-03
CGA:   6    -0.367759082225E+03   -0.13806E-03   -0.14365E-03 10206   0.206E-03 0.622E-04
CGA:   7    -0.367759120150E+03   -0.37925E-04   -0.42920E-04 10206   0.696E-04 0.533E-04
CGA:   8    -0.367759130859E+03   -0.10708E-04   -0.14743E-04 10206   0.287E-04 0.363E-04
CGA:   9    -0.367759015676E+03    0.11518E-03   -0.62323E-04 10206   0.948E-03-0.109E-03
CGA:  10    -0.367759068282E+03   -0.52607E-04   -0.11224E-03 10206   0.142E-03 0.157E-03
CGA:  11    -0.367759123183E+03   -0.54901E-04   -0.37518E-04 10206   0.714E-04-0.685E-04
CGA:  12    -0.367759117013E+03    0.61702E-05   -0.22519E-05 10206   0.420E-04 0.207E-04
  44 F= -.36775912E+03 E0= -.36775912E+03  d E =-.961588E-03  mag=    16.0000
       N       E                     dE             d eps       ncg     rms          ort
SDA:   1    -0.367735498610E+03    0.23625E-01    0.00000E+00 10206   0.500E-01 0.000E+00
CGA:   2    -0.367752156183E+03   -0.16658E-01   -0.16734E-01 10206   0.166E-01 0.819E-03
CGA:   3    -0.367755465688E+03   -0.33095E-02   -0.30989E-02 10206   0.686E-02-0.910E-03
CGA:   4    -0.367756136916E+03   -0.67123E-03   -0.78899E-03 10206   0.970E-03 0.419E-03
CGA:   5    -0.367756363706E+03   -0.22679E-03   -0.21871E-03 10206   0.357E-03-0.440E-04
CGA:   6    -0.367756479761E+03   -0.11606E-03   -0.92295E-04 10206   0.372E-03-0.204E-03
CGA:   7    -0.367756472367E+03    0.73947E-05   -0.27539E-04 10206   0.601E-04 0.114E-03
  45 F= -.36775647E+03 E0= -.36775647E+03  d E =0.264465E-02  mag=    16.0000
