       N       E                     dE             d eps       ncg     rms          rms(c)
DAV:   1     0.288896976273E+04    0.28890E+04   -0.12733E+05 25352   0.171E+03
DAV:   2     0.167078170229E+02   -0.28723E+04   -0.26499E+04 25768   0.462E+02
DAV:   3    -0.394805397139E+03   -0.41151E+03   -0.39381E+03 26664   0.194E+02
DAV:   4    -0.414258350686E+03   -0.19453E+02   -0.19212E+02 30608   0.418E+01
DAV:   5    -0.414905651894E+03   -0.64730E+00   -0.64419E+00 37656   0.620E+00    0.608E+00
DAV:   6    -0.340559300033E+03    0.74346E+02   -0.15576E+01 28000   0.146E+01    0.673E+00
DAV:   7    -0.337521749405E+03    0.30376E+01   -0.22637E+00 27264   0.772E+00    0.325E+00
DAV:   8    -0.337535538186E+03   -0.13789E-01   -0.21942E-01 30104   0.235E+00    0.204E+00
DAV:   9    -0.337548911200E+03   -0.13373E-01   -0.22570E-02 29312   0.508E-01    0.190E+00
DAV:  10    -0.337522437552E+03    0.26474E-01   -0.15792E-02 33176   0.633E-01    0.163E+00
DAV:  11    -0.337497880902E+03    0.24557E-01   -0.25459E-02 27824   0.845E-01    0.142E+00
DAV:  12    -0.337483886775E+03    0.13994E-01   -0.44018E-02 27520   0.701E-01    0.155E+00
DAV:  13    -0.337484510382E+03   -0.62361E-03   -0.44715E-03 32360   0.346E-01    0.137E+00
DAV:  14    -0.337484384673E+03    0.12571E-03   -0.24597E-03 28688   0.215E-01    0.117E+00
DAV:  15    -0.337484511595E+03   -0.12692E-03   -0.16653E-04 31112   0.737E-02    0.105E+00
DAV:  16    -0.337484934645E+03   -0.42305E-03   -0.13710E-04 30448   0.906E-02    0.854E-01
DAV:  17    -0.337485272445E+03   -0.33780E-03   -0.10789E-04 27936   0.762E-02    0.664E-01
DAV:  18    -0.337485517306E+03   -0.24486E-03   -0.69350E-05 25864   0.349E-02    0.561E-01
DAV:  19    -0.337485566878E+03   -0.49572E-04   -0.81985E-06 14152   0.102E-02    0.538E-01
DAV:  20    -0.337485803283E+03   -0.23641E-03   -0.96114E-06 15824   0.267E-02    0.463E-01
DAV:  21    -0.337486593972E+03   -0.79069E-03   -0.19898E-04 29280   0.104E-01    0.159E-01
DAV:  22    -0.337486764125E+03   -0.17015E-03   -0.75356E-05 28616   0.338E-02    0.828E-02
DAV:  23    -0.337486850428E+03   -0.86303E-04   -0.45341E-06 13824   0.972E-03    0.550E-02
DAV:  24    -0.337486957932E+03   -0.10750E-03   -0.14257E-06 13800   0.105E-02    0.229E-02
DAV:  25    -0.337486974615E+03   -0.16683E-04   -0.34480E-06 13784   0.682E-03    0.184E-02
DAV:  26    -0.337486982614E+03   -0.79997E-05   -0.70416E-07 13728   0.309E-03
   1 F= -.33748698E+03 E0= -.33748698E+03  d E =-.337487E+03  mag=    10.0000
