       N       E                     dE             d eps       ncg     rms          rms(c)
DAV:   1     0.231119210025E+04    0.23112E+04   -0.12007E+05 39912   0.147E+03
DAV:   2    -0.949818603654E+02   -0.24062E+04   -0.23231E+04 42768   0.401E+02
DAV:   3    -0.317121730029E+03   -0.22214E+03   -0.21826E+03 44824   0.139E+02
DAV:   4    -0.325327010742E+03   -0.82053E+01   -0.80733E+01 53176   0.301E+01
DAV:   5    -0.325763943484E+03   -0.43693E+00   -0.43520E+00 63536   0.508E+00    0.827E+01
DAV:   6    -0.280572365569E+03    0.45192E+02   -0.30832E+02 53704   0.623E+01    0.607E+01
DAV:   7    -0.293078664542E+03   -0.12506E+02   -0.15597E+02 56072   0.110E+02    0.445E+01
DAV:   8    -0.287449471571E+03    0.56292E+01   -0.16761E+02 52840   0.385E+01    0.385E+01
DAV:   9    -0.274077081040E+03    0.13372E+02   -0.49147E+01 52752   0.212E+01    0.254E+01
DAV:  10    -0.272611954200E+03    0.14651E+01   -0.67612E+01 53528   0.163E+01    0.182E+01
DAV:  11    -0.270703365248E+03    0.19086E+01   -0.35471E+00 52568   0.797E+00    0.174E+01
DAV:  12    -0.270609864488E+03    0.93501E-01   -0.60449E+00 54304   0.478E+00    0.138E+01
DAV:  13    -0.270359420959E+03    0.25044E+00   -0.53588E-01 54472   0.325E+00    0.123E+01
DAV:  14    -0.270675736158E+03   -0.31632E+00   -0.93642E+00 54976   0.446E+00    0.205E+01
DAV:  15    -0.270578215899E+03    0.97520E-01   -0.10712E+00 53928   0.291E+00    0.161E+01
DAV:  16    -0.270515412605E+03    0.62803E-01   -0.11268E-01 52984   0.176E+00    0.144E+01
DAV:  17    -0.270158848752E+03    0.35656E+00   -0.72717E-01 58760   0.279E+00    0.420E+00
DAV:  18    -0.270231876149E+03   -0.73027E-01   -0.24036E-01 51552   0.959E-01    0.331E+00
DAV:  19    -0.270236711578E+03   -0.48354E-02   -0.21176E-02 49184   0.517E-01    0.278E+00
DAV:  20    -0.270238755406E+03   -0.20438E-02   -0.20393E-02 54176   0.386E-01    0.252E+00
DAV:  21    -0.270239026439E+03   -0.27103E-03   -0.30714E-02 51240   0.756E-01    0.168E+00
DAV:  22    -0.270243202250E+03   -0.41758E-02   -0.46419E-02 51920   0.651E-01    0.144E+00
DAV:  23    -0.270245651192E+03   -0.24489E-02   -0.12597E-02 53480   0.326E-01    0.189E+00
DAV:  24    -0.270243867259E+03    0.17839E-02   -0.17732E-02 53296   0.382E-01    0.796E-01
DAV:  25    -0.270245007987E+03   -0.11407E-02   -0.68382E-03 52616   0.259E-01    0.432E-01
DAV:  26    -0.270245143019E+03   -0.13503E-03   -0.99520E-04 52488   0.110E-01    0.296E-01
DAV:  27    -0.270245206770E+03   -0.63751E-04   -0.10848E-03 54072   0.876E-02    0.236E-01
DAV:  28    -0.270245233842E+03   -0.27072E-04   -0.70623E-04 50552   0.679E-02    0.127E-01
DAV:  29    -0.270245247948E+03   -0.14106E-04   -0.28451E-04 47400   0.497E-02    0.109E-01
DAV:  30    -0.270245249516E+03   -0.15677E-05   -0.56718E-05 32856   0.305E-02
   1 F= -.27024525E+03 E0= -.27023487E+03  d E =-.270245E+03  mag=     4.0016
       N       E                     dE             d eps       ncg     rms          rms(c)
DAV:   1    -0.270246396639E+03   -0.11487E-02   -0.72657E-04 43280   0.124E-01    0.790E-02
DAV:   2    -0.270247113530E+03   -0.71689E-03   -0.42391E-03 53360   0.135E-01    0.767E-01
DAV:   3    -0.270246205604E+03    0.90793E-03   -0.38043E-03 50336   0.126E-01    0.572E-02
DAV:   4    -0.270246406923E+03   -0.20132E-03   -0.46332E-05 29344   0.254E-02    0.684E-02
DAV:   5    -0.270246415787E+03   -0.88641E-05   -0.16802E-05 24912   0.135E-02
   2 F= -.27024642E+03 E0= -.27023603E+03  d E =-.116627E-02  mag=     4.0004
       N       E                     dE             d eps       ncg     rms          rms(c)
DAV:   1    -0.270272688698E+03   -0.26282E-01   -0.41395E-01 41344   0.318E+00    0.378E-01
DAV:   2    -0.270279686576E+03   -0.69979E-02   -0.61081E-02 49752   0.741E-01    0.167E+00
DAV:   3    -0.270275347138E+03    0.43394E-02   -0.32310E-02 53984   0.463E-01    0.614E-01
DAV:   4    -0.270276288095E+03   -0.94096E-03   -0.99624E-03 53784   0.225E-01    0.680E-01
DAV:   5    -0.270275383313E+03    0.90478E-03   -0.41781E-03 54144   0.173E-01    0.104E-01
DAV:   6    -0.270275490220E+03   -0.10691E-03   -0.34650E-04 54560   0.821E-02    0.762E-02
DAV:   7    -0.270275498900E+03   -0.86798E-05   -0.15012E-04 42328   0.527E-02    0.858E-02
DAV:   8    -0.270275515511E+03   -0.16611E-04   -0.22141E-04 32040   0.317E-02    0.135E-01
DAV:   9    -0.270275496353E+03    0.19158E-04   -0.10173E-04 29096   0.279E-02    0.636E-02
DAV:  10    -0.270275497767E+03   -0.14138E-05   -0.97008E-06 24496   0.111E-02
   3 F= -.27027550E+03 E0= -.27026513E+03  d E =-.290820E-01  mag=     4.0000
       N       E                     dE             d eps       ncg     rms          rms(c)
DAV:   1    -0.270316032157E+03   -0.40536E-01   -0.66227E+00 39816   0.124E+01    0.128E+00
DAV:   2    -0.270419828296E+03   -0.10380E+00   -0.88690E-01 49432   0.283E+00    0.663E+00
DAV:   3    -0.270355671326E+03    0.64157E-01   -0.60137E-01 53888   0.160E+00    0.162E+00
DAV:   4    -0.270373900711E+03   -0.18229E-01   -0.12490E-01 53192   0.732E-01    0.299E+00
DAV:   5    -0.270359518490E+03    0.14382E-01   -0.81176E-02 54800   0.612E-01    0.628E-01
DAV:   6    -0.270364322014E+03   -0.48035E-02   -0.30745E-02 54160   0.364E-01    0.162E+00
DAV:   7    -0.270360529855E+03    0.37922E-02   -0.18500E-02 54816   0.351E-01    0.289E-01
DAV:   8    -0.270361227526E+03   -0.69767E-03   -0.11675E-03 54272   0.165E-01    0.214E-01
DAV:   9    -0.270361228800E+03   -0.12744E-05   -0.54206E-04 55160   0.808E-02    0.151E-01
DAV:  10    -0.270361236116E+03   -0.73158E-05   -0.29600E-04 44152   0.503E-02    0.128E-01
DAV:  11    -0.270361225152E+03    0.10964E-04   -0.29843E-04 41448   0.499E-02    0.799E-02
DAV:  12    -0.270361232240E+03   -0.70879E-05   -0.85864E-05 34304   0.311E-02
   4 F= -.27036123E+03 E0= -.27035084E+03  d E =-.857345E-01  mag=     4.0000
       N       E                     dE             d eps       ncg     rms          rms(c)
DAV:   1    -0.270387952259E+03   -0.26727E-01   -0.44949E+00 39312   0.904E+00    0.866E-01
DAV:   2    -0.270438348557E+03   -0.50396E-01   -0.45866E-01 49840   0.204E+00    0.411E+00
DAV:   3    -0.270410837062E+03    0.27511E-01   -0.24388E-01 54112   0.104E+00    0.107E+00
DAV:   4    -0.270417596704E+03   -0.67596E-02   -0.58805E-02 56280   0.486E-01    0.186E+00
DAV:   5    -0.270411648869E+03    0.59478E-02   -0.29723E-02 54656   0.395E-01    0.315E-01
DAV:   6    -0.270414717315E+03   -0.30684E-02   -0.16873E-02 54160   0.272E-01    0.143E+00
DAV:   7    -0.270411595309E+03    0.31220E-02   -0.13328E-02 54928   0.265E-01    0.198E-01
DAV:   8    -0.270412187552E+03   -0.59224E-03   -0.44905E-04 52040   0.115E-01    0.140E-01
DAV:   9    -0.270412179624E+03    0.79280E-05   -0.36439E-04 55792   0.657E-02    0.727E-02
DAV:  10    -0.270412197590E+03   -0.17966E-04   -0.13859E-04 35096   0.330E-02    0.607E-02
DAV:  11    -0.270412208917E+03   -0.11327E-04   -0.84120E-05 30984   0.260E-02    0.602E-02
DAV:  12    -0.270412208441E+03    0.47532E-06   -0.23812E-05 27680   0.161E-02
   5 F= -.27041221E+03 E0= -.27040181E+03  d E =-.509762E-01  mag=     4.0000
       N       E                     dE             d eps       ncg     rms          rms(c)
DAV:   1    -0.270421424675E+03   -0.92158E-02   -0.78551E+00 39312   0.111E+01    0.105E+00
DAV:   2    -0.270486894760E+03   -0.65470E-01   -0.64340E-01 47920   0.242E+00    0.406E+00
DAV:   3    -0.270457878691E+03    0.29016E-01   -0.26411E-01 54216   0.113E+00    0.109E+00
DAV:   4    -0.270470465042E+03   -0.12586E-01   -0.10717E-01 56328   0.628E-01    0.293E+00
DAV:   5    -0.270456628471E+03    0.13837E-01   -0.70444E-02 54672   0.549E-01    0.447E-01
DAV:   6    -0.270462307404E+03   -0.56789E-02   -0.28547E-02 55496   0.337E-01    0.181E+00
DAV:   7    -0.270457207077E+03    0.51003E-02   -0.21255E-02 53328   0.338E-01    0.275E-01
DAV:   8    -0.270458185182E+03   -0.97811E-03   -0.77536E-04 48624   0.114E-01    0.175E-01
DAV:   9    -0.270458196783E+03   -0.11601E-04   -0.66024E-04 56560   0.650E-02    0.101E-01
DAV:  10    -0.270458226129E+03   -0.29347E-04   -0.16825E-04 36456   0.398E-02    0.728E-02
DAV:  11    -0.270458234598E+03   -0.84681E-05   -0.93177E-05 36184   0.326E-02
   6 F= -.27045823E+03 E0= -.27044785E+03  d E =-.460262E-01  mag=     4.0000
       N       E                     dE             d eps       ncg     rms          rms(c)
DAV:   1    -0.270426644391E+03    0.31582E-01   -0.13242E+01 39312   0.146E+01    0.117E+00
DAV:   2    -0.270505923211E+03   -0.79279E-01   -0.84168E-01 43304   0.283E+00    0.333E+00
DAV:   3    -0.270487572998E+03    0.18350E-01   -0.21033E-01 54720   0.117E+00    0.141E+00
DAV:   4    -0.270500298757E+03   -0.12726E-01   -0.13305E-01 56648   0.730E-01    0.314E+00
DAV:   5    -0.270482382312E+03    0.17916E-01   -0.64764E-02 54144   0.627E-01    0.427E-01
DAV:   6    -0.270490028231E+03   -0.76459E-02   -0.40958E-02 56192   0.393E-01    0.203E+00
DAV:   7    -0.270483369374E+03    0.66589E-02   -0.32415E-02 54688   0.377E-01    0.233E-01
DAV:   8    -0.270484620363E+03   -0.12510E-02   -0.11140E-03 53464   0.150E-01    0.263E-01
DAV:   9    -0.270484621761E+03   -0.13981E-05   -0.63970E-04 54984   0.883E-02    0.166E-01
DAV:  10    -0.270484623520E+03   -0.17589E-05   -0.26597E-04 40624   0.454E-02    0.813E-02
DAV:  11    -0.270484642496E+03   -0.18976E-04   -0.11362E-04 36288   0.335E-02    0.888E-02
DAV:  12    -0.270484634388E+03    0.81086E-05   -0.69980E-05 31792   0.258E-02
   7 F= -.27048463E+03 E0= -.27047428E+03  d E =-.263998E-01  mag=     4.0000
       N       E                     dE             d eps       ncg     rms          rms(c)
DAV:   1    -0.270357432958E+03    0.12721E+00   -0.30702E+01 39312   0.225E+01    0.168E+00
DAV:   2    -0.270507910775E+03   -0.15048E+00   -0.16532E+00 40608   0.417E+00    0.338E+00
DAV:   3    -0.270497331034E+03    0.10580E-01   -0.40290E-01 53896   0.153E+00    0.237E+00
DAV:   4    -0.270500579082E+03   -0.32480E-02   -0.14970E-01 55920   0.880E-01    0.342E+00
DAV:   5    -0.270483374298E+03    0.17205E-01   -0.12352E-01 55536   0.680E-01    0.759E-01
DAV:   6    -0.270493018666E+03   -0.96444E-02   -0.57238E-02 55136   0.509E-01    0.259E+00
DAV:   7    -0.270482286013E+03    0.10733E-01   -0.52939E-02 54328   0.507E-01    0.529E-01
DAV:   8    -0.270484185126E+03   -0.18991E-02   -0.31594E-03 50120   0.214E-01    0.231E-01
DAV:   9    -0.270484539265E+03   -0.35414E-03   -0.24149E-03 56080   0.125E-01    0.236E-01
DAV:  10    -0.270484652100E+03   -0.11283E-03   -0.47236E-04 52944   0.754E-02    0.221E-01
DAV:  11    -0.270484631188E+03    0.20912E-04   -0.21467E-04 49048   0.491E-02    0.181E-01
DAV:  12    -0.270484603121E+03    0.28067E-04   -0.17410E-04 41744   0.540E-02    0.131E-01
DAV:  13    -0.270484586988E+03    0.16134E-04   -0.33822E-04 50488   0.550E-02    0.774E-02
DAV:  14    -0.270484606578E+03   -0.19590E-04   -0.10862E-04 32368   0.351E-02    0.606E-02
DAV:  15    -0.270484608844E+03   -0.22665E-05   -0.44689E-05 29120   0.220E-02
   8 F= -.27048461E+03 E0= -.27047435E+03  d E =0.255434E-04  mag=     4.0000
       N       E                     dE             d eps       ncg     rms          rms(c)
DAV:   1    -0.270489415971E+03   -0.48094E-02   -0.18321E+00 40320   0.520E+00    0.486E-01
DAV:   2    -0.270496844356E+03   -0.74284E-02   -0.83099E-02 40592   0.960E-01    0.721E-01
DAV:   3    -0.270496700129E+03    0.14423E-03   -0.21040E-02 57248   0.367E-01    0.690E-01
DAV:   4    -0.270496018064E+03    0.68207E-03   -0.67425E-03 53480   0.216E-01    0.579E-01
DAV:   5    -0.270495603560E+03    0.41450E-03   -0.37709E-03 54904   0.132E-01    0.266E-01
DAV:   6    -0.270495432717E+03    0.17084E-03   -0.92891E-04 53216   0.105E-01    0.166E-01
DAV:   7    -0.270495828831E+03   -0.39611E-03   -0.35497E-03 55280   0.114E-01    0.572E-01
DAV:   8    -0.270495322458E+03    0.50637E-03   -0.28807E-03 53848   0.116E-01    0.968E-02
DAV:   9    -0.270495492294E+03   -0.16984E-03   -0.34876E-04 36216   0.458E-02    0.104E-01
DAV:  10    -0.270495502058E+03   -0.97639E-05   -0.56462E-05 32848   0.310E-02
   9 F= -.27049550E+03 E0= -.27048527E+03  d E =-.108932E-01  mag=     4.0000
       N       E                     dE             d eps       ncg     rms          rms(c)
DAV:   1    -0.270498961716E+03   -0.34694E-02   -0.10563E+00 39656   0.351E+00    0.367E-01
DAV:   2    -0.270502298684E+03   -0.33370E-02   -0.38563E-02 44600   0.669E-01    0.648E-01
DAV:   3    -0.270502181355E+03    0.11733E-03   -0.15232E-02 56408   0.293E-01    0.677E-01
DAV:   4    -0.270502477033E+03   -0.29568E-03   -0.10278E-02 54424   0.217E-01    0.821E-01
DAV:   5    -0.270501322250E+03    0.11548E-02   -0.47291E-03 54096   0.171E-01    0.120E-01
DAV:   6    -0.270501755584E+03   -0.43333E-03   -0.25644E-03 54888   0.103E-01    0.497E-01
DAV:   7    -0.270501381575E+03    0.37401E-03   -0.25801E-03 54504   0.103E-01    0.106E-01
DAV:   8    -0.270501436569E+03   -0.54994E-04   -0.11288E-04 40944   0.494E-02    0.621E-02
DAV:   9    -0.270501431077E+03    0.54923E-05   -0.55269E-05 30608   0.265E-02
  10 F= -.27050143E+03 E0= -.27049120E+03  d E =-.592902E-02  mag=     4.0000
       N       E                     dE             d eps       ncg     rms          rms(c)
DAV:   1    -0.270493431812E+03    0.80048E-02   -0.55361E+00 40320   0.804E+00    0.456E-01
DAV:   2    -0.270507458547E+03   -0.14027E-01   -0.14914E-01 42368   0.129E+00    0.479E-01
DAV:   3    -0.270509852152E+03   -0.23936E-02   -0.25820E-02 55312   0.366E-01    0.147E+00
DAV:   4    -0.270506182435E+03    0.36697E-02   -0.14764E-02 54216   0.277E-01    0.256E-01
DAV:   5    -0.270507059816E+03   -0.87738E-03   -0.41189E-03 53840   0.143E-01    0.579E-01
DAV:   6    -0.270506523041E+03    0.53678E-03   -0.43752E-03 54904   0.159E-01    0.357E-01
DAV:   7    -0.270506519481E+03    0.35602E-05   -0.33410E-03 53872   0.135E-01    0.313E-01
DAV:   8    -0.270506388441E+03    0.13104E-03   -0.11155E-03 54400   0.105E-01    0.124E-01
DAV:   9    -0.270506470883E+03   -0.82442E-04   -0.42943E-04 53568   0.578E-02    0.994E-02
DAV:  10    -0.270506492870E+03   -0.21987E-04   -0.65024E-05 30760   0.308E-02    0.107E-01
DAV:  11    -0.270506494762E+03   -0.18914E-05   -0.37951E-05 30080   0.208E-02
  11 F= -.27050649E+03 E0= -.27049632E+03  d E =-.506368E-02  mag=     4.0000
       N       E                     dE             d eps       ncg     rms          rms(c)
DAV:   1    -0.270380369381E+03    0.12612E+00   -0.48543E+01 40320   0.248E+01    0.136E+00
DAV:   2    -0.270523595877E+03   -0.14323E+00   -0.14889E+00 40576   0.408E+00    0.205E+00
DAV:   3    -0.270528456215E+03   -0.48603E-02   -0.21665E-01 55080   0.120E+00    0.265E+00
DAV:   4    -0.270515441110E+03    0.13015E-01   -0.72214E-02 53872   0.688E-01    0.144E+00
DAV:   5    -0.270514127792E+03    0.13133E-02   -0.30124E-02 54760   0.369E-01    0.973E-01
DAV:   6    -0.270511125801E+03    0.30020E-02   -0.12241E-02 52096   0.359E-01    0.654E-01
DAV:   7    -0.270514460276E+03   -0.33345E-02   -0.39050E-02 54408   0.395E-01    0.167E+00
DAV:   8    -0.270509803739E+03    0.46565E-02   -0.21259E-02 53576   0.377E-01    0.263E-01
DAV:   9    -0.270511324937E+03   -0.15212E-02   -0.32110E-03 50512   0.135E-01    0.305E-01
DAV:  10    -0.270511445390E+03   -0.12045E-03   -0.78832E-04 54032   0.884E-02    0.300E-01
DAV:  11    -0.270511430759E+03    0.14631E-04   -0.34126E-04 52208   0.646E-02    0.235E-01
DAV:  12    -0.270511397142E+03    0.33617E-04   -0.33692E-04 52496   0.761E-02    0.115E-01
DAV:  13    -0.270511412677E+03   -0.15535E-04   -0.14988E-04 52032   0.564E-02    0.595E-02
DAV:  14    -0.270511424144E+03   -0.11467E-04   -0.75208E-05 33016   0.320E-02    0.665E-02
DAV:  15    -0.270511423018E+03    0.11265E-05   -0.45582E-05 27968   0.209E-02
  12 F= -.27051142E+03 E0= -.27050152E+03  d E =-.492826E-02  mag=     4.0000
       N       E                     dE             d eps       ncg     rms          rms(c)
DAV:   1    -0.270478560060E+03    0.32864E-01   -0.12946E+01 39312   0.134E+01    0.821E-01
DAV:   2    -0.270523028407E+03   -0.44468E-01   -0.46345E-01 40432   0.226E+00    0.131E+00
DAV:   3    -0.270524610293E+03   -0.15819E-02   -0.80696E-02 55608   0.695E-01    0.165E+00
DAV:   4    -0.270520938775E+03    0.36715E-02   -0.33857E-02 54312   0.446E-01    0.111E+00
DAV:   5    -0.270519219567E+03    0.17192E-02   -0.13676E-02 54616   0.280E-01    0.322E-01
DAV:   6    -0.270518835104E+03    0.38446E-03   -0.35614E-03 49776   0.207E-01    0.355E-01
DAV:   7    -0.270519272227E+03   -0.43712E-03   -0.74312E-03 54000   0.170E-01    0.641E-01
DAV:   8    -0.270518756884E+03    0.51534E-03   -0.32222E-03 53960   0.132E-01    0.165E-01
DAV:   9    -0.270518919397E+03   -0.16251E-03   -0.46623E-04 50584   0.519E-02    0.133E-01
DAV:  10    -0.270518939060E+03   -0.19663E-04   -0.85957E-05 32088   0.294E-02    0.124E-01
DAV:  11    -0.270518937156E+03    0.19039E-05   -0.11417E-04 39288   0.340E-02    0.105E-01
DAV:  12    -0.270518922790E+03    0.14366E-04   -0.11913E-04 38248   0.391E-02    0.352E-02
DAV:  13    -0.270518934054E+03   -0.11263E-04   -0.34882E-05 30064   0.236E-02    0.333E-02
DAV:  14    -0.270518937190E+03   -0.31366E-05   -0.15753E-05 22784   0.188E-02
  13 F= -.27051894E+03 E0= -.27050914E+03  d E =-.751417E-02  mag=     4.0000
       N       E                     dE             d eps       ncg     rms          rms(c)
DAV:   1    -0.270507675748E+03    0.11258E-01   -0.80128E+00 40320   0.959E+00    0.665E-01
DAV:   2    -0.270529509277E+03   -0.21834E-01   -0.22674E-01 43496   0.160E+00    0.120E+00
DAV:   3    -0.270530778126E+03   -0.12688E-02   -0.55052E-02 54584   0.577E-01    0.161E+00
DAV:   4    -0.270527920177E+03    0.28579E-02   -0.26920E-02 54016   0.361E-01    0.966E-01
DAV:   5    -0.270526747836E+03    0.11723E-02   -0.98020E-03 53904   0.234E-01    0.391E-01
DAV:   6    -0.270527159906E+03   -0.41207E-03   -0.47241E-03 54568   0.155E-01    0.695E-01
DAV:   7    -0.270526331891E+03    0.82802E-03   -0.60563E-03 54616   0.171E-01    0.369E-01
DAV:   8    -0.270526008605E+03    0.32329E-03   -0.12213E-03 53416   0.174E-01    0.185E-01
DAV:   9    -0.270526326653E+03   -0.31805E-03   -0.21009E-03 53576   0.112E-01    0.178E-01
DAV:  10    -0.270526412352E+03   -0.85699E-04   -0.30029E-04 48544   0.618E-02    0.179E-01
DAV:  11    -0.270526415798E+03   -0.34467E-05   -0.20129E-04 49688   0.507E-02    0.129E-01
DAV:  12    -0.270526406980E+03    0.88179E-05   -0.95915E-05 37376   0.409E-02
  14 F= -.27052641E+03 E0= -.27051646E+03  d E =-.746979E-02  mag=     4.0000
       N       E                     dE             d eps       ncg     rms          rms(c)
DAV:   1    -0.270528370336E+03   -0.19545E-02   -0.44871E-01 40320   0.282E+00    0.244E-01
DAV:   2    -0.270530316100E+03   -0.19458E-02   -0.21475E-02 40968   0.513E-01    0.268E-01
DAV:   3    -0.270530993529E+03   -0.67743E-03   -0.86599E-03 55048   0.193E-01    0.756E-01
DAV:   4    -0.270530060300E+03    0.93323E-03   -0.42226E-03 54248   0.142E-01    0.152E-01
DAV:   5    -0.270530209924E+03   -0.14962E-03   -0.71121E-04 47784   0.604E-02    0.187E-01
DAV:   6    -0.270530215306E+03   -0.53824E-05   -0.67646E-04 51792   0.661E-02    0.206E-01
DAV:   7    -0.270530145411E+03    0.69895E-04   -0.51991E-04 39536   0.567E-02    0.599E-02
DAV:   8    -0.270530156020E+03   -0.10609E-04   -0.51319E-05 28584   0.267E-02    0.378E-02
DAV:   9    -0.270530160905E+03   -0.48844E-05   -0.41120E-05 23416   0.169E-02
  15 F= -.27053016E+03 E0= -.27052024E+03  d E =-.375392E-02  mag=     4.0000
       N       E                     dE             d eps       ncg     rms          rms(c)
DAV:   1    -0.270528402591E+03    0.17534E-02   -0.12630E+00 39312   0.430E+00    0.235E-01
DAV:   2    -0.270532681413E+03   -0.42788E-02   -0.44927E-02 40320   0.709E-01    0.277E-01
DAV:   3    -0.270533198168E+03   -0.51676E-03   -0.65265E-03 55656   0.204E-01    0.647E-01
DAV:   4    -0.270532513523E+03    0.68465E-03   -0.31733E-03 54384   0.142E-01    0.249E-01
DAV:   5    -0.270532514404E+03   -0.88175E-06   -0.90373E-04 52240   0.720E-02    0.123E-01
DAV:   6    -0.270532572598E+03   -0.58194E-04   -0.10013E-03 54096   0.749E-02    0.290E-01
DAV:   7    -0.270532429048E+03    0.14355E-03   -0.98629E-04 53160   0.667E-02    0.803E-02
DAV:   8    -0.270532444999E+03   -0.15950E-04   -0.70157E-05 32792   0.410E-02    0.384E-02
DAV:   9    -0.270532461568E+03   -0.16569E-04   -0.91341E-05 30264   0.306E-02    0.456E-02
DAV:  10    -0.270532467115E+03   -0.55470E-05   -0.19258E-05 23144   0.166E-02
  16 F= -.27053247E+03 E0= -.27052259E+03  d E =-.230621E-02  mag=     4.0000
       N       E                     dE             d eps       ncg     rms          rms(c)
DAV:   1    -0.270319351347E+03    0.21311E+00   -0.55718E+01 40320   0.290E+01    0.245E+00
DAV:   2    -0.270534472926E+03   -0.21512E+00   -0.23174E+00 41056   0.532E+00    0.407E+00
DAV:   3    -0.270557358029E+03   -0.22885E-01   -0.87979E-01 54712   0.188E+00    0.508E+00
DAV:   4    -0.270510320478E+03    0.47038E-01   -0.14779E-01 54128   0.125E+00    0.165E+00
DAV:   5    -0.270514575262E+03   -0.42548E-02   -0.86328E-02 54816   0.666E-01    0.182E+00
DAV:   6    -0.270515037530E+03   -0.46227E-03   -0.84224E-02 54064   0.678E-01    0.210E+00
DAV:   7    -0.270508785107E+03    0.62524E-02   -0.55543E-02 54016   0.548E-01    0.796E-01
DAV:   8    -0.270508727993E+03    0.57114E-04   -0.93997E-03 54568   0.372E-01    0.549E-01
DAV:   9    -0.270508624754E+03    0.10324E-03   -0.36524E-03 55320   0.187E-01    0.237E-01
DAV:  10    -0.270508835332E+03   -0.21058E-03   -0.68107E-04 51080   0.706E-02    0.225E-01
DAV:  11    -0.270508861323E+03   -0.25992E-04   -0.20377E-04 42304   0.397E-02    0.265E-01
DAV:  12    -0.270508792709E+03    0.68614E-04   -0.13095E-04 37912   0.429E-02    0.180E-01
DAV:  13    -0.270508752645E+03    0.40064E-04   -0.64433E-04 51280   0.720E-02    0.122E-01
DAV:  14    -0.270508773234E+03   -0.20589E-04   -0.19337E-04 41400   0.433E-02    0.693E-02
DAV:  15    -0.270508783734E+03   -0.10500E-04   -0.43902E-05 31528   0.228E-02    0.562E-02
DAV:  16    -0.270508785028E+03   -0.12937E-05   -0.19962E-05 28208   0.168E-02
  17 F= -.27050879E+03 E0= -.27049907E+03  d E =0.236821E-01  mag=     4.0000
       N       E                     dE             d eps       ncg     rms          rms(c)
DAV:   1    -0.270541646694E+03   -0.32863E-01   -0.20246E+00 40320   0.571E+00    0.111E+00
DAV:   2    -0.270553781420E+03   -0.12135E-01   -0.14171E-01 50936   0.138E+00    0.208E+00
DAV:   3    -0.270554904390E+03   -0.11230E-02   -0.12489E-01 53520   0.797E-01    0.255E+00
DAV:   4    -0.270546022283E+03    0.88821E-02   -0.57183E-02 54184   0.572E-01    0.435E-01
DAV:   5    -0.270549486641E+03   -0.34644E-02   -0.22727E-02 53664   0.349E-01    0.127E+00
DAV:   6    -0.270546858663E+03    0.26280E-02   -0.17397E-02 54000   0.298E-01    0.490E-01
DAV:   7    -0.270547158847E+03   -0.30018E-03   -0.64853E-03 54160   0.176E-01    0.410E-01
DAV:   8    -0.270546878893E+03    0.27995E-03   -0.16127E-03 54552   0.132E-01    0.105E-01
DAV:   9    -0.270546918622E+03   -0.39729E-04   -0.24636E-04 47816   0.442E-02    0.908E-02
DAV:  10    -0.270546917439E+03    0.11829E-05   -0.34604E-05 29696   0.194E-02
  18 F= -.27054692E+03 E0= -.27053725E+03  d E =-.381324E-01  mag=     4.0000
       N       E                     dE             d eps       ncg     rms          rms(c)
DAV:   1    -0.270549243690E+03   -0.23251E-02   -0.38890E-02 42336   0.815E-01    0.173E-01
DAV:   2    -0.270549706580E+03   -0.46289E-03   -0.43976E-03 53816   0.212E-01    0.485E-01
DAV:   3    -0.270549406848E+03    0.29973E-03   -0.40319E-03 53696   0.142E-01    0.250E-01
DAV:   4    -0.270549570322E+03   -0.16347E-03   -0.21936E-03 51896   0.101E-01    0.341E-01
DAV:   5    -0.270549352146E+03    0.21818E-03   -0.12189E-03 46216   0.838E-02    0.558E-02
DAV:   6    -0.270549375092E+03   -0.22946E-04   -0.37437E-05 32520   0.310E-02    0.514E-02
DAV:   7    -0.270549375105E+03   -0.13148E-07   -0.43396E-05 25792   0.208E-02
  19 F= -.27054938E+03 E0= -.27053966E+03  d E =-.245767E-02  mag=     4.0000
       N       E                     dE             d eps       ncg     rms          rms(c)
DAV:   1    -0.270551597653E+03   -0.22226E-02   -0.91708E-01 40320   0.396E+00    0.692E-01
DAV:   2    -0.270557350339E+03   -0.57527E-02   -0.65432E-02 50072   0.930E-01    0.143E+00
DAV:   3    -0.270556747649E+03    0.60269E-03   -0.53399E-02 53608   0.506E-01    0.142E+00
DAV:   4    -0.270554105159E+03    0.26425E-02   -0.17250E-02 54232   0.335E-01    0.300E-01
DAV:   5    -0.270554895783E+03   -0.79062E-03   -0.73088E-03 54184   0.201E-01    0.576E-01
DAV:   6    -0.270554240058E+03    0.65573E-03   -0.42636E-03 54448   0.172E-01    0.135E-01
DAV:   7    -0.270554350533E+03   -0.11047E-03   -0.85539E-04 54688   0.887E-02    0.229E-01
DAV:   8    -0.270554286317E+03    0.64216E-04   -0.56159E-04 39672   0.534E-02    0.113E-01
DAV:   9    -0.270554299087E+03   -0.12770E-04   -0.90168E-05 32192   0.287E-02    0.882E-02
DAV:  10    -0.270554294063E+03    0.50248E-05   -0.21656E-05 27200   0.171E-02
  20 F= -.27055429E+03 E0= -.27054460E+03  d E =-.491896E-02  mag=     4.0000
       N       E                     dE             d eps       ncg     rms          rms(c)
DAV:   1    -0.270554254166E+03    0.44921E-04   -0.15220E-02 42336   0.501E-01    0.980E-02
DAV:   2    -0.270554507830E+03   -0.25366E-03   -0.20559E-03 53592   0.139E-01    0.387E-01
DAV:   3    -0.270554272104E+03    0.23573E-03   -0.15920E-03 53160   0.971E-02    0.996E-02
DAV:   4    -0.270554330737E+03   -0.58633E-04   -0.27993E-04 35248   0.480E-02    0.133E-01
DAV:   5    -0.270554301073E+03    0.29664E-04   -0.21531E-04 33240   0.355E-02    0.524E-02
DAV:   6    -0.270554305549E+03   -0.44759E-05   -0.61651E-05 27248   0.192E-02
  21 F= -.27055431E+03 E0= -.27054459E+03  d E =-.114860E-04  mag=     4.0000
       N       E                     dE             d eps       ncg     rms          rms(c)
DAV:   1    -0.270554372102E+03   -0.71029E-04   -0.15589E-02 41856   0.500E-01    0.607E-02
DAV:   2    -0.270554430792E+03   -0.58690E-04   -0.71820E-04 47216   0.984E-02    0.646E-02
DAV:   3    -0.270554453171E+03   -0.22380E-04   -0.35325E-04 35176   0.431E-02    0.144E-01
DAV:   4    -0.270554422371E+03    0.30800E-04   -0.25428E-04 33120   0.373E-02    0.730E-02
DAV:   5    -0.270554419870E+03    0.25014E-05   -0.75608E-05 28136   0.219E-02
  22 F= -.27055442E+03 E0= -.27054470E+03  d E =-.114321E-03  mag=     4.0000
       N       E                     dE             d eps       ncg     rms          rms(c)
DAV:   1    -0.270554098326E+03    0.32404E-03   -0.15033E-01 40320   0.147E+00    0.117E-01
DAV:   2    -0.270554640378E+03   -0.54205E-03   -0.59456E-03 43992   0.263E-01    0.237E-01
DAV:   3    -0.270554623613E+03    0.16764E-04   -0.17620E-03 54408   0.938E-02    0.222E-01
DAV:   4    -0.270554586709E+03    0.36904E-04   -0.69724E-04 43672   0.602E-02    0.163E-01
DAV:   5    -0.270554544628E+03    0.42081E-04   -0.27959E-04 33616   0.419E-02    0.685E-02
DAV:   6    -0.270554564160E+03   -0.19532E-04   -0.17429E-04 32104   0.326E-02    0.138E-01
DAV:   7    -0.270554531606E+03    0.32553E-04   -0.20203E-04 40488   0.386E-02    0.532E-02
DAV:   8    -0.270554530853E+03    0.75321E-06   -0.32433E-05 30992   0.259E-02
  23 F= -.27055453E+03 E0= -.27054481E+03  d E =-.110983E-03  mag=     4.0000
       N       E                     dE             d eps       ncg     rms          rms(c)
DAV:   1    -0.270552774673E+03    0.17569E-02   -0.51372E-01 40320   0.256E+00    0.168E-01
DAV:   2    -0.270554359295E+03   -0.15846E-02   -0.17177E-02 43344   0.442E-01    0.310E-01
DAV:   3    -0.270554337626E+03    0.21669E-04   -0.34818E-03 54648   0.148E-01    0.289E-01
DAV:   4    -0.270554246006E+03    0.91620E-04   -0.14790E-03 53784   0.898E-02    0.267E-01
DAV:   5    -0.270554138153E+03    0.10785E-03   -0.61287E-04 42880   0.565E-02    0.788E-02
DAV:   6    -0.270554143295E+03   -0.51414E-05   -0.28644E-04 52888   0.503E-02    0.140E-01
DAV:   7    -0.270554128878E+03    0.14417E-04   -0.41806E-04 38312   0.446E-02    0.116E-01
DAV:   8    -0.270554114451E+03    0.14427E-04   -0.11323E-04 31696   0.346E-02    0.314E-02
DAV:   9    -0.270554123960E+03   -0.95087E-05   -0.40224E-05 26528   0.224E-02
  24 F= -.27055412E+03 E0= -.27054440E+03  d E =0.406893E-03  mag=     4.0000
       N       E                     dE             d eps       ncg     rms          rms(c)
DAV:   1    -0.270547594276E+03    0.65202E-02   -0.15658E+00 40320   0.453E+00    0.349E-01
DAV:   2    -0.270552180595E+03   -0.45863E-02   -0.50945E-02 41480   0.771E-01    0.397E-01
DAV:   3    -0.270553503039E+03   -0.13224E-02   -0.13974E-02 55264   0.286E-01    0.104E+00
DAV:   4    -0.270551679285E+03    0.18238E-02   -0.73699E-03 54368   0.211E-01    0.251E-01
DAV:   5    -0.270551917419E+03   -0.23813E-03   -0.12092E-03 53312   0.836E-02    0.214E-01
DAV:   6    -0.270551987452E+03   -0.70033E-04   -0.18617E-03 53016   0.907E-02    0.366E-01
DAV:   7    -0.270551766598E+03    0.22085E-03   -0.14645E-03 54864   0.864E-02    0.142E-01
DAV:   8    -0.270551742402E+03    0.24197E-04   -0.27820E-04 54304   0.713E-02    0.560E-02
DAV:   9    -0.270551803690E+03   -0.61289E-04   -0.29906E-04 41336   0.455E-02    0.801E-02
DAV:  10    -0.270551815541E+03   -0.11851E-04   -0.39416E-05 29112   0.245E-02    0.795E-02
DAV:  11    -0.270551813259E+03    0.22821E-05   -0.15385E-05 25680   0.155E-02
  25 F= -.27055181E+03 E0= -.27054206E+03  d E =0.231070E-02  mag=     4.0000
       N       E                     dE             d eps       ncg     rms          rms(c)
DAV:   1    -0.270530070072E+03    0.21745E-01   -0.59043E+00 40320   0.850E+00    0.861E-01
DAV:   2    -0.270548076212E+03   -0.18006E-01   -0.19750E-01 43704   0.152E+00    0.145E+00
DAV:   3    -0.270551785343E+03   -0.37091E-02   -0.84780E-02 54840   0.717E-01    0.226E+00
DAV:   4    -0.270543904366E+03    0.78810E-02   -0.42765E-02 53848   0.467E-01    0.564E-01
DAV:   5    -0.270544919306E+03   -0.10149E-02   -0.89598E-03 53440   0.230E-01    0.494E-01
DAV:   6    -0.270544578843E+03    0.34046E-03   -0.42004E-03 54800   0.189E-01    0.485E-01
DAV:   7    -0.270544627257E+03   -0.48414E-04   -0.78965E-03 54112   0.175E-01    0.569E-01
DAV:   8    -0.270544197484E+03    0.42977E-03   -0.30876E-03 54368   0.156E-01    0.129E-01
DAV:   9    -0.270544439193E+03   -0.24171E-03   -0.89271E-04 53328   0.770E-02    0.168E-01
DAV:  10    -0.270544454090E+03   -0.14896E-04   -0.80878E-05 33272   0.315E-02    0.174E-01
DAV:  11    -0.270544432039E+03    0.22051E-04   -0.23029E-05 29584   0.173E-02    0.158E-01
DAV:  12    -0.270544436162E+03   -0.41238E-05   -0.76672E-05 35024   0.358E-02
  26 F= -.27054444E+03 E0= -.27053472E+03  d E =0.737710E-02  mag=     4.0000
       N       E                     dE             d eps       ncg     rms          rms(c)
DAV:   1    -0.270547685256E+03   -0.32532E-02   -0.27374E-01 39816   0.210E+00    0.293E-01
DAV:   2    -0.270549020974E+03   -0.13357E-02   -0.14431E-02 45384   0.413E-01    0.478E-01
DAV:   3    -0.270549512519E+03   -0.49154E-03   -0.10944E-02 53760   0.241E-01    0.770E-01
DAV:   4    -0.270548563890E+03    0.94863E-03   -0.37024E-03 52200   0.157E-01    0.178E-01
DAV:   5    -0.270548722473E+03   -0.15858E-03   -0.10868E-03 51400   0.721E-02    0.190E-01
DAV:   6    -0.270548743109E+03   -0.20636E-04   -0.99193E-04 50512   0.681E-02    0.228E-01
DAV:   7    -0.270548658427E+03    0.84683E-04   -0.62104E-04 36888   0.568E-02    0.547E-02
DAV:   8    -0.270548665147E+03   -0.67208E-05   -0.52915E-05 31824   0.313E-02
  27 F= -.27054867E+03 E0= -.27053891E+03  d E =-.422898E-02  mag=     4.0000
       N       E                     dE             d eps       ncg     rms          rms(c)
DAV:   1    -0.270549766717E+03   -0.11083E-02   -0.20628E-01 40320   0.188E+00    0.264E-01
DAV:   2    -0.270550592093E+03   -0.82538E-03   -0.10374E-02 44224   0.378E-01    0.318E-01
DAV:   3    -0.270551253232E+03   -0.66114E-03   -0.75094E-03 54488   0.211E-01    0.731E-01
DAV:   4    -0.270550386382E+03    0.86685E-03   -0.42769E-03 54520   0.153E-01    0.228E-01
DAV:   5    -0.270550454972E+03   -0.68590E-04   -0.70346E-04 46824   0.670E-02    0.144E-01
DAV:   6    -0.270550457776E+03   -0.28035E-05   -0.40307E-04 38720   0.479E-02    0.192E-01
DAV:   7    -0.270550401774E+03    0.56001E-04   -0.38823E-04 38264   0.443E-02    0.102E-01
DAV:   8    -0.270550374924E+03    0.26850E-04   -0.14688E-04 49112   0.581E-02    0.580E-02
DAV:   9    -0.270550423501E+03   -0.48577E-04   -0.24170E-04 33872   0.422E-02    0.644E-02
DAV:  10    -0.270550433824E+03   -0.10322E-04   -0.28156E-05 27880   0.197E-02    0.647E-02
DAV:  11    -0.270550432999E+03    0.82425E-06   -0.15354E-05 27360   0.160E-02
  28 F= -.27055043E+03 E0= -.27054066E+03  d E =-.176785E-02  mag=     4.0000
       N       E                     dE             d eps       ncg     rms          rms(c)
DAV:   1    -0.270539900376E+03    0.10533E-01   -0.32858E+00 39824   0.707E+00    0.426E-01
DAV:   2    -0.270551718192E+03   -0.11818E-01   -0.12459E-01 42336   0.116E+00    0.401E-01
DAV:   3    -0.270553612202E+03   -0.18940E-02   -0.19291E-02 54888   0.337E-01    0.120E+00
DAV:   4    -0.270551059737E+03    0.25525E-02   -0.10431E-02 54488   0.248E-01    0.235E-01
DAV:   5    -0.270551509431E+03   -0.44969E-03   -0.19685E-03 55232   0.115E-01    0.393E-01
DAV:   6    -0.270551228150E+03    0.28128E-03   -0.19286E-03 54088   0.108E-01    0.254E-01
DAV:   7    -0.270551321264E+03   -0.93114E-04   -0.22022E-03 54200   0.954E-02    0.374E-01
DAV:   8    -0.270551061376E+03    0.25989E-03   -0.12662E-03 53840   0.102E-01    0.113E-01
DAV:   9    -0.270551182806E+03   -0.12143E-03   -0.61315E-04 52384   0.606E-02    0.107E-01
DAV:  10    -0.270551218113E+03   -0.35307E-04   -0.12525E-04 35920   0.422E-02    0.110E-01
DAV:  11    -0.270551220282E+03   -0.21692E-05   -0.62217E-05 39280   0.305E-02
  29 F= -.27055122E+03 E0= -.27054145E+03  d E =-.787282E-03  mag=     4.0000
       N       E                     dE             d eps       ncg     rms          rms(c)
DAV:   1    -0.270156075418E+03    0.39514E+00   -0.46545E+01 39312   0.282E+01    0.453E+00
DAV:   2    -0.270433377910E+03   -0.27730E+00   -0.30457E+00 45488   0.597E+00    0.764E+00
DAV:   3    -0.270461798852E+03   -0.28421E-01   -0.26240E+00 53760   0.321E+00    0.844E+00
DAV:   4    -0.270429974591E+03    0.31824E-01   -0.15666E+00 53624   0.236E+00    0.776E+00
DAV:   5    -0.270335186565E+03    0.94788E-01   -0.64084E-01 54664   0.168E+00    0.218E+00
DAV:   6    -0.270365277041E+03   -0.30090E-01   -0.19331E-01 54544   0.107E+00    0.350E+00
DAV:   7    -0.270346105709E+03    0.19171E-01   -0.14590E-01 54328   0.111E+00    0.134E+00
DAV:   8    -0.270350847282E+03   -0.47416E-02   -0.51066E-02 53056   0.528E-01    0.108E+00
DAV:   9    -0.270351917264E+03   -0.10700E-02   -0.12881E-02 53264   0.366E-01    0.829E-01
DAV:  10    -0.270351409716E+03    0.50755E-03   -0.24694E-03 54664   0.188E-01    0.560E-01
DAV:  11    -0.270350854233E+03    0.55548E-03   -0.45831E-03 53808   0.249E-01    0.261E-01
DAV:  12    -0.270351422589E+03   -0.56836E-03   -0.24425E-03 53944   0.156E-01    0.315E-01
DAV:  13    -0.270351509356E+03   -0.86767E-04   -0.73424E-04 52440   0.949E-02    0.287E-01
DAV:  14    -0.270351462060E+03    0.47296E-04   -0.17229E-04 48664   0.441E-02    0.224E-01
DAV:  15    -0.270351390742E+03    0.71318E-04   -0.37106E-04 48840   0.593E-02    0.960E-02
DAV:  16    -0.270351421812E+03   -0.31070E-04   -0.21716E-04 41928   0.455E-02    0.921E-02
DAV:  17    -0.270351437236E+03   -0.15424E-04   -0.12600E-04 31200   0.288E-02    0.613E-02
DAV:  18    -0.270351441662E+03   -0.44261E-05   -0.38193E-05 30280   0.265E-02
  30 F= -.27035144E+03 E0= -.27034238E+03  d E =0.199779E+00  mag=     4.0000
       N       E                     dE             d eps       ncg     rms          rms(c)
DAV:   1    -0.270470167785E+03   -0.11873E+00   -0.36188E+00 40344   0.739E+00    0.152E+00
DAV:   2    -0.270483894274E+03   -0.13726E-01   -0.19156E-01 46856   0.164E+00    0.122E+00
DAV:   3    -0.270504377919E+03   -0.20484E-01   -0.22240E-01 54208   0.110E+00    0.375E+00
DAV:   4    -0.270477914537E+03    0.26463E-01   -0.10072E-01 53968   0.821E-01    0.105E+00
DAV:   5    -0.270481545907E+03   -0.36314E-02   -0.31189E-02 53328   0.406E-01    0.118E+00
DAV:   6    -0.270479198797E+03    0.23471E-02   -0.88299E-03 54248   0.309E-01    0.380E-01
DAV:   7    -0.270479533929E+03   -0.33513E-03   -0.47559E-03 54312   0.239E-01    0.412E-01
DAV:   8    -0.270481362773E+03   -0.18288E-02   -0.12907E-02 54144   0.225E-01    0.103E+00
DAV:   9    -0.270479916006E+03    0.14468E-02   -0.78180E-03 53304   0.189E-01    0.317E-01
DAV:  10    -0.270480157108E+03   -0.24110E-03   -0.16910E-04 46008   0.544E-02    0.293E-01
DAV:  11    -0.270480146080E+03    0.11028E-04   -0.25714E-04 53264   0.647E-02    0.200E-01
DAV:  12    -0.270480121880E+03    0.24200E-04   -0.33530E-04 48488   0.563E-02    0.108E-01
DAV:  13    -0.270480133510E+03   -0.11630E-04   -0.16054E-04 41168   0.339E-02    0.678E-02
DAV:  14    -0.270480139029E+03   -0.55189E-05   -0.28063E-05 26216   0.175E-02
  31 F= -.27048014E+03 E0= -.27047078E+03  d E =-.128697E+00  mag=     4.0000
       N       E                     dE             d eps       ncg     rms          rms(c)
DAV:   1    -0.270508101333E+03   -0.27968E-01   -0.38113E-01 40448   0.243E+00    0.503E-01
DAV:   2    -0.270509872910E+03   -0.17716E-02   -0.22781E-02 47656   0.552E-01    0.557E-01
DAV:   3    -0.270511661579E+03   -0.17887E-02   -0.27021E-02 54384   0.373E-01    0.125E+00
DAV:   4    -0.270509579190E+03    0.20824E-02   -0.15808E-02 54144   0.274E-01    0.662E-01
DAV:   5    -0.270509226411E+03    0.35278E-03   -0.56914E-03 52560   0.170E-01    0.239E-01
DAV:   6    -0.270509258227E+03   -0.31816E-04   -0.80064E-04 54440   0.929E-02    0.249E-01
DAV:   7    -0.270509296762E+03   -0.38535E-04   -0.20830E-03 53392   0.919E-02    0.342E-01
DAV:   8    -0.270509169285E+03    0.12748E-03   -0.91244E-04 53792   0.978E-02    0.123E-01
DAV:   9    -0.270509279323E+03   -0.11004E-03   -0.40213E-04 46048   0.597E-02    0.105E-01
DAV:  10    -0.270509286614E+03   -0.72917E-05   -0.40957E-05 31256   0.264E-02
  32 F= -.27050929E+03 E0= -.27049981E+03  d E =-.291476E-01  mag=     4.0000
       N       E                     dE             d eps       ncg     rms          rms(c)
DAV:   1    -0.270523845365E+03   -0.14566E-01   -0.11123E+01 40320   0.133E+01    0.261E+00
DAV:   2    -0.270573870683E+03   -0.50025E-01   -0.66409E-01 45968   0.297E+00    0.268E+00
DAV:   3    -0.270630603866E+03   -0.56733E-01   -0.62137E-01 54408   0.187E+00    0.655E+00
DAV:   4    -0.270564093604E+03    0.66510E-01   -0.41246E-01 54320   0.144E+00    0.285E+00
DAV:   5    -0.270562056755E+03    0.20368E-02   -0.10934E-01 53728   0.722E-01    0.151E+00
DAV:   6    -0.270564697353E+03   -0.26406E-02   -0.48951E-02 54752   0.489E-01    0.200E+00
DAV:   7    -0.270557969473E+03    0.67279E-02   -0.43094E-02 54360   0.466E-01    0.965E-01
DAV:   8    -0.270555790213E+03    0.21793E-02   -0.97463E-03 54184   0.503E-01    0.530E-01
DAV:   9    -0.270559302924E+03   -0.35127E-02   -0.21333E-02 53168   0.370E-01    0.553E-01
DAV:  10    -0.270560250901E+03   -0.94798E-03   -0.28214E-03 52432   0.183E-01    0.472E-01
DAV:  11    -0.270560264497E+03   -0.13596E-04   -0.19147E-03 54216   0.164E-01    0.291E-01
DAV:  12    -0.270560217205E+03    0.47292E-04   -0.64834E-04 53952   0.106E-01    0.176E-01
DAV:  13    -0.270560183070E+03    0.34135E-04   -0.24691E-04 54024   0.688E-02    0.101E-01
DAV:  14    -0.270560187396E+03   -0.43257E-05   -0.23493E-04 49632   0.444E-02    0.623E-02
DAV:  15    -0.270560204730E+03   -0.17334E-04   -0.58321E-05 31488   0.296E-02    0.484E-02
DAV:  16    -0.270560207263E+03   -0.25330E-05   -0.41197E-05 27944   0.202E-02
  33 F= -.27056021E+03 E0= -.27055050E+03  d E =-.509206E-01  mag=     4.0000
       N       E                     dE             d eps       ncg     rms          rms(c)
DAV:   1    -0.270563597005E+03   -0.33923E-02   -0.40806E-01 41200   0.253E+00    0.510E-01
DAV:   2    -0.270566190918E+03   -0.25939E-02   -0.28694E-02 47888   0.588E-01    0.991E-01
DAV:   3    -0.270566120603E+03    0.70315E-04   -0.25437E-02 54360   0.376E-01    0.977E-01
DAV:   4    -0.270565108131E+03    0.10125E-02   -0.10082E-02 54088   0.244E-01    0.503E-01
DAV:   5    -0.270564897742E+03    0.21039E-03   -0.31091E-03 54096   0.135E-01    0.285E-01
DAV:   6    -0.270564927083E+03   -0.29341E-04   -0.11372E-03 52216   0.748E-02    0.340E-01
DAV:   7    -0.270564739046E+03    0.18804E-03   -0.10180E-03 48576   0.741E-02    0.195E-01
DAV:   8    -0.270564637677E+03    0.10137E-03   -0.51030E-04 53856   0.106E-01    0.107E-01
DAV:   9    -0.270564800442E+03   -0.16276E-03   -0.88984E-04 52536   0.797E-02    0.112E-01
DAV:  10    -0.270564831667E+03   -0.31225E-04   -0.96952E-05 39200   0.378E-02    0.107E-01
DAV:  11    -0.270564825717E+03    0.59500E-05   -0.10160E-04 40480   0.393E-02    0.466E-02
DAV:  12    -0.270564826570E+03   -0.85243E-06   -0.24299E-05 30432   0.186E-02
  34 F= -.27056483E+03 E0= -.27055512E+03  d E =-.461931E-02  mag=     4.0000
       N       E                     dE             d eps       ncg     rms          rms(c)
DAV:   1    -0.270564821800E+03    0.39168E-05   -0.33646E-02 41448   0.852E-01    0.662E-02
DAV:   2    -0.270565054726E+03   -0.23293E-03   -0.25070E-03 43928   0.163E-01    0.166E-01
DAV:   3    -0.270565020410E+03    0.34317E-04   -0.65897E-04 49800   0.637E-02    0.101E-01
DAV:   4    -0.270565040869E+03   -0.20460E-04   -0.34706E-04 33304   0.386E-02    0.151E-01
DAV:   5    -0.270565001131E+03    0.39739E-04   -0.18875E-04 32688   0.352E-02    0.264E-02
DAV:   6    -0.270565014525E+03   -0.13395E-04   -0.79464E-05 28448   0.221E-02    0.912E-02
DAV:   7    -0.270565001075E+03    0.13451E-04   -0.78324E-05 26312   0.260E-02    0.206E-02
DAV:   8    -0.270565005021E+03   -0.39461E-05   -0.93462E-06 23136   0.112E-02
  35 F= -.27056501E+03 E0= -.27055530E+03  d E =-.178451E-03  mag=     4.0000
       N       E                     dE             d eps       ncg     rms          rms(c)
DAV:   1    -0.270563732669E+03    0.12684E-02   -0.26668E-01 40336   0.228E+00    0.204E-01
DAV:   2    -0.270565253508E+03   -0.15208E-02   -0.16536E-02 43896   0.432E-01    0.462E-01
DAV:   3    -0.270565091993E+03    0.16152E-03   -0.55979E-03 55272   0.176E-01    0.367E-01
DAV:   4    -0.270565179038E+03   -0.87045E-04   -0.28690E-03 53944   0.120E-01    0.397E-01
DAV:   5    -0.270564889009E+03    0.29003E-03   -0.13799E-03 52520   0.893E-02    0.630E-02
DAV:   6    -0.270564944795E+03   -0.55786E-04   -0.30192E-04 53624   0.495E-02    0.163E-01
DAV:   7    -0.270564908556E+03    0.36239E-04   -0.40849E-04 34152   0.429E-02    0.796E-02
DAV:   8    -0.270564908376E+03    0.18011E-06   -0.48841E-05 31952   0.328E-02
  36 F= -.27056491E+03 E0= -.27055522E+03  d E =0.966452E-04  mag=     4.0000
       N       E                     dE             d eps       ncg     rms          rms(c)
DAV:   1    -0.270564279613E+03    0.62894E-03   -0.61852E-02 40640   0.100E+00    0.957E-02
DAV:   2    -0.270564523457E+03   -0.24384E-03   -0.27509E-03 41016   0.179E-01    0.136E-01
DAV:   3    -0.270564585798E+03   -0.62340E-04   -0.12489E-03 54784   0.749E-02    0.253E-01
DAV:   4    -0.270564490779E+03    0.95018E-04   -0.55174E-04 34456   0.520E-02    0.878E-02
DAV:   5    -0.270564492393E+03   -0.16137E-05   -0.12031E-04 31672   0.293E-02    0.359E-02
DAV:   6    -0.270564503564E+03   -0.11171E-04   -0.97416E-05 30368   0.276E-02    0.100E-01
DAV:   7    -0.270564488423E+03    0.15141E-04   -0.10241E-04 28352   0.279E-02    0.243E-02
DAV:   8    -0.270564491657E+03   -0.32342E-05   -0.12477E-05 23744   0.150E-02
  37 F= -.27056449E+03 E0= -.27055479E+03  d E =0.416718E-03  mag=     4.0000
       N       E                     dE             d eps       ncg     rms          rms(c)
DAV:   1    -0.270560462266E+03    0.40262E-02   -0.58530E-01 40320   0.306E+00    0.188E-01
DAV:   2    -0.270562647643E+03   -0.21854E-02   -0.24365E-02 40736   0.523E-01    0.244E-01
DAV:   3    -0.270562840902E+03   -0.19326E-03   -0.43450E-03 54536   0.167E-01    0.395E-01
DAV:   4    -0.270562558984E+03    0.28192E-03   -0.19229E-03 53784   0.107E-01    0.211E-01
DAV:   5    -0.270562527813E+03    0.31172E-04   -0.65143E-04 40464   0.559E-02    0.103E-01
DAV:   6    -0.270562520929E+03    0.68835E-05   -0.35903E-04 53168   0.558E-02    0.146E-01
DAV:   7    -0.270562500113E+03    0.20816E-04   -0.34195E-04 36760   0.425E-02    0.919E-02
DAV:   8    -0.270562493461E+03    0.66519E-05   -0.56445E-05 27768   0.299E-02
  38 F= -.27056249E+03 E0= -.27055274E+03  d E =0.199820E-02  mag=     4.0000
       N       E                     dE             d eps       ncg     rms          rms(c)
DAV:   1    -0.270561259848E+03    0.12403E-02   -0.16028E-01 40224   0.140E+00    0.127E-01
DAV:   2    -0.270561751413E+03   -0.49156E-03   -0.52802E-03 41120   0.239E-01    0.169E-01
DAV:   3    -0.270561809956E+03   -0.58543E-04   -0.15981E-03 53864   0.962E-02    0.263E-01
DAV:   4    -0.270561723015E+03    0.86941E-04   -0.76517E-04 41272   0.613E-02    0.165E-01
DAV:   5    -0.270561689320E+03    0.33695E-04   -0.25540E-04 33616   0.386E-02    0.830E-02
DAV:   6    -0.270561687654E+03    0.16659E-05   -0.41644E-05 30736   0.203E-02
  39 F= -.27056169E+03 E0= -.27055194E+03  d E =0.805808E-03  mag=     4.0000
       N       E                     dE             d eps       ncg     rms          rms(c)
DAV:   1    -0.270543586336E+03    0.18103E-01   -0.46102E+00 40320   0.753E+00    0.535E-01
DAV:   2    -0.270557447355E+03   -0.13861E-01   -0.14793E-01 40896   0.125E+00    0.104E+00
DAV:   3    -0.270557102279E+03    0.34508E-03   -0.31193E-02 54680   0.432E-01    0.969E-01
DAV:   4    -0.270556460444E+03    0.64183E-03   -0.14863E-02 54944   0.277E-01    0.796E-01
DAV:   5    -0.270555330956E+03    0.11295E-02   -0.66366E-03 54664   0.197E-01    0.263E-01
DAV:   6    -0.270555479782E+03   -0.14883E-03   -0.36371E-03 54312   0.172E-01    0.608E-01
DAV:   7    -0.270555063550E+03    0.41623E-03   -0.59011E-03 54304   0.164E-01    0.333E-01
DAV:   8    -0.270555223400E+03   -0.15985E-03   -0.20334E-03 51096   0.982E-02    0.149E-01
DAV:   9    -0.270555323447E+03   -0.10005E-03   -0.23279E-04 44224   0.433E-02    0.165E-01
DAV:  10    -0.270555313266E+03    0.10180E-04   -0.43317E-05 34096   0.273E-02    0.161E-01
DAV:  11    -0.270555307236E+03    0.60303E-05   -0.82053E-05 42272   0.377E-02
  40 F= -.27055531E+03 E0= -.27054550E+03  d E =0.638042E-02  mag=     4.0000
       N       E                     dE             d eps       ncg     rms          rms(c)
DAV:   1    -0.270374176567E+03    0.18114E+00   -0.45587E+01 40320   0.242E+01    0.217E+00
DAV:   2    -0.270515396967E+03   -0.14122E+00   -0.15528E+00 40416   0.414E+00    0.126E+00
DAV:   3    -0.270544652340E+03   -0.29255E-01   -0.24517E-01 54496   0.120E+00    0.525E+00
DAV:   4    -0.270504766976E+03    0.39885E-01   -0.24190E-01 53728   0.969E-01    0.109E+00
DAV:   5    -0.270514928696E+03   -0.10162E-01   -0.53489E-02 54088   0.534E-01    0.219E+00
DAV:   6    -0.270507245403E+03    0.76833E-02   -0.46544E-02 54424   0.520E-01    0.108E+00
DAV:   7    -0.270509447502E+03   -0.22021E-02   -0.44389E-02 53984   0.484E-01    0.154E+00
DAV:   8    -0.270505114005E+03    0.43335E-02   -0.34747E-02 54936   0.497E-01    0.490E-01
DAV:   9    -0.270507305022E+03   -0.21910E-02   -0.97517E-03 53672   0.286E-01    0.454E-01
DAV:  10    -0.270507683991E+03   -0.37897E-03   -0.14655E-03 53736   0.147E-01    0.409E-01
DAV:  11    -0.270507691525E+03   -0.75341E-05   -0.12540E-03 54224   0.128E-01    0.281E-01
DAV:  12    -0.270507628162E+03    0.63363E-04   -0.66781E-04 54056   0.946E-02    0.143E-01
DAV:  13    -0.270507655406E+03   -0.27244E-04   -0.22545E-04 50656   0.546E-02    0.583E-02
DAV:  14    -0.270507666801E+03   -0.11396E-04   -0.53379E-05 34768   0.291E-02    0.467E-02
DAV:  15    -0.270507664778E+03    0.20231E-05   -0.32438E-05 28104   0.204E-02
  41 F= -.27050766E+03 E0= -.27049757E+03  d E =0.476425E-01  mag=     4.0000
       N       E                     dE             d eps       ncg     rms          rms(c)
DAV:   1    -0.270520511539E+03   -0.12845E-01   -0.44817E+00 40320   0.856E+00    0.126E+00
DAV:   2    -0.270541551393E+03   -0.21040E-01   -0.23489E-01 43472   0.165E+00    0.130E+00
DAV:   3    -0.270556547393E+03   -0.14996E-01   -0.17246E-01 54704   0.876E-01    0.361E+00
DAV:   4    -0.270536994693E+03    0.19553E-01   -0.11444E-01 54760   0.694E-01    0.950E-01
DAV:   5    -0.270538690238E+03   -0.16955E-02   -0.13509E-02 53224   0.293E-01    0.649E-01
DAV:   6    -0.270537996685E+03    0.69355E-03   -0.30523E-03 54352   0.179E-01    0.522E-01
DAV:   7    -0.270539387633E+03   -0.13909E-02   -0.14340E-02 53328   0.261E-01    0.124E+00
DAV:   8    -0.270536875927E+03    0.25117E-02   -0.10012E-02 54392   0.282E-01    0.262E-01
DAV:   9    -0.270538115133E+03   -0.12392E-02   -0.29427E-03 51128   0.128E-01    0.302E-01
DAV:  10    -0.270538166503E+03   -0.51370E-04   -0.77342E-04 53560   0.100E-01    0.215E-01
DAV:  11    -0.270538169803E+03   -0.32994E-05   -0.35040E-04 53896   0.753E-02    0.142E-01
DAV:  12    -0.270538161886E+03    0.79172E-05   -0.14592E-04 41824   0.483E-02    0.705E-02
DAV:  13    -0.270538162087E+03   -0.20171E-06   -0.45567E-05 32952   0.289E-02
  42 F= -.27053816E+03 E0= -.27052819E+03  d E =-.304973E-01  mag=     4.0000
       N       E                     dE             d eps       ncg     rms          rms(c)
DAV:   1    -0.270539298325E+03   -0.11364E-02   -0.24819E-01 40336   0.198E+00    0.378E-01
DAV:   2    -0.270540704158E+03   -0.14058E-02   -0.15574E-02 47792   0.454E-01    0.481E-01
DAV:   3    -0.270541828693E+03   -0.11245E-02   -0.17293E-02 53864   0.279E-01    0.102E+00
DAV:   4    -0.270540251669E+03    0.15770E-02   -0.80724E-03 54080   0.201E-01    0.350E-01
DAV:   5    -0.270540319278E+03   -0.67610E-04   -0.19734E-03 53392   0.105E-01    0.223E-01
DAV:   6    -0.270540267934E+03    0.51344E-04   -0.39497E-04 54128   0.734E-02    0.175E-01
DAV:   7    -0.270540406620E+03   -0.13869E-03   -0.14278E-03 47464   0.801E-02    0.407E-01
DAV:   8    -0.270540101041E+03    0.30558E-03   -0.12939E-03 53560   0.101E-01    0.905E-02
DAV:   9    -0.270540251582E+03   -0.15054E-03   -0.57879E-04 40464   0.529E-02    0.931E-02
DAV:  10    -0.270540269513E+03   -0.17931E-04   -0.60588E-05 33224   0.303E-02    0.725E-02
DAV:  11    -0.270540271915E+03   -0.24015E-05   -0.62045E-05 37936   0.271E-02
  43 F= -.27054027E+03 E0= -.27053028E+03  d E =-.210983E-02  mag=     4.0000
       N       E                     dE             d eps       ncg     rms          rms(c)
DAV:   1    -0.270536645441E+03    0.36241E-02   -0.50565E-01 40320   0.256E+00    0.149E-01
DAV:   2    -0.270538127157E+03   -0.14817E-02   -0.16066E-02 40328   0.416E-01    0.132E-01
DAV:   3    -0.270538394139E+03   -0.26698E-03   -0.28634E-03 54392   0.120E-01    0.460E-01
DAV:   4    -0.270538032700E+03    0.36144E-03   -0.17324E-03 54264   0.929E-02    0.897E-02
DAV:   5    -0.270538099956E+03   -0.67256E-04   -0.42391E-04 34552   0.507E-02    0.136E-01
DAV:   6    -0.270538052955E+03    0.47001E-04   -0.27348E-04 50560   0.536E-02    0.390E-02
DAV:   7    -0.270538071601E+03   -0.18645E-04   -0.14127E-04 34312   0.344E-02    0.121E-01
DAV:   8    -0.270538049343E+03    0.22257E-04   -0.11545E-04 28336   0.281E-02    0.273E-02
DAV:   9    -0.270538056167E+03   -0.68241E-05   -0.24150E-05 24232   0.160E-02
  44 F= -.27053806E+03 E0= -.27052805E+03  d E =0.221575E-02  mag=     4.0000
       N       E                     dE             d eps       ncg     rms          rms(c)
DAV:   1    -0.269925602997E+03    0.61245E+00   -0.11410E+02 39816   0.397E+01    0.391E+00
DAV:   2    -0.270318597535E+03   -0.39299E+00   -0.43197E+00 43072   0.708E+00    0.403E+00
DAV:   3    -0.270443879086E+03   -0.12528E+00   -0.15604E+00 54360   0.282E+00    0.962E+00
DAV:   4    -0.270284986931E+03    0.15889E+00   -0.98268E-01 54224   0.214E+00    0.437E+00
DAV:   5    -0.270281112213E+03    0.38747E-02   -0.29417E-01 53920   0.106E+00    0.220E+00
DAV:   6    -0.270279147934E+03    0.19643E-02   -0.10019E-01 54192   0.979E-01    0.208E+00
DAV:   7    -0.270280828044E+03   -0.16801E-02   -0.15548E-01 54392   0.859E-01    0.252E+00
DAV:   8    -0.270270839039E+03    0.99890E-02   -0.93779E-02 54416   0.768E-01    0.850E-01
DAV:   9    -0.270273648042E+03   -0.28090E-02   -0.11051E-02 53920   0.354E-01    0.705E-01
DAV:  10    -0.270273621183E+03    0.26859E-04   -0.28945E-03 53744   0.172E-01    0.463E-01
DAV:  11    -0.270273452733E+03    0.16845E-03   -0.25236E-03 53976   0.149E-01    0.303E-01
DAV:  12    -0.270273508064E+03   -0.55331E-04   -0.13215E-03 53688   0.924E-02    0.175E-01
DAV:  13    -0.270273549868E+03   -0.41804E-04   -0.39359E-04 50088   0.568E-02    0.112E-01
DAV:  14    -0.270273557359E+03   -0.74910E-05   -0.24032E-04 40968   0.441E-02    0.744E-02
DAV:  15    -0.270273585996E+03   -0.28637E-04   -0.18366E-04 35432   0.361E-02    0.707E-02
DAV:  16    -0.270273595956E+03   -0.99601E-05   -0.89705E-05 33032   0.294E-02
  45 F= -.27027360E+03 E0= -.27026375E+03  d E =0.264460E+00  mag=     4.0000
       N       E                     dE             d eps       ncg     rms          rms(c)
DAV:   1    -0.270410355679E+03   -0.13677E+00   -0.23297E+01 40320   0.206E+01    0.359E+00
DAV:   2    -0.270544228500E+03   -0.13387E+00   -0.15675E+00 43984   0.439E+00    0.403E+00
DAV:   3    -0.270635652778E+03   -0.91424E-01   -0.79471E-01 54768   0.238E+00    0.959E+00
DAV:   4    -0.270508423969E+03    0.12723E+00   -0.11116E+00 54280   0.194E+00    0.305E+00
DAV:   5    -0.270525814426E+03   -0.17390E-01   -0.18816E-01 53184   0.918E-01    0.298E+00
DAV:   6    -0.270514453070E+03    0.11361E-01   -0.73581E-02 54584   0.737E-01    0.184E+00
DAV:   7    -0.270514281860E+03    0.17121E-03   -0.10443E-01 53448   0.748E-01    0.169E+00
DAV:   8    -0.270510762175E+03    0.35197E-02   -0.46426E-02 54400   0.632E-01    0.820E-01
DAV:   9    -0.270512729673E+03   -0.19675E-02   -0.12388E-02 53504   0.375E-01    0.560E-01
DAV:  10    -0.270513158588E+03   -0.42892E-03   -0.38144E-03 54080   0.215E-01    0.394E-01
DAV:  11    -0.270513257766E+03   -0.99178E-04   -0.35903E-03 53416   0.165E-01    0.273E-01
DAV:  12    -0.270513465938E+03   -0.20817E-03   -0.92249E-04 52200   0.896E-02    0.206E-01
DAV:  13    -0.270513506672E+03   -0.40734E-04   -0.30094E-04 48120   0.494E-02    0.151E-01
DAV:  14    -0.270513497418E+03    0.92536E-05   -0.12865E-04 40752   0.429E-02    0.114E-01
DAV:  15    -0.270513491469E+03    0.59491E-05   -0.17058E-04 39256   0.423E-02    0.644E-02
DAV:  16    -0.270513504445E+03   -0.12976E-04   -0.75739E-05 30864   0.286E-02    0.494E-02
DAV:  17    -0.270513509825E+03   -0.53798E-05   -0.25839E-05 27432   0.168E-02
  46 F= -.27051351E+03 E0= -.27050383E+03  d E =-.239914E+00  mag=     4.0000
       N       E                     dE             d eps       ncg     rms          rms(c)
DAV:   1    -0.270509004338E+03    0.45001E-02   -0.52257E-01 40368   0.282E+00    0.552E-01
DAV:   2    -0.270511463966E+03   -0.24596E-02   -0.30494E-02 45904   0.615E-01    0.565E-01
DAV:   3    -0.270514272080E+03   -0.28081E-02   -0.33085E-02 54280   0.379E-01    0.151E+00
DAV:   4    -0.270510505903E+03    0.37662E-02   -0.15578E-02 54696   0.285E-01    0.375E-01
DAV:   5    -0.270510922637E+03   -0.41673E-03   -0.21247E-03 54024   0.113E-01    0.347E-01
DAV:   6    -0.270510874669E+03    0.47968E-04   -0.10162E-03 53568   0.743E-02    0.339E-01
DAV:   7    -0.270510748980E+03    0.12569E-03   -0.17528E-03 53312   0.938E-02    0.293E-01
DAV:   8    -0.270510643666E+03    0.10531E-03   -0.12293E-03 54064   0.108E-01    0.132E-01
DAV:   9    -0.270510811240E+03   -0.16757E-03   -0.75461E-04 52232   0.766E-02    0.122E-01
DAV:  10    -0.270510838601E+03   -0.27361E-04   -0.14492E-04 48224   0.463E-02    0.103E-01
DAV:  11    -0.270510834691E+03    0.39097E-05   -0.81912E-05 35368   0.356E-02
  47 F= -.27051083E+03 E0= -.27050097E+03  d E =0.267513E-02  mag=     4.0000
       N       E                     dE             d eps       ncg     rms          rms(c)
DAV:   1    -0.270516423345E+03   -0.55847E-02   -0.76040E-01 40320   0.371E+00    0.460E-01
DAV:   2    -0.270519898393E+03   -0.34750E-02   -0.40352E-02 43536   0.714E-01    0.355E-01
DAV:   3    -0.270521737858E+03   -0.18395E-02   -0.16763E-02 55344   0.326E-01    0.113E+00
DAV:   4    -0.270519487108E+03    0.22508E-02   -0.10950E-02 54168   0.241E-01    0.340E-01
DAV:   5    -0.270519678736E+03   -0.19163E-03   -0.25733E-03 53992   0.115E-01    0.275E-01
DAV:   6    -0.270519549882E+03    0.12885E-03   -0.81221E-04 54400   0.938E-02    0.151E-01
DAV:   7    -0.270519675763E+03   -0.12588E-03   -0.15246E-03 54288   0.891E-02    0.404E-01
DAV:   8    -0.270519401685E+03    0.27408E-03   -0.14295E-03 53152   0.833E-02    0.936E-02
DAV:   9    -0.270519506210E+03   -0.10453E-03   -0.51289E-04 44536   0.504E-02    0.935E-02
DAV:  10    -0.270519536361E+03   -0.30150E-04   -0.94458E-05 32944   0.356E-02    0.877E-02
DAV:  11    -0.270519539927E+03   -0.35664E-05   -0.94617E-05 40456   0.302E-02
  48 F= -.27051954E+03 E0= -.27050952E+03  d E =-.870524E-02  mag=     4.0000
       N       E                     dE             d eps       ncg     rms          rms(c)
DAV:   1    -0.270523781491E+03   -0.42451E-02   -0.17037E-01 40432   0.178E+00    0.307E-01
DAV:   2    -0.270524815627E+03   -0.10341E-02   -0.11956E-02 44384   0.380E-01    0.357E-01
DAV:   3    -0.270525430738E+03   -0.61511E-03   -0.91824E-03 54408   0.203E-01    0.754E-01
DAV:   4    -0.270524516584E+03    0.91415E-03   -0.41818E-03 54744   0.147E-01    0.227E-01
DAV:   5    -0.270524587787E+03   -0.71204E-04   -0.58679E-04 50464   0.620E-02    0.199E-01
DAV:   6    -0.270524523901E+03    0.63886E-04   -0.20919E-04 42912   0.478E-02    0.154E-01
DAV:   7    -0.270524813540E+03   -0.28964E-03   -0.22942E-03 49752   0.953E-02    0.511E-01
DAV:   8    -0.270524439624E+03    0.37392E-03   -0.18881E-03 52184   0.104E-01    0.974E-02
DAV:   9    -0.270524565251E+03   -0.12563E-03   -0.21339E-04 36008   0.507E-02    0.762E-02
DAV:  10    -0.270524570995E+03   -0.57443E-05   -0.46573E-05 34840   0.283E-02
  49 F= -.27052457E+03 E0= -.27051464E+03  d E =-.503107E-02  mag=     4.0000
       N       E                     dE             d eps       ncg     rms          rms(c)
DAV:   1    -0.270526967081E+03   -0.24018E-02   -0.14673E-01 40464   0.175E+00    0.185E-01
DAV:   2    -0.270527839462E+03   -0.87238E-03   -0.96347E-03 42424   0.333E-01    0.282E-01
DAV:   3    -0.270528003337E+03   -0.16388E-03   -0.39993E-03 54840   0.138E-01    0.445E-01
DAV:   4    -0.270527696655E+03    0.30668E-03   -0.14592E-03 54288   0.946E-02    0.126E-01
DAV:   5    -0.270527730126E+03   -0.33470E-04   -0.45584E-04 34864   0.531E-02    0.118E-01
DAV:   6    -0.270527702821E+03    0.27305E-04   -0.22429E-04 51176   0.519E-02    0.785E-02
DAV:   7    -0.270527740154E+03   -0.37333E-04   -0.44622E-04 33512   0.443E-02    0.181E-01
DAV:   8    -0.270527692977E+03    0.47178E-04   -0.28196E-04 32608   0.417E-02    0.418E-02
DAV:   9    -0.270527709511E+03   -0.16534E-04   -0.27525E-05 25496   0.170E-02    0.468E-02
DAV:  10    -0.270527708641E+03    0.86937E-06   -0.47570E-06 22648   0.841E-03
  50 F= -.27052771E+03 E0= -.27051776E+03  d E =-.313765E-02  mag=     4.0000
       N       E                     dE             d eps       ncg     rms          rms(c)
DAV:   1    -0.270526254246E+03    0.14553E-02   -0.18771E+00 40320   0.592E+00    0.433E-01
DAV:   2    -0.270534500553E+03   -0.82463E-02   -0.93093E-02 42352   0.104E+00    0.432E-01
DAV:   3    -0.270537187335E+03   -0.26868E-02   -0.23373E-02 55008   0.366E-01    0.148E+00
DAV:   4    -0.270533607370E+03    0.35800E-02   -0.12216E-02 53248   0.259E-01    0.289E-01
DAV:   5    -0.270534252137E+03   -0.64477E-03   -0.14414E-03 52832   0.100E-01    0.303E-01
DAV:   6    -0.270534089016E+03    0.16312E-03   -0.15984E-03 55320   0.107E-01    0.252E-01
DAV:   7    -0.270534190692E+03   -0.10168E-03   -0.24146E-03 54152   0.966E-02    0.402E-01
DAV:   8    -0.270533919041E+03    0.27165E-03   -0.17592E-03 54208   0.100E-01    0.114E-01
DAV:   9    -0.270534054896E+03   -0.13585E-03   -0.52613E-04 43472   0.474E-02    0.116E-01
DAV:  10    -0.270534077406E+03   -0.22511E-04   -0.10043E-04 43096   0.392E-02    0.121E-01
DAV:  11    -0.270534080630E+03   -0.32231E-05   -0.72017E-05 37664   0.317E-02
  51 F= -.27053408E+03 E0= -.27052402E+03  d E =-.637199E-02  mag=     4.0000
       N       E                     dE             d eps       ncg     rms          rms(c)
DAV:   1    -0.270532660495E+03    0.14169E-02   -0.94672E-01 40320   0.360E+00    0.247E-01
DAV:   2    -0.270535955399E+03   -0.32949E-02   -0.34361E-02 42344   0.615E-01    0.580E-01
DAV:   3    -0.270535666334E+03    0.28907E-03   -0.64870E-03 55224   0.194E-01    0.394E-01
DAV:   4    -0.270535596410E+03    0.69924E-04   -0.17820E-03 54304   0.116E-01    0.274E-01
DAV:   5    -0.270535475080E+03    0.12133E-03   -0.10048E-03 53920   0.787E-02    0.127E-01
DAV:   6    -0.270535523187E+03   -0.48107E-04   -0.86688E-04 54000   0.679E-02    0.282E-01
DAV:   7    -0.270535383431E+03    0.13976E-03   -0.76262E-04 44456   0.594E-02    0.845E-02
DAV:   8    -0.270535399003E+03   -0.15572E-04   -0.11100E-04 36872   0.395E-02    0.516E-02
DAV:   9    -0.270535425809E+03   -0.26806E-04   -0.10474E-04 30256   0.258E-02    0.570E-02
DAV:  10    -0.270535429643E+03   -0.38341E-05   -0.23960E-05 26944   0.214E-02
  52 F= -.27053543E+03 E0= -.27052530E+03  d E =-.134901E-02  mag=     4.0000
       N       E                     dE             d eps       ncg     rms          rms(c)
DAV:   1    -0.270519082157E+03    0.16344E-01   -0.39427E+00 40320   0.739E+00    0.453E-01
DAV:   2    -0.270532068087E+03   -0.12986E-01   -0.13964E-01 40728   0.122E+00    0.468E-01
DAV:   3    -0.270534044508E+03   -0.19764E-02   -0.22487E-02 54624   0.373E-01    0.121E+00
DAV:   4    -0.270531608561E+03    0.24359E-02   -0.13759E-02 54256   0.257E-01    0.446E-01
DAV:   5    -0.270531653362E+03   -0.44802E-04   -0.36329E-03 54280   0.143E-01    0.276E-01
DAV:   6    -0.270531466856E+03    0.18651E-03   -0.11002E-03 53920   0.117E-01    0.281E-01
DAV:   7    -0.270531551445E+03   -0.84588E-04   -0.27067E-03 53976   0.111E-01    0.390E-01
DAV:   8    -0.270531345088E+03    0.20636E-03   -0.11893E-03 52560   0.843E-02    0.573E-02
DAV:   9    -0.270531435016E+03   -0.89928E-04   -0.25113E-04 39968   0.409E-02    0.834E-02
DAV:  10    -0.270531446778E+03   -0.11762E-04   -0.38805E-05 29560   0.256E-02    0.955E-02
DAV:  11    -0.270531440919E+03    0.58595E-05   -0.12135E-05 24496   0.145E-02
  53 F= -.27053144E+03 E0= -.27052127E+03  d E =0.398872E-02  mag=     4.0000
       N       E                     dE             d eps       ncg     rms          rms(c)
DAV:   1    -0.270525850855E+03    0.55959E-02   -0.43350E-01 40320   0.272E+00    0.223E-01
DAV:   2    -0.270527856113E+03   -0.20053E-02   -0.21429E-02 41016   0.476E-01    0.422E-01
DAV:   3    -0.270528122732E+03   -0.26662E-03   -0.70208E-03 53824   0.199E-01    0.630E-01
DAV:   4    -0.270527524479E+03    0.59825E-03   -0.17717E-03 51632   0.115E-01    0.159E-01
DAV:   5    -0.270527635479E+03   -0.11100E-03   -0.45689E-04 50080   0.553E-02    0.200E-01
DAV:   6    -0.270527574475E+03    0.61004E-04   -0.45638E-04 34216   0.508E-02    0.126E-01
DAV:   7    -0.270527622756E+03   -0.48281E-04   -0.62859E-04 33992   0.507E-02    0.218E-01
DAV:   8    -0.270527549952E+03    0.72804E-04   -0.56728E-04 39568   0.581E-02    0.693E-02
DAV:   9    -0.270527587374E+03   -0.37422E-04   -0.10180E-04 29384   0.228E-02    0.688E-02
DAV:  10    -0.270527589577E+03   -0.22033E-05   -0.21379E-05 28408   0.198E-02
  54 F= -.27052759E+03 E0= -.27051742E+03  d E =0.385134E-02  mag=     4.0000
       N       E                     dE             d eps       ncg     rms          rms(c)
DAV:   1    -0.270526718677E+03    0.86870E-03   -0.67237E-02 40528   0.103E+00    0.703E-02
DAV:   2    -0.270527179433E+03   -0.46076E-03   -0.39505E-03 47416   0.197E-01    0.427E-01
DAV:   3    -0.270526886385E+03    0.29305E-03   -0.10720E-03 52440   0.804E-02    0.602E-02
DAV:   4    -0.270526962892E+03   -0.76508E-04   -0.22987E-04 32592   0.389E-02    0.121E-01
DAV:   5    -0.270526935584E+03    0.27309E-04   -0.16267E-04 31888   0.372E-02    0.307E-02
DAV:   6    -0.270526943160E+03   -0.75761E-05   -0.65684E-05 26856   0.201E-02
  55 F= -.27052694E+03 E0= -.27051678E+03  d E =0.646418E-03  mag=     4.0000
       N       E                     dE             d eps       ncg     rms          rms(c)
DAV:   1    -0.270521549419E+03    0.53862E-02   -0.36989E-01 40320   0.242E+00    0.162E-01
DAV:   2    -0.270523008021E+03   -0.14586E-02   -0.16514E-02 40320   0.414E-01    0.152E-01
DAV:   3    -0.270523375338E+03   -0.36732E-03   -0.33197E-03 55528   0.128E-01    0.556E-01
DAV:   4    -0.270522858670E+03    0.51667E-03   -0.21015E-03 53696   0.103E-01    0.619E-02
DAV:   5    -0.270523006253E+03   -0.14758E-03   -0.54922E-04 52840   0.640E-02    0.202E-01
DAV:   6    -0.270522935011E+03    0.71242E-04   -0.54945E-04 41408   0.557E-02    0.755E-02
DAV:   7    -0.270522957771E+03   -0.22760E-04   -0.24175E-04 32648   0.341E-02    0.113E-01
DAV:   8    -0.270522939611E+03    0.18159E-04   -0.99757E-05 28936   0.281E-02    0.375E-02
DAV:   9    -0.270522942006E+03   -0.23951E-05   -0.93718E-06 22872   0.991E-03
  56 F= -.27052294E+03 E0= -.27051278E+03  d E =0.400115E-02  mag=     4.0000
       N       E                     dE             d eps       ncg     rms          rms(c)
DAV:   1    -0.270496720346E+03    0.26219E-01   -0.39748E+00 40320   0.743E+00    0.509E-01
DAV:   2    -0.270511119979E+03   -0.14400E-01   -0.15720E-01 40160   0.125E+00    0.904E-01
DAV:   3    -0.270512275492E+03   -0.11555E-02   -0.35497E-02 55168   0.430E-01    0.127E+00
DAV:   4    -0.270509577084E+03    0.26984E-02   -0.79131E-03 53528   0.255E-01    0.309E-01
DAV:   5    -0.270510310486E+03   -0.73340E-03   -0.50641E-03 54384   0.164E-01    0.595E-01
DAV:   6    -0.270509764032E+03    0.54645E-03   -0.53684E-03 56016   0.172E-01    0.430E-01
DAV:   7    -0.270509606288E+03    0.15774E-03   -0.31948E-03 53784   0.121E-01    0.217E-01
DAV:   8    -0.270509668787E+03   -0.62499E-04   -0.91529E-04 53992   0.778E-02    0.180E-01
DAV:   9    -0.270509727214E+03   -0.58428E-04   -0.35096E-04 38080   0.479E-02    0.137E-01
DAV:  10    -0.270509737325E+03   -0.10110E-04   -0.53629E-05 32472   0.305E-02    0.135E-01
DAV:  11    -0.270509745307E+03   -0.79824E-05   -0.58590E-05 36232   0.288E-02
  57 F= -.27050975E+03 E0= -.27049950E+03  d E =0.131967E-01  mag=     4.0000
       N       E                     dE             d eps       ncg     rms          rms(c)
DAV:   1    -0.270432996259E+03    0.76741E-01   -0.15823E+01 39336   0.145E+01    0.935E-01
DAV:   2    -0.270489386525E+03   -0.56390E-01   -0.60713E-01 40024   0.245E+00    0.181E+00
DAV:   3    -0.270491030308E+03   -0.16438E-02   -0.11510E-01 55224   0.788E-01    0.214E+00
DAV:   4    -0.270483915513E+03    0.71148E-02   -0.40486E-02 54720   0.472E-01    0.735E-01
DAV:   5    -0.270484614820E+03   -0.69931E-03   -0.12824E-02 54344   0.257E-01    0.694E-01
DAV:   6    -0.270485396074E+03   -0.78125E-03   -0.15987E-02 54952   0.315E-01    0.107E+00
DAV:   7    -0.270483090395E+03    0.23057E-02   -0.14689E-02 54784   0.301E-01    0.274E-01
DAV:   8    -0.270483534731E+03   -0.44434E-03   -0.15241E-03 53128   0.115E-01    0.212E-01
DAV:   9    -0.270483640629E+03   -0.10590E-03   -0.53310E-04 52256   0.573E-02    0.200E-01
DAV:  10    -0.270483638268E+03    0.23612E-05   -0.95348E-05 34648   0.367E-02
  58 F= -.27048364E+03 E0= -.27047332E+03  d E =0.261070E-01  mag=     4.0000
       N       E                     dE             d eps       ncg     rms          rms(c)
DAV:   1    -0.270486168689E+03   -0.25281E-02   -0.98304E-01 39312   0.425E+00    0.491E-01
DAV:   2    -0.270494135741E+03   -0.79671E-02   -0.77172E-02 42680   0.863E-01    0.146E+00
DAV:   3    -0.270491560490E+03    0.25753E-02   -0.33938E-02 53824   0.424E-01    0.709E-01
DAV:   4    -0.270491829687E+03   -0.26920E-03   -0.54399E-03 51760   0.213E-01    0.561E-01
DAV:   5    -0.270491309978E+03    0.51971E-03   -0.39048E-03 53920   0.149E-01    0.299E-01
DAV:   6    -0.270491461881E+03   -0.15190E-03   -0.20730E-03 54240   0.931E-02    0.436E-01
DAV:   7    -0.270491116685E+03    0.34520E-03   -0.21865E-03 53560   0.108E-01    0.188E-01
DAV:   8    -0.270491159316E+03   -0.42631E-04   -0.10184E-03 54368   0.850E-02    0.147E-01
DAV:   9    -0.270491243248E+03   -0.83932E-04   -0.57313E-04 49336   0.724E-02    0.115E-01
DAV:  10    -0.270491260847E+03   -0.17599E-04   -0.14605E-04 46568   0.477E-02    0.783E-02
DAV:  11    -0.270491268319E+03   -0.74714E-05   -0.91832E-05 35136   0.342E-02
  59 F= -.27049127E+03 E0= -.27048107E+03  d E =-.763005E-02  mag=     4.0000
       N       E                     dE             d eps       ncg     rms          rms(c)
DAV:   1    -0.270495900376E+03   -0.46395E-02   -0.16924E+00 39312   0.475E+00    0.429E-01
DAV:   2    -0.270502086810E+03   -0.61864E-02   -0.66666E-02 40944   0.821E-01    0.742E-01
DAV:   3    -0.270502684222E+03   -0.59741E-03   -0.22095E-02 54096   0.330E-01    0.986E-01
DAV:   4    -0.270501093959E+03    0.15903E-02   -0.59614E-03 52792   0.202E-01    0.181E-01
DAV:   5    -0.270501417216E+03   -0.32326E-03   -0.18925E-03 55216   0.112E-01    0.358E-01
DAV:   6    -0.270501155508E+03    0.26171E-03   -0.20449E-03 53752   0.111E-01    0.171E-01
DAV:   7    -0.270501381690E+03   -0.22618E-03   -0.22376E-03 53824   0.939E-02    0.417E-01
DAV:   8    -0.270501118676E+03    0.26301E-03   -0.15714E-03 52192   0.915E-02    0.995E-02
DAV:   9    -0.270501206323E+03   -0.87647E-04   -0.25815E-04 32608   0.435E-02    0.797E-02
DAV:  10    -0.270501215191E+03   -0.88679E-05   -0.40873E-05 30032   0.271E-02
  60 F= -.27050122E+03 E0= -.27049094E+03  d E =-.994687E-02  mag=     4.0000
       N       E                     dE             d eps       ncg     rms          rms(c)
DAV:   1    -0.270492787521E+03    0.84188E-02   -0.10393E+00 39928   0.362E+00    0.233E-01
DAV:   2    -0.270496132480E+03   -0.33450E-02   -0.35433E-02 40448   0.600E-01    0.502E-01
DAV:   3    -0.270496033486E+03    0.98994E-04   -0.74407E-03 55280   0.194E-01    0.438E-01
DAV:   4    -0.270495719023E+03    0.31446E-03   -0.15426E-03 54176   0.105E-01    0.139E-01
DAV:   5    -0.270495794880E+03   -0.75857E-04   -0.83290E-04 53920   0.667E-02    0.249E-01
DAV:   6    -0.270495762150E+03    0.32730E-04   -0.11035E-03 53728   0.800E-02    0.246E-01
DAV:   7    -0.270495665616E+03    0.96534E-04   -0.83732E-04 51328   0.692E-02    0.770E-02
DAV:   8    -0.270495684843E+03   -0.19227E-04   -0.73531E-05 30984   0.294E-02    0.627E-02
DAV:   9    -0.270495686457E+03   -0.16139E-05   -0.34415E-05 27568   0.205E-02
  61 F= -.27049569E+03 E0= -.27048534E+03  d E =0.552873E-02  mag=     4.0000
       N       E                     dE             d eps       ncg     rms          rms(c)
DAV:   1    -0.270488792361E+03    0.68925E-02   -0.17975E+00 40320   0.447E+00    0.234E-01
DAV:   2    -0.270493071501E+03   -0.42791E-02   -0.45434E-02 40432   0.695E-01    0.211E-01
DAV:   3    -0.270493467937E+03   -0.39644E-03   -0.57605E-03 54656   0.193E-01    0.530E-01
DAV:   4    -0.270492887770E+03    0.58017E-03   -0.30667E-03 54840   0.133E-01    0.200E-01
DAV:   5    -0.270492918670E+03   -0.30900E-04   -0.99276E-04 50560   0.673E-02    0.174E-01
DAV:   6    -0.270492815271E+03    0.10340E-03   -0.53407E-04 52088   0.777E-02    0.103E-01
DAV:   7    -0.270492836150E+03   -0.20879E-04   -0.36072E-04 49760   0.447E-02    0.139E-01
DAV:   8    -0.270492806146E+03    0.30005E-04   -0.12304E-04 31640   0.341E-02    0.396E-02
DAV:   9    -0.270492813582E+03   -0.74363E-05   -0.65593E-05 36536   0.234E-02
  62 F= -.27049281E+03 E0= -.27048250E+03  d E =0.287287E-02  mag=     4.0000
       N       E                     dE             d eps       ncg     rms          rms(c)
DAV:   1    -0.270387954609E+03    0.10485E+00   -0.41360E+01 40320   0.212E+01    0.104E+00
DAV:   2    -0.270487822802E+03   -0.99868E-01   -0.10434E+00 41104   0.331E+00    0.147E+00
DAV:   3    -0.270496599294E+03   -0.87765E-02   -0.16078E-01 55240   0.969E-01    0.294E+00
DAV:   4    -0.270482724530E+03    0.13875E-01   -0.74356E-02 54616   0.604E-01    0.121E+00
DAV:   5    -0.270482109785E+03    0.61475E-03   -0.23874E-02 53720   0.372E-01    0.628E-01
DAV:   6    -0.270485741471E+03   -0.36317E-02   -0.34375E-02 54616   0.409E-01    0.202E+00
DAV:   7    -0.270479067164E+03    0.66743E-02   -0.33744E-02 53608   0.400E-01    0.221E-01
DAV:   8    -0.270480346554E+03   -0.12794E-02   -0.14467E-03 51400   0.187E-01    0.175E-01
DAV:   9    -0.270480466810E+03   -0.12026E-03   -0.78826E-04 54352   0.101E-01    0.165E-01
DAV:  10    -0.270480474923E+03   -0.81136E-05   -0.20833E-04 43688   0.456E-02    0.122E-01
DAV:  11    -0.270480473969E+03    0.95426E-06   -0.77580E-05 34792   0.275E-02
  63 F= -.27048047E+03 E0= -.27047005E+03  d E =0.123396E-01  mag=     4.0000
       N       E                     dE             d eps       ncg     rms          rms(c)
DAV:   1    -0.270472083208E+03    0.83917E-02   -0.18740E+00 40320   0.557E+00    0.543E-01
DAV:   2    -0.270482072028E+03   -0.99888E-02   -0.98069E-02 43344   0.101E+00    0.145E+00
DAV:   3    -0.270480812343E+03    0.12597E-02   -0.49203E-02 53048   0.502E-01    0.111E+00
DAV:   4    -0.270479768691E+03    0.10437E-02   -0.10125E-02 52296   0.266E-01    0.621E-01
DAV:   5    -0.270479373773E+03    0.39492E-03   -0.55025E-03 53728   0.163E-01    0.307E-01
DAV:   6    -0.270479732171E+03   -0.35840E-03   -0.38362E-03 53256   0.128E-01    0.527E-01
DAV:   7    -0.270479185158E+03    0.54701E-03   -0.24093E-03 54232   0.124E-01    0.149E-01
DAV:   8    -0.270479214317E+03   -0.29159E-04   -0.50916E-04 54432   0.672E-02    0.104E-01
DAV:   9    -0.270479287460E+03   -0.73143E-04   -0.37113E-04 36216   0.478E-02    0.108E-01
DAV:  10    -0.270479303015E+03   -0.15555E-04   -0.10172E-04 35104   0.372E-02    0.890E-02
DAV:  11    -0.270479307311E+03   -0.42962E-05   -0.67373E-05 37544   0.304E-02
  64 F= -.27047931E+03 E0= -.27046887E+03  d E =0.116666E-02  mag=     4.0000
       N       E                     dE             d eps       ncg     rms          rms(c)
DAV:   1    -0.270478178397E+03    0.11246E-02   -0.14187E+00 40320   0.402E+00    0.364E-01
DAV:   2    -0.270482633729E+03   -0.44553E-02   -0.44726E-02 44816   0.677E-01    0.873E-01
DAV:   3    -0.270482054545E+03    0.57918E-03   -0.15775E-02 53704   0.303E-01    0.674E-01
DAV:   4    -0.270481756362E+03    0.29818E-03   -0.49042E-03 52656   0.181E-01    0.446E-01
DAV:   5    -0.270481466006E+03    0.29036E-03   -0.24156E-03 53888   0.118E-01    0.158E-01
DAV:   6    -0.270481649643E+03   -0.18364E-03   -0.18595E-03 53672   0.872E-02    0.365E-01
DAV:   7    -0.270481375359E+03    0.27428E-03   -0.14166E-03 54680   0.876E-02    0.890E-02
DAV:   8    -0.270481412285E+03   -0.36926E-04   -0.15648E-04 44720   0.394E-02    0.430E-02
DAV:   9    -0.270481426274E+03   -0.13988E-04   -0.60972E-05 29688   0.222E-02    0.449E-02
DAV:  10    -0.270481428867E+03   -0.25932E-05   -0.14768E-05 23632   0.152E-02
  65 F= -.27048143E+03 E0= -.27047102E+03  d E =-.212156E-02  mag=     4.0000
       N       E                     dE             d eps       ncg     rms          rms(c)
DAV:   1    -0.270481310082E+03    0.11619E-03   -0.11035E-01 39312   0.125E+00    0.950E-02
DAV:   2    -0.270481731689E+03   -0.42161E-03   -0.44224E-03 42336   0.216E-01    0.168E-01
DAV:   3    -0.270481749891E+03   -0.18202E-04   -0.10304E-03 54792   0.741E-02    0.199E-01
DAV:   4    -0.270481682192E+03    0.67699E-04   -0.28576E-04 33616   0.433E-02    0.621E-02
DAV:   5    -0.270481693852E+03   -0.11660E-04   -0.12197E-04 31760   0.298E-02    0.967E-02
DAV:   6    -0.270481672374E+03    0.21477E-04   -0.12888E-04 34816   0.356E-02    0.675E-02
DAV:   7    -0.270481685659E+03   -0.13285E-04   -0.22698E-04 31960   0.329E-02    0.122E-01
DAV:   8    -0.270481670169E+03    0.15490E-04   -0.13088E-04 29040   0.314E-02    0.292E-02
DAV:   9    -0.270481680341E+03   -0.10172E-04   -0.26138E-05 26688   0.157E-02    0.287E-02
DAV:  10    -0.270481681229E+03   -0.88786E-06   -0.62211E-06 22256   0.937E-03
  66 F= -.27048168E+03 E0= -.27047127E+03  d E =-.252362E-03  mag=     4.0000
       N       E                     dE             d eps       ncg     rms          rms(c)
DAV:   1    -0.270477399750E+03    0.42806E-02   -0.15411E+00 40320   0.417E+00    0.216E-01
DAV:   2    -0.270481234586E+03   -0.38348E-02   -0.40065E-02 41712   0.649E-01    0.345E-01
DAV:   3    -0.270481497158E+03   -0.26257E-03   -0.65973E-03 54992   0.188E-01    0.546E-01
DAV:   4    -0.270480965739E+03    0.53142E-03   -0.24623E-03 53936   0.120E-01    0.162E-01
DAV:   5    -0.270480993831E+03   -0.28092E-04   -0.54534E-04 51056   0.585E-02    0.128E-01
DAV:   6    -0.270480930327E+03    0.63504E-04   -0.49713E-04 53160   0.719E-02    0.180E-01
DAV:   7    -0.270480910904E+03    0.19422E-04   -0.67589E-04 50936   0.543E-02    0.140E-01
DAV:   8    -0.270480892619E+03    0.18286E-04   -0.21778E-04 33280   0.393E-02    0.463E-02
DAV:   9    -0.270480911646E+03   -0.19027E-04   -0.85715E-05 30152   0.226E-02    0.481E-02
DAV:  10    -0.270480917005E+03   -0.53588E-05   -0.19598E-05 26032   0.181E-02
  67 F= -.27048092E+03 E0= -.27047049E+03  d E =0.764224E-03  mag=     4.0000
       N       E                     dE             d eps       ncg     rms          rms(c)
DAV:   1    -0.270335386389E+03    0.14553E+00   -0.59654E+01 40320   0.255E+01    0.127E+00
DAV:   2    -0.270479284592E+03   -0.14390E+00   -0.15051E+00 41376   0.395E+00    0.149E+00
DAV:   3    -0.270498152325E+03   -0.18868E-01   -0.22468E-01 54712   0.107E+00    0.428E+00
DAV:   4    -0.270470290850E+03    0.27861E-01   -0.15436E-01 53696   0.805E-01    0.106E+00
DAV:   5    -0.270473552926E+03   -0.32621E-02   -0.22925E-02 52824   0.373E-01    0.877E-01
DAV:   6    -0.270475032962E+03   -0.14800E-02   -0.37212E-02 54472   0.491E-01    0.164E+00
DAV:   7    -0.270469669183E+03    0.53638E-02   -0.37302E-02 54432   0.474E-01    0.421E-01
DAV:   8    -0.270470356963E+03   -0.68778E-03   -0.21674E-03 51640   0.189E-01    0.230E-01
DAV:   9    -0.270470443783E+03   -0.86820E-04   -0.10303E-03 54400   0.102E-01    0.162E-01
DAV:  10    -0.270470495372E+03   -0.51589E-04   -0.29720E-04 54048   0.652E-02    0.150E-01
DAV:  11    -0.270470516335E+03   -0.20963E-04   -0.19834E-04 41704   0.415E-02    0.146E-01
DAV:  12    -0.270470489948E+03    0.26387E-04   -0.93946E-05 35760   0.374E-02    0.108E-01
DAV:  13    -0.270470473901E+03    0.16047E-04   -0.20469E-04 51528   0.468E-02    0.679E-02
DAV:  14    -0.270470479959E+03   -0.60580E-05   -0.53792E-05 32904   0.329E-02
  68 F= -.27047048E+03 E0= -.27046009E+03  d E =0.104370E-01  mag=     4.0000
       N       E                     dE             d eps       ncg     rms          rms(c)
DAV:   1    -0.270464877258E+03    0.55966E-02   -0.11062E+00 40320   0.462E+00    0.587E-01
DAV:   2    -0.270473335591E+03   -0.84583E-02   -0.87205E-02 43328   0.955E-01    0.139E+00
DAV:   3    -0.270472125954E+03    0.12096E-02   -0.49095E-02 54368   0.478E-01    0.112E+00
DAV:   4    -0.270471910825E+03    0.21513E-03   -0.16907E-02 54488   0.316E-01    0.899E-01
DAV:   5    -0.270470553780E+03    0.13570E-02   -0.10664E-02 54576   0.242E-01    0.289E-01
DAV:   6    -0.270471143204E+03   -0.58942E-03   -0.43893E-03 54376   0.143E-01    0.594E-01
DAV:   7    -0.270470485110E+03    0.65809E-03   -0.32842E-03 54464   0.137E-01    0.107E-01
DAV:   8    -0.270470603140E+03   -0.11803E-03   -0.33918E-04 48904   0.510E-02    0.105E-01
DAV:   9    -0.270470619496E+03   -0.16356E-04   -0.15616E-04 33448   0.331E-02    0.795E-02
DAV:  10    -0.270470623290E+03   -0.37943E-05   -0.10459E-04 33584   0.343E-02    0.590E-02
DAV:  11    -0.270470629860E+03   -0.65693E-05   -0.76113E-05 32432   0.286E-02
  69 F= -.27047063E+03 E0= -.27046026E+03  d E =-.149901E-03  mag=     4.0000
       N       E                     dE             d eps       ncg     rms          rms(c)
DAV:   1    -0.270454872657E+03    0.15751E-01   -0.90781E+00 40320   0.102E+01    0.730E-01
DAV:   2    -0.270478116724E+03   -0.23244E-01   -0.24633E-01 42336   0.164E+00    0.548E-01
DAV:   3    -0.270481611275E+03   -0.34946E-02   -0.42079E-02 55160   0.516E-01    0.155E+00
DAV:   4    -0.270476913743E+03    0.46975E-02   -0.23910E-02 54176   0.379E-01    0.626E-01
DAV:   5    -0.270477103343E+03   -0.18960E-03   -0.74396E-03 54536   0.186E-01    0.505E-01
DAV:   6    -0.270476528591E+03    0.57475E-03   -0.32984E-03 53944   0.181E-01    0.367E-01
DAV:   7    -0.270476849214E+03   -0.32062E-03   -0.62889E-03 54360   0.161E-01    0.618E-01
DAV:   8    -0.270476277148E+03    0.57207E-03   -0.32242E-03 53480   0.148E-01    0.132E-01
DAV:   9    -0.270476526321E+03   -0.24917E-03   -0.10379E-03 53488   0.896E-02    0.145E-01
DAV:  10    -0.270476588904E+03   -0.62583E-04   -0.27931E-04 48616   0.587E-02    0.150E-01
DAV:  11    -0.270476586695E+03    0.22089E-05   -0.22363E-04 47640   0.481E-02    0.924E-02
DAV:  12    -0.270476589126E+03   -0.24311E-05   -0.77501E-05 33944   0.330E-02
  70 F= -.27047659E+03 E0= -.27046616E+03  d E =-.595927E-02  mag=     4.0000
       N       E                     dE             d eps       ncg     rms          rms(c)
DAV:   1    -0.270473463331E+03    0.31234E-02   -0.30666E+00 40320   0.580E+00    0.345E-01
DAV:   2    -0.270480889408E+03   -0.74261E-02   -0.78181E-02 41400   0.908E-01    0.427E-01
DAV:   3    -0.270482200442E+03   -0.13110E-02   -0.16268E-02 54976   0.291E-01    0.109E+00
DAV:   4    -0.270480167476E+03    0.20330E-02   -0.66861E-03 53280   0.204E-01    0.152E-01
DAV:   5    -0.270480503829E+03   -0.33635E-03   -0.16137E-03 54144   0.118E-01    0.298E-01
DAV:   6    -0.270480365323E+03    0.13851E-03   -0.16108E-03 53720   0.976E-02    0.164E-01
DAV:   7    -0.270480431483E+03   -0.66160E-04   -0.96558E-04 43616   0.659E-02    0.259E-01
DAV:   8    -0.270480325195E+03    0.10629E-03   -0.63452E-04 40600   0.587E-02    0.101E-01
DAV:   9    -0.270480346184E+03   -0.20989E-04   -0.24271E-04 43136   0.400E-02    0.589E-02
DAV:  10    -0.270480362470E+03   -0.16286E-04   -0.82750E-05 31448   0.326E-02    0.515E-02
DAV:  11    -0.270480371616E+03   -0.91465E-05   -0.51496E-05 30312   0.244E-02
  71 F= -.27048037E+03 E0= -.27046993E+03  d E =-.378249E-02  mag=     4.0000
       N       E                     dE             d eps       ncg     rms          rms(c)
DAV:   1    -0.270450074437E+03    0.30288E-01   -0.11299E+01 40320   0.116E+01    0.842E-01
DAV:   2    -0.270481858961E+03   -0.31785E-01   -0.32848E-01 42752   0.188E+00    0.122E+00
DAV:   3    -0.270487120149E+03   -0.52612E-02   -0.10122E-01 54984   0.689E-01    0.225E+00
DAV:   4    -0.270478114886E+03    0.90053E-02   -0.25286E-02 53752   0.437E-01    0.514E-01
DAV:   5    -0.270479992065E+03   -0.18772E-02   -0.11842E-02 54672   0.253E-01    0.936E-01
DAV:   6    -0.270478926552E+03    0.10655E-02   -0.14073E-02 54752   0.257E-01    0.637E-01
DAV:   7    -0.270478774709E+03    0.15184E-03   -0.71191E-03 53752   0.192E-01    0.436E-01
DAV:   8    -0.270478605865E+03    0.16884E-03   -0.25582E-03 54424   0.155E-01    0.259E-01
DAV:   9    -0.270478713520E+03   -0.10766E-03   -0.87947E-04 53864   0.744E-02    0.195E-01
DAV:  10    -0.270478737962E+03   -0.24442E-04   -0.12862E-04 34584   0.368E-02    0.189E-01
DAV:  11    -0.270478757761E+03   -0.19799E-04   -0.15186E-04 43912   0.395E-02    0.204E-01
DAV:  12    -0.270478707396E+03    0.50365E-04   -0.18249E-04 36744   0.412E-02    0.695E-02
DAV:  13    -0.270478727971E+03   -0.20574E-04   -0.97867E-05 37432   0.249E-02    0.304E-02
DAV:  14    -0.270478733573E+03   -0.56023E-05   -0.20094E-05 24408   0.178E-02
  72 F= -.27047873E+03 E0= -.27046840E+03  d E =0.163804E-02  mag=     4.0000
       N       E                     dE             d eps       ncg     rms          rms(c)
DAV:   1    -0.270455184080E+03    0.23544E-01   -0.97148E+00 40320   0.108E+01    0.746E-01
DAV:   2    -0.270481961092E+03   -0.26777E-01   -0.27851E-01 42424   0.174E+00    0.969E-01
DAV:   3    -0.270486804150E+03   -0.48431E-02   -0.76506E-02 55312   0.600E-01    0.209E+00
DAV:   4    -0.270479017841E+03    0.77863E-02   -0.30332E-02 54352   0.416E-01    0.338E-01
DAV:   5    -0.270481072541E+03   -0.20547E-02   -0.11718E-02 54048   0.238E-01    0.968E-01
DAV:   6    -0.270479696273E+03    0.13763E-02   -0.95345E-03 54264   0.232E-01    0.518E-01
DAV:   7    -0.270479694019E+03    0.22545E-05   -0.53891E-03 53248   0.173E-01    0.347E-01
DAV:   8    -0.270479588984E+03    0.10503E-03   -0.10011E-03 54288   0.110E-01    0.159E-01
DAV:   9    -0.270479656403E+03   -0.67419E-04   -0.60173E-04 53920   0.608E-02    0.119E-01
DAV:  10    -0.270479683513E+03   -0.27111E-04   -0.84187E-05 31520   0.330E-02    0.121E-01
DAV:  11    -0.270479684947E+03   -0.14337E-05   -0.43287E-05 30368   0.224E-02
  73 F= -.27047968E+03 E0= -.27046925E+03  d E =-.951374E-03  mag=     4.0000
       N       E                     dE             d eps       ncg     rms          rms(c)
DAV:   1    -0.270478811198E+03    0.87231E-03   -0.18432E-01 40320   0.169E+00    0.233E-01
DAV:   2    -0.270480161642E+03   -0.13504E-02   -0.12776E-02 50136   0.353E-01    0.674E-01
DAV:   3    -0.270479483090E+03    0.67855E-03   -0.61008E-03 54144   0.177E-01    0.218E-01
DAV:   4    -0.270479681081E+03   -0.19799E-03   -0.17036E-03 53328   0.107E-01    0.301E-01
DAV:   5    -0.270479495774E+03    0.18531E-03   -0.11758E-03 53008   0.830E-02    0.101E-01
DAV:   6    -0.270479501267E+03   -0.54931E-05   -0.11219E-04 35616   0.382E-02    0.892E-02
DAV:   7    -0.270479489671E+03    0.11597E-04   -0.63346E-05 33640   0.321E-02    0.749E-02
DAV:   8    -0.270479557900E+03   -0.68230E-04   -0.48389E-04 32888   0.464E-02    0.247E-01
DAV:   9    -0.270479470969E+03    0.86931E-04   -0.55414E-04 33360   0.516E-02    0.582E-02
DAV:  10    -0.270479495850E+03   -0.24881E-04   -0.68177E-05 28856   0.228E-02    0.389E-02
DAV:  11    -0.270479498890E+03   -0.30407E-05   -0.33121E-05 27608   0.178E-02
  74 F= -.27047950E+03 E0= -.27046904E+03  d E =0.186057E-03  mag=     4.0000
       N       E                     dE             d eps       ncg     rms          rms(c)
DAV:   1    -0.270477306061E+03    0.21898E-02   -0.20051E-01 40320   0.154E+00    0.162E-01
DAV:   2    -0.270477904802E+03   -0.59874E-03   -0.64278E-03 41896   0.262E-01    0.208E-01
DAV:   3    -0.270478103431E+03   -0.19863E-03   -0.30985E-03 54296   0.115E-01    0.451E-01
DAV:   4    -0.270477786245E+03    0.31719E-03   -0.13114E-03 52520   0.841E-02    0.101E-01
DAV:   5    -0.270477839158E+03   -0.52913E-04   -0.22199E-04 32496   0.348E-02    0.128E-01
DAV:   6    -0.270477817467E+03    0.21691E-04   -0.93749E-05 31280   0.311E-02    0.752E-02
DAV:   7    -0.270477819204E+03   -0.17368E-05   -0.10042E-04 29784   0.287E-02    0.895E-02
DAV:   8    -0.270477801249E+03    0.17955E-04   -0.96590E-05 31600   0.348E-02    0.479E-02
DAV:   9    -0.270477809035E+03   -0.77866E-05   -0.12119E-04 29760   0.262E-02    0.393E-02
DAV:  10    -0.270477816573E+03   -0.75381E-05   -0.25448E-05 25856   0.179E-02
  75 F= -.27047782E+03 E0= -.27046737E+03  d E =0.168232E-02  mag=     4.0000
