       N       E                     dE             d eps       ncg     rms          ort
DAV:   1     0.275752832760E+04    0.27575E+04   -0.14965E+05  9180   0.158E+03
DAV:   2     0.244309502869E+02   -0.27331E+04   -0.25448E+04  9180   0.423E+02
DAV:   3    -0.274147343814E+03   -0.29858E+03   -0.29243E+03  9180   0.145E+02
DAV:   4    -0.284566498876E+03   -0.10419E+02   -0.10355E+02  9180   0.267E+01
DAV:   5    -0.285355447887E+03   -0.78895E+00   -0.78831E+00  9180   0.490E+00
SDA:   6    -0.285378103023E+03   -0.22655E-01   -0.78831E+00  9180   0.162E+00 0.000E+00
CGA:   7    -0.285383044054E+03   -0.49410E-02   -0.58792E-02  9180   0.194E-01-0.231E-01
CGA:   8    -0.285385307507E+03   -0.22635E-02   -0.22540E-02  9180   0.214E-01-0.188E-04
CGA:   9    -0.285386927226E+03   -0.16197E-02   -0.16455E-02  9180   0.782E-02-0.231E-03
CGA:  10    -0.285387653862E+03   -0.72664E-03   -0.72030E-03  9180   0.579E-02 0.186E-04
CGA:  11    -0.285388240840E+03   -0.58698E-03   -0.58841E-03  9180   0.364E-02-0.183E-04
CGA:  12    -0.285388580313E+03   -0.33947E-03   -0.33695E-03  9180   0.272E-02-0.981E-06
CGA:  13    -0.285388893984E+03   -0.31367E-03   -0.31382E-03  9180   0.224E-02-0.791E-05
CGA:  14    -0.285389093354E+03   -0.19937E-03   -0.19806E-03  9180   0.132E-02-0.329E-05
CGA:  15    -0.285389226156E+03   -0.13280E-03   -0.13276E-03  9180   0.942E-03-0.535E-05
CGA:  16    -0.285389313659E+03   -0.87504E-04   -0.86975E-04  9180   0.605E-03-0.440E-05
CGA:  17    -0.285389374367E+03   -0.60707E-04   -0.60563E-04  9180   0.416E-03-0.376E-05
CGA:  18    -0.285389411327E+03   -0.36960E-04   -0.36695E-04  9180   0.255E-03-0.300E-05
CGA:  19    -0.285389439700E+03   -0.28374E-04   -0.28301E-04  9180   0.229E-03-0.211E-05
CGA:  20    -0.285389460371E+03   -0.20671E-04   -0.20527E-04  9180   0.117E-03-0.208E-05
CGA:  21    -0.285389471768E+03   -0.11397E-04   -0.11352E-04  9180   0.101E-03-0.104E-05
CGA:  22    -0.285389483681E+03   -0.11914E-04   -0.11865E-04  9180   0.791E-04-0.182E-05
CGA:  23    -0.285389490221E+03   -0.65399E-05   -0.64858E-05  9180   0.443E-04-0.981E-06
   1 F= -.28538949E+03 E0= -.28538743E+03  d E =-.285389E+03  mag=    18.0000
