       N       E                     dE             d eps       ncg     rms          ort
DAV:   1     0.286778217335E+04    0.28678E+04   -0.15338E+05  6480   0.161E+03
DAV:   2    -0.187447367764E+03   -0.30552E+04   -0.28871E+04  6480   0.446E+02
DAV:   3    -0.510388880619E+03   -0.32294E+03   -0.31852E+03  6480   0.158E+02
DAV:   4    -0.524517427603E+03   -0.14129E+02   -0.13985E+02  6480   0.285E+01
DAV:   5    -0.525183925971E+03   -0.66650E+00   -0.66520E+00  6480   0.509E+00
SDA:   6    -0.326879879567E+03    0.19830E+03   -0.66520E+00  6480   0.584E+03 0.000E+00
CGA:   7    -0.390787719807E+03   -0.63908E+02   -0.72769E+02  6480   0.166E+03-0.108E+01
CGA:   8    -0.401534943964E+03   -0.10747E+02   -0.17321E+02  6480   0.365E+02-0.763E+01
CGA:   9    -0.405695458472E+03   -0.41605E+01   -0.26175E+01  6480   0.159E+02 0.208E+02
CGA:  10    -0.406838992735E+03   -0.11435E+01   -0.62228E+00  6480   0.110E+02 0.133E+02
CGA:  11    -0.407434607426E+03   -0.59561E+00   -0.31227E+00  6480   0.888E+01 0.999E+01
CGA:  12    -0.407824673228E+03   -0.39007E+00   -0.20079E+00  6480   0.770E+01 0.837E+01
CGA:  13    -0.408116325848E+03   -0.29165E+00   -0.14734E+00  6480   0.709E+01 0.759E+01
CGA:  14    -0.408365595191E+03   -0.24927E+00   -0.12277E+00  6480   0.686E+01 0.738E+01
CGA:  15    -0.408613391365E+03   -0.24780E+00   -0.12139E+00  6480   0.639E+01 0.715E+01
CGA:  16    -0.408912467003E+03   -0.29908E+00   -0.15698E+00  6480   0.473E+01 0.554E+01
CGA:  17    -0.409656624395E+03   -0.74416E+00   -0.82548E+00  6480   0.440E+02-0.145E+01
CGA:  18    -0.409941478538E+03   -0.28485E+00   -0.10557E+01  6480   0.832E+02-0.308E+02
CGA:  19    -0.411542183839E+03   -0.16007E+01   -0.58991E+01  6480   0.234E+01-0.139E+01
CGA:  20    -0.411868558666E+03   -0.32637E+00   -0.36703E+00  6480   0.170E+01-0.104E+01
CGA:  21    -0.412032467873E+03   -0.16391E+00   -0.15915E+00  6480   0.101E+01 0.915E-01
CGA:  22    -0.412209939413E+03   -0.17747E+00   -0.16902E+00  6480   0.247E+00 0.203E+00
CGA:  23    -0.412279808304E+03   -0.69869E-01   -0.73924E-01  6480   0.873E-01-0.357E-01
CGA:  24    -0.412299455513E+03   -0.19647E-01   -0.18496E-01  6480   0.275E-01 0.110E-01
CGA:  25    -0.412305267997E+03   -0.58125E-02   -0.56194E-02  6480   0.711E-02 0.531E-02
CGA:  26    -0.412303138703E+03    0.21293E-02   -0.21028E-02  6480   0.475E-01-0.118E-01
CGA:  27    -0.412311150135E+03   -0.80114E-02   -0.82742E-02  6480   0.307E-02 0.341E-02
CGA:  28    -0.412312111432E+03   -0.96130E-03   -0.97079E-03  6480   0.805E-03-0.317E-03
CGA:  29    -0.412312501248E+03   -0.38982E-03    0.68025E-02  6480   0.317E-03 0.285E-03
CGA:  30    -0.412312665352E+03   -0.16410E-03   -0.15762E-03  6480   0.215E-03 0.632E-04
CGA:  31    -0.412312679003E+03   -0.13651E-04   -0.35724E-04  6480   0.122E-03 0.166E-03
CGA:  32    -0.412312681434E+03   -0.24313E-05   -0.14305E-04  6480   0.602E-04 0.803E-04
   1 F= -.41231268E+03 E0= -.41231268E+03  d E =-.412313E+03  mag=    18.0000
       N       E                     dE             d eps       ncg     rms          ort
SDA:   1    -0.412469855214E+03   -0.15718E+00    0.00000E+00  6480   0.202E-01 0.000E+00
CGA:   2    -0.412474754440E+03   -0.48992E-02   -0.48966E-02  6480   0.473E-02-0.312E-03
CGA:   3    -0.412475933070E+03   -0.11786E-02   -0.11777E-02  6480   0.135E-02 0.308E-03
CGA:   4    -0.412476188034E+03   -0.25496E-03   -0.26188E-03  6480   0.391E-03 0.101E-03
CGA:   5    -0.412476285126E+03   -0.97092E-04   -0.97026E-04  6480   0.151E-03-0.415E-05
CGA:   6    -0.412476308178E+03   -0.23052E-04   -0.26390E-04  6480   0.594E-04 0.481E-04
CGA:   7    -0.412476315507E+03   -0.73293E-05   -0.11410E-04  6480   0.311E-04 0.423E-04
   2 F= -.41247632E+03 E0= -.41247632E+03  d E =-.163634E+00  mag=    18.0000
       N       E                     dE             d eps       ncg     rms          ort
SDA:   1    -0.405117860905E+03    0.73584E+01    0.00000E+00  6480   0.388E+02 0.000E+00
CGA:   2    -0.414667322899E+03   -0.95495E+01   -0.95511E+01  6480   0.869E+01-0.208E+00
CGA:   3    -0.416985318508E+03   -0.23180E+01   -0.23196E+01  6480   0.279E+01-0.632E-01
CGA:   4    -0.417512854297E+03   -0.52754E+00   -0.52695E+00  6480   0.873E+00-0.131E-01
CGA:   5    -0.417692961539E+03   -0.18011E+00   -0.17998E+00  6480   0.282E+00-0.363E-02
CGA:   6    -0.417764946218E+03   -0.71985E-01   -0.71987E-01  6480   0.140E+00-0.284E-03
CGA:   7    -0.417801429992E+03   -0.36484E-01   -0.36474E-01  6480   0.582E-01 0.211E-03
CGA:   8    -0.417817143515E+03   -0.15714E-01   -0.15714E-01  6480   0.209E-01-0.264E-04
CGA:   9    -0.417822711404E+03   -0.55679E-02   -0.55730E-02  6480   0.704E-02-0.184E-03
CGA:  10    -0.417824940700E+03   -0.22293E-02   -0.22652E-02  6480   0.298E-02-0.431E-03
CGA:  11    -0.417825919443E+03   -0.97874E-03   -0.98473E-03  6480   0.133E-02-0.570E-04
CGA:  12    -0.417826361898E+03   -0.44245E-03   -0.43991E-03  6480   0.504E-03 0.286E-04
CGA:  13    -0.417826549005E+03   -0.18711E-03   -0.18929E-03  6480   0.200E-03-0.197E-04
CGA:  14    -0.417826611535E+03   -0.62530E-04   -0.61539E-04  6480   0.695E-04 0.165E-04
CGA:  15    -0.417826634507E+03   -0.22972E-04   -0.22571E-04  6480   0.276E-04 0.109E-04
CGA:  16    -0.417826647421E+03   -0.12914E-04   -0.13506E-04  6480   0.181E-04-0.378E-05
CGA:  17    -0.417826653253E+03   -0.58323E-05   -0.87420E-05  6480   0.217E-04-0.102E-04
   3 F= -.41782665E+03 E0= -.41782665E+03  d E =-.535034E+01  mag=    18.0000
       N       E                     dE             d eps       ncg     rms          ort
SDA:   1    -0.395708171877E+03    0.22118E+02    0.00000E+00  6480   0.842E+02 0.000E+00
CGA:   2    -0.415496117208E+03   -0.19788E+02   -0.19827E+02  6480   0.184E+02 0.303E-01
CGA:   3    -0.420009264342E+03   -0.45131E+01   -0.45108E+01  6480   0.677E+01-0.897E-01
CGA:   4    -0.421236648401E+03   -0.12274E+01   -0.12268E+01  6480   0.179E+01-0.208E-01
CGA:   5    -0.421605165995E+03   -0.36852E+00   -0.36799E+00  6480   0.567E+00-0.603E-02
CGA:   6    -0.421742494301E+03   -0.13733E+00   -0.13733E+00  6480   0.263E+00-0.309E-03
CGA:   7    -0.421812585043E+03   -0.70091E-01   -0.70093E-01  6480   0.112E+00 0.314E-03
CGA:   8    -0.421843284045E+03   -0.30699E-01   -0.30698E-01  6480   0.426E-01 0.611E-04
CGA:   9    -0.421854623249E+03   -0.11339E-01   -0.11340E-01  6480   0.141E-01 0.443E-03
CGA:  10    -0.421859186899E+03   -0.45636E-02   -0.45712E-02  6480   0.583E-02-0.152E-03
CGA:  11    -0.421861265064E+03   -0.20782E-02   -0.20757E-02  6480   0.304E-02 0.248E-04
CGA:  12    -0.421862356906E+03   -0.10918E-02   -0.10762E-02  6480   0.131E-02 0.200E-03
CGA:  13    -0.421862883599E+03   -0.52669E-03   -0.52862E-03  6480   0.560E-03-0.212E-04
CGA:  14    -0.421863056894E+03   -0.17329E-03   -0.17112E-03  6480   0.186E-03 0.829E-04
CGA:  15    -0.421863132776E+03   -0.75882E-04   -0.75290E-04  6480   0.798E-04 0.856E-05
CGA:  16    -0.421863168057E+03   -0.35281E-04   -0.35523E-04  6480   0.406E-04-0.184E-05
CGA:  17    -0.421863185754E+03   -0.17697E-04   -0.19063E-04  6480   0.224E-04-0.742E-05
CGA:  18    -0.421863148542E+03    0.37212E-04   -0.26682E-04  6480   0.215E-03-0.554E-04
CGA:  19    -0.421863190642E+03   -0.42100E-04   -0.44987E-04  6480   0.362E-04 0.188E-04
CGA:  20    -0.421863197118E+03   -0.64764E-05   -0.82122E-05  6480   0.778E-05 0.118E-04
   4 F= -.42186320E+03 E0= -.42186320E+03  d E =-.403654E+01  mag=    18.0000
       N       E                     dE             d eps       ncg     rms          ort
SDA:   1    -0.409579085834E+03    0.12284E+02    0.00000E+00  6480   0.462E+02 0.000E+00
CGA:   2    -0.419811621846E+03   -0.10233E+02   -0.10296E+02  6480   0.981E+01 0.117E+00
CGA:   3    -0.422187410973E+03   -0.23758E+01   -0.23733E+01  6480   0.379E+01-0.176E-01
CGA:   4    -0.422853913198E+03   -0.66650E+00   -0.66583E+00  6480   0.896E+00-0.715E-02
CGA:   5    -0.423031667715E+03   -0.17775E+00   -0.17780E+00  6480   0.262E+00 0.609E-03
CGA:   6    -0.423091176845E+03   -0.59509E-01   -0.59685E-01  6480   0.112E+00 0.167E-02
CGA:   7    -0.423122878381E+03   -0.31702E-01   -0.31716E-01  6480   0.567E-01 0.294E-03
CGA:   8    -0.423140045531E+03   -0.17167E-01   -0.17157E-01  6480   0.273E-01-0.611E-03
CGA:   9    -0.423147769889E+03   -0.77244E-02   -0.77223E-02  6480   0.103E-01-0.476E-04
CGA:  10    -0.423151018150E+03   -0.32483E-02   -0.32481E-02  6480   0.410E-02 0.675E-04
CGA:  11    -0.423152477582E+03   -0.14594E-02   -0.14598E-02  6480   0.206E-02-0.122E-04
CGA:  12    -0.423153225417E+03   -0.74783E-03   -0.74476E-03  6480   0.893E-03 0.662E-04
CGA:  13    -0.423153582055E+03   -0.35664E-03   -0.36455E-03  6480   0.381E-03-0.104E-03
CGA:  14    -0.423153693110E+03   -0.11106E-03   -0.11099E-03  6480   0.118E-03 0.107E-04
CGA:  15    -0.423153729159E+03   -0.36049E-04   -0.36455E-04  6480   0.397E-04 0.171E-04
CGA:  16    -0.423153748818E+03   -0.19659E-04   -0.20060E-04  6480   0.245E-04-0.340E-05
CGA:  17    -0.423153753024E+03   -0.42062E-05   -0.51949E-05  6480   0.123E-04 0.102E-04
   5 F= -.42315375E+03 E0= -.42315375E+03  d E =-.129056E+01  mag=    18.0000
       N       E                     dE             d eps       ncg     rms          ort
SDA:   1    -0.412591847532E+03    0.10562E+02    0.00000E+00  6480   0.374E+02 0.000E+00
CGA:   2    -0.420867753836E+03   -0.82759E+01   -0.83142E+01  6480   0.838E+01 0.915E-01
CGA:   3    -0.422931553844E+03   -0.20638E+01   -0.20623E+01  6480   0.316E+01-0.160E-01
CGA:   4    -0.423474416767E+03   -0.54286E+00   -0.54243E+00  6480   0.726E+00-0.545E-02
CGA:   5    -0.423617696319E+03   -0.14328E+00   -0.14349E+00  6480   0.207E+00 0.162E-02
CGA:   6    -0.423663900588E+03   -0.46204E-01   -0.46383E-01  6480   0.872E-01 0.244E-02
CGA:   7    -0.423688905320E+03   -0.25005E-01   -0.25014E-01  6480   0.463E-01 0.818E-03
CGA:   8    -0.423703642247E+03   -0.14737E-01   -0.14748E-01  6480   0.240E-01-0.486E-03
CGA:   9    -0.423710555583E+03   -0.69133E-02   -0.69132E-02  6480   0.929E-02-0.458E-04
CGA:  10    -0.423713396352E+03   -0.28408E-02   -0.28390E-02  6480   0.350E-02 0.143E-03
CGA:  11    -0.423714577462E+03   -0.11811E-02   -0.11778E-02  6480   0.157E-02 0.879E-04
CGA:  12    -0.423715164418E+03   -0.58696E-03   -0.58336E-03  6480   0.704E-03 0.546E-04
CGA:  13    -0.423715461899E+03   -0.29748E-03   -0.32092E-03  6480   0.391E-03-0.167E-03
CGA:  14    -0.423715561171E+03   -0.99272E-04   -0.99634E-04  6480   0.136E-03-0.136E-04
CGA:  15    -0.423715595171E+03   -0.34000E-04   -0.35010E-04  6480   0.489E-04 0.242E-04
CGA:  16    -0.423715613265E+03   -0.18095E-04   -0.18039E-04  6480   0.226E-04 0.829E-05
CGA:  17    -0.423715620876E+03   -0.76104E-05   -0.77288E-05  6480   0.106E-04 0.816E-05
   6 F= -.42371562E+03 E0= -.42371562E+03  d E =-.561868E+00  mag=    18.0000
       N       E                     dE             d eps       ncg     rms          ort
SDA:   1    -0.410945462216E+03    0.12770E+02    0.00000E+00  6480   0.426E+02 0.000E+00
CGA:   2    -0.420445708837E+03   -0.95002E+01   -0.95400E+01  6480   0.117E+02 0.104E+00
CGA:   3    -0.422991790222E+03   -0.25461E+01   -0.25464E+01  6480   0.445E+01 0.376E-02
CGA:   4    -0.423756494333E+03   -0.76470E+00   -0.76571E+00  6480   0.912E+00 0.172E-02
CGA:   5    -0.423935323922E+03   -0.17883E+00   -0.17894E+00  6480   0.266E+00 0.358E-03
CGA:   6    -0.423992995065E+03   -0.57671E-01   -0.57667E-01  6480   0.103E+00-0.107E-03
CGA:   7    -0.424022686536E+03   -0.29691E-01   -0.29691E-01  6480   0.577E-01 0.384E-04
CGA:   8    -0.424041202780E+03   -0.18516E-01   -0.18510E-01  6480   0.314E-01 0.135E-03
CGA:   9    -0.424050785230E+03   -0.95824E-02   -0.95797E-02  6480   0.127E-01 0.112E-03
CGA:  10    -0.424054656841E+03   -0.38716E-02   -0.38697E-02  6480   0.458E-02 0.914E-04
CGA:  11    -0.424056133402E+03   -0.14766E-02   -0.14755E-02  6480   0.188E-02 0.299E-04
CGA:  12    -0.424056810416E+03   -0.67701E-03   -0.67137E-03  6480   0.834E-03 0.827E-04
CGA:  13    -0.424057110682E+03   -0.30027E-03   -0.29606E-03  6480   0.314E-03 0.854E-04
CGA:  14    -0.424057227493E+03   -0.11681E-03   -0.11520E-03  6480   0.112E-03 0.409E-04
CGA:  15    -0.424057266626E+03   -0.39134E-04   -0.38811E-04  6480   0.414E-04 0.287E-04
CGA:  16    -0.424057285986E+03   -0.19359E-04   -0.18768E-04  6480   0.219E-04 0.912E-05
CGA:  17    -0.424057300276E+03   -0.14290E-04   -0.16541E-04  6480   0.226E-04-0.707E-05
CGA:  18    -0.424057303300E+03   -0.30239E-05   -0.33963E-05  6480   0.127E-04 0.397E-05
   7 F= -.42405730E+03 E0= -.42405730E+03  d E =-.341682E+00  mag=    18.0000
       N       E                     dE             d eps       ncg     rms          ort
SDA:   1    -0.401187605607E+03    0.22870E+02    0.00000E+00  6480   0.663E+02 0.000E+00
CGA:   2    -0.417637819116E+03   -0.16450E+02   -0.16483E+02  6480   0.234E+02 0.161E+00
CGA:   3    -0.422264914324E+03   -0.46271E+01   -0.46296E+01  6480   0.766E+01 0.449E-01
CGA:   4    -0.423610192583E+03   -0.13453E+01   -0.13481E+01  6480   0.151E+01 0.196E-01
CGA:   5    -0.423898305166E+03   -0.28811E+00   -0.28859E+00  6480   0.438E+00 0.402E-02
CGA:   6    -0.423994184134E+03   -0.95879E-01   -0.95877E-01  6480   0.158E+00-0.160E-03
CGA:   7    -0.424038500082E+03   -0.44316E-01   -0.44316E-01  6480   0.820E-01-0.744E-03
CGA:   8    -0.424063913977E+03   -0.25414E-01   -0.25407E-01  6480   0.429E-01 0.154E-03
CGA:   9    -0.424077487390E+03   -0.13573E-01   -0.13564E-01  6480   0.185E-01 0.253E-03
CGA:  10    -0.424083359107E+03   -0.58717E-02   -0.58705E-02  6480   0.735E-02 0.286E-04
CGA:  11    -0.424085826801E+03   -0.24677E-02   -0.24721E-02  6480   0.330E-02-0.931E-04
CGA:  12    -0.424087047367E+03   -0.12206E-02   -0.12258E-02  6480   0.154E-02-0.617E-04
CGA:  13    -0.424087568125E+03   -0.52076E-03   -0.51588E-03  6480   0.538E-03 0.101E-03
CGA:  14    -0.424087757512E+03   -0.18939E-03   -0.18809E-03  6480   0.171E-03 0.394E-04
CGA:  15    -0.424087824466E+03   -0.66954E-04   -0.66649E-04  6480   0.646E-04 0.451E-05
CGA:  16    -0.424087850577E+03   -0.26112E-04   -0.25620E-04  6480   0.281E-04 0.566E-05
CGA:  17    -0.424087866083E+03   -0.15506E-04   -0.19510E-04  6480   0.298E-04-0.120E-04
CGA:  18    -0.424087870009E+03   -0.39259E-05   -0.42041E-05  6480   0.177E-04 0.371E-05
   8 F= -.42408787E+03 E0= -.42408787E+03  d E =-.305667E-01  mag=    18.0000
       N       E                     dE             d eps       ncg     rms          ort
SDA:   1    -0.421225054764E+03    0.28628E+01    0.00000E+00  6480   0.836E+01 0.000E+00
CGA:   2    -0.423539120480E+03   -0.23141E+01   -0.23138E+01  6480   0.278E+01-0.822E-02
CGA:   3    -0.424111913426E+03   -0.57279E+00   -0.57289E+00  6480   0.935E+00-0.850E-03
CGA:   4    -0.424270054095E+03   -0.15814E+00   -0.15826E+00  6480   0.188E+00 0.856E-03
CGA:   5    -0.424306830658E+03   -0.36777E-01   -0.36822E-01  6480   0.577E-01 0.472E-03
CGA:   6    -0.424319276385E+03   -0.12446E-01   -0.12457E-01  6480   0.203E-01 0.151E-03
CGA:   7    -0.424324780025E+03   -0.55036E-02   -0.55009E-02  6480   0.919E-02-0.143E-03
CGA:   8    -0.424327428403E+03   -0.26484E-02   -0.26487E-02  6480   0.441E-02-0.166E-03
CGA:   9    -0.424328738127E+03   -0.13097E-02   -0.13096E-02  6480   0.180E-02 0.925E-05
CGA:  10    -0.424329310005E+03   -0.57188E-03   -0.57250E-03  6480   0.736E-03-0.220E-04
CGA:  11    -0.424329546608E+03   -0.23660E-03   -0.23574E-03  6480   0.325E-03 0.257E-04
CGA:  12    -0.424329653266E+03   -0.10666E-03   -0.10546E-03  6480   0.139E-03 0.564E-04
CGA:  13    -0.424329719020E+03   -0.65754E-04   -0.66834E-04  6480   0.801E-04-0.931E-05
CGA:  14    -0.424329744157E+03   -0.25137E-04   -0.25005E-04  6480   0.298E-04 0.370E-05
CGA:  15    -0.424329752177E+03   -0.80199E-05   -0.82561E-05  6480   0.100E-04 0.654E-05
   9 F= -.42432975E+03 E0= -.42432975E+03  d E =-.241882E+00  mag=    18.0000
       N       E                     dE             d eps       ncg     rms          ort
SDA:   1    -0.423411202689E+03    0.91854E+00    0.00000E+00  6480   0.300E+01 0.000E+00
CGA:   2    -0.424140240312E+03   -0.72904E+00   -0.72885E+00  6480   0.901E+00-0.672E-02
CGA:   3    -0.424329703228E+03   -0.18946E+00   -0.18958E+00  6480   0.327E+00 0.106E-02
CGA:   4    -0.424384957936E+03   -0.55255E-01   -0.55524E-01  6480   0.646E-01 0.198E-02
CGA:   5    -0.424397495151E+03   -0.12537E-01   -0.12529E-01  6480   0.191E-01-0.899E-04
CGA:   6    -0.424401834338E+03   -0.43392E-02   -0.42990E-02  6480   0.760E-02-0.705E-03
CGA:   7    -0.424403918930E+03   -0.20846E-02   -0.20859E-02  6480   0.404E-02-0.238E-03
CGA:   8    -0.424405054162E+03   -0.11352E-02   -0.11332E-02  6480   0.189E-02 0.202E-03
CGA:   9    -0.424405670789E+03   -0.61663E-03   -0.61468E-03  6480   0.805E-03 0.660E-04
CGA:  10    -0.424405952090E+03   -0.28130E-03   -0.28516E-03  6480   0.370E-03-0.635E-04
CGA:  11    -0.424406061018E+03   -0.10893E-03   -0.10910E-03  6480   0.150E-03-0.485E-05
CGA:  12    -0.424406114069E+03   -0.53052E-04   -0.53161E-04  6480   0.660E-04-0.156E-05
CGA:  13    -0.424406131771E+03   -0.17702E-04   -0.17925E-04  6480   0.209E-04 0.145E-04
CGA:  14    -0.424406135967E+03   -0.41957E-05   -0.51280E-05  6480   0.781E-05 0.105E-04
  10 F= -.42440614E+03 E0= -.42440614E+03  d E =-.763838E-01  mag=    18.0000
       N       E                     dE             d eps       ncg     rms          ort
SDA:   1    -0.420617679563E+03    0.37885E+01    0.00000E+00  6480   0.111E+02 0.000E+00
CGA:   2    -0.423297856899E+03   -0.26802E+01   -0.26810E+01  6480   0.466E+01 0.894E-03
CGA:   3    -0.424140161000E+03   -0.84230E+00   -0.84224E+00  6480   0.136E+01-0.109E-02
CGA:   4    -0.424387350513E+03   -0.24719E+00   -0.24749E+00  6480   0.292E+00 0.267E-02
CGA:   5    -0.424438826347E+03   -0.51476E-01   -0.51559E-01  6480   0.736E-01 0.644E-03
CGA:   6    -0.424455119642E+03   -0.16293E-01   -0.16240E-01  6480   0.249E-01-0.106E-02
CGA:   7    -0.424461415880E+03   -0.62962E-02   -0.62888E-02  6480   0.108E-01-0.613E-03
CGA:   8    -0.424464431325E+03   -0.30154E-02   -0.30089E-02  6480   0.502E-02 0.381E-03
CGA:   9    -0.424466052361E+03   -0.16210E-02   -0.16090E-02  6480   0.223E-02 0.294E-03
CGA:  10    -0.424466864327E+03   -0.81197E-03   -0.81994E-03  6480   0.114E-02-0.107E-03
CGA:  11    -0.424467222263E+03   -0.35794E-03   -0.35748E-03  6480   0.501E-03 0.758E-05
CGA:  12    -0.424467398837E+03   -0.17657E-03   -0.17529E-03  6480   0.222E-03 0.179E-04
CGA:  13    -0.424467471340E+03   -0.72503E-04   -0.71491E-04  6480   0.798E-04 0.346E-04
CGA:  14    -0.424467490316E+03   -0.18976E-04   -0.20873E-04  6480   0.270E-04 0.338E-04
CGA:  15    -0.424467498388E+03   -0.80721E-05   -0.87536E-05  6480   0.109E-04 0.131E-04
  11 F= -.42446750E+03 E0= -.42446750E+03  d E =-.613624E-01  mag=    18.0000
       N       E                     dE             d eps       ncg     rms          ort
SDA:   1    -0.419053699346E+03    0.54138E+01    0.00000E+00  6480   0.148E+02 0.000E+00
CGA:   2    -0.422769752004E+03   -0.37161E+01   -0.37175E+01  6480   0.720E+01 0.207E-01
CGA:   3    -0.424038259525E+03   -0.12685E+01   -0.12683E+01  6480   0.183E+01-0.503E-02
CGA:   4    -0.424369212635E+03   -0.33095E+00   -0.33053E+00  6480   0.404E+00-0.346E-02
CGA:   5    -0.424440453706E+03   -0.71241E-01   -0.71345E-01  6480   0.100E+00 0.958E-03
CGA:   6    -0.424462217093E+03   -0.21763E-01   -0.21799E-01  6480   0.319E-01 0.669E-03
CGA:   7    -0.424470160046E+03   -0.79430E-02   -0.79413E-02  6480   0.127E-01-0.113E-03
CGA:   8    -0.424473913246E+03   -0.37532E-02   -0.37524E-02  6480   0.608E-02 0.194E-04
CGA:   9    -0.424475796468E+03   -0.18832E-02   -0.18756E-02  6480   0.256E-02 0.174E-03
CGA:  10    -0.424476622571E+03   -0.82610E-03   -0.82265E-03  6480   0.108E-02 0.730E-04
CGA:  11    -0.424476984352E+03   -0.36178E-03   -0.35827E-03  6480   0.477E-03 0.644E-04
CGA:  12    -0.424477172608E+03   -0.18826E-03   -0.18614E-03  6480   0.249E-03 0.213E-04
CGA:  13    -0.424477264731E+03   -0.92123E-04   -0.90217E-04  6480   0.104E-03 0.267E-04
CGA:  14    -0.424477295808E+03   -0.31077E-04   -0.31300E-04  6480   0.329E-04 0.294E-04
CGA:  15    -0.424477309305E+03   -0.13497E-04   -0.13332E-04  6480   0.126E-04 0.453E-05
CGA:  16    -0.424477315105E+03   -0.57999E-05   -0.58715E-05  6480   0.659E-05-0.565E-06
  12 F= -.42447732E+03 E0= -.42447732E+03  d E =-.981672E-02  mag=    18.0000
       N       E                     dE             d eps       ncg     rms          ort
SDA:   1    -0.416152063511E+03    0.83252E+01    0.00000E+00  6480   0.233E+02 0.000E+00
CGA:   2    -0.421817005947E+03   -0.56649E+01   -0.56686E+01  6480   0.115E+02 0.502E-01
CGA:   3    -0.423861222051E+03   -0.20442E+01   -0.20443E+01  6480   0.285E+01-0.191E-02
CGA:   4    -0.424371357031E+03   -0.51013E+00   -0.50914E+00  6480   0.633E+00-0.847E-02
CGA:   5    -0.424483370026E+03   -0.11201E+00   -0.11205E+00  6480   0.156E+00-0.110E-04
CGA:   6    -0.424516805127E+03   -0.33435E-01   -0.33485E-01  6480   0.488E-01 0.951E-03
CGA:   7    -0.424528789194E+03   -0.11984E-01   -0.11984E-01  6480   0.186E-01-0.303E-04
CGA:   8    -0.424534320017E+03   -0.55308E-02   -0.55338E-02  6480   0.898E-02-0.838E-04
CGA:   9    -0.424537138609E+03   -0.28186E-02   -0.28161E-02  6480   0.382E-02 0.438E-04
CGA:  10    -0.424538346122E+03   -0.12075E-02   -0.12053E-02  6480   0.159E-02 0.421E-04
CGA:  11    -0.424538851791E+03   -0.50567E-03   -0.49990E-03  6480   0.658E-03 0.132E-03
CGA:  12    -0.424539107569E+03   -0.25578E-03   -0.25045E-03  6480   0.335E-03 0.646E-04
CGA:  13    -0.424539232380E+03   -0.12481E-03   -0.12106E-03  6480   0.143E-03 0.669E-04
CGA:  14    -0.424539276093E+03   -0.43712E-04   -0.44620E-04  6480   0.504E-04 0.558E-04
CGA:  15    -0.424539295252E+03   -0.19160E-04   -0.19186E-04  6480   0.197E-04 0.183E-04
CGA:  16    -0.424539304338E+03   -0.90859E-05   -0.88165E-05  6480   0.978E-05 0.512E-05
  13 F= -.42453930E+03 E0= -.42453930E+03  d E =-.619892E-01  mag=    18.0000
       N       E                     dE             d eps       ncg     rms          ort
SDA:   1    -0.419735197600E+03    0.48041E+01    0.00000E+00  6480   0.120E+02 0.000E+00
CGA:   2    -0.423207801984E+03   -0.34726E+01   -0.34721E+01  6480   0.588E+01 0.207E-01
CGA:   3    -0.424166072323E+03   -0.95827E+00   -0.95784E+00  6480   0.133E+01-0.381E-02
CGA:   4    -0.424406862915E+03   -0.24079E+00   -0.24043E+00  6480   0.308E+00-0.415E-02
CGA:   5    -0.424462191670E+03   -0.55329E-01   -0.55331E-01  6480   0.769E-01-0.128E-03
CGA:   6    -0.424478678955E+03   -0.16487E-01   -0.16492E-01  6480   0.241E-01 0.757E-04
CGA:   7    -0.424484529044E+03   -0.58501E-02   -0.58496E-02  6480   0.883E-02-0.428E-04
CGA:   8    -0.424487032140E+03   -0.25031E-02   -0.24971E-02  6480   0.384E-02 0.215E-03
CGA:   9    -0.424488264408E+03   -0.12323E-02   -0.12308E-02  6480   0.158E-02 0.242E-04
CGA:  10    -0.424488774326E+03   -0.50992E-03   -0.51429E-03  6480   0.660E-03-0.690E-04
CGA:  11    -0.424488954323E+03   -0.18000E-03   -0.17844E-03  6480   0.244E-03 0.777E-04
CGA:  12    -0.424489050859E+03   -0.96536E-04   -0.94555E-04  6480   0.135E-03 0.236E-04
CGA:  13    -0.424489099154E+03   -0.48295E-04   -0.46642E-04  6480   0.645E-04 0.352E-04
CGA:  14    -0.424489112565E+03   -0.13410E-04   -0.16221E-04  6480   0.276E-04 0.397E-04
CGA:  15    -0.424489120395E+03   -0.78307E-05   -0.77017E-05  6480   0.105E-04 0.104E-04
  14 F= -.42448912E+03 E0= -.42448912E+03  d E =0.501839E-01  mag=    18.0000
       N       E                     dE             d eps       ncg     rms          ort
SDA:   1    -0.422226132489E+03    0.22630E+01    0.00000E+00  6480   0.619E+01 0.000E+00
CGA:   2    -0.423861220554E+03   -0.16351E+01   -0.16351E+01  6480   0.316E+01-0.460E-02
CGA:   3    -0.424394881159E+03   -0.53366E+00   -0.53431E+00  6480   0.738E+00 0.508E-02
CGA:   4    -0.424529086608E+03   -0.13421E+00   -0.13430E+00  6480   0.173E+00 0.968E-03
CGA:   5    -0.424560018104E+03   -0.30931E-01   -0.30952E-01  6480   0.426E-01 0.240E-03
CGA:   6    -0.424569047160E+03   -0.90291E-02   -0.90663E-02  6480   0.133E-01 0.907E-03
CGA:   7    -0.424572266926E+03   -0.32198E-02   -0.32258E-02  6480   0.473E-02 0.453E-03
CGA:   8    -0.424573724147E+03   -0.14572E-02   -0.14646E-02  6480   0.228E-02-0.149E-03
CGA:   9    -0.424574408293E+03   -0.68415E-03   -0.68896E-03  6480   0.938E-03-0.810E-04
CGA:  10    -0.424574668818E+03   -0.26052E-03   -0.25974E-03  6480   0.339E-03 0.245E-04
CGA:  11    -0.424574786261E+03   -0.11744E-03   -0.11846E-03  6480   0.165E-03-0.123E-04
CGA:  12    -0.424574849511E+03   -0.63249E-04   -0.66067E-04  6480   0.104E-03-0.183E-04
CGA:  13    -0.424574508289E+03    0.34122E-03   -0.18581E-03  6480   0.166E-02-0.356E-03
CGA:  14    -0.424574858390E+03   -0.35010E-03   -0.37175E-03  6480   0.175E-03 0.808E-04
CGA:  15    -0.424574923318E+03   -0.64927E-04   -0.65542E-04  6480   0.662E-04 0.510E-05
CGA:  16    -0.424574939880E+03   -0.16563E-04   -0.20638E-04  6480   0.278E-04 0.241E-04
CGA:  17    -0.424574948467E+03   -0.85871E-05   -0.11068E-04  6480   0.131E-04 0.145E-04
  15 F= -.42457495E+03 E0= -.42457495E+03  d E =-.858281E-01  mag=    18.0000
       N       E                     dE             d eps       ncg     rms          ort
SDA:   1    -0.424389794405E+03    0.18515E+00    0.00000E+00  6480   0.479E+00 0.000E+00
CGA:   2    -0.424538399296E+03   -0.14860E+00   -0.14877E+00  6480   0.196E+00 0.974E-03
CGA:   3    -0.424571107324E+03   -0.32708E-01   -0.32436E-01  6480   0.505E-01-0.995E-03
CGA:   4    -0.424580140176E+03   -0.90329E-02   -0.88996E-02  6480   0.106E-01-0.523E-03
CGA:   5    -0.424581977392E+03   -0.18372E-02   -0.18639E-02  6480   0.265E-02 0.106E-03
CGA:   6    -0.424582475133E+03   -0.49774E-03   -0.53282E-03  6480   0.720E-03 0.165E-03
CGA:   7    -0.424582659051E+03   -0.18392E-03   -0.18776E-03  6480   0.287E-03 0.246E-04
CGA:   8    -0.424582766992E+03   -0.10794E-03   -0.10624E-03  6480   0.204E-03-0.487E-04
CGA:   9    -0.424582818624E+03   -0.51632E-04   -0.50711E-04  6480   0.866E-04-0.101E-04
CGA:  10    -0.424582838574E+03   -0.19951E-04   -0.20977E-04  6480   0.310E-04 0.775E-05
CGA:  11    -0.424582844904E+03   -0.63297E-05   -0.76649E-05  6480   0.126E-04 0.870E-05
  16 F= -.42458284E+03 E0= -.42458284E+03  d E =-.789644E-02  mag=    18.0000
       N       E                     dE             d eps       ncg     rms          ort
SDA:   1    -0.417567184818E+03    0.70157E+01    0.00000E+00  6480   0.172E+02 0.000E+00
CGA:   2    -0.423021894989E+03   -0.54547E+01   -0.54560E+01  6480   0.712E+01 0.793E-02
CGA:   3    -0.424172436298E+03   -0.11505E+01   -0.11511E+01  6480   0.172E+01 0.476E-02
CGA:   4    -0.424478202298E+03   -0.30577E+00   -0.30552E+00  6480   0.368E+00-0.856E-03
CGA:   5    -0.424545536785E+03   -0.67334E-01   -0.67427E-01  6480   0.978E-01 0.496E-03
CGA:   6    -0.424566194255E+03   -0.20657E-01   -0.20753E-01  6480   0.287E-01 0.728E-03
CGA:   7    -0.424573235483E+03   -0.70412E-02   -0.70570E-02  6480   0.111E-01 0.177E-03
CGA:   8    -0.424576616552E+03   -0.33811E-02   -0.33808E-02  6480   0.539E-02-0.134E-04
CGA:   9    -0.424578307911E+03   -0.16914E-02   -0.16912E-02  6480   0.221E-02-0.240E-04
CGA:  10    -0.424578995360E+03   -0.68745E-03   -0.68692E-03  6480   0.833E-03-0.512E-04
CGA:  11    -0.424579235215E+03   -0.23985E-03   -0.24152E-03  6480   0.323E-03 0.650E-04
CGA:  12    -0.424579362059E+03   -0.12684E-03   -0.12575E-03  6480   0.176E-03 0.268E-04
CGA:  13    -0.424579454323E+03   -0.92263E-04   -0.10608E-03  6480   0.175E-03-0.595E-04
CGA:  14    -0.424579477347E+03   -0.23024E-04   -0.25427E-04  6480   0.801E-04 0.208E-04
CGA:  15    -0.424579490571E+03   -0.13224E-04   -0.15929E-04  6480   0.265E-04 0.178E-04
CGA:  16    -0.424579500698E+03   -0.10127E-04   -0.10063E-04  6480   0.146E-04-0.622E-05
CGA:  17    -0.424579503389E+03   -0.26910E-05   -0.27159E-05  6480   0.882E-05 0.320E-06
  17 F= -.42457950E+03 E0= -.42457950E+03  d E =0.334151E-02  mag=    18.0000
       N       E                     dE             d eps       ncg     rms          ort
SDA:   1    -0.410890438725E+03    0.13689E+02    0.00000E+00  6480   0.336E+02 0.000E+00
CGA:   2    -0.421418242201E+03   -0.10528E+02   -0.10528E+02  6480   0.140E+02 0.775E-02
CGA:   3    -0.423737915158E+03   -0.23197E+01   -0.23209E+01  6480   0.341E+01 0.179E-01
CGA:   4    -0.424346692749E+03   -0.60878E+00   -0.60905E+00  6480   0.745E+00-0.128E-02
CGA:   5    -0.424482713607E+03   -0.13602E+00   -0.13606E+00  6480   0.203E+00-0.598E-04
CGA:   6    -0.424526748522E+03   -0.44035E-01   -0.44105E-01  6480   0.629E-01 0.874E-03
CGA:   7    -0.424542151538E+03   -0.15403E-01   -0.15420E-01  6480   0.244E-01 0.381E-03
CGA:   8    -0.424549404543E+03   -0.72530E-02   -0.72528E-02  6480   0.111E-01 0.651E-05
CGA:   9    -0.424552845728E+03   -0.34412E-02   -0.34462E-02  6480   0.439E-02-0.203E-03
CGA:  10    -0.424554184460E+03   -0.13387E-02   -0.13435E-02  6480   0.161E-02-0.183E-03
CGA:  11    -0.424554629673E+03   -0.44521E-03   -0.44498E-03  6480   0.586E-03 0.125E-03
CGA:  12    -0.424554842359E+03   -0.21269E-03   -0.20881E-03  6480   0.294E-03 0.880E-04
CGA:  13    -0.424554995561E+03   -0.15320E-03   -0.15874E-03  6480   0.231E-03-0.314E-04
CGA:  14    -0.424555050417E+03   -0.54855E-04   -0.56012E-04  6480   0.910E-04 0.431E-04
CGA:  15    -0.424555073964E+03   -0.23548E-04   -0.24997E-04  6480   0.313E-04 0.223E-04
CGA:  16    -0.424555088862E+03   -0.14898E-04   -0.18758E-04  6480   0.300E-04-0.205E-04
CGA:  17    -0.424555091479E+03   -0.26174E-05   -0.46951E-05  6480   0.774E-05 0.142E-04
  18 F= -.42455509E+03 E0= -.42455509E+03  d E =0.244119E-01  mag=    18.0000
       N       E                     dE             d eps       ncg     rms          ort
SDA:   1    -0.422503358562E+03    0.20517E+01    0.00000E+00  6480   0.540E+01 0.000E+00
CGA:   2    -0.424115276029E+03   -0.16119E+01   -0.16119E+01  6480   0.207E+01-0.412E-02
CGA:   3    -0.424489570580E+03   -0.37429E+00   -0.37470E+00  6480   0.609E+00 0.335E-02
CGA:   4    -0.424598565053E+03   -0.10899E+00   -0.10932E+00  6480   0.127E+00 0.326E-02
CGA:   5    -0.424622637688E+03   -0.24073E-01   -0.24062E-01  6480   0.360E-01-0.140E-03
CGA:   6    -0.424630716332E+03   -0.80786E-02   -0.80364E-02  6480   0.126E-01-0.866E-03
CGA:   7    -0.424633754863E+03   -0.30385E-02   -0.30387E-02  6480   0.473E-02 0.800E-05
CGA:   8    -0.424634965832E+03   -0.12110E-02   -0.12156E-02  6480   0.181E-02 0.371E-03
CGA:   9    -0.424635547872E+03   -0.58204E-03   -0.57922E-03  6480   0.704E-03 0.974E-04
CGA:  10    -0.424635789523E+03   -0.24165E-03   -0.24369E-03  6480   0.320E-03-0.354E-04
CGA:  11    -0.424635901898E+03   -0.11237E-03   -0.12439E-03  6480   0.220E-03-0.889E-04
CGA:  12    -0.424635962389E+03   -0.60491E-04   -0.69114E-04  6480   0.139E-03-0.563E-04
CGA:  13    -0.424635983505E+03   -0.21116E-04   -0.23244E-04  6480   0.591E-04 0.334E-04
CGA:  14    -0.424635995686E+03   -0.12181E-04   -0.14253E-04  6480   0.227E-04 0.230E-04
CGA:  15    -0.424636006048E+03   -0.10363E-04   -0.10307E-04  6480   0.128E-04 0.118E-05
CGA:  16    -0.424636010480E+03   -0.44314E-05   -0.44867E-05  6480   0.669E-05-0.107E-05
CGA:  17    -0.424636014063E+03   -0.35830E-05    0.32820E-04  6480   0.302E-05-0.141E-06
  19 F= -.42463601E+03 E0= -.42463601E+03  d E =-.809226E-01  mag=    18.0000
       N       E                     dE             d eps       ncg     rms          ort
SDA:   1    -0.423856174259E+03    0.77984E+00    0.00000E+00  6480   0.201E+01 0.000E+00
CGA:   2    -0.424449427666E+03   -0.59325E+00   -0.59322E+00  6480   0.884E+00 0.241E-02
CGA:   3    -0.424601071949E+03   -0.15164E+00   -0.15161E+00  6480   0.216E+00-0.681E-03
CGA:   4    -0.424639582255E+03   -0.38510E-01   -0.38464E-01  6480   0.473E-01-0.462E-03
CGA:   5    -0.424648179357E+03   -0.85971E-02   -0.85949E-02  6480   0.126E-01-0.384E-04
CGA:   6    -0.424650896793E+03   -0.27174E-02   -0.27110E-02  6480   0.380E-02-0.121E-03
CGA:   7    -0.424651843144E+03   -0.94635E-03   -0.94430E-03  6480   0.153E-02-0.126E-03
CGA:   8    -0.424652281351E+03   -0.43821E-03   -0.44062E-03  6480   0.699E-03-0.782E-04
CGA:   9    -0.424652478006E+03   -0.19666E-03   -0.19654E-03  6480   0.258E-03 0.410E-05
CGA:  10    -0.424652555955E+03   -0.77948E-04   -0.77740E-04  6480   0.920E-04 0.679E-05
CGA:  11    -0.424652591049E+03   -0.35094E-04   -0.51278E-04  6480   0.126E-03-0.595E-04
CGA:  12    -0.424652613965E+03   -0.22917E-04   -0.24470E-04  6480   0.174E-04 0.171E-04
CGA:  13    -0.424652619797E+03   -0.58318E-05   -0.57680E-05  6480   0.800E-05 0.506E-05
  20 F= -.42465262E+03 E0= -.42465262E+03  d E =-.166057E-01  mag=    18.0000
       N       E                     dE             d eps       ncg     rms          ort
SDA:   1    -0.424588591875E+03    0.64022E-01    0.00000E+00  6480   0.173E+00 0.000E+00
CGA:   2    -0.424633802159E+03   -0.45210E-01   -0.45166E-01  6480   0.864E-01-0.113E-02
CGA:   3    -0.424648348131E+03   -0.14546E-01   -0.14631E-01  6480   0.207E-01 0.632E-03
CGA:   4    -0.424651992765E+03   -0.36446E-02   -0.36977E-02  6480   0.448E-02 0.452E-03
CGA:   5    -0.424652844799E+03   -0.85203E-03   -0.84516E-03  6480   0.116E-02-0.680E-04
CGA:   6    -0.424653134507E+03   -0.28971E-03   -0.28384E-03  6480   0.494E-03-0.177E-03
CGA:   7    -0.424653228589E+03   -0.94082E-04   -0.93298E-04  6480   0.169E-03-0.137E-04
CGA:   8    -0.424653259828E+03   -0.31240E-04   -0.34076E-04  6480   0.595E-04 0.401E-04
CGA:   9    -0.424653277437E+03   -0.17608E-04   -0.18020E-04  6480   0.297E-04 0.139E-04
CGA:  10    -0.424653281527E+03   -0.40907E-05   -0.27034E-04  6480   0.127E-03-0.492E-04
CGA:  11    -0.424653304963E+03   -0.23436E-04   -0.23984E-04  6480   0.172E-04 0.510E-05
CGA:  12    -0.424653301450E+03    0.35130E-05   -0.15221E-04  6480   0.821E-04-0.334E-04
CGA:  13    -0.424653314972E+03   -0.13522E-04   -0.15133E-04  6480   0.894E-05 0.119E-04
CGA:  14    -0.424653316439E+03   -0.14673E-05   -0.19208E-05  6480   0.181E-05 0.364E-05
  21 F= -.42465332E+03 E0= -.42465332E+03  d E =-.696642E-03  mag=    18.0000
       N       E                     dE             d eps       ncg     rms          ort
SDA:   1    -0.423592667861E+03    0.10606E+01    0.00000E+00  6480   0.278E+01 0.000E+00
CGA:   2    -0.424337428196E+03   -0.74476E+00   -0.74477E+00  6480   0.143E+01-0.140E-02
CGA:   3    -0.424584445161E+03   -0.24702E+00   -0.24699E+00  6480   0.308E+00 0.200E-03
CGA:   4    -0.424639684431E+03   -0.55239E-01   -0.55270E-01  6480   0.683E-01 0.206E-03
CGA:   5    -0.424652019999E+03   -0.12336E-01   -0.12316E-01  6480   0.164E-01-0.213E-03
CGA:   6    -0.424655569223E+03   -0.35492E-02   -0.35306E-02  6480   0.496E-02-0.292E-03
CGA:   7    -0.424656692558E+03   -0.11233E-02   -0.11234E-02  6480   0.166E-02 0.219E-06
CGA:   8    -0.424657139893E+03   -0.44733E-03   -0.44771E-03  6480   0.668E-03 0.781E-04
CGA:   9    -0.424657375640E+03   -0.23575E-03   -0.23878E-03  6480   0.331E-03-0.453E-04
CGA:  10    -0.424657487638E+03   -0.11200E-03   -0.12893E-03  6480   0.231E-03-0.121E-03
CGA:  11    -0.424657531336E+03   -0.43698E-04   -0.44203E-04  6480   0.950E-04-0.297E-04
CGA:  12    -0.424657551021E+03   -0.19685E-04   -0.20262E-04  6480   0.412E-04 0.142E-04
CGA:  13    -0.424657562328E+03   -0.11306E-04   -0.11721E-04  6480   0.202E-04 0.115E-04
CGA:  14    -0.424657570484E+03   -0.81557E-05   -0.80301E-05  6480   0.104E-04 0.426E-05
  22 F= -.42465757E+03 E0= -.42465757E+03  d E =-.425404E-02  mag=    18.0000
       N       E                     dE             d eps       ncg     rms          ort
SDA:   1    -0.406417792579E+03    0.18240E+02    0.00000E+00  6480   0.464E+02 0.000E+00
CGA:   2    -0.419637179830E+03   -0.13219E+02   -0.13220E+02  6480   0.227E+02 0.775E-01
CGA:   3    -0.423463087092E+03   -0.38259E+01   -0.38286E+01  6480   0.475E+01 0.505E-01
CGA:   4    -0.424328835926E+03   -0.86575E+00   -0.86577E+00  6480   0.109E+01-0.118E-02
CGA:   5    -0.424526835139E+03   -0.19800E+00   -0.19813E+00  6480   0.274E+00 0.312E-03
CGA:   6    -0.424585865434E+03   -0.59030E-01   -0.59070E-01  6480   0.830E-01 0.582E-03
CGA:   7    -0.424605724599E+03   -0.19859E-01   -0.19869E-01  6480   0.300E-01 0.306E-03
CGA:   8    -0.424614437046E+03   -0.87124E-02   -0.87109E-02  6480   0.131E-01 0.594E-04
CGA:   9    -0.424618551808E+03   -0.41148E-02   -0.41301E-02  6480   0.514E-02-0.342E-03
CGA:  10    -0.424620118649E+03   -0.15668E-02   -0.15836E-02  6480   0.188E-02-0.367E-03
CGA:  11    -0.424620646747E+03   -0.52810E-03   -0.52766E-03  6480   0.658E-03 0.134E-04
CGA:  12    -0.424620885334E+03   -0.23859E-03   -0.23738E-03  6480   0.330E-03 0.138E-04
CGA:  13    -0.424621042216E+03   -0.15688E-03   -0.17608E-03  6480   0.282E-03-0.793E-04
CGA:  14    -0.424621115399E+03   -0.73183E-04   -0.73713E-04  6480   0.116E-03-0.102E-04
CGA:  15    -0.424621153527E+03   -0.38128E-04   -0.39341E-04  6480   0.483E-04-0.211E-04
CGA:  16    -0.424621160909E+03   -0.73824E-05   -0.27491E-04  6480   0.826E-04-0.505E-04
CGA:  17    -0.424621175224E+03   -0.14315E-04   -0.16918E-04  6480   0.134E-04 0.234E-04
CGA:  18    -0.424621178615E+03   -0.33910E-05   -0.38871E-05  6480   0.479E-05 0.587E-05
  23 F= -.42462118E+03 E0= -.42462118E+03  d E =0.363919E-01  mag=    18.0000
       N       E                     dE             d eps       ncg     rms          ort
SDA:   1    -0.422904428101E+03    0.17167E+01    0.00000E+00  6480   0.498E+01 0.000E+00
CGA:   2    -0.424059634799E+03   -0.11552E+01   -0.11558E+01  6480   0.243E+01 0.490E-02
CGA:   3    -0.424509146319E+03   -0.44951E+00   -0.44991E+00  6480   0.627E+00 0.222E-02
CGA:   4    -0.424623635537E+03   -0.11449E+00   -0.11443E+00  6480   0.158E+00-0.515E-03
CGA:   5    -0.424652067176E+03   -0.28432E-01   -0.28407E-01  6480   0.385E-01-0.246E-03
CGA:   6    -0.424660143853E+03   -0.80767E-02   -0.80886E-02  6480   0.120E-01 0.149E-03
CGA:   7    -0.424662985481E+03   -0.28416E-02   -0.28496E-02  6480   0.414E-02 0.172E-03
CGA:   8    -0.424664082739E+03   -0.10973E-02   -0.11002E-02  6480   0.157E-02 0.166E-03
CGA:   9    -0.424664538496E+03   -0.45576E-03   -0.45559E-03  6480   0.570E-03 0.123E-03
CGA:  10    -0.424664722937E+03   -0.18444E-03   -0.18381E-03  6480   0.233E-03 0.303E-04
CGA:  11    -0.424664804378E+03   -0.81440E-04   -0.81109E-04  6480   0.106E-03 0.625E-05
CGA:  12    -0.424664838093E+03   -0.33716E-04   -0.33289E-04  6480   0.465E-04 0.184E-04
CGA:  13    -0.424664856053E+03   -0.17960E-04   -0.17585E-04  6480   0.227E-04 0.952E-05
CGA:  14    -0.424664863534E+03   -0.74809E-05   -0.75577E-05  6480   0.954E-05 0.840E-05
  24 F= -.42466486E+03 E0= -.42466486E+03  d E =-.436849E-01  mag=    18.0000
       N       E                     dE             d eps       ncg     rms          ort
SDA:   1    -0.422767505839E+03    0.18974E+01    0.00000E+00  6480   0.485E+01 0.000E+00
CGA:   2    -0.424133473317E+03   -0.13660E+01   -0.13660E+01  6480   0.249E+01-0.397E-03
CGA:   3    -0.424549068564E+03   -0.41560E+00   -0.41589E+00  6480   0.527E+00 0.206E-02
CGA:   4    -0.424642825859E+03   -0.93757E-01   -0.93832E-01  6480   0.120E+00 0.763E-03
CGA:   5    -0.424664318103E+03   -0.21492E-01   -0.21533E-01  6480   0.293E-01 0.412E-03
CGA:   6    -0.424670501333E+03   -0.61832E-02   -0.61931E-02  6480   0.855E-02 0.171E-03
CGA:   7    -0.424672571330E+03   -0.20700E-02   -0.20673E-02  6480   0.308E-02-0.120E-03
CGA:   8    -0.424673452389E+03   -0.88106E-03   -0.88340E-03  6480   0.137E-02-0.812E-04
CGA:   9    -0.424673852230E+03   -0.39984E-03   -0.39923E-03  6480   0.511E-03 0.163E-04
CGA:  10    -0.424673998292E+03   -0.14606E-03   -0.14541E-03  6480   0.168E-03 0.401E-04
CGA:  11    -0.424674055297E+03   -0.57005E-04   -0.56568E-04  6480   0.696E-04 0.935E-05
CGA:  12    -0.424674083026E+03   -0.27729E-04   -0.48599E-04  6480   0.130E-03-0.532E-04
CGA:  13    -0.424674106804E+03   -0.23778E-04   -0.25774E-04  6480   0.176E-04 0.222E-04
CGA:  14    -0.424674113992E+03   -0.71875E-05   -0.71442E-05  6480   0.730E-05 0.679E-06
CGA:  15    -0.424674118435E+03   -0.44435E-05    0.50399E-04  6480   0.350E-05 0.230E-05
  25 F= -.42467412E+03 E0= -.42467412E+03  d E =-.925490E-02  mag=    18.0000
       N       E                     dE             d eps       ncg     rms          ort
SDA:   1    -0.424423981430E+03    0.25013E+00    0.00000E+00  6480   0.642E+00 0.000E+00
CGA:   2    -0.424607872547E+03   -0.18389E+00   -0.18396E+00  6480   0.293E+00 0.169E-03
CGA:   3    -0.424658189457E+03   -0.50317E-01   -0.50320E-01  6480   0.697E-01-0.133E-03
CGA:   4    -0.424670942008E+03   -0.12753E-01   -0.12765E-01  6480   0.151E-01 0.448E-04
CGA:   5    -0.424673614628E+03   -0.26726E-02   -0.27348E-02  6480   0.370E-02 0.206E-03
CGA:   6    -0.424674362017E+03   -0.74739E-03   -0.78174E-03  6480   0.108E-02 0.134E-03
CGA:   7    -0.424674651076E+03   -0.28906E-03   -0.28514E-03  6480   0.433E-03-0.201E-04
CGA:   8    -0.424674786345E+03   -0.13527E-03   -0.13088E-03  6480   0.217E-03-0.330E-04
CGA:   9    -0.424674832596E+03   -0.46251E-04   -0.50766E-04  6480   0.699E-04 0.248E-04
CGA:  10    -0.424674844188E+03   -0.11592E-04   -0.16554E-04  6480   0.242E-04 0.233E-04
CGA:  11    -0.424674849601E+03   -0.54130E-05   -0.72584E-05  6480   0.110E-04 0.968E-05
  26 F= -.42467485E+03 E0= -.42467485E+03  d E =-.731166E-03  mag=    18.0000
       N       E                     dE             d eps       ncg     rms          ort
SDA:   1    -0.424622565745E+03    0.52278E-01    0.00000E+00  6480   0.144E+00 0.000E+00
CGA:   2    -0.424659795530E+03   -0.37230E-01   -0.37277E-01  6480   0.736E-01 0.283E-03
CGA:   3    -0.424672726219E+03   -0.12931E-01   -0.12967E-01  6480   0.178E-01 0.144E-03
CGA:   4    -0.424675828265E+03   -0.31020E-02   -0.31057E-02  6480   0.394E-02 0.145E-04
CGA:   5    -0.424676532520E+03   -0.70426E-03   -0.70526E-03  6480   0.983E-03 0.428E-05
CGA:   6    -0.424676736932E+03   -0.20441E-03   -0.20640E-03  6480   0.292E-03 0.126E-04
CGA:   7    -0.424676809204E+03   -0.72271E-04   -0.72012E-04  6480   0.109E-03-0.236E-05
CGA:   8    -0.424676841202E+03   -0.31999E-04   -0.31844E-04  6480   0.513E-04-0.270E-05
CGA:   9    -0.424676852244E+03   -0.11041E-04   -0.12175E-04  6480   0.179E-04 0.108E-04
CGA:  10    -0.424676856911E+03   -0.46675E-05   -0.52242E-05  6480   0.740E-05 0.548E-05
  27 F= -.42467686E+03 E0= -.42467686E+03  d E =-.200731E-02  mag=    18.0000
       N       E                     dE             d eps       ncg     rms          ort
SDA:   1    -0.424494009457E+03    0.18284E+00    0.00000E+00  6480   0.465E+00 0.000E+00
CGA:   2    -0.424626745677E+03   -0.13274E+00   -0.13276E+00  6480   0.241E+00 0.195E-03
CGA:   3    -0.424666738963E+03   -0.39993E-01   -0.40022E-01  6480   0.512E-01 0.948E-04
CGA:   4    -0.424675664667E+03   -0.89257E-02   -0.89283E-02  6480   0.114E-01 0.382E-05
CGA:   5    -0.424677726075E+03   -0.20614E-02   -0.20588E-02  6480   0.279E-02-0.201E-04
CGA:   6    -0.424678314934E+03   -0.58886E-03   -0.58926E-03  6480   0.793E-03 0.294E-05
CGA:   7    -0.424678500904E+03   -0.18597E-03   -0.18624E-03  6480   0.275E-03 0.322E-05
CGA:   8    -0.424678581567E+03   -0.80663E-04   -0.80635E-04  6480   0.125E-03-0.151E-05
CGA:   9    -0.424678618526E+03   -0.36960E-04   -0.37050E-04  6480   0.488E-04 0.768E-05
CGA:  10    -0.424678636380E+03   -0.17853E-04   -0.18003E-04  6480   0.231E-04-0.397E-05
CGA:  11    -0.424678644718E+03   -0.83388E-05   -0.95532E-05  6480   0.181E-04-0.881E-05
  28 F= -.42467864E+03 E0= -.42467864E+03  d E =-.178781E-02  mag=    18.0000
       N       E                     dE             d eps       ncg     rms          ort
SDA:   1    -0.406961520577E+03    0.17717E+02    0.00000E+00  6480   0.451E+02 0.000E+00
CGA:   2    -0.419480810642E+03   -0.12519E+02   -0.12525E+02  6480   0.238E+02 0.605E-01
CGA:   3    -0.423466336103E+03   -0.39855E+01   -0.39957E+01  6480   0.496E+01 0.805E-01
CGA:   4    -0.424337716572E+03   -0.87138E+00   -0.87134E+00  6480   0.113E+01 0.362E-02
CGA:   5    -0.424543945358E+03   -0.20623E+00   -0.20643E+00  6480   0.289E+00 0.862E-03
CGA:   6    -0.424605438922E+03   -0.61494E-01   -0.61592E-01  6480   0.867E-01 0.106E-02
CGA:   7    -0.424626261350E+03   -0.20822E-01   -0.20837E-01  6480   0.314E-01 0.276E-03
CGA:   8    -0.424635469636E+03   -0.92083E-02   -0.92064E-02  6480   0.141E-01 0.235E-03
CGA:   9    -0.424639822066E+03   -0.43524E-02   -0.43484E-02  6480   0.558E-02 0.192E-03
CGA:  10    -0.424641595507E+03   -0.17734E-02   -0.17778E-02  6480   0.217E-02-0.159E-03
CGA:  11    -0.424642282741E+03   -0.68723E-03   -0.68976E-03  6480   0.899E-03-0.653E-04
CGA:  12    -0.424642611321E+03   -0.32858E-03   -0.32955E-03  6480   0.466E-03-0.120E-04
CGA:  13    -0.424642825635E+03   -0.21431E-03   -0.24167E-03  6480   0.370E-03-0.119E-03
CGA:  14    -0.424642919325E+03   -0.93689E-04   -0.94129E-04  6480   0.138E-03-0.126E-04
CGA:  15    -0.424642963252E+03   -0.43928E-04   -0.44302E-04  6480   0.476E-04-0.157E-04
CGA:  16    -0.424642979707E+03   -0.16454E-04   -0.21097E-04  6480   0.353E-04-0.244E-04
CGA:  17    -0.424642985229E+03   -0.55229E-05   -0.70508E-05  6480   0.765E-05 0.129E-04
  29 F= -.42464299E+03 E0= -.42464299E+03  d E =0.356595E-01  mag=    18.0000
       N       E                     dE             d eps       ncg     rms          ort
SDA:   1    -0.423240348266E+03    0.14026E+01    0.00000E+00  6480   0.375E+01 0.000E+00
CGA:   2    -0.424192697879E+03   -0.95235E+00   -0.95283E+00  6480   0.192E+01 0.480E-02
CGA:   3    -0.424526214700E+03   -0.33352E+00   -0.33308E+00  6480   0.476E+00-0.291E-02
CGA:   4    -0.424612442570E+03   -0.86228E-01   -0.85877E-01  6480   0.112E+00-0.281E-02
CGA:   5    -0.424632436070E+03   -0.19994E-01   -0.20006E-01  6480   0.278E-01 0.553E-04
CGA:   6    -0.424638219489E+03   -0.57834E-02   -0.58446E-02  6480   0.830E-02 0.682E-03
CGA:   7    -0.424640313400E+03   -0.20939E-02   -0.20939E-02  6480   0.307E-02-0.126E-05
CGA:   8    -0.424641278520E+03   -0.96512E-03   -0.97524E-03  6480   0.156E-02-0.398E-03
CGA:   9    -0.424641685389E+03   -0.40687E-03   -0.40748E-03  6480   0.582E-03-0.934E-04
CGA:  10    -0.424641831471E+03   -0.14608E-03   -0.14704E-03  6480   0.191E-03 0.383E-04
CGA:  11    -0.424641887345E+03   -0.55874E-04   -0.56296E-04  6480   0.766E-04 0.274E-04
CGA:  12    -0.424641912050E+03   -0.24705E-04   -0.24865E-04  6480   0.378E-04 0.206E-04
CGA:  13    -0.424641931783E+03   -0.19732E-04   -0.19939E-04  6480   0.300E-04-0.172E-05
CGA:  14    -0.424641942822E+03   -0.11039E-04   -0.16678E-04  6480   0.323E-04-0.199E-04
CGA:  15    -0.424641945844E+03   -0.30220E-05   -0.51772E-05  6480   0.835E-05 0.142E-04
  30 F= -.42464195E+03 E0= -.42464195E+03  d E =0.103939E-02  mag=    18.0000
       N       E                     dE             d eps       ncg     rms          ort
SDA:   1    -0.419382552091E+03    0.52594E+01    0.00000E+00  6480   0.137E+02 0.000E+00
CGA:   2    -0.423066475308E+03   -0.36839E+01   -0.36848E+01  6480   0.736E+01 0.105E-01
CGA:   3    -0.424305081413E+03   -0.12386E+01   -0.12396E+01  6480   0.158E+01 0.102E-01
CGA:   4    -0.424579036485E+03   -0.27396E+00   -0.27399E+00  6480   0.357E+00 0.116E-02
CGA:   5    -0.424643137607E+03   -0.64101E-01   -0.64122E-01  6480   0.884E-01 0.220E-04
CGA:   6    -0.424661903299E+03   -0.18766E-01   -0.18748E-01  6480   0.257E-01-0.290E-03
CGA:   7    -0.424667908015E+03   -0.60047E-02   -0.60078E-02  6480   0.891E-02 0.695E-04
CGA:   8    -0.424670404577E+03   -0.24966E-02   -0.24946E-02  6480   0.375E-02 0.305E-03
CGA:   9    -0.424671655916E+03   -0.12513E-02   -0.12525E-02  6480   0.167E-02-0.248E-04
CGA:  10    -0.424672193068E+03   -0.53715E-03   -0.54189E-03  6480   0.719E-03-0.947E-04
CGA:  11    -0.424672389946E+03   -0.19688E-03   -0.19633E-03  6480   0.261E-03 0.487E-04
CGA:  12    -0.424672497038E+03   -0.10709E-03   -0.10913E-03  6480   0.160E-03-0.183E-04
CGA:  13    -0.424672549671E+03   -0.52633E-04   -0.51593E-04  6480   0.778E-04 0.164E-04
CGA:  14    -0.424672570422E+03   -0.20751E-04   -0.21678E-04  6480   0.281E-04 0.265E-04
CGA:  15    -0.424672582774E+03   -0.12352E-04   -0.12269E-04  6480   0.118E-04 0.209E-05
CGA:  16    -0.424672522470E+03    0.60304E-04   -0.32548E-04  6480   0.231E-03-0.533E-04
CGA:  17    -0.424672563330E+03   -0.40860E-04   -0.53144E-04  6480   0.300E-04 0.416E-04
CGA:  18    -0.424672582925E+03   -0.19594E-04   -0.21408E-04  6480   0.280E-04-0.191E-04
CGA:  19    -0.424672581697E+03    0.12273E-05   -0.40816E-05  6480   0.809E-05 0.144E-04
  31 F= -.42467258E+03 E0= -.42467258E+03  d E =-.306359E-01  mag=    18.0000
       N       E                     dE             d eps       ncg     rms          ort
SDA:   1    -0.424039489516E+03    0.63309E+00    0.00000E+00  6480   0.185E+01 0.000E+00
CGA:   2    -0.424418380237E+03   -0.37889E+00   -0.37984E+00  6480   0.909E+00 0.656E-03
CGA:   3    -0.424603556969E+03   -0.18518E+00   -0.18524E+00  6480   0.256E+00 0.399E-03
CGA:   4    -0.424647743215E+03   -0.44186E-01   -0.43990E-01  6480   0.595E-01-0.499E-03
CGA:   5    -0.424658510510E+03   -0.10767E-01   -0.10688E-01  6480   0.147E-01-0.308E-03
CGA:   6    -0.424661596330E+03   -0.30858E-02   -0.30596E-02  6480   0.440E-02-0.117E-03
CGA:   7    -0.424662605778E+03   -0.10094E-02   -0.10122E-02  6480   0.143E-02 0.129E-04
CGA:   8    -0.424662971382E+03   -0.36560E-03   -0.37219E-03  6480   0.523E-03 0.410E-04
CGA:   9    -0.424663145107E+03   -0.17373E-03   -0.17164E-03  6480   0.236E-03-0.229E-04
CGA:  10    -0.424663217291E+03   -0.72184E-04   -0.71283E-04  6480   0.102E-03-0.101E-04
CGA:  11    -0.424663240803E+03   -0.23512E-04   -0.25830E-04  6480   0.353E-04 0.168E-04
CGA:  12    -0.424663253797E+03   -0.12994E-04   -0.13193E-04  6480   0.178E-04 0.267E-05
CGA:  13    -0.424663258245E+03   -0.44485E-05   -0.51326E-05  6480   0.853E-05 0.557E-05
  32 F= -.42466326E+03 E0= -.42466326E+03  d E =0.932345E-02  mag=    18.0000
       N       E                     dE             d eps       ncg     rms          ort
SDA:   1    -0.424395449368E+03    0.26780E+00    0.00000E+00  6480   0.765E+00 0.000E+00
CGA:   2    -0.424571736417E+03   -0.17629E+00   -0.17626E+00  6480   0.408E+00-0.394E-03
CGA:   3    -0.424648321409E+03   -0.76585E-01   -0.76624E-01  6480   0.100E+00 0.106E-03
CGA:   4    -0.424665514887E+03   -0.17193E-01   -0.17260E-01  6480   0.235E-01 0.339E-03
CGA:   5    -0.424669689978E+03   -0.41751E-02   -0.42189E-02  6480   0.567E-02 0.254E-03
CGA:   6    -0.424670846031E+03   -0.11561E-02   -0.11775E-02  6480   0.167E-02 0.159E-03
CGA:   7    -0.424671254180E+03   -0.40815E-03   -0.40959E-03  6480   0.573E-03 0.149E-04
CGA:   8    -0.424671418048E+03   -0.16387E-03   -0.16289E-03  6480   0.244E-03-0.211E-04
CGA:   9    -0.424671477050E+03   -0.59002E-04   -0.60851E-04  6480   0.812E-04 0.276E-04
CGA:  10    -0.424671498318E+03   -0.21268E-04   -0.22554E-04  6480   0.287E-04 0.176E-04
CGA:  11    -0.424671511292E+03   -0.12974E-04   -0.13178E-04  6480   0.189E-04-0.349E-05
CGA:  12    -0.424671516116E+03   -0.48234E-05   -0.48577E-05  6480   0.931E-05 0.117E-05
CGA:  13    -0.424671507719E+03    0.83966E-05   -0.10964E-04  6480   0.765E-04-0.246E-04
CGA:  14    -0.424671529964E+03   -0.22244E-04   -0.21359E-04  6480   0.104E-04-0.110E-04
CGA:  15    -0.424671529672E+03    0.29163E-06   -0.10177E-05  6480   0.412E-05 0.541E-05
  33 F= -.42467153E+03 E0= -.42467153E+03  d E =-.827143E-02  mag=    18.0000
       N       E                     dE             d eps       ncg     rms          ort
SDA:   1    -0.424600916980E+03    0.70613E-01    0.00000E+00  6480   0.172E+00 0.000E+00
CGA:   2    -0.424653221707E+03   -0.52305E-01   -0.52310E-01  6480   0.812E-01 0.150E-03
CGA:   3    -0.424666533809E+03   -0.13312E-01   -0.13292E-01  6480   0.175E-01-0.138E-03
CGA:   4    -0.424669635986E+03   -0.31022E-02   -0.30948E-02  6480   0.381E-02-0.545E-04
CGA:   5    -0.424670323287E+03   -0.68730E-03   -0.68740E-03  6480   0.942E-03-0.811E-07
CGA:   6    -0.424670518902E+03   -0.19561E-03   -0.19642E-03  6480   0.257E-03 0.787E-05
CGA:   7    -0.424670575306E+03   -0.56404E-04   -0.57558E-04  6480   0.824E-04 0.141E-04
CGA:   8    -0.424670600153E+03   -0.24847E-04   -0.24901E-04  6480   0.376E-04 0.417E-05
CGA:   9    -0.424670614538E+03   -0.14386E-04   -0.14809E-04  6480   0.224E-04-0.554E-05
CGA:  10    -0.424670619927E+03   -0.53891E-05   -0.53842E-05  6480   0.785E-05-0.254E-06
  34 F= -.42467062E+03 E0= -.42467062E+03  d E =0.909745E-03  mag=    18.0000
       N       E                     dE             d eps       ncg     rms          ort
SDA:   1    -0.414514037485E+03    0.10157E+02    0.00000E+00  6480   0.252E+02 0.000E+00
CGA:   2    -0.422158601900E+03   -0.76446E+01   -0.76444E+01  6480   0.111E+02 0.185E-01
CGA:   3    -0.424042671779E+03   -0.18841E+01   -0.18842E+01  6480   0.255E+01 0.992E-02
CGA:   4    -0.424488259138E+03   -0.44559E+00   -0.44549E+00  6480   0.523E+00-0.136E-02
CGA:   5    -0.424585697376E+03   -0.97438E-01   -0.97464E-01  6480   0.143E+00-0.363E-04
CGA:   6    -0.424615559679E+03   -0.29862E-01   -0.29904E-01  6480   0.401E-01 0.536E-03
CGA:   7    -0.424625347470E+03   -0.97878E-02   -0.98017E-02  6480   0.156E-01 0.388E-03
CGA:   8    -0.424630100389E+03   -0.47529E-02   -0.47540E-02  6480   0.766E-02-0.467E-04
CGA:   9    -0.424632608820E+03   -0.25084E-02   -0.25184E-02  6480   0.341E-02-0.194E-03
CGA:  10    -0.424633628606E+03   -0.10198E-02   -0.10193E-02  6480   0.125E-02 0.150E-04
CGA:  11    -0.424634046400E+03   -0.41779E-03   -0.41820E-03  6480   0.560E-03-0.878E-05
CGA:  12    -0.424634281202E+03   -0.23480E-03   -0.24513E-03  6480   0.381E-03-0.665E-04
CGA:  13    -0.424634420431E+03   -0.13923E-03   -0.14397E-03  6480   0.191E-03-0.351E-04
CGA:  14    -0.424634486959E+03   -0.66527E-04   -0.69798E-04  6480   0.727E-04-0.320E-04
CGA:  15    -0.424634504060E+03   -0.17101E-04   -0.17207E-04  6480   0.202E-04 0.537E-05
CGA:  16    -0.424634511006E+03   -0.69459E-05   -0.69485E-05  6480   0.760E-05-0.148E-06
  35 F= -.42463451E+03 E0= -.42463451E+03  d E =0.361089E-01  mag=    18.0000
       N       E                     dE             d eps       ncg     rms          ort
SDA:   1    -0.419411654319E+03    0.52228E+01    0.00000E+00  6480   0.136E+02 0.000E+00
CGA:   2    -0.423181080811E+03   -0.37694E+01   -0.37703E+01  6480   0.588E+01 0.159E-01
CGA:   3    -0.424252811043E+03   -0.10717E+01   -0.10726E+01  6480   0.150E+01 0.456E-02
CGA:   4    -0.424508915032E+03   -0.25610E+00   -0.25586E+00  6480   0.280E+00-0.191E-02
CGA:   5    -0.424562436448E+03   -0.53521E-01   -0.53532E-01  6480   0.786E-01 0.254E-04
CGA:   6    -0.424578339051E+03   -0.15903E-01   -0.15980E-01  6480   0.218E-01 0.871E-03
CGA:   7    -0.424583840563E+03   -0.55015E-02   -0.55131E-02  6480   0.886E-02 0.332E-03
CGA:   8    -0.424586558351E+03   -0.27178E-02   -0.27185E-02  6480   0.460E-02-0.375E-04
CGA:   9    -0.424588034677E+03   -0.14763E-02   -0.14710E-02  6480   0.204E-02 0.141E-03
CGA:  10    -0.424588666409E+03   -0.63173E-03   -0.62961E-03  6480   0.772E-03 0.153E-03
CGA:  11    -0.424588946525E+03   -0.28012E-03   -0.27892E-03  6480   0.372E-03 0.234E-04
CGA:  12    -0.424589102420E+03   -0.15590E-03   -0.15830E-03  6480   0.226E-03-0.199E-04
CGA:  13    -0.424589194581E+03   -0.92161E-04   -0.99785E-04  6480   0.132E-03-0.448E-04
CGA:  14    -0.424589228330E+03   -0.33749E-04   -0.33782E-04  6480   0.398E-04-0.218E-05
CGA:  15    -0.424589237854E+03   -0.95238E-05   -0.98494E-05  6480   0.120E-04 0.616E-05
  36 F= -.42458924E+03 E0= -.42458924E+03  d E =0.452732E-01  mag=    18.0000
       N       E                     dE             d eps       ncg     rms          ort
SDA:   1    -0.416106304666E+03    0.84829E+01    0.00000E+00  6480   0.220E+02 0.000E+00
CGA:   2    -0.422356160150E+03   -0.62499E+01   -0.62503E+01  6480   0.991E+01 0.351E-02
CGA:   3    -0.424096915106E+03   -0.17408E+01   -0.17421E+01  6480   0.239E+01 0.789E-02
CGA:   4    -0.424509839571E+03   -0.41292E+00   -0.41322E+00  6480   0.467E+00 0.218E-02
CGA:   5    -0.424597321783E+03   -0.87482E-01   -0.87509E-01  6480   0.131E+00 0.192E-03
CGA:   6    -0.424624774506E+03   -0.27453E-01   -0.27441E-01  6480   0.375E-01-0.233E-03
CGA:   7    -0.424634160288E+03   -0.93858E-02   -0.93790E-02  6480   0.155E-01-0.262E-03
CGA:   8    -0.424638741538E+03   -0.45812E-02   -0.45819E-02  6480   0.759E-02-0.316E-04
CGA:   9    -0.424641237802E+03   -0.24963E-02   -0.25014E-02  6480   0.343E-02-0.101E-03
CGA:  10    -0.424642375273E+03   -0.11375E-02   -0.11538E-02  6480   0.152E-02-0.273E-03
CGA:  11    -0.424642839245E+03   -0.46397E-03   -0.46610E-03  6480   0.665E-03-0.440E-04
CGA:  12    -0.424643071250E+03   -0.23200E-03   -0.22942E-03  6480   0.313E-03 0.366E-04
CGA:  13    -0.424643201184E+03   -0.12993E-03   -0.12888E-03  6480   0.145E-03 0.102E-04
CGA:  14    -0.424643249569E+03   -0.48385E-04   -0.47860E-04  6480   0.445E-04 0.215E-04
CGA:  15    -0.424643267376E+03   -0.17807E-04   -0.17782E-04  6480   0.147E-04 0.452E-06
CGA:  16    -0.424643273042E+03   -0.56661E-05   -0.56714E-05  6480   0.551E-05-0.729E-07
  37 F= -.42464327E+03 E0= -.42464327E+03  d E =-.540352E-01  mag=    18.0000
       N       E                     dE             d eps       ncg     rms          ort
SDA:   1    -0.422079985412E+03    0.25633E+01    0.00000E+00  6480   0.711E+01 0.000E+00
CGA:   2    -0.423745654944E+03   -0.16657E+01   -0.16662E+01  6480   0.359E+01-0.122E-02
CGA:   3    -0.424421154018E+03   -0.67550E+00   -0.67518E+00  6480   0.879E+00-0.327E-02
CGA:   4    -0.424576699257E+03   -0.15555E+00   -0.15559E+00  6480   0.191E+00 0.113E-03
CGA:   5    -0.424611774698E+03   -0.35075E-01   -0.35118E-01  6480   0.487E-01 0.359E-03
CGA:   6    -0.424622210587E+03   -0.10436E-01   -0.10427E-01  6480   0.147E-01-0.162E-03
CGA:   7    -0.424625771077E+03   -0.35605E-02   -0.35583E-02  6480   0.544E-02-0.804E-04
CGA:   8    -0.424627270152E+03   -0.14991E-02   -0.14987E-02  6480   0.225E-02 0.640E-04
CGA:   9    -0.424628007673E+03   -0.73752E-03   -0.74058E-03  6480   0.101E-02-0.578E-04
CGA:  10    -0.424628357139E+03   -0.34947E-03   -0.36549E-03  6480   0.542E-03-0.169E-03
CGA:  11    -0.424628503076E+03   -0.14594E-03   -0.14684E-03  6480   0.227E-03-0.200E-04
CGA:  12    -0.424628573505E+03   -0.70429E-04   -0.69788E-04  6480   0.966E-04 0.168E-04
CGA:  13    -0.424628613344E+03   -0.39839E-04   -0.39904E-04  6480   0.509E-04-0.699E-06
CGA:  14    -0.424628632243E+03   -0.18899E-04   -0.19054E-04  6480   0.208E-04-0.179E-05
CGA:  15    -0.424628600803E+03    0.31440E-04   -0.26343E-04  6480   0.175E-03-0.569E-04
CGA:  16    -0.424628642562E+03   -0.41759E-04   -0.43379E-04  6480   0.156E-04 0.169E-04
CGA:  17    -0.424628647766E+03   -0.52044E-05   -0.53157E-05  6480   0.424E-05 0.403E-05
  38 F= -.42462865E+03 E0= -.42462865E+03  d E =0.146253E-01  mag=    18.0000
       N       E                     dE             d eps       ncg     rms          ort
SDA:   1    -0.422668037929E+03    0.19606E+01    0.00000E+00  6480   0.540E+01 0.000E+00
CGA:   2    -0.424016311936E+03   -0.13483E+01   -0.13492E+01  6480   0.258E+01 0.743E-02
CGA:   3    -0.424491852739E+03   -0.47554E+00   -0.47601E+00  6480   0.650E+00 0.251E-02
CGA:   4    -0.424606962235E+03   -0.11511E+00   -0.11493E+00  6480   0.131E+00-0.124E-02
CGA:   5    -0.424631311370E+03   -0.24349E-01   -0.24335E-01  6480   0.352E-01-0.151E-03
CGA:   6    -0.424638614499E+03   -0.73031E-02   -0.73398E-02  6480   0.101E-01 0.368E-03
CGA:   7    -0.424641114361E+03   -0.24999E-02   -0.25071E-02  6480   0.395E-02 0.128E-03
CGA:   8    -0.424642291476E+03   -0.11771E-02   -0.11771E-02  6480   0.188E-02-0.936E-05
CGA:   9    -0.424642892683E+03   -0.60121E-03   -0.60020E-03  6480   0.840E-03 0.459E-04
CGA:  10    -0.424643143804E+03   -0.25112E-03   -0.25167E-03  6480   0.320E-03 0.899E-04
CGA:  11    -0.424643254165E+03   -0.11036E-03   -0.10986E-03  6480   0.145E-03 0.438E-04
CGA:  12    -0.424643323737E+03   -0.69572E-04   -0.71331E-04  6480   0.104E-03-0.134E-04
CGA:  13    -0.424643357506E+03   -0.33769E-04   -0.33642E-04  6480   0.463E-04 0.240E-05
CGA:  14    -0.424643370591E+03   -0.13085E-04   -0.13262E-04  6480   0.150E-04 0.623E-05
CGA:  15    -0.424643375472E+03   -0.48814E-05   -0.49107E-05  6480   0.477E-05 0.157E-05
  39 F= -.42464338E+03 E0= -.42464338E+03  d E =-.147277E-01  mag=    18.0000
       N       E                     dE             d eps       ncg     rms          ort
SDA:   1    -0.424525048215E+03    0.11832E+00    0.00000E+00  6480   0.295E+00 0.000E+00
CGA:   2    -0.424608709403E+03   -0.83661E-01   -0.83680E-01  6480   0.132E+00 0.860E-03
CGA:   3    -0.424631969301E+03   -0.23260E-01   -0.23311E-01  6480   0.330E-01 0.356E-03
CGA:   4    -0.424637630600E+03   -0.56613E-02   -0.56538E-02  6480   0.621E-02-0.712E-04
CGA:   5    -0.424638782349E+03   -0.11517E-02   -0.11562E-02  6480   0.170E-02 0.422E-04
CGA:   6    -0.424639114959E+03   -0.33261E-03   -0.33919E-03  6480   0.442E-03 0.765E-04
CGA:   7    -0.424639224089E+03   -0.10913E-03   -0.11032E-03  6480   0.170E-03 0.291E-04
CGA:   8    -0.424639282170E+03   -0.58081E-04   -0.58355E-04  6480   0.101E-03-0.609E-05
CGA:   9    -0.424639309339E+03   -0.27170E-04   -0.27176E-04  6480   0.411E-04 0.143E-04
CGA:  10    -0.424639316972E+03   -0.76326E-05   -0.91767E-05  6480   0.159E-04 0.183E-04
  40 F= -.42463932E+03 E0= -.42463932E+03  d E =0.405850E-02  mag=    18.0000
       N       E                     dE             d eps       ncg     rms          ort
SDA:   1    -0.424153685286E+03    0.48562E+00    0.00000E+00  6480   0.122E+01 0.000E+00
CGA:   2    -0.424500066943E+03   -0.34638E+00   -0.34636E+00  6480   0.592E+00 0.135E-02
CGA:   3    -0.424600989805E+03   -0.10092E+00   -0.10100E+00  6480   0.136E+00 0.584E-03
CGA:   4    -0.424624431107E+03   -0.23441E-01   -0.23423E-01  6480   0.272E-01-0.227E-03
CGA:   5    -0.424629440870E+03   -0.50098E-02   -0.50080E-02  6480   0.712E-02-0.289E-04
CGA:   6    -0.424630907226E+03   -0.14664E-02   -0.14729E-02  6480   0.194E-02 0.126E-03
CGA:   7    -0.424631363124E+03   -0.45590E-03   -0.45826E-03  6480   0.697E-03 0.983E-04
CGA:   8    -0.424631592386E+03   -0.22926E-03   -0.22946E-03  6480   0.383E-03-0.339E-05
CGA:   9    -0.424631718796E+03   -0.12641E-03   -0.12608E-03  6480   0.184E-03 0.438E-05
CGA:  10    -0.424631768059E+03   -0.49263E-04   -0.49159E-04  6480   0.641E-04 0.307E-04
CGA:  11    -0.424631792522E+03   -0.24463E-04   -0.24213E-04  6480   0.323E-04 0.396E-05
CGA:  12    -0.424631806922E+03   -0.14401E-04   -0.19429E-04  6480   0.416E-04-0.167E-04
CGA:  13    -0.424631816544E+03   -0.96218E-05   -0.97595E-05  6480   0.680E-05 0.308E-05
  41 F= -.42463182E+03 E0= -.42463182E+03  d E =0.750043E-02  mag=    18.0000
       N       E                     dE             d eps       ncg     rms          ort
SDA:   1    -0.404044390964E+03    0.20587E+02    0.00000E+00  6480   0.524E+02 0.000E+00
CGA:   2    -0.418966151785E+03   -0.14922E+02   -0.14920E+02  6480   0.249E+02 0.137E+00
CGA:   3    -0.423292433106E+03   -0.43263E+01   -0.43268E+01  6480   0.545E+01 0.579E-01
CGA:   4    -0.424241905337E+03   -0.94947E+00   -0.94923E+00  6480   0.116E+01-0.601E-04
CGA:   5    -0.424457817197E+03   -0.21591E+00   -0.21605E+00  6480   0.311E+00 0.753E-03
CGA:   6    -0.424524217954E+03   -0.66401E-01   -0.66487E-01  6480   0.918E-01 0.158E-02
CGA:   7    -0.424546691347E+03   -0.22473E-01   -0.22486E-01  6480   0.357E-01 0.680E-03
CGA:   8    -0.424557475622E+03   -0.10784E-01   -0.10791E-01  6480   0.171E-01-0.189E-03
CGA:   9    -0.424562869643E+03   -0.53940E-02   -0.54033E-02  6480   0.711E-02-0.170E-03
CGA:  10    -0.424565009794E+03   -0.21402E-02   -0.21404E-02  6480   0.259E-02-0.104E-04
CGA:  11    -0.424565874510E+03   -0.86472E-03   -0.86554E-03  6480   0.115E-02-0.139E-04
CGA:  12    -0.424566334476E+03   -0.45997E-03   -0.46493E-03  6480   0.684E-03-0.379E-04
CGA:  13    -0.424566633627E+03   -0.29915E-03   -0.32603E-03  6480   0.445E-03-0.126E-03
CGA:  14    -0.424566768476E+03   -0.13485E-03   -0.14092E-03  6480   0.162E-03-0.613E-04
CGA:  15    -0.424566812095E+03   -0.43619E-04   -0.43655E-04  6480   0.475E-04-0.194E-05
CGA:  16    -0.424566828448E+03   -0.16354E-04   -0.16402E-04  6480   0.190E-04-0.885E-06
CGA:  17    -0.424566835448E+03   -0.69993E-05   -0.68691E-05  6480   0.894E-05 0.179E-05
  42 F= -.42456684E+03 E0= -.42456684E+03  d E =0.649811E-01  mag=    18.0000
       N       E                     dE             d eps       ncg     rms          ort
SDA:   1    -0.421153489348E+03    0.34133E+01    0.00000E+00  6480   0.886E+01 0.000E+00
CGA:   2    -0.423614499123E+03   -0.24610E+01   -0.24612E+01  6480   0.441E+01 0.232E-02
CGA:   3    -0.424365616461E+03   -0.75112E+00   -0.75150E+00  6480   0.993E+00-0.736E-03
CGA:   4    -0.424539931487E+03   -0.17432E+00   -0.17425E+00  6480   0.209E+00-0.738E-03
CGA:   5    -0.424578305365E+03   -0.38374E-01   -0.38369E-01  6480   0.540E-01-0.119E-03
CGA:   6    -0.424589891178E+03   -0.11586E-01   -0.11575E-01  6480   0.161E-01-0.170E-03
CGA:   7    -0.424593781100E+03   -0.38899E-02   -0.38815E-02  6480   0.607E-02-0.204E-03
CGA:   8    -0.424595520340E+03   -0.17392E-02   -0.17389E-02  6480   0.280E-02 0.371E-04
CGA:   9    -0.424596429586E+03   -0.90925E-03   -0.90945E-03  6480   0.125E-02-0.573E-05
CGA:  10    -0.424596858176E+03   -0.42859E-03   -0.43776E-03  6480   0.603E-03-0.138E-03
CGA:  11    -0.424597031762E+03   -0.17359E-03   -0.17382E-03  6480   0.251E-03-0.701E-05
CGA:  12    -0.424597117559E+03   -0.85797E-04   -0.85025E-04  6480   0.116E-03 0.145E-04
CGA:  13    -0.424597157848E+03   -0.40289E-04   -0.39577E-04  6480   0.480E-04 0.243E-04
CGA:  14    -0.424597170475E+03   -0.12627E-04   -0.13851E-04  6480   0.175E-04 0.220E-04
CGA:  15    -0.424597175642E+03   -0.51672E-05   -0.58025E-05  6480   0.725E-05 0.996E-05
  43 F= -.42459718E+03 E0= -.42459718E+03  d E =-.303402E-01  mag=    18.0000
       N       E                     dE             d eps       ncg     rms          ort
SDA:   1    -0.422072438868E+03    0.25247E+01    0.00000E+00  6480   0.655E+01 0.000E+00
CGA:   2    -0.423878070216E+03   -0.18056E+01   -0.18057E+01  6480   0.331E+01-0.186E-02
CGA:   3    -0.424449104436E+03   -0.57103E+00   -0.57146E+00  6480   0.720E+00 0.691E-03
CGA:   4    -0.424574211084E+03   -0.12511E+00   -0.12519E+00  6480   0.152E+00 0.454E-03
CGA:   5    -0.424602357739E+03   -0.28147E-01   -0.28138E-01  6480   0.394E-01-0.136E-03
CGA:   6    -0.424610755128E+03   -0.83974E-02   -0.83757E-02  6480   0.114E-01-0.311E-03
CGA:   7    -0.424613478193E+03   -0.27231E-02   -0.27164E-02  6480   0.416E-02-0.160E-03
CGA:   8    -0.424614635378E+03   -0.11572E-02   -0.11571E-02  6480   0.178E-02 0.781E-04
CGA:   9    -0.424615225016E+03   -0.58964E-03   -0.59047E-03  6480   0.784E-03-0.191E-04
CGA:  10    -0.424615498580E+03   -0.27356E-03   -0.28559E-03  6480   0.407E-03-0.141E-03
CGA:  11    -0.424615603175E+03   -0.10459E-03   -0.10505E-03  6480   0.161E-03-0.166E-04
CGA:  12    -0.424615657477E+03   -0.54303E-04   -0.54419E-04  6480   0.789E-04-0.194E-05
CGA:  13    -0.424615683205E+03   -0.25728E-04   -0.25286E-04  6480   0.342E-04 0.134E-04
CGA:  14    -0.424615691244E+03   -0.80391E-05   -0.90832E-05  6480   0.128E-04 0.158E-04
  44 F= -.42461569E+03 E0= -.42461569E+03  d E =-.185156E-01  mag=    18.0000
       N       E                     dE             d eps       ncg     rms          ort
SDA:   1    -0.424262541680E+03    0.35314E+00    0.00000E+00  6480   0.917E+00 0.000E+00
CGA:   2    -0.424510144203E+03   -0.24760E+00   -0.24762E+00  6480   0.464E+00 0.391E-03
CGA:   3    -0.424590383050E+03   -0.80239E-01   -0.80332E-01  6480   0.103E+00 0.741E-03
CGA:   4    -0.424608410900E+03   -0.18028E-01   -0.18049E-01  6480   0.222E-01 0.180E-03
CGA:   5    -0.424612447833E+03   -0.40369E-02   -0.40508E-02  6480   0.558E-02 0.145E-03
CGA:   6    -0.424613608115E+03   -0.11603E-02   -0.11690E-02  6480   0.158E-02 0.140E-03
CGA:   7    -0.424613977873E+03   -0.36976E-03   -0.37266E-03  6480   0.540E-03 0.794E-04
CGA:   8    -0.424614143047E+03   -0.16517E-03   -0.16478E-03  6480   0.250E-03 0.154E-04
CGA:   9    -0.424614218200E+03   -0.75153E-04   -0.74530E-04  6480   0.979E-04 0.262E-04
CGA:  10    -0.424614240944E+03   -0.22744E-04   -0.24207E-04  6480   0.342E-04 0.336E-04
CGA:  11    -0.424614250390E+03   -0.94460E-05   -0.10160E-04  6480   0.160E-04 0.162E-04
  45 F= -.42461425E+03 E0= -.42461425E+03  d E =0.144085E-02  mag=    18.0000
       N       E                     dE             d eps       ncg     rms          ort
SDA:   1    -0.424398461598E+03    0.21578E+00    0.00000E+00  6480   0.526E+00 0.000E+00
CGA:   2    -0.424557986789E+03   -0.15953E+00   -0.15947E+00  6480   0.228E+00 0.138E-02
CGA:   3    -0.424597928294E+03   -0.39942E-01   -0.39906E-01  6480   0.536E-01-0.423E-03
CGA:   4    -0.424607101502E+03   -0.91732E-02   -0.91454E-02  6480   0.108E-01-0.315E-03
CGA:   5    -0.424609112579E+03   -0.20111E-02   -0.20154E-02  6480   0.284E-02 0.588E-04
CGA:   6    -0.424609680918E+03   -0.56834E-03   -0.57461E-03  6480   0.763E-03 0.115E-03
CGA:   7    -0.424609868645E+03   -0.18773E-03   -0.18838E-03  6480   0.290E-03 0.413E-04
CGA:   8    -0.424609970822E+03   -0.10218E-03   -0.10536E-03  6480   0.192E-03-0.346E-04
CGA:   9    -0.424610022383E+03   -0.51561E-04   -0.51641E-04  6480   0.823E-04-0.172E-05
CGA:  10    -0.424610039462E+03   -0.17079E-04   -0.17913E-04  6480   0.283E-04 0.211E-04
CGA:  11    -0.424610047192E+03   -0.77296E-05   -0.80238E-05  6480   0.124E-04 0.937E-05
  46 F= -.42461005E+03 E0= -.42461005E+03  d E =0.420320E-02  mag=    18.0000
       N       E                     dE             d eps       ncg     rms          ort
SDA:   1    -0.424408298038E+03    0.20174E+00    0.00000E+00  6480   0.518E+00 0.000E+00
CGA:   2    -0.424545874709E+03   -0.13758E+00   -0.13757E+00  6480   0.256E+00 0.967E-03
CGA:   3    -0.424591914407E+03   -0.46040E-01   -0.45992E-01  6480   0.598E-01-0.629E-03
CGA:   4    -0.424602197674E+03   -0.10283E-01   -0.10269E-01  6480   0.119E-01-0.183E-03
CGA:   5    -0.424604357450E+03   -0.21598E-02   -0.21634E-02  6480   0.315E-02 0.468E-04
CGA:   6    -0.424605017844E+03   -0.66039E-03   -0.66116E-03  6480   0.899E-03 0.174E-04
CGA:   7    -0.424605225555E+03   -0.20771E-03   -0.20828E-03  6480   0.320E-03 0.300E-04
CGA:   8    -0.424605318341E+03   -0.92786E-04   -0.92153E-04  6480   0.147E-03 0.207E-04
CGA:   9    -0.424605373056E+03   -0.54715E-04   -0.55337E-04  6480   0.808E-04-0.597E-05
CGA:  10    -0.424605393317E+03   -0.20262E-04   -0.20191E-04  6480   0.289E-04 0.127E-04
CGA:  11    -0.424605401393E+03   -0.80758E-05   -0.81670E-05  6480   0.116E-04 0.825E-05
  47 F= -.42460540E+03 E0= -.42460540E+03  d E =0.464580E-02  mag=    18.0000
       N       E                     dE             d eps       ncg     rms          ort
SDA:   1    -0.424241456462E+03    0.36394E+00    0.00000E+00  6480   0.998E+00 0.000E+00
CGA:   2    -0.424470861695E+03   -0.22941E+00   -0.22951E+00  6480   0.521E+00 0.177E-02
CGA:   3    -0.424569787433E+03   -0.98926E-01   -0.98847E-01  6480   0.128E+00-0.107E-02
CGA:   4    -0.424591970137E+03   -0.22183E-01   -0.22116E-01  6480   0.266E-01-0.737E-03
CGA:   5    -0.424596743809E+03   -0.47737E-02   -0.47664E-02  6480   0.688E-02-0.987E-04
CGA:   6    -0.424598185815E+03   -0.14420E-02   -0.14414E-02  6480   0.201E-02-0.144E-04
CGA:   7    -0.424598640620E+03   -0.45481E-03   -0.45589E-03  6480   0.672E-03 0.357E-04
CGA:   8    -0.424598821033E+03   -0.18041E-03   -0.18004E-03  6480   0.270E-03 0.474E-04
CGA:   9    -0.424598916975E+03   -0.95942E-04   -0.96087E-04  6480   0.137E-03-0.197E-05
CGA:  10    -0.424598958672E+03   -0.41697E-04   -0.41400E-04  6480   0.579E-04 0.639E-05
CGA:  11    -0.424598974387E+03   -0.15715E-04   -0.15740E-04  6480   0.217E-04 0.133E-04
CGA:  12    -0.424598984730E+03   -0.10343E-04   -0.10825E-04  6480   0.170E-04-0.337E-05
CGA:  13    -0.424598987497E+03   -0.27673E-05   -0.30511E-05  6480   0.900E-05 0.503E-05
  48 F= -.42459899E+03 E0= -.42459899E+03  d E =0.641390E-02  mag=    18.0000
       N       E                     dE             d eps       ncg     rms          ort
SDA:   1    -0.424164379127E+03    0.43461E+00    0.00000E+00  6480   0.107E+01 0.000E+00
CGA:   2    -0.424475675422E+03   -0.31130E+00   -0.31125E+00  6480   0.521E+00 0.122E-02
CGA:   3    -0.424564012446E+03   -0.88337E-01   -0.88320E-01  6480   0.121E+00-0.281E-03
CGA:   4    -0.424585212423E+03   -0.21200E-01   -0.21212E-01  6480   0.249E-01 0.145E-03
CGA:   5    -0.424589742965E+03   -0.45305E-02   -0.45480E-02  6480   0.675E-02 0.244E-03
CGA:   6    -0.424591163198E+03   -0.14202E-02   -0.14247E-02  6480   0.194E-02 0.111E-03
CGA:   7    -0.424591634724E+03   -0.47153E-03   -0.47186E-03  6480   0.720E-03 0.474E-04
CGA:   8    -0.424591828864E+03   -0.19414E-03   -0.19290E-03  6480   0.299E-03 0.834E-04
CGA:   9    -0.424591919275E+03   -0.90410E-04   -0.89003E-04  6480   0.119E-03 0.708E-04
CGA:  10    -0.424591959676E+03   -0.40401E-04   -0.39698E-04  6480   0.525E-04 0.342E-04
CGA:  11    -0.424591979979E+03   -0.20303E-04   -0.19669E-04  6480   0.255E-04 0.151E-04
CGA:  12    -0.424591993183E+03   -0.13204E-04   -0.13120E-04  6480   0.182E-04 0.525E-06
CGA:  13    -0.424591999256E+03   -0.60725E-05   -0.59629E-05  6480   0.833E-05 0.172E-05
  49 F= -.42459200E+03 E0= -.42459200E+03  d E =0.698824E-02  mag=    18.0000
       N       E                     dE             d eps       ncg     rms          ort
SDA:   1    -0.424504219335E+03    0.87774E-01    0.00000E+00  6480   0.261E+00 0.000E+00
CGA:   2    -0.424562843808E+03   -0.58624E-01   -0.58648E-01  6480   0.136E+00 0.656E-03
CGA:   3    -0.424588344513E+03   -0.25501E-01   -0.25521E-01  6480   0.347E-01 0.232E-03
CGA:   4    -0.424594876683E+03   -0.65322E-02   -0.65030E-02  6480   0.895E-02-0.455E-03
CGA:   5    -0.424596481865E+03   -0.16052E-02   -0.15956E-02  6480   0.219E-02-0.142E-03
CGA:   6    -0.424596904145E+03   -0.42228E-03   -0.42803E-03  6480   0.634E-03 0.122E-03
CGA:   7    -0.424597059769E+03   -0.15562E-03   -0.15610E-03  6480   0.216E-03 0.476E-04
CGA:   8    -0.424597136482E+03   -0.76714E-04   -0.92712E-04  6480   0.205E-03-0.102E-03
CGA:   9    -0.424597161078E+03   -0.24595E-04   -0.23942E-04  6480   0.975E-04-0.223E-04
CGA:  10    -0.424597174965E+03   -0.13887E-04   -0.14609E-04  6480   0.413E-04 0.891E-05
CGA:  11    -0.424597184413E+03   -0.94478E-05   -0.95199E-05  6480   0.195E-04 0.213E-05
  50 F= -.42459718E+03 E0= -.42459718E+03  d E =-.518516E-02  mag=    18.0000
       N       E                     dE             d eps       ncg     rms          ort
SDA:   1    -0.424553897170E+03    0.43278E-01    0.00000E+00  6480   0.110E+00 0.000E+00
CGA:   2    -0.424583019079E+03   -0.29122E-01   -0.29108E-01  6480   0.514E-01 0.748E-03
CGA:   3    -0.424592511884E+03   -0.94928E-02   -0.94770E-02  6480   0.130E-01-0.264E-03
CGA:   4    -0.424594740170E+03   -0.22283E-02   -0.22199E-02  6480   0.256E-02-0.119E-03
CGA:   5    -0.424595193598E+03   -0.45343E-03   -0.45501E-03  6480   0.690E-03 0.254E-04
CGA:   6    -0.424595332957E+03   -0.13936E-03   -0.13997E-03  6480   0.189E-03 0.168E-04
CGA:   7    -0.424595375797E+03   -0.42841E-04   -0.43061E-04  6480   0.639E-04 0.173E-04
CGA:   8    -0.424595391499E+03   -0.15701E-04   -0.15832E-04  6480   0.255E-04 0.177E-04
CGA:   9    -0.424595400323E+03   -0.88246E-05   -0.85772E-05  6480   0.132E-04 0.854E-05
  51 F= -.42459540E+03 E0= -.42459540E+03  d E =0.178409E-02  mag=    18.0000
       N       E                     dE             d eps       ncg     rms          ort
SDA:   1    -0.424531771508E+03    0.63620E-01    0.00000E+00  6480   0.167E+00 0.000E+00
CGA:   2    -0.424575151054E+03   -0.43380E-01   -0.43334E-01  6480   0.840E-01 0.177E-02
CGA:   3    -0.424590435830E+03   -0.15285E-01   -0.15287E-01  6480   0.198E-01 0.296E-04
CGA:   4    -0.424593940793E+03   -0.35050E-02   -0.34759E-02  6480   0.453E-02-0.504E-03
CGA:   5    -0.424594737268E+03   -0.79647E-03   -0.79078E-03  6480   0.117E-02-0.112E-03
CGA:   6    -0.424594948231E+03   -0.21096E-03   -0.21483E-03  6480   0.304E-03 0.957E-04
CGA:   7    -0.424595016362E+03   -0.68131E-04   -0.68878E-04  6480   0.992E-04 0.458E-04
CGA:   8    -0.424595049057E+03   -0.32695E-04   -0.32322E-04  6480   0.547E-04 0.639E-05
CGA:   9    -0.424595062239E+03   -0.13182E-04   -0.13202E-04  6480   0.231E-04 0.168E-04
CGA:  10    -0.424595069329E+03   -0.70898E-05   -0.70422E-05  6480   0.109E-04 0.811E-05
  52 F= -.42459507E+03 E0= -.42459507E+03  d E =0.330995E-03  mag=    18.0000
       N       E                     dE             d eps       ncg     rms          ort
SDA:   1    -0.424168696194E+03    0.42637E+00    0.00000E+00  6480   0.107E+01 0.000E+00
CGA:   2    -0.424466486776E+03   -0.29779E+00   -0.29764E+00  6480   0.541E+00 0.389E-02
CGA:   3    -0.424561753441E+03   -0.95267E-01   -0.95296E-01  6480   0.122E+00 0.279E-03
CGA:   4    -0.424582756336E+03   -0.21003E-01   -0.20964E-01  6480   0.266E-01-0.568E-03
CGA:   5    -0.424587485297E+03   -0.47290E-02   -0.47347E-02  6480   0.703E-02 0.963E-04
CGA:   6    -0.424588885494E+03   -0.14002E-02   -0.14116E-02  6480   0.193E-02 0.343E-03
CGA:   7    -0.424589342923E+03   -0.45743E-03   -0.45815E-03  6480   0.671E-03 0.131E-03
CGA:   8    -0.424589533638E+03   -0.19071E-03   -0.18807E-03  6480   0.298E-03 0.850E-04
CGA:   9    -0.424589613548E+03   -0.79910E-04   -0.79538E-04  6480   0.119E-03 0.991E-04
CGA:  10    -0.424589651673E+03   -0.38125E-04   -0.37843E-04  6480   0.552E-04 0.498E-04
CGA:  11    -0.424589676577E+03   -0.24904E-04   -0.23859E-04  6480   0.311E-04 0.146E-04
CGA:  12    -0.424589684448E+03   -0.78705E-05   -0.83107E-05  6480   0.155E-04 0.170E-04
  53 F= -.42458968E+03 E0= -.42458968E+03  d E =0.538488E-02  mag=    18.0000
       N       E                     dE             d eps       ncg     rms          ort
SDA:   1    -0.424327562524E+03    0.26211E+00    0.00000E+00  6480   0.649E+00 0.000E+00
CGA:   2    -0.424527304600E+03   -0.19974E+00   -0.19962E+00  6480   0.274E+00 0.170E-02
CGA:   3    -0.424575398046E+03   -0.48093E-01   -0.47989E-01  6480   0.668E-01-0.160E-02
CGA:   4    -0.424586837882E+03   -0.11440E-01   -0.11410E-01  6480   0.133E-01-0.460E-03
CGA:   5    -0.424589305035E+03   -0.24672E-02   -0.24710E-02  6480   0.364E-02 0.757E-04
CGA:   6    -0.424590063485E+03   -0.75845E-03   -0.75919E-03  6480   0.104E-02 0.275E-04
CGA:   7    -0.424590324868E+03   -0.26138E-03   -0.26187E-03  6480   0.419E-03-0.260E-04
CGA:   8    -0.424590453250E+03   -0.12838E-03   -0.13361E-03  6480   0.248E-03-0.556E-04
CGA:   9    -0.424590522965E+03   -0.69715E-04   -0.73754E-04  6480   0.120E-03-0.383E-04
CGA:  10    -0.424590548232E+03   -0.25267E-04   -0.25202E-04  6480   0.376E-04 0.119E-04
CGA:  11    -0.424590558128E+03   -0.98960E-05   -0.99262E-05  6480   0.153E-04 0.900E-05
  54 F= -.42459056E+03 E0= -.42459056E+03  d E =-.873680E-03  mag=    18.0000
       N       E                     dE             d eps       ncg     rms          ort
SDA:   1    -0.424520970683E+03    0.69578E-01    0.00000E+00  6480   0.211E+00 0.000E+00
CGA:   2    -0.424567281210E+03   -0.46311E-01   -0.46274E-01  6480   0.968E-01-0.140E-02
CGA:   3    -0.424586190706E+03   -0.18909E-01   -0.18913E-01  6480   0.275E-01 0.373E-04
[...]
CGA:  13    -0.424638876030E+03   -0.41633E-04   -0.95249E-04  6480   0.239E-03-0.114E-03
CGA:  14    -0.424638919821E+03   -0.43791E-04   -0.47294E-04  6480   0.223E-04 0.443E-04
CGA:  15    -0.424638928260E+03   -0.84394E-05   -0.84295E-05  6480   0.640E-05 0.213E-06
  66 F= -.42463893E+03 E0= -.42463893E+03  d E =-.243188E-01  mag=    18.0000
       N       E                     dE             d eps       ncg     rms          ort
SDA:   1    -0.421330190877E+03    0.33087E+01    0.00000E+00  6480   0.828E+01 0.000E+00
CGA:   2    -0.423885575523E+03   -0.25554E+01   -0.25555E+01  6480   0.320E+01-0.695E-02
CGA:   3    -0.424475547262E+03   -0.58997E+00   -0.59037E+00  6480   0.803E+00 0.293E-02
CGA:   4    -0.424604445043E+03   -0.12890E+00   -0.12917E+00  6480   0.152E+00 0.210E-02
CGA:   5    -0.424634528061E+03   -0.30083E-01   -0.30121E-01  6480   0.434E-01 0.544E-03
CGA:   6    -0.424643310470E+03   -0.87824E-02   -0.87915E-02  6480   0.120E-01 0.134E-03
CGA:   7    -0.424646366216E+03   -0.30557E-02   -0.30559E-02  6480   0.487E-02 0.219E-04
CGA:   8    -0.424647840302E+03   -0.14741E-02   -0.14733E-02  6480   0.252E-02 0.187E-04
CGA:   9    -0.424648623423E+03   -0.78312E-03   -0.77558E-03  6480   0.103E-02 0.161E-03
CGA:  10    -0.424648959713E+03   -0.33629E-03   -0.33331E-03  6480   0.398E-03 0.747E-04
CGA:  11    -0.424649115262E+03   -0.15555E-03   -0.15948E-03  6480   0.226E-03-0.365E-04
CGA:  12    -0.424649193530E+03   -0.78268E-04   -0.78889E-04  6480   0.117E-03-0.565E-05
CGA:  13    -0.424649240682E+03   -0.47152E-04   -0.67649E-04  6480   0.128E-03-0.653E-04
CGA:  14    -0.424649266868E+03   -0.26186E-04   -0.27576E-04  6480   0.132E-04 0.182E-04
CGA:  15    -0.424649272393E+03   -0.55248E-05   -0.55092E-05  6480   0.528E-05 0.198E-06
  67 F= -.42464927E+03 E0= -.42464927E+03  d E =-.103441E-01  mag=    18.0000
       N       E                     dE             d eps       ncg     rms          ort
SDA:   1    -0.419565404918E+03    0.50839E+01    0.00000E+00  6480   0.140E+02 0.000E+00
CGA:   2    -0.423004284029E+03   -0.34389E+01   -0.34409E+01  6480   0.645E+01 0.173E-01
CGA:   3    -0.424207117035E+03   -0.12028E+01   -0.12032E+01  6480   0.182E+01 0.299E-02
CGA:   4    -0.424514996308E+03   -0.30788E+00   -0.30760E+00  6480   0.348E+00-0.248E-02
CGA:   5    -0.424578341084E+03   -0.63345E-01   -0.63251E-01  6480   0.945E-01-0.116E-02
CGA:   6    -0.424598438479E+03   -0.20097E-01   -0.20087E-01  6480   0.283E-01-0.203E-03
CGA:   7    -0.424605338571E+03   -0.69001E-02   -0.69092E-02  6480   0.112E-01 0.328E-03
CGA:   8    -0.424608709489E+03   -0.33709E-02   -0.33664E-02  6480   0.555E-02 0.160E-03
CGA:   9    -0.424610656100E+03   -0.19466E-02   -0.19708E-02  6480   0.293E-02-0.310E-03
CGA:  10    -0.424611532756E+03   -0.87666E-03   -0.88197E-03  6480   0.122E-02-0.122E-03
CGA:  11    -0.424611897647E+03   -0.36489E-03   -0.36425E-03  6480   0.481E-03 0.189E-04
CGA:  12    -0.424612086183E+03   -0.18854E-03   -0.19355E-03  6480   0.267E-03-0.429E-04
CGA:  13    -0.424612154390E+03   -0.68207E-04   -0.68424E-04  6480   0.101E-03 0.573E-04
CGA:  14    -0.424612182514E+03   -0.28124E-04   -0.29544E-04  6480   0.345E-04 0.332E-04
CGA:  15    -0.424612199768E+03   -0.17254E-04   -0.17664E-04  6480   0.188E-04-0.405E-05
CGA:  16    -0.424612203992E+03   -0.42244E-05   -0.43277E-05  6480   0.888E-05 0.381E-05
  68 F= -.42461220E+03 E0= -.42461220E+03  d E =0.370684E-01  mag=    18.0000
       N       E                     dE             d eps       ncg     rms          ort
SDA:   1    -0.415466566376E+03    0.91456E+01    0.00000E+00  6480   0.226E+02 0.000E+00
CGA:   2    -0.422626541058E+03   -0.71600E+01   -0.71588E+01  6480   0.770E+01 0.190E-01
CGA:   3    -0.424132347710E+03   -0.15058E+01   -0.15061E+01  6480   0.196E+01-0.293E-02
CGA:   4    -0.424444505152E+03   -0.31216E+00   -0.31190E+00  6480   0.403E+00-0.245E-02
CGA:   5    -0.424524788364E+03   -0.80283E-01   -0.80268E-01  6480   0.114E+00-0.255E-03
CGA:   6    -0.424547809435E+03   -0.23021E-01   -0.23048E-01  6480   0.341E-01 0.347E-03
CGA:   7    -0.424556659270E+03   -0.88498E-02   -0.88485E-02  6480   0.142E-01-0.161E-03
CGA:   8    -0.424561122864E+03   -0.44636E-02   -0.44942E-02  6480   0.778E-02-0.606E-03
CGA:   9    -0.424563526343E+03   -0.24035E-02   -0.24261E-02  6480   0.331E-02-0.405E-03
CGA:  10    -0.424564504579E+03   -0.97824E-03   -0.98448E-03  6480   0.124E-02-0.155E-03
CGA:  11    -0.424564899459E+03   -0.39488E-03   -0.39887E-03  6480   0.568E-03-0.638E-04
CGA:  12    -0.424565099901E+03   -0.20044E-03   -0.19873E-03  6480   0.280E-03 0.184E-04
CGA:  13    -0.424565211916E+03   -0.11201E-03   -0.11034E-03  6480   0.123E-03 0.166E-04
CGA:  14    -0.424565252940E+03   -0.41024E-04   -0.40540E-04  6480   0.375E-04 0.203E-04
CGA:  15    -0.424565264023E+03   -0.11083E-04   -0.11414E-04  6480   0.115E-04 0.120E-04
CGA:  16    -0.424565267807E+03   -0.37839E-05   -0.39212E-05  6480   0.491E-05 0.484E-05
  69 F= -.42456527E+03 E0= -.42456527E+03  d E =0.469362E-01  mag=    18.0000
       N       E                     dE             d eps       ncg     rms          ort
SDA:   1    -0.417800074519E+03    0.67652E+01    0.00000E+00  6480   0.187E+02 0.000E+00
CGA:   2    -0.422667156633E+03   -0.48671E+01   -0.48681E+01  6480   0.774E+01 0.948E-02
CGA:   3    -0.424132792818E+03   -0.14656E+01   -0.14661E+01  6480   0.227E+01 0.225E-02
CGA:   4    -0.424506621426E+03   -0.37383E+00   -0.37428E+00  6480   0.421E+00 0.306E-02
CGA:   5    -0.424585727065E+03   -0.79106E-01   -0.79220E-01  6480   0.117E+00 0.134E-02
CGA:   6    -0.424610259742E+03   -0.24533E-01   -0.24567E-01  6480   0.349E-01 0.538E-03
CGA:   7    -0.424619256270E+03   -0.89965E-02   -0.89962E-02  6480   0.148E-01-0.662E-04
CGA:   8    -0.424623688043E+03   -0.44318E-02   -0.44282E-02  6480   0.749E-02 0.971E-04
CGA:   9    -0.424626072413E+03   -0.23844E-02   -0.23672E-02  6480   0.323E-02 0.347E-03
CGA:  10    -0.424627152107E+03   -0.10797E-02   -0.10783E-02  6480   0.138E-02 0.253E-04
CGA:  11    -0.424627635643E+03   -0.48354E-03   -0.48764E-03  6480   0.666E-03-0.522E-04
CGA:  12    -0.424627867702E+03   -0.23206E-03   -0.22996E-03  6480   0.299E-03 0.243E-04
CGA:  13    -0.424628001861E+03   -0.13416E-03   -0.16015E-03  6480   0.240E-03-0.109E-03
CGA:  14    -0.424628044347E+03   -0.42486E-04   -0.42481E-04  6480   0.946E-04-0.560E-06
CGA:  15    -0.424628064114E+03   -0.19767E-04   -0.20581E-04  6480   0.312E-04 0.114E-04
CGA:  16    -0.424628075010E+03   -0.10896E-04   -0.10990E-04  6480   0.151E-04-0.330E-05
CGA:  17    -0.424628077952E+03   -0.29412E-05   -0.31484E-05  6480   0.847E-05 0.386E-05
  70 F= -.42462808E+03 E0= -.42462808E+03  d E =-.628101E-01  mag=    18.0000
       N       E                     dE             d eps       ncg     rms          ort
SDA:   1    -0.405987515067E+03    0.18641E+02    0.00000E+00  6480   0.468E+02 0.000E+00
CGA:   2    -0.420440997997E+03   -0.14453E+02   -0.14450E+02  6480   0.165E+02 0.434E-01
CGA:   3    -0.423667380516E+03   -0.32264E+01   -0.32292E+01  6480   0.425E+01 0.171E-01
CGA:   4    -0.424344110428E+03   -0.67673E+00   -0.67766E+00  6480   0.845E+00 0.543E-02
CGA:   5    -0.424515605483E+03   -0.17150E+00   -0.17151E+00  6480   0.246E+00 0.146E-03
CGA:   6    -0.424566345429E+03   -0.50740E-01   -0.50757E-01  6480   0.754E-01 0.124E-03
CGA:   7    -0.424586244893E+03   -0.19899E-01   -0.19899E-01  6480   0.322E-01-0.165E-03
CGA:   8    -0.424596068666E+03   -0.98238E-02   -0.98260E-02  6480   0.164E-01-0.617E-04
CGA:   9    -0.424601074108E+03   -0.50054E-02   -0.49866E-02  6480   0.630E-02 0.487E-03
CGA:  10    -0.424603181923E+03   -0.21078E-02   -0.21225E-02  6480   0.260E-02-0.254E-03
CGA:  11    -0.424604072239E+03   -0.89032E-03   -0.91663E-03  6480   0.138E-02-0.278E-03
CGA:  12    -0.424604499222E+03   -0.42698E-03   -0.41995E-03  6480   0.608E-03 0.107E-03
CGA:  13    -0.424604783690E+03   -0.28447E-03   -0.31589E-03  6480   0.451E-03-0.156E-03
CGA:  14    -0.424604885379E+03   -0.10169E-03   -0.10163E-03  6480   0.169E-03 0.412E-05
CGA:  15    -0.424604921991E+03   -0.36612E-04   -0.38478E-04  6480   0.520E-04 0.288E-04
CGA:  16    -0.424604941714E+03   -0.19724E-04   -0.20074E-04  6480   0.236E-04-0.825E-05
CGA:  17    -0.424604947471E+03   -0.57567E-05   -0.57544E-05  6480   0.119E-04 0.216E-05
  71 F= -.42460495E+03 E0= -.42460495E+03  d E =0.231305E-01  mag=    18.0000
       N       E                     dE             d eps       ncg     rms          ort
SDA:   1    -0.418807500426E+03    0.57974E+01    0.00000E+00  6480   0.148E+02 0.000E+00
CGA:   2    -0.423206935171E+03   -0.43994E+01   -0.43991E+01  6480   0.595E+01 0.993E-02
CGA:   3    -0.424270596052E+03   -0.10637E+01   -0.10640E+01  6480   0.162E+01 0.208E-02
CGA:   4    -0.424546032224E+03   -0.27544E+00   -0.27545E+00  6480   0.332E+00-0.359E-03
CGA:   5    -0.424608780448E+03   -0.62748E-01   -0.62756E-01  6480   0.936E-01-0.272E-04
CGA:   6    -0.424628469192E+03   -0.19689E-01   -0.19694E-01  6480   0.284E-01 0.563E-04
CGA:   7    -0.424635580659E+03   -0.71115E-02   -0.71121E-02  6480   0.113E-01 0.358E-04
CGA:   8    -0.424638898799E+03   -0.33181E-02   -0.33223E-02  6480   0.531E-02-0.143E-03
CGA:   9    -0.424640603775E+03   -0.17050E-02   -0.17237E-02  6480   0.233E-02-0.302E-03
CGA:  10    -0.424641257345E+03   -0.65357E-03   -0.65385E-03  6480   0.843E-03-0.112E-04
CGA:  11    -0.424641522588E+03   -0.26524E-03   -0.26417E-03  6480   0.357E-03 0.239E-04
CGA:  12    -0.424641681492E+03   -0.15890E-03   -0.17674E-03  6480   0.296E-03-0.860E-04
CGA:  13    -0.424641747452E+03   -0.65960E-04   -0.65672E-04  6480   0.130E-03 0.328E-04
CGA:  14    -0.424641780789E+03   -0.33337E-04   -0.34484E-04  6480   0.446E-04 0.258E-04
CGA:  15    -0.424641800129E+03   -0.19340E-04   -0.20482E-04  6480   0.239E-04-0.113E-04
CGA:  16    -0.424641803131E+03   -0.30022E-05   -0.35221E-05  6480   0.123E-04 0.579E-05
  72 F= -.42464180E+03 E0= -.42464180E+03  d E =-.368557E-01  mag=    18.0000
       N       E                     dE             d eps       ncg     rms          ort
SDA:   1    -0.417566720096E+03    0.70751E+01    0.00000E+00  6480   0.177E+02 0.000E+00
CGA:   2    -0.423036786823E+03   -0.54701E+01   -0.54692E+01  6480   0.634E+01 0.146E-01
CGA:   3    -0.424270849709E+03   -0.12341E+01   -0.12341E+01  6480   0.164E+01-0.505E-02
CGA:   4    -0.424531794640E+03   -0.26094E+00   -0.26058E+00  6480   0.322E+00-0.317E-02
CGA:   5    -0.424596026077E+03   -0.64231E-01   -0.64242E-01  6480   0.911E-01 0.123E-03
CGA:   6    -0.424614285504E+03   -0.18259E-01   -0.18315E-01  6480   0.267E-01 0.841E-03
CGA:   7    -0.424621278265E+03   -0.69928E-02   -0.69929E-02  6480   0.111E-01 0.945E-04
CGA:   8    -0.424624807351E+03   -0.35291E-02   -0.35581E-02  6480   0.617E-02-0.501E-03
CGA:   9    -0.424626716685E+03   -0.19093E-02   -0.19240E-02  6480   0.267E-02-0.238E-03
CGA:  10    -0.424627517828E+03   -0.80114E-03   -0.80547E-03  6480   0.101E-02-0.948E-04
CGA:  11    -0.424627848836E+03   -0.33101E-03   -0.33491E-03  6480   0.473E-03-0.543E-04
CGA:  12    -0.424628006924E+03   -0.15809E-03   -0.15527E-03  6480   0.215E-03 0.381E-04
CGA:  13    -0.424628101942E+03   -0.95018E-04   -0.96106E-04  6480   0.112E-03-0.813E-05
CGA:  14    -0.424628136904E+03   -0.34962E-04   -0.34585E-04  6480   0.352E-04 0.103E-04
CGA:  15    -0.424628145561E+03   -0.86570E-05   -0.91682E-05  6480   0.106E-04 0.109E-04
  73 F= -.42462815E+03 E0= -.42462815E+03  d E =0.136576E-01  mag=    18.0000
       N       E                     dE             d eps       ncg     rms          ort
SDA:   1    -0.423520021503E+03    0.11081E+01    0.00000E+00  6480   0.291E+01 0.000E+00
CGA:   2    -0.424355260331E+03   -0.83524E+00   -0.83524E+00  6480   0.109E+01-0.187E-02
CGA:   3    -0.424564158793E+03   -0.20890E+00   -0.20893E+00  6480   0.319E+00-0.840E-06
CGA:   4    -0.424617656551E+03   -0.53498E-01   -0.53567E-01  6480   0.655E-01 0.526E-03
CGA:   5    -0.424630127716E+03   -0.12471E-01   -0.12468E-01  6480   0.182E-01-0.414E-04
CGA:   6    -0.424633960770E+03   -0.38331E-02   -0.38246E-02  6480   0.574E-02-0.156E-03
CGA:   7    -0.424635411497E+03   -0.14507E-02   -0.14501E-02  6480   0.234E-02-0.636E-04
CGA:   8    -0.424636056051E+03   -0.64455E-03   -0.64370E-03  6480   0.103E-02 0.614E-04
CGA:   9    -0.424636366181E+03   -0.31013E-03   -0.30773E-03  6480   0.392E-03 0.876E-04
CGA:  10    -0.424636507642E+03   -0.14146E-03   -0.14255E-03  6480   0.189E-03-0.160E-04
CGA:  11    -0.424636572811E+03   -0.65170E-04   -0.67005E-04  6480   0.102E-03-0.183E-04
CGA:  12    -0.424636598197E+03   -0.25385E-04   -0.25366E-04  6480   0.401E-04 0.212E-04
CGA:  13    -0.424636613579E+03   -0.15383E-04   -0.15179E-04  6480   0.194E-04 0.525E-05
CGA:  14    -0.424636622853E+03   -0.92741E-05   -0.11579E-04  6480   0.181E-04-0.916E-05
  74 F= -.42463662E+03 E0= -.42463662E+03  d E =-.847729E-02  mag=    18.0000
       N       E                     dE             d eps       ncg     rms          ort
SDA:   1    -0.423950048513E+03    0.68657E+00    0.00000E+00  6480   0.174E+01 0.000E+00
CGA:   2    -0.424491113918E+03   -0.54107E+00   -0.54115E+00  6480   0.679E+00-0.331E-02
CGA:   3    -0.424611494093E+03   -0.12038E+00   -0.12060E+00  6480   0.177E+00 0.203E-02
CGA:   4    -0.424641931785E+03   -0.30438E-01   -0.30606E-01  6480   0.364E-01 0.154E-02
CGA:   5    -0.424648930951E+03   -0.69992E-02   -0.70060E-02  6480   0.102E-01 0.773E-04
CGA:   6    -0.424651129589E+03   -0.21986E-02   -0.21860E-02  6480   0.323E-02-0.235E-03
CGA:   7    -0.424651910939E+03   -0.78135E-03   -0.78122E-03  6480   0.124E-02-0.780E-05
CGA:   8    -0.424652226176E+03   -0.31524E-03   -0.31625E-03  6480   0.474E-03 0.115E-03
CGA:   9    -0.424652378235E+03   -0.15206E-03   -0.15050E-03  6480   0.186E-03 0.579E-04
CGA:  10    -0.424652441955E+03   -0.63720E-04   -0.63178E-04  6480   0.777E-04 0.144E-04
CGA:  11    -0.424652470567E+03   -0.28612E-04   -0.28559E-04  6480   0.389E-04 0.657E-06
CGA:  12    -0.424652487003E+03   -0.16436E-04   -0.23114E-04  6480   0.511E-04-0.211E-04
CGA:  13    -0.424652496176E+03   -0.91729E-05   -0.10078E-04  6480   0.745E-05 0.102E-04
  75 F= -.42465250E+03 E0= -.42465250E+03  d E =-.158733E-01  mag=    18.0000
       N       E                     dE             d eps       ncg     rms          ort
SDA:   1    -0.424480210360E+03    0.17228E+00    0.00000E+00  6480   0.460E+00 0.000E+00
CGA:   2    -0.424597172479E+03   -0.11696E+00   -0.11705E+00  6480   0.185E+00 0.169E-02
CGA:   3    -0.424633287416E+03   -0.36115E-01   -0.36130E-01  6480   0.563E-01 0.820E-04
CGA:   4    -0.424642552081E+03   -0.92647E-02   -0.91951E-02  6480   0.100E-01-0.556E-03
CGA:   5    -0.424644479643E+03   -0.19276E-02   -0.19125E-02  6480   0.290E-02-0.162E-03
CGA:   6    -0.424645044767E+03   -0.56512E-03   -0.56993E-03  6480   0.806E-03 0.576E-04
CGA:   7    -0.424645243548E+03   -0.19878E-03   -0.20069E-03  6480   0.323E-03 0.566E-04
CGA:   8    -0.424645360156E+03   -0.11661E-03   -0.11801E-03  6480   0.215E-03-0.217E-04
CGA:   9    -0.424645433790E+03   -0.73634E-04   -0.78938E-04  6480   0.141E-03-0.463E-04
CGA:  10    -0.424645463891E+03   -0.30101E-04   -0.30047E-04  6480   0.510E-04-0.436E-05
CGA:  11    -0.424645477822E+03   -0.13930E-04   -0.13932E-04  6480   0.217E-04 0.776E-06
CGA:  12    -0.424645485173E+03   -0.73517E-05   -0.73784E-05  6480   0.115E-04-0.536E-06
  76 F= -.42464549E+03 E0= -.42464549E+03  d E =0.701100E-02  mag=    18.0000
       N       E                     dE             d eps       ncg     rms          ort
SDA:   1    -0.424546485119E+03    0.98993E-01    0.00000E+00  6480   0.280E+00 0.000E+00
CGA:   2    -0.424606486773E+03   -0.60002E-01   -0.60116E-01  6480   0.109E+00 0.145E-02
CGA:   3    -0.424629143943E+03   -0.22657E-01   -0.22649E-01  6480   0.374E-01-0.149E-03
CGA:   4    -0.424635761900E+03   -0.66180E-02   -0.65721E-02  6480   0.718E-02-0.470E-03
CGA:   5    -0.424637057972E+03   -0.12961E-02   -0.12942E-02  6480   0.200E-02-0.235E-04
CGA:   6    -0.424637454135E+03   -0.39616E-03   -0.40217E-03  6480   0.574E-03 0.925E-04
CGA:   7    -0.424637596809E+03   -0.14267E-03   -0.14390E-03  6480   0.235E-03 0.506E-04
CGA:   8    -0.424637675521E+03   -0.78712E-04   -0.78509E-04  6480   0.131E-03 0.450E-05
CGA:   9    -0.424637722636E+03   -0.47115E-04   -0.48223E-04  6480   0.803E-04-0.117E-04
CGA:  10    -0.424637742937E+03   -0.20302E-04   -0.20259E-04  6480   0.307E-04 0.568E-05
CGA:  11    -0.424637750391E+03   -0.74539E-05   -0.77310E-05  6480   0.117E-04 0.807E-05
  77 F= -.42463775E+03 E0= -.42463775E+03  d E =0.773478E-02  mag=    18.0000
       N       E                     dE             d eps       ncg     rms          ort
SDA:   1    -0.424506869799E+03    0.13087E+00    0.00000E+00  6480   0.352E+00 0.000E+00
CGA:   2    -0.424606046734E+03   -0.99177E-01   -0.99185E-01  6480   0.155E+00-0.860E-03
CGA:   3    -0.424634080613E+03   -0.28034E-01   -0.28017E-01  6480   0.418E-01-0.232E-03
CGA:   4    -0.424640771384E+03   -0.66908E-02   -0.67255E-02  6480   0.742E-02 0.312E-03
CGA:   5    -0.424642175623E+03   -0.14042E-02   -0.14101E-02  6480   0.210E-02 0.790E-04
CGA:   6    -0.424642639616E+03   -0.46399E-03   -0.46077E-03  6480   0.640E-03-0.809E-04
CGA:   7    -0.424642801276E+03   -0.16166E-03   -0.16204E-03  6480   0.279E-03-0.467E-04
CGA:   8    -0.424642870450E+03   -0.69174E-04   -0.68973E-04  6480   0.115E-03 0.191E-04
CGA:   9    -0.424642906481E+03   -0.36031E-04   -0.35469E-04  6480   0.465E-04 0.172E-04
CGA:  10    -0.424642926114E+03   -0.19633E-04   -0.20523E-04  6480   0.310E-04-0.710E-05
CGA:  11    -0.424642933933E+03   -0.78189E-05   -0.78045E-05  6480   0.137E-04 0.415E-06
  78 F= -.42464293E+03 E0= -.42464293E+03  d E =-.518354E-02  mag=    18.0000
       N       E                     dE             d eps       ncg     rms          ort
SDA:   1    -0.424608876622E+03    0.34049E-01    0.00000E+00  6480   0.955E-01 0.000E+00
CGA:   2    -0.424628571877E+03   -0.19695E-01   -0.19712E-01  6480   0.449E-01 0.238E-03
CGA:   3    -0.424637421765E+03   -0.88499E-02   -0.88663E-02  6480   0.129E-01 0.235E-03
CGA:   4    -0.424639723989E+03   -0.23022E-02   -0.23092E-02  6480   0.303E-02 0.837E-04
CGA:   5    -0.424640285421E+03   -0.56143E-03   -0.55840E-03  6480   0.790E-03-0.434E-04
CGA:   6    -0.424640470316E+03   -0.18489E-03   -0.18330E-03  6480   0.299E-03-0.102E-03
CGA:   7    -0.424640526865E+03   -0.56549E-04   -0.56520E-04  6480   0.922E-04-0.941E-06
CGA:   8    -0.424640541349E+03   -0.14484E-04   -0.16446E-04  6480   0.279E-04 0.281E-04
CGA:   9    -0.424640546596E+03   -0.52474E-05   -0.62184E-05  6480   0.117E-04 0.131E-04
  79 F= -.42464055E+03 E0= -.42464055E+03  d E =0.238734E-02  mag=    18.0000
       N       E                     dE             d eps       ncg     rms          ort
SDA:   1    -0.424624726802E+03    0.15815E-01    0.00000E+00  6480   0.398E-01 0.000E+00
CGA:   2    -0.424635077657E+03   -0.10351E-01   -0.10338E-01  6480   0.163E-01 0.630E-03
CGA:   3    -0.424638312715E+03   -0.32351E-02   -0.32272E-02  6480   0.479E-02-0.173E-03
CGA:   4    -0.424639175155E+03   -0.86244E-03   -0.84583E-03  6480   0.108E-02-0.279E-03
CGA:   5    -0.424639357015E+03   -0.18186E-03   -0.18178E-03  6480   0.276E-03-0.152E-05
CGA:   6    -0.424639399744E+03   -0.42730E-04   -0.46341E-04  6480   0.702E-04 0.556E-04
CGA:   7    -0.424639415779E+03   -0.16035E-04   -0.16688E-04  6480   0.291E-04 0.207E-04
CGA:   8    -0.424639428155E+03   -0.12376E-04   -0.16669E-04  6480   0.475E-04-0.200E-04
CGA:   9    -0.424639436954E+03   -0.87994E-05   -0.87597E-05  6480   0.951E-05-0.737E-06
CGA:  10    -0.424639441622E+03   -0.46681E-05    0.19575E-04  6480   0.280E-05 0.181E-05
  80 F= -.42463944E+03 E0= -.42463944E+03  d E =0.110497E-02  mag=    18.0000
