 vasp.6.1.2 22Jul20 (build Apr 14 2021 21:39:43) complex                        
  
 executed on             LinuxIFC date 2022.04.20  11:14:11
 running on   64 total cores
 distrk:  each k-point on   64 cores,    1 groups
 distr:  one band on NCORE=  16 cores,    4 groups


--------------------------------------------------------------------------------------------------------


 INCAR:
 POTCAR:    PAW_PBE Ca_sv 06Sep2000               
 POTCAR:    PAW_PBE Co_pv 23Apr2009               
 POTCAR:    PAW_PBE S 06Sep2000                   
 POTCAR:    PAW_PBE O 08Apr2002                   
 POTCAR:    PAW_PBE Ca_sv 06Sep2000               
   VRHFIN =Ca: 3s3p4s                                                                               
   LEXCH  = PE                                                                                      
   EATOM  =  1006.0909 eV,   73.9456 Ry                                                             
                                                                                                    
   TITEL  = PAW_PBE Ca_sv 06Sep2000                                                                 
   LULTRA =        F    use ultrasoft PP ?                                                          
   IUNSCR =        1    unscreen: 0-lin 1-nonlin 2-no                                               
   RPACOR =    2.000    partial core radius                                                         
   POMASS =   40.078; ZVAL   =   10.000    mass and valenz                                          
   RCORE  =    2.300    outmost cutoff radius                                                       
   RWIGS  =    2.500; RWIGS  =    1.323    wigner-seitz radius (au A)                               
   ENMAX  =  266.622; ENMIN  =  199.967 eV                                                          
   RCLOC  =    1.808    cutoff for local pot                                                        
   LCOR   =        T    correct aug charges                                                         
   LPAW   =        T    paw PP                                                                      
   EAUG   =  420.852                                                                                
   RMAX   =    2.359    core radius for proj-oper                                                   
   RAUG   =    1.300    factor for augmentation sphere                                              
   RDEP   =    2.392    radius for radial grids                                                     
   RDEPT  =    1.987    core radius for aug-charge                                                  
                                                                                                    
   Atomic configuration                                                                             
    7 entries                                                                                       
     n  l   j            E        occ.                                                              
     1  0  0.50     -3949.1705   2.0000                                                             
     2  0  0.50      -414.3434   2.0000                                                             
     2  1  1.50      -334.7047   6.0000                                                             
     3  0  0.50       -47.0896   2.0000                                                             
     4  0  0.50        -3.7663   2.0000                                                             
     3  1  1.50       -28.0061   6.0000                                                             
     3  2  1.50        -4.0817   0.0000                                                             
   Description                                                                                      
     l       E           TYP  RCUT    TYP  RCUT                                                     
     0    -47.0896403     23  2.300                                                                 
     0     -3.7663320     23  2.300                                                                 
     1    -28.0060855     23  2.300                                                                 
     1      6.8029130     23  2.300                                                                 
     2     -4.0817478     23  2.300                                                                 
     2      0.4464412     23  2.300                                                                 
  local pseudopotential read in
  partial core-charges read in
  partial kinetic energy density read in
  atomic valenz-charges read in
  non local Contribution for L=           0  read in
    real space projection operators read in
  non local Contribution for L=           0  read in
    real space projection operators read in
  non local Contribution for L=           1  read in
    real space projection operators read in
  non local Contribution for L=           1  read in
    real space projection operators read in
  non local Contribution for L=           2  read in
    real space projection operators read in
  non local Contribution for L=           2  read in
    real space projection operators read in
    PAW grid and wavefunctions read in
 
   number of l-projection  operators is LMAX  =           6
   number of lm-projection operators is LMMAX =          18
 
 POTCAR:    PAW_PBE Co_pv 23Apr2009               
   VRHFIN =Co: 3pd7s1                                                                               
   LEXCH  = PE                                                                                      
   EATOM  =  2948.1334 eV,  216.6817 Ry                                                             
                                                                                                    
   TITEL  = PAW_PBE Co_pv 23Apr2009                                                                 
   LULTRA =        F    use ultrasoft PP ?                                                          
   IUNSCR =        1    unscreen: 0-lin 1-nonlin 2-no                                               
   RPACOR =    2.000    partial core radius                                                         
   POMASS =   58.933; ZVAL   =   15.000    mass and valenz                                          
   RCORE  =    2.300    outmost cutoff radius                                                       
   RWIGS  =    2.460; RWIGS  =    1.302    wigner-seitz radius (au A)                               
   ENMAX  =  271.042; ENMIN  =  203.281 eV                                                          
   ICORE  =        3    local potential                                                             
   LCOR   =        T    correct aug charges                                                         
   LPAW   =        T    paw PP                                                                      
   EAUG   =  543.066                                                                                
   DEXC   =    0.000                                                                                
   RMAX   =    2.360    core radius for proj-oper                                                   
   RAUG   =    1.300    factor for augmentation sphere                                              
   RDEP   =    2.393    radius for radial grids                                                     
   RDEPT  =    1.841    core radius for aug-charge                                                  
                                                                                                    
   Atomic configuration                                                                             
    8 entries                                                                                       
     n  l   j            E        occ.                                                              
     1  0  0.50     -7587.6674   2.0000                                                             
     2  0  0.50      -893.6084   2.0000                                                             
     2  1  1.50      -764.5805   6.0000                                                             
     3  0  0.50       -97.5973   2.0000                                                             
     3  1  1.50       -60.9648   6.0000                                                             
     3  2  2.50        -4.2382   8.0000                                                             
     4  0  0.50        -4.3746   1.0000                                                             
     4  3  2.50        -1.3606   0.0000                                                             
   Description                                                                                      
     l       E           TYP  RCUT    TYP  RCUT                                                     
     1    -60.9647990     23  2.000                                                                 
     1     -5.4423304     23  2.000                                                                 
     2     -4.2382362     23  2.300                                                                 
     2     -5.5988188     23  2.300                                                                 
     0     -4.3745797     23  2.300                                                                 
     0      5.7660125     23  2.300                                                                 
     3     -1.3605826     23  2.300                                                                 
  local pseudopotential read in
  partial core-charges read in
  partial kinetic energy density read in
  atomic valenz-charges read in
  non local Contribution for L=           1  read in
    real space projection operators read in
  non local Contribution for L=           1  read in
    real space projection operators read in
  non local Contribution for L=           2  read in
    real space projection operators read in
  non local Contribution for L=           2  read in
    real space projection operators read in
  non local Contribution for L=           0  read in
    real space projection operators read in
  non local Contribution for L=           0  read in
    real space projection operators read in
    PAW grid and wavefunctions read in
 
   number of l-projection  operators is LMAX  =           6
   number of lm-projection operators is LMMAX =          18
 
 POTCAR:    PAW_PBE S 06Sep2000                   
   VRHFIN =S : s2p4                                                                                 
   LEXCH  = PE                                                                                      
   EATOM  =   276.8230 eV,   20.3459 Ry                                                             
                                                                                                    
   TITEL  = PAW_PBE S 06Sep2000                                                                     
   LULTRA =        F    use ultrasoft PP ?                                                          
   IUNSCR =        1    unscreen: 0-lin 1-nonlin 2-no                                               
   RPACOR =    1.500    partial core radius                                                         
   POMASS =   32.066; ZVAL   =    6.000    mass and valenz                                          
   RCORE  =    1.900    outmost cutoff radius                                                       
   RWIGS  =    2.200; RWIGS  =    1.164    wigner-seitz radius (au A)                               
   ENMAX  =  258.689; ENMIN  =  194.016 eV                                                          
   ICORE  =        2    local potential                                                             
   LCOR   =        T    correct aug charges                                                         
   LPAW   =        T    paw PP                                                                      
   EAUG   =  335.092                                                                                
   DEXC   =    0.000                                                                                
   RMAX   =    1.942    core radius for proj-oper                                                   
   RAUG   =    1.300    factor for augmentation sphere                                              
   RDEP   =    1.954    radius for radial grids                                                     
   RDEPT  =    1.744    core radius for aug-charge                                                  
                                                                                                    
   Atomic configuration                                                                             
    6 entries                                                                                       
     n  l   j            E        occ.                                                              
     1  0  0.50     -2405.8406   2.0000                                                             
     2  0  0.50      -211.7007   2.0000                                                             
     2  1  1.50      -156.4958   6.0000                                                             
     3  0  0.50       -17.2562   2.0000                                                             
     3  1  0.50        -7.0085   4.0000                                                             
     3  2  1.50        -6.8029   0.0000                                                             
   Description                                                                                      
     l       E           TYP  RCUT    TYP  RCUT                                                     
     0    -17.2561641     23  1.900                                                                 
     0    -15.8743224     23  1.900                                                                 
     1     -7.0085400     23  1.900                                                                 
     1     -2.7779785     23  1.900                                                                 
     2     -6.8029130     23  1.900                                                                 
  local pseudopotential read in
  partial core-charges read in
  partial kinetic energy density read in
  atomic valenz-charges read in
  non local Contribution for L=           0  read in
    real space projection operators read in
  non local Contribution for L=           0  read in
    real space projection operators read in
  non local Contribution for L=           1  read in
    real space projection operators read in
  non local Contribution for L=           1  read in
    real space projection operators read in
    PAW grid and wavefunctions read in
 
   number of l-projection  operators is LMAX  =           4
   number of lm-projection operators is LMMAX =           8
 
 POTCAR:    PAW_PBE O 08Apr2002                   
   VRHFIN =O: s2p4                                                                                  
   LEXCH  = PE                                                                                      
   EATOM  =   432.3788 eV,   31.7789 Ry                                                             
                                                                                                    
   TITEL  = PAW_PBE O 08Apr2002                                                                     
   LULTRA =        F    use ultrasoft PP ?                                                          
   IUNSCR =        1    unscreen: 0-lin 1-nonlin 2-no                                               
   RPACOR =    1.200    partial core radius                                                         
   POMASS =   16.000; ZVAL   =    6.000    mass and valenz                                          
   RCORE  =    1.520    outmost cutoff radius                                                       
   RWIGS  =    1.550; RWIGS  =    0.820    wigner-seitz radius (au A)                               
   ENMAX  =  400.000; ENMIN  =  300.000 eV                                                          
   ICORE  =        2    local potential                                                             
   LCOR   =        T    correct aug charges                                                         
   LPAW   =        T    paw PP                                                                      
   EAUG   =  605.392                                                                                
   DEXC   =    0.000                                                                                
   RMAX   =    1.553    core radius for proj-oper                                                   
   RAUG   =    1.300    factor for augmentation sphere                                              
   RDEP   =    1.550    radius for radial grids                                                     
   RDEPT  =    1.329    core radius for aug-charge                                                  
                                                                                                    
   Atomic configuration                                                                             
    4 entries                                                                                       
     n  l   j            E        occ.                                                              
     1  0  0.50      -514.6923   2.0000                                                             
     2  0  0.50       -23.9615   2.0000                                                             
     2  1  0.50        -9.0305   4.0000                                                             
     3  2  1.50        -9.5241   0.0000                                                             
   Description                                                                                      
     l       E           TYP  RCUT    TYP  RCUT                                                     
     0    -23.9615318     23  1.200                                                                 
     0     -9.5240782     23  1.200                                                                 
     1     -9.0304911     23  1.520                                                                 
     1      8.1634956     23  1.520                                                                 
     2     -9.5240782      7  1.500                                                                 
  local pseudopotential read in
  partial core-charges read in
  partial kinetic energy density read in
  kinetic energy density of atom read in
  atomic valenz-charges read in
  non local Contribution for L=           0  read in
    real space projection operators read in
  non local Contribution for L=           0  read in
    real space projection operators read in
  non local Contribution for L=           1  read in
    real space projection operators read in
  non local Contribution for L=           1  read in
    real space projection operators read in
    PAW grid and wavefunctions read in
 
   number of l-projection  operators is LMAX  =           4
   number of lm-projection operators is LMMAX =           8
 
 Optimization of the real space projectors (new method)

 maximal supplied QI-value         = 16.25
 optimisation between [QCUT,QGAM] = [ 11.54, 23.24] = [ 37.28,151.24] Ry 
 Optimized for a Real-space Cutoff    1.58 Angstroem

   l    n(q)    QCUT    max X(q) W(low)/X(q) W(high)/X(q)  e(spline) 
   0     11    11.539    11.817    0.25E-04    0.22E-05    0.26E-07
   0     11    11.539     8.461    0.39E-04    0.49E-05    0.55E-07
   1     11    11.539     3.957    0.21E-05    0.44E-05    0.32E-07
   1     11    11.539     4.314    0.56E-04    0.44E-04    0.19E-06
   2     10    11.539    14.565    0.25E-03    0.21E-04    0.75E-06
   2     10    11.539    14.552    0.23E-03    0.22E-04    0.72E-06
 Optimization of the real space projectors (new method)

 maximal supplied QI-value         = 16.25
 optimisation between [QCUT,QGAM] = [ 11.54, 23.24] = [ 37.28,151.24] Ry 
 Optimized for a Real-space Cutoff    1.32 Angstroem

   l    n(q)    QCUT    max X(q) W(low)/X(q) W(high)/X(q)  e(spline) 
   1      9    11.539     4.946    0.12E-03    0.47E-03    0.20E-06
   1      9    11.539     5.991    0.19E-03    0.70E-03    0.29E-06
   2      8    11.539    46.947    0.22E-03    0.40E-03    0.23E-06
   2      8    11.539    42.928    0.24E-03    0.42E-03    0.23E-06
   0      9    11.539    68.324    0.11E-03    0.13E-03    0.74E-07
   0      9    11.539    36.926    0.10E-03    0.12E-03    0.70E-07
 Optimization of the real space projectors (new method)

 maximal supplied QI-value         = 19.84
 optimisation between [QCUT,QGAM] = [ 11.51, 23.22] = [ 37.09,150.92] Ry 
 Optimized for a Real-space Cutoff    1.21 Angstroem

   l    n(q)    QCUT    max X(q) W(low)/X(q) W(high)/X(q)  e(spline) 
   0      8    11.508   187.594    0.96E-04    0.18E-03    0.54E-07
   0      8    11.508   164.243    0.96E-04    0.18E-03    0.54E-07
   1      8    11.508    67.533    0.18E-03    0.65E-04    0.94E-07
   1      8    11.508    50.729    0.18E-03    0.63E-04    0.92E-07
 Optimization of the real space projectors (new method)

 maximal supplied QI-value         = 24.76
 optimisation between [QCUT,QGAM] = [ 11.64, 23.27] = [ 37.91,151.63] Ry 
 Optimized for a Real-space Cutoff    1.14 Angstroem

   l    n(q)    QCUT    max X(q) W(low)/X(q) W(high)/X(q)  e(spline) 
   0      8    11.635    20.381    0.10E-03    0.33E-03    0.24E-06
   0      8    11.635    15.268    0.11E-03    0.35E-03    0.26E-06
   1      7    11.635     5.964    0.24E-03    0.31E-03    0.30E-06
   1      7    11.635     5.382    0.22E-03    0.25E-03    0.26E-06
  PAW_PBE Ca_sv 06Sep2000               :
 energy of atom  1       EATOM=-1006.0909
 kinetic energy error for atom=    0.0022 (will be added to EATOM!!)
  PAW_PBE Co_pv 23Apr2009               :
 energy of atom  2       EATOM=-2948.1334
 kinetic energy error for atom=    0.0056 (will be added to EATOM!!)
  PAW_PBE S 06Sep2000                   :
 energy of atom  3       EATOM= -276.8230
 kinetic energy error for atom=    0.0016 (will be added to EATOM!!)
  PAW_PBE O 08Apr2002                   :
 energy of atom  4       EATOM= -432.3788
 kinetic energy error for atom=    0.0208 (will be added to EATOM!!)
 
 
 POSCAR: Ca2 Co4 S6 O24
  positions in direct lattice
  velocities in cartesian coordinates

 METAGGA = SCAN     LMAXTAU =  6    LMIXTAU =  F

 exchange correlation table for  LEXCH =        8
   RHO(1)=    0.500       N(1)  =     2000
   RHO(2)=  100.500       N(2)  =     4000
 


--------------------------------------------------------------------------------------------------------


 ion  position               nearest neighbor table
   1  0.498  0.497  0.498-  17 2.35  22 2.35  13 2.37  24 2.37  15 2.38  20 2.39
   2  0.998  0.997  0.998-  14 2.35  21 2.35  18 2.37  19 2.38  16 2.38  23 2.38
   3  0.645  0.647  0.645-  26 2.01  30 2.03  28 2.04  15 2.11  13 2.11  17 2.14
   4  0.145  0.147  0.145-  25 2.02  29 2.02  27 2.04  18 2.11  16 2.12  14 2.13
   5  0.850  0.849  0.851-  36 2.02  34 2.02  32 2.03  19 2.10  23 2.12  21 2.13
   6  0.350  0.349  0.350-  33 2.01  31 2.03  35 2.04  24 2.11  20 2.11  22 2.14
   7  0.952  0.248  0.543-  31 1.45  25 1.45  23 1.48  15 1.49
   8  0.452  0.043  0.748-  32 1.45  26 1.46  22 1.48  18 1.49
   9  0.543  0.952  0.247-  27 1.45  33 1.46  17 1.48  19 1.49
  10  0.748  0.451  0.044-  28 1.45  34 1.45  14 1.48  24 1.49
  11  0.248  0.544  0.951-  35 1.45  29 1.45  21 1.48  13 1.49
  12  0.043  0.747  0.452-  30 1.45  36 1.45  16 1.48  20 1.49
  13  0.407  0.565  0.768-  11 1.49   3 2.11   1 2.37
  14  0.906  0.267  0.064-  10 1.48   4 2.13   2 2.35
  15  0.769  0.408  0.563-   7 1.49   3 2.11   1 2.38
  16  0.064  0.907  0.269-  12 1.48   4 2.12   2 2.38
  17  0.562  0.768  0.406-   9 1.48   3 2.14   1 2.35
  18  0.268  0.063  0.907-   8 1.49   4 2.11   2 2.37
  19  0.727  0.932  0.087-   9 1.49   5 2.10   2 2.38
  20  0.226  0.587  0.433-  12 1.49   6 2.11   1 2.39
  21  0.089  0.728  0.932-  11 1.48   5 2.13   2 2.35
  22  0.433  0.227  0.589-   8 1.48   6 2.14   1 2.35
  23  0.932  0.088  0.726-   7 1.48   5 2.12   2 2.38
  24  0.588  0.431  0.227-  10 1.49   6 2.11   1 2.37
  25  0.987  0.195  0.393-   7 1.45   4 2.02
  26  0.485  0.894  0.694-   8 1.46   3 2.01
  27  0.394  0.988  0.194-   9 1.45   4 2.04
  28  0.696  0.487  0.894-  10 1.45   3 2.04
  29  0.195  0.395  0.982-  11 1.45   4 2.02
  30  0.894  0.694  0.484-  12 1.45   3 2.03
  31  0.101  0.301  0.510-   7 1.45   6 2.03
  32  0.601  0.007  0.801-   8 1.45   5 2.03
  33  0.510  0.101  0.301-   9 1.46   6 2.01
  34  0.800  0.600  0.013-  10 1.45   5 2.02
  35  0.299  0.508  0.102-  11 1.45   6 2.04
  36  0.007  0.800  0.602-  12 1.45   5 2.02
 

IMPORTANT INFORMATION: All symmetrisations will be switched off!
NOSYMM: (Re-)initialisation of all symmetry stuff for point group C_1.


----------------------------------------------------------------------------------------

                                     Primitive cell                                     

  volume of cell :     465.7001

  direct lattice vectors                    reciprocal lattice vectors
     7.586959048  0.048826034  4.492159230     0.133192933 -0.047605192 -0.001826506
     2.586276703  7.064257078  4.477657138    -0.000682025  0.142055950 -0.000392135
     0.129526909  0.024903477  8.796320441    -0.067672613 -0.048000495  0.114816281

  length of vectors
     8.817245949  8.754539890  8.797309288     0.141456523  0.142058129  0.141655952

  position of ions in fractional coordinates (direct lattice)
     0.498076280  0.497226079  0.497705319
     0.997733048  0.997369435  0.997863814
     0.644710171  0.646525685  0.645168580
     0.145035776  0.146833243  0.144568646
     0.849703587  0.849126828  0.850728180
     0.350476058  0.349153379  0.349865154
     0.952479759  0.247914909  0.543133839
     0.452040553  0.043326130  0.748043994
     0.542929322  0.951829610  0.247100659
     0.747523286  0.451107253  0.043998435
     0.247598927  0.544005675  0.950955506
     0.042726315  0.747146913  0.452108881
     0.407425593  0.564637227  0.767543708
     0.906384834  0.267430568  0.063625230
     0.769272122  0.407830659  0.562663076
     0.063816818  0.906641929  0.269060399
     0.562301150  0.768404638  0.405819377
     0.268242022  0.063269035  0.907462476
     0.726576115  0.932273295  0.087321435
     0.225818015  0.587072271  0.433331727
     0.088604052  0.727505360  0.931687932
     0.433353935  0.226515108  0.588985995
     0.932119829  0.088327908  0.726116965
     0.587638244  0.430763806  0.227449430
     0.987262172  0.194657524  0.393411208
     0.485301382  0.894079251  0.694043687
     0.393984945  0.987731982  0.194152898
     0.696160736  0.486866054  0.893708403
     0.195334474  0.394921592  0.981836606
     0.894317961  0.694387246  0.484414960
     0.101220711  0.300824794  0.509728085
     0.600768612  0.007323489  0.801324838
     0.509769044  0.100990447  0.301098042
     0.800001505  0.600197137  0.012591294
     0.298859457  0.507714523  0.101520466
     0.006833192  0.800469018  0.602260759

  ion indices of the primitive-cell ions
   primitive index   ion index
                 1           1
                 2           2
                 3           3
                 4           4
                 5           5
                 6           6
                 7           7
                 8           8
                 9           9
                10          10
                11          11
                12          12
                13          13
                14          14
                15          15
                16          16
                17          17
                18          18
                19          19
                20          20
                21          21
                22          22
                23          23
                24          24
                25          25
                26          26
                27          27
                28          28
                29          29
                30          30
                31          31
                32          32
                33          33
                34          34
                35          35
                36          36

----------------------------------------------------------------------------------------

 
 
 KPOINTS: Fully automatic kpoint scheme           

Automatic generation of k-mesh.
 generate k-points for:    5    5    5
Space group operators:
 irot       det(A)        alpha          n_x          n_y          n_z        tau_x        tau_y        tau_z
    1     1.000000     0.000000     1.000000     0.000000     0.000000     0.000000     0.000000     0.000000
 
 Subroutine IBZKPT returns following result:
 ===========================================
 
 Found     63 irreducible k-points:
 
 Following reciprocal coordinates:
            Coordinates               Weight
  0.000000  0.000000  0.000000      1.000000
  0.200000 -0.000000  0.000000      2.000000
  0.400000 -0.000000 -0.000000      2.000000
 -0.000000  0.200000 -0.000000      2.000000
  0.200000  0.200000 -0.000000      2.000000
  0.400000  0.200000 -0.000000      2.000000
 -0.400000  0.200000 -0.000000      2.000000
 -0.200000  0.200000 -0.000000      2.000000
  0.000000  0.400000 -0.000000      2.000000
  0.200000  0.400000  0.000000      2.000000
  0.400000  0.400000  0.000000      2.000000
 -0.400000  0.400000  0.000000      2.000000
 -0.200000  0.400000  0.000000      2.000000
  0.000000 -0.000000  0.200000      2.000000
  0.200000 -0.000000  0.200000      2.000000
  0.400000 -0.000000  0.200000      2.000000
 -0.400000  0.000000  0.200000      2.000000
 -0.200000  0.000000  0.200000      2.000000
  0.000000  0.200000  0.200000      2.000000
  0.200000  0.200000  0.200000      2.000000
  0.400000  0.200000  0.200000      2.000000
 -0.400000  0.200000  0.200000      2.000000
 -0.200000  0.200000  0.200000      2.000000
  0.000000  0.400000  0.200000      2.000000
  0.200000  0.400000  0.200000      2.000000
  0.400000  0.400000  0.200000      2.000000
 -0.400000  0.400000  0.200000      2.000000
 -0.200000  0.400000  0.200000      2.000000
 -0.000000 -0.400000  0.200000      2.000000
  0.200000 -0.400000  0.200000      2.000000
  0.400000 -0.400000  0.200000      2.000000
 -0.400000 -0.400000  0.200000      2.000000
 -0.200000 -0.400000  0.200000      2.000000
  0.000000 -0.200000  0.200000      2.000000
  0.200000 -0.200000  0.200000      2.000000
  0.400000 -0.200000  0.200000      2.000000
 -0.400000 -0.200000  0.200000      2.000000
 -0.200000 -0.200000  0.200000      2.000000
  0.000000  0.000000  0.400000      2.000000
  0.200000 -0.000000  0.400000      2.000000
  0.400000 -0.000000  0.400000      2.000000
 -0.400000  0.000000  0.400000      2.000000
 -0.200000  0.000000  0.400000      2.000000
  0.000000  0.200000  0.400000      2.000000
  0.200000  0.200000  0.400000      2.000000
  0.400000  0.200000  0.400000      2.000000
 -0.400000  0.200000  0.400000      2.000000
 -0.200000  0.200000  0.400000      2.000000
  0.000000  0.400000  0.400000      2.000000
  0.200000  0.400000  0.400000      2.000000
  0.400000  0.400000  0.400000      2.000000
 -0.400000  0.400000  0.400000      2.000000
 -0.200000  0.400000  0.400000      2.000000
  0.000000 -0.400000  0.400000      2.000000
  0.200000 -0.400000  0.400000      2.000000
  0.400000 -0.400000  0.400000      2.000000
 -0.400000 -0.400000  0.400000      2.000000
 -0.200000 -0.400000  0.400000      2.000000
 -0.000000 -0.200000  0.400000      2.000000
  0.200000 -0.200000  0.400000      2.000000
  0.400000 -0.200000  0.400000      2.000000
 -0.400000 -0.200000  0.400000      2.000000
 -0.200000 -0.200000  0.400000      2.000000
 
 Following cartesian coordinates:
            Coordinates               Weight
  0.000000  0.000000  0.000000      1.000000
  0.026639 -0.009521 -0.000365      2.000000
  0.053277 -0.019042 -0.000731      2.000000
 -0.000136  0.028411 -0.000078      2.000000
  0.026502  0.018890 -0.000444      2.000000
  0.053141  0.009369 -0.000809      2.000000
 -0.053414  0.047453  0.000652      2.000000
 -0.026775  0.037932  0.000287      2.000000
 -0.000273  0.056822 -0.000157      2.000000
  0.026366  0.047301 -0.000522      2.000000
  0.053004  0.037780 -0.000887      2.000000
 -0.053550  0.075864  0.000574      2.000000
 -0.026911  0.066343  0.000208      2.000000
 -0.013535 -0.009600  0.022963      2.000000
  0.013104 -0.019121  0.022598      2.000000
  0.039743 -0.028642  0.022233      2.000000
 -0.066812  0.009442  0.023694      2.000000
 -0.040173 -0.000079  0.023329      2.000000
 -0.013671  0.018811  0.022885      2.000000
  0.012968  0.009290  0.022520      2.000000
  0.039606 -0.000231  0.022154      2.000000
 -0.066948  0.037853  0.023615      2.000000
 -0.040310  0.028332  0.023250      2.000000
 -0.013807  0.047222  0.022806      2.000000
  0.012831  0.037701  0.022441      2.000000
  0.039470  0.028180  0.022076      2.000000
 -0.067085  0.066264  0.023537      2.000000
 -0.040446  0.056743  0.023172      2.000000
 -0.013262 -0.066422  0.023120      2.000000
  0.013377 -0.075944  0.022755      2.000000
  0.040015 -0.085465  0.022390      2.000000
 -0.066539 -0.047380  0.023851      2.000000
 -0.039900 -0.056901  0.023485      2.000000
 -0.013398 -0.038011  0.023042      2.000000
  0.013240 -0.047532  0.022676      2.000000
  0.039879 -0.057053  0.022311      2.000000
 -0.066675 -0.018969  0.023772      2.000000
 -0.040037 -0.028490  0.023407      2.000000
 -0.027069 -0.019200  0.045927      2.000000
 -0.000430 -0.028721  0.045561      2.000000
  0.026208 -0.038242  0.045196      2.000000
 -0.080346 -0.000158  0.046657      2.000000
 -0.053708 -0.009679  0.046292      2.000000
 -0.027205  0.009211  0.045848      2.000000
 -0.000567 -0.000310  0.045483      2.000000
  0.026072 -0.009831  0.045117      2.000000
 -0.080483  0.028253  0.046579      2.000000
 -0.053844  0.018732  0.046213      2.000000
 -0.027342  0.037622  0.045770      2.000000
 -0.000703  0.028101  0.045404      2.000000
  0.025935  0.018580  0.045039      2.000000
 -0.080619  0.056664  0.046500      2.000000
 -0.053980  0.047143  0.046135      2.000000
 -0.026796 -0.076023  0.046083      2.000000
 -0.000158 -0.085544  0.045718      2.000000
  0.026481 -0.095065  0.045353      2.000000
 -0.080073 -0.056981  0.046814      2.000000
 -0.053435 -0.066502  0.046449      2.000000
 -0.026933 -0.047611  0.046005      2.000000
 -0.000294 -0.057132  0.045640      2.000000
  0.026345 -0.066653  0.045274      2.000000
 -0.080210 -0.028569  0.046736      2.000000
 -0.053571 -0.038090  0.046370      2.000000
 


--------------------------------------------------------------------------------------------------------




 Dimension of arrays:
   k-points           NKPTS =     63   k-points in BZ     NKDIM =     63   number of bands    NBANDS=    176
   number of dos      NEDOS =    301   number of ions     NIONS =     36
   non local maximal  LDIM  =      6   non local SUM 2l+1 LMDIM =     18
   total plane-waves  NPLWV = 343000
   max r-space proj   IRMAX =  12214   max aug-charges    IRDMAX=  35336
   dimension x,y,z NGX =    70 NGY =   70 NGZ =   70
   dimension x,y,z NGXF=   140 NGYF=  140 NGZF=  140
   support grid    NGXF=   140 NGYF=  140 NGZF=  140
   ions per type =               2   4   6  24
   NGX,Y,Z   is equivalent  to a cutoff of  13.20, 13.29, 13.23 a.u.
   NGXF,Y,Z  is equivalent  to a cutoff of  26.40, 26.59, 26.46 a.u.

 SYSTEM =  unknown system                          
 POSCAR =  Ca2 Co4 S6 O24                          

 Startparameter for this run:
   NWRITE =      2    write-flag & timer
   PREC   = accura    normal or accurate (medium, high low for compatibility)
   ISTART =      0    job   : 0-new  1-cont  2-samecut
   ICHARG =      1    charge: 1-file 2-atom 10-const
   ISPIN  =      2    spin polarized calculation?
   LNONCOLLINEAR =      F non collinear calculations
   LSORBIT =      F    spin-orbit coupling
   INIWAV =      1    electr: 0-lowe 1-rand  2-diag
   LASPH  =      T    aspherical Exc in radial PAW
   METAGGA=      F    non-selfconsistent MetaGGA calc.

 Electronic Relaxation 1
   ENCUT  =  520.0 eV  38.22 Ry    6.18 a.u.  16.39 16.28 16.36*2*pi/ulx,y,z
   ENINI  =  520.0     initial cutoff
   ENAUG  =  605.4 eV  augmentation charge cutoff
   NELM   =    150;   NELMIN=  6; NELMDL= -5     # of ELM steps 
   EDIFF  = 0.1E-04   stopping-criterion for ELM
   LREAL  =      T    real-space projection
   NLSPLINE    = F    spline interpolate recip. space projectors
   LCOMPAT=      F    compatible to vasp.4.4
   GGA_COMPAT  = T    GGA compatible to vasp.4.4-vasp.4.6
   LMAXPAW     = -100 max onsite density
   LMAXMIX     =    2 max onsite mixed and CHGCAR
   VOSKOWN=      0    Vosko Wilk Nusair interpolation
   ROPT   =   -0.00025  -0.00025  -0.00025  -0.00025
 Ionic relaxation
   EDIFFG = -.3E-01   stopping-criterion for IOM
   NSW    =    199    number of steps for IOM
   NBLOCK =      1;   KBLOCK =    199    inner block; outer block 
   IBRION =      2    ionic relax: 0-MD 1-quasi-New 2-CG
   NFREE  =      1    steps in history (QN), initial steepest desc. (CG)
   ISIF   =      3    stress and relaxation
   IWAVPR =     11    prediction:  0-non 1-charg 2-wave 3-comb
   ISYM   =      0    0-nonsym 1-usesym 2-fastsym
   LCORR  =      T    Harris-Foulkes like correction to forces

   POTIM  = 0.5000    time-step for ionic-motion
   TEIN   =    0.0    initial temperature
   TEBEG  =    0.0;   TEEND  =   0.0 temperature during run
   SMASS  =  -3.00    Nose mass-parameter (am)
   estimated Nose-frequenzy (Omega)   =  0.10E-29 period in steps = 0.13E+47 mass=  -0.178E-26a.u.
   SCALEE = 1.0000    scale energy and forces
   NPACO  =    256;   APACO  = 16.0  distance and # of slots for P.C.
   PSTRESS=    0.0 pullay stress

  Mass of Ions in am
   POMASS =  40.08 58.93 32.07 16.00
  Ionic Valenz
   ZVAL   =  10.00 15.00  6.00  6.00
  Atomic Wigner-Seitz radii
   RWIGS  =  -1.00 -1.00 -1.00 -1.00
  virtual crystal weights 
   VCA    =   1.00  1.00  1.00  1.00
   NELECT =     260.0000    total number of electrons
   NUPDOWN=      -1.0000    fix difference up-down

 DOS related values:
   EMIN   =  10.00;   EMAX   =-10.00  energy-range for DOS
   EFERMI =   0.00
   ISMEAR =     0;   SIGMA  =   0.05  broadening in eV -4-tet -1-fermi 0-gaus

 Electronic relaxation 2 (details)
   IALGO  =     58    algorithm
   LDIAG  =      T    sub-space diagonalisation (order eigenvalues)
   LSUBROT=      F    optimize rotation matrix (better conditioning)
   TURBO    =      0    0=normal 1=particle mesh
   IRESTART =      0    0=no restart 2=restart with 2 vectors
   NREBOOT  =      0    no. of reboots
   NMIN     =      0    reboot dimension
   EREF     =   0.00    reference energy to select bands
   IMIX   =      4    mixing-type and parameters
     AMIX     =   0.40;   BMIX     =  1.00
     AMIX_MAG =   1.60;   BMIX_MAG =  1.00
     AMIN     =   0.10
     WC   =   100.;   INIMIX=   1;  MIXPRE=   1;  MAXMIX= -45

 Intra band minimization:
   WEIMIN = 0.0010     energy-eigenvalue tresh-hold
   EBREAK =  0.14E-07  absolut break condition
   DEPER  =   0.30     relativ break condition  

   TIME   =   0.40     timestep for ELM

  volume/ion in A,a.u.               =      12.94        87.30
  Fermi-wavevector in a.u.,A,eV,Ry     =   1.348023  2.547393 24.724030  1.817165
  Thomas-Fermi vector in A             =   2.475725
 
 Write flags
   LWAVE        =      F    write WAVECAR
   LDOWNSAMPLE  =      F    k-point downsampling of WAVECAR
   LCHARG       =      T    write CHGCAR
   LVTOT        =      F    write LOCPOT, total local potential
   LVHAR        =      F    write LOCPOT, Hartree potential only
   LELF         =      F    write electronic localiz. function (ELF)
   LORBIT       =     11    0 simple, 1 ext, 2 COOP (PROOUT), +10 PAW based schemes


 Dipole corrections
   LMONO  =      F    monopole corrections only (constant potential shift)
   LDIPOL =      F    correct potential (dipole corrections)
   IDIPOL =      0    1-x, 2-y, 3-z, 4-all directions 
   EPSILON=  1.0000000 bulk dielectric constant

 Exchange correlation treatment:
   GGA     =    --    GGA type
   LEXCH   =     8    internal setting for exchange type
   VOSKOWN=      0    Vosko Wilk Nusair interpolation
   LHFCALC =     F    Hartree Fock is set to
   LHFONE  =     F    Hartree Fock one center treatment
   AEXX    =    0.0000 exact exchange contribution

 Linear response parameters
   LEPSILON=     F    determine dielectric tensor
   LRPA    =     F    only Hartree local field effects (RPA)
   LNABLA  =     F    use nabla operator in PAW spheres
   LVEL    =     F    velocity operator in full k-point grid
   LINTERFAST=   F  fast interpolation
   KINTER  =     0    interpolate to denser k-point grid
   CSHIFT  =0.1000    complex shift for real part using Kramers Kronig
   OMEGAMAX=  -1.0    maximum frequency
   DEG_THRESHOLD= 0.2000000E-02 threshold for treating states as degnerate
   RTIME   =   -0.100 relaxation time in fs
  (WPLASMAI=    0.000 imaginary part of plasma frequency in eV, 0.658/RTIME)
   DFIELD  = 0.0000000 0.0000000 0.0000000 field for delta impulse in time
 
 Orbital magnetization related:
   ORBITALMAG=     F  switch on orbital magnetization
   LCHIMAG   =     F  perturbation theory with respect to B field
   DQ        =  0.001000  dq finite difference perturbation B field
   LLRAUG    =     F  two centre corrections for induced B field



--------------------------------------------------------------------------------------------------------


 conjugate gradient relaxation of ions
 charge density and potential will be updated during run
 spin polarized calculation
 Conjugate gradient for all bands (Freysoldt, et al. PRB 79, 241103 (2009))
 preconditioned conjugated gradient                                        
 perform sub-space diagonalisation
    before iterative eigenvector-optimisation
 modified Broyden-mixing scheme, WC =      100.0
 initial mixing is a Kerker type mixing with AMIX =  0.4000 and BMIX =      1.0000
 Hartree-type preconditioning will be used
 using additional bands           46
 real space projection scheme for non local part
 use partial core corrections
 no Harris-corrections to forces 
 use gradient corrections 
 use of overlap-Matrix (Vanderbilt PP)
 Gauss-broadening in eV      SIGMA  =   0.05


--------------------------------------------------------------------------------------------------------


  energy-cutoff  :      520.00
  volume of cell :      465.70
      direct lattice vectors                 reciprocal lattice vectors
     7.586959048  0.048826034  4.492159230     0.133192933 -0.047605192 -0.001826506
     2.586276703  7.064257078  4.477657138    -0.000682025  0.142055950 -0.000392135
     0.129526909  0.024903477  8.796320441    -0.067672613 -0.048000495  0.114816281

  length of vectors
     8.817245949  8.754539890  8.797309288     0.141456523  0.142058129  0.141655952


 
 k-points in units of 2pi/SCALE and weight: Fully automatic kpoint scheme           
   0.00000000  0.00000000  0.00000000       0.008
   0.02663859 -0.00952104 -0.00036530       0.016
   0.05327717 -0.01904208 -0.00073060       0.016
  -0.00013640  0.02841119 -0.00007843       0.016
   0.02650218  0.01889015 -0.00044373       0.016
   0.05314077  0.00936911 -0.00080903       0.016
  -0.05341358  0.04745327  0.00065218       0.016
  -0.02677499  0.03793223  0.00028687       0.016
  -0.00027281  0.05682238 -0.00015685       0.016
   0.02636578  0.04730134 -0.00052216       0.016
   0.05300436  0.03778030 -0.00088746       0.016
  -0.05354998  0.07586446  0.00057375       0.016
  -0.02691140  0.06634342  0.00020845       0.016
  -0.01353452 -0.00960010  0.02296326       0.016
   0.01310406 -0.01912114  0.02259796       0.016
   0.03974265 -0.02864218  0.02223265       0.016
  -0.06681170  0.00944198  0.02369386       0.016
  -0.04017311 -0.00007906  0.02332856       0.016
  -0.01367093  0.01881109  0.02288483       0.016
   0.01296766  0.00929005  0.02251953       0.016
   0.03960625 -0.00023099  0.02215423       0.016
  -0.06694810  0.03785317  0.02361543       0.016
  -0.04030951  0.02833213  0.02325013       0.016
  -0.01380733  0.04722228  0.02280640       0.016
   0.01283125  0.03770124  0.02244110       0.016
   0.03946984  0.02818020  0.02207580       0.016
  -0.06708451  0.06626436  0.02353700       0.016
  -0.04044592  0.05674332  0.02317170       0.016
  -0.01326171 -0.06642248  0.02312011       0.016
   0.01337687 -0.07594352  0.02275481       0.016
   0.04001546 -0.08546456  0.02238951       0.016
  -0.06653889 -0.04738040  0.02385071       0.016
  -0.03990030 -0.05690144  0.02348541       0.016
  -0.01339812 -0.03801129  0.02304168       0.016
   0.01324047 -0.04753233  0.02267638       0.016
   0.03987906 -0.05705337  0.02231108       0.016
  -0.06667529 -0.01896921  0.02377229       0.016
  -0.04003670 -0.02849025  0.02340698       0.016
  -0.02706905 -0.01920020  0.04592651       0.016
  -0.00043046 -0.02872124  0.04556121       0.016
   0.02620813 -0.03824227  0.04519591       0.016
  -0.08034622 -0.00015812  0.04665712       0.016
  -0.05370763 -0.00967916  0.04629181       0.016
  -0.02720545  0.00921099  0.04584809       0.016
  -0.00056686 -0.00031005  0.04548278       0.016
   0.02607172 -0.00983108  0.04511748       0.016
  -0.08048262  0.02825307  0.04657869       0.016
  -0.05384404  0.01873203  0.04621339       0.016
  -0.02734186  0.03762218  0.04576966       0.016
  -0.00070327  0.02810114  0.04540436       0.016
   0.02593532  0.01858011  0.04503906       0.016
  -0.08061903  0.05666426  0.04650026       0.016
  -0.05398044  0.04714322  0.04613496       0.016
  -0.02679624 -0.07602258  0.04608337       0.016
  -0.00015765 -0.08554362  0.04571807       0.016
   0.02648094 -0.09506465  0.04535276       0.016
  -0.08007341 -0.05698050  0.04681397       0.016
  -0.05343482 -0.06650154  0.04644867       0.016
  -0.02693264 -0.04761139  0.04600494       0.016
  -0.00029405 -0.05713243  0.04563964       0.016
   0.02634453 -0.06665346  0.04527434       0.016
  -0.08020981 -0.02856931  0.04673554       0.016
  -0.05357123 -0.03809035  0.04637024       0.016
 
 k-points in reciprocal lattice and weights: Fully automatic kpoint scheme           
   0.00000000  0.00000000  0.00000000       0.008
   0.20000000 -0.00000000  0.00000000       0.016
   0.40000000 -0.00000000 -0.00000000       0.016
  -0.00000000  0.20000000 -0.00000000       0.016
   0.20000000  0.20000000 -0.00000000       0.016
   0.40000000  0.20000000 -0.00000000       0.016
  -0.40000000  0.20000000 -0.00000000       0.016
  -0.20000000  0.20000000 -0.00000000       0.016
   0.00000000  0.40000000 -0.00000000       0.016
   0.20000000  0.40000000  0.00000000       0.016
   0.40000000  0.40000000  0.00000000       0.016
  -0.40000000  0.40000000  0.00000000       0.016
  -0.20000000  0.40000000  0.00000000       0.016
   0.00000000 -0.00000000  0.20000000       0.016
   0.20000000 -0.00000000  0.20000000       0.016
   0.40000000 -0.00000000  0.20000000       0.016
  -0.40000000  0.00000000  0.20000000       0.016
  -0.20000000  0.00000000  0.20000000       0.016
   0.00000000  0.20000000  0.20000000       0.016
   0.20000000  0.20000000  0.20000000       0.016
   0.40000000  0.20000000  0.20000000       0.016
  -0.40000000  0.20000000  0.20000000       0.016
  -0.20000000  0.20000000  0.20000000       0.016
   0.00000000  0.40000000  0.20000000       0.016
   0.20000000  0.40000000  0.20000000       0.016
   0.40000000  0.40000000  0.20000000       0.016
  -0.40000000  0.40000000  0.20000000       0.016
  -0.20000000  0.40000000  0.20000000       0.016
  -0.00000000 -0.40000000  0.20000000       0.016
   0.20000000 -0.40000000  0.20000000       0.016
   0.40000000 -0.40000000  0.20000000       0.016
  -0.40000000 -0.40000000  0.20000000       0.016
  -0.20000000 -0.40000000  0.20000000       0.016
   0.00000000 -0.20000000  0.20000000       0.016
   0.20000000 -0.20000000  0.20000000       0.016
   0.40000000 -0.20000000  0.20000000       0.016
  -0.40000000 -0.20000000  0.20000000       0.016
  -0.20000000 -0.20000000  0.20000000       0.016
   0.00000000  0.00000000  0.40000000       0.016
   0.20000000 -0.00000000  0.40000000       0.016
   0.40000000 -0.00000000  0.40000000       0.016
  -0.40000000  0.00000000  0.40000000       0.016
  -0.20000000  0.00000000  0.40000000       0.016
   0.00000000  0.20000000  0.40000000       0.016
   0.20000000  0.20000000  0.40000000       0.016
   0.40000000  0.20000000  0.40000000       0.016
  -0.40000000  0.20000000  0.40000000       0.016
  -0.20000000  0.20000000  0.40000000       0.016
   0.00000000  0.40000000  0.40000000       0.016
   0.20000000  0.40000000  0.40000000       0.016
   0.40000000  0.40000000  0.40000000       0.016
  -0.40000000  0.40000000  0.40000000       0.016
  -0.20000000  0.40000000  0.40000000       0.016
   0.00000000 -0.40000000  0.40000000       0.016
   0.20000000 -0.40000000  0.40000000       0.016
   0.40000000 -0.40000000  0.40000000       0.016
  -0.40000000 -0.40000000  0.40000000       0.016
  -0.20000000 -0.40000000  0.40000000       0.016
  -0.00000000 -0.20000000  0.40000000       0.016
   0.20000000 -0.20000000  0.40000000       0.016
   0.40000000 -0.20000000  0.40000000       0.016
  -0.40000000 -0.20000000  0.40000000       0.016
  -0.20000000 -0.20000000  0.40000000       0.016
 
 position of ions in fractional coordinates (direct lattice) 
   0.49807628  0.49722608  0.49770532
   0.99773305  0.99736944  0.99786381
   0.64471017  0.64652568  0.64516858
   0.14503578  0.14683324  0.14456865
   0.84970359  0.84912683  0.85072818
   0.35047606  0.34915338  0.34986515
   0.95247976  0.24791491  0.54313384
   0.45204055  0.04332613  0.74804399
   0.54292932  0.95182961  0.24710066
   0.74752329  0.45110725  0.04399844
   0.24759893  0.54400567  0.95095551
   0.04272632  0.74714691  0.45210888
   0.40742559  0.56463723  0.76754371
   0.90638483  0.26743057  0.06362523
   0.76927212  0.40783066  0.56266308
   0.06381682  0.90664193  0.26906040
   0.56230115  0.76840464  0.40581938
   0.26824202  0.06326903  0.90746248
   0.72657612  0.93227329  0.08732144
   0.22581801  0.58707227  0.43333173
   0.08860405  0.72750536  0.93168793
   0.43335393  0.22651511  0.58898600
   0.93211983  0.08832791  0.72611696
   0.58763824  0.43076381  0.22744943
   0.98726217  0.19465752  0.39341121
   0.48530138  0.89407925  0.69404369
   0.39398494  0.98773198  0.19415290
   0.69616074  0.48686605  0.89370840
   0.19533447  0.39492159  0.98183661
   0.89431796  0.69438725  0.48441496
   0.10122071  0.30082479  0.50972808
   0.60076861  0.00732349  0.80132484
   0.50976904  0.10099045  0.30109804
   0.80000151  0.60019714  0.01259129
   0.29885946  0.50771452  0.10152047
   0.00683319  0.80046902  0.60226076
 
 position of ions in cartesian coordinates  (Angst):
   5.12931480  3.54924653  8.84182134
  10.27848333  7.11923972 17.72538395
   6.64705067  4.61476922 11.46617065
   1.49885742  1.04794956  2.58066485
   8.75293544  6.06112395 15.10238029
   3.60737170  2.49233444  6.21530939
   7.93795193  1.81136638 10.16634800
   3.63855835  0.34676716  8.80467237
   6.61288346  6.75663181  8.87446819
   6.84381572  3.22433192  5.76492158
   3.40864645  3.87876731 11.91303406
   2.31505173  5.29138311  7.51429571
   4.65084696  4.02775001 11.11003295
   7.57659524  1.93503795  5.82875530
   6.96407903  2.93259339 10.23118344
   2.86385304  6.41456812  6.71304850
   6.30602734  5.46576915  9.53631609
   2.31631327  0.48264489  9.47061364
   7.93493041  6.62346866  8.20640310
   3.28773149  4.16904671  7.45484355
   2.67444413  5.16681334 11.85096867
   3.94995884  1.63598771  8.14186142
   7.39444706  0.68756560 10.96989028
   5.60192251  3.07738259  6.56929526
   8.04471322  1.43311219  8.76711958
   6.08419538  6.35698512 12.28846209
   5.56884388  7.00166445  7.90039937
   6.65667261  3.49559418 13.16862963
   2.63054543  2.82381620 11.28234645
   8.64377608  4.96105963 11.38771591
   1.61199705  2.14273989  6.28542141
   4.68074055  0.10102393  9.78025039
   4.16778640  0.74581087  5.39071917
   7.62348544  4.27932134  6.39196820
   3.59367434  3.60374625  4.50890238
   2.20008650  5.67005095  8.91260023
 


--------------------------------------------------------------------------------------------------------


 k-point   1 :   0.0000 0.0000 0.0000  plane waves:   12513
 k-point   2 :   0.2000-0.0000 0.0000  plane waves:   12533
 k-point   3 :   0.4000-0.0000-0.0000  plane waves:   12534
 k-point   4 :  -0.0000 0.2000-0.0000  plane waves:   12533
 k-point   5 :   0.2000 0.2000-0.0000  plane waves:   12523
 k-point   6 :   0.4000 0.2000-0.0000  plane waves:   12542
 k-point   7 :  -0.4000 0.2000-0.0000  plane waves:   12544
 k-point   8 :  -0.2000 0.2000-0.0000  plane waves:   12567
 k-point   9 :   0.0000 0.4000-0.0000  plane waves:   12541
 k-point  10 :   0.2000 0.4000 0.0000  plane waves:   12550
 k-point  11 :   0.4000 0.4000 0.0000  plane waves:   12534
 k-point  12 :  -0.4000 0.4000 0.0000  plane waves:   12543
 k-point  13 :  -0.2000 0.4000 0.0000  plane waves:   12564
 k-point  14 :   0.0000-0.0000 0.2000  plane waves:   12539
 k-point  15 :   0.2000-0.0000 0.2000  plane waves:   12529
 k-point  16 :   0.4000-0.0000 0.2000  plane waves:   12553
 k-point  17 :  -0.4000 0.0000 0.2000  plane waves:   12537
 k-point  18 :  -0.2000 0.0000 0.2000  plane waves:   12571
 k-point  19 :   0.0000 0.2000 0.2000  plane waves:   12522
 k-point  20 :   0.2000 0.2000 0.2000  plane waves:   12492
 k-point  21 :   0.4000 0.2000 0.2000  plane waves:   12523
 k-point  22 :  -0.4000 0.2000 0.2000  plane waves:   12539
 k-point  23 :  -0.2000 0.2000 0.2000  plane waves:   12557
 k-point  24 :   0.0000 0.4000 0.2000  plane waves:   12551
 k-point  25 :   0.2000 0.4000 0.2000  plane waves:   12527
 k-point  26 :   0.4000 0.4000 0.2000  plane waves:   12512
 k-point  27 :  -0.4000 0.4000 0.2000  plane waves:   12542
 k-point  28 :  -0.2000 0.4000 0.2000  plane waves:   12549
 k-point  29 :  -0.0000-0.4000 0.2000  plane waves:   12554
 k-point  30 :   0.2000-0.4000 0.2000  plane waves:   12532
 k-point  31 :   0.4000-0.4000 0.2000  plane waves:   12525
 k-point  32 :  -0.4000-0.4000 0.2000  plane waves:   12526
 k-point  33 :  -0.2000-0.4000 0.2000  plane waves:   12551
 k-point  34 :   0.0000-0.2000 0.2000  plane waves:   12566
 k-point  35 :   0.2000-0.2000 0.2000  plane waves:   12558
 k-point  36 :   0.4000-0.2000 0.2000  plane waves:   12542
 k-point  37 :  -0.4000-0.2000 0.2000  plane waves:   12541
 k-point  38 :  -0.2000-0.2000 0.2000  plane waves:   12548
 k-point  39 :   0.0000 0.0000 0.4000  plane waves:   12549
 k-point  40 :   0.2000-0.0000 0.4000  plane waves:   12556
 k-point  41 :   0.4000-0.0000 0.4000  plane waves:   12540
 k-point  42 :  -0.4000 0.0000 0.4000  plane waves:   12533
 k-point  43 :  -0.2000 0.0000 0.4000  plane waves:   12543
 k-point  44 :   0.0000 0.2000 0.4000  plane waves:   12548
 k-point  45 :   0.2000 0.2000 0.4000  plane waves:   12524
 k-point  46 :   0.4000 0.2000 0.4000  plane waves:   12508
 k-point  47 :  -0.4000 0.2000 0.4000  plane waves:   12529
 k-point  48 :  -0.2000 0.2000 0.4000  plane waves:   12531
 k-point  49 :   0.0000 0.4000 0.4000  plane waves:   12531
 k-point  50 :   0.2000 0.4000 0.4000  plane waves:   12517
 k-point  51 :   0.4000 0.4000 0.4000  plane waves:   12542
 k-point  52 :  -0.4000 0.4000 0.4000  plane waves:   12527
 k-point  53 :  -0.2000 0.4000 0.4000  plane waves:   12529
 k-point  54 :   0.0000-0.4000 0.4000  plane waves:   12553
 k-point  55 :   0.2000-0.4000 0.4000  plane waves:   12535
 k-point  56 :   0.4000-0.4000 0.4000  plane waves:   12521
 k-point  57 :  -0.4000-0.4000 0.4000  plane waves:   12521
 k-point  58 :  -0.2000-0.4000 0.4000  plane waves:   12543
 k-point  59 :  -0.0000-0.2000 0.4000  plane waves:   12546
 k-point  60 :   0.2000-0.2000 0.4000  plane waves:   12552
 k-point  61 :   0.4000-0.2000 0.4000  plane waves:   12506
 k-point  62 :  -0.4000-0.2000 0.4000  plane waves:   12535
 k-point  63 :  -0.2000-0.2000 0.4000  plane waves:   12536

 maximum and minimum number of plane-waves per node :       821      748

 maximum number of plane-waves:     12571
 maximum index in each direction: 
   IXMAX=   16   IYMAX=   16   IZMAX=   16
   IXMIN=  -16   IYMIN=  -16   IZMIN=  -16


 real space projection operators:
  total allocation   :      15898.48 KBytes
  max/ min on nodes  :       1162.23        886.00


 parallel 3D FFT for wavefunctions:
    minimum data exchange during FFTs selected (reduces bandwidth)
 parallel 3D FFT for charge:
    minimum data exchange during FFTs selected (reduces bandwidth)


 total amount of memory used by VASP MPI-rank0   273231. kBytes
=======================================================================

   base      :      30000. kBytes
   nonlr-proj:       8918. kBytes
   fftplans  :       2612. kBytes
   grid      :      10205. kBytes
   one-center:         93. kBytes
   wavefun   :     221403. kBytes
 
     INWAV:  cpu time    0.0001: real time    0.0001
 Broyden mixing: mesh for mixing (old mesh)
   NGX = 33   NGY = 33   NGZ = 33
  (NGX  =140   NGY  =140   NGZ  =140)
  gives a total of  35937 points

 initial charge density was supplied:
 number of electron     260.0000013 magnetization      12.0000004
 keeping initial charge density in first step


--------------------------------------------------------------------------------------------------------


 Maximum index for non-local projection operator         1063
 Maximum index for augmentation-charges         1998 (set IRDMAX)


--------------------------------------------------------------------------------------------------------


 First call to EWALD:  gamma=   0.229
 Maximum number of real-space cells 3x 3x 3
 Maximum number of reciprocal cells 3x 3x 3

    FEWALD:  cpu time    0.0021: real time    0.0047


--------------------------------------- Iteration      1(   1)  ---------------------------------------


    POTLOK:  cpu time    0.1534: real time    0.1578
    SETDIJ:  cpu time    0.9107: real time    0.9108
    TRIAL :  cpu time   66.9307: real time   66.9446
    CORREC:  cpu time    0.0134: real time    0.0136
    --------------------------------------------
      LOOP:  cpu time   68.0957: real time   68.1324

 eigenvalue-minimisations  : 46448
 total energy-change (2. order) : 0.2950101E+04  (-0.1401390E+05)
 number of electron     260.0000013 magnetization      12.0000004
 augmentation part      260.0000013 magnetization      12.0000004

 Free energy of the ion-electron system (eV)
  ---------------------------------------------------
  alpha Z        PSCENC =       771.53583878
  Ewald energy   TEWEN  =    -14540.09929412
  -Hartree energ DENC   =     -9763.88020804
  -exchange      EXHF   =         0.00000000
  -V(xc)+E(xc)   XCENC  =      1436.09409891
  PAW double counting   =     48568.53469593   -49515.72836256
  entropy T*S    EENTRO =        -0.00555333
  eigenvalues    EBANDS =       151.44080987
  atomic energy  EATOM  =     25842.20861598
  ---------------------------------------------------
  free energy    TOTEN  =      2950.10064143 eV

  energy without entropy =     2950.10619476  energy(sigma->0) =     2950.10341810


--------------------------------------------------------------------------------------------------------




--------------------------------------- Iteration      1(   2)  ---------------------------------------


    TRIAL :  cpu time   68.2944: real time   68.3059
    CORREC:  cpu time    0.0134: real time    0.0136
    --------------------------------------------
      LOOP:  cpu time   68.3098: real time   68.3590

 eigenvalue-minimisations  : 46984
 total energy-change (2. order) :-0.2939690E+04  (-0.2711273E+04)
 number of electron     260.0000013 magnetization      12.0000004
 augmentation part      260.0000013 magnetization      12.0000004

 Free energy of the ion-electron system (eV)
  ---------------------------------------------------
  alpha Z        PSCENC =       771.53583878
  Ewald energy   TEWEN  =    -14540.09929412
  -Hartree energ DENC   =     -9763.88020804
  -exchange      EXHF   =         0.00000000
  -V(xc)+E(xc)   XCENC  =      1436.09409891
  PAW double counting   =     48568.53469593   -49515.72836256
  entropy T*S    EENTRO =        -0.00926586
  eigenvalues    EBANDS =     -2788.24533329
  atomic energy  EATOM  =     25842.20861598
  ---------------------------------------------------
  free energy    TOTEN  =        10.41078575 eV

  energy without entropy =       10.42005160  energy(sigma->0) =       10.41541867


--------------------------------------------------------------------------------------------------------




--------------------------------------- Iteration      1(   3)  ---------------------------------------


    TRIAL :  cpu time   70.0415: real time   70.0520
    CORREC:  cpu time    0.0142: real time    0.0144
    --------------------------------------------
      LOOP:  cpu time   70.0588: real time   70.0966

 eigenvalue-minimisations  : 49536
 total energy-change (2. order) :-0.4223181E+03  (-0.4049674E+03)
 number of electron     260.0000013 magnetization      12.0000004
 augmentation part      260.0000013 magnetization      12.0000004

 Free energy of the ion-electron system (eV)
  ---------------------------------------------------
  alpha Z        PSCENC =       771.53583878
  Ewald energy   TEWEN  =    -14540.09929412
  -Hartree energ DENC   =     -9763.88020804
  -exchange      EXHF   =         0.00000000
  -V(xc)+E(xc)   XCENC  =      1436.09409891
  PAW double counting   =     48568.53469593   -49515.72836256
  entropy T*S    EENTRO =        -0.00671862
  eigenvalues    EBANDS =     -3210.56595267
  atomic energy  EATOM  =     25842.20861598
  ---------------------------------------------------
  free energy    TOTEN  =      -411.90728639 eV

  energy without entropy =     -411.90056778  energy(sigma->0) =     -411.90392709


--------------------------------------------------------------------------------------------------------




--------------------------------------- Iteration      1(   4)  ---------------------------------------


    TRIAL :  cpu time   73.2463: real time   73.2554
    CORREC:  cpu time    0.0133: real time    0.0135
    --------------------------------------------
      LOOP:  cpu time   73.2652: real time   73.3101

 eigenvalue-minimisations  : 55744
 total energy-change (2. order) :-0.2123410E+02  (-0.2096879E+02)
 number of electron     260.0000013 magnetization      12.0000004
 augmentation part      260.0000013 magnetization      12.0000004

 Free energy of the ion-electron system (eV)
  ---------------------------------------------------
  alpha Z        PSCENC =       771.53583878
  Ewald energy   TEWEN  =    -14540.09929412
  -Hartree energ DENC   =     -9763.88020804
  -exchange      EXHF   =         0.00000000
  -V(xc)+E(xc)   XCENC  =      1436.09409891
  PAW double counting   =     48568.53469593   -49515.72836256
  entropy T*S    EENTRO =        -0.00462275
  eigenvalues    EBANDS =     -3231.80214434
  atomic energy  EATOM  =     25842.20861598
  ---------------------------------------------------
  free energy    TOTEN  =      -433.14138219 eV

  energy without entropy =     -433.13675945  energy(sigma->0) =     -433.13907082


--------------------------------------------------------------------------------------------------------




--------------------------------------- Iteration      1(   5)  ---------------------------------------


    TRIAL :  cpu time   90.1506: real time   90.1626
    CORREC:  cpu time    0.0139: real time    0.0141
    CHARGE:  cpu time    9.4774: real time    9.4785
    --------------------------------------------
      LOOP:  cpu time   99.6509: real time   99.6941

 eigenvalue-minimisations  : 72432
 total energy-change (2. order) :-0.1009753E+01  (-0.1005495E+01)
 number of electron     260.0000013 magnetization      12.0000004
 augmentation part       55.2968856 magnetization       9.0597282

 Free energy of the ion-electron system (eV)
  ---------------------------------------------------
  alpha Z        PSCENC =       771.53583878
  Ewald energy   TEWEN  =    -14540.09929412
  -Hartree energ DENC   =     -9763.88020804
  -exchange      EXHF   =         0.00000000
  -V(xc)+E(xc)   XCENC  =      1436.09409891
  PAW double counting   =     48568.53469593   -49515.72836256
  entropy T*S    EENTRO =        -0.00462646
  eigenvalues    EBANDS =     -3232.81189382
  atomic energy  EATOM  =     25842.20861598
  ---------------------------------------------------
  free energy    TOTEN  =      -434.15113538 eV

  energy without entropy =     -434.14650893  energy(sigma->0) =     -434.14882216


--------------------------------------------------------------------------------------------------------




--------------------------------------- Iteration      1(   6)  ---------------------------------------


    POTLOK:  cpu time    0.1529: real time    0.1560
    SETDIJ:  cpu time    0.9167: real time    0.9168
    TRIAL :  cpu time   52.2986: real time   52.3056
    CORREC:  cpu time   24.9740: real time   24.9771
    CHARGE:  cpu time    9.6001: real time    9.6010
    --------------------------------------------
      LOOP:  cpu time   87.9472: real time   87.9880

 eigenvalue-minimisations  :     0
 total energy-change (2. order) : 0.7974072E+02  (-0.3129090E+01)
 number of electron     260.0000013 magnetization      12.0000004
 augmentation part       56.5578712 magnetization       9.1112591

 Free energy of the ion-electron system (eV)
  ---------------------------------------------------
  alpha Z        PSCENC =       771.53583878
  Ewald energy   TEWEN  =    -14540.09929412
  -Hartree energ DENC   =     -9563.17503827
  -exchange      EXHF   =         0.00000000
  -V(xc)+E(xc)   XCENC  =      1454.41921164
  PAW double counting   =     47665.82355722   -48589.31228354
  entropy T*S    EENTRO =        -0.00007613
  eigenvalues    EBANDS =     -3395.80639570
  atomic energy  EATOM  =     25842.20861598
  ---------------------------------------------------
  free energy    TOTEN  =      -354.41041446 eV

  energy without entropy =     -354.41033833  energy(sigma->0) =     -354.41037639


--------------------------------------------------------------------------------------------------------




--------------------------------------- Iteration      1(   7)  ---------------------------------------


    POTLOK:  cpu time    0.1450: real time    0.1450
    SETDIJ:  cpu time    0.9135: real time    0.9136
    TRIAL :  cpu time   50.7086: real time   50.7138
    CORREC:  cpu time   25.1312: real time   25.1342
    CHARGE:  cpu time    9.4865: real time    9.4873
    --------------------------------------------
      LOOP:  cpu time   86.3910: real time   86.4339

 eigenvalue-minimisations  :     0
 total energy-change (2. order) :-0.3123214E+01  (-0.6838040E+00)
 number of electron     260.0000013 magnetization      12.0000004
 augmentation part       56.6741492 magnetization       9.1004110

 Free energy of the ion-electron system (eV)
  ---------------------------------------------------
  alpha Z        PSCENC =       771.53583878
  Ewald energy   TEWEN  =    -14540.09929412
  -Hartree energ DENC   =     -9770.97591156
  -exchange      EXHF   =         0.00000000
  -V(xc)+E(xc)   XCENC  =      1467.99732885
  PAW double counting   =     47938.73251715   -48893.12932928
  entropy T*S    EENTRO =        -0.00000000
  eigenvalues    EBANDS =     -3173.80331848
  atomic energy  EATOM  =     25842.20861598
  ---------------------------------------------------
  free energy    TOTEN  =      -357.53362880 eV

  energy without entropy =     -357.53362880  energy(sigma->0) =     -357.53362880


--------------------------------------------------------------------------------------------------------




--------------------------------------- Iteration      1(   8)  ---------------------------------------


    POTLOK:  cpu time    0.1441: real time    0.1441
    SETDIJ:  cpu time    0.9126: real time    0.9126
    TRIAL :  cpu time   50.7943: real time   50.7993
    CORREC:  cpu time   25.1249: real time   25.1279
    CHARGE:  cpu time    9.4761: real time    9.5140
    --------------------------------------------
      LOOP:  cpu time   86.4567: real time   86.5377

 eigenvalue-minimisations  :     0
 total energy-change (2. order) :-0.6849918E+00  (-0.3824526E+00)
 number of electron     260.0000013 magnetization      12.0000004
 augmentation part       56.7955943 magnetization       9.0875367

 Free energy of the ion-electron system (eV)
  ---------------------------------------------------
  alpha Z        PSCENC =       771.53583878
  Ewald energy   TEWEN  =    -14540.09929412
  -Hartree energ DENC   =     -9777.93053219
  -exchange      EXHF   =         0.00000000
  -V(xc)+E(xc)   XCENC  =      1469.63522027
  PAW double counting   =     48336.31408000   -49281.67091962
  entropy T*S    EENTRO =        -0.00000000
  eigenvalues    EBANDS =     -3178.21162972
  atomic energy  EATOM  =     25842.20861598
  ---------------------------------------------------
  free energy    TOTEN  =      -358.21862061 eV

  energy without entropy =     -358.21862061  energy(sigma->0) =     -358.21862061


--------------------------------------------------------------------------------------------------------




--------------------------------------- Iteration      1(   9)  ---------------------------------------


    POTLOK:  cpu time    0.1438: real time    0.1438
    SETDIJ:  cpu time    0.9127: real time    0.9128
    TRIAL :  cpu time   50.7902: real time   50.7989
    CORREC:  cpu time   25.1566: real time   25.1595
    CHARGE:  cpu time    9.4882: real time    9.4891
    --------------------------------------------
      LOOP:  cpu time   86.4936: real time   86.5322

 eigenvalue-minimisations  :     0
 total energy-change (2. order) :-0.3775785E+00  (-0.1411543E+00)
 number of electron     260.0000013 magnetization      12.0000004
 augmentation part       56.8465412 magnetization       9.0832236

 Free energy of the ion-electron system (eV)
  ---------------------------------------------------
  alpha Z        PSCENC =       771.53583878
  Ewald energy   TEWEN  =    -14540.09929412
  -Hartree energ DENC   =     -9763.41432784
  -exchange      EXHF   =         0.00000000
  -V(xc)+E(xc)   XCENC  =      1468.76342422
  PAW double counting   =     48860.55700257   -49807.39691008
  entropy T*S    EENTRO =        -0.00000000
  eigenvalues    EBANDS =     -3190.75054862
  atomic energy  EATOM  =     25842.20861598
  ---------------------------------------------------
  free energy    TOTEN  =      -358.59619910 eV

  energy without entropy =     -358.59619910  energy(sigma->0) =     -358.59619910


--------------------------------------------------------------------------------------------------------




--------------------------------------- Iteration      1(  10)  ---------------------------------------


    POTLOK:  cpu time    0.1437: real time    0.1438
    SETDIJ:  cpu time    0.9092: real time    0.9093
    TRIAL :  cpu time   50.7242: real time   50.7294
    CORREC:  cpu time   25.1621: real time   25.1651
    CHARGE:  cpu time    9.4858: real time    9.4866
    --------------------------------------------
      LOOP:  cpu time   86.4292: real time   86.4738

 eigenvalue-minimisations  :     0
 total energy-change (2. order) :-0.1414717E+00  (-0.7572391E-01)
 number of electron     260.0000013 magnetization      12.0000004
 augmentation part       56.8419366 magnetization       9.0923904

 Free energy of the ion-electron system (eV)
  ---------------------------------------------------
  alpha Z        PSCENC =       771.53583878
  Ewald energy   TEWEN  =    -14540.09929412
  -Hartree energ DENC   =     -9759.94466046
  -exchange      EXHF   =         0.00000000
  -V(xc)+E(xc)   XCENC  =      1468.37855102
  PAW double counting   =     48945.78314631   -49895.35769240
  entropy T*S    EENTRO =        -0.00000000
  eigenvalues    EBANDS =     -3191.24217591
  atomic energy  EATOM  =     25842.20861598
  ---------------------------------------------------
  free energy    TOTEN  =      -358.73767080 eV

  energy without entropy =     -358.73767080  energy(sigma->0) =     -358.73767080


--------------------------------------------------------------------------------------------------------




--------------------------------------- Iteration      1(  11)  ---------------------------------------


    POTLOK:  cpu time    0.1435: real time    0.1436
    SETDIJ:  cpu time    0.9125: real time    0.9126
    TRIAL :  cpu time   50.7028: real time   50.7078
    CORREC:  cpu time   25.1151: real time   25.1182
    CHARGE:  cpu time    9.9277: real time    9.9286
    --------------------------------------------
      LOOP:  cpu time   86.8121: real time   86.8500

 eigenvalue-minimisations  :     0
 total energy-change (2. order) :-0.7378797E-01  (-0.3406169E-01)
 number of electron     260.0000013 magnetization      12.0000004
 augmentation part       56.8333319 magnetization       9.1014110

 Free energy of the ion-electron system (eV)
  ---------------------------------------------------
  alpha Z        PSCENC =       771.53583878
  Ewald energy   TEWEN  =    -14540.09929412
  -Hartree energ DENC   =     -9761.99298881
  -exchange      EXHF   =         0.00000000
  -V(xc)+E(xc)   XCENC  =      1468.62408951
  PAW double counting   =     48799.78405310   -49749.35884057
  entropy T*S    EENTRO =        -0.00000000
  eigenvalues    EBANDS =     -3189.51293264
  atomic energy  EATOM  =     25842.20861598
  ---------------------------------------------------
  free energy    TOTEN  =      -358.81145877 eV

  energy without entropy =     -358.81145877  energy(sigma->0) =     -358.81145877


--------------------------------------------------------------------------------------------------------




--------------------------------------- Iteration      1(  12)  ---------------------------------------


    POTLOK:  cpu time    0.1419: real time    0.1419
    SETDIJ:  cpu time    0.9119: real time    0.9120
    TRIAL :  cpu time   54.3378: real time   54.3617
    CORREC:  cpu time   25.2667: real time   25.2697
    CHARGE:  cpu time    9.4933: real time    9.4942
    --------------------------------------------
      LOOP:  cpu time   90.1628: real time   90.2322

 eigenvalue-minimisations  :     0
 total energy-change (2. order) :-0.3349653E-01  (-0.1407284E-01)
 number of electron     260.0000013 magnetization      12.0000004
 augmentation part       56.8402281 magnetization       9.1058983

 Free energy of the ion-electron system (eV)
  ---------------------------------------------------
  alpha Z        PSCENC =       771.53583878
  Ewald energy   TEWEN  =    -14540.09929412
  -Hartree energ DENC   =     -9764.08297495
  -exchange      EXHF   =         0.00000000
  -V(xc)+E(xc)   XCENC  =      1468.88289452
  PAW double counting   =     48691.22153764   -49640.42928603
  entropy T*S    EENTRO =        -0.00000000
  eigenvalues    EBANDS =     -3188.08228712
  atomic energy  EATOM  =     25842.20861598
  ---------------------------------------------------
  free energy    TOTEN  =      -358.84495529 eV

  energy without entropy =     -358.84495529  energy(sigma->0) =     -358.84495529


--------------------------------------------------------------------------------------------------------




--------------------------------------- Iteration      1(  13)  ---------------------------------------


    POTLOK:  cpu time    0.1610: real time    0.1610
    SETDIJ:  cpu time    0.9167: real time    0.9167
    TRIAL :  cpu time   54.2761: real time   54.2816
    CORREC:  cpu time   25.2916: real time   25.2947
    CHARGE:  cpu time    9.4957: real time    9.4965
    --------------------------------------------
      LOOP:  cpu time   90.1467: real time   90.1961

 eigenvalue-minimisations  :     0
 total energy-change (2. order) :-0.1387249E-01  (-0.6133421E-02)
 number of electron     260.0000013 magnetization      12.0000004
 augmentation part       56.8458072 magnetization       9.1041545

 Free energy of the ion-electron system (eV)
  ---------------------------------------------------
  alpha Z        PSCENC =       771.53583878
  Ewald energy   TEWEN  =    -14540.09929412
  -Hartree energ DENC   =     -9764.59701758
  -exchange      EXHF   =         0.00000000
  -V(xc)+E(xc)   XCENC  =      1468.90695279
  PAW double counting   =     48651.86764811   -49601.55036450
  entropy T*S    EENTRO =        -0.00000000
  eigenvalues    EBANDS =     -3187.13120725
  atomic energy  EATOM  =     25842.20861598
  ---------------------------------------------------
  free energy    TOTEN  =      -358.85882778 eV

  energy without entropy =     -358.85882778  energy(sigma->0) =     -358.85882778


--------------------------------------------------------------------------------------------------------




--------------------------------------- Iteration      1(  14)  ---------------------------------------


    POTLOK:  cpu time    0.1441: real time    0.1441
    SETDIJ:  cpu time    0.9168: real time    0.9169
    TRIAL :  cpu time   53.2024: real time   53.2077
    CORREC:  cpu time   25.2505: real time   25.2563
    CHARGE:  cpu time    9.5026: real time    9.5035
    --------------------------------------------
      LOOP:  cpu time   89.0198: real time   89.0674

 eigenvalue-minimisations  :     0
 total energy-change (2. order) :-0.5722310E-02  (-0.4658073E-02)
 number of electron     260.0000013 magnetization      12.0000004
 augmentation part       56.8490908 magnetization       9.0968700

 Free energy of the ion-electron system (eV)
  ---------------------------------------------------
  alpha Z        PSCENC =       771.53583878
  Ewald energy   TEWEN  =    -14540.09929412
  -Hartree energ DENC   =     -9763.80950793
  -exchange      EXHF   =         0.00000000
  -V(xc)+E(xc)   XCENC  =      1468.85372827
  PAW double counting   =     48605.98049015   -49555.82074190
  entropy T*S    EENTRO =        -0.00000000
  eigenvalues    EBANDS =     -3187.71367933
  atomic energy  EATOM  =     25842.20861598
  ---------------------------------------------------
  free energy    TOTEN  =      -358.86455010 eV

  energy without entropy =     -358.86455010  energy(sigma->0) =     -358.86455010


--------------------------------------------------------------------------------------------------------




--------------------------------------- Iteration      1(  15)  ---------------------------------------


    POTLOK:  cpu time    0.1448: real time    0.1448
    SETDIJ:  cpu time    0.9173: real time    0.9175
    TRIAL :  cpu time   54.0780: real time   54.0852
    CORREC:  cpu time   25.2724: real time   25.2784
    CHARGE:  cpu time    9.4978: real time    9.4987
    --------------------------------------------
      LOOP:  cpu time   89.9145: real time   89.9556

 eigenvalue-minimisations  :     0
[...]
 -0.000   0.000   0.000  -0.000   0.000  -0.000   0.000  -0.000  -0.000   0.000   0.000   0.000  -0.000   0.000  -0.000  -0.000
 -0.000   0.000  -0.000   0.000  -0.000   0.000  -0.000   0.000  -0.000  -0.000   0.000   0.000  -0.000   0.000   0.000  -0.000
 -0.000   0.000   0.000   0.000   0.000  -0.000  -0.000  -0.000   0.000  -0.000  -0.001  -0.000  -0.000  -0.000   0.000   0.000
  0.000   0.001   0.000   0.000   0.000  -0.000   0.000  -0.000  -0.000  -0.000  -0.001  -0.001  -0.000   0.000   0.000   0.000
  0.000   0.000  -0.000  -0.000  -0.000   0.000   0.000   0.000  -0.001  -0.001   0.000  -0.001  -0.000   0.000   0.000  -0.000
  0.000   0.001   0.000  -0.000  -0.000  -0.000   0.000   0.000  -0.000  -0.001  -0.001  -0.001  -0.000   0.000   0.000   0.000
  0.000   0.000   0.000  -0.000  -0.000   0.000  -0.000  -0.000  -0.000  -0.000  -0.000  -0.000   0.000   0.000   0.000   0.000
  0.000  -0.000  -0.000  -0.000  -0.000   0.000   0.000   0.000  -0.000   0.000   0.000   0.000   0.000   0.000  -0.000  -0.000
 -0.000  -0.000  -0.000  -0.000  -0.000   0.000  -0.000   0.000   0.000   0.000   0.000   0.000   0.000  -0.000  -0.000  -0.000
 -0.000  -0.000  -0.000  -0.000  -0.000  -0.000  -0.000  -0.000   0.000   0.000  -0.000   0.000   0.000  -0.000  -0.000   0.000
 -0.000  -0.000  -0.000  -0.000   0.000   0.000  -0.000  -0.000   0.000   0.000   0.000   0.000   0.000  -0.000  -0.000  -0.000
 -0.000  -0.000  -0.000   0.000   0.000  -0.000  -0.000  -0.000   0.000   0.000   0.000   0.000  -0.000  -0.000  -0.000  -0.000


------------------------ aborting loop because EDIFF is reached ----------------------------------------


 


 total charge     
 
# of ion       s       p       d       tot
------------------------------------------
    1        2.017   5.867   0.185   8.069
    2        2.017   5.867   0.185   8.069
    3        0.251   6.283   7.071  13.605
    4        0.251   6.283   7.071  13.604
    5        0.251   6.283   7.071  13.605
    6        0.251   6.283   7.071  13.605
    7        1.220   2.296   0.000   3.516
    8        1.220   2.297   0.000   3.517
    9        1.220   2.297   0.000   3.517
   10        1.220   2.297   0.000   3.517
   11        1.220   2.297   0.000   3.517
   12        1.220   2.295   0.000   3.516
   13        1.582   3.645   0.000   5.227
   14        1.582   3.647   0.000   5.229
   15        1.582   3.643   0.000   5.225
   16        1.583   3.644   0.000   5.226
   17        1.583   3.647   0.000   5.229
   18        1.582   3.644   0.000   5.227
   19        1.582   3.644   0.000   5.226
   20        1.582   3.643   0.000   5.225
   21        1.582   3.647   0.000   5.229
   22        1.583   3.647   0.000   5.230
   23        1.582   3.644   0.000   5.226
   24        1.582   3.645   0.000   5.227
   25        1.585   3.648   0.000   5.233
   26        1.585   3.648   0.000   5.233
   27        1.585   3.651   0.000   5.236
   28        1.585   3.650   0.000   5.235
   29        1.585   3.647   0.000   5.232
   30        1.585   3.647   0.000   5.232
   31        1.585   3.648   0.000   5.233
   32        1.585   3.652   0.000   5.237
   33        1.585   3.648   0.000   5.233
   34        1.585   3.647   0.000   5.232
   35        1.585   3.651   0.000   5.236
   36        1.585   3.649   0.000   5.233
--------------------------------------------------
tot         50.365 138.169  28.655 217.190
 


 magnetization (x)
 
# of ion       s       p       d       tot
------------------------------------------
    1        0.000   0.000  -0.000   0.000
    2        0.000   0.000  -0.000   0.000
    3        0.004   0.009   2.713   2.725
    4        0.004   0.009   2.714   2.726
    5        0.004   0.009   2.713   2.726
    6        0.004   0.009   2.713   2.726
    7        0.003   0.009   0.000   0.012
    8        0.004   0.009   0.000   0.013
    9        0.004   0.009   0.000   0.013
   10        0.004   0.009   0.000   0.013
   11        0.004   0.009   0.000   0.013
   12        0.003   0.008   0.000   0.012
   13        0.005   0.029   0.000   0.034
   14        0.006   0.025   0.000   0.031
   15        0.005   0.031   0.000   0.036
   16        0.005   0.030   0.000   0.035
   17        0.006   0.026   0.000   0.031
   18        0.005   0.030   0.000   0.035
   19        0.005   0.030   0.000   0.036
   20        0.005   0.031   0.000   0.036
   21        0.006   0.025   0.000   0.031
   22        0.006   0.026   0.000   0.031
   23        0.005   0.030   0.000   0.035
   24        0.005   0.029   0.000   0.034
   25        0.007   0.027   0.000   0.034
   26        0.006   0.031   0.000   0.038
   27        0.007   0.021   0.000   0.028
   28        0.007   0.021   0.000   0.028
   29        0.006   0.029   0.000   0.035
   30        0.007   0.026   0.000   0.032
   31        0.007   0.025   0.000   0.032
   32        0.007   0.021   0.000   0.028
   33        0.006   0.031   0.000   0.037
   34        0.007   0.028   0.000   0.034
   35        0.007   0.021   0.000   0.028
   36        0.007   0.028   0.000   0.034
--------------------------------------------------
tot          0.180   0.739  10.853  11.772
 
    FORLOC:  cpu time    0.0110: real time    0.0110
    FORNL :  cpu time    5.4762: real time    5.4769
    STRESS:  cpu time  176.6609: real time  176.6827
    FORCOR:  cpu time    0.1406: real time    0.1445
    OFIELD:  cpu time    0.0004: real time    0.0004

  FORCE on cell =-STRESS in cart. coord.  units (eV):
  Direction    XX          YY          ZZ          XY          YZ          ZX
  --------------------------------------------------------------------------------------
  Alpha Z   771.53584   771.53584   771.53584
  Ewald   -5042.21981 -5223.45301 -4274.49479   266.06477   503.30011   647.97283
  Hartree  3146.45462  3021.85502  3595.62911   154.97256   294.00581   386.20812
  E(xc)   -1433.70933 -1433.88173 -1434.09108    -0.13589    -0.25319    -0.24732
  Local   -2281.53385 -1956.49581 -3480.19057  -413.03078  -778.06390 -1025.74343
  n-local  -407.42331  -404.66640  -403.82307     1.47760     2.93851     1.91213
  augment   768.18994   751.28919   769.22371    -1.45056    -6.00443     5.59977
  Kinetic  4478.69561  4473.79915  4456.32012    -7.87816   -15.92569   -15.67679
  Fock        0.00000     0.00000     0.00000     0.00000     0.00000     0.00000
  -------------------------------------------------------------------------------------
  Total      -0.01028    -0.01775     0.10928     0.01954    -0.00280     0.02530
  in kB      -0.03537    -0.06107     0.37595     0.06722    -0.00962     0.08703
  external pressure =        0.09 kB  Pullay stress =        0.00 kB


 VOLUME and BASIS-vectors are now :
 -----------------------------------------------------------------------------
  energy-cutoff  :      520.00
  volume of cell :      465.70
      direct lattice vectors                 reciprocal lattice vectors
     7.586959048  0.048826034  4.492159230     0.133192933 -0.047605192 -0.001826506
     2.586276703  7.064257078  4.477657138    -0.000682025  0.142055950 -0.000392135
     0.129526909  0.024903477  8.796320441    -0.067672613 -0.048000495  0.114816281

  length of vectors
     8.817245949  8.754539890  8.797309288     0.141456523  0.142058129  0.141655952


 FORCES acting on ions:
    Electron-Ion                     Ewald-Force                    Non-Local-Force
 -----------------------------------------------------------------------------------------------
   0.354E+00 -.788E-01 0.807E+00   -.352E+00 0.831E-01 -.799E+00   0.147E-02 -.492E-02 -.953E-02
   0.395E+00 0.693E+00 0.257E+00   -.373E+00 -.666E+00 -.258E+00   -.241E-01 -.295E-01 0.564E-02
   -.231E+02 -.124E+02 -.393E+02   0.245E+02 0.132E+02 0.416E+02   -.133E+01 -.775E+00 -.227E+01
   -.200E+02 -.137E+02 -.403E+02   0.214E+02 0.143E+02 0.426E+02   -.139E+01 -.586E+00 -.222E+01
   0.198E+02 0.140E+02 0.404E+02   -.213E+02 -.148E+02 -.425E+02   0.145E+01 0.803E+00 0.215E+01
   0.226E+02 0.120E+02 0.390E+02   -.238E+02 -.127E+02 -.412E+02   0.120E+01 0.679E+00 0.223E+01
   0.674E+01 0.596E+00 -.331E+01   -.413E+01 -.641E+00 0.201E+01   -.265E+01 0.463E-01 0.134E+01
   0.402E+01 -.560E+01 -.636E+00   -.209E+01 0.345E+01 0.907E+00   -.198E+01 0.220E+01 -.265E+00
   -.338E+01 0.584E+01 0.696E+00   0.143E+01 -.366E+01 -.899E+00   0.200E+01 -.222E+01 0.202E+00
   0.335E+01 0.560E+01 -.166E+01   -.255E+01 -.321E+01 -.398E-02   -.826E+00 -.243E+01 0.171E+01
   -.345E+01 -.589E+01 0.178E+01   0.266E+01 0.357E+01 -.954E-01   0.807E+00 0.237E+01 -.172E+01
   -.718E+01 -.723E+00 0.295E+01   0.458E+01 0.754E+00 -.166E+01   0.264E+01 -.314E-01 -.132E+01
   0.320E+02 0.278E+02 0.973E+02   0.215E+00 -.242E+02 -.120E+03   -.322E+02 -.359E+01 0.227E+02
   0.407E+02 0.589E+02 0.800E+02   -.218E+02 -.939E+02 -.794E+02   -.190E+02 0.351E+02 -.654E+00
   0.680E+02 0.217E+02 0.843E+02   -.948E+02 0.753E+01 -.841E+02   0.268E+02 -.293E+02 -.240E+00
   0.350E+02 0.198E+02 0.988E+02   -.209E+02 0.981E+01 -.122E+03   -.141E+02 -.296E+02 0.228E+02
   0.511E+02 0.599E+02 0.731E+02   -.600E+02 -.952E+02 -.562E+02   0.893E+01 0.353E+02 -.169E+02
   0.709E+02 0.307E+02 0.790E+02   -.107E+03 -.277E+02 -.627E+02   0.360E+02 -.309E+01 -.163E+02
   -.702E+02 -.316E+02 -.800E+02   0.106E+03 0.287E+02 0.638E+02   -.359E+02 0.292E+01 0.162E+02
   -.681E+02 -.215E+02 -.863E+02   0.948E+02 -.785E+01 0.863E+02   -.267E+02 0.294E+02 -.188E-01
   -.402E+02 -.586E+02 -.800E+02   0.212E+02 0.936E+02 0.793E+02   0.191E+02 -.351E+02 0.641E+00
   -.516E+02 -.593E+02 -.725E+02   0.607E+02 0.946E+02 0.556E+02   -.911E+01 -.353E+02 0.169E+02
   -.371E+02 -.192E+02 -.995E+02   0.233E+02 -.105E+02 0.122E+03   0.138E+02 0.296E+02 -.229E+02
   -.323E+02 -.290E+02 -.974E+02   0.236E+00 0.255E+02 0.120E+03   0.321E+02 0.349E+01 -.228E+02
   0.102E+03 -.143E+01 0.366E+02   -.105E+03 -.112E+02 -.789E+02   0.287E+01 0.126E+02 0.424E+02
   0.996E+02 -.206E+02 0.455E+02   -.108E+03 -.738E+01 -.782E+02   0.888E+01 0.281E+02 0.328E+02
   0.222E+02 0.925E+02 0.489E+02   -.530E+02 -.896E+02 -.815E+02   0.308E+02 -.289E+01 0.326E+02
   0.312E+02 0.919E+02 0.439E+02   -.437E+02 -.890E+02 -.869E+02   0.125E+02 -.295E+01 0.430E+02
   -.972E+01 -.174E+02 0.112E+03   -.139E+02 -.110E+02 -.137E+03   0.236E+02 0.285E+02 0.246E+02
   -.161E+02 -.365E+01 0.111E+03   -.193E+02 -.896E+01 -.135E+03   0.354E+02 0.126E+02 0.242E+02
   0.160E+02 0.369E+01 -.109E+03   0.196E+02 0.895E+01 0.133E+03   -.355E+02 -.126E+02 -.239E+02
   -.213E+02 -.916E+02 -.491E+02   0.520E+02 0.886E+02 0.817E+02   -.308E+02 0.294E+01 -.326E+02
   -.989E+02 0.198E+02 -.461E+02   0.108E+03 0.837E+01 0.788E+02   -.884E+01 -.282E+02 -.328E+02
   0.864E+01 0.164E+02 -.111E+03   0.152E+02 0.122E+02 0.135E+03   -.238E+02 -.286E+02 -.244E+02
   -.309E+02 -.913E+02 -.435E+02   0.433E+02 0.881E+02 0.864E+02   -.124E+02 0.316E+01 -.430E+02
   -.101E+03 0.185E+01 -.359E+02   0.103E+03 0.107E+02 0.782E+02   -.253E+01 -.126E+02 -.423E+02
 -----------------------------------------------------------------------------------------------
   0.245E+00 0.102E+00 0.209E+00   0.000E+00 0.131E-12 0.412E-12   -.232E+00 -.499E-01 -.133E+00
 
 
 POSITION                                       TOTAL-FORCE (eV/Angst)
 -----------------------------------------------------------------------------------
      5.12931      3.54925      8.84182         0.002833     -0.002033     -0.003117
     10.27848      7.11924     17.72538        -0.002438     -0.004034      0.002133
      6.64705      4.61477     11.46617         0.023859      0.005438      0.008004
      1.49886      1.04795      2.58066        -0.004694      0.017137      0.004858
      8.75294      6.06112     15.10238         0.002140     -0.008742     -0.015315
      3.60737      2.49233      6.21531        -0.011427     -0.017520      0.002017
      7.93795      1.81137     10.16635         0.012039     -0.001838      0.003990
      3.63856      0.34677      8.80467        -0.001550      0.004270      0.008151
      6.61288      6.75663      8.87447         0.000923     -0.003661     -0.006938
      6.84382      3.22433      5.76492        -0.005385      0.001691      0.007637
      3.40865      3.87877     11.91303         0.001727     -0.005291     -0.010478
      2.31505      5.29138      7.51430        -0.016026     -0.000423     -0.000216
      4.65085      4.02775     11.11003        -0.001766     -0.001818      0.005898
      7.57660      1.93504      5.82876        -0.018432      0.019914     -0.000292
      6.96408      2.93259     10.23118         0.001038     -0.005233     -0.013391
      2.86385      6.41457      6.71305        -0.003806      0.003092      0.001676
      6.30603      5.46577      9.53632         0.011044      0.006827     -0.002016
      2.31631      0.48264      9.47061        -0.006763     -0.000499     -0.021585
      7.93493      6.62347      8.20640         0.009785      0.003164      0.014845
      3.28773      4.16905      7.45484         0.003953      0.007314      0.014521
      2.67444      5.16681     11.85097         0.020555     -0.017653     -0.000976
      3.94996      1.63599      8.14186        -0.013594     -0.011426      0.000932
      7.39445      0.68757     10.96989         0.002300     -0.005572      0.003674
      5.60192      3.07738      6.56930        -0.001226      0.002891     -0.006341
      8.04471      1.43311      8.76712        -0.010317      0.000132      0.006417
      6.08420      6.35699     12.28846        -0.018485      0.009762     -0.000254
      5.56884      7.00166      7.90040         0.005893      0.008588      0.010559
      6.65667      3.49559     13.16863         0.001330     -0.000207      0.020835
      2.63055      2.82382     11.28235        -0.012523     -0.011958     -0.003666
      8.64378      4.96106     11.38772        -0.014285     -0.002218      0.006998
      1.61200      2.14274      6.28542         0.010974      0.002174     -0.004586
      4.68074      0.10102      9.78025        -0.007944     -0.005607     -0.010163
      4.16779      0.74581      5.39072         0.015649     -0.005303      0.000514
      7.62349      4.27932      6.39197         0.007923      0.006131     -0.000445
      3.59367      3.60375      4.50890         0.002667      0.008112     -0.021301
      2.20009      5.67005      8.91260         0.014031      0.004397     -0.002580
 -----------------------------------------------------------------------------------
    total drift:                                0.013279      0.051943      0.076384


--------------------------------------------------------------------------------------------------------



  FREE ENERGIE OF THE ION-ELECTRON SYSTEM (eV)
  ---------------------------------------------------
  free  energy   TOTEN  =      -358.87353337 eV

  energy  without entropy=     -358.87353337  energy(sigma->0) =     -358.87353337
 


--------------------------------------------------------------------------------------------------------


    POTLOK:  cpu time    1.0560: real time    1.0563


--------------------------------------------------------------------------------------------------------




--------------------------------------------------------------------------------------------------------


  
 reached required accuracy - stopping structural energy minimisation
     LOOP+:  cpu time 2609.6381: real time 2611.3081
    4ORBIT:  cpu time    0.0000: real time    0.0000
 


 total charge     
 
# of ion       s       p       d       tot
------------------------------------------
    1        2.017   5.867   0.185   8.069
    2        2.017   5.867   0.185   8.069
    3        0.251   6.283   7.071  13.605
    4        0.251   6.283   7.071  13.604
    5        0.251   6.283   7.071  13.605
    6        0.251   6.283   7.071  13.605
    7        1.220   2.296   0.000   3.516
    8        1.220   2.297   0.000   3.517
    9        1.220   2.297   0.000   3.517
   10        1.220   2.297   0.000   3.517
   11        1.220   2.297   0.000   3.517
   12        1.220   2.295   0.000   3.516
   13        1.582   3.645   0.000   5.227
   14        1.582   3.647   0.000   5.229
   15        1.582   3.643   0.000   5.225
   16        1.583   3.644   0.000   5.226
   17        1.583   3.647   0.000   5.229
   18        1.582   3.644   0.000   5.227
   19        1.582   3.644   0.000   5.226
   20        1.582   3.643   0.000   5.225
   21        1.582   3.647   0.000   5.229
   22        1.583   3.647   0.000   5.230
   23        1.582   3.644   0.000   5.226
   24        1.582   3.645   0.000   5.227
   25        1.585   3.648   0.000   5.233
   26        1.585   3.648   0.000   5.233
   27        1.585   3.651   0.000   5.236
   28        1.585   3.650   0.000   5.235
   29        1.585   3.647   0.000   5.232
   30        1.585   3.647   0.000   5.232
   31        1.585   3.648   0.000   5.233
   32        1.585   3.652   0.000   5.237
   33        1.585   3.648   0.000   5.233
   34        1.585   3.647   0.000   5.232
   35        1.585   3.651   0.000   5.236
   36        1.585   3.649   0.000   5.233
--------------------------------------------------
tot         50.365 138.169  28.655 217.190
 


 magnetization (x)
 
# of ion       s       p       d       tot
------------------------------------------
    1        0.000   0.000  -0.000   0.000
    2        0.000   0.000  -0.000   0.000
    3        0.004   0.009   2.713   2.725
    4        0.004   0.009   2.714   2.726
    5        0.004   0.009   2.713   2.726
    6        0.004   0.009   2.713   2.726
    7        0.003   0.009   0.000   0.012
    8        0.004   0.009   0.000   0.013
    9        0.004   0.009   0.000   0.013
   10        0.004   0.009   0.000   0.013
   11        0.004   0.009   0.000   0.013
   12        0.003   0.008   0.000   0.012
   13        0.005   0.029   0.000   0.034
   14        0.006   0.025   0.000   0.031
   15        0.005   0.031   0.000   0.036
   16        0.005   0.030   0.000   0.035
   17        0.006   0.026   0.000   0.031
   18        0.005   0.030   0.000   0.035
   19        0.005   0.030   0.000   0.036
   20        0.005   0.031   0.000   0.036
   21        0.006   0.025   0.000   0.031
   22        0.006   0.026   0.000   0.031
   23        0.005   0.030   0.000   0.035
   24        0.005   0.029   0.000   0.034
   25        0.007   0.027   0.000   0.034
   26        0.006   0.031   0.000   0.038
   27        0.007   0.021   0.000   0.028
   28        0.007   0.021   0.000   0.028
   29        0.006   0.029   0.000   0.035
   30        0.007   0.026   0.000   0.032
   31        0.007   0.025   0.000   0.032
   32        0.007   0.021   0.000   0.028
   33        0.006   0.031   0.000   0.037
   34        0.007   0.028   0.000   0.034
   35        0.007   0.021   0.000   0.028
   36        0.007   0.028   0.000   0.034
--------------------------------------------------
tot          0.180   0.739  10.853  11.772
 

 total amount of memory used by VASP MPI-rank0   273231. kBytes
=======================================================================

   base      :      30000. kBytes
   nonlr-proj:       8918. kBytes
   fftplans  :       2612. kBytes
   grid      :      10205. kBytes
   one-center:         93. kBytes
   wavefun   :     221403. kBytes
 
  
  
 General timing and accounting informations for this job:
 ========================================================
  
                  Total CPU time used (sec):     2651.358
                            User time (sec):     2627.182
                          System time (sec):       24.176
                         Elapsed time (sec):     2654.394
  
                   Maximum memory used (kb):      530416.
                   Average memory used (kb):           0.
  
                          Minor page faults:       228521
                          Major page faults:            0
                 Voluntary context switches:         1937
