       N       E                     dE             d eps       ncg     rms          ort
DAV:   1     0.251402800545E+04    0.25140E+04   -0.14357E+05  6888   0.158E+03
DAV:   2    -0.189991962111E+03   -0.27040E+04   -0.25738E+04  6888   0.421E+02
DAV:   3    -0.457916418035E+03   -0.26792E+03   -0.26440E+03  6888   0.147E+02
DAV:   4    -0.466724103319E+03   -0.88077E+01   -0.86845E+01  6888   0.250E+01
DAV:   5    -0.467270341791E+03   -0.54624E+00   -0.54488E+00  6888   0.499E+00
SDA:   6    -0.304204061790E+03    0.16307E+03   -0.54488E+00  6888   0.377E+03 0.000E+00
CGA:   7    -0.353487370141E+03   -0.49283E+02   -0.52217E+02  6888   0.503E+02 0.806E+01
CGA:   8    -0.362730988598E+03   -0.92436E+01   -0.92385E+01  6888   0.134E+02 0.116E-01
CGA:   9    -0.365614288266E+03   -0.28833E+01   -0.28819E+01  6888   0.514E+01 0.485E-01
CGA:  10    -0.366702375627E+03   -0.10881E+01   -0.10878E+01  6888   0.204E+01-0.494E-02
CGA:  11    -0.367180663093E+03   -0.47829E+00   -0.47924E+00  6888   0.681E+00-0.282E-01
CGA:  12    -0.367343694011E+03   -0.16303E+00   -0.16347E+00  6888   0.244E+00-0.102E-01
CGA:  13    -0.367404549716E+03   -0.60856E-01   -0.60545E-01  6888   0.725E-01 0.618E-02
CGA:  14    -0.367425387009E+03   -0.20837E-01   -0.20572E-01  6888   0.280E-01 0.365E-02
CGA:  15    -0.367435369655E+03   -0.99826E-02   -0.10240E-01  6888   0.141E-01-0.185E-02
CGA:  16    -0.367439578021E+03   -0.42084E-02   -0.41508E-02  6888   0.587E-02 0.571E-03
CGA:  17    -0.367441706385E+03   -0.21284E-02   -0.21865E-02  6888   0.285E-02-0.428E-03
CGA:  18    -0.367442698989E+03   -0.99260E-03   -0.10295E-02  6888   0.141E-02-0.232E-03
CGA:  19    -0.367443097646E+03   -0.39866E-03   -0.38559E-03  6888   0.583E-03 0.204E-03
CGA:  20    -0.367443364116E+03   -0.26647E-03   -0.35986E-03  6888   0.702E-03-0.313E-03
CGA:  21    -0.367443460468E+03   -0.96352E-04   -0.11910E-03  6888   0.153E-03 0.272E-03
CGA:  22    -0.367443511292E+03   -0.50824E-04   -0.51121E-04  6888   0.768E-04 0.386E-04
CGA:  23    -0.367443564315E+03   -0.53024E-04    0.11102E-03  6888   0.650E-04 0.437E-04
CGA:  24    -0.367443569382E+03   -0.50668E-05   -0.96114E-05  6888   0.384E-04 0.451E-04
CGA:  25    -0.367443592081E+03   -0.22699E-04    0.21990E-04  6888   0.279E-04 0.292E-04
CGA:  26    -0.367443593075E+03   -0.99421E-06   -0.37940E-05  6888   0.266E-04 0.260E-04
CGA:  27    -0.367443649148E+03   -0.56073E-04   -0.14329E-04  6888   0.128E-04 0.756E-05
CGA:  28    -0.367443643447E+03    0.57013E-05   -0.41738E-06  6888   0.102E-04 0.150E-04
   1 F= -.36744364E+03 E0= -.36744364E+03  d E =-.367444E+03  mag=    16.0000
       N       E                     dE             d eps       ncg     rms          ort
SDA:   1    -0.367420350680E+03    0.23298E-01    0.00000E+00  6888   0.615E-01 0.000E+00
CGA:   2    -0.367436388958E+03   -0.16038E-01   -0.16077E-01  6888   0.288E-01 0.277E-03
CGA:   3    -0.367441657990E+03   -0.52690E-02   -0.52960E-02  6888   0.802E-02 0.136E-03
CGA:   4    -0.367443113540E+03   -0.14556E-02   -0.14643E-02  6888   0.178E-02 0.439E-04
CGA:   5    -0.367443472540E+03   -0.35900E-03   -0.35113E-03  6888   0.543E-03-0.467E-04
CGA:   6    -0.367443617096E+03   -0.14456E-03   -0.13514E-03  6888   0.260E-03-0.914E-04
CGA:   7    -0.367443666215E+03   -0.49119E-04   -0.49470E-04  6888   0.876E-04 0.262E-05
CGA:   8    -0.367443673464E+03   -0.72493E-05   -0.14154E-04  6888   0.325E-04 0.368E-04
   2 F= -.36744367E+03 E0= -.36744367E+03  d E =-.300169E-04  mag=    16.0000
       N       E                     dE             d eps       ncg     rms          ort
SDA:   1    -0.367438880793E+03    0.47854E-02    0.00000E+00  6888   0.130E-01 0.000E+00
CGA:   2    -0.367442355457E+03   -0.34747E-02   -0.34674E-02  6888   0.638E-02-0.117E-03
CGA:   3    -0.367443522122E+03   -0.11667E-02   -0.11575E-02  6888   0.178E-02-0.648E-04
CGA:   4    -0.367443844010E+03   -0.32189E-03   -0.31959E-03  6888   0.399E-03-0.168E-04
CGA:   5    -0.367443903640E+03   -0.59630E-04   -0.64412E-04  6888   0.974E-04 0.322E-04
CGA:   6    -0.367443912215E+03   -0.85743E-05   -0.15007E-04  6888   0.305E-04 0.399E-04
   3 F= -.36744391E+03 E0= -.36744391E+03  d E =-.268767E-03  mag=    16.0000
       N       E                     dE             d eps       ncg     rms          ort
SDA:   1    -0.367443616028E+03    0.28761E-03    0.00000E+00  6888   0.735E-03 0.000E+00
CGA:   2    -0.367443806107E+03   -0.19008E-03   -0.19025E-03  6888   0.344E-03 0.592E-05
CGA:   3    -0.367443871147E+03   -0.65040E-04   -0.64443E-04  6888   0.117E-03-0.598E-05
CGA:   4    -0.367443895032E+03   -0.23885E-04   -0.23700E-04  6888   0.288E-04-0.243E-05
CGA:   5    -0.367443895837E+03   -0.80552E-06   -0.29971E-05  6888   0.967E-05 0.129E-04
CGA:   6    -0.367443894539E+03    0.12980E-05   -0.80509E-06  6888   0.621E-05 0.999E-05
   4 F= -.36744389E+03 E0= -.36744389E+03  d E =-.251092E-03  mag=    16.0000
       N       E                     dE             d eps       ncg     rms          ort
SDA:   1    -0.367436007698E+03    0.78881E-02    0.00000E+00  6888   0.250E-01 0.000E+00
CGA:   2    -0.367441060046E+03   -0.50523E-02   -0.50728E-02  6888   0.111E-01 0.457E-03
CGA:   3    -0.367443332966E+03   -0.22729E-02   -0.22772E-02  6888   0.341E-02 0.989E-04
CGA:   4    -0.367443994438E+03   -0.66147E-03   -0.65320E-03  6888   0.851E-03-0.156E-03
CGA:   5    -0.367444153374E+03   -0.15894E-03   -0.15561E-03  6888   0.253E-03-0.691E-04
CGA:   6    -0.367444209256E+03   -0.55882E-04   -0.56040E-04  6888   0.105E-03-0.411E-04
CGA:   7    -0.367444229097E+03   -0.19841E-04   -0.19854E-04  6888   0.336E-04 0.835E-06
CGA:   8    -0.367444230790E+03   -0.16927E-05   -0.39901E-05  6888   0.144E-04 0.192E-04
   5 F= -.36744423E+03 E0= -.36744423E+03  d E =-.336250E-03  mag=    16.0000
       N       E                     dE             d eps       ncg     rms          ort
SDA:   1    -0.367438799701E+03    0.54294E-02    0.00000E+00  6888   0.168E-01 0.000E+00
CGA:   2    -0.367442169627E+03   -0.33699E-02   -0.33796E-02  6888   0.729E-02 0.404E-03
CGA:   3    -0.367443678077E+03   -0.15084E-02   -0.15103E-02  6888   0.227E-02 0.873E-04
CGA:   4    -0.367444129877E+03   -0.45180E-03   -0.44784E-03  6888   0.614E-03-0.141E-03
CGA:   5    -0.367444245167E+03   -0.11529E-03   -0.11370E-03  6888   0.197E-03-0.659E-04
CGA:   6    -0.367444288470E+03   -0.43304E-04   -0.44591E-04  6888   0.933E-04-0.397E-04
CGA:   7    -0.367444305275E+03   -0.16805E-04   -0.16800E-04  6888   0.309E-04 0.128E-05
CGA:   8    -0.367444306966E+03   -0.16913E-05   -0.36247E-05  6888   0.139E-04 0.181E-04
   6 F= -.36744431E+03 E0= -.36744431E+03  d E =-.412427E-03  mag=    16.0000
       N       E                     dE             d eps       ncg     rms          ort
SDA:   1    -0.367438256027E+03    0.60492E-02    0.00000E+00  6888   0.184E-01 0.000E+00
CGA:   2    -0.367442203916E+03   -0.39479E-02   -0.39468E-02  6888   0.861E-02 0.324E-03
CGA:   3    -0.367443892274E+03   -0.16884E-02   -0.16909E-02  6888   0.236E-02 0.136E-03
CGA:   4    -0.367444341206E+03   -0.44893E-03   -0.44638E-03  6888   0.600E-03-0.104E-03
CGA:   5    -0.367444457878E+03   -0.11667E-03   -0.11618E-03  6888   0.201E-03-0.715E-04
CGA:   6    -0.367444500458E+03   -0.42580E-04   -0.44606E-04  6888   0.948E-04-0.471E-04
CGA:   7    -0.367444515050E+03   -0.14592E-04   -0.14645E-04  6888   0.285E-04 0.547E-05
CGA:   8    -0.367444516600E+03   -0.15505E-05   -0.33209E-05  6888   0.135E-04 0.175E-04
   7 F= -.36744452E+03 E0= -.36744452E+03  d E =-.209634E-03  mag=    16.0000
       N       E                     dE             d eps       ncg     rms          ort
SDA:   1    -0.367430583511E+03    0.13932E-01    0.00000E+00  6888   0.410E-01 0.000E+00
CGA:   2    -0.367439443189E+03   -0.88597E-02   -0.88519E-02  6888   0.194E-01 0.519E-03
CGA:   3    -0.367443234231E+03   -0.37910E-02   -0.37928E-02  6888   0.533E-02 0.199E-03
CGA:   4    -0.367444225674E+03   -0.99144E-03   -0.98823E-03  6888   0.130E-02-0.175E-03
CGA:   5    -0.367444476303E+03   -0.25063E-03   -0.25040E-03  6888   0.413E-03-0.122E-03
CGA:   6    -0.367444565041E+03   -0.88738E-04   -0.92687E-04  6888   0.184E-03-0.844E-04
CGA:   7    -0.367444597932E+03   -0.32891E-04   -0.32968E-04  6888   0.603E-04-0.367E-05
CGA:   8    -0.367444605062E+03   -0.71297E-05   -0.86783E-05  6888   0.224E-04 0.269E-04
   8 F= -.36744461E+03 E0= -.36744461E+03  d E =-.298095E-03  mag=    16.0000
       N       E                     dE             d eps       ncg     rms          ort
SDA:   1    -0.367437766359E+03    0.68316E-02    0.00000E+00  6888   0.196E-01 0.000E+00
CGA:   2    -0.367442550475E+03   -0.47841E-02   -0.47681E-02  6888   0.940E-02 0.350E-03
CGA:   3    -0.367444271002E+03   -0.17205E-02   -0.17235E-02  6888   0.229E-02 0.146E-03
CGA:   4    -0.367444701162E+03   -0.43016E-03   -0.42867E-03  6888   0.571E-03-0.983E-04
CGA:   5    -0.367444815595E+03   -0.11443E-03   -0.11549E-03  6888   0.190E-03-0.819E-04
CGA:   6    -0.367444852476E+03   -0.36880E-04   -0.37938E-04  6888   0.728E-04-0.314E-04
CGA:   7    -0.367444862890E+03   -0.10415E-04   -0.10747E-04  6888   0.205E-04 0.137E-04
CGA:   8    -0.367444864512E+03   -0.16218E-05   -0.27927E-05  6888   0.102E-04 0.137E-04
   9 F= -.36744486E+03 E0= -.36744486E+03  d E =-.259451E-03  mag=    16.0000
       N       E                     dE             d eps       ncg     rms          ort
SDA:   1    -0.367384023783E+03    0.60839E-01    0.00000E+00  6888   0.168E+00 0.000E+00
CGA:   2    -0.367425321688E+03   -0.41298E-01   -0.41237E-01  6888   0.823E-01 0.111E-02
CGA:   3    -0.367440221874E+03   -0.14900E-01   -0.14906E-01  6888   0.200E-01 0.365E-03
CGA:   4    -0.367443813559E+03   -0.35917E-02   -0.35860E-02  6888   0.465E-02-0.332E-03
CGA:   5    -0.367444695316E+03   -0.88176E-03   -0.88125E-03  6888   0.129E-02-0.251E-03
CGA:   6    -0.367444964408E+03   -0.26909E-03   -0.27222E-03  6888   0.443E-03-0.113E-03
CGA:   7    -0.367445056689E+03   -0.92281E-04   -0.91957E-04  6888   0.143E-03 0.977E-05
CGA:   8    -0.367445089627E+03   -0.32938E-04   -0.32157E-04  6888   0.495E-04 0.349E-04
CGA:   9    -0.367445096441E+03   -0.68137E-05   -0.44453E-04  6888   0.195E-03-0.724E-04
CGA:  10    -0.367445137257E+03   -0.40816E-04   -0.40497E-04  6888   0.290E-04-0.185E-04
CGA:  11    -0.367445144391E+03   -0.71343E-05   -0.74108E-05  6888   0.754E-05-0.477E-05
  10 F= -.36744514E+03 E0= -.36744514E+03  d E =-.539329E-03  mag=    16.0000
       N       E                     dE             d eps       ncg     rms          ort
SDA:   1    -0.367435012395E+03    0.10125E-01    0.00000E+00  6888   0.275E-01 0.000E+00
CGA:   2    -0.367441906549E+03   -0.68942E-02   -0.69016E-02  6888   0.140E-01-0.336E-03
CGA:   3    -0.367444399166E+03   -0.24926E-02   -0.24854E-02  6888   0.342E-02-0.148E-03
CGA:   4    -0.367444955116E+03   -0.55595E-03   -0.56249E-03  6888   0.710E-03 0.109E-03
CGA:   5    -0.367445071825E+03   -0.11671E-03   -0.12157E-03  6888   0.160E-03 0.847E-04
CGA:   6    -0.367445101041E+03   -0.29216E-04   -0.31155E-04  6888   0.448E-04 0.417E-04
CGA:   7    -0.367445111741E+03   -0.10700E-04   -0.11031E-04  6888   0.172E-04 0.146E-04
CGA:   8    -0.367445118104E+03   -0.63629E-05   -0.62811E-05  6888   0.975E-05 0.152E-05
  11 F= -.36744512E+03 E0= -.36744512E+03  d E =-.513042E-03  mag=    16.0000
       N       E                     dE             d eps       ncg     rms          ort
SDA:   1    -0.367438655211E+03    0.64565E-02    0.00000E+00  6888   0.168E-01 0.000E+00
CGA:   2    -0.367443865938E+03   -0.52107E-02   -0.51870E-02  6888   0.659E-02 0.250E-03
CGA:   3    -0.367445075912E+03   -0.12100E-02   -0.12048E-02  6888   0.170E-02-0.133E-03
CGA:   4    -0.367445390184E+03   -0.31427E-03   -0.31054E-03  6888   0.404E-03-0.123E-03
CGA:   5    -0.367445458514E+03   -0.68330E-04   -0.67990E-04  6888   0.975E-04-0.101E-04
CGA:   6    -0.367445471894E+03   -0.13380E-04   -0.14719E-04  6888   0.236E-04 0.228E-04
CGA:   7    -0.367445474855E+03   -0.29612E-05   -0.39487E-05  6888   0.990E-05 0.132E-04
  12 F= -.36744547E+03 E0= -.36744547E+03  d E =-.356751E-03  mag=    16.0000
       N       E                     dE             d eps       ncg     rms          ort
SDA:   1    -0.367419776922E+03    0.25695E-01    0.00000E+00  6888   0.641E-01 0.000E+00
CGA:   2    -0.367439719512E+03   -0.19943E-01   -0.19892E-01  6888   0.255E-01 0.499E-03
CGA:   3    -0.367444254751E+03   -0.45352E-02   -0.45244E-02  6888   0.650E-02-0.272E-03
CGA:   4    -0.367445405955E+03   -0.11512E-02   -0.11428E-02  6888   0.155E-02-0.236E-03
CGA:   5    -0.367445680611E+03   -0.27466E-03   -0.27369E-03  6888   0.398E-03-0.346E-04
CGA:   6    -0.367445749171E+03   -0.68560E-04   -0.70049E-04  6888   0.101E-03 0.495E-04
CGA:   7    -0.367445771067E+03   -0.21896E-04   -0.22305E-04  6888   0.364E-04 0.309E-04
CGA:   8    -0.367445785109E+03   -0.14042E-04   -0.13785E-04  6888   0.248E-04 0.318E-05
CGA:   9    -0.367445793117E+03   -0.80082E-05   -0.80918E-05  6888   0.131E-04-0.876E-06
  13 F= -.36744579E+03 E0= -.36744579E+03  d E =-.675013E-03  mag=    16.0000
       N       E                     dE             d eps       ncg     rms          ort
SDA:   1    -0.367443991330E+03    0.17938E-02    0.00000E+00  6888   0.438E-02 0.000E+00
CGA:   2    -0.367445375417E+03   -0.13841E-02   -0.13972E-02  6888   0.191E-02-0.136E-03
CGA:   3    -0.367445670327E+03   -0.29491E-03   -0.29895E-03  6888   0.432E-03 0.621E-04
CGA:   4    -0.367445734062E+03   -0.63734E-04   -0.67749E-04  6888   0.891E-04 0.557E-04
CGA:   5    -0.367445750646E+03   -0.16584E-04   -0.17412E-04  6888   0.207E-04 0.175E-04
CGA:   6    -0.367445757704E+03   -0.70584E-05   -0.86257E-05  6888   0.211E-04-0.121E-04
  14 F= -.36744576E+03 E0= -.36744576E+03  d E =-.639601E-03  mag=    16.0000
       N       E                     dE             d eps       ncg     rms          ort
SDA:   1    -0.367435916483E+03    0.98342E-02    0.00000E+00  6888   0.266E-01 0.000E+00
CGA:   2    -0.367443088750E+03   -0.71723E-02   -0.71716E-02  6888   0.136E-01 0.982E-05
CGA:   3    -0.367445488996E+03   -0.24002E-02   -0.23945E-02  6888   0.301E-02-0.120E-03
CGA:   4    -0.367446009005E+03   -0.52001E-03   -0.51875E-03  6888   0.659E-03-0.268E-04
CGA:   5    -0.367446132657E+03   -0.12365E-03   -0.12338E-03  6888   0.175E-03-0.926E-05
CGA:   6    -0.367446162869E+03   -0.30211E-04   -0.31008E-04  6888   0.436E-04 0.217E-04
CGA:   7    -0.367446169623E+03   -0.67544E-05   -0.78100E-05  6888   0.153E-04 0.190E-04
  15 F= -.36744617E+03 E0= -.36744617E+03  d E =-.411919E-03  mag=    16.0000
       N       E                     dE             d eps       ncg     rms          ort
SDA:   1    -0.367445616402E+03    0.54647E-03    0.00000E+00  6888   0.159E-02 0.000E+00
CGA:   2    -0.367446039171E+03   -0.42277E-03   -0.42162E-03  6888   0.800E-03 0.205E-04
CGA:   3    -0.367446188093E+03   -0.14892E-03   -0.14812E-03  6888   0.197E-03-0.271E-04
CGA:   4    -0.367446220725E+03   -0.32632E-04   -0.32372E-04  6888   0.551E-04-0.630E-05
CGA:   5    -0.367446230063E+03   -0.93381E-05   -0.93638E-05  6888   0.146E-04 0.827E-06
CGA:   6    -0.367446231483E+03   -0.14195E-05   -0.19151E-05  6888   0.490E-05 0.641E-05
  16 F= -.36744623E+03 E0= -.36744623E+03  d E =-.473778E-03  mag=    16.0000
       N       E                     dE             d eps       ncg     rms          ort
SDA:   1    -0.367443904016E+03    0.23260E-02    0.00000E+00  6888   0.623E-02 0.000E+00
CGA:   2    -0.367445569964E+03   -0.16659E-02   -0.16639E-02  6888   0.314E-02 0.275E-04
CGA:   3    -0.367446133035E+03   -0.56307E-03   -0.56187E-03  6888   0.735E-03-0.534E-04
CGA:   4    -0.367446260852E+03   -0.12782E-03   -0.12756E-03  6888   0.163E-03-0.111E-04
CGA:   5    -0.367446291316E+03   -0.30464E-04   -0.30448E-04  6888   0.444E-04-0.165E-05
CGA:   6    -0.367446297151E+03   -0.58345E-05   -0.65046E-05  6888   0.121E-04 0.135E-04
  17 F= -.36744630E+03 E0= -.36744630E+03  d E =-.539446E-03  mag=    16.0000
       N       E                     dE             d eps       ncg     rms          ort
SDA:   1    -0.367439586883E+03    0.67044E-02    0.00000E+00  6888   0.182E-01 0.000E+00
CGA:   2    -0.367444401120E+03   -0.48142E-02   -0.48052E-02  6888   0.925E-02 0.119E-03
CGA:   3    -0.367446053127E+03   -0.16520E-02   -0.16500E-02  6888   0.206E-02-0.117E-03
CGA:   4    -0.367446414401E+03   -0.36127E-03   -0.36075E-03  6888   0.462E-03-0.329E-04
CGA:   5    -0.367446500791E+03   -0.86390E-04   -0.86358E-04  6888   0.122E-03-0.115E-04
CGA:   6    -0.367446520457E+03   -0.19666E-04   -0.20173E-04  6888   0.307E-04 0.218E-04
CGA:   7    -0.367446523656E+03   -0.31986E-05   -0.44861E-05  6888   0.136E-04 0.192E-04
  18 F= -.36744652E+03 E0= -.36744652E+03  d E =-.226505E-03  mag=    16.0000
       N       E                     dE             d eps       ncg     rms          ort
SDA:   1    -0.367407265695E+03    0.39255E-01    0.00000E+00  6888   0.104E+00 0.000E+00
CGA:   2    -0.367434731260E+03   -0.27466E-01   -0.27442E-01  6888   0.533E-01 0.282E-03
CGA:   3    -0.367444091137E+03   -0.93599E-02   -0.93559E-02  6888   0.116E-01-0.282E-03
CGA:   4    -0.367446103729E+03   -0.20126E-02   -0.20114E-02  6888   0.265E-02-0.787E-04
CGA:   5    -0.367446590818E+03   -0.48709E-03   -0.48702E-03  6888   0.687E-03-0.265E-04
CGA:   6    -0.367446718968E+03   -0.12815E-03   -0.12811E-03  6888   0.181E-03 0.583E-04
CGA:   7    -0.367446751715E+03   -0.32747E-04   -0.33807E-04  6888   0.609E-04 0.672E-04
CGA:   8    -0.367446763751E+03   -0.12037E-04   -0.13168E-04  6888   0.314E-04 0.391E-04
CGA:   9    -0.367446772005E+03   -0.82535E-05   -0.75163E-05  6888   0.178E-04 0.139E-04
  19 F= -.36744677E+03 E0= -.36744677E+03  d E =-.474854E-03  mag=    16.0000
       N       E                     dE             d eps       ncg     rms          ort
SDA:   1    -0.367438161171E+03    0.86026E-02    0.00000E+00  6888   0.226E-01 0.000E+00
CGA:   2    -0.367444510030E+03   -0.63489E-02   -0.63288E-02  6888   0.110E-01 0.206E-03
CGA:   3    -0.367446430917E+03   -0.19209E-02   -0.19170E-02  6888   0.252E-02-0.217E-03
CGA:   4    -0.367446873785E+03   -0.44287E-03   -0.44207E-03  6888   0.584E-03-0.776E-04
CGA:   5    -0.367446986954E+03   -0.11317E-03   -0.11364E-03  6888   0.171E-03-0.384E-04
CGA:   6    -0.367447020733E+03   -0.33780E-04   -0.33954E-04  6888   0.555E-04-0.721E-05
CGA:   7    -0.367447028145E+03   -0.74116E-05   -0.81685E-05  6888   0.183E-04 0.207E-04
  20 F= -.36744703E+03 E0= -.36744703E+03  d E =-.256140E-03  mag=    16.0000
       N       E                     dE             d eps       ncg     rms          ort
SDA:   1    -0.367422169124E+03    0.24852E-01    0.00000E+00  6888   0.638E-01 0.000E+00
CGA:   2    -0.367440092381E+03   -0.17923E-01   -0.17889E-01  6888   0.314E-01 0.346E-03
CGA:   3    -0.367445457622E+03   -0.53652E-02   -0.53580E-02  6888   0.697E-02-0.371E-03
CGA:   4    -0.367446670500E+03   -0.12129E-02   -0.12111E-02  6888   0.169E-02-0.143E-03
CGA:   5    -0.367446984978E+03   -0.31448E-03   -0.31461E-03  6888   0.467E-03-0.689E-04
CGA:   6    -0.367447079062E+03   -0.94084E-04   -0.94578E-04  6888   0.148E-03-0.211E-04
CGA:   7    -0.367447105131E+03   -0.26069E-04   -0.26218E-04  6888   0.443E-04 0.353E-04
CGA:   8    -0.367447113591E+03   -0.84598E-05   -0.90424E-05  6888   0.206E-04 0.242E-04
CGA:   9    -0.367447119292E+03   -0.57015E-05   -0.14521E-04  6888   0.740E-04-0.168E-04
  21 F= -.36744712E+03 E0= -.36744712E+03  d E =-.347287E-03  mag=    16.0000
       N       E                     dE             d eps       ncg     rms          ort
SDA:   1    -0.367442521803E+03    0.45918E-02    0.00000E+00  6888   0.119E-01 0.000E+00
CGA:   2    -0.367445899807E+03   -0.33780E-02   -0.33875E-02  6888   0.604E-02-0.128E-03
CGA:   3    -0.367446857764E+03   -0.95796E-03   -0.96506E-03  6888   0.120E-02 0.138E-03
CGA:   4    -0.367447059452E+03   -0.20169E-03   -0.20407E-03  6888   0.281E-03 0.548E-04
CGA:   5    -0.367447110110E+03   -0.50659E-04   -0.51438E-04  6888   0.657E-04 0.236E-04
CGA:   6    -0.367447123364E+03   -0.13254E-04   -0.13423E-04  6888   0.175E-04 0.932E-05
CGA:   7    -0.367447127158E+03   -0.37940E-05   -0.10830E-04  6888   0.445E-04-0.210E-04
  22 F= -.36744713E+03 E0= -.36744713E+03  d E =-.355154E-03  mag=    16.0000
       N       E                     dE             d eps       ncg     rms          ort
SDA:   1    -0.367436857500E+03    0.10266E-01    0.00000E+00  6888   0.266E-01 0.000E+00
CGA:   2    -0.367444518938E+03   -0.76614E-02   -0.76512E-02  6888   0.134E-01 0.146E-03
CGA:   3    -0.367446802246E+03   -0.22833E-02   -0.22752E-02  6888   0.289E-02-0.152E-03
CGA:   4    -0.367447295961E+03   -0.49372E-03   -0.49241E-03  6888   0.635E-03-0.279E-04
CGA:   5    -0.367447414656E+03   -0.11869E-03   -0.11805E-03  6888   0.181E-03-0.219E-04
CGA:   6    -0.367447455772E+03   -0.41116E-04   -0.42147E-04  6888   0.773E-04-0.401E-04
CGA:   7    -0.367447466513E+03   -0.10741E-04   -0.10981E-04  6888   0.214E-04 0.703E-05
CGA:   8    -0.367447468593E+03   -0.20807E-05   -0.30337E-05  6888   0.912E-05 0.112E-04
  23 F= -.36744747E+03 E0= -.36744747E+03  d E =-.341435E-03  mag=    16.0000
       N       E                     dE             d eps       ncg     rms          ort
SDA:   1    -0.367352339537E+03    0.95127E-01    0.00000E+00  6888   0.240E+00 0.000E+00
CGA:   2    -0.367421504801E+03   -0.69165E-01   -0.69127E-01  6888   0.122E+00 0.481E-03
CGA:   3    -0.367441861184E+03   -0.20356E-01   -0.20330E-01  6888   0.255E-01-0.499E-03
CGA:   4    -0.367446297240E+03   -0.44361E-02   -0.44321E-02  6888   0.558E-02-0.987E-04
CGA:   5    -0.367447359249E+03   -0.10620E-02   -0.10606E-02  6888   0.152E-02-0.638E-04
CGA:   6    -0.367447687622E+03   -0.32837E-03   -0.32897E-03  6888   0.493E-03-0.992E-04
CGA:   7    -0.367447790814E+03   -0.10319E-03   -0.10292E-03  6888   0.163E-03 0.262E-04
CGA:   8    -0.367447827110E+03   -0.36296E-04   -0.36346E-04  6888   0.584E-04 0.480E-04
CGA:   9    -0.367447854828E+03   -0.27718E-04   -0.32895E-04  6888   0.677E-04-0.232E-04
CGA:  10    -0.367447864022E+03   -0.91941E-05   -0.92034E-05  6888   0.406E-04-0.121E-04
  24 F= -.36744786E+03 E0= -.36744786E+03  d E =-.736863E-03  mag=    16.0000
       N       E                     dE             d eps       ncg     rms          ort
SDA:   1    -0.367432115806E+03    0.15739E-01    0.00000E+00  6888   0.397E-01 0.000E+00
CGA:   2    -0.367443560611E+03   -0.11445E-01   -0.11457E-01  6888   0.203E-01-0.178E-03
CGA:   3    -0.367446845121E+03   -0.32845E-02   -0.32955E-02  6888   0.405E-02 0.178E-03
CGA:   4    -0.367447565303E+03   -0.72018E-03   -0.72161E-03  6888   0.897E-03 0.320E-04
CGA:   5    -0.367447738546E+03   -0.17324E-03   -0.17380E-03  6888   0.227E-03 0.210E-04
CGA:   6    -0.367447780459E+03   -0.41913E-04   -0.42930E-04  6888   0.581E-04 0.311E-04
CGA:   7    -0.367447799304E+03   -0.18846E-04   -0.19333E-04  6888   0.321E-04-0.645E-05
CGA:   8    -0.367447691339E+03    0.10797E-03   -0.58240E-04  6888   0.668E-03-0.126E-03
CGA:   9    -0.367447773004E+03   -0.81665E-04   -0.99477E-04  6888   0.768E-04 0.708E-04
CGA:  10    -0.367447793670E+03   -0.20666E-04   -0.22401E-04  6888   0.270E-04 0.140E-04
CGA:  11    -0.367447793988E+03   -0.31812E-06   -0.27978E-04  6888   0.142E-03-0.557E-04
CGA:  12    -0.367447802609E+03   -0.86206E-05   -0.20417E-04  6888   0.224E-04 0.449E-04
  25 F= -.36744780E+03 E0= -.36744780E+03  d E =-.675451E-03  mag=    16.0000
       N       E                     dE             d eps       ncg     rms          ort
SDA:   1    -0.367433165417E+03    0.14629E-01    0.00000E+00  6888   0.392E-01 0.000E+00
CGA:   2    -0.367443342056E+03   -0.10177E-01   -0.10188E-01  6888   0.213E-01 0.883E-04
CGA:   3    -0.367447074326E+03   -0.37323E-02   -0.36986E-02  6888   0.468E-02-0.162E-03
CGA:   4    -0.367447878785E+03   -0.80446E-03   -0.79280E-03  6888   0.102E-02-0.590E-04
CGA:   5    -0.367448070710E+03   -0.19192E-03   -0.18941E-03  6888   0.277E-03-0.149E-04
CGA:   6    -0.367448133763E+03   -0.63053E-04   -0.60284E-04  6888   0.933E-04-0.215E-04
CGA:   7    -0.367448154728E+03   -0.20965E-04   -0.20555E-04  6888   0.341E-04-0.393E-05
CGA:   8    -0.367448162150E+03   -0.74220E-05   -0.78037E-05  6888   0.115E-04 0.389E-05
CGA:   9    -0.367448055556E+03    0.10659E-03   -0.57428E-04  6888   0.542E-03-0.738E-04
CGA:  10    -0.367448154517E+03   -0.98961E-04   -0.10530E-03  6888   0.678E-04 0.152E-04
CGA:  11    -0.367448175061E+03   -0.20543E-04   -0.20302E-04  6888   0.179E-04-0.838E-06
CGA:  12    -0.367448177041E+03   -0.19797E-05   -0.41220E-05  6888   0.566E-05 0.632E-05
  26 F= -.36744818E+03 E0= -.36744818E+03  d E =-.374432E-03  mag=    16.0000
