       N       E                     dE             d eps       ncg     rms          ort
DAV:   1     0.312876938600E+04    0.31288E+04   -0.14127E+05 10962   0.176E+03
DAV:   2     0.189401996371E+02   -0.31098E+04   -0.28375E+04 10962   0.463E+02
DAV:   3    -0.433372340003E+03   -0.45231E+03   -0.44102E+03 10962   0.198E+02
DAV:   4    -0.456409568420E+03   -0.23037E+02   -0.22197E+02 10962   0.427E+01
DAV:   5    -0.457781664010E+03   -0.13721E+01   -0.13419E+01 10962   0.746E+00
SDA:   6    -0.185602918105E+03    0.27218E+03   -0.13419E+01 10962   0.268E+04 0.000E+00
CGA:   7    -0.277500122218E+03   -0.91897E+02   -0.23485E+03 10962   0.100E+04-0.332E+03
CGA:   8    -0.173290491083E+03    0.10421E+03   -0.52040E+02 10962   0.112E+04-0.450E+03
CGA:   9    -0.330993318453E+03   -0.15770E+03   -0.14276E+02 10962   0.186E+04-0.920E+03
CGA:  10    -0.310092676342E+03    0.20901E+02   -0.13151E+03 10962   0.123E+04-0.176E+03
CGA:  11    -0.294859632316E+03    0.15233E+02   -0.57559E+02 10962   0.314E+03-0.200E+03
CGA:  12    -0.332873879317E+03   -0.38014E+02   -0.63710E+01 10962   0.371E+04 0.616E+04
CGA:  13    -0.220561536980E+03    0.11231E+03   -0.26028E+03 10962   0.178E+04-0.567E+03
CGA:  14    -0.305532416002E+03   -0.84971E+02   -0.49519E+02 10962   0.249E+03-0.346E+03
CGA:  15    -0.325618116504E+03   -0.20086E+02   -0.34158E+01 10962   0.208E+04-0.908E+03
CGA:  16    -0.217171673307E+03    0.10845E+03   -0.11157E+03 10962   0.553E+04-0.224E+04
CGA:  17    -0.242496905677E+03   -0.25325E+02   -0.30063E+03 10962   0.238E+04-0.224E+04
CGA:  18    -0.309632287754E+03   -0.67135E+02   -0.54027E+02 10962   0.786E+03-0.178E+04
CGA:  19    -0.286364116326E+03    0.23268E+02   -0.25825E+02 10962   0.366E+04-0.285E+04
CGA:  20    -0.295693523202E+03   -0.93294E+01   -0.19344E+03 10962   0.334E+03-0.358E+03
CGA:  21    -0.315888706224E+03   -0.20195E+02   -0.55622E+01 10962   0.193E+03 0.170E+03
CGA:  22    -0.320662140922E+03   -0.47734E+01   -0.24549E+01 10962   0.199E+03 0.215E+03
CGA:  23    -0.340795573698E+03   -0.20133E+02   -0.23319E+01 10962   0.226E+03-0.955E+02
CGA:  24    -0.326615817292E+03    0.14180E+02   -0.10937E+01 10962   0.188E+04-0.255E+04
CGA:  25    -0.312909567440E+03    0.13706E+02   -0.67141E+02 10962   0.123E+04-0.226E+03
CGA:  26    -0.324457822902E+03   -0.11548E+02   -0.34028E+02 10962   0.813E+03 0.876E+02
CGA:  27    -0.337729462624E+03   -0.13272E+02   -0.24135E+02 10962   0.616E+03-0.567E+03
CGA:  28    -0.328340128480E+03    0.93893E+01   -0.16260E+02 10962   0.531E+03 0.115E+03
CGA:  29    -0.316815066216E+03    0.11525E+02   -0.18119E+02 10962   0.513E+03-0.151E+03
CGA:  30    -0.332962182469E+03   -0.16147E+02   -0.55627E+01 10962   0.728E+03 0.125E+03
CGA:  31    -0.326011335040E+03    0.69508E+01   -0.20679E+02 10962   0.690E+03-0.182E+03
CGA:  32    -0.345443259141E+03   -0.19432E+02   -0.11188E+02 10962   0.526E+03 0.665E+03
CGA:  33    -0.336900449540E+03    0.85428E+01   -0.14701E+02 10962   0.397E+03-0.294E+03
CGA:  34    -0.344537099349E+03   -0.76366E+01   -0.81792E+01 10962   0.559E+03-0.679E+03
CGA:  35    -0.339299557933E+03    0.52375E+01   -0.13485E+02 10962   0.354E+03-0.316E+03
CGA:  36    -0.345758503686E+03   -0.64589E+01   -0.66346E+01 10962   0.541E+03-0.706E+03
CGA:  37    -0.337515812967E+03    0.82427E+01   -0.13966E+02 10962   0.384E+03-0.266E+03
CGA:  38    -0.355198223939E+03   -0.17682E+02   -0.29358E+01 10962   0.283E+02-0.922E+02
CGA:  39    -0.355427228990E+03   -0.22901E+00   -0.14916E+00 10962   0.179E+02 0.111E+02
CGA:  40    -0.355587467308E+03   -0.16024E+00   -0.12484E+00 10962   0.286E+01 0.594E+01
CGA:  41    -0.355655453737E+03   -0.67986E-01   -0.60552E-01 10962   0.745E+01 0.145E+00
CGA:  42    -0.355749066017E+03   -0.93612E-01   -0.61376E-01 10962   0.981E+01 0.291E+01
CGA:  43    -0.355841972789E+03   -0.92907E-01   -0.52046E-01 10962   0.716E+01 0.932E+01
CGA:  44    -0.355957110637E+03   -0.11514E+00   -0.17938E+00 10962   0.827E+01-0.856E+00
CGA:  45    -0.356201574874E+03   -0.24446E+00   -0.27386E+00 10962   0.786E+01 0.347E+00
CGA:  46    -0.356518866955E+03   -0.31729E+00   -0.28933E+00 10962   0.514E+01 0.781E+00
CGA:  47    -0.356793493865E+03   -0.27463E+00   -0.27489E+00 10962   0.254E+01-0.948E-01
CGA:  48    -0.357032635240E+03   -0.23914E+00   -0.20800E+00 10962   0.167E+01 0.756E+00
CGA:  49    -0.357181739316E+03   -0.14910E+00   -0.13712E+00 10962   0.403E+00 0.539E+00
CGA:  50    -0.357299035352E+03   -0.11730E+00   -0.94420E-01 10962   0.127E+00 0.196E+00
CGA:  51    -0.357391770132E+03   -0.92735E-01   -0.29436E-01 10962   0.479E-01 0.631E-01
CGA:  52    -0.357433563775E+03   -0.41794E-01   -0.51902E-03 10962   0.959E-01-0.136E-01
CGA:  53    -0.357448794885E+03   -0.15231E-01   -0.16080E-01 10962   0.319E-01-0.171E-01
CGA:  54    -0.357455763159E+03   -0.69683E-02   -0.12185E-01 10962   0.926E-01-0.187E-01
CGA:  55    -0.357472003120E+03   -0.16240E-01   -0.16231E-01 10962   0.230E-01-0.528E-03
CGA:  56    -0.357497198098E+03   -0.25195E-01   -0.23126E-03 10962   0.434E-01-0.450E-02
CGA:  57    -0.357507062097E+03   -0.98640E-02   -0.96243E-02 10962   0.239E-01-0.205E-02
CGA:  58    -0.357518105969E+03   -0.11044E-01   -0.11548E-01 10962   0.357E-01-0.349E-02
CGA:  59    -0.357536451925E+03   -0.18346E-01   -0.25471E-01 10962   0.602E-01-0.127E-01
CGA:  60    -0.357544033533E+03   -0.75816E-02   -0.72786E-02 10962   0.300E-01 0.729E-03
CGA:  61    -0.357549964007E+03   -0.59305E-02   -0.61230E-02 10962   0.192E-01 0.501E-03
CGA:  62    -0.357554839617E+03   -0.48756E-02   -0.50152E-02 10962   0.166E-01 0.114E-02
CGA:  63    -0.357559200095E+03   -0.43605E-02   -0.44590E-02 10962   0.162E-01 0.638E-03
CGA:  64    -0.357562410267E+03   -0.32102E-02   -0.36598E-02 10962   0.167E-01 0.217E-02
CGA:  65    -0.357563666477E+03   -0.12562E-02   -0.28646E-02 10962   0.195E-01 0.315E-02
CGA:  66    -0.357558713998E+03    0.49525E-02   -0.20993E-02 10962   0.490E-01 0.117E-01
CGA:  67    -0.357565864384E+03   -0.71504E-02   -0.10717E-01 10962   0.194E-01 0.893E-02
CGA:  68    -0.357568930452E+03   -0.30661E-02   -0.47864E-02 10962   0.612E-02 0.626E-02
CGA:  69    -0.357570309816E+03   -0.13794E-02   -0.17381E-02 10962   0.399E-02 0.407E-02
CGA:  70    -0.357571062467E+03   -0.75265E-03   -0.91598E-03 10962   0.292E-02 0.181E-02
CGA:  71    -0.357571444590E+03   -0.38212E-03   -0.78199E-03 10962   0.258E-02 0.172E-02
CGA:  72    -0.357571994044E+03   -0.54945E-03   -0.63628E-03 10962   0.768E-03 0.804E-03
CGA:  73    -0.357572576769E+03   -0.58272E-03   -0.48179E-03 10962   0.352E-03 0.563E-03
CGA:  74    -0.357572790098E+03   -0.21333E-03   -0.17008E-03 10962   0.264E-03 0.250E-03
CGA:  75    -0.357572916819E+03   -0.12672E-03   -0.11321E-03 10962   0.319E-03 0.122E-03
CGA:  76    -0.357573123045E+03   -0.20623E-03   -0.18689E-03 10962   0.124E-03 0.255E-03
CGA:  77    -0.357573160028E+03   -0.36983E-04   -0.38409E-04 10962   0.108E-03 0.735E-04
CGA:  78    -0.357573219409E+03   -0.59381E-04   -0.53611E-04 10962   0.197E-03 0.332E-04
CGA:  79    -0.357573361181E+03   -0.14177E-03   -0.11850E-03 10962   0.685E-04 0.186E-03
CGA:  80    -0.357573466429E+03   -0.10525E-03   -0.91214E-04 10962   0.298E-03 0.166E-04
CGA:  81    -0.357573791320E+03   -0.32489E-03   -0.30835E-03 10962   0.102E-02 0.345E-04
CGA:  82    -0.357574156761E+03   -0.36544E-03   -0.39163E-03 10962   0.140E-02 0.181E-03
CGA:  83    -0.357574640006E+03   -0.48324E-03   -0.49757E-03 10962   0.998E-03 0.125E-03
CGA:  84    -0.357575089993E+03   -0.44999E-03   -0.44976E-03 10962   0.850E-03 0.325E-04
CGA:  85    -0.357575449926E+03   -0.35993E-03   -0.36055E-03 10962   0.137E-02-0.184E-04
CGA:  86    -0.357575940993E+03   -0.49107E-03   -0.47432E-03 10962   0.133E-02-0.870E-04
CGA:  87    -0.357576300701E+03   -0.35971E-03   -0.37914E-03 10962   0.169E-02 0.798E-04
CGA:  88    -0.357576779799E+03   -0.47910E-03   -0.47717E-03 10962   0.120E-02-0.781E-05
CGA:  89    -0.357577153635E+03   -0.37384E-03   -0.35735E-03 10962   0.136E-02-0.206E-03
CGA:  90    -0.357577411012E+03   -0.25738E-03   -0.24298E-03 10962   0.145E-02 0.158E-04
CGA:  91    -0.357577599151E+03   -0.18814E-03   -0.23463E-03 10962   0.110E-02 0.220E-03
CGA:  92    -0.357577763110E+03   -0.16396E-03   -0.22654E-03 10962   0.117E-02 0.281E-03
CGA:  93    -0.357578084382E+03   -0.32127E-03   -0.36347E-03 10962   0.161E-02 0.285E-03
CGA:  94    -0.357578557536E+03   -0.47315E-03   -0.46781E-03 10962   0.168E-02-0.465E-05
CGA:  95    -0.357578866735E+03   -0.30920E-03   -0.28589E-03 10962   0.169E-02-0.104E-03
CGA:  96    -0.357579140045E+03   -0.27331E-03   -0.26166E-03 10962   0.181E-02-0.111E-03
CGA:  97    -0.357579430101E+03   -0.29006E-03   -0.26881E-03 10962   0.206E-02-0.249E-03
CGA:  98    -0.357579759916E+03   -0.32982E-03   -0.25334E-03 10962   0.257E-02-0.270E-03
CGA:  99    -0.357580146310E+03   -0.38639E-03   -0.30299E-03 10962   0.347E-02-0.773E-03
CGA: 100    -0.357580638905E+03   -0.49259E-03   -0.33665E-03 10962   0.487E-02-0.967E-03
CGA: 101    -0.357581271177E+03   -0.63227E-03   -0.35726E-03 10962   0.589E-02-0.819E-03
CGA: 102    -0.357581989052E+03   -0.71787E-03   -0.32058E-03 10962   0.580E-02-0.502E-03
CGA: 103    -0.357582578701E+03   -0.58965E-03   -0.30025E-03 10962   0.512E-02-0.382E-03
CGA: 104    -0.357582984745E+03   -0.40604E-03   -0.24783E-03 10962   0.449E-02-0.950E-03
CGA: 105    -0.357583242089E+03   -0.25734E-03   -0.16725E-03 10962   0.413E-02-0.551E-03
CGA: 106    -0.357583485091E+03   -0.24300E-03   -0.17582E-03 10962   0.399E-02-0.480E-03
CGA: 107    -0.357583703243E+03   -0.21815E-03   -0.16861E-03 10962   0.395E-02-0.254E-03
CGA: 108    -0.357583920323E+03   -0.21708E-03   -0.17297E-03 10962   0.376E-02 0.148E-03
CGA: 109    -0.357584123659E+03   -0.20334E-03   -0.17828E-03 10962   0.334E-02 0.217E-03
SDA: 110    -0.357584282331E+03   -0.15867E-03   -0.15354E-03 10962   0.292E-02 0.491E-04
CGA: 111    -0.357586168355E+03   -0.18860E-02   -0.16939E-02 10962   0.300E-02 0.516E-03
CGA: 112    -0.357588126414E+03   -0.19581E-02   -0.16418E-02 10962   0.193E-02 0.129E-02
CGA: 113    -0.357589681470E+03   -0.15551E-02   -0.13047E-02 10962   0.119E-02 0.104E-02
CGA: 114    -0.357590327739E+03   -0.64627E-03   -0.62619E-03 10962   0.128E-02 0.700E-04
CGA: 115    -0.357591371772E+03   -0.10440E-02   -0.63324E-04 10962   0.955E-02-0.103E-02
CGA: 116    -0.357593222431E+03   -0.18507E-02   -0.22657E-02 10962   0.149E-02 0.767E-05
CGA: 117    -0.357593906844E+03   -0.68441E-03   -0.68470E-03 10962   0.894E-03-0.871E-04
CGA: 118    -0.357594245839E+03   -0.33899E-03   -0.34964E-03 10962   0.488E-03 0.268E-03
CGA: 119    -0.357594660965E+03   -0.41513E-03   -0.38737E-03 10962   0.632E-03 0.205E-03
CGA: 120    -0.357595657935E+03   -0.99697E-03   -0.88797E-03 10962   0.151E-02 0.247E-03
CGA: 121    -0.357596698228E+03   -0.10403E-02   -0.10376E-02 10962   0.292E-02 0.411E-03
CGA: 122    -0.357598072760E+03   -0.13745E-02   -0.13830E-02 10962   0.269E-02 0.139E-03
CGA: 123    -0.357598856242E+03   -0.78348E-03   -0.81555E-03 10962   0.118E-02-0.441E-03
CGA: 124    -0.357599272042E+03   -0.41580E-03   -0.40645E-03 10962   0.621E-03-0.154E-03
CGA: 125    -0.357599383522E+03   -0.11148E-03   -0.13349E-03 10962   0.313E-03 0.106E-03
CGA: 126    -0.357599484238E+03   -0.10072E-03   -0.10931E-03 10962   0.152E-03 0.570E-04
CGA: 127    -0.357599556765E+03   -0.72527E-04   -0.71377E-04 10962   0.137E-03-0.188E-04
CGA: 128    -0.357599573544E+03   -0.16779E-04   -0.23767E-04 10962   0.788E-04 0.320E-04
CGA: 129    -0.357599583715E+03   -0.10171E-04   -0.16896E-04 10962   0.470E-04 0.267E-04
CGA: 130    -0.357599610991E+03   -0.27277E-04   -0.27557E-04 10962   0.765E-04-0.170E-04
CGA: 131    -0.357599631391E+03   -0.20400E-04   -0.20864E-04 10962   0.170E-03-0.915E-04
CGA: 132    -0.357599659016E+03   -0.27625E-04   -0.40216E-04 10962   0.420E-04 0.677E-04
CGA: 133    -0.357599673326E+03   -0.14310E-04   -0.16453E-04 10962   0.152E-04 0.163E-04
CGA: 134    -0.357599690481E+03   -0.17156E-04    0.49629E-02 10962   0.139E-04 0.812E-05
CGA: 135    -0.357599705080E+03   -0.14599E-04    0.96943E-05 10962   0.860E-05 0.426E-05
CGA: 136    -0.357599733175E+03   -0.28095E-04    0.11057E-05 10962   0.721E-05 0.550E-05
CGA: 137    -0.357599732688E+03    0.48768E-06   -0.10332E-05 10962   0.514E-05 0.576E-05
   1 F= -.35759973E+03 E0= -.35759973E+03  d E =-.357600E+03  mag=    12.0000
       N       E                     dE             d eps       ncg     rms          ort
SDA:   1    -0.357599711031E+03    0.22144E-04    0.00000E+00 10962   0.261E-02 0.000E+00
CGA:   2    -0.357600464169E+03   -0.75314E-03   -0.75632E-03 10962   0.125E-02 0.220E-04
CGA:   3    -0.357600657707E+03   -0.19354E-03   -0.19607E-03 10962   0.444E-03 0.907E-05
CGA:   4    -0.357600730514E+03   -0.72807E-04   -0.72344E-04 10962   0.115E-03-0.191E-05
CGA:   5    -0.357600752190E+03   -0.21676E-04   -0.20456E-04 10962   0.430E-04-0.555E-05
CGA:   6    -0.357600759654E+03   -0.74637E-05   -0.75834E-05 10962   0.166E-04 0.596E-06
   2 F= -.35760076E+03 E0= -.35760076E+03  d E =-.102697E-02  mag=    12.0000
       N       E                     dE             d eps       ncg     rms          ort
SDA:   1    -0.357583634610E+03    0.17118E-01    0.00000E+00 10962   0.487E-01 0.000E+00
CGA:   2    -0.357597320183E+03   -0.13686E-01   -0.13702E-01 10962   0.253E-01 0.177E-03
CGA:   3    -0.357601153107E+03   -0.38329E-02   -0.38486E-02 10962   0.822E-02 0.670E-04
CGA:   4    -0.357602499831E+03   -0.13467E-02   -0.13459E-02 10962   0.214E-02-0.530E-05
CGA:   5    -0.357602856031E+03   -0.35620E-03   -0.35195E-03 10962   0.661E-03-0.240E-04
CGA:   6    -0.357602973233E+03   -0.11720E-03   -0.11827E-03 10962   0.228E-03 0.700E-05
CGA:   7    -0.357603011609E+03   -0.38376E-04   -0.43252E-04 10962   0.807E-04 0.352E-04
CGA:   8    -0.357603023766E+03   -0.12156E-04   -0.16572E-04 10962   0.314E-04 0.311E-04
CGA:   9    -0.357603029102E+03   -0.53367E-05   -0.76294E-05 10962   0.151E-04 0.167E-04
   3 F= -.35760303E+03 E0= -.35760303E+03  d E =-.226945E-02  mag=    12.0000
       N       E                     dE             d eps       ncg     rms          ort
SDA:   1    -0.357537040173E+03    0.65984E-01    0.00000E+00 10962   0.178E+00 0.000E+00
CGA:   2    -0.357581411665E+03   -0.44371E-01   -0.44403E-01 10962   0.110E+00 0.468E-03
CGA:   3    -0.357597806752E+03   -0.16395E-01   -0.16430E-01 10962   0.307E-01 0.196E-03
CGA:   4    -0.357602539809E+03   -0.47331E-02   -0.47294E-02 10962   0.789E-02-0.299E-04
CGA:   5    -0.357603747601E+03   -0.12078E-02   -0.11999E-02 10962   0.209E-02-0.575E-04
CGA:   6    -0.357604105240E+03   -0.35764E-03   -0.35892E-03 10962   0.641E-03 0.110E-04
CGA:   7    -0.357604217641E+03   -0.11240E-03   -0.11951E-03 10962   0.195E-03 0.751E-04
CGA:   8    -0.357604249701E+03   -0.32060E-04   -0.38562E-04 10962   0.740E-04 0.663E-04
CGA:   9    -0.357604262997E+03   -0.13296E-04   -0.17223E-04 10962   0.355E-04 0.405E-04
CGA:  10    -0.357604274531E+03   -0.11534E-04   -0.11346E-04 10962   0.266E-04 0.350E-05
CGA:  11    -0.357604280476E+03   -0.59445E-05   -0.65346E-05 10962   0.108E-04 0.131E-04
   4 F= -.35760428E+03 E0= -.35760428E+03  d E =-.125137E-02  mag=    12.0000
       N       E                     dE             d eps       ncg     rms          ort
SDA:   1    -0.357485428859E+03    0.11885E+00    0.00000E+00 10962   0.309E+00 0.000E+00
CGA:   2    -0.357565516236E+03   -0.80087E-01   -0.80088E-01 10962   0.183E+00 0.558E-03
CGA:   3    -0.357592354638E+03   -0.26838E-01   -0.26858E-01 10962   0.509E-01 0.137E-03
CGA:   4    -0.357600292576E+03   -0.79379E-02   -0.79277E-02 10962   0.122E-01-0.113E-03
CGA:   5    -0.357602236614E+03   -0.19440E-02   -0.19357E-02 10962   0.320E-02-0.935E-04
CGA:   6    -0.357602795381E+03   -0.55877E-03   -0.55939E-03 10962   0.979E-03 0.855E-05
CGA:   7    -0.357602983013E+03   -0.18763E-03   -0.19033E-03 10962   0.314E-03 0.564E-04
CGA:   8    -0.357603054727E+03   -0.71713E-04   -0.72611E-04 10962   0.128E-03 0.437E-04
CGA:   9    -0.357603091866E+03   -0.37139E-04   -0.36820E-04 10962   0.600E-04 0.225E-04
CGA:  10    -0.357603112094E+03   -0.20228E-04   -0.19885E-04 10962   0.295E-04 0.797E-05
CGA:  11    -0.357603121447E+03   -0.93535E-05   -0.92179E-05 10962   0.129E-04 0.389E-05
   5 F= -.35760312E+03 E0= -.35760312E+03  d E =0.115903E-02  mag=    12.0000
       N       E                     dE             d eps       ncg     rms          ort
SDA:   1    -0.354881055683E+03    0.27221E+01    0.00000E+00 10962   0.638E+01 0.000E+00
CGA:   2    -0.356823158400E+03   -0.19421E+01   -0.19422E+01 10962   0.302E+01-0.176E-02
CGA:   3    -0.357283125541E+03   -0.45997E+00   -0.46010E+00 10962   0.980E+00-0.359E-03
CGA:   4    -0.357432831005E+03   -0.14971E+00   -0.14966E+00 10962   0.223E+00-0.891E-03
CGA:   5    -0.357470502618E+03   -0.37672E-01   -0.37643E-01 10962   0.706E-01-0.402E-03
CGA:   6    -0.357483207853E+03   -0.12705E-01   -0.12703E-01 10962   0.229E-01-0.311E-04
CGA:   7    -0.357488176474E+03   -0.49686E-02   -0.49679E-02 10962   0.950E-02-0.575E-04
CGA:   8    -0.357490501428E+03   -0.23250E-02   -0.23272E-02 10962   0.415E-02-0.140E-03
CGA:   9    -0.357491598381E+03   -0.10970E-02   -0.10992E-02 10962   0.179E-02-0.573E-04
CGA:  10    -0.357492074872E+03   -0.47649E-03   -0.47732E-03 10962   0.663E-03-0.218E-04
CGA:  11    -0.357492268140E+03   -0.19327E-03   -0.19589E-03 10962   0.267E-03-0.404E-04
CGA:  12    -0.357492344915E+03   -0.76775E-04   -0.76639E-04 10962   0.124E-03 0.197E-05
CGA:  13    -0.357492386338E+03   -0.41422E-04   -0.39811E-04 10962   0.658E-04 0.208E-04
CGA:  14    -0.357492411544E+03   -0.25207E-04   -0.23535E-04 10962   0.397E-04 0.273E-04
CGA:  15    -0.357492425493E+03   -0.13949E-04   -0.13938E-04 10962   0.234E-04 0.288E-04
CGA:  16    -0.357492432440E+03   -0.69465E-05   -0.65537E-05 10962   0.127E-04 0.121E-04
   6 F= -.35749243E+03 E0= -.35749243E+03  d E =0.110689E+00  mag=    12.0000
       N       E                     dE             d eps       ncg     rms          ort
SDA:   1    -0.355521983264E+03    0.19704E+01    0.00000E+00 10962   0.487E+01 0.000E+00
CGA:   2    -0.357062929523E+03   -0.15409E+01   -0.15404E+01 10962   0.169E+01 0.640E-02
CGA:   3    -0.357417137234E+03   -0.35421E+00   -0.35425E+00 10962   0.658E+00 0.133E-03
CGA:   4    -0.357508004725E+03   -0.90867E-01   -0.90830E-01 10962   0.169E+00-0.755E-03
CGA:   5    -0.357540926771E+03   -0.32922E-01   -0.32900E-01 10962   0.590E-01-0.443E-03
CGA:   6    -0.357551367542E+03   -0.10441E-01   -0.10439E-01 10962   0.224E-01-0.286E-04
CGA:   7    -0.357556780554E+03   -0.54130E-02   -0.54130E-02 10962   0.102E-01-0.150E-04
CGA:   8    -0.357559109613E+03   -0.23291E-02   -0.23280E-02 10962   0.396E-02-0.772E-04
CGA:   9    -0.357560139066E+03   -0.10295E-02   -0.10295E-02 10962   0.153E-02-0.114E-05
CGA:  10    -0.357560516037E+03   -0.37697E-03   -0.37675E-03 10962   0.502E-03 0.383E-04
CGA:  11    -0.357560651051E+03   -0.13501E-03   -0.13436E-03 10962   0.169E-03 0.335E-04
CGA:  12    -0.357560691764E+03   -0.40714E-04   -0.41356E-04 10962   0.645E-04 0.492E-04
CGA:  13    -0.357560706035E+03   -0.14271E-04   -0.16205E-04 10962   0.353E-04 0.407E-04
CGA:  14    -0.357560713413E+03   -0.73781E-05   -0.77903E-05 10962   0.214E-04 0.220E-04
   7 F= -.35756071E+03 E0= -.35756071E+03  d E =-.682810E-01  mag=    12.0000
       N       E                     dE             d eps       ncg     rms          ort
SDA:   1    -0.357022759230E+03    0.53795E+00    0.00000E+00 10962   0.146E+01 0.000E+00
CGA:   2    -0.357446488886E+03   -0.42373E+00   -0.42369E+00 10962   0.675E+00 0.347E-03
CGA:   3    -0.357550838459E+03   -0.10435E+00   -0.10435E+00 10962   0.233E+00-0.196E-03
CGA:   4    -0.357587007322E+03   -0.36169E-01   -0.36182E-01 10962   0.544E-01 0.145E-03
CGA:   5    -0.357596018316E+03   -0.90110E-02   -0.90214E-02 10962   0.166E-01 0.159E-03
CGA:   6    -0.357599038594E+03   -0.30203E-02   -0.30217E-02 10962   0.548E-02 0.316E-04
CGA:   7    -0.357600233238E+03   -0.11946E-02   -0.11947E-02 10962   0.226E-02 0.104E-04
CGA:   8    -0.357600763585E+03   -0.53035E-03   -0.52974E-03 10962   0.896E-03 0.602E-04
CGA:   9    -0.357600998907E+03   -0.23532E-03   -0.23399E-03 10962   0.362E-03 0.452E-04
CGA:  10    -0.357601100927E+03   -0.10202E-03   -0.10158E-03 10962   0.130E-03 0.107E-04
CGA:  11    -0.357601138212E+03   -0.37286E-04   -0.37078E-04 10962   0.478E-04 0.421E-05
CGA:  12    -0.357601153821E+03   -0.15609E-04   -0.15910E-04 10962   0.235E-04-0.330E-05
CGA:  13    -0.357601160996E+03   -0.71751E-05   -0.69644E-05 10962   0.117E-04 0.254E-05
   8 F= -.35760116E+03 E0= -.35760116E+03  d E =-.404476E-01  mag=    12.0000
       N       E                     dE             d eps       ncg     rms          ort
SDA:   1    -0.357506741083E+03    0.94413E-01    0.00000E+00 10962   0.236E+00 0.000E+00
CGA:   2    -0.357576219781E+03   -0.69479E-01   -0.69470E-01 10962   0.106E+00 0.127E-03
CGA:   3    -0.357593407382E+03   -0.17188E-01   -0.17187E-01 10962   0.391E-01-0.226E-04
CGA:   4    -0.357599368393E+03   -0.59610E-02   -0.59636E-02 10962   0.909E-02 0.247E-04
CGA:   5    -0.357600954460E+03   -0.15861E-02   -0.15854E-02 10962   0.309E-02-0.123E-04
CGA:   6    -0.357601520538E+03   -0.56608E-03   -0.56547E-03 10962   0.101E-02-0.133E-04
CGA:   7    -0.357601740644E+03   -0.22011E-03   -0.22019E-03 10962   0.433E-03 0.115E-04
CGA:   8    -0.357601840088E+03   -0.99445E-04   -0.99443E-04 10962   0.161E-03 0.277E-04
CGA:   9    -0.357601882759E+03   -0.42671E-04   -0.42356E-04 10962   0.632E-04 0.149E-04
CGA:  10    -0.357601903173E+03   -0.20414E-04   -0.20972E-04 10962   0.299E-04-0.739E-05
CGA:  11    -0.357601909298E+03   -0.61249E-05   -0.13571E-04 10962   0.464E-04-0.264E-04
   9 F= -.35760191E+03 E0= -.35760191E+03  d E =-.748302E-03  mag=    12.0000
       N       E                     dE             d eps       ncg     rms          ort
SDA:   1    -0.357301902556E+03    0.30000E+00    0.00000E+00 10962   0.723E+00 0.000E+00
CGA:   2    -0.357536241113E+03   -0.23434E+00   -0.23427E+00 10962   0.299E+00 0.658E-03
CGA:   3    -0.357582731044E+03   -0.46490E-01   -0.46479E-01 10962   0.994E-01-0.169E-03
CGA:   4    -0.357597147192E+03   -0.14416E-01   -0.14396E-01 10962   0.211E-01-0.231E-03
CGA:   5    -0.357600593288E+03   -0.34461E-02   -0.34371E-02 10962   0.659E-02-0.122E-03
CGA:   6    -0.357601751716E+03   -0.11584E-02   -0.11577E-02 10962   0.199E-02-0.146E-04
CGA:   7    -0.357602169996E+03   -0.41828E-03   -0.41870E-03 10962   0.751E-03 0.194E-04
CGA:   8    -0.357602358402E+03   -0.18841E-03   -0.18817E-03 10962   0.358E-03 0.131E-04
CGA:   9    -0.357602457348E+03   -0.98947E-04   -0.98316E-04 10962   0.163E-03 0.164E-04
CGA:  10    -0.357602505128E+03   -0.47780E-04   -0.47483E-04 10962   0.667E-04 0.654E-05
CGA:  11    -0.357602525096E+03   -0.19968E-04   -0.19896E-04 10962   0.268E-04 0.138E-05
CGA:  12    -0.357602531619E+03   -0.65236E-05   -0.65217E-05 10962   0.113E-04 0.774E-05
  10 F= -.35760253E+03 E0= -.35760253E+03  d E =-.622321E-03  mag=    12.0000
       N       E                     dE             d eps       ncg     rms          ort
SDA:   1    -0.334824930554E+03    0.22778E+02    0.00000E+00 10962   0.481E+02 0.000E+00
CGA:   2    -0.348684121267E+03   -0.13859E+02   -0.13829E+02 10962   0.220E+02 0.401E+00
CGA:   3    -0.352490744125E+03   -0.38066E+01   -0.38103E+01 10962   0.899E+01 0.168E-01
CGA:   4    -0.353866863012E+03   -0.13761E+01   -0.13777E+01 10962   0.223E+01-0.253E-02
CGA:   5    -0.354272354911E+03   -0.40549E+00   -0.40553E+00 10962   0.817E+00-0.234E-02
CGA:   6    -0.354424021615E+03   -0.15167E+00   -0.15166E+00 10962   0.291E+00-0.247E-03
CGA:   7    -0.354490433917E+03   -0.66412E-01   -0.66413E-01 10962   0.132E+00-0.373E-03
CGA:   8    -0.354521788686E+03   -0.31355E-01   -0.31363E-01 10962   0.500E-01-0.673E-03
CGA:   9    -0.354534401969E+03   -0.12613E-01   -0.12620E-01 10962   0.194E-01-0.255E-03
CGA:  10    -0.354539431615E+03   -0.50296E-02   -0.50254E-02 10962   0.656E-02 0.137E-03
CGA:  11    -0.354541258546E+03   -0.18269E-02   -0.18173E-02 10962   0.241E-02 0.212E-03
CGA:  12    -0.354541969971E+03   -0.71142E-03   -0.69776E-03 10962   0.103E-02 0.282E-03
CGA:  13    -0.354542329806E+03   -0.35984E-03   -0.33935E-03 10962   0.596E-03 0.332E-03
CGA:  14    -0.354542596706E+03   -0.26690E-03   -0.24250E-03 10962   0.465E-03 0.348E-03
CGA:  15    -0.354542777170E+03   -0.18046E-03   -0.16467E-03 10962   0.299E-03 0.140E-03
CGA:  16    -0.354542966889E+03   -0.18972E-03   -0.15125E-03 10962   0.254E-03 0.269E-03
CGA:  17    -0.354543073813E+03   -0.10692E-03   -0.91289E-04 10962   0.186E-03 0.148E-03
CGA:  18    -0.354543171168E+03   -0.97354E-04   -0.77403E-04 10962   0.222E-03 0.126E-03
CGA:  19    -0.354543222216E+03   -0.51048E-04   -0.53593E-04 10962   0.195E-03 0.976E-04
CGA:  20    -0.354543403506E+03   -0.18129E-03   -0.13018E-03 10962   0.201E-03 0.256E-03
CGA:  21    -0.354543463603E+03   -0.60097E-04   -0.59060E-04 10962   0.209E-03 0.564E-04
CGA:  22    -0.354543611639E+03   -0.14804E-03   -0.11336E-03 10962   0.171E-03 0.232E-03
CGA:  23    -0.354543663040E+03   -0.51400E-04   -0.50568E-04 10962   0.144E-03 0.668E-04
CGA:  24    -0.354543793233E+03   -0.13019E-03   -0.98057E-04 10962   0.152E-03 0.154E-03
CGA:  25    -0.354543851124E+03   -0.57890E-04   -0.53956E-04 10962   0.988E-04 0.654E-04
CGA:  26    -0.354543933758E+03   -0.82634E-04   -0.63889E-04 10962   0.118E-03 0.120E-03
CGA:  27    -0.354543996345E+03   -0.62587E-04   -0.54248E-04 10962   0.897E-04 0.534E-04
CGA:  28    -0.354544101981E+03   -0.10564E-03   -0.75430E-04 10962   0.104E-03 0.113E-03
CGA:  29    -0.354544151896E+03   -0.49914E-04   -0.44909E-04 10962   0.805E-04 0.465E-04
CGA:  30    -0.354544220562E+03   -0.68667E-04   -0.55971E-04 10962   0.959E-04 0.857E-04
CGA:  31    -0.354544265227E+03   -0.44664E-04   -0.41525E-04 10962   0.850E-04 0.334E-04
CGA:  32    -0.354544330108E+03   -0.64882E-04   -0.55320E-04 10962   0.944E-04 0.695E-04
CGA:  33    -0.354544367534E+03   -0.37426E-04   -0.36318E-04 10962   0.688E-04 0.329E-04
CGA:  34    -0.354544413252E+03   -0.45718E-04   -0.40878E-04 10962   0.740E-04 0.554E-04
CGA:  35    -0.354544443863E+03   -0.30611E-04   -0.29283E-04 10962   0.530E-04 0.342E-04
CGA:  36    -0.354544487216E+03   -0.43352E-04   -0.37094E-04 10962   0.637E-04 0.531E-04
CGA:  37    -0.354544514353E+03   -0.27137E-04   -0.25923E-04 10962   0.494E-04 0.290E-04
CGA:  38    -0.354544556639E+03   -0.42286E-04   -0.35973E-04 10962   0.602E-04 0.479E-04
CGA:  39    -0.354544573173E+03   -0.16534E-04   -0.18603E-04 10962   0.396E-04 0.321E-04
CGA:  40    -0.354544598899E+03   -0.25726E-04   -0.22011E-04 10962   0.659E-04 0.201E-04
CGA:  41    -0.354544607126E+03   -0.82263E-05   -0.12723E-04 10962   0.342E-04 0.241E-04
CGA:  42    -0.354544624285E+03   -0.17159E-04   -0.17219E-04 10962   0.572E-04 0.399E-04
CGA:  43    -0.354544643140E+03   -0.18855E-04   -0.18864E-04 10962   0.651E-04 0.215E-06
CGA:  44    -0.354544679842E+03   -0.36702E-04   -0.30533E-04 10962   0.601E-04 0.630E-04
CGA:  45    -0.354544686807E+03   -0.69648E-05   -0.11095E-04 10962   0.293E-04 0.219E-04
CGA:  46    -0.354544699391E+03   -0.12584E-04   -0.13483E-04 10962   0.487E-04 0.337E-04
CGA:  47    -0.354544715465E+03   -0.16073E-04   -0.16065E-04 10962   0.602E-04-0.257E-06
CGA:  48    -0.354544744967E+03   -0.29502E-04   -0.25640E-04 10962   0.569E-04 0.577E-04
CGA:  49    -0.354544750858E+03   -0.58911E-05   -0.97920E-05 10962   0.257E-04 0.203E-04
CGA:  50    -0.354544759847E+03   -0.89894E-05   -0.10503E-04 10962   0.422E-04 0.286E-04
CGA:  51    -0.354544773695E+03   -0.13847E-04   -0.13845E-04 10962   0.554E-04-0.120E-06
CGA:  52    -0.354544797664E+03   -0.23969E-04   -0.21721E-04 10962   0.527E-04 0.532E-04
CGA:  53    -0.354544802608E+03   -0.49439E-05   -0.85591E-05 10962   0.227E-04 0.190E-04
  11 F= -.35454480E+03 E0= -.35454480E+03  d E =0.305773E+01  mag=    12.0000
       N       E                     dE             d eps       ncg     rms          ort
SDA:   1    -0.332529798596E+03    0.22015E+02    0.00000E+00 10962   0.589E+02 0.000E+00
CGA:   2    -0.351983961186E+03   -0.19454E+02   -0.19448E+02 10962   0.174E+02-0.911E+00
CGA:   3    -0.355547897945E+03   -0.35639E+01   -0.35881E+01 10962   0.608E+01-0.662E-01
CGA:   4    -0.356570361784E+03   -0.10225E+01   -0.10188E+01 10962   0.201E+01 0.697E-02
CGA:   5    -0.356958692299E+03   -0.38833E+00   -0.38685E+00 10962   0.889E+00-0.143E-02
CGA:   6    -0.357135533864E+03   -0.17684E+00   -0.17692E+00 10962   0.382E+00-0.192E-02
CGA:   7    -0.357229356072E+03   -0.93822E-01   -0.93807E-01 10962   0.163E+00-0.165E-02
CGA:   8    -0.357264697723E+03   -0.35342E-01   -0.35234E-01 10962   0.619E-01-0.126E-02
CGA:   9    -0.357280533644E+03   -0.15836E-01   -0.15842E-01 10962   0.198E-01 0.150E-03
CGA:  10    -0.357285390002E+03   -0.48564E-02   -0.48650E-02 10962   0.709E-02 0.152E-03
CGA:  11    -0.357287494075E+03   -0.21041E-02   -0.21024E-02 10962   0.265E-02-0.378E-03
CGA:  12    -0.357288340170E+03   -0.84609E-03   -0.85357E-03 10962   0.140E-02-0.177E-03
CGA:  13    -0.357288823691E+03   -0.48352E-03   -0.48357E-03 10962   0.912E-03 0.170E-05
CGA:  14    -0.357289303780E+03   -0.48009E-03   -0.53026E-03 10962   0.122E-02-0.175E-03
CGA:  15    -0.357289843394E+03   -0.53961E-03   -0.60727E-03 10962   0.158E-02-0.210E-03
CGA:  16    -0.357290492225E+03   -0.64883E-03   -0.72939E-03 10962   0.162E-02-0.338E-03
CGA:  17    -0.357291041735E+03   -0.54951E-03   -0.56264E-03 10962   0.116E-02-0.185E-03
CGA:  18    -0.357291431227E+03   -0.38949E-03   -0.38761E-03 10962   0.783E-03 0.493E-04
CGA:  19    -0.357291780421E+03   -0.34919E-03   -0.34392E-03 10962   0.597E-03 0.614E-04
CGA:  20    -0.357292065370E+03   -0.28495E-03   -0.27732E-03 10962   0.409E-03 0.881E-04
CGA:  21    -0.357292242755E+03   -0.17739E-03   -0.17576E-03 10962   0.232E-03 0.941E-04
CGA:  22    -0.357292338637E+03   -0.95882E-04   -0.97111E-04 10962   0.118E-03 0.661E-04
CGA:  23    -0.357292370946E+03   -0.32309E-04   -0.39246E-04 10962   0.632E-04 0.706E-04
CGA:  24    -0.357292386453E+03   -0.15507E-04   -0.17911E-04 10962   0.292E-04 0.348E-04
CGA:  25    -0.357292392356E+03   -0.59031E-05   -0.78314E-05 10962   0.219E-04 0.238E-04
  12 F= -.35729239E+03 E0= -.35729239E+03  d E =-.274759E+01  mag=    12.0000
       N       E                     dE             d eps       ncg     rms          ort
SDA:   1    -0.357190640403E+03    0.10175E+00    0.00000E+00 10962   0.417E+00 0.000E+00
CGA:   2    -0.357322836965E+03   -0.13220E+00   -0.13221E+00 10962   0.144E+00 0.536E-03
CGA:   3    -0.357350789458E+03   -0.27952E-01   -0.28007E-01 10962   0.648E-01 0.353E-03
CGA:   4    -0.357360023689E+03   -0.92342E-02   -0.92743E-02 10962   0.145E-01 0.199E-03
CGA:   5    -0.357362649375E+03   -0.26257E-02   -0.26305E-02 10962   0.522E-02 0.316E-04
CGA:   6    -0.357363602733E+03   -0.95336E-03   -0.96158E-03 10962   0.196E-02 0.629E-04
CGA:   7    -0.357364018769E+03   -0.41604E-03   -0.43021E-03 10962   0.797E-03 0.158E-03
CGA:   8    -0.357364185852E+03   -0.16708E-03   -0.17940E-03 10962   0.289E-03 0.130E-03
CGA:   9    -0.357364263097E+03   -0.77245E-04   -0.80391E-04 10962   0.115E-03 0.534E-04
CGA:  10    -0.357364299305E+03   -0.36208E-04   -0.36306E-04 10962   0.498E-04 0.343E-05
CGA:  11    -0.357364316640E+03   -0.17335E-04   -0.18255E-04 10962   0.302E-04-0.148E-04
CGA:  12    -0.357364113798E+03    0.20284E-03   -0.10967E-03 10962   0.109E-02-0.151E-03
CGA:  13    -0.357364306583E+03   -0.19278E-03   -0.19550E-03 10962   0.131E-03 0.734E-05
CGA:  14    -0.357364346980E+03   -0.40397E-04   -0.42262E-04 10962   0.450E-04 0.919E-05
CGA:  15    -0.357364360105E+03   -0.13126E-04   -0.15723E-04 10962   0.160E-04 0.139E-04
CGA:  16    -0.357364366027E+03   -0.59217E-05   -0.68619E-05 10962   0.626E-05 0.536E-05
  13 F= -.35736437E+03 E0= -.35736437E+03  d E =-.719737E-01  mag=    12.0000
       N       E                     dE             d eps       ncg     rms          ort
SDA:   1    -0.356570928926E+03    0.79343E+00    0.00000E+00 10962   0.231E+01 0.000E+00
CGA:   2    -0.357302930745E+03   -0.73200E+00   -0.73446E+00 10962   0.797E+00 0.286E-03
CGA:   3    -0.357456322867E+03   -0.15339E+00   -0.15371E+00 10962   0.375E+00 0.102E-02
CGA:   4    -0.357509894336E+03   -0.53571E-01   -0.53707E-01 10962   0.827E-01 0.454E-03
CGA:   5    -0.357524459149E+03   -0.14565E-01   -0.14572E-01 10962   0.298E-01-0.747E-04
CGA:   6    -0.357530003973E+03   -0.55448E-02   -0.55671E-02 10962   0.119E-01 0.592E-04
CGA:   7    -0.357532675977E+03   -0.26720E-02   -0.27323E-02 10962   0.520E-02 0.290E-03
CGA:   8    -0.357533832676E+03   -0.11567E-02   -0.12048E-02 10962   0.201E-02 0.242E-03
CGA:   9    -0.357534374375E+03   -0.54170E-03   -0.54984E-03 10962   0.772E-03 0.522E-04
CGA:  10    -0.357534590197E+03   -0.21582E-03   -0.20874E-03 10962   0.287E-03-0.491E-04
CGA:  11    -0.357534683529E+03   -0.93333E-04   -0.88355E-04 10962   0.140E-03-0.686E-04
CGA:  12    -0.357534713204E+03   -0.29674E-04   -0.69320E-04 10962   0.389E-03-0.156E-03
CGA:  13    -0.357534790111E+03   -0.76908E-04   -0.75283E-04 10962   0.614E-04-0.758E-05
CGA:  14    -0.357534818463E+03   -0.28351E-04   -0.31337E-04 10962   0.644E-04-0.247E-04
CGA:  15    -0.357534826049E+03   -0.75862E-05   -0.35215E-04 10962   0.156E-03-0.545E-04
CGA:  16    -0.357534883973E+03   -0.57925E-04   -0.54891E-04 10962   0.741E-04-0.384E-04
CGA:  17    -0.357534910789E+03   -0.26816E-04   -0.30596E-04 10962   0.441E-04-0.313E-04
CGA:  18    -0.357534937394E+03   -0.26604E-04    0.26939E-04 10962   0.202E-04 0.339E-05
CGA:  19    -0.357534949969E+03   -0.12576E-04   -0.13290E-04 10962   0.220E-04-0.414E-05
CGA:  20    -0.357534975520E+03   -0.25551E-04    0.59446E-05 10962   0.175E-04 0.118E-06
CGA:  21    -0.357535000060E+03   -0.24540E-04    0.66866E-05 10962   0.135E-04 0.577E-05
CGA:  22    -0.357535023955E+03   -0.23895E-04    0.77533E-05 10962   0.929E-05 0.366E-05
CGA:  23    -0.357535051858E+03   -0.27904E-04    0.15628E-05 10962   0.710E-05 0.378E-05
CGA:  24    -0.357535065630E+03   -0.13772E-04    0.39382E-05 10962   0.484E-05 0.315E-05
CGA:  25    -0.357535075973E+03   -0.10343E-04    0.22964E-05 10962   0.386E-05 0.357E-05
CGA:  26    -0.357535084361E+03   -0.83877E-05    0.58290E-06 10962   0.232E-05 0.644E-07
  14 F= -.35753508E+03 E0= -.35753508E+03  d E =-.170718E+00  mag=    12.0000
       N       E                     dE             d eps       ncg     rms          ort
SDA:   1    -0.357281980379E+03    0.25310E+00    0.00000E+00 10962   0.739E+00 0.000E+00
CGA:   2    -0.357514077779E+03   -0.23210E+00   -0.23247E+00 10962   0.257E+00 0.101E-02
CGA:   3    -0.357563529028E+03   -0.49451E-01   -0.49533E-01 10962   0.118E+00 0.334E-03
CGA:   4    -0.357580406413E+03   -0.16877E-01   -0.16905E-01 10962   0.260E-01 0.112E-03
CGA:   5    -0.357585111350E+03   -0.47049E-02   -0.47000E-02 10962   0.931E-02-0.432E-04
CGA:   6    -0.357586814360E+03   -0.17030E-02   -0.17110E-02 10962   0.364E-02 0.348E-04
CGA:   7    -0.357587616654E+03   -0.80229E-03   -0.82552E-03 10962   0.154E-02 0.158E-03
CGA:   8    -0.357587951983E+03   -0.33533E-03   -0.35529E-03 10962   0.586E-03 0.138E-03
CGA:   9    -0.357588112369E+03   -0.16039E-03   -0.16475E-03 10962   0.234E-03 0.434E-04
CGA:  10    -0.357588182153E+03   -0.69785E-04   -0.68739E-04 10962   0.962E-04-0.130E-04
CGA:  11    -0.357588211290E+03   -0.29137E-04   -0.28646E-04 10962   0.460E-04-0.143E-04
CGA:  12    -0.357588225856E+03   -0.14565E-04   -0.22178E-04 10962   0.878E-04-0.348E-04
CGA:  13    -0.357588246578E+03   -0.20723E-04   -0.19822E-04 10962   0.226E-04-0.679E-05
CGA:  14    -0.357588256793E+03   -0.10215E-04   -0.14304E-04 10962   0.475E-04-0.122E-04
CGA:  15    -0.357588266446E+03   -0.96531E-05   -0.10015E-04 10962   0.915E-05 0.228E-05
CGA:  16    -0.357588234700E+03    0.31746E-04   -0.17697E-04 10962   0.224E-03-0.270E-04
CGA:  17    -0.357588300387E+03   -0.65687E-04   -0.64474E-04 10962   0.248E-04-0.331E-05
CGA:  18    -0.357588310139E+03   -0.97516E-05   -0.84663E-05 10962   0.983E-05-0.439E-05
  15 F= -.35758831E+03 E0= -.35758831E+03  d E =-.532258E-01  mag=    12.0000
       N       E                     dE             d eps       ncg     rms          ort
SDA:   1    -0.357254987364E+03    0.33331E+00    0.00000E+00 10962   0.852E+00 0.000E+00
CGA:   2    -0.357511863471E+03   -0.25688E+00   -0.25793E+00 10962   0.341E+00-0.771E-03
CGA:   3    -0.357568936463E+03   -0.57073E-01   -0.57194E-01 10962   0.146E+00 0.324E-03
CGA:   4    -0.357591545741E+03   -0.22609E-01   -0.22633E-01 10962   0.340E-01 0.154E-03
CGA:   5    -0.357597208247E+03   -0.56625E-02   -0.56572E-02 10962   0.112E-01-0.434E-04
CGA:   6    -0.357599300192E+03   -0.20919E-02   -0.21008E-02 10962   0.435E-02 0.164E-04
CGA:   7    -0.357600232632E+03   -0.93244E-03   -0.96743E-03 10962   0.184E-02 0.119E-03
CGA:   8    -0.357600631925E+03   -0.39929E-03   -0.43394E-03 10962   0.719E-03 0.129E-03
CGA:   9    -0.357600814317E+03   -0.18239E-03   -0.19466E-03 10962   0.286E-03 0.527E-04
CGA:  10    -0.357600897287E+03   -0.82970E-04   -0.82342E-04 10962   0.109E-03-0.304E-05
CGA:  11    -0.357600930302E+03   -0.33016E-04   -0.31978E-04 10962   0.483E-04-0.615E-05
CGA:  12    -0.357600948650E+03   -0.18348E-04   -0.17664E-04 10962   0.381E-04-0.100E-04
CGA:  13    -0.357600963381E+03   -0.14731E-04   -0.23701E-04 10962   0.989E-04-0.268E-04
CGA:  14    -0.357600983953E+03   -0.20572E-04   -0.22559E-04 10962   0.211E-04 0.823E-05
CGA:  15    -0.357600988910E+03   -0.49570E-05   -0.64098E-05 10962   0.925E-05 0.823E-05
  16 F= -.35760099E+03 E0= -.35760099E+03  d E =-.126788E-01  mag=    12.0000
       N       E                     dE             d eps       ncg     rms          ort
SDA:   1    -0.357520008241E+03    0.80976E-01    0.00000E+00 10962   0.224E+00 0.000E+00
CGA:   2    -0.357578768008E+03   -0.58760E-01   -0.58836E-01 10962   0.122E+00 0.288E-03
CGA:   3    -0.357597033012E+03   -0.18265E-01   -0.18301E-01 10962   0.388E-01 0.111E-03
CGA:   4    -0.357603139958E+03   -0.61069E-02   -0.61091E-02 10962   0.947E-02-0.552E-06
CGA:   5    -0.357604645079E+03   -0.15051E-02   -0.15000E-02 10962   0.260E-02-0.235E-04
CGA:   6    -0.357605120006E+03   -0.47493E-03   -0.47542E-03 10962   0.898E-03 0.183E-05
CGA:   7    -0.357605296906E+03   -0.17690E-03   -0.18494E-03 10962   0.330E-03 0.460E-04
CGA:   8    -0.357605361179E+03   -0.64273E-04   -0.73767E-04 10962   0.131E-03 0.598E-04
CGA:   9    -0.357605390614E+03   -0.29435E-04   -0.34674E-04 10962   0.564E-04 0.378E-04
CGA:  10    -0.357605407968E+03   -0.17354E-04   -0.18753E-04 10962   0.275E-04 0.142E-04
CGA:  11    -0.357605417433E+03   -0.94648E-05   -0.97890E-05 10962   0.144E-04 0.481E-05
  17 F= -.35760542E+03 E0= -.35760542E+03  d E =-.442852E-02  mag=    12.0000
       N       E                     dE             d eps       ncg     rms          ort
SDA:   1    -0.356709226115E+03    0.89618E+00    0.00000E+00 10962   0.241E+01 0.000E+00
CGA:   2    -0.357323077040E+03   -0.61385E+00   -0.61416E+00 10962   0.140E+01 0.144E-02
CGA:   3    -0.357533192516E+03   -0.21012E+00   -0.21015E+00 10962   0.411E+00 0.361E-03
CGA:   4    -0.357595251938E+03   -0.62059E-01   -0.61997E-01 10962   0.922E-01-0.341E-03
CGA:   5    -0.357609592070E+03   -0.14340E-01   -0.14318E-01 10962   0.246E-01-0.152E-03
CGA:   6    -0.357613938392E+03   -0.43463E-02   -0.43420E-02 10962   0.771E-02-0.360E-04
CGA:   7    -0.357615514294E+03   -0.15759E-02   -0.15729E-02 10962   0.273E-02-0.316E-04
CGA:   8    -0.357616186936E+03   -0.67264E-03   -0.67192E-03 10962   0.134E-02-0.145E-04
CGA:   9    -0.357616574271E+03   -0.38734E-03   -0.38711E-03 10962   0.722E-03-0.261E-04
CGA:  10    -0.357616795199E+03   -0.22093E-03   -0.22164E-03 10962   0.359E-03-0.500E-04
CGA:  11    -0.357616894043E+03   -0.98844E-04   -0.98777E-04 10962   0.147E-03-0.190E-04
CGA:  12    -0.357616937054E+03   -0.43012E-04   -0.43022E-04 10962   0.680E-04-0.128E-05
CGA:  13    -0.357616963385E+03   -0.26330E-04   -0.26774E-04 10962   0.460E-04-0.470E-05
CGA:  14    -0.357616980687E+03   -0.17302E-04   -0.17439E-04 10962   0.279E-04-0.150E-05
CGA:  15    -0.357616992776E+03   -0.12089E-04   -0.15050E-04 10962   0.283E-04-0.121E-04
CGA:  16    -0.357616999027E+03   -0.62508E-05   -0.86122E-05 10962   0.293E-04-0.112E-04
CGA:  17    -0.357617012277E+03   -0.13250E-04    0.23769E-04 10962   0.218E-04 0.195E-05
CGA:  18    -0.357617029135E+03   -0.16858E-04    0.43518E-04 10962   0.153E-04 0.573E-05
CGA:  19    -0.357617043215E+03   -0.14080E-04    0.34916E-04 10962   0.108E-04 0.779E-05
CGA:  20    -0.357617048230E+03   -0.50145E-05   -0.93191E-05 10962   0.246E-04-0.812E-05
  18 F= -.35761705E+03 E0= -.35761705E+03  d E =-.116308E-01  mag=    12.0000
       N       E                     dE             d eps       ncg     rms          ort
SDA:   1    -0.356725782876E+03    0.89126E+00    0.00000E+00 10962   0.227E+01 0.000E+00
CGA:   2    -0.357364319839E+03   -0.63854E+00   -0.63865E+00 10962   0.121E+01 0.702E-03
CGA:   3    -0.357546116718E+03   -0.18180E+00   -0.18183E+00 10962   0.372E+00 0.657E-04
CGA:   4    -0.357602398046E+03   -0.56281E-01   -0.56238E-01 10962   0.816E-01-0.227E-03
CGA:   5    -0.357615410725E+03   -0.13013E-01   -0.12997E-01 10962   0.238E-01-0.895E-04
CGA:   6    -0.357619702160E+03   -0.42914E-02   -0.42843E-02 10962   0.770E-02-0.524E-04
CGA:   7    -0.357621338826E+03   -0.16367E-02   -0.16253E-02 10962   0.294E-02-0.112E-03
CGA:   8    -0.357622074519E+03   -0.73569E-03   -0.72918E-03 10962   0.144E-02-0.114E-03
CGA:   9    -0.357622471714E+03   -0.39720E-03   -0.39554E-03 10962   0.717E-03-0.775E-04
CGA:  10    -0.357622670818E+03   -0.19910E-03   -0.19847E-03 10962   0.310E-03-0.495E-04
CGA:  11    -0.357622756174E+03   -0.85356E-04   -0.85205E-04 10962   0.125E-03-0.160E-04
CGA:  12    -0.357622792586E+03   -0.36412E-04   -0.36405E-04 10962   0.582E-04 0.254E-05
CGA:  13    -0.357622816656E+03   -0.24070E-04   -0.24728E-04 10962   0.423E-04-0.598E-05
CGA:  14    -0.357622833242E+03   -0.16586E-04   -0.18146E-04 10962   0.323E-04-0.939E-05
CGA:  15    -0.357622833114E+03    0.12784E-06   -0.21568E-04 10962   0.889E-04-0.403E-04
CGA:  16    -0.357622859065E+03   -0.25951E-04   -0.25379E-04 10962   0.196E-04-0.953E-05
CGA:  17    -0.357622871666E+03   -0.12601E-04    0.57736E-04 10962   0.705E-05 0.241E-05
CGA:  18    -0.357622878827E+03   -0.71607E-05    0.42461E-05 10962   0.385E-05 0.308E-05
  19 F= -.35762288E+03 E0= -.35762288E+03  d E =-.583060E-02  mag=    12.0000
       N       E                     dE             d eps       ncg     rms          ort
SDA:   1    -0.357190861223E+03    0.43201E+00    0.00000E+00 10962   0.112E+01 0.000E+00
CGA:   2    -0.357518963506E+03   -0.32810E+00   -0.32815E+00 10962   0.548E+00 0.489E-03
CGA:   3    -0.357602331373E+03   -0.83368E-01   -0.83363E-01 10962   0.176E+00-0.284E-04
CGA:   4    -0.357628466441E+03   -0.26135E-01   -0.26103E-01 10962   0.368E-01-0.202E-03
CGA:   5    -0.357634384688E+03   -0.59182E-02   -0.59036E-02 10962   0.111E-01-0.961E-04
CGA:   6    -0.357636382536E+03   -0.19978E-02   -0.19930E-02 10962   0.361E-02-0.381E-04
CGA:   7    -0.357637146250E+03   -0.76371E-03   -0.75834E-03 10962   0.138E-02-0.572E-04
CGA:   8    -0.357637501282E+03   -0.35503E-03   -0.35178E-03 10962   0.725E-03-0.752E-04
CGA:   9    -0.357637703303E+03   -0.20202E-03   -0.20169E-03 10962   0.386E-03-0.575E-04
CGA:  10    -0.357637806572E+03   -0.10327E-03   -0.10302E-03 10962   0.162E-03-0.245E-04
CGA:  11    -0.357637848577E+03   -0.42005E-04   -0.42074E-04 10962   0.608E-04 0.301E-05
CGA:  12    -0.357637863616E+03   -0.15039E-04   -0.15651E-04 10962   0.257E-04 0.136E-04
CGA:  13    -0.357637871690E+03   -0.80745E-05   -0.83698E-05 10962   0.142E-04 0.101E-04
  20 F= -.35763787E+03 E0= -.35763787E+03  d E =-.149929E-01  mag=    12.0000
       N       E                     dE             d eps       ncg     rms          ort
SDA:   1    -0.357243252369E+03    0.39461E+00    0.00000E+00 10962   0.954E+00 0.000E+00
CGA:   2    -0.357553678107E+03   -0.31043E+00   -0.31041E+00 10962   0.397E+00 0.344E-03
CGA:   3    -0.357617677190E+03   -0.63999E-01   -0.64002E-01 10962   0.130E+00-0.696E-04
CGA:   4    -0.357636218769E+03   -0.18542E-01   -0.18523E-01 10962   0.268E-01-0.162E-03
CGA:   5    -0.357640864857E+03   -0.46461E-02   -0.46357E-02 10962   0.908E-02-0.980E-04
CGA:   6    -0.357642495492E+03   -0.16306E-02   -0.16281E-02 10962   0.292E-02-0.268E-04
CGA:   7    -0.357643129017E+03   -0.63353E-03   -0.63227E-03 10962   0.121E-02-0.235E-04
CGA:   8    -0.357643437727E+03   -0.30871E-03   -0.30810E-03 10962   0.613E-03-0.464E-04
CGA:   9    -0.357643608886E+03   -0.17116E-03   -0.17221E-03 10962   0.314E-03-0.453E-04
CGA:  10    -0.357643690679E+03   -0.81793E-04   -0.82054E-04 10962   0.127E-03-0.223E-04
CGA:  11    -0.357643725642E+03   -0.34963E-04   -0.35127E-04 10962   0.531E-04-0.621E-05
CGA:  12    -0.357643741922E+03   -0.16280E-04   -0.16181E-04 10962   0.282E-04 0.199E-05
CGA:  13    -0.357643754732E+03   -0.12810E-04   -0.13415E-04 10962   0.254E-04-0.336E-05
CGA:  14    -0.357643753020E+03    0.17122E-05   -0.22742E-04 10962   0.100E-03-0.336E-04
CGA:  15    -0.357643778643E+03   -0.25623E-04   -0.25378E-04 10962   0.189E-04-0.367E-05
CGA:  16    -0.357643685066E+03    0.93577E-04   -0.50552E-04 10962   0.513E-03-0.764E-04
CGA:  17    -0.357643792251E+03   -0.10719E-03   -0.11242E-03 10962   0.520E-04 0.145E-04
CGA:  18    -0.357643818080E+03   -0.25829E-04   -0.24254E-04 10962   0.224E-04-0.148E-04
CGA:  19    -0.357643816812E+03    0.12677E-05   -0.19773E-05 10962   0.965E-05 0.752E-05
  21 F= -.35764382E+03 E0= -.35764382E+03  d E =-.594512E-02  mag=    12.0000
       N       E                     dE             d eps       ncg     rms          ort
SDA:   1    -0.357095689750E+03    0.54813E+00    0.00000E+00 10962   0.134E+01 0.000E+00
CGA:   2    -0.357531603089E+03   -0.43591E+00   -0.43604E+00 10962   0.534E+00 0.268E-04
CGA:   3    -0.357617589876E+03   -0.85987E-01   -0.86000E-01 10962   0.171E+00 0.447E-04
CGA:   4    -0.357641898722E+03   -0.24309E-01   -0.24286E-01 10962   0.347E-01-0.613E-04
CGA:   5    -0.357647834355E+03   -0.59356E-02   -0.59205E-02 10962   0.113E-01-0.533E-04
CGA:   6    -0.357649825753E+03   -0.19914E-02   -0.19848E-02 10962   0.350E-02-0.264E-04
CGA:   7    -0.357650569703E+03   -0.74395E-03   -0.73580E-03 10962   0.136E-02-0.366E-04
CGA:   8    -0.357650928057E+03   -0.35835E-03   -0.34986E-03 10962   0.716E-03-0.506E-04
CGA:   9    -0.357651139507E+03   -0.21145E-03   -0.20612E-03 10962   0.389E-03-0.442E-04
CGA:  10    -0.357651246813E+03   -0.10731E-03   -0.10470E-03 10962   0.160E-03-0.207E-04
CGA:  11    -0.357651291348E+03   -0.44535E-04   -0.44022E-04 10962   0.633E-04-0.448E-05
CGA:  12    -0.357651310124E+03   -0.18776E-04   -0.19036E-04 10962   0.308E-04 0.275E-05
CGA:  13    -0.357651323366E+03   -0.13242E-04   -0.13258E-04 10962   0.229E-04-0.113E-05
CGA:  14    -0.357651334540E+03   -0.11173E-04   -0.14280E-04 10962   0.328E-04-0.125E-04
CGA:  15    -0.357651344302E+03   -0.97626E-05   -0.93568E-05 10962   0.824E-05-0.325E-05
  22 F= -.35765134E+03 E0= -.35765134E+03  d E =-.752749E-02  mag=    12.0000
       N       E                     dE             d eps       ncg     rms          ort
SDA:   1    -0.353612461460E+03    0.40389E+01    0.00000E+00 10962   0.970E+01 0.000E+00
CGA:   2    -0.356780553287E+03   -0.31681E+01   -0.31693E+01 10962   0.390E+01 0.427E-02
CGA:   3    -0.357397071904E+03   -0.61652E+00   -0.61687E+00 10962   0.125E+01 0.242E-02
CGA:   4    -0.357577581392E+03   -0.18051E+00   -0.18043E+00 10962   0.259E+00 0.104E-03
CGA:   5    -0.357622340634E+03   -0.44759E-01   -0.44716E-01 10962   0.850E-01-0.186E-03
CGA:   6    -0.357637313379E+03   -0.14973E-01   -0.14974E-01 10962   0.268E-01-0.186E-04
CGA:   7    -0.357642996676E+03   -0.56833E-02   -0.56798E-02 10962   0.106E-01-0.341E-04
CGA:   8    -0.357645659032E+03   -0.26624E-02   -0.26528E-02 10962   0.520E-02-0.995E-04
CGA:   9    -0.357647122267E+03   -0.14632E-02   -0.14588E-02 10962   0.254E-02-0.740E-04
CGA:  10    -0.357647809902E+03   -0.68764E-03   -0.68681E-03 10962   0.971E-03-0.130E-04
CGA:  11    -0.357648079038E+03   -0.26914E-03   -0.27033E-03 10962   0.369E-03 0.201E-04
CGA:  12    -0.357648184646E+03   -0.10561E-03   -0.10779E-03 10962   0.167E-03 0.447E-04
CGA:  13    -0.357648239394E+03   -0.54749E-04   -0.56239E-04 10962   0.900E-04 0.467E-04
CGA:  14    -0.357648269931E+03   -0.30537E-04   -0.32536E-04 10962   0.475E-04 0.414E-04
CGA:  15    -0.357648283008E+03   -0.13076E-04   -0.16216E-04 10962   0.233E-04 0.331E-04
CGA:  16    -0.357648287786E+03   -0.47780E-05   -0.57072E-05 10962   0.112E-04 0.118E-04
  23 F= -.35764829E+03 E0= -.35764829E+03  d E =0.305652E-02  mag=    12.0000
       N       E                     dE             d eps       ncg     rms          ort
SDA:   1    -0.357092236940E+03    0.55605E+00    0.00000E+00 10962   0.140E+01 0.000E+00
CGA:   2    -0.357515874529E+03   -0.42364E+00   -0.42366E+00 10962   0.732E+00 0.144E-02
CGA:   3    -0.357624234401E+03   -0.10836E+00   -0.10836E+00 10962   0.229E+00-0.138E-03
CGA:   4    -0.357659809994E+03   -0.35576E-01   -0.35536E-01 10962   0.566E-01-0.314E-03
CGA:   5    -0.357669177735E+03   -0.93677E-02   -0.93551E-02 10962   0.178E-01-0.102E-03
CGA:   6    -0.357672432260E+03   -0.32545E-02   -0.32602E-02 10962   0.610E-02 0.505E-04
CGA:   7    -0.357673727445E+03   -0.12952E-02   -0.13056E-02 10962   0.251E-02 0.139E-03
CGA:   8    -0.357674309621E+03   -0.58218E-03   -0.58942E-03 10962   0.976E-03 0.132E-03
CGA:   9    -0.357674574671E+03   -0.26505E-03   -0.26597E-03 10962   0.415E-03 0.400E-04
CGA:  10    -0.357674698719E+03   -0.12405E-03   -0.12426E-03 10962   0.177E-03-0.319E-04
CGA:  11    -0.357674753891E+03   -0.55172E-04   -0.59214E-04 10962   0.115E-03-0.501E-04
CGA:  12    -0.357674774021E+03   -0.20130E-04   -0.47266E-04 10962   0.219E-03-0.940E-04
CGA:  13    -0.357674823083E+03   -0.49062E-04   -0.48286E-04 10962   0.549E-04-0.988E-05
CGA:  14    -0.357674846257E+03   -0.23174E-04   -0.31636E-04 10962   0.791E-04-0.275E-04
CGA:  15    -0.357674867520E+03   -0.21263E-04   -0.20718E-04 10962   0.231E-04-0.111E-04
CGA:  16    -0.357674880923E+03   -0.13403E-04    0.33306E-04 10962   0.985E-05 0.667E-05
CGA:  17    -0.357674893600E+03   -0.12677E-04    0.31614E-05 10962   0.957E-05 0.865E-05
CGA:  18    -0.357674901111E+03   -0.75110E-05    0.54259E-05 10962   0.681E-05 0.484E-05
  24 F= -.35767490E+03 E0= -.35767490E+03  d E =-.266133E-01  mag=    12.0000
       N       E                     dE             d eps       ncg     rms          ort
SDA:   1    -0.357268895881E+03    0.40600E+00    0.00000E+00 10962   0.972E+00 0.000E+00
CGA:   2    -0.357583411555E+03   -0.31452E+00   -0.31453E+00 10962   0.425E+00-0.914E-03
CGA:   3    -0.357648087388E+03   -0.64676E-01   -0.64667E-01 10962   0.132E+00-0.112E-03
CGA:   4    -0.357667526223E+03   -0.19439E-01   -0.19446E-01 10962   0.279E-01 0.182E-04
CGA:   5    -0.357672219263E+03   -0.46930E-02   -0.46952E-02 10962   0.887E-02 0.105E-04
CGA:   6    -0.357673828241E+03   -0.16090E-02   -0.16010E-02 10962   0.289E-02-0.761E-04
CGA:   7    -0.357674465960E+03   -0.63772E-03   -0.62893E-03 10962   0.120E-02-0.141E-03
CGA:   8    -0.357674774492E+03   -0.30853E-03   -0.30709E-03 10962   0.661E-03-0.140E-03
CGA:   9    -0.357674946911E+03   -0.17242E-03   -0.17456E-03 10962   0.355E-03-0.104E-03
CGA:  10    -0.357675034297E+03   -0.87386E-04   -0.88400E-04 10962   0.155E-03-0.616E-04
CGA:  11    -0.357675075431E+03   -0.41135E-04   -0.43419E-04 10962   0.806E-04-0.388E-04
CGA:  12    -0.357675096357E+03   -0.20926E-04   -0.30532E-04 10962   0.948E-04-0.433E-04
CGA:  13    -0.357675118184E+03   -0.21827E-04   -0.21719E-04 10962   0.217E-04-0.168E-05
CGA:  14    -0.357675122684E+03   -0.44993E-05   -0.16844E-04 10962   0.695E-04-0.247E-04
CGA:  15    -0.357675139932E+03   -0.17248E-04   -0.16516E-04 10962   0.124E-04-0.933E-05
CGA:  16    -0.357675060858E+03    0.79074E-04   -0.42600E-04 10962   0.458E-03-0.584E-04
CGA:  17    -0.357675160370E+03   -0.99512E-04   -0.95953E-04 10962   0.433E-04-0.100E-04
CGA:  18    -0.357675170855E+03   -0.10485E-04   -0.11091E-04 10962   0.769E-05 0.208E-05
CGA:  19    -0.357674918896E+03    0.25196E-03   -0.13787E-03 10962   0.143E-02-0.960E-04
CGA:  20    -0.357675152103E+03   -0.23321E-03   -0.26027E-03 10962   0.144E-03 0.331E-04
CGA:  21    -0.357675204022E+03   -0.51920E-04   -0.45275E-04 10962   0.271E-04-0.105E-04
CGA:  22    -0.357675209361E+03   -0.53383E-05   -0.71715E-05 10962   0.222E-05 0.294E-05
  25 F= -.35767521E+03 E0= -.35767521E+03  d E =-.308250E-03  mag=    12.0000
       N       E                     dE             d eps       ncg     rms          ort
SDA:   1    -0.357611571704E+03    0.63632E-01    0.00000E+00 10962   0.167E+00 0.000E+00
CGA:   2    -0.357651758735E+03   -0.40187E-01   -0.40157E-01 10962   0.105E+00-0.700E-04
CGA:   3    -0.357667996750E+03   -0.16238E-01   -0.16207E-01 10962   0.326E-01 0.431E-04
CGA:   4    -0.357672823707E+03   -0.48270E-02   -0.48343E-02 10962   0.807E-02 0.193E-04
CGA:   5    -0.357674091847E+03   -0.12681E-02   -0.12801E-02 10962   0.232E-02 0.187E-04
CGA:   6    -0.357674512182E+03   -0.42034E-03   -0.42034E-03 10962   0.760E-03-0.118E-06
CGA:   7    -0.357674684696E+03   -0.17251E-03   -0.16323E-03 10962   0.309E-03-0.185E-04
CGA:   8    -0.357674767468E+03   -0.82772E-04   -0.75350E-04 10962   0.138E-03-0.168E-04
CGA:   9    -0.357674800673E+03   -0.33205E-04   -0.32767E-04 10962   0.567E-04-0.105E-05
CGA:  10    -0.357674811159E+03   -0.10486E-04   -0.13342E-04 10962   0.189E-04 0.691E-05
CGA:  11    -0.357674813122E+03   -0.19635E-05   -0.45714E-05 10962   0.759E-05 0.630E-05
  26 F= -.35767481E+03 E0= -.35767481E+03  d E =0.396238E-03  mag=    12.0000
       N       E                     dE             d eps       ncg     rms          ort
SDA:   1    -0.357558605220E+03    0.11621E+00    0.00000E+00 10962   0.297E+00 0.000E+00
CGA:   2    -0.357646080287E+03   -0.87475E-01   -0.87516E-01 10962   0.173E+00 0.669E-04
CGA:   3    -0.357670418223E+03   -0.24338E-01   -0.24307E-01 10962   0.457E-01 0.300E-04
CGA:   4    -0.357677177120E+03   -0.67589E-02   -0.67401E-02 10962   0.106E-01-0.468E-04
CGA:   5    -0.357678856317E+03   -0.16792E-02   -0.16747E-02 10962   0.295E-02-0.137E-04
CGA:   6    -0.357679383648E+03   -0.52733E-03   -0.52448E-03 10962   0.923E-03-0.887E-05
CGA:   7    -0.357679573309E+03   -0.18966E-03   -0.18470E-03 10962   0.315E-03-0.169E-04
CGA:   8    -0.357679652300E+03   -0.78991E-04   -0.75308E-04 10962   0.144E-03-0.155E-04
CGA:   9    -0.357679691534E+03   -0.39234E-04   -0.37934E-04 10962   0.692E-04-0.677E-05
CGA:  10    -0.357679709381E+03   -0.17848E-04   -0.17813E-04 10962   0.259E-04-0.177E-06
CGA:  11    -0.357679715992E+03   -0.66111E-05   -0.69209E-05 10962   0.913E-05 0.169E-05
  27 F= -.35767972E+03 E0= -.35767972E+03  d E =-.490287E-02  mag=    12.0000
       N       E                     dE             d eps       ncg     rms          ort
SDA:   1    -0.354252652027E+03    0.34271E+01    0.00000E+00 10962   0.818E+01 0.000E+00
CGA:   2    -0.356791188840E+03   -0.25385E+01   -0.25396E+01 10962   0.449E+01 0.655E-03
CGA:   3    -0.357418770411E+03   -0.62758E+00   -0.62650E+00 10962   0.116E+01 0.284E-01
CGA:   4    -0.357592876327E+03   -0.17411E+00   -0.17392E+00 10962   0.282E+00 0.157E-02
CGA:   5    -0.357637782576E+03   -0.44906E-01   -0.44917E-01 10962   0.802E-01-0.110E-04
CGA:   6    -0.357652102992E+03   -0.14320E-01   -0.14313E-01 10962   0.255E-01-0.576E-04
CGA:   7    -0.357657274992E+03   -0.51720E-02   -0.51445E-02 10962   0.892E-02-0.158E-03
CGA:   8    -0.357659422442E+03   -0.21474E-02   -0.21285E-02 10962   0.395E-02-0.148E-03
CGA:   9    -0.357660496677E+03   -0.10742E-02   -0.10663E-02 10962   0.184E-02-0.907E-04
CGA:  10    -0.357660997111E+03   -0.50043E-03   -0.49605E-03 10962   0.701E-03-0.528E-04
CGA:  11    -0.357661193975E+03   -0.19686E-03   -0.19526E-03 10962   0.263E-03-0.239E-04
CGA:  12    -0.357661276560E+03   -0.82585E-04   -0.82239E-04 10962   0.142E-03-0.130E-04
CGA:  13    -0.357661337089E+03   -0.60529E-04   -0.61363E-04 10962   0.136E-03-0.751E-05
CGA:  14    -0.357661402503E+03   -0.65414E-04   -0.63670E-04 10962   0.131E-03 0.135E-04
CGA:  15    -0.357661475099E+03   -0.72596E-04   -0.70388E-04 10962   0.104E-03 0.187E-04
CGA:  16    -0.357661534050E+03   -0.58951E-04   -0.57270E-04 10962   0.796E-04 0.152E-04
CGA:  17    -0.357661594085E+03   -0.60035E-04   -0.64329E-04 10962   0.118E-03-0.134E-04
CGA:  18    -0.357661654880E+03   -0.60795E-04   -0.62502E-04 10962   0.142E-03-0.958E-05
CGA:  19    -0.357661707020E+03   -0.52140E-04   -0.52158E-04 10962   0.927E-04 0.142E-04
CGA:  20    -0.357661742883E+03   -0.35863E-04   -0.36532E-04 10962   0.465E-04 0.142E-04
CGA:  21    -0.357661760980E+03   -0.18098E-04   -0.18722E-04 10962   0.247E-04 0.119E-04
CGA:  22    -0.357661768411E+03   -0.74301E-05   -0.88365E-05 10962   0.141E-04 0.125E-04
  28 F= -.35766177E+03 E0= -.35766177E+03  d E =0.179476E-01  mag=    12.0000
       N       E                     dE             d eps       ncg     rms          ort
SDA:   1    -0.357077147181E+03    0.58461E+00    0.00000E+00 10962   0.149E+01 0.000E+00
CGA:   2    -0.357531324742E+03   -0.45418E+00   -0.45408E+00 10962   0.596E+00-0.121E-02
CGA:   3    -0.357632867830E+03   -0.10154E+00   -0.10158E+00 10962   0.226E+00 0.143E-03
CGA:   4    -0.357665852796E+03   -0.32985E-01   -0.33031E-01 10962   0.522E-01 0.118E-03
CGA:   5    -0.357675080800E+03   -0.92280E-02   -0.92357E-02 10962   0.181E-01 0.323E-04
CGA:   6    -0.357678318253E+03   -0.32375E-02   -0.32300E-02 10962   0.616E-02-0.442E-04
CGA:   7    -0.357679744639E+03   -0.14264E-02   -0.14162E-02 10962   0.282E-02-0.919E-04
CGA:   8    -0.357680418630E+03   -0.67399E-03   -0.66763E-03 10962   0.120E-02-0.658E-04
CGA:   9    -0.357680735929E+03   -0.31730E-03   -0.31573E-03 10962   0.526E-03-0.252E-04
CGA:  10    -0.357680870769E+03   -0.13484E-03   -0.13454E-03 10962   0.192E-03-0.460E-05
CGA:  11    -0.357680923017E+03   -0.52247E-04   -0.52828E-04 10962   0.767E-04 0.118E-04
CGA:  12    -0.357680945672E+03   -0.22655E-04   -0.23240E-04 10962   0.414E-04 0.152E-04
CGA:  13    -0.357680961378E+03   -0.15707E-04   -0.15766E-04 10962   0.288E-04 0.158E-04
CGA:  14    -0.357680973784E+03   -0.12406E-04   -0.12521E-04 10962   0.219E-04 0.180E-04
CGA:  15    -0.357680980138E+03   -0.63543E-05   -0.65267E-05 10962   0.112E-04 0.733E-05
  29 F= -.35768098E+03 E0= -.35768098E+03  d E =-.192117E-01  mag=    12.0000
       N       E                     dE             d eps       ncg     rms          ort
SDA:   1    -0.357312678151E+03    0.36830E+00    0.00000E+00 10962   0.923E+00 0.000E+00
CGA:   2    -0.357578060716E+03   -0.26538E+00   -0.26540E+00 10962   0.539E+00 0.226E-03
CGA:   3    -0.357655019203E+03   -0.76958E-01   -0.76981E-01 10962   0.149E+00 0.181E-04
CGA:   4    -0.357677206378E+03   -0.22187E-01   -0.22174E-01 10962   0.364E-01-0.781E-04
CGA:   5    -0.357682971725E+03   -0.57653E-02   -0.57611E-02 10962   0.102E-01-0.352E-04
CGA:   6    -0.357684801683E+03   -0.18300E-02   -0.18310E-02 10962   0.329E-02 0.758E-05
CGA:   7    -0.357685464946E+03   -0.66326E-03   -0.66608E-03 10962   0.118E-02 0.321E-04
CGA:   8    -0.357685740925E+03   -0.27598E-03   -0.27707E-03 10962   0.488E-03 0.209E-04
CGA:   9    -0.357685876284E+03   -0.13536E-03   -0.13532E-03 10962   0.227E-03-0.370E-05
CGA:  10    -0.357685940248E+03   -0.63964E-04   -0.63989E-04 10962   0.917E-04-0.135E-04
CGA:  11    -0.357685965934E+03   -0.25686E-04   -0.25843E-04 10962   0.378E-04-0.890E-05
CGA:  12    -0.357685976320E+03   -0.10386E-04   -0.10415E-04 10962   0.184E-04-0.136E-05
CGA:  13    -0.357685984248E+03   -0.79284E-05   -0.82738E-05 10962   0.183E-04-0.193E-05
CGA:  14    -0.357685992015E+03   -0.77669E-05   -0.14677E-04 10962   0.532E-04-0.115E-04
CGA:  15    -0.357686005206E+03   -0.13191E-04   -0.13313E-04 10962   0.107E-04 0.166E-05
CGA:  16    -0.357686009410E+03   -0.42039E-05   -0.41359E-05 10962   0.441E-05 0.125E-05
  30 F= -.35768601E+03 E0= -.35768601E+03  d E =-.502927E-02  mag=    12.0000
       N       E                     dE             d eps       ncg     rms          ort
SDA:   1    -0.357593169244E+03    0.92836E-01    0.00000E+00 10962   0.256E+00 0.000E+00
CGA:   2    -0.357648043119E+03   -0.54874E-01   -0.54894E-01 10962   0.160E+00 0.123E-03
CGA:   3    -0.357674247553E+03   -0.26204E-01   -0.26216E-01 10962   0.525E-01 0.220E-04
CGA:   4    -0.357681960768E+03   -0.77132E-02   -0.77126E-02 10962   0.122E-01-0.119E-04
CGA:   5    -0.357683856200E+03   -0.18954E-02   -0.18954E-02 10962   0.326E-02-0.135E-05
CGA:   6    -0.357684428681E+03   -0.57248E-03   -0.57417E-03 10962   0.102E-02 0.143E-04
CGA:   7    -0.357684624701E+03   -0.19602E-03   -0.19958E-03 10962   0.344E-03 0.390E-04
CGA:   8    -0.357684697999E+03   -0.73298E-04   -0.75872E-04 10962   0.127E-03 0.372E-04
CGA:   9    -0.357684730794E+03   -0.32795E-04   -0.33552E-04 10962   0.538E-04 0.189E-04
CGA:  10    -0.357684747017E+03   -0.16223E-04   -0.16321E-04 10962   0.248E-04 0.810E-05
CGA:  11    -0.357684753455E+03   -0.64375E-05   -0.67371E-05 10962   0.109E-04 0.757E-05
  31 F= -.35768475E+03 E0= -.35768475E+03  d E =0.125596E-02  mag=    12.0000
       N       E                     dE             d eps       ncg     rms          ort
SDA:   1    -0.357591841293E+03    0.92906E-01    0.00000E+00 10962   0.222E+00 0.000E+00
CGA:   2    -0.357663555734E+03   -0.71714E-01   -0.71738E-01 10962   0.964E-01-0.466E-03
CGA:   3    -0.357677963767E+03   -0.14408E-01   -0.14408E-01 10962   0.297E-01-0.178E-04
CGA:   4    -0.357682318923E+03   -0.43552E-02   -0.43660E-02 10962   0.653E-02 0.838E-04
CGA:   5    -0.357683381327E+03   -0.10624E-02   -0.10661E-02 10962   0.196E-02 0.374E-04
CGA:   6    -0.357683737839E+03   -0.35651E-03   -0.35557E-03 10962   0.612E-03-0.131E-04
CGA:   7    -0.357683873382E+03   -0.13554E-03   -0.13441E-03 10962   0.261E-03-0.380E-04
CGA:   8    -0.357683938321E+03   -0.64938E-04   -0.65658E-04 10962   0.146E-03-0.381E-04
CGA:   9    -0.357683974439E+03   -0.36119E-04   -0.37225E-04 10962   0.787E-04-0.234E-04
CGA:  10    -0.357683992067E+03   -0.17628E-04   -0.17709E-04 10962   0.294E-04-0.544E-05
CGA:  11    -0.357683999258E+03   -0.71911E-05   -0.71818E-05 10962   0.104E-04 0.104E-05
  32 F= -.35768400E+03 E0= -.35768400E+03  d E =0.754196E-03  mag=    12.0000
       N       E                     dE             d eps       ncg     rms          ort
SDA:   1    -0.335305714504E+03    0.22378E+02    0.00000E+00 10962   0.500E+02 0.000E+00
CGA:   2    -0.349899745575E+03   -0.14594E+02   -0.14592E+02 10962   0.244E+02 0.108E-01
CGA:   3    -0.353779762981E+03   -0.38800E+01   -0.38808E+01 10962   0.863E+01 0.192E-01
CGA:   4    -0.355115239222E+03   -0.13355E+01   -0.13356E+01 10962   0.216E+01 0.112E-02
CGA:   5    -0.355479209806E+03   -0.36397E+00   -0.36399E+00 10962   0.747E+00-0.868E-03
CGA:   6    -0.355618942886E+03   -0.13973E+00   -0.13972E+00 10962   0.263E+00-0.430E-03
CGA:   7    -0.355677497540E+03   -0.58555E-01   -0.58534E-01 10962   0.120E+00-0.133E-02
CGA:   8    -0.355706175230E+03   -0.28678E-01   -0.28682E-01 10962   0.497E-01-0.179E-02
CGA:   9    -0.355718919553E+03   -0.12744E-01   -0.12769E-01 10962   0.209E-01-0.107E-02
CGA:  10    -0.355724326450E+03   -0.54069E-02   -0.54218E-02 10962   0.769E-02-0.570E-03
CGA:  11    -0.355726554800E+03   -0.22284E-02   -0.22484E-02 10962   0.346E-02-0.335E-03
CGA:  12    -0.355727665071E+03   -0.11103E-02   -0.11200E-02 10962   0.215E-02-0.105E-03
CGA:  13    -0.355728646910E+03   -0.98184E-03   -0.10567E-02 10962   0.248E-02-0.288E-03
CGA:  14    -0.355729788872E+03   -0.11420E-02   -0.14508E-02 10962   0.407E-02-0.701E-03
CGA:  15    -0.355731130782E+03   -0.13419E-02   -0.14549E-02 10962   0.393E-02-0.495E-03
CGA:  16    -0.355732753232E+03   -0.16225E-02   -0.16827E-02 10962   0.382E-02-0.363E-03
CGA:  17    -0.355734404112E+03   -0.16509E-02   -0.16856E-02 10962   0.370E-02-0.263E-03
CGA:  18    -0.355736086848E+03   -0.16827E-02   -0.17037E-02 10962   0.352E-02-0.196E-03
CGA:  19    -0.355737658495E+03   -0.15716E-02   -0.15737E-02 10962   0.300E-02-0.530E-04
CGA:  20    -0.355738911217E+03   -0.12527E-02   -0.12278E-02 10962   0.190E-02 0.246E-03
CGA:  21    -0.355739616470E+03   -0.70525E-03   -0.70192E-03 10962   0.959E-03 0.388E-03
CGA:  22    -0.355739922699E+03   -0.30623E-03   -0.32613E-03 10962   0.481E-03 0.379E-03
CGA:  23    -0.355740088306E+03   -0.16561E-03   -0.18181E-03 10962   0.277E-03 0.268E-03
CGA:  24    -0.355740260192E+03   -0.17189E-03   -0.16466E-03 10962   0.233E-03 0.265E-04
CGA:  25    -0.355740356375E+03   -0.96183E-04   -0.93138E-04 10962   0.155E-03 0.126E-03
CGA:  26    -0.355740414357E+03   -0.57981E-04   -0.57157E-04 10962   0.125E-03 0.319E-04
CGA:  27    -0.355740451364E+03   -0.37007E-04   -0.42380E-04 10962   0.790E-04 0.873E-04
CGA:  28    -0.355740528928E+03   -0.77564E-04   -0.10129E-03 10962   0.284E-03-0.255E-04
CGA:  29    -0.355740639844E+03   -0.11092E-03   -0.10346E-03 10962   0.355E-03 0.519E-04
CGA:  30    -0.355740766019E+03   -0.12618E-03   -0.13671E-03 10962   0.117E-03 0.154E-03
CGA:  31    -0.355740790407E+03   -0.24387E-04   -0.36454E-04 10962   0.311E-04 0.696E-04
CGA:  32    -0.355740811623E+03   -0.21217E-04   -0.20336E-04 10962   0.261E-04 0.310E-05
CGA:  33    -0.355740840416E+03   -0.28793E-04   -0.34648E-04 10962   0.110E-03-0.717E-05
CGA:  34    -0.355740877935E+03   -0.37519E-04   -0.39483E-04 10962   0.104E-03-0.328E-04
CGA:  35    -0.355740906785E+03   -0.28849E-04   -0.26666E-04 10962   0.838E-04-0.288E-04
CGA:  36    -0.355740918107E+03   -0.11322E-04   -0.12107E-04 10962   0.425E-04 0.326E-05
CGA:  37    -0.355740919617E+03   -0.15102E-05   -0.66536E-05 10962   0.319E-04 0.187E-04
  33 F= -.35574092E+03 E0= -.35574092E+03  d E =0.194308E+01  mag=    12.0000
       N       E                     dE             d eps       ncg     rms          ort
SDA:   1    -0.346807109303E+03    0.89338E+01    0.00000E+00 10962   0.252E+02 0.000E+00
CGA:   2    -0.354955829505E+03   -0.81487E+01   -0.81451E+01 10962   0.850E+01-0.273E-01
CGA:   3    -0.356741820555E+03   -0.17860E+01   -0.17886E+01 10962   0.323E+01-0.465E-03
CGA:   4    -0.357183831731E+03   -0.44201E+00   -0.44222E+00 10962   0.856E+00 0.220E-02
CGA:   5    -0.357350307215E+03   -0.16648E+00   -0.16631E+00 10962   0.303E+00-0.536E-03
CGA:   6    -0.357404472923E+03   -0.54166E-01   -0.54088E-01 10962   0.116E+00-0.405E-03
CGA:   7    -0.357432743383E+03   -0.28270E-01   -0.28206E-01 10962   0.539E-01-0.584E-03
CGA:   8    -0.357444946372E+03   -0.12203E-01   -0.12153E-01 10962   0.216E-01-0.409E-03
CGA:   9    -0.357450558799E+03   -0.56124E-02   -0.56118E-02 10962   0.844E-02-0.803E-05
CGA:  10    -0.357452690500E+03   -0.21317E-02   -0.21385E-02 10962   0.312E-02 0.793E-04
CGA:  11    -0.357453643476E+03   -0.95298E-03   -0.95034E-03 10962   0.147E-02-0.829E-04
CGA:  12    -0.357454184901E+03   -0.54142E-03   -0.54274E-03 10962   0.114E-02-0.286E-04
CGA:  13    -0.357454706617E+03   -0.52172E-03   -0.51126E-03 10962   0.122E-02 0.892E-04
CGA:  14    -0.357455536916E+03   -0.83030E-03   -0.78663E-03 10962   0.171E-02 0.172E-03
CGA:  15    -0.357456735021E+03   -0.11981E-02   -0.11417E-02 10962   0.213E-02 0.295E-03
CGA:  16    -0.357458051420E+03   -0.13164E-02   -0.12703E-02 10962   0.190E-02 0.312E-03
CGA:  17    -0.357458912334E+03   -0.86091E-03   -0.85091E-03 10962   0.124E-02 0.475E-03
CGA:  18    -0.357459528015E+03   -0.61568E-03   -0.60748E-03 10962   0.877E-03 0.431E-03
CGA:  19    -0.357460049225E+03   -0.52121E-03   -0.50437E-03 10962   0.658E-03 0.294E-03
CGA:  20    -0.357460395605E+03   -0.34638E-03   -0.34268E-03 10962   0.396E-03 0.255E-03
CGA:  21    -0.357460603311E+03   -0.20771E-03   -0.20761E-03 10962   0.215E-03 0.148E-03
CGA:  22    -0.357460714960E+03   -0.11165E-03   -0.11164E-03 10962   0.128E-03 0.979E-04
CGA:  23    -0.357460813830E+03   -0.98869E-04   -0.93414E-04 10962   0.116E-03 0.405E-04
CGA:  24    -0.357460937819E+03   -0.12399E-03   -0.14188E-03 10962   0.276E-03-0.391E-04
CGA:  25    -0.357461001697E+03   -0.63878E-04   -0.61915E-04 10962   0.319E-03-0.282E-04
CGA:  26    -0.357461092606E+03   -0.90909E-04   -0.86508E-04 10962   0.269E-03-0.209E-04
CGA:  27    -0.357461158523E+03   -0.65917E-04   -0.65943E-04 10962   0.221E-03 0.102E-04
CGA:  28    -0.357461201264E+03   -0.42740E-04   -0.51603E-04 10962   0.182E-03 0.532E-04
CGA:  29    -0.357461233128E+03   -0.31865E-04   -0.46227E-04 10962   0.138E-03 0.771E-04
CGA:  30    -0.357461261581E+03   -0.28453E-04   -0.40592E-04 10962   0.104E-03 0.696E-04
CGA:  31    -0.357461328483E+03   -0.66901E-04   -0.79557E-04 10962   0.182E-03-0.318E-04
CGA:  32    -0.357461346763E+03   -0.18281E-04   -0.26250E-04 10962   0.102E-03 0.440E-04
CGA:  33    -0.357461363352E+03   -0.16589E-04   -0.24225E-04 10962   0.514E-04 0.407E-04
CGA:  34    -0.357461383796E+03   -0.20444E-04   -0.20851E-04 10962   0.290E-04 0.499E-05
CGA:  35    -0.357461397664E+03   -0.13867E-04   -0.18903E-04 10962   0.544E-04-0.223E-04
CGA:  36    -0.357461402805E+03   -0.51415E-05   -0.90152E-05 10962   0.112E-04 0.183E-04
  34 F= -.35746140E+03 E0= -.35746140E+03  d E =-.172048E+01  mag=    12.0000
       N       E                     dE             d eps       ncg     rms          ort
SDA:   1    -0.357229568983E+03    0.23183E+00    0.00000E+00 10962   0.835E+00 0.000E+00
CGA:   2    -0.357494537645E+03   -0.26497E+00   -0.26504E+00 10962   0.310E+00 0.898E-03
CGA:   3    -0.357553229641E+03   -0.58692E-01   -0.58762E-01 10962   0.129E+00 0.292E-03
CGA:   4    -0.357571379584E+03   -0.18150E-01   -0.18174E-01 10962   0.307E-01 0.708E-04
CGA:   5    -0.357576980481E+03   -0.56009E-02   -0.56022E-02 10962   0.116E-01 0.578E-06
CGA:   6    -0.357579010010E+03   -0.20295E-02   -0.20427E-02 10962   0.403E-02 0.790E-04
CGA:   7    -0.357579907613E+03   -0.89760E-03   -0.91780E-03 10962   0.181E-02 0.189E-03
CGA:   8    -0.357580302834E+03   -0.39522E-03   -0.41304E-03 10962   0.677E-03 0.162E-03
CGA:   9    -0.357580483319E+03   -0.18048E-03   -0.18536E-03 10962   0.277E-03 0.688E-04
CGA:  10    -0.357580558460E+03   -0.75141E-04   -0.76669E-04 10962   0.110E-03 0.227E-04
CGA:  11    -0.357580590601E+03   -0.32141E-04   -0.32587E-04 10962   0.491E-04 0.109E-04
CGA:  12    -0.357580609145E+03   -0.18544E-04   -0.18423E-04 10962   0.358E-04 0.430E-05
CGA:  13    -0.357580623257E+03   -0.14113E-04   -0.13657E-04 10962   0.296E-04 0.127E-04
CGA:  14    -0.357580634657E+03   -0.11400E-04   -0.11853E-04 10962   0.239E-04 0.216E-04
CGA:  15    -0.357580639633E+03   -0.49753E-05   -0.58137E-05 10962   0.120E-04 0.116E-04
  35 F= -.35758064E+03 E0= -.35758064E+03  d E =-.119237E+00  mag=    12.0000
       N       E                     dE             d eps       ncg     rms          ort
SDA:   1    -0.356821525050E+03    0.75911E+00    0.00000E+00 10962   0.199E+01 0.000E+00
CGA:   2    -0.357440946045E+03   -0.61942E+00   -0.61939E+00 10962   0.791E+00 0.358E-02
CGA:   3    -0.357578837976E+03   -0.13789E+00   -0.13801E+00 10962   0.326E+00 0.755E-03
CGA:   4    -0.357627173488E+03   -0.48336E-01   -0.48383E-01 10962   0.766E-01 0.183E-03
CGA:   5    -0.357640378851E+03   -0.13205E-01   -0.13211E-01 10962   0.276E-01 0.156E-04
CGA:   6    -0.357645407657E+03   -0.50288E-02   -0.50515E-02 10962   0.989E-02 0.217E-03
CGA:   7    -0.357647567244E+03   -0.21596E-02   -0.21898E-02 10962   0.433E-02 0.492E-03
CGA:   8    -0.357648539732E+03   -0.97249E-03   -0.99847E-03 10962   0.165E-02 0.448E-03
CGA:   9    -0.357648987594E+03   -0.44786E-03   -0.45268E-03 10962   0.684E-03 0.186E-03
CGA:  10    -0.357649186777E+03   -0.19918E-03   -0.19964E-03 10962   0.286E-03 0.396E-04
CGA:  11    -0.357649275080E+03   -0.88303E-04   -0.88013E-04 10962   0.142E-03 0.161E-04
CGA:  12    -0.357649330057E+03   -0.54977E-04   -0.54684E-04 10962   0.115E-03 0.293E-05
CGA:  13    -0.357649385837E+03   -0.55780E-04   -0.52288E-04 10962   0.119E-03 0.201E-04
CGA:  14    -0.357649446995E+03   -0.61158E-04   -0.55126E-04 10962   0.107E-03 0.554E-04
CGA:  15    -0.357649502176E+03   -0.55182E-04   -0.51882E-04 10962   0.721E-04 0.804E-04
CGA:  16    -0.357649517939E+03   -0.15763E-04   -0.17527E-04 10962   0.327E-04 0.344E-04
CGA:  17    -0.357649526199E+03   -0.82596E-05   -0.10669E-04 10962   0.277E-04 0.339E-04
  36 F= -.35764953E+03 E0= -.35764953E+03  d E =-.688866E-01  mag=    12.0000
       N       E                     dE             d eps       ncg     rms          ort
SDA:   1    -0.357596616115E+03    0.52902E-01    0.00000E+00 10962   0.156E+00 0.000E+00
CGA:   2    -0.357638595788E+03   -0.41980E-01   -0.41993E-01 10962   0.842E-01 0.643E-03
CGA:   3    -0.357651270657E+03   -0.12675E-01   -0.12709E-01 10962   0.269E-01 0.233E-03
CGA:   4    -0.357655692099E+03   -0.44214E-02   -0.44299E-02 10962   0.750E-02 0.655E-04
CGA:   5    -0.357656878261E+03   -0.11862E-02   -0.11873E-02 10962   0.214E-02 0.739E-05
CGA:   6    -0.357657265183E+03   -0.38692E-03   -0.39139E-03 10962   0.782E-03 0.513E-04
CGA:   7    -0.357657404672E+03   -0.13949E-03   -0.15013E-03 10962   0.287E-03 0.138E-03
CGA:   8    -0.357657448873E+03   -0.44202E-04   -0.56403E-04 10962   0.121E-03 0.130E-03
CGA:   9    -0.357657469118E+03   -0.20245E-04   -0.28065E-04 10962   0.643E-04 0.811E-04
CGA:  10    -0.357657493801E+03   -0.24682E-04   -0.24623E-04 10962   0.732E-04 0.398E-06
CGA:  11    -0.357657511799E+03   -0.17998E-04   -0.18298E-04 10962   0.364E-04 0.319E-04
CGA:  12    -0.357657522787E+03   -0.10988E-04   -0.11779E-04 10962   0.227E-04 0.247E-04
CGA:  13    -0.357657509129E+03    0.13657E-04   -0.27779E-04 10962   0.357E-03-0.430E-04
CGA:  14    -0.357657556297E+03   -0.47168E-04   -0.52626E-04 10962   0.201E-04 0.348E-04
CGA:  15    -0.357657554740E+03    0.15575E-05   -0.23141E-04 10962   0.183E-03-0.329E-04
CGA:  16    -0.357657580213E+03   -0.25474E-04   -0.31434E-04 10962   0.200E-04 0.366E-04
CGA:  17    -0.357657590648E+03   -0.10435E-04   -0.12013E-04 10962   0.367E-04-0.914E-05
CGA:  18    -0.357657594678E+03   -0.40296E-05   -0.46928E-05 10962   0.529E-04 0.656E-05
CGA:  19    -0.357657612970E+03   -0.18292E-04   -0.18950E-04 10962   0.454E-04 0.254E-04
CGA:  20    -0.357657658813E+03   -0.45843E-04   -0.64427E-04 10962   0.198E-03-0.310E-04
CGA:  21    -0.357657699709E+03   -0.40897E-04   -0.45925E-04 10962   0.148E-04 0.392E-04
CGA:  22    -0.357657699819E+03   -0.10985E-06   -0.15644E-04 10962   0.854E-04-0.295E-04
CGA:  23    -0.357657703293E+03   -0.34735E-05   -0.12258E-04 10962   0.213E-04 0.371E-04
  37 F= -.35765770E+03 E0= -.35765770E+03  d E =-.817709E-02  mag=    12.0000
       N       E                     dE             d eps       ncg     rms          ort
SDA:   1    -0.357536704924E+03    0.12099E+00    0.00000E+00 10962   0.348E+00 0.000E+00
CGA:   2    -0.357619971584E+03   -0.83267E-01   -0.83344E-01 10962   0.207E+00 0.468E-03
CGA:   3    -0.357651864093E+03   -0.31893E-01   -0.31937E-01 10962   0.624E-01 0.216E-03
CGA:   4    -0.357661701896E+03   -0.98378E-02   -0.98491E-02 10962   0.166E-01 0.447E-04
CGA:   5    -0.357664290576E+03   -0.25887E-02   -0.25932E-02 10962   0.451E-02 0.196E-04
CGA:   6    -0.357665094077E+03   -0.80350E-03   -0.80923E-03 10962   0.151E-02 0.386E-04
CGA:   7    -0.357665383873E+03   -0.28980E-03   -0.30291E-03 10962   0.547E-03 0.112E-03
CGA:   8    -0.357665485343E+03   -0.10147E-03   -0.11582E-03 10962   0.205E-03 0.126E-03
CGA:   9    -0.357665531123E+03   -0.45780E-04   -0.52707E-04 10962   0.882E-04 0.718E-04
CGA:  10    -0.357665559526E+03   -0.28402E-04   -0.29596E-04 10962   0.443E-04 0.231E-04
CGA:  11    -0.357665578752E+03   -0.19226E-04   -0.19467E-04 10962   0.303E-04-0.480E-05
CGA:  12    -0.357665580109E+03   -0.13565E-05   -0.19356E-04 10962   0.919E-04-0.433E-04
CGA:  13    -0.357665604837E+03   -0.24729E-04   -0.23804E-04 10962   0.326E-04-0.149E-04
CGA:  14    -0.357665614893E+03   -0.10056E-04   -0.18174E-04 10962   0.614E-04-0.234E-04
CGA:  15    -0.357665633892E+03   -0.18999E-04   -0.17783E-04 10962   0.262E-04-0.265E-04
CGA:  16    -0.357665637486E+03   -0.35938E-05   -0.38119E-05 10962   0.682E-05 0.284E-05
  38 F= -.35766564E+03 E0= -.35766564E+03  d E =-.793419E-02  mag=    12.0000
       N       E                     dE             d eps       ncg     rms          ort
SDA:   1    -0.357585450605E+03    0.80183E-01    0.00000E+00 10962   0.239E+00 0.000E+00
CGA:   2    -0.357637589072E+03   -0.52138E-01   -0.52146E-01 10962   0.147E+00-0.685E-04
CGA:   3    -0.357661022750E+03   -0.23434E-01   -0.23419E-01 10962   0.447E-01-0.992E-04
CGA:   4    -0.357667628758E+03   -0.66060E-02   -0.66019E-02 10962   0.114E-01-0.298E-04
CGA:   5    -0.357669272922E+03   -0.16442E-02   -0.16496E-02 10962   0.314E-02 0.248E-04
CGA:   6    -0.357669795002E+03   -0.52208E-03   -0.52551E-03 10962   0.915E-03 0.200E-04
CGA:   7    -0.357669985393E+03   -0.19039E-03   -0.19016E-03 10962   0.306E-03-0.219E-05
CGA:   8    -0.357670062029E+03   -0.76637E-04   -0.76270E-04 10962   0.137E-03-0.553E-05
CGA:   9    -0.357670102238E+03   -0.40209E-04   -0.40032E-04 10962   0.783E-04-0.116E-04
CGA:  10    -0.357670124515E+03   -0.22277E-04   -0.22238E-04 10962   0.475E-04-0.140E-04
CGA:  11    -0.357670136861E+03   -0.12346E-04   -0.12394E-04 10962   0.253E-04-0.109E-04
CGA:  12    -0.357670140605E+03   -0.37435E-05   -0.12784E-04 10962   0.625E-04-0.264E-04
CGA:  13    -0.357670154464E+03   -0.13859E-04   -0.13652E-04 10962   0.119E-04-0.187E-05
CGA:  14    -0.357670159209E+03   -0.47446E-05   -0.64632E-05 10962   0.178E-04-0.728E-05
  39 F= -.35767016E+03 E0= -.35767016E+03  d E =-.452172E-02  mag=    12.0000
       N       E                     dE             d eps       ncg     rms          ort
SDA:   1    -0.357420055156E+03    0.25010E+00    0.00000E+00 10962   0.709E+00 0.000E+00
CGA:   2    -0.357585913535E+03   -0.16586E+00   -0.16585E+00 10962   0.406E+00-0.461E-03
CGA:   3    -0.357649080335E+03   -0.63167E-01   -0.63121E-01 10962   0.124E+00-0.377E-03
CGA:   4    -0.357668197924E+03   -0.19118E-01   -0.19109E-01 10962   0.300E-01-0.770E-04
CGA:   5    -0.357672769418E+03   -0.45715E-02   -0.45852E-02 10962   0.763E-02 0.795E-04
CGA:   6    -0.357674132101E+03   -0.13627E-02   -0.13645E-02 10962   0.242E-02 0.124E-04
CGA:   7    -0.357674664833E+03   -0.53273E-03   -0.52399E-03 10962   0.964E-03-0.111E-03
CGA:   8    -0.357674921835E+03   -0.25700E-03   -0.25475E-03 10962   0.593E-03-0.154E-03
CGA:   9    -0.357675073373E+03   -0.15154E-03   -0.15336E-03 10962   0.360E-03-0.109E-03
CGA:  10    -0.357675153238E+03   -0.79866E-04   -0.79440E-04 10962   0.144E-03-0.204E-04
CGA:  11    -0.357675185028E+03   -0.31789E-04   -0.32633E-04 10962   0.492E-04 0.164E-04
CGA:  12    -0.357675195567E+03   -0.10539E-04   -0.11684E-04 10962   0.201E-04 0.153E-04
CGA:  13    -0.357675199472E+03   -0.39050E-05   -0.50192E-05 10962   0.105E-04 0.119E-04
  40 F= -.35767520E+03 E0= -.35767520E+03  d E =-.504026E-02  mag=    12.0000
       N       E                     dE             d eps       ncg     rms          ort
SDA:   1    -0.357603451557E+03    0.71744E-01    0.00000E+00 10962   0.180E+00 0.000E+00
[...]
CGA:   3    -0.357663334337E+03   -0.19191E-01   -0.19185E-01 10962   0.396E-01-0.713E-04
CGA:   4    -0.357669271826E+03   -0.59375E-02   -0.59464E-02 10962   0.869E-02 0.638E-04
CGA:   5    -0.357670624613E+03   -0.13528E-02   -0.13577E-02 10962   0.244E-02 0.439E-04
CGA:   6    -0.357671067501E+03   -0.44289E-03   -0.44345E-03 10962   0.758E-03 0.679E-05
CGA:   7    -0.357671231744E+03   -0.16424E-03   -0.16374E-03 10962   0.300E-03-0.135E-04
CGA:   8    -0.357671310900E+03   -0.79156E-04   -0.79528E-04 10962   0.170E-03-0.210E-04
CGA:   9    -0.357671360275E+03   -0.49375E-04   -0.51649E-04 10962   0.113E-03-0.308E-04
CGA:  10    -0.357671388716E+03   -0.28441E-04   -0.30481E-04 10962   0.632E-04-0.276E-04
CGA:  11    -0.357671402893E+03   -0.14177E-04   -0.14732E-04 10962   0.283E-04-0.115E-04
CGA:  12    -0.357671410836E+03   -0.79433E-05   -0.84719E-05 10962   0.175E-04-0.517E-05
CGA:  13    -0.357671414668E+03   -0.38316E-05   -0.10088E-04 10962   0.359E-04-0.143E-04
  47 F= -.35767141E+03 E0= -.35767141E+03  d E =0.943441E-03  mag=    12.0000
       N       E                     dE             d eps       ncg     rms          ort
SDA:   1    -0.352052175853E+03    0.56192E+01    0.00000E+00 10962   0.140E+02 0.000E+00
CGA:   2    -0.356121516556E+03   -0.40693E+01   -0.40693E+01 10962   0.718E+01 0.658E-02
CGA:   3    -0.357202895562E+03   -0.10814E+01   -0.10811E+01 10962   0.212E+01 0.641E-02
CGA:   4    -0.357521705979E+03   -0.31881E+00   -0.31877E+00 10962   0.463E+00-0.112E-03
CGA:   5    -0.357594846203E+03   -0.73140E-01   -0.73167E-01 10962   0.133E+00 0.470E-04
CGA:   6    -0.357618709996E+03   -0.23864E-01   -0.23867E-01 10962   0.423E-01 0.182E-04
CGA:   7    -0.357627478221E+03   -0.87682E-02   -0.87564E-02 10962   0.157E-01-0.216E-03
CGA:   8    -0.357631435869E+03   -0.39576E-02   -0.39554E-02 10962   0.791E-02-0.302E-03
CGA:   9    -0.357633683623E+03   -0.22478E-02   -0.22580E-02 10962   0.409E-02-0.338E-03
CGA:  10    -0.357634833187E+03   -0.11496E-02   -0.11585E-02 10962   0.180E-02-0.266E-03
CGA:  11    -0.357635325338E+03   -0.49215E-03   -0.49546E-03 10962   0.703E-03-0.112E-03
CGA:  12    -0.357635540195E+03   -0.21486E-03   -0.21833E-03 10962   0.360E-03-0.536E-04
CGA:  13    -0.357635672511E+03   -0.13232E-03   -0.14033E-03 10962   0.251E-03-0.527E-04
CGA:  14    -0.357635758914E+03   -0.86403E-04   -0.93537E-04 10962   0.150E-03-0.448E-04
CGA:  15    -0.357635806313E+03   -0.47399E-04   -0.58526E-04 10962   0.957E-04-0.588E-04
CGA:  16    -0.357635826164E+03   -0.19851E-04   -0.32044E-04 10962   0.878E-04-0.477E-04
CGA:  17    -0.357635859480E+03   -0.33316E-04    0.28884E-04 10962   0.545E-04 0.441E-05
CGA:  18    -0.357635579454E+03    0.28003E-03   -0.15148E-03 10962   0.149E-02-0.242E-03
CGA:  19    -0.357635971236E+03   -0.39178E-03   -0.39784E-03 10962   0.110E-03 0.206E-04
CGA:  20    -0.357636010098E+03   -0.38862E-04   -0.39193E-04 10962   0.208E-04 0.170E-05
CGA:  21    -0.357636014607E+03   -0.45092E-05   -0.63157E-05 10962   0.800E-05 0.761E-05
  48 F= -.35763601E+03 E0= -.35763601E+03  d E =0.354001E-01  mag=    12.0000
       N       E                     dE             d eps       ncg     rms          ort
SDA:   1    -0.353025226288E+03    0.46108E+01    0.00000E+00 10962   0.109E+02 0.000E+00
CGA:   2    -0.356624539871E+03   -0.35993E+01   -0.35995E+01 10962   0.400E+01-0.412E-03
CGA:   3    -0.357301683289E+03   -0.67714E+00   -0.67740E+00 10962   0.142E+01 0.475E-02
CGA:   4    -0.357500742335E+03   -0.19906E+00   -0.19898E+00 10962   0.302E+00 0.167E-02
CGA:   5    -0.357553440073E+03   -0.52698E-01   -0.52620E-01 10962   0.102E+00-0.137E-03
CGA:   6    -0.357571624053E+03   -0.18184E-01   -0.18134E-01 10962   0.332E-01-0.168E-03
CGA:   7    -0.357578928983E+03   -0.73049E-02   -0.72348E-02 10962   0.136E-01-0.306E-03
CGA:   8    -0.357582308048E+03   -0.33791E-02   -0.33014E-02 10962   0.617E-02-0.401E-03
CGA:   9    -0.357584039650E+03   -0.17316E-02   -0.16829E-02 10962   0.277E-02-0.330E-03
CGA:  10    -0.357584766285E+03   -0.72664E-03   -0.70215E-03 10962   0.102E-02-0.159E-03
CGA:  11    -0.357585063578E+03   -0.29729E-03   -0.28809E-03 10962   0.401E-03-0.803E-04
CGA:  12    -0.357585194274E+03   -0.13070E-03   -0.12834E-03 10962   0.242E-03-0.392E-04
CGA:  13    -0.357585305494E+03   -0.11122E-03   -0.12555E-03 10962   0.339E-03-0.842E-04
CGA:  14    -0.357585315325E+03   -0.98302E-05   -0.23276E-03 10962   0.122E-02-0.347E-03
CGA:  15    -0.357585648822E+03   -0.33350E-03   -0.32978E-03 10962   0.287E-03-0.216E-04
CGA:  16    -0.357585786019E+03   -0.13720E-03   -0.14492E-03 10962   0.224E-03-0.979E-04
CGA:  17    -0.357585850353E+03   -0.64334E-04   -0.64121E-04 10962   0.129E-03-0.375E-04
CGA:  18    -0.357585833734E+03    0.16618E-04   -0.11975E-03 10962   0.887E-03-0.202E-03
CGA:  19    -0.357585962535E+03   -0.12880E-03   -0.15813E-03 10962   0.115E-03 0.988E-04
CGA:  20    -0.357586002295E+03   -0.39760E-04   -0.40409E-04 10962   0.357E-04 0.453E-05
CGA:  21    -0.357586026119E+03   -0.23825E-04   -0.27854E-04 10962   0.632E-04-0.135E-04
CGA:  22    -0.357586029088E+03   -0.29687E-05   -0.71441E-05 10962   0.470E-04 0.147E-04
CGA:  23    -0.357586041005E+03   -0.11917E-04   -0.14294E-04 10962   0.388E-04 0.115E-04
CGA:  24    -0.357586092896E+03   -0.51890E-04    0.49426E-04 10962   0.573E-04-0.876E-05
CGA:  25    -0.357586170560E+03   -0.77665E-04    0.10013E-04 10962   0.122E-03-0.738E-05
CGA:  26    -0.357586285100E+03   -0.11454E-03    0.10674E-03 10962   0.138E-03-0.538E-04
CGA:  27    -0.357586353397E+03   -0.68297E-04    0.18592E-01 10962   0.190E-03-0.121E-03
CGA:  28    -0.357586440220E+03   -0.86824E-04   -0.89832E-04 10962   0.228E-03-0.979E-04
CGA:  29    -0.357586440255E+03   -0.34626E-07   -0.25930E-04 10962   0.334E-04 0.783E-04
  49 F= -.35758644E+03 E0= -.35758644E+03  d E =0.495744E-01  mag=    12.0000
       N       E                     dE             d eps       ncg     rms          ort
SDA:   1    -0.352977815073E+03    0.46086E+01    0.00000E+00 10962   0.120E+02 0.000E+00
CGA:   2    -0.356313435207E+03   -0.33356E+01   -0.33384E+01 10962   0.624E+01 0.606E-02
CGA:   3    -0.357265467713E+03   -0.95203E+00   -0.95233E+00 10962   0.190E+01 0.170E-01
CGA:   4    -0.357555633662E+03   -0.29017E+00   -0.28974E+00 10962   0.425E+00 0.125E-02
CGA:   5    -0.357623410422E+03   -0.67777E-01   -0.67716E-01 10962   0.123E+00-0.285E-03
CGA:   6    -0.357645773504E+03   -0.22363E-01   -0.22386E-01 10962   0.399E-01 0.879E-04
CGA:   7    -0.357654077345E+03   -0.83038E-02   -0.83247E-02 10962   0.150E-01 0.130E-03
CGA:   8    -0.357657741973E+03   -0.36646E-02   -0.36764E-02 10962   0.698E-02 0.109E-03
CGA:   9    -0.357659656096E+03   -0.19141E-02   -0.19218E-02 10962   0.325E-02 0.107E-03
CGA:  10    -0.357660569933E+03   -0.91384E-03   -0.91779E-03 10962   0.134E-02 0.620E-04
CGA:  11    -0.357660964306E+03   -0.39437E-03   -0.39630E-03 10962   0.550E-03 0.391E-04
CGA:  12    -0.357661133182E+03   -0.16888E-03   -0.17058E-03 10962   0.274E-03 0.485E-04
CGA:  13    -0.357661225041E+03   -0.91859E-04   -0.93443E-04 10962   0.155E-03 0.733E-04
CGA:  14    -0.357661274076E+03   -0.49035E-04   -0.53798E-04 10962   0.870E-04 0.804E-04
CGA:  15    -0.357661294539E+03   -0.20463E-04   -0.22886E-04 10962   0.402E-04 0.359E-04
CGA:  16    -0.357661301901E+03   -0.73628E-05   -0.12122E-04 10962   0.330E-04 0.420E-04
  50 F= -.35766130E+03 E0= -.35766130E+03  d E =-.748616E-01  mag=    12.0000
       N       E                     dE             d eps       ncg     rms          ort
SDA:   1    -0.356454859115E+03    0.12064E+01    0.00000E+00 10962   0.288E+01 0.000E+00
CGA:   2    -0.357362081256E+03   -0.90722E+00   -0.90723E+00 10962   0.108E+01 0.398E-02
CGA:   3    -0.357551340040E+03   -0.18926E+00   -0.18940E+00 10962   0.438E+00 0.807E-03
CGA:   4    -0.357615790971E+03   -0.64451E-01   -0.64491E-01 10962   0.946E-01 0.107E-03
CGA:   5    -0.357632053230E+03   -0.16262E-01   -0.16256E-01 10962   0.320E-01-0.840E-04
CGA:   6    -0.357637977013E+03   -0.59238E-02   -0.59418E-02 10962   0.118E-01 0.161E-03
CGA:   7    -0.357640522655E+03   -0.25456E-02   -0.25801E-02 10962   0.475E-02 0.480E-03
CGA:   8    -0.357641609441E+03   -0.10868E-02   -0.11138E-02 10962   0.191E-02 0.450E-03
CGA:   9    -0.357642127078E+03   -0.51764E-03   -0.52453E-03 10962   0.759E-03 0.219E-03
CGA:  10    -0.357642347014E+03   -0.21994E-03   -0.22089E-03 10962   0.293E-03 0.488E-04
CGA:  11    -0.357642432799E+03   -0.85786E-04   -0.85873E-04 10962   0.118E-03 0.196E-04
CGA:  12    -0.357642471850E+03   -0.39051E-04   -0.38706E-04 10962   0.657E-04 0.124E-04
CGA:  13    -0.357642497999E+03   -0.26149E-04   -0.24918E-04 10962   0.473E-04 0.199E-04
CGA:  14    -0.357642513529E+03   -0.15530E-04   -0.16228E-04 10962   0.332E-04 0.339E-04
CGA:  15    -0.357642517546E+03   -0.40170E-05   -0.61379E-05 10962   0.188E-04 0.216E-04
  51 F= -.35764252E+03 E0= -.35764252E+03  d E =0.187844E-01  mag=    12.0000
       N       E                     dE             d eps       ncg     rms          ort
SDA:   1    -0.355969281540E+03    0.16732E+01    0.00000E+00 10962   0.416E+01 0.000E+00
CGA:   2    -0.357253339739E+03   -0.12841E+01   -0.12842E+01 10962   0.183E+01-0.342E-02
CGA:   3    -0.357539298181E+03   -0.28596E+00   -0.28585E+00 10962   0.606E+00-0.789E-03
CGA:   4    -0.357630094520E+03   -0.90796E-01   -0.90773E-01 10962   0.131E+00-0.266E-03
CGA:   5    -0.357651383623E+03   -0.21289E-01   -0.21294E-01 10962   0.398E-01 0.452E-04
CGA:   6    -0.357658717073E+03   -0.73334E-02   -0.73222E-02 10962   0.134E-01-0.157E-03
CGA:   7    -0.357661639713E+03   -0.29226E-02   -0.29055E-02 10962   0.543E-02-0.489E-03
CGA:   8    -0.357663021117E+03   -0.13814E-02   -0.13894E-02 10962   0.288E-02-0.568E-03
CGA:   9    -0.357663742268E+03   -0.72115E-03   -0.73188E-03 10962   0.136E-02-0.343E-03
CGA:  10    -0.357664054431E+03   -0.31216E-03   -0.31277E-03 10962   0.466E-03-0.749E-04
CGA:  11    -0.357664166337E+03   -0.11191E-03   -0.11191E-03 10962   0.148E-03 0.218E-04
CGA:  12    -0.357664200662E+03   -0.34326E-04   -0.35371E-04 10962   0.585E-04 0.398E-04
CGA:  13    -0.357664213521E+03   -0.12859E-04   -0.14704E-04 10962   0.315E-04 0.337E-04
CGA:  14    -0.357664221567E+03   -0.80457E-05   -0.79928E-05 10962   0.165E-04 0.157E-04
  52 F= -.35766422E+03 E0= -.35766422E+03  d E =-.217040E-01  mag=    12.0000
       N       E                     dE             d eps       ncg     rms          ort
SDA:   1    -0.357415920472E+03    0.24829E+00    0.00000E+00 10962   0.678E+00 0.000E+00
CGA:   2    -0.357584583552E+03   -0.16866E+00   -0.16866E+00 10962   0.362E+00 0.184E-02
CGA:   3    -0.357641515142E+03   -0.56932E-01   -0.56960E-01 10962   0.119E+00 0.192E-03
CGA:   4    -0.357659812397E+03   -0.18297E-01   -0.18262E-01 10962   0.266E-01-0.409E-03
CGA:   5    -0.357663900169E+03   -0.40878E-02   -0.40720E-02 10962   0.705E-02-0.188E-03
CGA:   6    -0.357665152617E+03   -0.12524E-02   -0.12506E-02 10962   0.223E-02-0.327E-04
CGA:   7    -0.357665609563E+03   -0.45695E-03   -0.45723E-03 10962   0.813E-03 0.964E-05
CGA:   8    -0.357665811906E+03   -0.20234E-03   -0.20226E-03 10962   0.399E-03 0.477E-05
CGA:   9    -0.357665925145E+03   -0.11324E-03   -0.11279E-03 10962   0.204E-03 0.922E-05
CGA:  10    -0.357665983361E+03   -0.58216E-04   -0.57528E-04 10962   0.881E-04 0.171E-04
CGA:  11    -0.357666008253E+03   -0.24892E-04   -0.24547E-04 10962   0.346E-04 0.172E-04
CGA:  12    -0.357666016813E+03   -0.85598E-05   -0.89134E-05 10962   0.159E-04 0.157E-04
  53 F= -.35766602E+03 E0= -.35766602E+03  d E =-.179525E-02  mag=    12.0000
       N       E                     dE             d eps       ncg     rms          ort
SDA:   1    -0.356398376411E+03    0.12676E+01    0.00000E+00 10962   0.341E+01 0.000E+00
CGA:   2    -0.357255093580E+03   -0.85672E+00   -0.85654E+00 10962   0.182E+01 0.751E-02
CGA:   3    -0.357538054893E+03   -0.28296E+00   -0.28305E+00 10962   0.589E+00 0.644E-03
CGA:   4    -0.357628517821E+03   -0.90463E-01   -0.90354E-01 10962   0.133E+00-0.143E-02
CGA:   5    -0.357648988973E+03   -0.20471E-01   -0.20431E-01 10962   0.357E-01-0.590E-03
CGA:   6    -0.357655340392E+03   -0.63514E-02   -0.63477E-02 10962   0.113E-01-0.926E-04
CGA:   7    -0.357657674859E+03   -0.23345E-02   -0.23348E-02 10962   0.417E-02 0.204E-04
CGA:   8    -0.357658711783E+03   -0.10369E-02   -0.10367E-02 10962   0.206E-02 0.561E-05
CGA:   9    -0.357659308485E+03   -0.59670E-03   -0.59767E-03 10962   0.110E-02-0.144E-04
CGA:  10    -0.357659629120E+03   -0.32063E-03   -0.32207E-03 10962   0.512E-03-0.204E-04
CGA:  11    -0.357659779049E+03   -0.14993E-03   -0.15058E-03 10962   0.216E-03-0.933E-05
CGA:  12    -0.357659842469E+03   -0.63421E-04   -0.62693E-04 10962   0.962E-04 0.113E-04
CGA:  13    -0.357659870844E+03   -0.28375E-04   -0.27395E-04 10962   0.435E-04 0.275E-04
CGA:  14    -0.357659882580E+03   -0.11735E-04   -0.12200E-04 10962   0.212E-04 0.251E-04
CGA:  15    -0.357659887114E+03   -0.45342E-05   -0.46981E-05 10962   0.102E-04 0.113E-04
  54 F= -.35765989E+03 E0= -.35765989E+03  d E =0.612970E-02  mag=    12.0000
       N       E                     dE             d eps       ncg     rms          ort
SDA:   1    -0.356862141386E+03    0.79774E+00    0.00000E+00 10962   0.211E+01 0.000E+00
CGA:   2    -0.357429378915E+03   -0.56724E+00   -0.56724E+00 10962   0.106E+01-0.912E-03
CGA:   3    -0.357592954341E+03   -0.16358E+00   -0.16354E+00 10962   0.341E+00-0.353E-03
CGA:   4    -0.357644434188E+03   -0.51480E-01   -0.51506E-01 10962   0.738E-01 0.224E-03
CGA:   5    -0.357656003358E+03   -0.11569E-01   -0.11583E-01 10962   0.206E-01 0.183E-03
CGA:   6    -0.357659702942E+03   -0.36996E-02   -0.37014E-02 10962   0.649E-02 0.400E-04
CGA:   7    -0.357661063447E+03   -0.13605E-02   -0.13600E-02 10962   0.247E-02-0.450E-04
CGA:   8    -0.357661688035E+03   -0.62459E-03   -0.62639E-03 10962   0.127E-02-0.517E-04
CGA:   9    -0.357662050446E+03   -0.36241E-03   -0.36615E-03 10962   0.684E-03-0.510E-04
CGA:  10    -0.357662242042E+03   -0.19160E-03   -0.19351E-03 10962   0.306E-03-0.276E-04
CGA:  11    -0.357662323891E+03   -0.81849E-04   -0.81387E-04 10962   0.113E-03 0.936E-05
CGA:  12    -0.357662357208E+03   -0.33317E-04   -0.32650E-04 10962   0.488E-04 0.135E-04
CGA:  13    -0.357662374992E+03   -0.17784E-04   -0.17021E-04 10962   0.254E-04 0.975E-05
CGA:  14    -0.357662384222E+03   -0.92293E-05   -0.87791E-05 10962   0.118E-04 0.876E-05
  55 F= -.35766238E+03 E0= -.35766238E+03  d E =-.249711E-02  mag=    12.0000
       N       E                     dE             d eps       ncg     rms          ort
SDA:   1    -0.356032967550E+03    0.16294E+01    0.00000E+00 10962   0.411E+01 0.000E+00
CGA:   2    -0.357170493288E+03   -0.11375E+01   -0.11374E+01 10962   0.221E+01 0.116E-03
CGA:   3    -0.357503115891E+03   -0.33262E+00   -0.33255E+00 10962   0.667E+00-0.553E-04
CGA:   4    -0.357604637013E+03   -0.10152E+00   -0.10155E+00 10962   0.150E+00 0.215E-03
CGA:   5    -0.357628367960E+03   -0.23731E-01   -0.23750E-01 10962   0.423E-01 0.215E-03
CGA:   6    -0.357636029678E+03   -0.76617E-02   -0.76633E-02 10962   0.138E-01 0.257E-04
CGA:   7    -0.357638944599E+03   -0.29149E-02   -0.29130E-02 10962   0.526E-02-0.130E-03
CGA:   8    -0.357640250430E+03   -0.13058E-02   -0.13095E-02 10962   0.256E-02-0.146E-03
CGA:   9    -0.357640954278E+03   -0.70385E-03   -0.71097E-03 10962   0.126E-02-0.121E-03
CGA:  10    -0.357641295707E+03   -0.34143E-03   -0.34518E-03 10962   0.528E-03-0.665E-04
CGA:  11    -0.357641436826E+03   -0.14112E-03   -0.14137E-03 10962   0.197E-03-0.528E-05
CGA:  12    -0.357641496305E+03   -0.59479E-04   -0.58926E-04 10962   0.922E-04 0.816E-05
CGA:  13    -0.357641532290E+03   -0.35985E-04   -0.35338E-04 10962   0.570E-04 0.492E-05
CGA:  14    -0.357641554485E+03   -0.22195E-04   -0.21239E-04 10962   0.299E-04 0.872E-05
CGA:  15    -0.357641565752E+03   -0.11267E-04   -0.10776E-04 10962   0.130E-04 0.782E-05
CGA:  16    -0.357641570834E+03   -0.50824E-05   -0.48563E-05 10962   0.659E-05 0.527E-05
  56 F= -.35764157E+03 E0= -.35764157E+03  d E =0.208134E-01  mag=    12.0000
       N       E                     dE             d eps       ncg     rms          ort
SDA:   1    -0.356797221184E+03    0.84434E+00    0.00000E+00 10962   0.228E+01 0.000E+00
CGA:   2    -0.357389328943E+03   -0.59211E+00   -0.59211E+00 10962   0.121E+01 0.435E-02
CGA:   3    -0.357578131265E+03   -0.18880E+00   -0.18887E+00 10962   0.394E+00 0.397E-03
CGA:   4    -0.357638862879E+03   -0.60732E-01   -0.60647E-01 10962   0.896E-01-0.863E-03
CGA:   5    -0.357652938094E+03   -0.14075E-01   -0.14045E-01 10962   0.249E-01-0.360E-03
CGA:   6    -0.357657418985E+03   -0.44809E-02   -0.44795E-02 10962   0.814E-02-0.265E-04
CGA:   7    -0.357659116570E+03   -0.16976E-02   -0.17000E-02 10962   0.308E-02 0.739E-04
CGA:   8    -0.357659870719E+03   -0.75415E-03   -0.75397E-03 10962   0.141E-02 0.708E-04
CGA:   9    -0.357660270419E+03   -0.39970E-03   -0.39836E-03 10962   0.676E-03 0.377E-04
CGA:  10    -0.357660469213E+03   -0.19879E-03   -0.19874E-03 10962   0.298E-03 0.102E-05
CGA:  11    -0.357660559142E+03   -0.89929E-04   -0.90539E-04 10962   0.130E-03-0.103E-04
CGA:  12    -0.357660599734E+03   -0.40593E-04   -0.41229E-04 10962   0.674E-04-0.785E-05
CGA:  13    -0.357660620855E+03   -0.21121E-04   -0.20748E-04 10962   0.322E-04 0.483E-05
CGA:  14    -0.357660631310E+03   -0.10455E-04   -0.10163E-04 10962   0.134E-04 0.742E-05
CGA:  15    -0.357660636328E+03   -0.50183E-05   -0.48859E-05 10962   0.546E-05 0.332E-05
  57 F= -.35766064E+03 E0= -.35766064E+03  d E =-.190655E-01  mag=    12.0000
       N       E                     dE             d eps       ncg     rms          ort
SDA:   1    -0.357580433286E+03    0.80198E-01    0.00000E+00 10962   0.208E+00 0.000E+00
CGA:   2    -0.357635518244E+03   -0.55085E-01   -0.55079E-01 10962   0.108E+00 0.974E-03
CGA:   3    -0.357652220583E+03   -0.16702E-01   -0.16712E-01 10962   0.358E-01 0.608E-04
CGA:   4    -0.357657851982E+03   -0.56314E-02   -0.56094E-02 10962   0.824E-02-0.233E-03
CGA:   5    -0.357659144704E+03   -0.12927E-02   -0.12838E-02 10962   0.230E-02-0.988E-04
CGA:   6    -0.357659558266E+03   -0.41356E-03   -0.41266E-03 10962   0.771E-03-0.148E-04
CGA:   7    -0.357659717391E+03   -0.15913E-03   -0.15951E-03 10962   0.286E-03 0.116E-04
CGA:   8    -0.357659787637E+03   -0.70246E-04   -0.70216E-04 10962   0.131E-03 0.101E-04
CGA:   9    -0.357659823871E+03   -0.36234E-04   -0.36002E-04 10962   0.594E-04 0.909E-05
CGA:  10    -0.357659840112E+03   -0.16241E-04   -0.16128E-04 10962   0.231E-04 0.845E-05
CGA:  11    -0.357659846233E+03   -0.61214E-05   -0.61760E-05 10962   0.918E-05 0.711E-05
  58 F= -.35765985E+03 E0= -.35765985E+03  d E =0.790095E-03  mag=    12.0000
       N       E                     dE             d eps       ncg     rms          ort
SDA:   1    -0.357628522985E+03    0.31317E-01    0.00000E+00 10962   0.771E-01 0.000E+00
CGA:   2    -0.357651991091E+03   -0.23468E-01   -0.23495E-01 10962   0.364E-01-0.416E-03
CGA:   3    -0.357657499613E+03   -0.55085E-02   -0.55086E-02 10962   0.116E-01-0.548E-05
CGA:   4    -0.357659210241E+03   -0.17106E-02   -0.17164E-02 10962   0.246E-02 0.629E-04
CGA:   5    -0.357659605849E+03   -0.39561E-03   -0.39720E-03 10962   0.740E-03 0.218E-04
CGA:   6    -0.357659743227E+03   -0.13738E-03   -0.13712E-03 10962   0.241E-03-0.585E-05
CGA:   7    -0.357659797261E+03   -0.54034E-04   -0.54032E-04 10962   0.102E-03-0.194E-04
CGA:   8    -0.357659822604E+03   -0.25343E-04   -0.26543E-04 10962   0.623E-04-0.213E-04
CGA:   9    -0.357659836405E+03   -0.13801E-04   -0.14900E-04 10962   0.341E-04-0.150E-04
CGA:  10    -0.357659842970E+03   -0.65650E-05   -0.66524E-05 10962   0.121E-04-0.355E-05
  59 F= -.35765984E+03 E0= -.35765984E+03  d E =0.326326E-05  mag=    12.0000
