       N       E                     dE             d eps       ncg     rms          ort
DAV:   1     0.266335150595E+04    0.26634E+04   -0.14754E+05  6336   0.155E+03
DAV:   2    -0.224861109777E+03   -0.28882E+04   -0.27751E+04  6336   0.433E+02
DAV:   3    -0.505034494269E+03   -0.28017E+03   -0.27411E+03  6336   0.149E+02
DAV:   4    -0.519698123323E+03   -0.14664E+02   -0.14433E+02  6336   0.364E+01
DAV:   5    -0.520824799714E+03   -0.11267E+01   -0.11193E+01  6336   0.672E+00
SDA:   6    -0.348263479068E+03    0.17256E+03   -0.11193E+01  6336   0.582E+03 0.000E+00
CGA:   7    -0.400958466577E+03   -0.52695E+02   -0.69844E+02  6336   0.137E+03 0.316E+02
CGA:   8    -0.403800490109E+03   -0.28420E+01   -0.75475E+01  6336   0.300E+03-0.263E+03
CGA:   9    -0.400362813700E+03    0.34377E+01   -0.17379E+02  6336   0.177E+03-0.748E+02
CGA:  10    -0.402278631823E+03   -0.19158E+01   -0.51433E+01  6336   0.437E+03 0.133E+03
CGA:  11    -0.411326809243E+03   -0.90482E+01   -0.21728E+02  6336   0.390E+03-0.526E+02
CGA:  12    -0.399812169394E+03    0.11515E+02   -0.24642E+02  6336   0.101E+03-0.361E+02
CGA:  13    -0.404986221428E+03   -0.51741E+01   -0.20291E+01  6336   0.255E+03 0.274E+03
CGA:  14    -0.405611049029E+03   -0.62483E+00   -0.10999E+02  6336   0.708E+02-0.405E+02
CGA:  15    -0.408198439892E+03   -0.25874E+01   -0.84106E+00  6336   0.215E+03 0.219E+03
CGA:  16    -0.410352683162E+03   -0.21542E+01   -0.10086E+02  6336   0.405E+03-0.211E+03
CGA:  17    -0.411567209088E+03   -0.12145E+01   -0.25482E+02  6336   0.308E+03-0.300E+03
CGA:  18    -0.411860758264E+03   -0.29355E+00   -0.18032E+02  6336   0.440E+03 0.231E+03
CGA:  19    -0.413144391420E+03   -0.12836E+01   -0.26882E+02  6336   0.395E+03-0.269E+03
CGA:  20    -0.406873936376E+03    0.62705E+01   -0.22511E+02  6336   0.227E+03-0.538E+02
CGA:  21    -0.413619015805E+03   -0.67451E+01   -0.11659E+02  6336   0.830E+02 0.160E+02
CGA:  22    -0.415366553222E+03   -0.17475E+01   -0.40348E+01  6336   0.507E+03 0.259E+03
CGA:  23    -0.406548418756E+03    0.88181E+01   -0.26729E+02  6336   0.965E+02-0.415E+02
CGA:  24    -0.414679306671E+03   -0.81309E+01   -0.42936E+01  6336   0.126E+03-0.181E+03
CGA:  25    -0.418751382869E+03   -0.40721E+01   -0.49331E+01  6336   0.311E+03-0.324E+03
CGA:  26    -0.411525955603E+03    0.72254E+01   -0.14360E+02  6336   0.202E+03-0.994E+02
CGA:  27    -0.408777445082E+03    0.27485E+01   -0.57618E+01  6336   0.118E+03-0.562E+02
CGA:  28    -0.410607826742E+03   -0.18304E+01   -0.38117E+01  6336   0.988E+02-0.607E+02
CGA:  29    -0.414953734094E+03   -0.43459E+01   -0.33965E+01  6336   0.762E+02-0.113E+03
CGA:  30    -0.413140880187E+03    0.18129E+01   -0.23265E+01  6336   0.260E+03-0.242E+03
CGA:  31    -0.408933157610E+03    0.42077E+01   -0.99034E+01  6336   0.169E+03-0.101E+03
CGA:  32    -0.413973303769E+03   -0.50401E+01   -0.48737E+01  6336   0.201E+03-0.176E+03
CGA:  33    -0.413092711164E+03    0.88059E+00   -0.67591E+01  6336   0.180E+03-0.195E+03
CGA:  34    -0.411807089539E+03    0.12856E+01   -0.64616E+01  6336   0.792E+02-0.739E+02
CGA:  35    -0.422817940464E+03   -0.11011E+02   -0.11633E+01  6336   0.545E+01-0.337E+02
CGA:  36    -0.422855174263E+03   -0.37234E-01   -0.10620E+00  6336   0.138E+02-0.115E+01
CGA:  37    -0.423124103128E+03   -0.26893E+00   -0.50069E+00  6336   0.209E+01 0.823E+00
CGA:  38    -0.423219829676E+03   -0.95727E-01   -0.18891E+00  6336   0.803E+01-0.635E+01
CGA:  39    -0.423355210538E+03   -0.13538E+00   -0.31063E+00  6336   0.133E+01-0.134E+01
CGA:  40    -0.423405763436E+03   -0.50553E-01   -0.38883E-01  6336   0.352E+00 0.299E+00
CGA:  41    -0.423420276895E+03   -0.14513E-01   -0.13419E-01  6336   0.307E+00 0.323E-01
CGA:  42    -0.423485757670E+03   -0.65481E-01   -0.53208E-01  6336   0.807E+00 0.124E+00
CGA:  43    -0.423575815521E+03   -0.90058E-01   -0.88624E-01  6336   0.718E-01 0.176E+00
CGA:  44    -0.423585652515E+03   -0.98370E-02   -0.10109E-01  6336   0.679E-01-0.229E-02
CGA:  45    -0.423598300950E+03   -0.12648E-01   -0.20657E-01  6336   0.136E+00-0.279E-01
CGA:  46    -0.423604764629E+03   -0.64637E-02   -0.63458E-02  6336   0.572E-01-0.211E-01
CGA:  47    -0.423612033194E+03   -0.72686E-02   -0.93486E-02  6336   0.410E-01-0.178E-01
CGA:  48    -0.423616386519E+03   -0.43533E-02   -0.58673E-02  6336   0.237E-01-0.129E-01
CGA:  49    -0.423619048206E+03   -0.26617E-02   -0.47016E-02  6336   0.253E-01-0.100E-01
CGA:  50    -0.423621313826E+03   -0.22656E-02   -0.49433E-02  6336   0.246E-01-0.111E-01
CGA:  51    -0.423623131958E+03   -0.18181E-02   -0.18015E-02  6336   0.133E-01 0.164E-02
CGA:  52    -0.423624635059E+03   -0.15031E-02   -0.15477E-02  6336   0.688E-02 0.417E-02
CGA:  53    -0.423625637592E+03   -0.10025E-02   -0.10269E-02  6336   0.478E-02 0.377E-02
CGA:  54    -0.423627021304E+03   -0.13837E-02   -0.12573E-02  6336   0.315E-02 0.905E-03
CGA:  55    -0.423627459768E+03   -0.43846E-03   -0.45462E-03  6336   0.194E-02 0.288E-02
CGA:  56    -0.423627594523E+03   -0.13476E-03   -0.18086E-03  6336   0.122E-02 0.140E-02
CGA:  57    -0.423627719914E+03   -0.12539E-03   -0.13829E-03  6336   0.101E-02 0.109E-02
CGA:  58    -0.423627834356E+03   -0.11444E-03   -0.12005E-03  6336   0.875E-03 0.935E-03
CGA:  59    -0.423627918459E+03   -0.84104E-04   -0.95870E-04  6336   0.766E-03 0.815E-03
CGA:  60    -0.423627981158E+03   -0.62699E-04   -0.78041E-04  6336   0.677E-03 0.718E-03
CGA:  61    -0.423628027964E+03   -0.46806E-04   -0.64246E-04  6336   0.604E-03 0.638E-03
CGA:  62    -0.423628062852E+03   -0.34888E-04   -0.53422E-04  6336   0.543E-03 0.572E-03
CGA:  63    -0.423628088788E+03   -0.25936E-04   -0.44856E-04  6336   0.492E-03 0.517E-03
CGA:  64    -0.423628107906E+03   -0.19118E-04   -0.37965E-04  6336   0.448E-03 0.470E-03
CGA:  65    -0.423628121834E+03   -0.13928E-04   -0.32384E-04  6336   0.410E-03 0.429E-03
CGA:  66    -0.423628131780E+03   -0.99467E-05   -0.27813E-04  6336   0.378E-03 0.394E-03
CGA:  67    -0.423628138704E+03   -0.69233E-05   -0.24074E-04  6336   0.349E-03 0.364E-03
CGA:  68    -0.423628143309E+03   -0.46056E-05   -0.20977E-04  6336   0.325E-03 0.338E-03
CGA:  69    -0.423628146139E+03   -0.28300E-05   -0.18397E-04  6336   0.303E-03 0.315E-03
CGA:  70    -0.423628147609E+03   -0.14701E-05   -0.16234E-04  6336   0.285E-03 0.295E-03
CGA:  71    -0.423628148067E+03   -0.45783E-06   -0.14430E-04  6336   0.269E-03 0.277E-03
CGA:  72    -0.423628147804E+03    0.26320E-06   -0.12947E-04  6336   0.255E-03 0.262E-03
CGA:  73    -0.423628147034E+03    0.77012E-06   -0.11713E-04  6336   0.243E-03 0.249E-03
CGA:  74    -0.423628145891E+03    0.11433E-05   -0.10661E-04  6336   0.232E-03 0.238E-03
   1 F= -.42362815E+03 E0= -.42362810E+03  d E =-.423628E+03  mag=    10.0000
       N       E                     dE             d eps       ncg     rms          ort
SDA:   1    -0.423627319932E+03    0.82710E-03    0.00000E+00  6336   0.167E-02 0.000E+00
CGA:   2    -0.423627717524E+03   -0.39759E-03   -0.33746E-03  6336   0.674E-03 0.528E-03
CGA:   3    -0.423627865524E+03   -0.14800E-03   -0.12641E-03  6336   0.254E-03 0.451E-03
CGA:   4    -0.423627925545E+03   -0.60021E-04    0.55729E-04  6336   0.174E-03 0.202E-03
CGA:   5    -0.423628057630E+03   -0.13209E-03   -0.20821E-04  6336   0.107E-03 0.350E-04
CGA:   6    -0.423628059571E+03   -0.19404E-05   -0.11396E-04  6336   0.733E-04 0.107E-03
   2 F= -.42362806E+03 E0= -.42362797E+03  d E =0.863201E-04  mag=    10.0000
       N       E                     dE             d eps       ncg     rms          ort
SDA:   1    -0.423627874943E+03    0.18269E-03    0.00000E+00  6336   0.339E-03 0.000E+00
CGA:   2    -0.423627957045E+03   -0.82102E-04   -0.17117E-03  6336   0.934E-03-0.261E-03
CGA:   3    -0.423627988389E+03   -0.31345E-04   -0.66687E-04  6336   0.155E-03 0.326E-03
CGA:   4    -0.423627995123E+03   -0.67339E-05   -0.15224E-04  6336   0.622E-04 0.817E-04
   3 F= -.42362800E+03 E0= -.42362790E+03  d E =0.644472E-04  mag=    10.0000
       N       E                     dE             d eps       ncg     rms          ort
SDA:   1    -0.423627862297E+03    0.12609E-03    0.00000E+00  6336   0.270E-03 0.000E+00
CGA:   2    -0.423628033816E+03   -0.17152E-03    0.27720E-04  6336   0.194E-03-0.821E-04
CGA:   3    -0.423627824668E+03    0.20915E-03   -0.11721E-03  6336   0.205E-02-0.383E-03
CGA:   4    -0.423628175511E+03   -0.35084E-03   -0.30322E-03  6336   0.615E-03-0.284E-03
CGA:   5    -0.423628157296E+03    0.18215E-04   -0.45192E-04  6336   0.229E-03 0.300E-03
CGA:   6    -0.423628133305E+03    0.23991E-04   -0.18873E-04  6336   0.938E-04 0.185E-03
CGA:   7    -0.423628139613E+03   -0.63076E-05   -0.14142E-04  6336   0.468E-04 0.590E-04
CGA:   8    -0.423628151505E+03   -0.11892E-04   -0.12296E-04  6336   0.237E-04 0.283E-04
CGA:   9    -0.423628148227E+03    0.32781E-05   -0.14224E-05  6336   0.207E-04 0.217E-04
   4 F= -.42362815E+03 E0= -.42362805E+03  d E =-.153104E-03  mag=    10.0000
       N       E                     dE             d eps       ncg     rms          ort
SDA:   1    -0.423628154206E+03   -0.27006E-05    0.00000E+00  6336   0.685E-04 0.000E+00
CGA:   2    -0.423627779541E+03    0.37466E-03   -0.20199E-03  6336   0.373E-02-0.352E-03
CGA:   3    -0.423628094875E+03   -0.31533E-03   -0.40879E-03  6336   0.345E-03 0.363E-03
CGA:   4    -0.423628222749E+03   -0.12787E-03   -0.10184E-03  6336   0.216E-03-0.142E-03
CGA:   5    -0.423628223773E+03   -0.10239E-05   -0.15362E-04  6336   0.107E-03 0.449E-04
CGA:   6    -0.423628222555E+03    0.12180E-05   -0.12969E-04  6336   0.401E-04 0.438E-04
CGA:   7    -0.423628236785E+03   -0.14230E-04   -0.12613E-04  6336   0.391E-04-0.867E-05
CGA:   8    -0.423628264195E+03   -0.27410E-04    0.52496E-04  6336   0.126E-03-0.236E-04
CGA:   9    -0.423628265116E+03   -0.92145E-06   -0.16449E-04  6336   0.366E-04 0.581E-04
CGA:  10    -0.423628280680E+03   -0.15564E-04   -0.14681E-04  6336   0.246E-04-0.802E-05
CGA:  11    -0.423628314342E+03   -0.33661E-04    0.28072E-05  6336   0.496E-04 0.470E-05
CGA:  12    -0.423628347229E+03   -0.32887E-04   -0.29417E-04  6336   0.598E-04 0.274E-04
CGA:  13    -0.423628376150E+03   -0.28921E-04   -0.34146E-04  6336   0.610E-04-0.287E-04
CGA:  14    -0.423628374228E+03    0.19221E-05   -0.39506E-05  6336   0.454E-04 0.215E-04
CGA:  15    -0.423628379287E+03   -0.50589E-05   -0.10274E-04  6336   0.214E-04 0.240E-04
   5 F= -.42362838E+03 E0= -.42362829E+03  d E =-.231060E-03  mag=    10.0000
