       N       E                     dE             d eps       ncg     rms          rms(c)
DAV:   1     0.220921313373E+04    0.22092E+04   -0.12339E+05 24120   0.144E+03
DAV:   2    -0.178550629510E+03   -0.23878E+04   -0.22587E+04 24568   0.394E+02
DAV:   3    -0.422626481456E+03   -0.24408E+03   -0.23822E+03 27608   0.140E+02
DAV:   4    -0.431987052699E+03   -0.93606E+01   -0.92578E+01 32920   0.303E+01
DAV:   5    -0.432482840067E+03   -0.49579E+00   -0.49501E+00 39992   0.521E+00    0.670E+00
DAV:   6    -0.355601934063E+03    0.76881E+02   -0.17118E+01 26536   0.133E+01    0.647E+00
DAV:   7    -0.352404563057E+03    0.31974E+01   -0.30452E+00 29544   0.793E+00    0.581E+00
DAV:   8    -0.352460437415E+03   -0.55874E-01   -0.30364E-01 34048   0.263E+00    0.404E+00
DAV:   9    -0.352450280932E+03    0.10156E-01   -0.11191E-01 34216   0.100E+00    0.244E+00
DAV:  10    -0.352450365822E+03   -0.84891E-04   -0.92529E-03 30600   0.358E-01    0.228E+00
DAV:  11    -0.352423206250E+03    0.27160E-01   -0.46778E-02 31704   0.582E-01    0.206E+00
DAV:  12    -0.352419673670E+03    0.35326E-02   -0.39010E-03 27848   0.227E-01    0.187E+00
DAV:  13    -0.352403357691E+03    0.16316E-01   -0.94266E-02 28552   0.583E-01    0.241E+00
DAV:  14    -0.352395069786E+03    0.82879E-02   -0.53259E-02 32264   0.495E-01    0.873E-01
DAV:  15    -0.352394750757E+03    0.31903E-03   -0.25474E-02 29408   0.386E-01    0.111E+00
DAV:  16    -0.352393684540E+03    0.10662E-02   -0.15160E-02 31912   0.261E-01    0.820E-01
DAV:  17    -0.352392569770E+03    0.11148E-02   -0.66920E-03 30976   0.174E-01    0.535E-01
DAV:  18    -0.352392418182E+03    0.15159E-03   -0.30735E-03 31248   0.107E-01    0.310E-01
DAV:  19    -0.352392489777E+03   -0.71595E-04   -0.30604E-04 27576   0.557E-02    0.236E-01
DAV:  20    -0.352392276124E+03    0.21365E-03   -0.36923E-04 28672   0.519E-02    0.180E-01
DAV:  21    -0.352392263211E+03    0.12914E-04   -0.50796E-05 18976   0.223E-02    0.155E-01
DAV:  22    -0.352392239394E+03    0.23817E-04   -0.29508E-05 16504   0.158E-02    0.114E-01
DAV:  23    -0.352392228210E+03    0.11184E-04   -0.29236E-05 16312   0.160E-02    0.975E-02
DAV:  24    -0.352392216475E+03    0.11735E-04   -0.10913E-05 15656   0.132E-02    0.742E-02
DAV:  25    -0.352392228479E+03   -0.12004E-04   -0.84468E-06 15064   0.105E-02    0.548E-02
DAV:  26    -0.352392235865E+03   -0.73861E-05   -0.21686E-05 18616   0.174E-02
   1 F= -.35239224E+03 E0= -.35238370E+03  d E =-.352392E+03  mag=    10.0000
       N       E                     dE             d eps       ncg     rms          rms(c)
DAV:   1    -0.352389231172E+03    0.29973E-02   -0.27659E-01 25888   0.164E+00    0.685E-01
DAV:   2    -0.352390026126E+03   -0.79495E-03   -0.15428E-02 29000   0.395E-01    0.325E-01
DAV:   3    -0.352390311587E+03   -0.28546E-03   -0.10710E-02 33304   0.270E-01    0.103E+00
DAV:   4    -0.352390169282E+03    0.14230E-03   -0.17504E-03 32600   0.212E-01    0.573E-01
DAV:   5    -0.352390182129E+03   -0.12847E-04   -0.91078E-03 33112   0.147E-01    0.496E-01
DAV:   6    -0.352390147103E+03    0.35026E-04   -0.44237E-03 30264   0.135E-01    0.338E-01
DAV:   7    -0.352390030011E+03    0.11709E-03   -0.94792E-04 26520   0.683E-02    0.210E-01
DAV:   8    -0.352390093247E+03   -0.63236E-04   -0.96933E-04 26840   0.567E-02    0.101E-01
DAV:   9    -0.352390150100E+03   -0.56853E-04   -0.98753E-05 23528   0.376E-02    0.773E-02
DAV:  10    -0.352390179316E+03   -0.29216E-04   -0.15918E-04 20384   0.226E-02    0.805E-02
DAV:  11    -0.352390205465E+03   -0.26149E-04   -0.96874E-05 18576   0.217E-02    0.706E-02
DAV:  12    -0.352390220438E+03   -0.14973E-04   -0.54204E-05 17240   0.159E-02    0.485E-02
DAV:  13    -0.352390253723E+03   -0.33285E-04   -0.11180E-05 16080   0.115E-02    0.462E-02
DAV:  14    -0.352390238891E+03    0.14832E-04   -0.41458E-06 14488   0.976E-03    0.456E-02
DAV:  15    -0.352390229336E+03    0.95555E-05   -0.59211E-06 13248   0.606E-03
   2 F= -.35239023E+03 E0= -.35238164E+03  d E =0.200653E-02  mag=    10.0000
       N       E                     dE             d eps       ncg     rms          rms(c)
DAV:   1    -0.352391885980E+03   -0.16471E-02   -0.17314E-01 25112   0.130E+00    0.546E-01
DAV:   2    -0.352392733549E+03   -0.84757E-03   -0.95954E-03 28952   0.313E-01    0.251E-01
DAV:   3    -0.352393263574E+03   -0.53003E-03   -0.66867E-03 33384   0.211E-01    0.822E-01
DAV:   4    -0.352392558497E+03    0.70508E-03   -0.12461E-03 32288   0.167E-01    0.427E-01
DAV:   5    -0.352392356630E+03    0.20187E-03   -0.27390E-03 33448   0.938E-02    0.176E-01
DAV:   6    -0.352392597630E+03   -0.24100E-03   -0.90449E-04 29008   0.800E-02    0.198E-01
DAV:   7    -0.352392709538E+03   -0.11191E-03   -0.15060E-03 27496   0.693E-02    0.319E-01
DAV:   8    -0.352392554522E+03    0.15502E-03   -0.12439E-03 26096   0.660E-02    0.840E-02
DAV:   9    -0.352392578859E+03   -0.24337E-04   -0.16587E-04 22736   0.336E-02    0.930E-02
DAV:  10    -0.352392564344E+03    0.14515E-04   -0.14144E-04 18296   0.223E-02    0.669E-02
DAV:  11    -0.352392573797E+03   -0.94537E-05   -0.64428E-05 16344   0.165E-02
   3 F= -.35239257E+03 E0= -.35238397E+03  d E =-.337933E-03  mag=    10.0000
       N       E                     dE             d eps       ncg     rms          rms(c)
DAV:   1    -0.352392587607E+03   -0.23263E-04   -0.36351E-05 19448   0.196E-02    0.245E-02
DAV:   2    -0.352392605232E+03   -0.17626E-04   -0.72402E-06 14712   0.969E-03    0.274E-02
DAV:   3    -0.352392605191E+03    0.41175E-07   -0.35166E-06 14392   0.674E-03    0.252E-02
DAV:   4    -0.352392605325E+03   -0.13342E-06   -0.46763E-07 13248   0.284E-03    0.250E-02
DAV:   5    -0.352392605771E+03   -0.44588E-06   -0.13427E-07 13248   0.152E-03    0.250E-02
DAV:   6    -0.352392601086E+03    0.46847E-05   -0.22851E-07 13240   0.209E-03
   4 F= -.35239260E+03 E0= -.35238400E+03  d E =-.365221E-03  mag=    10.0000
       N       E                     dE             d eps       ncg     rms          rms(c)
DAV:   1    -0.352392398118E+03    0.20765E-03   -0.36078E-02 24664   0.692E-01    0.175E-01
DAV:   2    -0.352392572181E+03   -0.17406E-03   -0.21432E-03 27176   0.145E-01    0.809E-02
DAV:   3    -0.352392590395E+03   -0.18214E-04   -0.32664E-04 31960   0.562E-02    0.152E-01
DAV:   4    -0.352392591863E+03   -0.14675E-05   -0.70524E-05 23656   0.429E-02    0.767E-02
DAV:   5    -0.352392671568E+03   -0.79705E-04   -0.17592E-04 22096   0.269E-02    0.864E-02
DAV:   6    -0.352392657932E+03    0.13636E-04   -0.79668E-05 21120   0.288E-02    0.482E-02
DAV:   7    -0.352392661814E+03   -0.38818E-05   -0.70601E-05 19344   0.177E-02
   5 F= -.35239266E+03 E0= -.35238405E+03  d E =-.607280E-04  mag=    10.0000
       N       E                     dE             d eps       ncg     rms          rms(c)
DAV:   1    -0.352392720888E+03   -0.62956E-04   -0.25177E-03 24984   0.182E-01    0.683E-02
DAV:   2    -0.352392874678E+03   -0.15379E-03   -0.40236E-04 32552   0.685E-02    0.148E-01
DAV:   3    -0.352392782739E+03    0.91938E-04   -0.82776E-05 22392   0.421E-02    0.622E-02
DAV:   4    -0.352392764456E+03    0.18283E-04   -0.61946E-05 19856   0.195E-02    0.523E-02
DAV:   5    -0.352392799220E+03   -0.34764E-04   -0.20088E-05 16224   0.167E-02    0.436E-02
DAV:   6    -0.352392825457E+03   -0.26237E-04   -0.10158E-05 14888   0.114E-02    0.455E-02
DAV:   7    -0.352392829559E+03   -0.41019E-05   -0.69448E-06 14040   0.647E-03
   6 F= -.35239283E+03 E0= -.35238419E+03  d E =-.228473E-03  mag=    10.0000
       N       E                     dE             d eps       ncg     rms          rms(c)
DAV:   1    -0.352392837535E+03   -0.12078E-04   -0.15427E-03 25008   0.143E-01    0.549E-02
DAV:   2    -0.352392888431E+03   -0.50896E-04   -0.10275E-04 27280   0.328E-02    0.466E-02
DAV:   3    -0.352392879516E+03    0.89155E-05   -0.21620E-05 20808   0.181E-02    0.527E-02
DAV:   4    -0.352392908973E+03   -0.29458E-04   -0.70885E-06 15992   0.144E-02    0.492E-02
DAV:   5    -0.352392933976E+03   -0.25002E-04   -0.22954E-05 15512   0.927E-03    0.466E-02
DAV:   6    -0.352392949310E+03   -0.15334E-04   -0.57673E-06 14400   0.822E-03    0.421E-02
DAV:   7    -0.352392951824E+03   -0.25143E-05   -0.15581E-06 13752   0.425E-03
   7 F= -.35239295E+03 E0= -.35238430E+03  d E =-.350738E-03  mag=    10.0000
       N       E                     dE             d eps       ncg     rms          rms(c)
DAV:   1    -0.352392891845E+03    0.57465E-04   -0.16165E-02 24784   0.530E-01    0.795E-02
DAV:   2    -0.352393060853E+03   -0.16901E-03   -0.13697E-03 26448   0.105E-01    0.790E-02
DAV:   3    -0.352393057846E+03    0.30077E-05   -0.93619E-05 25272   0.386E-02    0.679E-02
DAV:   4    -0.352393083775E+03   -0.25930E-04   -0.18580E-05 20416   0.224E-02    0.591E-02
DAV:   5    -0.352393129022E+03   -0.45247E-04   -0.22234E-05 17064   0.151E-02    0.524E-02
DAV:   6    -0.352393152452E+03   -0.23429E-04   -0.24317E-05 16616   0.132E-02    0.574E-02
DAV:   7    -0.352393148790E+03    0.36621E-05   -0.59897E-06 14648   0.785E-03
   8 F= -.35239315E+03 E0= -.35238448E+03  d E =-.196966E-03  mag=    10.0000
       N       E                     dE             d eps       ncg     rms          rms(c)
DAV:   1    -0.352392592017E+03    0.56043E-03   -0.82481E-02 24512   0.120E+00    0.165E-01
DAV:   2    -0.352393281577E+03   -0.68956E-03   -0.69433E-03 26896   0.239E-01    0.164E-01
DAV:   3    -0.352393274196E+03    0.73811E-05   -0.48232E-04 32568   0.905E-02    0.130E-01
DAV:   4    -0.352393311181E+03   -0.36985E-04   -0.10110E-04 23144   0.474E-02    0.983E-02
DAV:   5    -0.352393416675E+03   -0.10549E-03   -0.10155E-04 23680   0.343E-02    0.844E-02
DAV:   6    -0.352393450866E+03   -0.34191E-04   -0.16605E-04 21280   0.324E-02    0.109E-01
DAV:   7    -0.352393440359E+03    0.10507E-04   -0.74967E-05 18600   0.207E-02    0.744E-02
DAV:   8    -0.352393578780E+03   -0.13842E-03   -0.75751E-05 19320   0.270E-02    0.819E-02
DAV:   9    -0.352393604006E+03   -0.25226E-04   -0.37169E-05 18224   0.160E-02    0.699E-02
DAV:  10    -0.352393625227E+03   -0.21221E-04   -0.11172E-05 14648   0.103E-02    0.679E-02
DAV:  11    -0.352393622962E+03    0.22654E-05   -0.27320E-06 14544   0.653E-03
   9 F= -.35239362E+03 E0= -.35238491E+03  d E =-.671137E-03  mag=    10.0000
       N       E                     dE             d eps       ncg     rms          rms(c)
DAV:   1    -0.352393628798E+03   -0.35709E-05   -0.30712E-03 25304   0.226E-01    0.733E-02
DAV:   2    -0.352393725605E+03   -0.96808E-04   -0.26594E-04 27736   0.511E-02    0.795E-02
DAV:   3    -0.352393750707E+03   -0.25102E-04   -0.22916E-05 19496   0.189E-02    0.735E-02
DAV:   4    -0.352393782906E+03   -0.32199E-04   -0.61268E-06 14256   0.116E-02    0.714E-02
DAV:   5    -0.352393794308E+03   -0.11402E-04   -0.34477E-06 13944   0.653E-03    0.712E-02
DAV:   6    -0.352393787196E+03    0.71121E-05   -0.78642E-07 13352   0.430E-03
  10 F= -.35239379E+03 E0= -.35238506E+03  d E =-.164235E-03  mag=    10.0000
       N       E                     dE             d eps       ncg     rms          rms(c)
DAV:   1    -0.352393675216E+03    0.11909E-03   -0.27651E-02 24664   0.679E-01    0.107E-01
DAV:   2    -0.352393984217E+03   -0.30900E-03   -0.20356E-03 25440   0.131E-01    0.108E-01
DAV:   3    -0.352393986087E+03   -0.18702E-05   -0.12524E-04 26120   0.428E-02    0.958E-02
DAV:   4    -0.352394035140E+03   -0.49053E-04   -0.30905E-05 21584   0.266E-02    0.903E-02
DAV:   5    -0.352394110944E+03   -0.75804E-04   -0.28935E-05 18840   0.176E-02    0.849E-02
DAV:   6    -0.352394171740E+03   -0.60796E-04   -0.21283E-05 16584   0.152E-02    0.848E-02
DAV:   7    -0.352394172682E+03   -0.94215E-06   -0.10124E-05 14712   0.970E-03
  11 F= -.35239417E+03 E0= -.35238541E+03  d E =-.549720E-03  mag=    10.0000
       N       E                     dE             d eps       ncg     rms          rms(c)
DAV:   1    -0.352393546053E+03    0.62569E-03   -0.11060E-01 24648   0.136E+00    0.185E-01
DAV:   2    -0.352394425138E+03   -0.87909E-03   -0.80985E-03 26296   0.265E-01    0.186E-01
DAV:   3    -0.352394395215E+03    0.29923E-04   -0.38989E-04 32680   0.941E-02    0.129E-01
DAV:   4    -0.352394577992E+03   -0.18278E-03   -0.25369E-04 23456   0.447E-02    0.163E-01
DAV:   5    -0.352394637867E+03   -0.59875E-04   -0.15653E-04 23896   0.439E-02    0.110E-01
DAV:   6    -0.352394811716E+03   -0.17385E-03   -0.14645E-04 22232   0.369E-02    0.130E-01
DAV:   7    -0.352394798983E+03    0.12732E-04   -0.29492E-05 19384   0.191E-02    0.116E-01
DAV:   8    -0.352394939119E+03   -0.14014E-03   -0.63676E-05 19984   0.220E-02    0.109E-01
DAV:   9    -0.352394990663E+03   -0.51545E-04   -0.19550E-05 17840   0.133E-02    0.108E-01
DAV:  10    -0.352394896624E+03    0.94039E-04   -0.20447E-05 17184   0.176E-02    0.111E-01
DAV:  11    -0.352394416049E+03    0.48057E-03   -0.93072E-04 28432   0.882E-02    0.222E-01
DAV:  12    -0.352393123937E+03    0.12921E-02   -0.58158E-03 30944   0.226E-01    0.550E-01
DAV:  13    -0.352392760537E+03    0.36340E-03   -0.21374E-03 30648   0.145E-01    0.419E-01
DAV:  14    -0.352392959370E+03   -0.19883E-03   -0.37888E-04 25480   0.670E-02    0.343E-01
DAV:  15    -0.352393094347E+03   -0.13498E-03   -0.39752E-05 22200   0.264E-02    0.334E-01
DAV:  16    -0.352393182745E+03   -0.88398E-04   -0.43868E-05 18896   0.132E-02    0.382E-01
DAV:  17    -0.352393050977E+03    0.13177E-03   -0.84280E-05 21072   0.302E-02    0.418E-01
DAV:  18    -0.352393465295E+03   -0.41432E-03   -0.19887E-04 22096   0.453E-02    0.515E-01
DAV:  19    -0.352392768473E+03    0.69682E-03   -0.96938E-04 28288   0.120E-01    0.585E-01
DAV:  20    -0.352392186235E+03    0.58224E-03   -0.10422E-03 27752   0.602E-02    0.336E-01
DAV:  21    -0.352391076970E+03    0.11093E-02   -0.31447E-03 30792   0.194E-01    0.553E-01
DAV:  22    -0.352391242218E+03   -0.16525E-03   -0.16238E-02 27464   0.189E-01    0.609E-01
DAV:  23    -0.352390613615E+03    0.62860E-03   -0.13915E-02 28664   0.264E-01    0.482E-01
DAV:  24    -0.352391191685E+03   -0.57807E-03   -0.25786E-03 24528   0.118E-01    0.872E-02
DAV:  25    -0.352391227999E+03   -0.36314E-04   -0.40353E-04 24952   0.519E-02    0.216E-01
DAV:  26    -0.352391177396E+03    0.50603E-04   -0.96108E-05 22360   0.234E-02    0.148E-01
DAV:  27    -0.352391090233E+03    0.87163E-04   -0.58166E-05 20296   0.218E-02    0.111E-01
DAV:  28    -0.352390840526E+03    0.24971E-03   -0.65364E-04 28664   0.786E-02    0.541E-02
DAV:  29    -0.352390876220E+03   -0.35694E-04   -0.18774E-03 30456   0.117E-01    0.278E-01
DAV:  30    -0.352391037525E+03   -0.16131E-03   -0.57142E-04 22760   0.726E-02    0.135E-01
DAV:  31    -0.352391067791E+03   -0.30266E-04   -0.28808E-04 25968   0.551E-02    0.211E-01
DAV:  32    -0.352390754257E+03    0.31353E-03   -0.12257E-03 25136   0.834E-02    0.576E-02
DAV:  33    -0.352390795575E+03   -0.41318E-04   -0.12355E-04 21144   0.421E-02    0.163E-02
DAV:  34    -0.352390657864E+03    0.13771E-03   -0.29532E-04 19800   0.265E-02    0.149E-01
DAV:  35    -0.352390675981E+03   -0.18117E-04   -0.49874E-05 20712   0.289E-02    0.126E-01
DAV:  36    -0.352390800090E+03   -0.12411E-03   -0.28778E-04 20832   0.351E-02    0.179E-02
DAV:  37    -0.352390809011E+03   -0.89217E-05   -0.40518E-05 20344   0.223E-02
  12 F= -.35239081E+03 E0= -.35238246E+03  d E =0.281395E-02  mag=    10.0000
       N       E                     dE             d eps       ncg     rms          rms(c)
DAV:   1    -0.352390807505E+03   -0.74154E-05   -0.78714E-02 24432   0.115E+00    0.128E-01
DAV:   2    -0.352391332981E+03   -0.52548E-03   -0.57677E-03 25224   0.216E-01    0.946E-02
DAV:   3    -0.352391436066E+03   -0.10309E-03   -0.21448E-04 32512   0.663E-02    0.639E-02
DAV:   4    -0.352391350129E+03    0.85937E-04   -0.12440E-04 22208   0.329E-02    0.968E-02
DAV:   5    -0.352391346172E+03    0.39571E-05   -0.70841E-05 21320   0.315E-02    0.335E-02
DAV:   6    -0.352391375959E+03   -0.29787E-04   -0.30160E-05 18288   0.205E-02    0.475E-02
DAV:   7    -0.352391385672E+03   -0.97123E-05   -0.26633E-05 16944   0.161E-02
  13 F= -.35239139E+03 E0= -.35238306E+03  d E =0.223729E-02  mag=    10.0000
       N       E                     dE             d eps       ncg     rms          rms(c)
DAV:   1    -0.352391442273E+03   -0.66314E-04   -0.18218E-03 24240   0.174E-01    0.436E-02
DAV:   2    -0.352391426206E+03    0.16068E-04   -0.30880E-04 30424   0.596E-02    0.118E-01
DAV:   3    -0.352391466483E+03   -0.40278E-04   -0.44248E-05 20848   0.363E-02    0.599E-02
DAV:   4    -0.352391472968E+03   -0.64842E-05   -0.17536E-05 15032   0.128E-02    0.314E-02
DAV:   5    -0.352391482008E+03   -0.90403E-05   -0.11251E-05 14208   0.826E-03    0.246E-02
DAV:   6    -0.352391477455E+03    0.45530E-05   -0.65195E-06 14080   0.724E-03
  14 F= -.35239148E+03 E0= -.35238317E+03  d E =0.214551E-02  mag=    10.0000
       N       E                     dE             d eps       ncg     rms          rms(c)
DAV:   1    -0.352391491722E+03   -0.97138E-05   -0.59105E-05 22688   0.310E-02    0.224E-02
DAV:   2    -0.352391512329E+03   -0.20607E-04   -0.81579E-06 15424   0.963E-03    0.244E-02
DAV:   3    -0.352391511685E+03    0.64387E-06   -0.15674E-06 13720   0.504E-03    0.243E-02
DAV:   4    -0.352391511463E+03    0.22229E-06   -0.22684E-07 12776   0.200E-03    0.244E-02
DAV:   5    -0.352391512931E+03   -0.14678E-05   -0.23189E-07 12760   0.196E-03    0.259E-02
DAV:   6    -0.352391509563E+03    0.33674E-05   -0.63519E-07 12688   0.255E-03
  15 F= -.35239151E+03 E0= -.35238320E+03  d E =0.211340E-02  mag=    10.0000
       N       E                     dE             d eps       ncg     rms          rms(c)
DAV:   1    -0.352391511712E+03    0.12188E-05   -0.18981E-06 12648   0.633E-03    0.295E-02
DAV:   2    -0.352391548812E+03   -0.37100E-04   -0.54880E-05 20312   0.257E-02    0.681E-02
DAV:   3    -0.352391524963E+03    0.23849E-04   -0.12735E-05 17688   0.195E-02    0.348E-02
DAV:   4    -0.352391522983E+03    0.19796E-05   -0.27618E-06 12584   0.527E-03    0.259E-02
DAV:   5    -0.352391522099E+03    0.88407E-06   -0.44408E-07 12336   0.288E-03    0.267E-02
DAV:   6    -0.352391518777E+03    0.33220E-05   -0.60404E-06 12240   0.404E-03
  16 F= -.35239152E+03 E0= -.35238322E+03  d E =0.210418E-02  mag=    10.0000
       N       E                     dE             d eps       ncg     rms          rms(c)
DAV:   1    -0.352391511440E+03    0.10659E-04   -0.64813E-06 12216   0.544E-03    0.266E-02
DAV:   2    -0.352391525131E+03   -0.13691E-04   -0.40345E-05 17120   0.183E-02    0.673E-02
DAV:   3    -0.352391537336E+03   -0.12204E-04   -0.90385E-06 15760   0.148E-02    0.351E-02
DAV:   4    -0.352391536666E+03    0.67011E-06   -0.26632E-06 12168   0.385E-03    0.262E-02
DAV:   5    -0.352391537274E+03   -0.60878E-06   -0.39799E-07 12144   0.217E-03    0.266E-02
DAV:   6    -0.352391534824E+03    0.24502E-05   -0.19640E-07 12120   0.192E-03
  17 F= -.35239153E+03 E0= -.35238324E+03  d E =0.208814E-02  mag=    10.0000
       N       E                     dE             d eps       ncg     rms          rms(c)
DAV:   1    -0.352391520516E+03    0.16758E-04   -0.66520E-06 12272   0.767E-03    0.407E-02
DAV:   2    -0.352391585742E+03   -0.65225E-04   -0.17813E-04 21568   0.422E-02    0.137E-01
DAV:   3    -0.352391541232E+03    0.44510E-04   -0.43477E-05 20304   0.340E-02    0.532E-02
DAV:   4    -0.352391539050E+03    0.21822E-05   -0.15461E-05 13600   0.738E-03    0.251E-02
DAV:   5    -0.352391541749E+03   -0.26987E-05   -0.14097E-06 13208   0.453E-03    0.248E-02
DAV:   6    -0.352391535095E+03    0.66540E-05   -0.11056E-06 12136   0.459E-03
  18 F= -.35239154E+03 E0= -.35238324E+03  d E =0.208787E-02  mag=    10.0000
       N       E                     dE             d eps       ncg     rms          rms(c)
DAV:   1    -0.352391496018E+03    0.45730E-04   -0.30383E-05 16768   0.187E-02    0.401E-02
DAV:   2    -0.352391505953E+03   -0.99346E-05   -0.15893E-04 21016   0.446E-02    0.129E-01
DAV:   3    -0.352391535243E+03   -0.29290E-04   -0.36718E-05 20072   0.338E-02    0.563E-02
DAV:   4    -0.352391525091E+03    0.10153E-04   -0.14795E-05 13136   0.899E-03    0.256E-02
DAV:   5    -0.352391525376E+03   -0.28516E-06   -0.16855E-06 12976   0.499E-03    0.263E-02
DAV:   6    -0.352391525774E+03   -0.39806E-06   -0.38495E-07 11880   0.230E-03
  19 F= -.35239153E+03 E0= -.35238323E+03  d E =0.209719E-02  mag=    10.0000
       N       E                     dE             d eps       ncg     rms          rms(c)
DAV:   1    -0.352391529251E+03   -0.38756E-05   -0.20581E-07 11880   0.177E-03    0.257E-02
DAV:   2    -0.352391552563E+03   -0.23312E-04   -0.18613E-05 16312   0.154E-02    0.452E-02
DAV:   3    -0.352391543315E+03    0.92474E-05   -0.42921E-06 14416   0.115E-02    0.275E-02
DAV:   4    -0.352391543997E+03   -0.68174E-06   -0.85609E-07 11880   0.310E-03    0.263E-02
DAV:   5    -0.352391541373E+03    0.26239E-05   -0.29556E-07 11880   0.187E-03    0.279E-02
DAV:   6    -0.352391517397E+03    0.23977E-04   -0.21872E-05 14776   0.143E-02    0.539E-02
DAV:   7    -0.352391444134E+03    0.73263E-04   -0.19168E-04 23968   0.456E-02    0.336E-02
DAV:   8    -0.352391430639E+03    0.13495E-04   -0.57323E-05 18824   0.213E-02    0.285E-02
DAV:   9    -0.352391390706E+03    0.39933E-04   -0.81173E-05 21648   0.275E-02    0.524E-02
DAV:  10    -0.352391385236E+03    0.54701E-05   -0.49083E-05 19064   0.184E-02
  20 F= -.35239139E+03 E0= -.35238302E+03  d E =0.223773E-02  mag=    10.0000
       N       E                     dE             d eps       ncg     rms          rms(c)
DAV:   1    -0.352391390050E+03    0.65634E-06   -0.68265E-06 14000   0.102E-02    0.378E-02
DAV:   2    -0.352391376672E+03    0.13377E-04   -0.14570E-04 21720   0.397E-02    0.110E-01
DAV:   3    -0.352391383483E+03   -0.68111E-05   -0.36532E-05 20120   0.325E-02    0.442E-02
DAV:   4    -0.352391387841E+03   -0.43581E-05   -0.14088E-05 13248   0.102E-02    0.159E-02
DAV:   5    -0.352391394082E+03   -0.62407E-05   -0.29447E-05 13712   0.831E-03    0.513E-02
DAV:   6    -0.352391402340E+03   -0.82581E-05   -0.12827E-05 13000   0.944E-03
  21 F= -.35239140E+03 E0= -.35238305E+03  d E =0.222062E-02  mag=    10.0000
       N       E                     dE             d eps       ncg     rms          rms(c)
DAV:   1    -0.352391404557E+03   -0.10475E-04   -0.30819E-05 12112   0.984E-03    0.219E-02
DAV:   2    -0.352391396176E+03    0.83807E-05   -0.62666E-05 19640   0.243E-02    0.742E-02
DAV:   3    -0.352391394363E+03    0.18135E-05   -0.15389E-05 16696   0.186E-02    0.273E-02
DAV:   4    -0.352391404516E+03   -0.10154E-04   -0.10701E-05 12256   0.539E-03    0.128E-02
DAV:   5    -0.352391406684E+03   -0.21677E-05   -0.21393E-06 12408   0.437E-03    0.111E-02
DAV:   6    -0.352391409934E+03   -0.32502E-05   -0.65536E-07 11720   0.246E-03
