 vasp.6.1.2 22Jul20 (build Mar 19 2021 09:51:12) complex                        
  
 executed on             LinuxIFC date 2021.07.24  21:49:17
 running on    8 total cores
 distrk:  each k-point on    8 cores,    1 groups
 distr:  one band on NCORE=   4 cores,    2 groups


--------------------------------------------------------------------------------------------------------


 INCAR:
 POTCAR:    PAW_PBE Ca_sv 06Sep2000               
 POTCAR:    PAW_PBE Fe_pv 02Aug2007               
 POTCAR:    PAW_PBE O 08Apr2002                   
 POTCAR:    PAW_PBE Ca_sv 06Sep2000               
   VRHFIN =Ca: 3s3p4s                                                                               
   LEXCH  = PE                                                                                      
   EATOM  =  1006.0909 eV,   73.9456 Ry                                                             
                                                                                                    
   TITEL  = PAW_PBE Ca_sv 06Sep2000                                                                 
   LULTRA =        F    use ultrasoft PP ?                                                          
   IUNSCR =        1    unscreen: 0-lin 1-nonlin 2-no                                               
   RPACOR =    2.000    partial core radius                                                         
   POMASS =   40.078; ZVAL   =   10.000    mass and valenz                                          
   RCORE  =    2.300    outmost cutoff radius                                                       
   RWIGS  =    2.500; RWIGS  =    1.323    wigner-seitz radius (au A)                               
   ENMAX  =  266.622; ENMIN  =  199.967 eV                                                          
   RCLOC  =    1.808    cutoff for local pot                                                        
   LCOR   =        T    correct aug charges                                                         
   LPAW   =        T    paw PP                                                                      
   EAUG   =  420.852                                                                                
   RMAX   =    2.359    core radius for proj-oper                                                   
   RAUG   =    1.300    factor for augmentation sphere                                              
   RDEP   =    2.392    radius for radial grids                                                     
   RDEPT  =    1.987    core radius for aug-charge                                                  
                                                                                                    
   Atomic configuration                                                                             
    7 entries                                                                                       
     n  l   j            E        occ.                                                              
     1  0  0.50     -3949.1705   2.0000                                                             
     2  0  0.50      -414.3434   2.0000                                                             
     2  1  1.50      -334.7047   6.0000                                                             
     3  0  0.50       -47.0896   2.0000                                                             
     4  0  0.50        -3.7663   2.0000                                                             
     3  1  1.50       -28.0061   6.0000                                                             
     3  2  1.50        -4.0817   0.0000                                                             
   Description                                                                                      
     l       E           TYP  RCUT    TYP  RCUT                                                     
     0    -47.0896403     23  2.300                                                                 
     0     -3.7663320     23  2.300                                                                 
     1    -28.0060855     23  2.300                                                                 
     1      6.8029130     23  2.300                                                                 
     2     -4.0817478     23  2.300                                                                 
     2      0.4464412     23  2.300                                                                 
  local pseudopotential read in
  partial core-charges read in
  partial kinetic energy density read in
  atomic valenz-charges read in
  non local Contribution for L=           0  read in
    real space projection operators read in
  non local Contribution for L=           0  read in
    real space projection operators read in
  non local Contribution for L=           1  read in
    real space projection operators read in
  non local Contribution for L=           1  read in
    real space projection operators read in
  non local Contribution for L=           2  read in
    real space projection operators read in
  non local Contribution for L=           2  read in
    real space projection operators read in
    PAW grid and wavefunctions read in
 
   number of l-projection  operators is LMAX  =           6
   number of lm-projection operators is LMMAX =          18
 
 POTCAR:    PAW_PBE Fe_pv 02Aug2007               
   VRHFIN =Fe:  3pd7s1                                                                              
   LEXCH  = PE                                                                                      
   EATOM  =  2457.4239 eV,  180.6156 Ry                                                             
                                                                                                    
   TITEL  = PAW_PBE Fe_pv 02Aug2007                                                                 
   LULTRA =        F    use ultrasoft PP ?                                                          
   IUNSCR =        1    unscreen: 0-lin 1-nonlin 2-no                                               
   RPACOR =    1.750    partial core radius                                                         
   POMASS =   55.847; ZVAL   =   14.000    mass and valenz                                          
   RCORE  =    2.200    outmost cutoff radius                                                       
   RWIGS  =    2.200; RWIGS  =    1.164    wigner-seitz radius (au A)                               
   ENMAX  =  293.238; ENMIN  =  219.928 eV                                                          
   ICORE  =        3    local potential                                                             
   LCOR   =        T    correct aug charges                                                         
   LPAW   =        T    paw PP                                                                      
   EAUG   =  578.342                                                                                
   DEXC   =    0.000                                                                                
   RMAX   =    2.249    core radius for proj-oper                                                   
   RAUG   =    1.300    factor for augmentation sphere                                              
   RDEP   =    2.296    radius for radial grids                                                     
   RDEPT  =    1.766    core radius for aug-charge                                                  
                                                                                                    
   Atomic configuration                                                                             
    8 entries                                                                                       
     n  l   j            E        occ.                                                              
     1  0  0.50     -6993.8440   2.0000                                                             
     2  0  0.50      -814.6047   2.0000                                                             
     2  1  1.50      -693.3689   6.0000                                                             
     3  0  0.50       -89.4732   2.0000                                                             
     3  1  1.50       -55.6373   6.0000                                                             
     3  2  2.50        -3.8151   7.0000                                                             
     4  0  0.50        -4.2551   1.0000                                                             
     4  3  2.50        -1.3606   0.0000                                                             
   Description                                                                                      
     l       E           TYP  RCUT    TYP  RCUT                                                     
     1    -55.6372668     23  2.000                                                                 
     1     -5.4423304     23  2.000                                                                 
     2     -3.8151096     23  2.200                                                                 
     2     -5.1756922     23  2.200                                                                 
     0     -4.2550951     23  2.200                                                                 
     0     27.2116520     23  2.200                                                                 
     3     -1.3605826     23  2.200                                                                 
  local pseudopotential read in
  partial core-charges read in
  partial kinetic energy density read in
  atomic valenz-charges read in
  non local Contribution for L=           1  read in
    real space projection operators read in
  non local Contribution for L=           1  read in
    real space projection operators read in
  non local Contribution for L=           2  read in
    real space projection operators read in
  non local Contribution for L=           2  read in
    real space projection operators read in
  non local Contribution for L=           0  read in
    real space projection operators read in
  non local Contribution for L=           0  read in
    real space projection operators read in
    PAW grid and wavefunctions read in
 
   number of l-projection  operators is LMAX  =           6
   number of lm-projection operators is LMMAX =          18
 
 POTCAR:    PAW_PBE O 08Apr2002                   
   VRHFIN =O: s2p4                                                                                  
   LEXCH  = PE                                                                                      
   EATOM  =   432.3788 eV,   31.7789 Ry                                                             
                                                                                                    
   TITEL  = PAW_PBE O 08Apr2002                                                                     
   LULTRA =        F    use ultrasoft PP ?                                                          
   IUNSCR =        1    unscreen: 0-lin 1-nonlin 2-no                                               
   RPACOR =    1.200    partial core radius                                                         
   POMASS =   16.000; ZVAL   =    6.000    mass and valenz                                          
   RCORE  =    1.520    outmost cutoff radius                                                       
   RWIGS  =    1.550; RWIGS  =    0.820    wigner-seitz radius (au A)                               
   ENMAX  =  400.000; ENMIN  =  300.000 eV                                                          
   ICORE  =        2    local potential                                                             
   LCOR   =        T    correct aug charges                                                         
   LPAW   =        T    paw PP                                                                      
   EAUG   =  605.392                                                                                
   DEXC   =    0.000                                                                                
   RMAX   =    1.553    core radius for proj-oper                                                   
   RAUG   =    1.300    factor for augmentation sphere                                              
   RDEP   =    1.550    radius for radial grids                                                     
   RDEPT  =    1.329    core radius for aug-charge                                                  
                                                                                                    
   Atomic configuration                                                                             
    4 entries                                                                                       
     n  l   j            E        occ.                                                              
     1  0  0.50      -514.6923   2.0000                                                             
     2  0  0.50       -23.9615   2.0000                                                             
     2  1  0.50        -9.0305   4.0000                                                             
     3  2  1.50        -9.5241   0.0000                                                             
   Description                                                                                      
     l       E           TYP  RCUT    TYP  RCUT                                                     
     0    -23.9615318     23  1.200                                                                 
     0     -9.5240782     23  1.200                                                                 
     1     -9.0304911     23  1.520                                                                 
     1      8.1634956     23  1.520                                                                 
     2     -9.5240782      7  1.500                                                                 
  local pseudopotential read in
  partial core-charges read in
  partial kinetic energy density read in
  kinetic energy density of atom read in
  atomic valenz-charges read in
  non local Contribution for L=           0  read in
    real space projection operators read in
  non local Contribution for L=           0  read in
    real space projection operators read in
  non local Contribution for L=           1  read in
    real space projection operators read in
  non local Contribution for L=           1  read in
    real space projection operators read in
    PAW grid and wavefunctions read in
 
   number of l-projection  operators is LMAX  =           4
   number of lm-projection operators is LMMAX =           8
 
 Optimization of the real space projectors (new method)

 maximal supplied QI-value         = 16.25
 optimisation between [QCUT,QGAM] = [ 11.54, 23.24] = [ 37.28,151.24] Ry 
 Optimized for a Real-space Cutoff    1.58 Angstroem

   l    n(q)    QCUT    max X(q) W(low)/X(q) W(high)/X(q)  e(spline) 
   0     11    11.539    11.817    0.25E-04    0.22E-05    0.26E-07
   0     11    11.539     8.461    0.39E-04    0.49E-05    0.55E-07
   1     11    11.539     3.957    0.21E-05    0.44E-05    0.32E-07
   1     11    11.539     4.314    0.56E-04    0.44E-04    0.19E-06
   2     10    11.539    14.565    0.25E-03    0.21E-04    0.75E-06
   2     10    11.539    14.552    0.23E-03    0.22E-04    0.72E-06
 Optimization of the real space projectors (new method)

 maximal supplied QI-value         = 17.01
 optimisation between [QCUT,QGAM] = [ 11.57, 23.30] = [ 37.45,152.03] Ry 
 Optimized for a Real-space Cutoff    1.45 Angstroem

   l    n(q)    QCUT    max X(q) W(low)/X(q) W(high)/X(q)  e(spline) 
   1     10    11.565     4.267    0.91E-04    0.15E-03    0.13E-06
   1     10    11.565     5.750    0.14E-03    0.22E-03    0.20E-06
   2      9    11.565    53.656    0.13E-03    0.57E-04    0.16E-06
   2      9    11.565    49.521    0.13E-03    0.59E-04    0.16E-06
   0     10    11.565    31.246    0.61E-04    0.74E-05    0.89E-07
   0     10    11.565    12.201    0.44E-04    0.68E-05    0.74E-07
 Optimization of the real space projectors (new method)

 maximal supplied QI-value         = 24.76
 optimisation between [QCUT,QGAM] = [ 11.64, 23.27] = [ 37.91,151.63] Ry 
 Optimized for a Real-space Cutoff    1.14 Angstroem

   l    n(q)    QCUT    max X(q) W(low)/X(q) W(high)/X(q)  e(spline) 
   0      8    11.635    20.381    0.10E-03    0.33E-03    0.24E-06
   0      8    11.635    15.268    0.11E-03    0.35E-03    0.26E-06
   1      7    11.635     5.964    0.24E-03    0.31E-03    0.30E-06
   1      7    11.635     5.382    0.22E-03    0.25E-03    0.26E-06
  PAW_PBE Ca_sv 06Sep2000               :
 energy of atom  1       EATOM=-1006.0909
 kinetic energy error for atom=    0.0022 (will be added to EATOM!!)
  PAW_PBE Fe_pv 02Aug2007               :
 energy of atom  2       EATOM=-2457.4239
 kinetic energy error for atom=    0.0062 (will be added to EATOM!!)
  PAW_PBE O 08Apr2002                   :
 energy of atom  3       EATOM= -432.3788
 kinetic energy error for atom=    0.0208 (will be added to EATOM!!)
 
 
 POSCAR: Ca2 Fe7 O11
  positions in direct lattice
  velocities in cartesian coordinates

 METAGGA = SCAN     LMAXTAU =  6    LMIXTAU =  F

 exchange correlation table for  LEXCH =        8
   RHO(1)=    0.500       N(1)  =     2000
   RHO(2)=  100.500       N(2)  =     4000
 


--------------------------------------------------------------------------------------------------------


 ion  position               nearest neighbor table
   1  0.416  0.834  0.275-  15 2.29  15 2.29  13 2.40  13 2.41  17 2.42  17 2.42
   2  0.584  0.166  0.725-  16 2.29  16 2.29  14 2.40  14 2.41  18 2.42  18 2.42
   3  1.000  0.000  0.500-  18 1.98  17 1.98  20 2.25  19 2.25  20 2.25  19 2.25
   4  0.878  0.753  0.050-  13 1.99  12 2.10  10 2.16  10 2.17  11 2.20  11 2.21
   5  0.123  0.247  0.950-  14 1.99  11 2.10  10 2.16  10 2.17  12 2.20  12 2.20
   6  0.636  0.269  0.145-  15 1.94  13 2.05  13 2.05  11 2.08  11 2.08  10 2.23
   7  0.364  0.731  0.855-  16 1.94  14 2.05  14 2.05  12 2.08  12 2.08  10 2.23
   8  0.704  0.409  0.401-  15 1.94  17 2.05  17 2.05  19 2.06  19 2.06  20 2.18
   9  0.296  0.591  0.599-  16 1.94  18 2.05  18 2.05  20 2.06  20 2.06  19 2.18
  10  0.501  0.000  1.000-   5 2.16   4 2.16   5 2.17   4 2.17   7 2.23   6 2.23
  11  0.240  0.479  0.090-   6 2.08   6 2.08   5 2.10   4 2.20   4 2.21
  12  0.760  0.521  0.910-   7 2.08   7 2.08   4 2.10   5 2.20   5 2.20
  13  0.012  0.023  0.173-   4 1.99   6 2.05   6 2.05   1 2.40   1 2.41
  14  0.987  0.977  0.827-   5 1.99   7 2.05   7 2.05   2 2.40   2 2.41
  15  0.747  0.494  0.272-   8 1.94   6 1.94   1 2.29   1 2.29
  16  0.253  0.505  0.728-   9 1.94   7 1.94   2 2.29   2 2.29
  17  0.065  0.132  0.377-   3 1.98   8 2.05   8 2.05   1 2.42   1 2.42
  18  0.935  0.868  0.623-   3 1.98   9 2.05   9 2.05   2 2.42   2 2.42
  19  0.336  0.673  0.453-   8 2.06   8 2.06   9 2.18   3 2.25   3 2.25
  20  0.664  0.327  0.547-   9 2.06   9 2.06   8 2.18   3 2.25   3 2.25
 

IMPORTANT INFORMATION: All symmetrisations will be switched off!
NOSYMM: (Re-)initialisation of all symmetry stuff for point group C_1.


----------------------------------------------------------------------------------------

                                     Primitive cell                                     

  volume of cell :     212.9234

  direct lattice vectors                    reciprocal lattice vectors
     0.001113302  3.030563758  0.001943674     0.078255397  0.329983255 -0.062981726
     4.481288375 -1.515862294 -2.374088221     0.156592395  0.000023060 -0.125647932
    -8.827860410 -0.006351653-11.001979395    -0.033776836  0.000053321 -0.063790625

  length of vectors
     3.030564586  5.293021715 14.105839584     0.344934129  0.200769972  0.072181170

  position of ions in fractional coordinates (direct lattice)
     0.415544993  0.833692342  0.274517211
     0.584300658  0.166200461  0.725456581
     0.999907096  0.000012144  0.500001330
     0.878394495  0.753229694  0.049913650
     0.123082932  0.246903297  0.950098807
     0.635658771  0.269267665  0.144778654
     0.364250321  0.730749074  0.855196826
     0.703575667  0.409421005  0.400891615
     0.296323179  0.590605054  0.599104867
     0.500787895  0.000130504  0.999943399
     0.239958197  0.478631534  0.090423185
     0.759547221  0.521341310  0.909706614
     0.011821685  0.022716757  0.172652210
     0.987375662  0.977318990  0.827352977
     0.746549126  0.494422761  0.272385846
     0.253216483  0.505423313  0.727599598
     0.064860362  0.131888059  0.376641702
     0.934992559  0.868088979  0.623345569
     0.335939314  0.673060371  0.452962990
     0.663913384  0.326896683  0.547026369

  ion indices of the primitive-cell ions
   primitive index   ion index
                 1           1
                 2           2
                 3           3
                 4           4
                 5           5
                 6           6
                 7           7
                 8           8
                 9           9
                10          10
                11          11
                12          12
                13          13
                14          14
                15          15
                16          16
                17          17
                18          18
                19          19
                20          20

----------------------------------------------------------------------------------------

 
 
 KPOINTS: K-points file                           

Automatic generation of k-mesh.
Space group operators:
 irot       det(A)        alpha          n_x          n_y          n_z        tau_x        tau_y        tau_z
    1     1.000000     0.000000     1.000000     0.000000     0.000000     0.000000     0.000000     0.000000
 
 Subroutine IBZKPT returns following result:
 ===========================================
 
 Found    116 irreducible k-points:
 
 Following reciprocal coordinates:
            Coordinates               Weight
  0.000000  0.000000  0.000000      1.000000
  0.090909 -0.000000 -0.000000      2.000000
  0.181818 -0.000000  0.000000      2.000000
  0.272727  0.000000  0.000000      2.000000
  0.363636 -0.000000  0.000000      2.000000
  0.454545 -0.000000 -0.000000      2.000000
  0.000000  0.142857  0.000000      2.000000
  0.090909  0.142857 -0.000000      2.000000
  0.181818  0.142857 -0.000000      2.000000
  0.272727  0.142857  0.000000      2.000000
  0.363636  0.142857  0.000000      2.000000
  0.454545  0.142857  0.000000      2.000000
 -0.454545  0.142857 -0.000000      2.000000
 -0.363636  0.142857 -0.000000      2.000000
 -0.272727  0.142857 -0.000000      2.000000
 -0.181818  0.142857 -0.000000      2.000000
 -0.090909  0.142857  0.000000      2.000000
 -0.000000  0.285714 -0.000000      2.000000
  0.090909  0.285714  0.000000      2.000000
  0.181818  0.285714 -0.000000      2.000000
  0.272727  0.285714 -0.000000      2.000000
  0.363636  0.285714  0.000000      2.000000
  0.454545  0.285714 -0.000000      2.000000
 -0.454545  0.285714 -0.000000      2.000000
 -0.363636  0.285714 -0.000000      2.000000
 -0.272727  0.285714  0.000000      2.000000
 -0.181818  0.285714  0.000000      2.000000
 -0.090909  0.285714  0.000000      2.000000
 -0.000000  0.428571  0.000000      2.000000
  0.090909  0.428571 -0.000000      2.000000
  0.181818  0.428571  0.000000      2.000000
  0.272727  0.428571  0.000000      2.000000
  0.363636  0.428571 -0.000000      2.000000
  0.454545  0.428571  0.000000      2.000000
 -0.454545  0.428571 -0.000000      2.000000
 -0.363636  0.428571 -0.000000      2.000000
 -0.272727  0.428571 -0.000000      2.000000
 -0.181818  0.428571  0.000000      2.000000
 -0.090909  0.428571  0.000000      2.000000
 -0.000000 -0.000000  0.333333      2.000000
  0.090909 -0.000000  0.333333      2.000000
  0.181818 -0.000000  0.333333      2.000000
  0.272727 -0.000000  0.333333      2.000000
  0.363636 -0.000000  0.333333      2.000000
  0.454545 -0.000000  0.333333      2.000000
 -0.454545 -0.000000  0.333333      2.000000
 -0.363636  0.000000  0.333333      2.000000
 -0.272727  0.000000  0.333333      2.000000
 -0.181818  0.000000  0.333333      2.000000
 -0.090909  0.000000  0.333333      2.000000
  0.000000  0.142857  0.333333      2.000000
  0.090909  0.142857  0.333333      2.000000
  0.181818  0.142857  0.333333      2.000000
  0.272727  0.142857  0.333333      2.000000
  0.363636  0.142857  0.333333      2.000000
  0.454545  0.142857  0.333333      2.000000
 -0.454545  0.142857  0.333333      2.000000
 -0.363636  0.142857  0.333333      2.000000
 -0.272727  0.142857  0.333333      2.000000
 -0.181818  0.142857  0.333333      2.000000
 -0.090909  0.142857  0.333333      2.000000
 -0.000000  0.285714  0.333333      2.000000
  0.090909  0.285714  0.333333      2.000000
  0.181818  0.285714  0.333333      2.000000
  0.272727  0.285714  0.333333      2.000000
  0.363636  0.285714  0.333333      2.000000
  0.454545  0.285714  0.333333      2.000000
 -0.454545  0.285714  0.333333      2.000000
 -0.363636  0.285714  0.333333      2.000000
 -0.272727  0.285714  0.333333      2.000000
 -0.181818  0.285714  0.333333      2.000000
 -0.090909  0.285714  0.333333      2.000000
 -0.000000  0.428571  0.333333      2.000000
  0.090909  0.428571  0.333333      2.000000
  0.181818  0.428571  0.333333      2.000000
  0.272727  0.428571  0.333333      2.000000
  0.363636  0.428571  0.333333      2.000000
  0.454545  0.428571  0.333333      2.000000
 -0.454545  0.428571  0.333333      2.000000
 -0.363636  0.428571  0.333333      2.000000
 -0.272727  0.428571  0.333333      2.000000
 -0.181818  0.428571  0.333333      2.000000
 -0.090909  0.428571  0.333333      2.000000
  0.000000 -0.428571  0.333333      2.000000
  0.090909 -0.428571  0.333333      2.000000
  0.181818 -0.428571  0.333333      2.000000
  0.272727 -0.428571  0.333333      2.000000
  0.363636 -0.428571  0.333333      2.000000
  0.454545 -0.428571  0.333333      2.000000
 -0.454545 -0.428571  0.333333      2.000000
 -0.363636 -0.428571  0.333333      2.000000
 -0.272727 -0.428571  0.333333      2.000000
 -0.181818 -0.428571  0.333333      2.000000
 -0.090909 -0.428571  0.333333      2.000000
  0.000000 -0.285714  0.333333      2.000000
  0.090909 -0.285714  0.333333      2.000000
  0.181818 -0.285714  0.333333      2.000000
  0.272727 -0.285714  0.333333      2.000000
  0.363636 -0.285714  0.333333      2.000000
  0.454545 -0.285714  0.333333      2.000000
 -0.454545 -0.285714  0.333333      2.000000
 -0.363636 -0.285714  0.333333      2.000000
 -0.272727 -0.285714  0.333333      2.000000
 -0.181818 -0.285714  0.333333      2.000000
 -0.090909 -0.285714  0.333333      2.000000
  0.000000 -0.142857  0.333333      2.000000
  0.090909 -0.142857  0.333333      2.000000
  0.181818 -0.142857  0.333333      2.000000
  0.272727 -0.142857  0.333333      2.000000
  0.363636 -0.142857  0.333333      2.000000
  0.454545 -0.142857  0.333333      2.000000
 -0.454545 -0.142857  0.333333      2.000000
 -0.363636 -0.142857  0.333333      2.000000
 -0.272727 -0.142857  0.333333      2.000000
 -0.181818 -0.142857  0.333333      2.000000
 -0.090909 -0.142857  0.333333      2.000000
 
 Following cartesian coordinates:
            Coordinates               Weight
  0.000000  0.000000  0.000000      1.000000
  0.007114  0.029998 -0.005726      2.000000
  0.014228  0.059997 -0.011451      2.000000
  0.021342  0.089995 -0.017177      2.000000
  0.028457  0.119994 -0.022902      2.000000
  0.035571  0.149992 -0.028628      2.000000
  0.022370  0.000003 -0.017950      2.000000
  0.029484  0.030002 -0.023675      2.000000
  0.036599  0.060000 -0.029401      2.000000
  0.043713  0.089999 -0.035127      2.000000
  0.050827  0.119997 -0.040852      2.000000
  0.057941  0.149996 -0.046578      2.000000
 -0.013200 -0.149989  0.010678      2.000000
 -0.006086 -0.119991  0.004953      2.000000
  0.001028 -0.089992 -0.000773      2.000000
  0.008142 -0.059994 -0.006498      2.000000
  0.015256 -0.029995 -0.012224      2.000000
  0.044741  0.000007 -0.035899      2.000000
  0.051855  0.030005 -0.041625      2.000000
  0.058969  0.060004 -0.047351      2.000000
  0.066083  0.090002 -0.053076      2.000000
  0.073197  0.120000 -0.058802      2.000000
  0.080311  0.149999 -0.064527      2.000000
  0.009170 -0.149986 -0.007271      2.000000
  0.016284 -0.119987 -0.012997      2.000000
  0.023398 -0.089989 -0.018723      2.000000
  0.030512 -0.059990 -0.024448      2.000000
  0.037627 -0.029992 -0.030174      2.000000
  0.067111  0.000010 -0.053849      2.000000
  0.074225  0.030008 -0.059575      2.000000
  0.081339  0.060007 -0.065300      2.000000
  0.088453  0.090005 -0.071026      2.000000
  0.095568  0.120004 -0.076752      2.000000
  0.102682  0.150002 -0.082477      2.000000
  0.031540 -0.149983 -0.025221      2.000000
  0.038655 -0.119984 -0.030947      2.000000
  0.045769 -0.089986 -0.036672      2.000000
  0.052883 -0.059987 -0.042398      2.000000
  0.059997 -0.029989 -0.048124      2.000000
 -0.011259  0.000018 -0.021264      2.000000
 -0.004145  0.030016 -0.026989      2.000000
  0.002969  0.060015 -0.032715      2.000000
  0.010083  0.090013 -0.038440      2.000000
  0.017198  0.120012 -0.044166      2.000000
  0.024312  0.150010 -0.049892      2.000000
 -0.046830 -0.149975  0.007365      2.000000
 -0.039715 -0.119976  0.001639      2.000000
 -0.032601 -0.089978 -0.004087      2.000000
 -0.025487 -0.059979 -0.009812      2.000000
 -0.018373 -0.029981 -0.015538      2.000000
  0.011111  0.000021 -0.039213      2.000000
  0.018226  0.030020 -0.044939      2.000000
  0.025340  0.060018 -0.050664      2.000000
  0.032454  0.090017 -0.056390      2.000000
  0.039568  0.120015 -0.062116      2.000000
  0.046682  0.150013 -0.067841      2.000000
 -0.024459 -0.149971 -0.010585      2.000000
 -0.017345 -0.119973 -0.016311      2.000000
 -0.010231 -0.089974 -0.022036      2.000000
 -0.003117 -0.059976 -0.027762      2.000000
  0.003997 -0.029977 -0.033488      2.000000
  0.033482  0.000024 -0.057163      2.000000
  0.040596  0.030023 -0.062889      2.000000
  0.047710  0.060021 -0.068614      2.000000
  0.054824  0.090020 -0.074340      2.000000
  0.061938  0.120018 -0.080065      2.000000
  0.069052  0.150017 -0.085791      2.000000
 -0.002089 -0.149968 -0.028535      2.000000
  0.005025 -0.119970 -0.034261      2.000000
  0.012139 -0.089971 -0.039986      2.000000
  0.019253 -0.059973 -0.045712      2.000000
  0.026368 -0.029974 -0.051437      2.000000
  0.055852  0.000028 -0.075113      2.000000
  0.062966  0.030026 -0.080838      2.000000
  0.070080  0.060025 -0.086564      2.000000
  0.077194  0.090023 -0.092289      2.000000
  0.084309  0.120022 -0.098015      2.000000
  0.091423  0.150020 -0.103741      2.000000
  0.020281 -0.149965 -0.046485      2.000000
  0.027396 -0.119966 -0.052210      2.000000
  0.034510 -0.089968 -0.057936      2.000000
  0.041624 -0.059969 -0.063661      2.000000
  0.048738 -0.029971 -0.069387      2.000000
 -0.078370  0.000008  0.032586      2.000000
 -0.071256  0.030006  0.026860      2.000000
 -0.064142  0.060005  0.021134      2.000000
 -0.057028  0.090003  0.015409      2.000000
 -0.049913  0.120002  0.009683      2.000000
 -0.042799  0.150000  0.003958      2.000000
 -0.113941 -0.149984  0.061214      2.000000
 -0.106826 -0.119986  0.055488      2.000000
 -0.099712 -0.089988  0.049762      2.000000
 -0.092598 -0.059989  0.044037      2.000000
 -0.085484 -0.029991  0.038311      2.000000
 -0.056000  0.000011  0.014636      2.000000
 -0.048886  0.030010  0.008910      2.000000
 -0.041771  0.060008  0.003185      2.000000
 -0.034657  0.090007 -0.002541      2.000000
 -0.027543  0.120005 -0.008267      2.000000
 -0.020429  0.150004 -0.013992      2.000000
 -0.091570 -0.149981  0.043264      2.000000
 -0.084456 -0.119983  0.037538      2.000000
 -0.077342 -0.089984  0.031813      2.000000
 -0.070228 -0.059986  0.026087      2.000000
 -0.063114 -0.029987  0.020361      2.000000
 -0.033629  0.000014 -0.003314      2.000000
 -0.026515  0.030013 -0.009039      2.000000
 -0.019401  0.060011 -0.014765      2.000000
 -0.012287  0.090010 -0.020491      2.000000
 -0.005173  0.120008 -0.026216      2.000000
  0.001941  0.150007 -0.031942      2.000000
 -0.069200 -0.149978  0.025314      2.000000
 -0.062086 -0.119979  0.019589      2.000000
 -0.054972 -0.089981  0.013863      2.000000
 -0.047858 -0.059982  0.008137      2.000000
 -0.040743 -0.029984  0.002412      2.000000
 


--------------------------------------------------------------------------------------------------------




 Dimension of arrays:
   k-points           NKPTS =    116   k-points in BZ     NKDIM =    116   number of bands    NBANDS=    128
   number of dos      NEDOS =    301   number of ions     NIONS =     20
   non local maximal  LDIM  =      6   non local SUM 2l+1 LMDIM =     18
   total plane-waves  NPLWV = 103680
   max r-space proj   IRMAX =   8092   max aug-charges    IRDMAX=  23429
   dimension x,y,z NGX =    24 NGY =   40 NGZ =  108
   dimension x,y,z NGXF=    48 NGYF=   80 NGZF=  216
   support grid    NGXF=    48 NGYF=   80 NGZF=  216
   ions per type =               2   7  11
   NGX,Y,Z   is equivalent  to a cutoff of  13.17, 12.56, 12.73 a.u.
   NGXF,Y,Z  is equivalent  to a cutoff of  26.33, 25.13, 25.46 a.u.

 SYSTEM =  unknown system                          
 POSCAR =  Ca2 Fe7 O11                             

 Startparameter for this run:
   NWRITE =      2    write-flag & timer
   PREC   = accura    normal or accurate (medium, high low for compatibility)
   ISTART =      0    job   : 0-new  1-cont  2-samecut
   ICHARG =      1    charge: 1-file 2-atom 10-const
   ISPIN  =      2    spin polarized calculation?
   LNONCOLLINEAR =      F non collinear calculations
   LSORBIT =      F    spin-orbit coupling
   INIWAV =      1    electr: 0-lowe 1-rand  2-diag
   LASPH  =      T    aspherical Exc in radial PAW
   METAGGA=      F    non-selfconsistent MetaGGA calc.

 Electronic Relaxation 1
   ENCUT  =  520.0 eV  38.22 Ry    6.18 a.u.   5.63  9.84 26.23*2*pi/ulx,y,z
   ENINI  =  520.0     initial cutoff
   ENAUG  =  605.4 eV  augmentation charge cutoff
   NELM   =    100;   NELMIN=  6; NELMDL= -5     # of ELM steps 
   EDIFF  = 0.1E-04   stopping-criterion for ELM
   LREAL  =      T    real-space projection
   NLSPLINE    = F    spline interpolate recip. space projectors
   LCOMPAT=      F    compatible to vasp.4.4
   GGA_COMPAT  = T    GGA compatible to vasp.4.4-vasp.4.6
   LMAXPAW     = -100 max onsite density
   LMAXMIX     =    4 max onsite mixed and CHGCAR
   VOSKOWN=      0    Vosko Wilk Nusair interpolation
   ROPT   =   -0.00025  -0.00025  -0.00025
 Ionic relaxation
   EDIFFG = -.3E-01   stopping-criterion for IOM
   NSW    =     99    number of steps for IOM
   NBLOCK =      1;   KBLOCK =     99    inner block; outer block 
   IBRION =      2    ionic relax: 0-MD 1-quasi-New 2-CG
   NFREE  =      1    steps in history (QN), initial steepest desc. (CG)
   ISIF   =      3    stress and relaxation
   IWAVPR =     11    prediction:  0-non 1-charg 2-wave 3-comb
   ISYM   =      0    0-nonsym 1-usesym 2-fastsym
   LCORR  =      T    Harris-Foulkes like correction to forces

   POTIM  = 0.5000    time-step for ionic-motion
   TEIN   =    0.0    initial temperature
   TEBEG  =    0.0;   TEEND  =   0.0 temperature during run
   SMASS  =  -3.00    Nose mass-parameter (am)
   estimated Nose-frequenzy (Omega)   =  0.10E-29 period in steps = 0.13E+47 mass=  -0.210E-27a.u.
   SCALEE = 1.0000    scale energy and forces
   NPACO  =    256;   APACO  = 16.0  distance and # of slots for P.C.
   PSTRESS=    0.0 pullay stress

  Mass of Ions in am
   POMASS =  40.08 55.85 16.00
  Ionic Valenz
   ZVAL   =  10.00 14.00  6.00
  Atomic Wigner-Seitz radii
   RWIGS  =  -1.00 -1.00 -1.00
  virtual crystal weights 
   VCA    =   1.00  1.00  1.00
   NELECT =     184.0000    total number of electrons
   NUPDOWN=      -1.0000    fix difference up-down

 DOS related values:
   EMIN   =  10.00;   EMAX   =-10.00  energy-range for DOS
   EFERMI =   0.00
   ISMEAR =     0;   SIGMA  =   0.05  broadening in eV -4-tet -1-fermi 0-gaus

 Electronic relaxation 2 (details)
   IALGO  =     38    algorithm
   LDIAG  =      T    sub-space diagonalisation (order eigenvalues)
   LSUBROT=      F    optimize rotation matrix (better conditioning)
   TURBO    =      0    0=normal 1=particle mesh
   IRESTART =      0    0=no restart 2=restart with 2 vectors
   NREBOOT  =      0    no. of reboots
   NMIN     =      0    reboot dimension
   EREF     =   0.00    reference energy to select bands
   IMIX   =      4    mixing-type and parameters
     AMIX     =   0.40;   BMIX     =  1.00
     AMIX_MAG =   1.60;   BMIX_MAG =  1.00
     AMIN     =   0.10
     WC   =   100.;   INIMIX=   1;  MIXPRE=   1;  MAXMIX= -45

 Intra band minimization:
   WEIMIN = 0.0010     energy-eigenvalue tresh-hold
   EBREAK =  0.20E-07  absolut break condition
   DEPER  =   0.30     relativ break condition  

   TIME   =   0.40     timestep for ELM

  volume/ion in A,a.u.               =      10.65        71.84
  Fermi-wavevector in a.u.,A,eV,Ry     =   1.559336  2.946717 33.082946  2.431528
  Thomas-Fermi vector in A             =   2.662709
 
 Write flags
   LWAVE        =      F    write WAVECAR
   LDOWNSAMPLE  =      F    k-point downsampling of WAVECAR
   LCHARG       =      T    write CHGCAR
   LVTOT        =      F    write LOCPOT, total local potential
   LVHAR        =      F    write LOCPOT, Hartree potential only
   LELF         =      F    write electronic localiz. function (ELF)
   LORBIT       =     11    0 simple, 1 ext, 2 COOP (PROOUT), +10 PAW based schemes


 Dipole corrections
   LMONO  =      F    monopole corrections only (constant potential shift)
   LDIPOL =      F    correct potential (dipole corrections)
   IDIPOL =      0    1-x, 2-y, 3-z, 4-all directions 
   EPSILON=  1.0000000 bulk dielectric constant

 LDA+U is selected, type is set to LDAUTYPE =  2
   angular momentum for each species LDAUL =    -1    2   -1
   U (eV)           for each species LDAUU =   0.0  3.1  0.0
   J (eV)           for each species LDAUJ =   0.0  0.0  0.0
 Exchange correlation treatment:
   GGA     =    --    GGA type
   LEXCH   =     8    internal setting for exchange type
   VOSKOWN=      0    Vosko Wilk Nusair interpolation
   LHFCALC =     F    Hartree Fock is set to
   LHFONE  =     F    Hartree Fock one center treatment
   AEXX    =    0.0000 exact exchange contribution

 Linear response parameters
   LEPSILON=     F    determine dielectric tensor
   LRPA    =     F    only Hartree local field effects (RPA)
   LNABLA  =     F    use nabla operator in PAW spheres
   LVEL    =     F    velocity operator in full k-point grid
   LINTERFAST=   F  fast interpolation
   KINTER  =     0    interpolate to denser k-point grid
   CSHIFT  =0.1000    complex shift for real part using Kramers Kronig
   OMEGAMAX=  -1.0    maximum frequency
   DEG_THRESHOLD= 0.2000000E-02 threshold for treating states as degnerate
   RTIME   =   -0.100 relaxation time in fs
  (WPLASMAI=    0.000 imaginary part of plasma frequency in eV, 0.658/RTIME)
   DFIELD  = 0.0000000 0.0000000 0.0000000 field for delta impulse in time
 
 Orbital magnetization related:
   ORBITALMAG=     F  switch on orbital magnetization
   LCHIMAG   =     F  perturbation theory with respect to B field
   DQ        =  0.001000  dq finite difference perturbation B field
   LLRAUG    =     F  two centre corrections for induced B field



--------------------------------------------------------------------------------------------------------


 conjugate gradient relaxation of ions
 charge density and potential will be updated during run
 spin polarized calculation
 Variant of blocked Davidson
 Davidson routine will perform the subspace rotation
 perform sub-space diagonalisation
    after iterative eigenvector-optimisation
 modified Broyden-mixing scheme, WC =      100.0
 initial mixing is a Kerker type mixing with AMIX =  0.4000 and BMIX =      1.0000
 Hartree-type preconditioning will be used
 using additional bands           36
 real space projection scheme for non local part
 use partial core corrections
 calculate Harris-corrections to forces 
   (improved forces if not selfconsistent)
 use gradient corrections 
 use of overlap-Matrix (Vanderbilt PP)
 Gauss-broadening in eV      SIGMA  =   0.05


--------------------------------------------------------------------------------------------------------


  energy-cutoff  :      520.00
  volume of cell :      212.92
      direct lattice vectors                 reciprocal lattice vectors
     0.001113302  3.030563758  0.001943674     0.078255397  0.329983255 -0.062981726
     4.481288375 -1.515862294 -2.374088221     0.156592395  0.000023060 -0.125647932
    -8.827860410 -0.006351653-11.001979395    -0.033776836  0.000053321 -0.063790625

  length of vectors
     3.030564586  5.293021715 14.105839584     0.344934129  0.200769972  0.072181170


 
 k-points in units of 2pi/SCALE and weight: K-points file                           
   0.00000000  0.00000000  0.00000000       0.004
   0.00711413  0.02999848 -0.00572561       0.009
   0.01422825  0.05999696 -0.01145122       0.009
   0.02134238  0.08999543 -0.01717683       0.009
   0.02845651  0.11999391 -0.02290245       0.009
   0.03557063  0.14999239 -0.02862806       0.009
   0.02237034  0.00000329 -0.01794970       0.009
   0.02948447  0.03000177 -0.02367532       0.009
   0.03659860  0.06000025 -0.02940093       0.009
   0.04371272  0.08999873 -0.03512654       0.009
   0.05082685  0.11999721 -0.04085215       0.009
   0.05794098  0.14999568 -0.04657776       0.009
  -0.01320029 -0.14998909  0.01067835       0.009
  -0.00608617 -0.11999062  0.00495274       0.009
   0.00102796 -0.08999214 -0.00077287       0.009
   0.00814209 -0.05999366 -0.00649848       0.009
   0.01525622 -0.02999518 -0.01222409       0.009
   0.04474068  0.00000659 -0.03589941       0.009
   0.05185481  0.03000507 -0.04162502       0.009
   0.05896894  0.06000354 -0.04735063       0.009
   0.06608307  0.09000202 -0.05307624       0.009
   0.07319719  0.12000050 -0.05880186       0.009
   0.08031132  0.14999898 -0.06452747       0.009
   0.00917005 -0.14998580 -0.00727135       0.009
   0.01628418 -0.11998732 -0.01299696       0.009
   0.02339830 -0.08998884 -0.01872257       0.009
   0.03051243 -0.05999037 -0.02444819       0.009
   0.03762656 -0.02999189 -0.03017380       0.009
   0.06711103  0.00000988 -0.05384911       0.009
   0.07422515  0.03000836 -0.05957473       0.009
   0.08133928  0.06000684 -0.06530034       0.009
   0.08845341  0.09000532 -0.07102595       0.009
   0.09556753  0.12000379 -0.07675156       0.009
   0.10268166  0.15000227 -0.08247717       0.009
   0.03154039 -0.14998251 -0.02522106       0.009
   0.03865452 -0.11998403 -0.03094667       0.009
   0.04576865 -0.08998555 -0.03667228       0.009
   0.05288277 -0.05998707 -0.04239789       0.009
   0.05999690 -0.02998860 -0.04812350       0.009
  -0.01125895  0.00001777 -0.02126354       0.009
  -0.00414482  0.03001625 -0.02698915       0.009
   0.00296931  0.06001473 -0.03271476       0.009
   0.01008344  0.09001321 -0.03844038       0.009
   0.01719756  0.12001168 -0.04416599       0.009
   0.02431169  0.15001016 -0.04989160       0.009
  -0.04682958 -0.14997462  0.00736452       0.009
  -0.03971545 -0.11997614  0.00163890       0.009
  -0.03260133 -0.08997766 -0.00408671       0.009
  -0.02548720 -0.05997918 -0.00981232       0.009
  -0.01837307 -0.02998070 -0.01553793       0.009
   0.01111140  0.00002107 -0.03921325       0.009
   0.01822552  0.03001955 -0.04493886       0.009
   0.02533965  0.06001802 -0.05066447       0.009
   0.03245378  0.09001650 -0.05639008       0.009
   0.03956790  0.12001498 -0.06211569       0.009
   0.04668203  0.15001346 -0.06784130       0.009
  -0.02445924 -0.14997132 -0.01058519       0.009
  -0.01734511 -0.11997284 -0.01631080       0.009
  -0.01023098 -0.08997437 -0.02203641       0.009
  -0.00311686 -0.05997589 -0.02776202       0.009
   0.00399727 -0.02997741 -0.03348763       0.009
   0.03348174  0.00002436 -0.05716295       0.009
   0.04059587  0.03002284 -0.06288856       0.009
   0.04770999  0.06002132 -0.06861417       0.009
   0.05482412  0.09001980 -0.07433979       0.009
   0.06193825  0.12001827 -0.08006540       0.009
   0.06905237  0.15001675 -0.08579101       0.009
  -0.00208890 -0.14996803 -0.02853489       0.009
   0.00502523 -0.11996955 -0.03426050       0.009
   0.01213936 -0.08997107 -0.03998612       0.009
   0.01925348 -0.05997259 -0.04571173       0.009
   0.02636761 -0.02997412 -0.05143734       0.009
   0.05585208  0.00002766 -0.07511266       0.009
   0.06296621  0.03002613 -0.08083827       0.009
   0.07008034  0.06002461 -0.08656388       0.009
   0.07719446  0.09002309 -0.09228949       0.009
   0.08430859  0.12002157 -0.09801510       0.009
   0.09142272  0.15002005 -0.10374071       0.009
   0.02028145 -0.14996473 -0.04648460       0.009
   0.02739557 -0.11996625 -0.05221021       0.009
   0.03450970 -0.08996778 -0.05793582       0.009
   0.04162383 -0.05996930 -0.06366143       0.009
   0.04873795 -0.02997082 -0.06938704       0.009
  -0.07836997  0.00000789  0.03258557       0.009
  -0.07125585  0.03000637  0.02685996       0.009
  -0.06414172  0.06000485  0.02113435       0.009
  -0.05702759  0.09000332  0.01540874       0.009
  -0.04991346  0.12000180  0.00968313       0.009
  -0.04279934  0.15000028  0.00395751       0.009
  -0.11394061 -0.14998450  0.06121363       0.009
  -0.10682648 -0.11998602  0.05548802       0.009
  -0.09971235 -0.08998754  0.04976241       0.009
  -0.09259823 -0.05998906  0.04403679       0.009
  -0.08548410 -0.02999059  0.03831118       0.009
  -0.05599963  0.00001119  0.01463587       0.009
  -0.04888550  0.03000966  0.00891026       0.009
  -0.04177138  0.06000814  0.00318464       0.009
  -0.03465725  0.09000662 -0.00254097       0.009
  -0.02754312  0.12000510 -0.00826658       0.009
  -0.02042900  0.15000357 -0.01399219       0.009
  -0.09157026 -0.14998120  0.04326392       0.009
  -0.08445614 -0.11998273  0.03753831       0.009
  -0.07734201 -0.08998425  0.03181270       0.009
  -0.07022788 -0.05998577  0.02608709       0.009
  -0.06311376 -0.02998729  0.02036148       0.009
  -0.03362929  0.00001448 -0.00331384       0.009
  -0.02651516  0.03001296 -0.00903945       0.009
  -0.01940103  0.06001143 -0.01476506       0.009
  -0.01228691  0.09000991 -0.02049067       0.009
  -0.00517278  0.12000839 -0.02621628       0.009
   0.00194135  0.15000687 -0.03194189       0.009
  -0.06919992 -0.14997791  0.02531422       0.009
  -0.06208580 -0.11997943  0.01958861       0.009
  -0.05497167 -0.08998095  0.01386300       0.009
  -0.04785754 -0.05998248  0.00813739       0.009
  -0.04074341 -0.02998400  0.00241177       0.009
 
 k-points in reciprocal lattice and weights: K-points file                           
   0.00000000  0.00000000  0.00000000       0.004
   0.09090909 -0.00000000 -0.00000000       0.009
   0.18181818 -0.00000000  0.00000000       0.009
   0.27272727  0.00000000  0.00000000       0.009
   0.36363636 -0.00000000  0.00000000       0.009
   0.45454545 -0.00000000 -0.00000000       0.009
   0.00000000  0.14285714  0.00000000       0.009
   0.09090909  0.14285714 -0.00000000       0.009
   0.18181818  0.14285714 -0.00000000       0.009
   0.27272727  0.14285714  0.00000000       0.009
   0.36363636  0.14285714  0.00000000       0.009
   0.45454545  0.14285714  0.00000000       0.009
  -0.45454545  0.14285714 -0.00000000       0.009
  -0.36363636  0.14285714 -0.00000000       0.009
  -0.27272727  0.14285714 -0.00000000       0.009
  -0.18181818  0.14285714 -0.00000000       0.009
  -0.09090909  0.14285714  0.00000000       0.009
  -0.00000000  0.28571429 -0.00000000       0.009
   0.09090909  0.28571429  0.00000000       0.009
   0.18181818  0.28571429 -0.00000000       0.009
   0.27272727  0.28571429 -0.00000000       0.009
   0.36363636  0.28571429  0.00000000       0.009
   0.45454545  0.28571429 -0.00000000       0.009
  -0.45454545  0.28571429 -0.00000000       0.009
  -0.36363636  0.28571429 -0.00000000       0.009
  -0.27272727  0.28571429  0.00000000       0.009
  -0.18181818  0.28571429  0.00000000       0.009
  -0.09090909  0.28571429  0.00000000       0.009
  -0.00000000  0.42857143  0.00000000       0.009
   0.09090909  0.42857143 -0.00000000       0.009
   0.18181818  0.42857143  0.00000000       0.009
   0.27272727  0.42857143  0.00000000       0.009
   0.36363636  0.42857143 -0.00000000       0.009
   0.45454545  0.42857143  0.00000000       0.009
  -0.45454545  0.42857143 -0.00000000       0.009
  -0.36363636  0.42857143 -0.00000000       0.009
  -0.27272727  0.42857143 -0.00000000       0.009
  -0.18181818  0.42857143  0.00000000       0.009
  -0.09090909  0.42857143  0.00000000       0.009
  -0.00000000 -0.00000000  0.33333333       0.009
   0.09090909 -0.00000000  0.33333333       0.009
   0.18181818 -0.00000000  0.33333333       0.009
   0.27272727 -0.00000000  0.33333333       0.009
   0.36363636 -0.00000000  0.33333333       0.009
   0.45454545 -0.00000000  0.33333333       0.009
  -0.45454545 -0.00000000  0.33333333       0.009
  -0.36363636  0.00000000  0.33333333       0.009
  -0.27272727  0.00000000  0.33333333       0.009
  -0.18181818  0.00000000  0.33333333       0.009
  -0.09090909  0.00000000  0.33333333       0.009
   0.00000000  0.14285714  0.33333333       0.009
   0.09090909  0.14285714  0.33333333       0.009
   0.18181818  0.14285714  0.33333333       0.009
   0.27272727  0.14285714  0.33333333       0.009
   0.36363636  0.14285714  0.33333333       0.009
   0.45454545  0.14285714  0.33333333       0.009
  -0.45454545  0.14285714  0.33333333       0.009
  -0.36363636  0.14285714  0.33333333       0.009
  -0.27272727  0.14285714  0.33333333       0.009
  -0.18181818  0.14285714  0.33333333       0.009
  -0.09090909  0.14285714  0.33333333       0.009
  -0.00000000  0.28571429  0.33333333       0.009
   0.09090909  0.28571429  0.33333333       0.009
   0.18181818  0.28571429  0.33333333       0.009
   0.27272727  0.28571429  0.33333333       0.009
   0.36363636  0.28571429  0.33333333       0.009
   0.45454545  0.28571429  0.33333333       0.009
  -0.45454545  0.28571429  0.33333333       0.009
  -0.36363636  0.28571429  0.33333333       0.009
  -0.27272727  0.28571429  0.33333333       0.009
  -0.18181818  0.28571429  0.33333333       0.009
  -0.09090909  0.28571429  0.33333333       0.009
  -0.00000000  0.42857143  0.33333333       0.009
   0.09090909  0.42857143  0.33333333       0.009
   0.18181818  0.42857143  0.33333333       0.009
   0.27272727  0.42857143  0.33333333       0.009
   0.36363636  0.42857143  0.33333333       0.009
   0.45454545  0.42857143  0.33333333       0.009
  -0.45454545  0.42857143  0.33333333       0.009
  -0.36363636  0.42857143  0.33333333       0.009
  -0.27272727  0.42857143  0.33333333       0.009
  -0.18181818  0.42857143  0.33333333       0.009
  -0.09090909  0.42857143  0.33333333       0.009
   0.00000000 -0.42857143  0.33333333       0.009
   0.09090909 -0.42857143  0.33333333       0.009
   0.18181818 -0.42857143  0.33333333       0.009
   0.27272727 -0.42857143  0.33333333       0.009
   0.36363636 -0.42857143  0.33333333       0.009
   0.45454545 -0.42857143  0.33333333       0.009
  -0.45454545 -0.42857143  0.33333333       0.009
  -0.36363636 -0.42857143  0.33333333       0.009
  -0.27272727 -0.42857143  0.33333333       0.009
  -0.18181818 -0.42857143  0.33333333       0.009
  -0.09090909 -0.42857143  0.33333333       0.009
   0.00000000 -0.28571429  0.33333333       0.009
   0.09090909 -0.28571429  0.33333333       0.009
   0.18181818 -0.28571429  0.33333333       0.009
   0.27272727 -0.28571429  0.33333333       0.009
   0.36363636 -0.28571429  0.33333333       0.009
   0.45454545 -0.28571429  0.33333333       0.009
  -0.45454545 -0.28571429  0.33333333       0.009
  -0.36363636 -0.28571429  0.33333333       0.009
  -0.27272727 -0.28571429  0.33333333       0.009
  -0.18181818 -0.28571429  0.33333333       0.009
  -0.09090909 -0.28571429  0.33333333       0.009
   0.00000000 -0.14285714  0.33333333       0.009
   0.09090909 -0.14285714  0.33333333       0.009
   0.18181818 -0.14285714  0.33333333       0.009
   0.27272727 -0.14285714  0.33333333       0.009
   0.36363636 -0.14285714  0.33333333       0.009
   0.45454545 -0.14285714  0.33333333       0.009
  -0.45454545 -0.14285714  0.33333333       0.009
  -0.36363636 -0.14285714  0.33333333       0.009
  -0.27272727 -0.14285714  0.33333333       0.009
  -0.18181818 -0.14285714  0.33333333       0.009
  -0.09090909 -0.14285714  0.33333333       0.009
 
 position of ions in fractional coordinates (direct lattice) 
   0.41554499  0.83369234  0.27451721
   0.58430066  0.16620046  0.72545658
   0.99990710  0.00001214  0.50000133
   0.87839449  0.75322969  0.04991365
   0.12308293  0.24690330  0.95009881
   0.63565877  0.26926767  0.14477865
   0.36425032  0.73074907  0.85519683
   0.70357567  0.40942101  0.40089162
   0.29632318  0.59060505  0.59910487
   0.50078790  0.00013050  0.99994340
   0.23995820  0.47863153  0.09042318
   0.75954722  0.52134131  0.90970661
   0.01182168  0.02271676  0.17265221
   0.98737566  0.97731899  0.82735298
   0.74654913  0.49442276  0.27238585
   0.25321648  0.50542331  0.72759960
   0.06486036  0.13188806  0.37664170
   0.93499256  0.86808898  0.62334557
   0.33593931  0.67306037  0.45296299
   0.66391338  0.32689668  0.54702637
 
 position of ions in cartesian coordinates  (Angst):
   1.31307881 -0.00617083 -4.99868418
  -5.65878673  1.51421554 -8.37489722
  -4.41277433  3.02708796 -5.49908967
   2.93578665  1.51992099 -2.33567538
  -7.28075774 -0.00729542-11.03889848
  -0.07071201  1.51731215 -2.23088145
  -4.27445535 -0.00926306-11.14301264
  -1.70349833  1.50905873 -5.38123535
  -2.64181268 -0.00105495 -7.99291195
  -8.82621839  1.51112053-11.00069314
   1.34690982  0.00109478 -2.13068111
  -5.69363664  1.50579650-11.24480737
  -1.42233611  0.00029427 -1.95342467
  -2.92300912  1.50556883-11.42084277
  -0.18810212  1.51125780 -4.16913567
  -4.15791816 -0.00338491 -9.20446315
  -2.73383973 -0.00575297 -4.45679207
  -1.61160969  1.51369194 -8.91713760
  -0.98214243 -0.00505839 -6.58074122
  -3.36341499  1.51302696 -6.79316398
 


--------------------------------------------------------------------------------------------------------


 k-point   1 :   0.0000 0.0000 0.0000  plane waves:    5747
 k-point   2 :   0.0909-0.0000-0.0000  plane waves:    5747
 k-point   3 :   0.1818-0.0000 0.0000  plane waves:    5737
 k-point   4 :   0.2727 0.0000 0.0000  plane waves:    5726
 k-point   5 :   0.3636-0.0000 0.0000  plane waves:    5715
 k-point   6 :   0.4545-0.0000-0.0000  plane waves:    5733
 k-point   7 :   0.0000 0.1429 0.0000  plane waves:    5744
 k-point   8 :   0.0909 0.1429-0.0000  plane waves:    5730
 k-point   9 :   0.1818 0.1429-0.0000  plane waves:    5744
 k-point  10 :   0.2727 0.1429 0.0000  plane waves:    5733
 k-point  11 :   0.3636 0.1429 0.0000  plane waves:    5728
 k-point  12 :   0.4545 0.1429 0.0000  plane waves:    5731
 k-point  13 :  -0.4545 0.1429-0.0000  plane waves:    5693
 k-point  14 :  -0.3636 0.1429-0.0000  plane waves:    5699
 k-point  15 :  -0.2727 0.1429-0.0000  plane waves:    5716
 k-point  16 :  -0.1818 0.1429-0.0000  plane waves:    5739
 k-point  17 :  -0.0909 0.1429 0.0000  plane waves:    5749
 k-point  18 :  -0.0000 0.2857-0.0000  plane waves:    5761
 k-point  19 :   0.0909 0.2857 0.0000  plane waves:    5750
 k-point  20 :   0.1818 0.2857-0.0000  plane waves:    5743
 k-point  21 :   0.2727 0.2857-0.0000  plane waves:    5739
 k-point  22 :   0.3636 0.2857 0.0000  plane waves:    5712
 k-point  23 :   0.4545 0.2857-0.0000  plane waves:    5733
 k-point  24 :  -0.4545 0.2857-0.0000  plane waves:    5709
 k-point  25 :  -0.3636 0.2857-0.0000  plane waves:    5703
 k-point  26 :  -0.2727 0.2857 0.0000  plane waves:    5717
 k-point  27 :  -0.1818 0.2857 0.0000  plane waves:    5743
 k-point  28 :  -0.0909 0.2857 0.0000  plane waves:    5748
 k-point  29 :  -0.0000 0.4286 0.0000  plane waves:    5763
 k-point  30 :   0.0909 0.4286-0.0000  plane waves:    5745
 k-point  31 :   0.1818 0.4286 0.0000  plane waves:    5754
 k-point  32 :   0.2727 0.4286 0.0000  plane waves:    5745
 k-point  33 :   0.3636 0.4286-0.0000  plane waves:    5721
 k-point  34 :   0.4545 0.4286 0.0000  plane waves:    5727
 k-point  35 :  -0.4545 0.4286-0.0000  plane waves:    5728
 k-point  36 :  -0.3636 0.4286-0.0000  plane waves:    5716
 k-point  37 :  -0.2727 0.4286-0.0000  plane waves:    5736
 k-point  38 :  -0.1818 0.4286 0.0000  plane waves:    5736
 k-point  39 :  -0.0909 0.4286 0.0000  plane waves:    5746
 k-point  40 :  -0.0000-0.0000 0.3333  plane waves:    5737
 k-point  41 :   0.0909-0.0000 0.3333  plane waves:    5738
 k-point  42 :   0.1818-0.0000 0.3333  plane waves:    5740
 k-point  43 :   0.2727-0.0000 0.3333  plane waves:    5727
 k-point  44 :   0.3636-0.0000 0.3333  plane waves:    5713
 k-point  45 :   0.4545-0.0000 0.3333  plane waves:    5726
 k-point  46 :  -0.4545-0.0000 0.3333  plane waves:    5721
 k-point  47 :  -0.3636 0.0000 0.3333  plane waves:    5720
 k-point  48 :  -0.2727 0.0000 0.3333  plane waves:    5712
 k-point  49 :  -0.1818 0.0000 0.3333  plane waves:    5746
 k-point  50 :  -0.0909 0.0000 0.3333  plane waves:    5743
 k-point  51 :   0.0000 0.1429 0.3333  plane waves:    5725
 k-point  52 :   0.0909 0.1429 0.3333  plane waves:    5742
 k-point  53 :   0.1818 0.1429 0.3333  plane waves:    5742
 k-point  54 :   0.2727 0.1429 0.3333  plane waves:    5724
 k-point  55 :   0.3636 0.1429 0.3333  plane waves:    5730
 k-point  56 :   0.4545 0.1429 0.3333  plane waves:    5726
 k-point  57 :  -0.4545 0.1429 0.3333  plane waves:    5708
 k-point  58 :  -0.3636 0.1429 0.3333  plane waves:    5708
 k-point  59 :  -0.2727 0.1429 0.3333  plane waves:    5727
 k-point  60 :  -0.1818 0.1429 0.3333  plane waves:    5733
 k-point  61 :  -0.0909 0.1429 0.3333  plane waves:    5739
 k-point  62 :  -0.0000 0.2857 0.3333  plane waves:    5756
 k-point  63 :   0.0909 0.2857 0.3333  plane waves:    5760
 k-point  64 :   0.1818 0.2857 0.3333  plane waves:    5744
 k-point  65 :   0.2727 0.2857 0.3333  plane waves:    5745
 k-point  66 :   0.3636 0.2857 0.3333  plane waves:    5730
 k-point  67 :   0.4545 0.2857 0.3333  plane waves:    5717
 k-point  68 :  -0.4545 0.2857 0.3333  plane waves:    5701
 k-point  69 :  -0.3636 0.2857 0.3333  plane waves:    5703
 k-point  70 :  -0.2727 0.2857 0.3333  plane waves:    5724
 k-point  71 :  -0.1818 0.2857 0.3333  plane waves:    5744
 k-point  72 :  -0.0909 0.2857 0.3333  plane waves:    5751
 k-point  73 :  -0.0000 0.4286 0.3333  plane waves:    5762
 k-point  74 :   0.0909 0.4286 0.3333  plane waves:    5754
 k-point  75 :   0.1818 0.4286 0.3333  plane waves:    5733
 k-point  76 :   0.2727 0.4286 0.3333  plane waves:    5746
 k-point  77 :   0.3636 0.4286 0.3333  plane waves:    5714
 k-point  78 :   0.4545 0.4286 0.3333  plane waves:    5724
 k-point  79 :  -0.4545 0.4286 0.3333  plane waves:    5719
 k-point  80 :  -0.3636 0.4286 0.3333  plane waves:    5728
 k-point  81 :  -0.2727 0.4286 0.3333  plane waves:    5735
 k-point  82 :  -0.1818 0.4286 0.3333  plane waves:    5739
 k-point  83 :  -0.0909 0.4286 0.3333  plane waves:    5761
 k-point  84 :   0.0000-0.4286 0.3333  plane waves:    5761
 k-point  85 :   0.0909-0.4286 0.3333  plane waves:    5755
 k-point  86 :   0.1818-0.4286 0.3333  plane waves:    5742
 k-point  87 :   0.2727-0.4286 0.3333  plane waves:    5727
 k-point  88 :   0.3636-0.4286 0.3333  plane waves:    5720
 k-point  89 :   0.4545-0.4286 0.3333  plane waves:    5718
 k-point  90 :  -0.4545-0.4286 0.3333  plane waves:    5720
 k-point  91 :  -0.3636-0.4286 0.3333  plane waves:    5729
 k-point  92 :  -0.2727-0.4286 0.3333  plane waves:    5749
 k-point  93 :  -0.1818-0.4286 0.3333  plane waves:    5736
 k-point  94 :  -0.0909-0.4286 0.3333  plane waves:    5750
 k-point  95 :   0.0000-0.2857 0.3333  plane waves:    5764
 k-point  96 :   0.0909-0.2857 0.3333  plane waves:    5752
 k-point  97 :   0.1818-0.2857 0.3333  plane waves:    5741
 k-point  98 :   0.2727-0.2857 0.3333  plane waves:    5712
 k-point  99 :   0.3636-0.2857 0.3333  plane waves:    5707
 k-point 100 :   0.4545-0.2857 0.3333  plane waves:    5707
 k-point 101 :  -0.4545-0.2857 0.3333  plane waves:    5721
 k-point 102 :  -0.3636-0.2857 0.3333  plane waves:    5725
 k-point 103 :  -0.2727-0.2857 0.3333  plane waves:    5742
 k-point 104 :  -0.1818-0.2857 0.3333  plane waves:    5749
 k-point 105 :  -0.0909-0.2857 0.3333  plane waves:    5760
 k-point 106 :   0.0000-0.1429 0.3333  plane waves:    5730
 k-point 107 :   0.0909-0.1429 0.3333  plane waves:    5741
 k-point 108 :   0.1818-0.1429 0.3333  plane waves:    5741
 k-point 109 :   0.2727-0.1429 0.3333  plane waves:    5721
 k-point 110 :   0.3636-0.1429 0.3333  plane waves:    5701
 k-point 111 :   0.4545-0.1429 0.3333  plane waves:    5702
 k-point 112 :  -0.4545-0.1429 0.3333  plane waves:    5721
 k-point 113 :  -0.3636-0.1429 0.3333  plane waves:    5714
 k-point 114 :  -0.2727-0.1429 0.3333  plane waves:    5730
 k-point 115 :  -0.1818-0.1429 0.3333  plane waves:    5745
 k-point 116 :  -0.0909-0.1429 0.3333  plane waves:    5748

 maximum and minimum number of plane-waves per node :      1457     1408

 maximum number of plane-waves:      5764
 maximum index in each direction: 
   IXMAX=    6   IYMAX=   10   IZMAX=   26
   IXMIN=   -6   IYMIN=  -10   IZMIN=  -26


 real space projection operators:
  total allocation   :      10103.19 KBytes
  max/ min on nodes  :       2537.89       2518.56


 parallel 3D FFT for wavefunctions:
    minimum data exchange during FFTs selected (reduces bandwidth)
 parallel 3D FFT for charge:
    minimum data exchange during FFTs selected (reduces bandwidth)


 total amount of memory used by VASP MPI-rank0   417887. kBytes
=======================================================================

   base      :      30000. kBytes
   nonlr-proj:       5852. kBytes
   fftplans  :       4270. kBytes
   grid      :      14607. kBytes
   one-center:        155. kBytes
   wavefun   :     363003. kBytes
 
     INWAV:  cpu time    0.0000: real time    0.0000
 Broyden mixing: mesh for mixing (old mesh)
   NGX = 11   NGY = 19   NGZ = 53
  (NGX  = 48   NGY  = 80   NGZ  =216)
  gives a total of  11077 points

 initial charge density was supplied:
 number of electron     184.0000000 magnetization      32.0000006
 keeping initial charge density in first step


--------------------------------------------------------------------------------------------------------


 Maximum index for non-local projection operator         1962
 Maximum index for augmentation-charges         2806 (set IRDMAX)


--------------------------------------------------------------------------------------------------------


 First call to EWALD:  gamma=   0.297
 Maximum number of real-space cells 5x 3x 1
 Maximum number of reciprocal cells 2x 2x 6

    FEWALD:  cpu time    0.0010: real time    0.0010


--------------------------------------- Iteration      1(   1)  ---------------------------------------


    POTLOK:  cpu time    0.2460: real time    0.2460
    SETDIJ:  cpu time    1.5691: real time    1.5691
atom =   3  type =  2  l = 2
 
 onsite density matrix
 
spin component  1
 
  0.9673 -0.0110 -0.0000 -0.0000 -0.0000
 -0.0110  0.9699  0.0000 -0.0001  0.0000
 -0.0000  0.0000  0.9519  0.0024 -0.0072
 -0.0000 -0.0001  0.0024  0.9836  0.0207
 -0.0000  0.0000 -0.0072  0.0207  0.9630
 
spin component  2
 
  0.0427 -0.0127 -0.0007  0.0002 -0.0007
 -0.0127  0.0431 -0.0007  0.0002 -0.0007
 -0.0007 -0.0007  0.4622 -0.2049  0.3527
  0.0002  0.0002 -0.2049  0.1977 -0.1115
 -0.0007 -0.0007  0.3527 -0.1115  0.3818
 
 occupancies and eigenvectors
 
  o =  0.0302  v =  0.0000  0.0000  0.0000  0.0000  0.0000  0.7121  0.7021  0.0030  0.0021  0.0004      0.0000  0.0000  0.0000  0.0000  0.0000  0.0000  0.0000  0.0000  0.0000  0.0000
  o =  0.0361  v =  0.0000  0.0000  0.0000  0.0000  0.0000  0.0023  0.0018 -0.6828 -0.4952  0.5371      0.0000  0.0000  0.0000  0.0000  0.0000  0.0000  0.0000  0.0000  0.0000  0.0000
  o =  0.0556  v =  0.0000  0.0000  0.0000  0.0000  0.0000  0.7021 -0.7121  0.0003 -0.0001 -0.0004      0.0000  0.0000  0.0000  0.0000  0.0000  0.0000  0.0000  0.0000  0.0000  0.0000
  o =  0.1498  v =  0.0000  0.0000  0.0000  0.0000  0.0000  0.0008  0.0013  0.1273 -0.8046 -0.5800      0.0000  0.0000  0.0000  0.0000  0.0000  0.0000  0.0000  0.0000  0.0000  0.0000
  o =  0.8558  v =  0.0000  0.0000  0.0000  0.0000  0.0000 -0.0012 -0.0012  0.7194 -0.3277  0.6125      0.0000  0.0000  0.0000  0.0000  0.0000  0.0000  0.0000  0.0000  0.0000  0.0000
  o =  0.9436  v = -0.0007 -0.0026  0.6666 -0.3736  0.6450  0.0000  0.0000  0.0000  0.0000  0.0000      0.0000  0.0000  0.0000  0.0000  0.0000  0.0000  0.0000  0.0000  0.0000  0.0000
  o =  0.9576  v =  0.7473  0.6645 -0.0005 -0.0003  0.0038  0.0000  0.0000  0.0000  0.0000  0.0000      0.0000  0.0000  0.0000  0.0000  0.0000  0.0000  0.0000  0.0000  0.0000  0.0000
  o =  0.9584  v = -0.0018 -0.0019 -0.7443 -0.3803  0.5489  0.0000  0.0000  0.0000  0.0000  0.0000      0.0000  0.0000  0.0000  0.0000  0.0000  0.0000  0.0000  0.0000  0.0000  0.0000
  o =  0.9797  v = -0.6645  0.7473  0.0007  0.0012  0.0022  0.0000  0.0000  0.0000  0.0000  0.0000      0.0000  0.0000  0.0000  0.0000  0.0000  0.0000  0.0000  0.0000  0.0000  0.0000
  o =  0.9966  v =  0.0001 -0.0028 -0.0402  0.8460  0.5316  0.0000  0.0000  0.0000  0.0000  0.0000      0.0000  0.0000  0.0000  0.0000  0.0000  0.0000  0.0000  0.0000  0.0000  0.0000
atom =   4  type =  2  l = 2
 
 onsite density matrix
 
spin component  1
 
  0.9858 -0.0031  0.0000  0.0000 -0.0001
 -0.0031  0.9568 -0.0001 -0.0003 -0.0008
  0.0000 -0.0001  0.9977  0.0022 -0.0009
  0.0000 -0.0003  0.0022  0.9567 -0.0025
 -0.0001 -0.0008 -0.0009 -0.0025  0.9480
 
spin component  2
 
  0.0735 -0.0071  0.0003  0.0012  0.0028
 -0.0071  0.0317  0.0010  0.0049  0.0149
  0.0003  0.0010  0.1383  0.0100  0.0308
  0.0012  0.0049  0.0100  0.1214  0.2491
  0.0028  0.0149  0.0308  0.2491  0.7529
 
 occupancies and eigenvectors
 
  o =  0.0302  v =  0.0000  0.0000  0.0000  0.0000  0.0000 -0.1640 -0.9854  0.0032 -0.0328  0.0321      0.0000  0.0000  0.0000  0.0000  0.0000  0.0000  0.0000  0.0000  0.0000  0.0000
  o =  0.0350  v =  0.0000  0.0000  0.0000  0.0000  0.0000  0.0123  0.0400 -0.0064 -0.9441  0.3269      0.0000  0.0000  0.0000  0.0000  0.0000  0.0000  0.0000  0.0000  0.0000  0.0000
  o =  0.0747  v =  0.0000  0.0000  0.0000  0.0000  0.0000  0.9864 -0.1645 -0.0019  0.0051 -0.0023      0.0000  0.0000  0.0000  0.0000  0.0000  0.0000  0.0000  0.0000  0.0000  0.0000
  o =  0.1368  v =  0.0000  0.0000  0.0000  0.0000  0.0000 -0.0023 -0.0022 -0.9989  0.0210  0.0416      0.0000  0.0000  0.0000  0.0000  0.0000  0.0000  0.0000  0.0000  0.0000  0.0000
  o =  0.8411  v =  0.0000  0.0000  0.0000  0.0000  0.0000 -0.0038 -0.0194 -0.0461 -0.3273 -0.9436      0.0000  0.0000  0.0000  0.0000  0.0000  0.0000  0.0000  0.0000  0.0000  0.0000
  o =  0.9473  v = -0.0105 -0.0973 -0.0065 -0.2588 -0.9609  0.0000  0.0000  0.0000  0.0000  0.0000      0.0000  0.0000  0.0000  0.0000  0.0000  0.0000  0.0000  0.0000  0.0000  0.0000
  o =  0.9565  v =  0.1043  0.9845 -0.0049  0.0729 -0.1205  0.0000  0.0000  0.0000  0.0000  0.0000      0.0000  0.0000  0.0000  0.0000  0.0000  0.0000  0.0000  0.0000  0.0000  0.0000
  o =  0.9573  v =  0.0124  0.1005  0.0580 -0.9616  0.2483  0.0000  0.0000  0.0000  0.0000  0.0000      0.0000  0.0000  0.0000  0.0000  0.0000  0.0000  0.0000  0.0000  0.0000  0.0000
  o =  0.9861  v = -0.9944  0.1055  0.0032 -0.0015  0.0005  0.0000  0.0000  0.0000  0.0000  0.0000      0.0000  0.0000  0.0000  0.0000  0.0000  0.0000  0.0000  0.0000  0.0000  0.0000
  o =  0.9979  v =  0.0029 -0.0020  0.9983  0.0546 -0.0213  0.0000  0.0000  0.0000  0.0000  0.0000      0.0000  0.0000  0.0000  0.0000  0.0000  0.0000  0.0000  0.0000  0.0000  0.0000
atom =   5  type =  2  l = 2
 
 onsite density matrix
 
spin component  1
 
  0.9859 -0.0032 -0.0002 -0.0001  0.0002
 -0.0032  0.9567 -0.0001  0.0005  0.0012
 -0.0002 -0.0001  0.9977  0.0022 -0.0008
 -0.0001  0.0005  0.0022  0.9567 -0.0025
  0.0002  0.0012 -0.0008 -0.0025  0.9483
 
spin component  2
 
  0.0741 -0.0068 -0.0012 -0.0032 -0.0064
 -0.0068  0.0367 -0.0033 -0.0222 -0.0609
 -0.0012 -0.0033  0.1380  0.0095  0.0284
 -0.0032 -0.0222  0.0095  0.1272  0.2549
 -0.0064 -0.0609  0.0284  0.2549  0.7407
 
 occupancies and eigenvectors
 
  o =  0.0302  v =  0.0000  0.0000  0.0000  0.0000  0.0000 -0.1672 -0.9797 -0.0101 -0.0984 -0.0498      0.0000  0.0000  0.0000  0.0000  0.0000  0.0000  0.0000  0.0000  0.0000  0.0000
  o =  0.0351  v =  0.0000  0.0000  0.0000  0.0000  0.0000 -0.0065  0.0776 -0.0065 -0.9354  0.3448      0.0000  0.0000  0.0000  0.0000  0.0000  0.0000  0.0000  0.0000  0.0000  0.0000
  o =  0.0753  v =  0.0000  0.0000  0.0000  0.0000  0.0000  0.9858 -0.1665  0.0132 -0.0202  0.0014      0.0000  0.0000  0.0000  0.0000  0.0000  0.0000  0.0000  0.0000  0.0000  0.0000
  o =  0.1367  v =  0.0000  0.0000  0.0000  0.0000  0.0000  0.0144  0.0037 -0.9989  0.0213  0.0384      0.0000  0.0000  0.0000  0.0000  0.0000  0.0000  0.0000  0.0000  0.0000  0.0000
  o =  0.8394  v =  0.0000  0.0000  0.0000  0.0000  0.0000 -0.0085 -0.0805  0.0428  0.3383  0.9366      0.0000  0.0000  0.0000  0.0000  0.0000  0.0000  0.0000  0.0000  0.0000  0.0000
  o =  0.9474  v = -0.0148 -0.1395  0.0040  0.2656  0.9538  0.0000  0.0000  0.0000  0.0000  0.0000      0.0000  0.0000  0.0000  0.0000  0.0000  0.0000  0.0000  0.0000  0.0000  0.0000
  o =  0.9565  v =  0.1035  0.9729  0.0131 -0.1104  0.1746  0.0000  0.0000  0.0000  0.0000  0.0000      0.0000  0.0000  0.0000  0.0000  0.0000  0.0000  0.0000  0.0000  0.0000  0.0000
  o =  0.9573  v = -0.0200 -0.1508  0.0570 -0.9562  0.2436  0.0000  0.0000  0.0000  0.0000  0.0000      0.0000  0.0000  0.0000  0.0000  0.0000  0.0000  0.0000  0.0000  0.0000  0.0000
  o =  0.9863  v = -0.9942  0.1064 -0.0140  0.0030 -0.0007  0.0000  0.0000  0.0000  0.0000  0.0000      0.0000  0.0000  0.0000  0.0000  0.0000  0.0000  0.0000  0.0000  0.0000  0.0000
  o =  0.9979  v =  0.0141  0.0021 -0.9982 -0.0550  0.0200  0.0000  0.0000  0.0000  0.0000  0.0000      0.0000  0.0000  0.0000  0.0000  0.0000  0.0000  0.0000  0.0000  0.0000  0.0000
atom =   6  type =  2  l = 2
 
 onsite density matrix
 
spin component  1
 
  1.0084 -0.0028  0.0001  0.0001  0.0000
 -0.0028  0.9702  0.0001 -0.0000  0.0000
  0.0001  0.0001  1.0072  0.0033  0.0024
  0.0001 -0.0000  0.0033  0.9689 -0.0000
  0.0000  0.0000  0.0024 -0.0000  0.9666
 
spin component  2
 
  0.2176 -0.0124  0.0001  0.0007 -0.0002
 -0.0124  0.0833  0.0000  0.0002 -0.0004
  0.0001  0.0000  0.2187  0.0205  0.0082
  0.0007  0.0002  0.0205  0.0794 -0.0055
 -0.0002 -0.0004  0.0082 -0.0055  0.1002
 
 occupancies and eigenvectors
 
  o =  0.0747  v =  0.0000  0.0000  0.0000  0.0000  0.0000  0.0063  0.0227  0.1505 -0.9550 -0.2546      0.0000  0.0000  0.0000  0.0000  0.0000  0.0000  0.0000  0.0000  0.0000  0.0000
  o =  0.0822  v =  0.0000  0.0000  0.0000  0.0000  0.0000 -0.0913 -0.9952  0.0045 -0.0153 -0.0313      0.0000  0.0000  0.0000  0.0000  0.0000  0.0000  0.0000  0.0000  0.0000  0.0000
  o =  0.1015  v =  0.0000  0.0000  0.0000  0.0000  0.0000  0.0003 -0.0264 -0.0215 -0.2612  0.9647      0.0000  0.0000  0.0000  0.0000  0.0000  0.0000  0.0000  0.0000  0.0000  0.0000
  o =  0.2187  v =  0.0000  0.0000  0.0000  0.0000  0.0000 -0.9943  0.0913  0.0543  0.0029  0.0048      0.0000  0.0000  0.0000  0.0000  0.0000  0.0000  0.0000  0.0000  0.0000  0.0000
  o =  0.2221  v =  0.0000  0.0000  0.0000  0.0000  0.0000  0.0542 -0.0046  0.9869  0.1398  0.0597      0.0000  0.0000  0.0000  0.0000  0.0000  0.0000  0.0000  0.0000  0.0000  0.0000
  o =  0.9665  v = -0.0001  0.0017 -0.0664  0.0960  0.9932  0.0000  0.0000  0.0000  0.0000  0.0000      0.0000  0.0000  0.0000  0.0000  0.0000  0.0000  0.0000  0.0000  0.0000  0.0000
  o =  0.9686  v =  0.0004  0.0226 -0.0780  0.9916 -0.1011  0.0000  0.0000  0.0000  0.0000  0.0000      0.0000  0.0000  0.0000  0.0000  0.0000  0.0000  0.0000  0.0000  0.0000  0.0000
  o =  0.9700  v = -0.0740 -0.9970  0.0000  0.0227 -0.0005  0.0000  0.0000  0.0000  0.0000  0.0000      0.0000  0.0000  0.0000  0.0000  0.0000  0.0000  0.0000  0.0000  0.0000  0.0000
  o =  1.0076  v =  0.0582 -0.0062 -0.9930 -0.0839 -0.0583  0.0000  0.0000  0.0000  0.0000  0.0000      0.0000  0.0000  0.0000  0.0000  0.0000  0.0000  0.0000  0.0000  0.0000  0.0000
  o =  1.0086  v = -0.9956  0.0737 -0.0581 -0.0062 -0.0036  0.0000  0.0000  0.0000  0.0000  0.0000      0.0000  0.0000  0.0000  0.0000  0.0000  0.0000  0.0000  0.0000  0.0000  0.0000
atom =   7  type =  2  l = 2
 
 onsite density matrix
 
spin component  1
 
  1.0083 -0.0028  0.0000  0.0000  0.0000
 -0.0028  0.9702  0.0000  0.0000 -0.0000
  0.0000  0.0000  1.0072  0.0032  0.0024
  0.0000  0.0000  0.0032  0.9689 -0.0000
  0.0000 -0.0000  0.0024 -0.0000  0.9666
 
spin component  2
 
  0.2173 -0.0124  0.0000 -0.0002  0.0007
 -0.0124  0.0834  0.0007 -0.0011  0.0005
  0.0000  0.0007  0.2186  0.0205  0.0080
 -0.0002 -0.0011  0.0205  0.0794 -0.0054
  0.0007  0.0005  0.0080 -0.0054  0.1009
 
 occupancies and eigenvectors
 
  o =  0.0747  v =  0.0000  0.0000  0.0000  0.0000  0.0000 -0.0119 -0.1313  0.1491 -0.9502 -0.2397      0.0000  0.0000  0.0000  0.0000  0.0000  0.0000  0.0000  0.0000  0.0000  0.0000
  o =  0.0823  v =  0.0000  0.0000  0.0000  0.0000  0.0000  0.0906  0.9863  0.0164 -0.1170 -0.0709      0.0000  0.0000  0.0000  0.0000  0.0000  0.0000  0.0000  0.0000  0.0000  0.0000
  o =  0.1021  v =  0.0000  0.0000  0.0000  0.0000  0.0000 -0.0018  0.0400 -0.0218 -0.2528  0.9664      0.0000  0.0000  0.0000  0.0000  0.0000  0.0000  0.0000  0.0000  0.0000  0.0000
  o =  0.2184  v =  0.0000  0.0000  0.0000  0.0000  0.0000 -0.9958  0.0912 -0.0033  0.0007 -0.0055      0.0000  0.0000  0.0000  0.0000  0.0000  0.0000  0.0000  0.0000  0.0000  0.0000
  o =  0.2219  v =  0.0000  0.0000  0.0000  0.0000  0.0000  0.0031 -0.0046 -0.9884 -0.1397 -0.0587      0.0000  0.0000  0.0000  0.0000  0.0000  0.0000  0.0000  0.0000  0.0000  0.0000
  o =  0.9665  v = -0.0002  0.0057 -0.0662  0.0965  0.9931  0.0000  0.0000  0.0000  0.0000  0.0000      0.0000  0.0000  0.0000  0.0000  0.0000  0.0000  0.0000  0.0000  0.0000  0.0000
  o =  0.9686  v =  0.0017  0.0114  0.0771 -0.9918  0.1014  0.0000  0.0000  0.0000  0.0000  0.0000      0.0000  0.0000  0.0000  0.0000  0.0000  0.0000  0.0000  0.0000  0.0000  0.0000
  o =  0.9700  v = -0.0738 -0.9972  0.0013 -0.0108  0.0068  0.0000  0.0000  0.0000  0.0000  0.0000      0.0000  0.0000  0.0000  0.0000  0.0000  0.0000  0.0000  0.0000  0.0000  0.0000
  o =  1.0076  v =  0.0244 -0.0026 -0.9945 -0.0832 -0.0582  0.0000  0.0000  0.0000  0.0000  0.0000      0.0000  0.0000  0.0000  0.0000  0.0000  0.0000  0.0000  0.0000  0.0000  0.0000
  o =  1.0085  v = -0.9970  0.0738 -0.0243 -0.0029 -0.0019  0.0000  0.0000  0.0000  0.0000  0.0000      0.0000  0.0000  0.0000  0.0000  0.0000  0.0000  0.0000  0.0000  0.0000  0.0000
atom =   8  type =  2  l = 2
 
 onsite density matrix
 
spin component  1
 
  0.9867 -0.0195 -0.0000 -0.0000 -0.0000
 -0.0195  0.9937  0.0000 -0.0000 -0.0000
 -0.0000  0.0000  0.9688  0.0051  0.0022
 -0.0000 -0.0000  0.0051  0.9963  0.0197
 -0.0000 -0.0000  0.0022  0.0197  0.9814
 
spin component  2
 
  0.1449 -0.0709 -0.0001  0.0000  0.0000
 -0.0709  0.1634  0.0000  0.0000 -0.0001
 -0.0001  0.0000  0.0733  0.0235  0.0157
  0.0000  0.0000  0.0235  0.1864  0.0722
  0.0000 -0.0001  0.0157  0.0722  0.1213
 
 occupancies and eigenvectors
 
  o =  0.0684  v =  0.0000  0.0000  0.0000  0.0000  0.0000 -0.0057 -0.0041 -0.9839  0.1104  0.1404      0.0000  0.0000  0.0000  0.0000  0.0000  0.0000  0.0000  0.0000  0.0000  0.0000
  o =  0.0746  v =  0.0000  0.0000  0.0000  0.0000  0.0000  0.0034  0.0036  0.0571 -0.5504  0.8329      0.0000  0.0000  0.0000  0.0000  0.0000  0.0000  0.0000  0.0000  0.0000  0.0000
  o =  0.0826  v =  0.0000  0.0000  0.0000  0.0000  0.0000  0.7514  0.6598 -0.0072  0.0035 -0.0030      0.0000  0.0000  0.0000  0.0000  0.0000  0.0000  0.0000  0.0000  0.0000  0.0000
  o =  0.2256  v =  0.0000  0.0000  0.0000  0.0000  0.0000 -0.6599  0.7514  0.0013  0.0031  0.0014      0.0000  0.0000  0.0000  0.0000  0.0000  0.0000  0.0000  0.0000  0.0000  0.0000
  o =  0.2379  v =  0.0000  0.0000  0.0000  0.0000  0.0000  0.0023 -0.0027  0.1693  0.8275  0.5353      0.0000  0.0000  0.0000  0.0000  0.0000  0.0000  0.0000  0.0000  0.0000  0.0000
  o =  0.9668  v =  0.0026  0.0012  0.6620 -0.4926  0.5649  0.0000  0.0000  0.0000  0.0000  0.0000      0.0000  0.0000  0.0000  0.0000  0.0000  0.0000  0.0000  0.0000  0.0000  0.0000
  o =  0.9691  v =  0.0020  0.0027 -0.7383 -0.2988  0.6047  0.0000  0.0000  0.0000  0.0000  0.0000      0.0000  0.0000  0.0000  0.0000  0.0000  0.0000  0.0000  0.0000  0.0000  0.0000
  o =  0.9704  v =  0.7676  0.6410  0.0007  0.0027 -0.0033  0.0000  0.0000  0.0000  0.0000  0.0000      0.0000  0.0000  0.0000  0.0000  0.0000  0.0000  0.0000  0.0000  0.0000  0.0000
  o =  1.0100  v = -0.6410  0.7676  0.0006 -0.0028 -0.0020  0.0000  0.0000  0.0000  0.0000  0.0000      0.0000  0.0000  0.0000  0.0000  0.0000  0.0000  0.0000  0.0000  0.0000  0.0000
  o =  1.0106  v =  0.0025 -0.0023 -0.1291 -0.8174 -0.5614  0.0000  0.0000  0.0000  0.0000  0.0000      0.0000  0.0000  0.0000  0.0000  0.0000  0.0000  0.0000  0.0000  0.0000  0.0000
atom =   9  type =  2  l = 2
 
 onsite density matrix
 
spin component  1
 
  0.9867 -0.0195 -0.0000 -0.0000 -0.0000
 -0.0195  0.9937  0.0000 -0.0000 -0.0000
 -0.0000  0.0000  0.9688  0.0051  0.0022
 -0.0000 -0.0000  0.0051  0.9963  0.0197
 -0.0000 -0.0000  0.0022  0.0197  0.9814
 
spin component  2
 
  0.1449 -0.0709 -0.0001  0.0001  0.0001
 -0.0709  0.1634  0.0001  0.0001 -0.0001
 -0.0001  0.0001  0.0733  0.0235  0.0156
  0.0001  0.0001  0.0235  0.1863  0.0722
  0.0001 -0.0001  0.0156  0.0722  0.1213
 
 occupancies and eigenvectors
 
  o =  0.0684  v =  0.0000  0.0000  0.0000  0.0000  0.0000 -0.0015 -0.0005 -0.9839  0.1108  0.1399      0.0000  0.0000  0.0000  0.0000  0.0000  0.0000  0.0000  0.0000  0.0000  0.0000
  o =  0.0747  v =  0.0000  0.0000  0.0000  0.0000  0.0000 -0.0068 -0.0066 -0.0564  0.5505 -0.8328      0.0000  0.0000  0.0000  0.0000  0.0000  0.0000  0.0000  0.0000  0.0000  0.0000
  o =  0.0826  v =  0.0000  0.0000  0.0000  0.0000  0.0000  0.7513  0.6599 -0.0021  0.0046 -0.0082      0.0000  0.0000  0.0000  0.0000  0.0000  0.0000  0.0000  0.0000  0.0000  0.0000
  o =  0.2257  v =  0.0000  0.0000  0.0000  0.0000  0.0000 -0.6600  0.7513  0.0012  0.0031  0.0014      0.0000  0.0000  0.0000  0.0000  0.0000  0.0000  0.0000  0.0000  0.0000  0.0000
  o =  0.2379  v =  0.0000  0.0000  0.0000  0.0000  0.0000  0.0030 -0.0020  0.1693  0.8274  0.5355      0.0000  0.0000  0.0000  0.0000  0.0000  0.0000  0.0000  0.0000  0.0000  0.0000
  o =  0.9668  v =  0.0027  0.0013  0.6631 -0.4921  0.5640  0.0000  0.0000  0.0000  0.0000  0.0000      0.0000  0.0000  0.0000  0.0000  0.0000  0.0000  0.0000  0.0000  0.0000  0.0000
[...]
 -0.003   0.009  -0.000   0.006  -0.009   0.000  -0.011   0.017
 -0.001  -0.000  -0.011  -0.001  -0.001   0.011   0.001   0.001
  0.000   0.000   0.008  -0.000  -0.001  -0.008   0.000   0.001
 -0.022   0.004   0.000  -0.008   0.007  -0.000   0.008  -0.008
 -0.025   0.002  -0.001  -0.009   0.023   0.001   0.011  -0.025
 -0.002   0.005  -0.001   0.007  -0.011   0.000  -0.009   0.013
 pseudopotential strength for first ion, spin component:           2
-17.844  -4.526  -0.000   0.009  -0.014  -0.000  -0.001   0.002
 -4.526  -2.312   0.000   0.003  -0.005   0.001  -0.013   0.020
 -0.000   0.000 -18.548   0.000  -0.000   5.453  -0.000   0.000
  0.009   0.003   0.000 -18.572  -0.020  -0.000   5.461   0.014
 -0.014  -0.005  -0.000  -0.020 -18.544   0.000   0.014   5.442
 -0.000   0.001   5.453  -0.000   0.000   9.441   0.001   0.001
 -0.001  -0.013  -0.000   5.461   0.014   0.001   9.516   0.023
  0.002   0.020   0.000   0.014   5.442   0.001   0.023   9.483
 -0.000   0.000  -0.010  -0.000  -0.000   0.023   0.000   0.001
  0.000   0.000   0.007   0.000  -0.000  -0.015   0.000   0.000
 -0.016   0.007   0.000  -0.003   0.006  -0.000   0.001  -0.014
 -0.021   0.004  -0.000  -0.008   0.015   0.000   0.020  -0.031
  0.001   0.007  -0.000   0.004  -0.009  -0.000  -0.008   0.021
 -0.000   0.000  -0.012  -0.000  -0.000   0.014   0.000   0.001
  0.000   0.000   0.008   0.000  -0.000  -0.009   0.000   0.000
 -0.018   0.003   0.000  -0.003   0.008  -0.000   0.000  -0.009
 -0.024   0.001  -0.000  -0.010   0.018   0.000   0.013  -0.021
  0.002   0.005  -0.000   0.005  -0.011   0.000  -0.006   0.015
 total augmentation occupancy for first ion, spin component:           1
  2.004   0.011   0.000  -0.001   0.001   0.000  -0.001   0.002   0.000  -0.000   0.001   0.003  -0.002   0.000   0.000   0.001
  0.011   0.517   0.000  -0.007   0.012  -0.001   0.006  -0.011  -0.001  -0.002  -0.093  -0.083  -0.043   0.000   0.001   0.053
  0.000   0.000   2.009  -0.000  -0.000   0.003   0.000   0.000   0.003  -0.003  -0.000   0.000   0.000   0.002  -0.001   0.000
 -0.001  -0.007  -0.000   2.008   0.000   0.000   0.006   0.003   0.000   0.000   0.013   0.003  -0.009  -0.000   0.000  -0.005
  0.001   0.012  -0.000   0.000   2.008   0.000   0.003   0.001   0.000   0.000  -0.003  -0.020   0.006  -0.000  -0.000  -0.000
  0.000  -0.001   0.003   0.000   0.000   0.040  -0.000  -0.000  -0.019   0.013   0.000  -0.000  -0.000   0.010  -0.007  -0.000
 -0.001   0.006   0.000   0.006   0.003  -0.000   0.027  -0.005  -0.000  -0.000  -0.036  -0.001   0.015   0.000   0.000   0.021
  0.002  -0.011   0.000   0.003   0.001  -0.000  -0.005   0.035  -0.001  -0.000   0.009   0.043   0.000   0.001   0.000  -0.005
  0.000  -0.001   0.003   0.000   0.000  -0.019  -0.000  -0.001   0.576  -0.112   0.001  -0.002  -0.000  -0.333   0.066  -0.000
 -0.000  -0.002  -0.003   0.000   0.000   0.013  -0.000  -0.000  -0.112   0.427   0.000  -0.000  -0.000   0.066  -0.246  -0.000
  0.001  -0.093  -0.000   0.013  -0.003   0.000  -0.036   0.009   0.001   0.000   0.274  -0.012  -0.030  -0.000  -0.000  -0.158
  0.003  -0.083   0.000   0.003  -0.020  -0.000  -0.001   0.043  -0.002  -0.000  -0.012   0.278   0.037   0.001   0.000   0.008
 -0.002  -0.043   0.000  -0.009   0.006  -0.000   0.015   0.000  -0.000  -0.000  -0.030   0.037   0.212   0.000   0.000   0.018
  0.000   0.000   0.002  -0.000  -0.000   0.010   0.000   0.001  -0.333   0.066  -0.000   0.001   0.000   0.195  -0.039   0.000
  0.000   0.001  -0.001   0.000  -0.000  -0.007   0.000   0.000   0.066  -0.246  -0.000   0.000   0.000  -0.039   0.143   0.000
  0.001   0.053   0.000  -0.005  -0.000  -0.000   0.021  -0.005  -0.000  -0.000  -0.158   0.008   0.018   0.000   0.000   0.092
  0.001   0.047  -0.000   0.000   0.006   0.000   0.000  -0.024   0.001   0.000   0.008  -0.158  -0.022  -0.001  -0.000  -0.005
  0.001   0.025  -0.000   0.003  -0.002   0.000  -0.009  -0.001   0.000   0.000   0.018  -0.022  -0.120  -0.000  -0.000  -0.011
 total augmentation occupancy for first ion, spin component:           2
 -0.000  -0.002  -0.000   0.000  -0.000  -0.000   0.000  -0.000   0.000  -0.000  -0.000  -0.000   0.000  -0.000   0.000   0.000
 -0.002   0.020  -0.000   0.000  -0.000  -0.000   0.000  -0.001  -0.000   0.000  -0.001   0.002  -0.005   0.000  -0.000   0.001
 -0.000  -0.000   0.000  -0.000   0.000  -0.001  -0.000   0.000   0.000  -0.000  -0.000   0.000   0.000  -0.000   0.000   0.000
  0.000   0.000  -0.000   0.000  -0.000  -0.000  -0.000  -0.000   0.000   0.000  -0.000   0.000   0.000   0.000  -0.000   0.000
 -0.000  -0.000   0.000  -0.000   0.000   0.000  -0.000  -0.000   0.000   0.000   0.000   0.000   0.000   0.000   0.000  -0.000
 -0.000  -0.000  -0.001  -0.000   0.000   0.001  -0.000  -0.000  -0.001   0.000   0.000  -0.000  -0.000   0.000  -0.000  -0.000
  0.000   0.000  -0.000  -0.000  -0.000  -0.000   0.001   0.000  -0.000   0.000  -0.001   0.000   0.001   0.000  -0.000   0.001
 -0.000  -0.001   0.000  -0.000  -0.000  -0.000   0.000   0.001  -0.000  -0.000   0.000   0.001  -0.000   0.000   0.000  -0.000
  0.000  -0.000   0.000   0.000   0.000  -0.001  -0.000  -0.000   0.016  -0.002   0.000  -0.000  -0.000  -0.008   0.001  -0.000
 -0.000   0.000  -0.000   0.000   0.000   0.000   0.000  -0.000  -0.002   0.014  -0.000  -0.000  -0.000   0.001  -0.007   0.000
 -0.000  -0.001  -0.000  -0.000   0.000   0.000  -0.001   0.000   0.000  -0.000   0.004  -0.002  -0.001  -0.000   0.000  -0.002
 -0.000   0.002   0.000   0.000   0.000  -0.000   0.000   0.001  -0.000  -0.000  -0.002   0.004   0.001  -0.000   0.000   0.001
  0.000  -0.005   0.000   0.000   0.000  -0.000   0.001  -0.000  -0.000  -0.000  -0.001   0.001   0.003   0.000   0.000   0.000
 -0.000   0.000  -0.000   0.000   0.000   0.000   0.000   0.000  -0.008   0.001  -0.000  -0.000   0.000   0.005  -0.001   0.000
  0.000  -0.000   0.000  -0.000   0.000  -0.000  -0.000   0.000   0.001  -0.007   0.000   0.000   0.000  -0.001   0.003  -0.000
  0.000   0.001   0.000   0.000  -0.000  -0.000   0.001  -0.000  -0.000   0.000  -0.002   0.001   0.000   0.000  -0.000   0.001
  0.000  -0.001   0.000  -0.000  -0.001   0.000   0.000  -0.001  -0.000   0.000   0.001  -0.002  -0.000   0.000  -0.000  -0.000
 -0.000   0.003   0.000  -0.000  -0.000   0.000  -0.000   0.000  -0.000   0.000   0.000  -0.000  -0.002   0.000  -0.000   0.000


------------------------ aborting loop because EDIFF is reached ----------------------------------------


 


 total charge     
 
# of ion       s       p       d       tot
------------------------------------------
    1        2.032   5.881   0.281   8.194
    2        2.032   5.881   0.282   8.194
    3        0.252   6.250   5.942  12.444
    4        0.243   6.249   5.941  12.433
    5        0.244   6.249   5.941  12.433
    6        0.304   6.338   5.600  12.242
    7        0.304   6.338   5.600  12.241
    8        0.310   6.350   5.595  12.256
    9        0.310   6.350   5.595  12.255
   10        1.563   3.495   0.000   5.058
   11        1.562   3.501   0.000   5.064
   12        1.562   3.501   0.000   5.064
   13        1.565   3.524   0.000   5.088
   14        1.565   3.523   0.000   5.088
   15        1.566   3.529   0.000   5.095
   16        1.566   3.529   0.000   5.095
   17        1.565   3.526   0.000   5.090
   18        1.565   3.526   0.000   5.090
   19        1.564   3.493   0.000   5.057
   20        1.564   3.493   0.000   5.057
--------------------------------------------------
tot         23.237  94.523  40.778 158.538
 


 magnetization (x)
 
# of ion       s       p       d       tot
------------------------------------------
    1        0.002   0.003   0.009   0.014
    2        0.002   0.003   0.009   0.014
    3        0.033   0.022   3.705   3.760
    4        0.022   0.021   3.724   3.767
    5        0.022   0.021   3.725   3.769
    6        0.020   0.032   4.220   4.272
    7        0.020   0.032   4.220   4.272
    8        0.020   0.030   4.236   4.286
    9        0.020   0.030   4.236   4.286
   10        0.026   0.224   0.000   0.250
   11        0.024   0.229   0.000   0.253
   12        0.024   0.229   0.000   0.253
   13        0.016   0.217   0.000   0.233
   14        0.016   0.218   0.000   0.233
   15        0.015   0.242   0.000   0.257
   16        0.014   0.242   0.000   0.257
   17        0.015   0.210   0.000   0.225
   18        0.015   0.210   0.000   0.225
   19        0.025   0.269   0.000   0.295
   20        0.025   0.269   0.000   0.295
--------------------------------------------------
tot          0.376   2.756  28.085  31.217
 
    CHARGE:  cpu time    2.3267: real time    2.3268
    FORLOC:  cpu time    0.0082: real time    0.0082
    FORNL :  cpu time   32.4024: real time   32.4039
    STRESS:  cpu time  451.0480: real time  451.0598
    FORCOR:  cpu time    0.2251: real time    0.2251
    FORHAR:  cpu time    0.0217: real time    0.0217
    MIXING:  cpu time    0.0059: real time    0.0059
    OFIELD:  cpu time    0.0000: real time    0.0000

  FORCE on cell =-STRESS in cart. coord.  units (eV):
  Direction    XX          YY          ZZ          XY          YZ          ZX
  --------------------------------------------------------------------------------------
  Alpha Z   981.14362   981.14362   981.14362
  Ewald   -5460.47949 -4934.65553 -6101.23933     0.67857     2.42743  -457.02560
  Hartree  2194.54989  2677.29200  1627.60939     0.23397     2.36788  -402.44978
  E(xc)   -1149.00341 -1149.11022 -1149.11187    -0.01203    -0.00136     0.01963
  Local      75.34973  -949.37497  1301.30281    -0.42771    -5.82878   850.70119
  n-local  -500.07667  -504.99271  -494.10996     0.07546    -0.13097     1.03105
  augment  1196.95070  1209.46874  1183.76635    -0.27387     0.78557     5.10473
  Kinetic  2661.43906  2669.93177  2650.35660    -0.32411     0.31466     2.57997
  Fock        0.00000     0.00000     0.00000     0.00000     0.00000     0.00000
  -------------------------------------------------------------------------------------
  Total      -0.12656    -0.29730    -0.28238    -0.04972    -0.06557    -0.03881
  in kB      -0.95232    -2.23708    -2.12483    -0.37413    -0.49343    -0.29206
  external pressure =       -1.77 kB  Pullay stress =        0.00 kB


 VOLUME and BASIS-vectors are now :
 -----------------------------------------------------------------------------
  energy-cutoff  :      520.00
  volume of cell :      212.92
      direct lattice vectors                 reciprocal lattice vectors
     0.001113302  3.030563758  0.001943674     0.078255397  0.329983255 -0.062981726
     4.481288375 -1.515862294 -2.374088221     0.156592395  0.000023060 -0.125647932
    -8.827860410 -0.006351653-11.001979395    -0.033776836  0.000053321 -0.063790625

  length of vectors
     3.030564586  5.293021715 14.105839584     0.344934129  0.200769972  0.072181170


 FORCES acting on ions
    electron-ion (+dipol)            ewald-force                    non-local-force                 convergence-correction
 -----------------------------------------------------------------------------------------------
   0.430E+02 -.647E+00 0.641E+02   -.439E+02 0.634E+00 -.635E+02   0.975E+00 0.182E-01 -.569E+00   0.551E-03 -.468E-04 0.200E-02
   -.430E+02 0.763E+00 -.637E+02   0.440E+02 -.739E+00 0.632E+02   -.977E+00 -.272E-01 0.568E+00   -.513E-03 0.114E-04 -.204E-02
   0.317E-02 -.199E-01 -.897E-02   -.662E-03 0.211E-01 0.319E-01   -.102E-02 0.163E-03 -.231E-01   0.712E-05 0.872E-05 -.176E-04
   0.188E+03 0.432E+00 0.207E+03   -.185E+03 -.426E+00 -.210E+03   -.291E+01 0.121E-01 0.297E+01   0.773E-02 -.106E-03 0.215E-02
   -.188E+03 -.170E+00 -.207E+03   0.185E+03 0.152E+00 0.210E+03   0.298E+01 0.116E-01 -.297E+01   -.653E-02 0.199E-03 -.177E-02
   0.183E+03 -.334E+00 0.401E+03   -.185E+03 0.333E+00 -.406E+03   0.216E+01 0.102E-02 0.451E+01   0.122E-02 0.503E-03 0.524E-02
   -.182E+03 0.113E+01 -.402E+03   0.185E+03 -.107E+01 0.406E+03   -.220E+01 -.548E-01 -.448E+01   -.193E-02 0.423E-03 -.526E-02
   -.126E+03 0.179E+00 -.213E+03   0.128E+03 -.178E+00 0.216E+03   -.246E+01 0.277E-02 -.291E+01   -.692E-03 0.380E-04 0.824E-03
   0.126E+03 -.158E+00 0.213E+03   -.129E+03 0.157E+00 -.216E+03   0.245E+01 0.105E-02 0.289E+01   0.530E-03 -.921E-05 -.102E-02
   0.188E+00 -.780E-01 -.178E+00   -.215E+00 0.569E-01 0.176E+00   0.275E-01 0.416E-01 0.158E-02   -.110E-03 0.250E-02 0.124E-03
   0.155E+02 -.794E+00 0.218E+03   -.130E+02 0.843E+00 -.223E+03   -.252E+01 -.498E-01 0.446E+01   0.131E-02 -.543E-03 0.274E-02
   -.162E+02 0.137E-01 -.218E+03   0.137E+02 -.148E-01 0.223E+03   0.249E+01 -.132E-02 -.447E+01   -.101E-02 0.470E-03 -.282E-02
   0.232E+03 0.848E-01 0.227E+03   -.238E+03 -.880E-01 -.233E+03   0.617E+01 -.339E-02 0.665E+01   0.382E-02 -.170E-02 0.342E-02
   -.232E+03 -.299E+00 -.227E+03   0.238E+03 0.339E+00 0.233E+03   -.619E+01 -.460E-01 -.661E+01   -.391E-02 -.127E-02 -.316E-02
   -.628E+02 0.353E+00 0.838E+02   0.651E+02 -.403E+00 -.848E+02   -.231E+01 0.485E-01 0.917E+00   -.166E-02 0.327E-04 0.252E-02
   0.629E+02 -.316E+00 -.837E+02   -.652E+02 0.368E+00 0.846E+02   0.232E+01 -.517E-01 -.934E+00   0.159E-02 0.354E-04 -.267E-02
   -.516E+01 0.283E+00 -.236E+03   0.721E+01 -.306E+00 0.245E+03   -.207E+01 0.262E-01 -.902E+01   -.438E-03 -.972E-06 -.280E-02
   0.525E+01 -.325E+00 0.236E+03   -.729E+01 0.349E+00 -.245E+03   0.206E+01 -.274E-01 0.901E+01   0.404E-03 -.156E-04 0.274E-02
   -.153E+03 0.197E+00 -.464E+02   0.158E+03 -.223E+00 0.451E+02   -.516E+01 0.331E-01 0.132E+01   -.570E-03 0.635E-05 -.126E-02
   0.153E+03 -.176E+00 0.466E+02   -.158E+03 0.200E+00 -.452E+02   0.515E+01 -.307E-01 -.132E+01   0.549E-03 0.114E-06 0.124E-02
 -----------------------------------------------------------------------------------------------
   0.336E-01 0.113E+00 -.181E-01   0.114E-12 0.712E-13 -.952E-12   -.368E-02 -.961E-01 0.423E-02   0.348E-03 0.539E-03 0.182E-03
 
 
 POSITION                                       TOTAL-FORCE (eV/Angst)
 -----------------------------------------------------------------------------------
      1.31308     -0.00617     -4.99868        -0.000530      0.003914      0.001157
     -5.65879      1.51422     -8.37490        -0.002200     -0.004613     -0.001944
     -4.41277      3.02709     -5.49909         0.000051      0.000221      0.000663
      2.93579      1.51992     -2.33568         0.020282      0.015330     -0.001353
     -7.28076     -0.00730    -11.03890         0.004429     -0.005414     -0.008859
     -0.07071      1.51731     -2.23088        -0.011744     -0.001527     -0.008858
     -4.27446     -0.00926    -11.14301         0.009732     -0.004279      0.009606
     -1.70350      1.50906     -5.38124         0.014557      0.004238      0.013815
     -2.64181     -0.00105     -7.99291        -0.021204     -0.002531     -0.006974
     -8.82622      1.51112    -11.00069        -0.001638      0.022114      0.000359
      1.34691      0.00109     -2.13068         0.007528     -0.002448      0.003258
     -5.69364      1.50580    -11.24481        -0.003067     -0.002817     -0.003488
     -1.42234      0.00029     -1.95342        -0.005749     -0.009084      0.023298
     -2.92301      1.50557    -11.42084        -0.001571     -0.007841     -0.011817
     -0.18810      1.51126     -4.16914        -0.006248     -0.001859     -0.016032
     -4.15792     -0.00338     -9.20446         0.005716     -0.000694      0.009340
     -2.73384     -0.00575     -4.45679        -0.020281      0.002056      0.009220
     -1.61161      1.51369     -8.91714         0.015343     -0.003616     -0.009553
     -0.98214     -0.00506     -6.58074        -0.001080      0.005940     -0.013125
     -3.36341      1.51303     -6.79316        -0.002327     -0.007090      0.011286
 -----------------------------------------------------------------------------------
    total drift:                                0.030270      0.017291     -0.013645


--------------------------------------------------------------------------------------------------------



  FREE ENERGIE OF THE ION-ELECTRON SYSTEM (eV)
  ---------------------------------------------------
  free  energy   TOTEN  =      -245.10895479 eV

  energy  without entropy=     -245.10895459  energy(sigma->0) =     -245.10895469
 


--------------------------------------------------------------------------------------------------------


    POTLOK:  cpu time    1.9009: real time    1.9010


--------------------------------------------------------------------------------------------------------




--------------------------------------------------------------------------------------------------------


  
 reached required accuracy - stopping structural energy minimisation
     LOOP+:  cpu time 5767.8677: real time 5768.2002
    4ORBIT:  cpu time    0.0000: real time    0.0000
 


 total charge     
 
# of ion       s       p       d       tot
------------------------------------------
    1        2.032   5.881   0.281   8.194
    2        2.032   5.881   0.282   8.194
    3        0.252   6.250   5.942  12.444
    4        0.243   6.249   5.941  12.433
    5        0.244   6.249   5.941  12.433
    6        0.304   6.338   5.600  12.242
    7        0.304   6.338   5.600  12.241
    8        0.310   6.350   5.595  12.256
    9        0.310   6.350   5.595  12.255
   10        1.563   3.495   0.000   5.058
   11        1.562   3.501   0.000   5.064
   12        1.562   3.501   0.000   5.064
   13        1.565   3.524   0.000   5.088
   14        1.565   3.523   0.000   5.088
   15        1.566   3.529   0.000   5.095
   16        1.566   3.529   0.000   5.095
   17        1.565   3.526   0.000   5.090
   18        1.565   3.526   0.000   5.090
   19        1.564   3.493   0.000   5.057
   20        1.564   3.493   0.000   5.057
--------------------------------------------------
tot         23.237  94.523  40.778 158.538
 


 magnetization (x)
 
# of ion       s       p       d       tot
------------------------------------------
    1        0.002   0.003   0.009   0.014
    2        0.002   0.003   0.009   0.014
    3        0.033   0.022   3.705   3.760
    4        0.022   0.021   3.724   3.767
    5        0.022   0.021   3.725   3.769
    6        0.020   0.032   4.220   4.272
    7        0.020   0.032   4.220   4.272
    8        0.020   0.030   4.236   4.286
    9        0.020   0.030   4.236   4.286
   10        0.026   0.224   0.000   0.250
   11        0.024   0.229   0.000   0.253
   12        0.024   0.229   0.000   0.253
   13        0.016   0.217   0.000   0.233
   14        0.016   0.218   0.000   0.233
   15        0.015   0.242   0.000   0.257
   16        0.014   0.242   0.000   0.257
   17        0.015   0.210   0.000   0.225
   18        0.015   0.210   0.000   0.225
   19        0.025   0.269   0.000   0.295
   20        0.025   0.269   0.000   0.295
--------------------------------------------------
tot          0.376   2.756  28.085  31.217
 

 total amount of memory used by VASP MPI-rank0   417887. kBytes
=======================================================================

   base      :      30000. kBytes
   nonlr-proj:       5852. kBytes
   fftplans  :       4270. kBytes
   grid      :      14607. kBytes
   one-center:        155. kBytes
   wavefun   :     363003. kBytes
 
  
  
 General timing and accounting informations for this job:
 ========================================================
  
                  Total CPU time used (sec):     5792.640
                            User time (sec):     5789.340
                          System time (sec):        3.300
                         Elapsed time (sec):     5793.218
  
                   Maximum memory used (kb):      691288.
                   Average memory used (kb):           0.
  
                          Minor page faults:       127614
                          Major page faults:            0
                 Voluntary context switches:           66
