       N       E                     dE             d eps       ncg     rms          ort
DAV:   1     0.258187886934E+04    0.25819E+04   -0.16044E+05 11088   0.163E+03
DAV:   2    -0.151430939360E+03   -0.27333E+04   -0.25595E+04 11088   0.440E+02
DAV:   3    -0.423738891247E+03   -0.27231E+03   -0.26669E+03 11088   0.155E+02
DAV:   4    -0.433152012203E+03   -0.94131E+01   -0.93110E+01 11088   0.298E+01
DAV:   5    -0.433784725072E+03   -0.63271E+00   -0.63147E+00 11088   0.577E+00
SDA:   6    -0.350673739908E+03    0.83111E+02   -0.63147E+00 11088   0.209E+02 0.000E+00
CGA:   7    -0.353884874760E+03   -0.32111E+01   -0.32232E+01 11088   0.475E+01 0.766E-01
CGA:   8    -0.354679118047E+03   -0.79424E+00   -0.79254E+00 11088   0.153E+01-0.127E+00
CGA:   9    -0.355057106940E+03   -0.37799E+00   -0.38610E+00 11088   0.996E+00-0.128E+00
CGA:  10    -0.355208129953E+03   -0.15102E+00   -0.14951E+00 11088   0.301E+00-0.428E-01
CGA:  11    -0.355272730738E+03   -0.64601E-01   -0.64918E-01 11088   0.140E+00-0.110E-01
CGA:  12    -0.355301848420E+03   -0.29118E-01   -0.29223E-01 11088   0.491E-01-0.561E-02
CGA:  13    -0.355312833913E+03   -0.10985E-01   -0.11052E-01 11088   0.173E-01-0.186E-02
CGA:  14    -0.355316822543E+03   -0.39886E-02   -0.40126E-02 11088   0.582E-02-0.614E-03
CGA:  15    -0.355318219137E+03   -0.13966E-02   -0.26184E-02 11088   0.860E-02-0.465E-02
CGA:  16    -0.355319324727E+03   -0.11056E-02   -0.12294E-02 11088   0.101E-02 0.167E-02
CGA:  17    -0.355319440519E+03   -0.11579E-03   -0.16282E-03 11088   0.399E-03 0.599E-03
CGA:  18    -0.355319474929E+03   -0.34409E-04   -0.54817E-04 11088   0.224E-03 0.283E-03
CGA:  19    -0.355319474631E+03    0.29799E-06   -0.21354E-04 11088   0.173E-03 0.196E-03
CGA:  20    -0.355319472021E+03    0.26092E-05   -0.15041E-04 11088   0.141E-03 0.156E-03
CGA:  21    -0.355319468531E+03    0.34902E-05   -0.11273E-04 11088   0.118E-03 0.129E-03
   1 F= -.35531947E+03 E0= -.35531947E+03  d E =-.355319E+03  mag=     8.0000
       N       E                     dE             d eps       ncg     rms          ort
SDA:   1    -0.355293257142E+03    0.26215E-01    0.00000E+00 11088   0.986E-01 0.000E+00
CGA:   2    -0.355306435333E+03   -0.13178E-01   -0.13421E-01 11088   0.302E-01 0.506E-02
CGA:   3    -0.355314000538E+03   -0.75652E-02   -0.78945E-02 11088   0.223E-01-0.481E-02
CGA:   4    -0.355317196958E+03   -0.31964E-02   -0.31373E-02 11088   0.742E-02-0.353E-02
CGA:   5    -0.355318087691E+03   -0.89073E-03   -0.89137E-03 11088   0.192E-02 0.145E-04
CGA:   6    -0.355318445734E+03   -0.35804E-03   -0.35801E-03 11088   0.896E-03 0.669E-05
CGA:   7    -0.355318645808E+03   -0.20007E-03   -0.30823E-03 11088   0.108E-02-0.669E-03
CGA:   8    -0.355318763367E+03   -0.11756E-03   -0.13125E-03 11088   0.177E-03 0.202E-03
CGA:   9    -0.355318798193E+03   -0.34827E-04   -0.10336E-03 11088   0.323E-03-0.225E-03
CGA:  10    -0.355318877471E+03   -0.79278E-04   -0.83197E-04 11088   0.644E-04-0.699E-04
CGA:  11    -0.355318873395E+03    0.40767E-05   -0.21792E-05 11088   0.387E-04 0.389E-04
   2 F= -.35531887E+03 E0= -.35531887E+03  d E =0.595137E-03  mag=     8.0000
       N       E                     dE             d eps       ncg     rms          ort
SDA:   1    -0.355305051204E+03    0.13826E-01    0.00000E+00 11088   0.596E-01 0.000E+00
CGA:   2    -0.355314366091E+03   -0.93149E-02   -0.91599E-02 11088   0.230E-01-0.445E-02
CGA:   3    -0.355317828580E+03   -0.34625E-02   -0.35284E-02 11088   0.841E-02 0.307E-02
CGA:   4    -0.355318948121E+03   -0.11195E-02   -0.12550E-02 11088   0.215E-02 0.250E-02
CGA:   5    -0.355319461970E+03   -0.51385E-03   -0.51369E-03 11088   0.847E-03 0.222E-03
CGA:   6    -0.355319580391E+03   -0.11842E-03   -0.13179E-03 11088   0.296E-03 0.318E-03
CGA:   7    -0.355319585831E+03   -0.54402E-05   -0.31879E-04 11088   0.142E-03 0.257E-03
   3 F= -.35531959E+03 E0= -.35531959E+03  d E =-.117300E-03  mag=     8.0000
       N       E                     dE             d eps       ncg     rms          ort
SDA:   1    -0.355316579648E+03    0.30007E-02    0.00000E+00 11088   0.942E-02 0.000E+00
CGA:   2    -0.355317722391E+03   -0.11427E-02   -0.11971E-02 11088   0.274E-02 0.125E-02
CGA:   3    -0.355318438593E+03   -0.71620E-03   -0.12638E-02 11088   0.581E-02-0.230E-02
CGA:   4    -0.355319056970E+03   -0.61838E-03   -0.61008E-03 11088   0.897E-03-0.113E-03
CGA:   5    -0.355319219343E+03   -0.16237E-03   -0.16593E-03 11088   0.284E-03-0.292E-03
CGA:   6    -0.355319252514E+03   -0.33172E-04   -0.33039E-04 11088   0.984E-04-0.275E-04
CGA:   7    -0.355319263464E+03   -0.10950E-04   -0.36690E-04 11088   0.199E-03-0.109E-03
CGA:   8    -0.355317859758E+03    0.14037E-02   -0.76145E-03 11088   0.137E-01-0.159E-02
CGA:   9    -0.355319281034E+03   -0.14213E-02   -0.15482E-02 11088   0.619E-03 0.538E-03
CGA:  10    -0.355319348025E+03   -0.66991E-04   -0.93102E-04 11088   0.552E-04 0.139E-03
CGA:  11    -0.355319361382E+03   -0.13357E-04   -0.12499E-04 11088   0.699E-05-0.625E-05
CGA:  12    -0.355319361488E+03   -0.10544E-06   -0.67591E-06 11088   0.203E-05 0.275E-05
   4 F= -.35531936E+03 E0= -.35531936E+03  d E =0.107044E-03  mag=     8.0000
       N       E                     dE             d eps       ncg     rms          ort
SDA:   1    -0.355319325894E+03    0.35488E-04    0.00000E+00 11088   0.443E-03 0.000E+00
CGA:   2    -0.355319454515E+03   -0.12862E-03   -0.13849E-03 11088   0.123E-02-0.521E-03
CGA:   3    -0.355319461617E+03   -0.71028E-05   -0.84639E-04 11088   0.129E-03 0.343E-03
CGA:   4    -0.355319446014E+03    0.15604E-04   -0.69514E-05 11088   0.483E-04 0.935E-04
CGA:   5    -0.355319439572E+03    0.64419E-05   -0.20469E-05 11088   0.285E-04 0.371E-04
CGA:   6    -0.355319435396E+03    0.41763E-05   -0.11008E-05 11088   0.199E-04 0.238E-04
   5 F= -.35531944E+03 E0= -.35531944E+03  d E =0.331355E-04  mag=     8.0000
       N       E                     dE             d eps       ncg     rms          ort
SDA:   1    -0.355307585619E+03    0.11854E-01    0.00000E+00 11088   0.433E-01 0.000E+00
CGA:   2    -0.355313774781E+03   -0.61892E-02   -0.63089E-02 11088   0.163E-01 0.126E-02
CGA:   3    -0.355317422305E+03   -0.36475E-02   -0.36335E-02 11088   0.969E-02-0.822E-03
CGA:   4    -0.355318877245E+03   -0.14549E-02   -0.14061E-02 11088   0.216E-02-0.614E-03
CGA:   5    -0.355319149105E+03   -0.27186E-03   -0.28114E-03 11088   0.482E-03 0.103E-03
CGA:   6    -0.355319266061E+03   -0.11696E-03   -0.11802E-03 11088   0.245E-03-0.110E-03
CGA:   7    -0.355319282088E+03   -0.16027E-04   -0.81172E-04 11088   0.615E-03-0.317E-03
CGA:   8    -0.355319335338E+03   -0.53251E-04   -0.67336E-04 11088   0.840E-04 0.112E-03
CGA:   9    -0.355319349169E+03   -0.13831E-04   -0.15869E-04 11088   0.265E-04 0.295E-04
CGA:  10    -0.355319103912E+03    0.24526E-03   -0.13242E-03 11088   0.140E-02-0.244E-03
CGA:  11    -0.355319293097E+03   -0.18919E-03   -0.22210E-03 11088   0.217E-03 0.130E-03
CGA:  12    -0.355319378859E+03   -0.85762E-04   -0.82670E-04 11088   0.427E-04-0.634E-04
CGA:  13    -0.355319378630E+03    0.22914E-06   -0.36750E-05 11088   0.174E-04 0.142E-04
   6 F= -.35531938E+03 E0= -.35531938E+03  d E =0.567656E-04  mag=     8.0000
       N       E                     dE             d eps       ncg     rms          ort
SDA:   1    -0.355314378142E+03    0.50007E-02    0.00000E+00 11088   0.187E-01 0.000E+00
CGA:   2    -0.355317384309E+03   -0.30062E-02   -0.28883E-02 11088   0.803E-02-0.555E-03
CGA:   3    -0.355318780692E+03   -0.13964E-02   -0.14562E-02 11088   0.371E-02 0.348E-03
CGA:   4    -0.355319279828E+03   -0.49914E-03   -0.55930E-03 11088   0.705E-03 0.293E-03
CGA:   5    -0.355319423987E+03   -0.14416E-03   -0.13321E-03 11088   0.230E-03-0.673E-04
CGA:   6    -0.355319437285E+03   -0.13298E-04   -0.26072E-04 11088   0.620E-04 0.622E-04
CGA:   7    -0.355319434777E+03    0.25084E-05   -0.69668E-05 11088   0.252E-04 0.409E-04
   7 F= -.35531943E+03 E0= -.35531943E+03  d E =0.618798E-06  mag=     8.0000
       N       E                     dE             d eps       ncg     rms          ort
SDA:   1    -0.355318447239E+03    0.99005E-03    0.00000E+00 11088   0.339E-02 0.000E+00
CGA:   2    -0.355318887513E+03   -0.44027E-03   -0.47811E-03 11088   0.124E-02 0.234E-03
CGA:   3    -0.355319220084E+03   -0.33257E-03   -0.32331E-03 11088   0.878E-03-0.186E-03
CGA:   4    -0.355319349931E+03   -0.12985E-03   -0.11203E-03 11088   0.200E-03-0.127E-03
CGA:   5    -0.355319371546E+03   -0.21615E-04   -0.23608E-04 11088   0.553E-04 0.136E-04
CGA:   6    -0.355319387449E+03   -0.15902E-04   -0.15621E-04 11088   0.421E-04-0.237E-04
CGA:   7    -0.355319184379E+03    0.20307E-03   -0.31114E-04 11088   0.142E-02-0.230E-03
CGA:   8    -0.355319342076E+03   -0.15770E-03   -0.18197E-03 11088   0.224E-03 0.122E-03
CGA:   9    -0.355319401243E+03   -0.59167E-04   -0.60530E-04 11088   0.388E-04 0.199E-04
CGA:  10    -0.355319400126E+03    0.11171E-05   -0.26132E-04 11088   0.233E-03-0.892E-04
CGA:  11    -0.355319407531E+03   -0.74057E-05   -0.24396E-04 11088   0.302E-04 0.758E-04
   8 F= -.35531941E+03 E0= -.35531941E+03  d E =0.278642E-04  mag=     8.0000
       N       E                     dE             d eps       ncg     rms          ort
SDA:   1    -0.355318829671E+03    0.57045E-03    0.00000E+00 11088   0.202E-02 0.000E+00
CGA:   2    -0.355319063127E+03   -0.23346E-03   -0.26603E-03 11088   0.672E-03 0.186E-03
CGA:   3    -0.355319259522E+03   -0.19640E-03   -0.19220E-03 11088   0.575E-03-0.120E-03
CGA:   4    -0.355319348988E+03   -0.89466E-04   -0.73180E-04 11088   0.161E-03-0.116E-03
CGA:   5    -0.355319365850E+03   -0.16862E-04   -0.17242E-04 11088   0.455E-04 0.242E-05
CGA:   6    -0.355319375518E+03   -0.96679E-05   -0.91720E-05 11088   0.256E-04-0.606E-05
CGA:   7    -0.355319096610E+03    0.27891E-03   -0.15171E-03 11088   0.177E-02-0.213E-03
CGA:   8    -0.355319291732E+03   -0.19512E-03   -0.23464E-03 11088   0.330E-03 0.105E-03
CGA:   9    -0.355319383388E+03   -0.91656E-04   -0.89460E-04 11088   0.544E-04-0.974E-05
CGA:  10    -0.355319403156E+03   -0.19767E-04   -0.16021E-04 11088   0.299E-04-0.220E-04
CGA:  11    -0.355319400732E+03    0.24240E-05   -0.14385E-05 11088   0.154E-04 0.100E-04
   9 F= -.35531940E+03 E0= -.35531940E+03  d E =0.346639E-04  mag=     8.0000
       N       E                     dE             d eps       ncg     rms          ort
SDA:   1    -0.355319337709E+03    0.65447E-04    0.00000E+00 11088   0.142E-03 0.000E+00
CGA:   2    -0.355319347000E+03   -0.92906E-05   -0.16384E-04 11088   0.413E-04 0.227E-04
CGA:   3    -0.355319366150E+03   -0.19150E-04   -0.18497E-04 11088   0.699E-04-0.259E-04
CGA:   4    -0.355319378010E+03   -0.11860E-04   -0.85992E-05 11088   0.168E-04-0.114E-04
CGA:   5    -0.355319380904E+03   -0.28943E-05   -0.19187E-05 11088   0.257E-05-0.376E-05
CGA:   6    -0.355319381035E+03   -0.13099E-06   -0.25045E-06 11088   0.488E-06 0.463E-06
  10 F= -.35531938E+03 E0= -.35531938E+03  d E =0.543605E-04  mag=     8.0000
       N       E                     dE             d eps       ncg     rms          ort
SDA:   1    -0.355316166295E+03    0.32146E-02    0.00000E+00 11088   0.941E-02 0.000E+00
CGA:   2    -0.355318659410E+03   -0.24931E-02   -0.24563E-02 11088   0.561E-02-0.339E-03
CGA:   3    -0.355319211718E+03   -0.55231E-03   -0.72046E-03 11088   0.137E-02 0.724E-03
CGA:   4    -0.355319381766E+03   -0.17005E-03   -0.22602E-03 11088   0.391E-03 0.270E-03
CGA:   5    -0.355319535725E+03   -0.15396E-03   -0.14386E-03 11088   0.459E-03-0.283E-03
CGA:   6    -0.355319536356E+03   -0.63110E-06   -0.39505E-04 11088   0.799E-04 0.152E-03
  11 F= -.35531954E+03 E0= -.35531954E+03  d E =-.155321E-03  mag=     8.0000
       N       E                     dE             d eps       ncg     rms          ort
SDA:   1    -0.355319314096E+03    0.22163E-03    0.00000E+00 11088   0.312E-03 0.000E+00
CGA:   2    -0.355319415787E+03   -0.10169E-03   -0.10214E-03 11088   0.332E-03-0.376E-04
CGA:   3    -0.355319473084E+03   -0.57297E-04   -0.41467E-04 11088   0.103E-03-0.911E-04
CGA:   4    -0.355319486569E+03   -0.13485E-04   -0.97683E-05 11088   0.294E-04-0.211E-04
CGA:   5    -0.355319486310E+03    0.25955E-06   -0.22261E-05 11088   0.131E-04 0.122E-04
CGA:   6    -0.355319486024E+03    0.28541E-06   -0.14926E-05 11088   0.526E-05 0.855E-05
  12 F= -.35531949E+03 E0= -.35531949E+03  d E =-.104989E-03  mag=     8.0000
