       N       E                     dE             d eps       ncg     rms          ort
DAV:   1     0.333727870037E+04    0.33373E+04   -0.14817E+05  6480   0.180E+03
DAV:   2     0.225165403937E+02   -0.33148E+04   -0.30425E+04  6480   0.483E+02
DAV:   3    -0.492421190864E+03   -0.51494E+03   -0.50070E+03  6480   0.205E+02
DAV:   4    -0.523610499319E+03   -0.31189E+02   -0.30216E+02  6480   0.468E+01
DAV:   5    -0.525843180777E+03   -0.22327E+01   -0.21934E+01  6480   0.889E+00
SDA:   6    -0.230097415868E+03    0.29575E+03   -0.21934E+01  6480   0.263E+04 0.000E+00
CGA:   7    -0.299559418779E+03   -0.69462E+02   -0.25010E+03  6480   0.171E+04-0.376E+03
CGA:   8    -0.311672650465E+03   -0.12113E+02   -0.59676E+02  6480   0.526E+03-0.369E+03
CGA:   9    -0.373975330223E+03   -0.62303E+02   -0.82964E+01  6480   0.753E+03-0.117E+03
CGA:  10    -0.335808028307E+03    0.38167E+02   -0.17609E+02  6480   0.379E+03-0.278E+03
CGA:  11    -0.340831294572E+03   -0.50233E+01   -0.24505E+01  6480   0.492E+03 0.350E+03
CGA:  12    -0.391661284639E+03   -0.50830E+02   -0.76178E+01  6480   0.720E+03 0.339E+02
CGA:  13    -0.357218095571E+03    0.34443E+02   -0.21188E+02  6480   0.115E+04-0.921E+03
CGA:  14    -0.388576453089E+03   -0.31358E+02   -0.29706E+02  6480   0.234E+03-0.900E+02
CGA:  15    -0.395854252850E+03   -0.72778E+01   -0.36049E+01  6480   0.204E+03 0.272E+03
CGA:  16    -0.405268127551E+03   -0.94139E+01   -0.32131E+01  6480   0.424E+02 0.177E+03
CGA:  17    -0.405661822819E+03   -0.39370E+00   -0.65719E+00  6480   0.289E+02-0.198E+02
CGA:  18    -0.407856277394E+03   -0.21945E+01   -0.21615E+01  6480   0.212E+02 0.133E+01
CGA:  19    -0.408156906450E+03   -0.30063E+00   -0.19081E+00  6480   0.815E+01 0.127E+02
CGA:  20    -0.408401360951E+03   -0.24445E+00   -0.16527E+00  6480   0.350E+01 0.367E+01
CGA:  21    -0.408573002693E+03   -0.17164E+00   -0.10547E+00  6480   0.403E+01 0.307E+01
CGA:  22    -0.408837615122E+03   -0.26461E+00   -0.27629E+00  6480   0.963E+01-0.632E-01
CGA:  23    -0.408984013204E+03   -0.14640E+00   -0.74235E-01  6480   0.903E+01 0.932E+01
CGA:  24    -0.409205946482E+03   -0.22193E+00   -0.18595E+00  6480   0.255E+01 0.149E+01
CGA:  25    -0.409482360419E+03   -0.27641E+00   -0.26836E+00  6480   0.176E+02-0.363E+00
CGA:  26    -0.408381440645E+03    0.11009E+01   -0.50973E+00  6480   0.454E+02 0.460E+01
CGA:  27    -0.409579829890E+03   -0.11984E+01   -0.11203E+01  6480   0.208E+02 0.339E+02
CGA:  28    -0.410100798803E+03   -0.52097E+00   -0.70160E+00  6480   0.437E+01-0.510E+01
CGA:  29    -0.410353027855E+03   -0.25223E+00   -0.25411E+00  6480   0.232E+01 0.410E-01
CGA:  30    -0.410509027887E+03   -0.15600E+00   -0.15609E+00  6480   0.125E+01 0.537E-04
CGA:  31    -0.410648943012E+03   -0.13992E+00   -0.14097E+00  6480   0.182E+01-0.418E-01
CGA:  32    -0.410857390711E+03   -0.20845E+00   -0.21833E+00  6480   0.176E+01-0.121E+00
CGA:  33    -0.410926093683E+03   -0.68703E-01   -0.69891E-01  6480   0.112E+01-0.360E-02
CGA:  34    -0.411045724293E+03   -0.11963E+00   -0.11763E+00  6480   0.113E+01 0.784E-01
CGA:  35    -0.411111003641E+03   -0.65279E-01   -0.68744E-01  6480   0.950E+00 0.452E-02
CGA:  36    -0.411187473234E+03   -0.76470E-01   -0.77298E-01  6480   0.867E+00 0.670E-01
CGA:  37    -0.411249620738E+03   -0.62148E-01   -0.64491E-01  6480   0.402E+00 0.457E-01
CGA:  38    -0.411288214259E+03   -0.38594E-01   -0.38211E-01  6480   0.357E+00 0.484E-01
CGA:  39    -0.411340060825E+03   -0.51847E-01   -0.54550E-01  6480   0.341E+00-0.261E-01
CGA:  40    -0.411386955176E+03   -0.46894E-01   -0.45334E-01  6480   0.158E+00 0.199E-01
CGA:  41    -0.411411209190E+03   -0.24254E-01   -0.26488E-01  6480   0.372E+00-0.317E-01
CGA:  42    -0.411436921139E+03   -0.25712E-01   -0.25601E-01  6480   0.309E+00-0.694E-02
CGA:  43    -0.411449358237E+03   -0.12437E-01   -0.12647E-01  6480   0.166E+00-0.812E-02
CGA:  44    -0.411464184909E+03   -0.14827E-01   -0.14829E-01  6480   0.180E+00 0.483E-02
CGA:  45    -0.411480034004E+03   -0.15849E-01   -0.15749E-01  6480   0.214E+00-0.743E-02
CGA:  46    -0.411488736421E+03   -0.87024E-02   -0.83221E-02  6480   0.110E+00 0.462E-02
CGA:  47    -0.411498138306E+03   -0.94019E-02   -0.94088E-02  6480   0.228E+00 0.244E-03
CGA:  48    -0.411508454554E+03   -0.10316E-01   -0.99440E-02  6480   0.799E-01 0.379E-02
CGA:  49    -0.411512439843E+03   -0.39853E-02   -0.39077E-02  6480   0.110E+00 0.149E-02
CGA:  50    -0.411520702278E+03   -0.82624E-02   -0.83277E-02  6480   0.114E+00 0.333E-02
CGA:  51    -0.411524732313E+03   -0.40300E-02   -0.41196E-02  6480   0.678E-01-0.182E-02
CGA:  52    -0.411529327305E+03   -0.45950E-02   -0.44895E-02  6480   0.745E-01-0.262E-02
CGA:  53    -0.411533105553E+03   -0.37782E-02   -0.37091E-02  6480   0.106E+00-0.449E-03
CGA:  54    -0.411538961728E+03   -0.58562E-02   -0.58040E-02  6480   0.751E-01-0.973E-03
CGA:  55    -0.411540896497E+03   -0.19348E-02   -0.19681E-02  6480   0.332E-01-0.144E-02
CGA:  56    -0.411544571762E+03   -0.36753E-02   -0.35547E-02  6480   0.121E+00 0.320E-02
CGA:  57    -0.411551068314E+03   -0.64966E-02   -0.60458E-02  6480   0.321E-01 0.647E-02
SDA:  58    -0.411553461887E+03   -0.23936E-02   -0.23622E-02  6480   0.356E-01-0.194E-02
CGA:  59    -0.411555940153E+03   -0.24783E-02   -0.24774E-02  6480   0.468E-01-0.735E-04
CGA:  60    -0.411559357882E+03   -0.34177E-02   -0.34124E-02  6480   0.738E-01-0.141E-02
CGA:  61    -0.411566378599E+03   -0.70207E-02   -0.73977E-02  6480   0.288E-01-0.114E-01
CGA:  62    -0.411571323919E+03   -0.49453E-02   -0.45352E-02  6480   0.299E-01 0.365E-02
CGA:  63    -0.411572449001E+03   -0.11251E-02   -0.11404E-02  6480   0.203E-01 0.560E-03
CGA:  64    -0.411574191545E+03   -0.17425E-02   -0.17505E-02  6480   0.234E-01-0.528E-03
CGA:  65    -0.411575596715E+03   -0.14052E-02   -0.14227E-02  6480   0.110E-01 0.666E-03
CGA:  66    -0.411576146609E+03   -0.54989E-03   -0.53684E-03  6480   0.164E-01 0.240E-04
CGA:  67    -0.411578076706E+03   -0.19301E-02   -0.20156E-02  6480   0.612E-02-0.173E-02
CGA:  68    -0.411578947579E+03   -0.87087E-03   -0.89441E-03  6480   0.171E-01-0.291E-03
CGA:  69    -0.411579751394E+03   -0.80381E-03   -0.81084E-03  6480   0.113E-01 0.102E-03
CGA:  70    -0.411580163494E+03   -0.41210E-03   -0.40237E-03  6480   0.102E-01 0.312E-03
CGA:  71    -0.411582214369E+03   -0.20509E-02   -0.19150E-02  6480   0.104E-01 0.122E-02
CGA:  72    -0.411583299649E+03   -0.10853E-02   -0.10767E-02  6480   0.274E-01 0.649E-03
CGA:  73    -0.411585706273E+03   -0.24066E-02   -0.23985E-02  6480   0.400E-01-0.149E-02
CGA:  74    -0.411586527058E+03   -0.82079E-03   -0.69062E-03  6480   0.148E-01 0.601E-02
CGA:  75    -0.411587182065E+03   -0.65501E-03   -0.66338E-03  6480   0.391E-01-0.269E-03
CGA:  76    -0.411590533078E+03   -0.33510E-02   -0.33175E-02  6480   0.124E+00 0.184E-02
CGA:  77    -0.411592416125E+03   -0.18830E-02   -0.13570E-02  6480   0.389E-01 0.414E-01
CGA:  78    -0.411593158039E+03   -0.74191E-03   -0.68858E-03  6480   0.247E-01 0.204E-02
CGA:  79    -0.411594084207E+03   -0.92617E-03   -0.88621E-03  6480   0.787E-01 0.104E-03
CGA:  80    -0.411596106798E+03   -0.20226E-02   -0.17905E-02  6480   0.139E+00 0.667E-02
CGA:  81    -0.411598518653E+03   -0.24119E-02   -0.24179E-02  6480   0.102E+00-0.205E-02
CGA:  82    -0.411599688767E+03   -0.11701E-02   -0.14340E-02  6480   0.514E-01-0.146E-01
CGA:  83    -0.411600238377E+03   -0.54961E-03   -0.61419E-03  6480   0.293E-01-0.415E-02
CGA:  84    -0.411600772845E+03   -0.53447E-03   -0.51920E-03  6480   0.386E-01-0.526E-03
CGA:  85    -0.411602256497E+03   -0.14837E-02   -0.13975E-02  6480   0.985E-01-0.137E-02
CGA:  86    -0.411603856194E+03   -0.15997E-02   -0.14926E-02  6480   0.621E-01 0.780E-03
CGA:  87    -0.411604491323E+03   -0.63513E-03   -0.73436E-03  6480   0.151E-01-0.922E-02
CGA:  88    -0.411604723724E+03   -0.23240E-03   -0.23433E-03  6480   0.180E-01-0.456E-03
SDA:  89    -0.411605664839E+03   -0.94111E-03   -0.94059E-03  6480   0.550E-01-0.214E-03
CGA:  90    -0.411606753689E+03   -0.10888E-02   -0.10749E-02  6480   0.135E-01 0.601E-03
CGA:  91    -0.411608678028E+03   -0.19243E-02   -0.17854E-02  6480   0.363E-01 0.182E-02
CGA:  92    -0.411613211406E+03   -0.45334E-02   -0.46821E-02  6480   0.201E-01-0.269E-02
CGA:  93    -0.411614848817E+03   -0.16374E-02   -0.16009E-02  6480   0.144E-01 0.972E-03
CGA:  94    -0.411616533139E+03   -0.16843E-02   -0.18493E-02  6480   0.164E-01-0.262E-02
CGA:  95    -0.411617191033E+03   -0.65789E-03   -0.64681E-03  6480   0.854E-02-0.838E-03
CGA:  96    -0.411617396913E+03   -0.20588E-03   -0.19879E-03  6480   0.358E-02-0.226E-03
CGA:  97    -0.411618173258E+03   -0.77634E-03   -0.11128E-04  6480   0.662E-02-0.169E-02
CGA:  98    -0.411618266515E+03   -0.93258E-04   -0.83281E-04  6480   0.365E-02-0.188E-03
CGA:  99    -0.411618509522E+03   -0.24301E-03   -0.22993E-03  6480   0.608E-02-0.423E-03
CGA: 100    -0.411618907590E+03   -0.39807E-03   -0.36742E-03  6480   0.101E-01-0.859E-03
CGA: 101    -0.411619140906E+03   -0.23332E-03   -0.19248E-03  6480   0.367E-02-0.177E-03
CGA: 102    -0.411619346100E+03   -0.20519E-03   -0.19528E-03  6480   0.916E-02-0.192E-03
CGA: 103    -0.411619691660E+03   -0.34556E-03   -0.33002E-03  6480   0.859E-02-0.143E-03
CGA: 104    -0.411619946171E+03   -0.25451E-03   -0.25385E-03  6480   0.587E-02-0.244E-03
CGA: 105    -0.411620083925E+03   -0.13775E-03   -0.13725E-03  6480   0.393E-02-0.204E-03
CGA: 106    -0.411620412453E+03   -0.32853E-03   -0.32888E-03  6480   0.136E-01-0.260E-03
CGA: 107    -0.411620708328E+03   -0.29587E-03   -0.27381E-03  6480   0.346E-02 0.259E-05
CGA: 108    -0.411620793891E+03   -0.85564E-04   -0.76894E-04  6480   0.266E-02-0.630E-04
CGA: 109    -0.411620908818E+03   -0.11493E-03   -0.10179E-03  6480   0.414E-02-0.236E-03
CGA: 110    -0.411621135420E+03   -0.22660E-03   -0.21079E-03  6480   0.123E-01-0.684E-03
CGA: 111    -0.411621428617E+03   -0.29320E-03   -0.25859E-03  6480   0.598E-02-0.108E-02
CGA: 112    -0.411621508124E+03   -0.79507E-04   -0.71910E-04  6480   0.194E-02-0.288E-03
CGA: 113    -0.411621564414E+03   -0.56290E-04   -0.56445E-04  6480   0.343E-02-0.318E-04
CGA: 114    -0.411621697572E+03   -0.13316E-03   -0.13598E-03  6480   0.626E-02 0.384E-04
CGA: 115    -0.411621934322E+03   -0.23675E-03   -0.23539E-03  6480   0.950E-02 0.149E-03
CGA: 116    -0.411622121159E+03   -0.18684E-03   -0.17957E-03  6480   0.296E-02 0.541E-03
CGA: 117    -0.411622171400E+03   -0.50241E-04   -0.49815E-04  6480   0.184E-02-0.149E-04
CGA: 118    -0.411622303723E+03   -0.13232E-03   -0.13533E-03  6480   0.106E-01-0.233E-03
CGA: 119    -0.411622587693E+03   -0.28397E-03   -0.23336E-03  6480   0.146E-01 0.336E-03
SDA: 120    -0.411622843079E+03   -0.25539E-03   -0.20764E-03  6480   0.111E-01 0.147E-02
CGA: 121    -0.411623158360E+03   -0.31528E-03   -0.32811E-03  6480   0.220E-02 0.831E-04
CGA: 122    -0.411623245140E+03   -0.86781E-04   -0.87428E-04  6480   0.298E-02 0.384E-04
CGA: 123    -0.411623510301E+03   -0.26516E-03   -0.25863E-03  6480   0.777E-03 0.217E-03
CGA: 124    -0.411623691399E+03   -0.18110E-03   -0.15073E-03  6480   0.698E-03 0.244E-03
CGA: 125    -0.411623770116E+03   -0.78718E-04   -0.76479E-04  6480   0.113E-02 0.108E-03
CGA: 126    -0.411624107529E+03   -0.33741E-03   -0.35996E-03  6480   0.207E-02-0.120E-03
CGA: 127    -0.411624174405E+03   -0.66875E-04   -0.71501E-04  6480   0.282E-02 0.102E-03
CGA: 128    -0.411624448380E+03   -0.27398E-03   -0.26630E-03  6480   0.140E-02 0.470E-03
CGA: 129    -0.411624606873E+03   -0.15849E-03   -0.14993E-03  6480   0.287E-02 0.460E-03
CGA: 130    -0.411624751320E+03   -0.14445E-03   -0.15208E-03  6480   0.240E-02 0.402E-03
CGA: 131    -0.411624936553E+03   -0.18523E-03   -0.18799E-03  6480   0.205E-02 0.546E-03
CGA: 132    -0.411625235055E+03   -0.29850E-03   -0.36364E-03  6480   0.163E-01-0.962E-03
CGA: 133    -0.411625300310E+03   -0.65254E-04   -0.39943E-04  6480   0.179E-01 0.440E-02
CGA: 134    -0.411625665480E+03   -0.36517E-03   -0.36296E-03  6480   0.758E-02 0.113E-03
CGA: 135    -0.411625868392E+03   -0.20291E-03   -0.27662E-03  6480   0.104E-01-0.145E-02
CGA: 136    -0.411626121299E+03   -0.25291E-03   -0.17208E-03  6480   0.344E-02 0.203E-02
CGA: 137    -0.411626305282E+03   -0.18398E-03   -0.16186E-03  6480   0.104E-01-0.266E-03
CGA: 138    -0.411626548104E+03   -0.24282E-03   -0.15319E-03  6480   0.201E-01 0.326E-02
CGA: 139    -0.411626949542E+03   -0.40144E-03   -0.24051E-03  6480   0.189E-01 0.141E-01
CGA: 140    -0.411627284851E+03   -0.33531E-03   -0.33307E-03  6480   0.353E-02 0.101E-03
CGA: 141    -0.411627727096E+03   -0.44224E-03   -0.40977E-03  6480   0.547E-02 0.559E-03
CGA: 142    -0.411628185829E+03   -0.45873E-03   -0.46014E-03  6480   0.387E-02-0.811E-04
CGA: 143    -0.411628561299E+03   -0.37547E-03   -0.38802E-03  6480   0.103E-01-0.313E-03
CGA: 144    -0.411628838646E+03   -0.27735E-03   -0.26705E-03  6480   0.227E-02-0.256E-03
CGA: 145    -0.411629014404E+03   -0.17576E-03   -0.20315E-03  6480   0.580E-02-0.877E-03
CGA: 146    -0.411629247195E+03   -0.23279E-03   -0.23847E-03  6480   0.134E-01-0.133E-02
CGA: 147    -0.411629655631E+03   -0.40844E-03   -0.38390E-03  6480   0.468E-02-0.128E-02
CGA: 148    -0.411629934895E+03   -0.27926E-03   -0.28005E-03  6480   0.127E-01-0.164E-03
CGA: 149    -0.411630647612E+03   -0.71272E-03   -0.71475E-03  6480   0.522E-02 0.303E-04
CGA: 150    -0.411630916673E+03   -0.26906E-03   -0.26071E-03  6480   0.494E-02-0.494E-03
CGA: 151    -0.411631286763E+03   -0.37009E-03   -0.40160E-03  6480   0.109E-01-0.104E-02
CGA: 152    -0.411631519128E+03   -0.23236E-03   -0.23309E-03  6480   0.400E-02-0.102E-02
CGA: 153    -0.411631746095E+03   -0.22697E-03   -0.22742E-03  6480   0.113E-01-0.423E-03
CGA: 154    -0.411632428346E+03   -0.68225E-03   -0.77918E-03  6480   0.276E-01-0.531E-02
CGA: 155    -0.411632691543E+03   -0.26320E-03   -0.14659E-03  6480   0.247E-01 0.462E-02
CGA: 156    -0.411633164230E+03   -0.47269E-03   -0.38213E-03  6480   0.620E-02 0.245E-03
CGA: 157    -0.411633322729E+03   -0.15850E-03   -0.14448E-03  6480   0.887E-02-0.829E-03
CGA: 158    -0.411634117853E+03   -0.79512E-03   -0.93065E-03  6480   0.575E-01-0.260E-02
CGA: 159    -0.411634256275E+03   -0.13842E-03   -0.76747E-04  6480   0.537E-01 0.309E-01
CGA: 160    -0.411635393619E+03   -0.11373E-02   -0.11877E-02  6480   0.741E-02-0.279E-03
CGA: 161    -0.411635612271E+03   -0.21865E-03   -0.21762E-03  6480   0.368E-02-0.772E-04
CGA: 162    -0.411637055766E+03   -0.14435E-02   -0.18891E-03  6480   0.504E-02 0.628E-03
CGA: 163    -0.411637247675E+03   -0.19191E-03   -0.18884E-03  6480   0.437E-02-0.982E-04
CGA: 164    -0.411637911407E+03   -0.66373E-03   -0.64336E-03  6480   0.768E-02 0.388E-03
CGA: 165    -0.411638326364E+03   -0.41496E-03   -0.44088E-03  6480   0.410E-02 0.222E-03
CGA: 166    -0.411638585389E+03   -0.25903E-03   -0.26428E-03  6480   0.924E-02 0.290E-03
CGA: 167    -0.411639873297E+03   -0.12879E-02   -0.12802E-02  6480   0.147E-01 0.184E-03
CGA: 168    -0.411641068595E+03   -0.11953E-02   -0.12338E-02  6480   0.622E-02 0.179E-02
CGA: 169    -0.411641760781E+03   -0.69219E-03   -0.70045E-03  6480   0.139E-01-0.569E-03
CGA: 170    -0.411642384596E+03   -0.62381E-03   -0.70344E-03  6480   0.138E-01 0.658E-03
CGA: 171    -0.411642935022E+03   -0.55043E-03   -0.59579E-03  6480   0.805E-02 0.116E-02
CGA: 172    -0.411644266124E+03   -0.13311E-02   -0.12244E-02  6480   0.974E-02 0.149E-02
CGA: 173    -0.411644808785E+03   -0.54266E-03   -0.55438E-03  6480   0.995E-02 0.517E-04
CGA: 174    -0.411645615486E+03   -0.80670E-03   -0.11903E-02  6480   0.751E-01-0.104E-01
CGA: 175    -0.411647038279E+03   -0.14228E-02   -0.13837E-02  6480   0.674E-02 0.981E-03
CGA: 176    -0.411647453727E+03   -0.41545E-03   -0.41971E-03  6480   0.911E-02 0.615E-05
CGA: 177    -0.411648787941E+03   -0.13342E-02   -0.14064E-02  6480   0.125E-01-0.107E-02
CGA: 178    -0.411651657053E+03   -0.28691E-02   -0.28014E-02  6480   0.312E-01 0.582E-03
CGA: 179    -0.411652426567E+03   -0.76951E-03   -0.67416E-03  6480   0.867E-02 0.325E-02
CGA: 180    -0.411653929032E+03   -0.15025E-02   -0.15583E-02  6480   0.401E-01-0.776E-03
CGA: 181    -0.411655353973E+03   -0.14249E-02   -0.16353E-02  6480   0.228E-01-0.351E-02
CGA: 182    -0.411656602190E+03   -0.12482E-02   -0.11040E-02  6480   0.257E-01 0.449E-03
CGA: 183    -0.411658369701E+03   -0.17675E-02   -0.16175E-02  6480   0.360E-01-0.170E-03
CGA: 184    -0.411659470125E+03   -0.11004E-02   -0.12886E-02  6480   0.172E-01-0.340E-02
CGA: 185    -0.411660650569E+03   -0.11804E-02   -0.12254E-02  6480   0.371E-01 0.180E-02
CGA: 186    -0.411662384300E+03   -0.17337E-02   -0.12245E-02  6480   0.188E-01 0.128E-01
CGA: 187    -0.411663664002E+03   -0.12797E-02   -0.11858E-02  6480   0.184E-01 0.496E-03
CGA: 188    -0.411664386163E+03   -0.72216E-03   -0.80957E-03  6480   0.246E-01-0.783E-03
CGA: 189    -0.411665628634E+03   -0.12425E-02   -0.11841E-02  6480   0.173E-01 0.789E-03
CGA: 190    -0.411667071992E+03   -0.14434E-02   -0.14596E-02  6480   0.684E-01-0.383E-02
CGA: 191    -0.411667667745E+03   -0.59575E-03   -0.34708E-03  6480   0.761E-01 0.342E-01
CGA: 192    -0.411669245416E+03   -0.15777E-02   -0.15786E-02  6480   0.146E-01-0.646E-03
CGA: 193    -0.411670591233E+03   -0.13458E-02   -0.13584E-02  6480   0.174E-01-0.526E-03
CGA: 194    -0.411671843963E+03   -0.12527E-02   -0.12524E-02  6480   0.954E-02 0.465E-03
CGA: 195    -0.411674284460E+03   -0.24405E-02   -0.22573E-02  6480   0.155E-01 0.115E-02
CGA: 196    -0.411674908994E+03   -0.62453E-03   -0.63769E-03  6480   0.119E-01-0.642E-04
CGA: 197    -0.411676385211E+03   -0.14762E-02   -0.15489E-02  6480   0.399E-01-0.122E-02
CGA: 198    -0.411679364268E+03   -0.29791E-02   -0.29787E-02  6480   0.341E-01 0.651E-03
CGA: 199    -0.411680335634E+03   -0.97137E-03   -0.11807E-02  6480   0.148E-01-0.303E-02
CGA: 200    -0.411681644667E+03   -0.13090E-02   -0.13249E-02  6480   0.354E-01-0.200E-03
   1 F= -.41168164E+03 E0= -.41167588E+03  d E =-.411682E+03  mag=    14.0000
       N       E                     dE             d eps       ncg     rms          ort
SDA:   1    -0.411230223591E+03    0.45011E+00    0.00000E+00  6480   0.259E+02 0.000E+00
CGA:   2    -0.411481426030E+03   -0.25120E+00   -0.71319E+00  6480   0.114E+02-0.158E+02
CGA:   3    -0.411670566364E+03   -0.18914E+00   -0.23496E+00  6480   0.737E+00-0.292E+01
CGA:   4    -0.411683297819E+03   -0.12731E-01   -0.12874E-01  6480   0.237E-01-0.409E-02
CGA:   5    -0.411686964642E+03   -0.36668E-02   -0.36955E-02  6480   0.689E-01-0.342E-03
CGA:   6    -0.411689056907E+03   -0.20923E-02   -0.21213E-02  6480   0.131E-01-0.610E-03
CGA:   7    -0.411689866854E+03   -0.80995E-03   -0.80165E-03  6480   0.133E-01-0.481E-03
CGA:   8    -0.411691281541E+03   -0.14147E-02   -0.14295E-02  6480   0.844E-02-0.373E-03
CGA:   9    -0.411691510991E+03   -0.22945E-03   -0.22605E-03  6480   0.349E-02-0.121E-03
CGA:  10    -0.411692314290E+03   -0.80330E-03   -0.73299E-03  6480   0.401E-02 0.487E-03
CGA:  11    -0.411692530579E+03   -0.21629E-03   -0.22036E-03  6480   0.602E-02 0.179E-04
CGA:  12    -0.411693633457E+03   -0.11029E-02   -0.13156E-02  6480   0.231E-01-0.208E-02
CGA:  13    -0.411694166271E+03   -0.53281E-03   -0.63053E-03  6480   0.132E-01-0.210E-03
CGA:  14    -0.411694734331E+03   -0.56806E-03   -0.67674E-03  6480   0.214E-01-0.132E-03
CGA:  15    -0.411696322151E+03   -0.15878E-02   -0.13225E-02  6480   0.278E-01-0.217E-02
CGA:  16    -0.411697489224E+03   -0.11671E-02   -0.90911E-03  6480   0.346E-01 0.489E-02
CGA:  17    -0.411698648644E+03   -0.11594E-02   -0.12610E-02  6480   0.204E-01-0.514E-03
CGA:  18    -0.411700110929E+03   -0.14623E-02   -0.14785E-02  6480   0.852E-02 0.305E-02
CGA:  19    -0.411700489133E+03   -0.37820E-03   -0.36581E-03  6480   0.108E-01 0.554E-03
CGA:  20    -0.411701460562E+03   -0.97143E-03   -0.96399E-03  6480   0.206E-01 0.841E-03
CGA:  21    -0.411702086159E+03   -0.62560E-03   -0.75603E-03  6480   0.616E-02-0.513E-03
CGA:  22    -0.411702544288E+03   -0.45813E-03   -0.45618E-03  6480   0.702E-02 0.658E-03
CGA:  23    -0.411703018816E+03   -0.47453E-03   -0.48599E-03  6480   0.365E-02 0.993E-03
CGA:  24    -0.411703298381E+03   -0.27956E-03   -0.28247E-03  6480   0.757E-02 0.543E-03
CGA:  25    -0.411703977280E+03   -0.67890E-03   -0.68010E-03  6480   0.567E-02 0.160E-03
CGA:  26    -0.411704202057E+03   -0.22478E-03   -0.23313E-03  6480   0.229E-02 0.166E-03
CGA:  27    -0.411704521423E+03   -0.31937E-03   -0.30627E-03  6480   0.341E-02 0.223E-03
CGA:  28    -0.411704691104E+03   -0.16968E-03   -0.17778E-03  6480   0.330E-02 0.248E-03
CGA:  29    -0.411704964920E+03   -0.27382E-03   -0.27240E-03  6480   0.256E-02 0.357E-03
CGA:  30    -0.411705103657E+03   -0.13874E-03   -0.14220E-03  6480   0.150E-02 0.144E-03
CGA:  31    -0.411705216287E+03   -0.11263E-03   -0.11264E-03  6480   0.247E-02 0.326E-04
CGA:  32    -0.411705360062E+03   -0.14378E-03   -0.14508E-03  6480   0.103E-02 0.796E-04
SDA:  33    -0.411705470067E+03   -0.11000E-03   -0.10882E-03  6480   0.160E-02 0.403E-04
CGA:  34    -0.411705503817E+03   -0.33750E-04   -0.35811E-04  6480   0.589E-03 0.398E-04
CGA:  35    -0.411705601914E+03   -0.98097E-04   -0.81552E-04  6480   0.432E-03 0.253E-03
CGA:  36    -0.411705636172E+03   -0.34258E-04   -0.35736E-04  6480   0.643E-03 0.958E-04
CGA:  37    -0.411705681099E+03   -0.44927E-04   -0.46487E-04  6480   0.887E-03 0.117E-03
CGA:  38    -0.411705757991E+03   -0.76892E-04   -0.76798E-04  6480   0.367E-03 0.586E-04
CGA:  39    -0.411705775081E+03   -0.17090E-04   -0.16814E-04  6480   0.570E-03-0.944E-05
CGA:  40    -0.411705840107E+03   -0.65026E-04   -0.66505E-04  6480   0.764E-03-0.323E-04
CGA:  41    -0.411705868605E+03   -0.28499E-04   -0.28361E-04  6480   0.629E-03-0.789E-05
CGA:  42    -0.411705892367E+03   -0.23761E-04   -0.24508E-04  6480   0.462E-03 0.273E-04
CGA:  43    -0.411705928364E+03   -0.35998E-04   -0.35338E-04  6480   0.596E-03 0.174E-03
CGA:  44    -0.411705948614E+03   -0.20250E-04   -0.25041E-04  6480   0.227E-03 0.116E-03
CGA:  45    -0.411705988814E+03   -0.40200E-04   -0.33865E-04  6480   0.248E-03 0.110E-03
CGA:  46    -0.411706015840E+03   -0.27026E-04   -0.26975E-04  6480   0.702E-03 0.169E-04
CGA:  47    -0.411706072539E+03   -0.56699E-04   -0.56843E-04  6480   0.449E-03-0.323E-04
CGA:  48    -0.411706083403E+03   -0.10864E-04   -0.11214E-04  6480   0.305E-03 0.879E-05
CGA:  49    -0.411706098838E+03   -0.15435E-04   -0.16284E-04  6480   0.417E-03 0.484E-04
CGA:  50    -0.411706127499E+03   -0.28661E-04   -0.29233E-04  6480   0.811E-03 0.689E-04
CGA:  51    -0.411706163807E+03   -0.36308E-04   -0.37389E-04  6480   0.243E-03 0.462E-04
CGA:  52    -0.411706181748E+03   -0.17941E-04   -0.17827E-04  6480   0.593E-03 0.327E-04
CGA:  53    -0.411706212187E+03   -0.30439E-04   -0.32039E-04  6480   0.148E-03 0.683E-04
CGA:  54    -0.411706229535E+03   -0.17348E-04   -0.16953E-04  6480   0.435E-03 0.924E-05
CGA:  55    -0.411706249726E+03   -0.20191E-04   -0.20111E-04  6480   0.264E-03-0.209E-05
CGA:  56    -0.411706263188E+03   -0.13462E-04   -0.13552E-04  6480   0.143E-03 0.280E-05
CGA:  57    -0.411706276616E+03   -0.13428E-04   -0.17134E-04  6480   0.954E-03-0.717E-04
CGA:  58    -0.411706295159E+03   -0.18543E-04   -0.18017E-04  6480   0.112E-03-0.142E-04
CGA:  59    -0.411706310811E+03   -0.15652E-04   -0.23658E-04  6480   0.632E-03-0.543E-04
CGA:  60    -0.411706323113E+03   -0.12302E-04   -0.11887E-04  6480   0.502E-03-0.114E-04
CGA:  61    -0.411706333905E+03   -0.10792E-04   -0.11844E-04  6480   0.170E-03 0.178E-04
CGA:  62    -0.411706338560E+03   -0.46545E-05   -0.55980E-05  6480   0.157E-03 0.250E-04
CGA:  63    -0.411706348726E+03   -0.10166E-04   -0.10483E-04  6480   0.194E-03 0.369E-04
CGA:  64    -0.411706356765E+03   -0.80390E-05   -0.80423E-05  6480   0.810E-04 0.501E-06
CGA:  65    -0.411706360735E+03   -0.39696E-05   -0.11573E-04  6480   0.546E-03-0.980E-04
CGA:  66    -0.411706376527E+03   -0.15793E-04   -0.16317E-04  6480   0.778E-04 0.835E-05
CGA:  67    -0.411706379704E+03   -0.31765E-05   -0.29991E-05  6480   0.714E-04-0.615E-05
CGA:  68    -0.411706338154E+03    0.41549E-04   -0.23081E-04  6480   0.914E-03-0.195E-03
CGA:  69    -0.411706366029E+03   -0.27874E-04   -0.30695E-04  6480   0.636E-03 0.351E-04
CGA:  70    -0.411706395691E+03   -0.29663E-04   -0.33731E-04  6480   0.691E-04 0.619E-04
CGA:  71    -0.411706400949E+03   -0.52574E-05   -0.51670E-05  6480   0.595E-04-0.184E-05
   2 F= -.41170640E+03 E0= -.41170062E+03  d E =-.247563E-01  mag=    14.0000
       N       E                     dE             d eps       ncg     rms          ort
SDA:   1    -0.411702920498E+03    0.34752E-02    0.00000E+00  6480   0.214E+00 0.000E+00
CGA:   2    -0.411706397513E+03   -0.34770E-02   -0.34927E-02  6480   0.641E-03-0.118E-02
CGA:   3    -0.411706428441E+03   -0.30928E-04   -0.31148E-04  6480   0.324E-03 0.948E-05
CGA:   4    -0.411706453528E+03   -0.25087E-04   -0.26202E-04  6480   0.279E-03 0.505E-04
CGA:   5    -0.411706462891E+03   -0.93626E-05   -0.10409E-04  6480   0.129E-03 0.153E-04
CGA:   6    -0.411706480514E+03   -0.17623E-04   -0.17944E-04  6480   0.151E-03-0.933E-05
CGA:   7    -0.411706484711E+03   -0.41972E-05   -0.38151E-05  6480   0.399E-04-0.552E-05
   3 F= -.41170648E+03 E0= -.41170070E+03  d E =-.837623E-04  mag=    14.0000
       N       E                     dE             d eps       ncg     rms          ort
SDA:   1    -0.411671101623E+03    0.35379E-01    0.00000E+00  6480   0.721E+00 0.000E+00
CGA:   2    -0.411683926624E+03   -0.12825E-01   -0.13156E-01  6480   0.688E-01-0.203E-01
CGA:   3    -0.411695684454E+03   -0.11758E-01   -0.11766E-01  6480   0.128E+00-0.873E-04
CGA:   4    -0.411700784309E+03   -0.50999E-02   -0.50710E-02  6480   0.421E-01 0.108E-02
CGA:   5    -0.411702451015E+03   -0.16667E-02   -0.16741E-02  6480   0.286E-01-0.722E-04
CGA:   6    -0.411705024500E+03   -0.25735E-02   -0.25728E-02  6480   0.945E-02-0.344E-03
CGA:   7    -0.411705330057E+03   -0.30556E-03   -0.30306E-03  6480   0.575E-02-0.124E-03
CGA:   8    -0.411705946606E+03   -0.61655E-03   -0.62121E-03  6480   0.261E-02-0.228E-03
CGA:   9    -0.411706020122E+03   -0.73516E-04   -0.70368E-04  6480   0.921E-03-0.695E-04
CGA:  10    -0.411706123891E+03   -0.10377E-03   -0.10950E-03  6480   0.181E-02-0.162E-03
CGA:  11    -0.411706181380E+03   -0.57488E-04   -0.54212E-04  6480   0.375E-03-0.644E-04
CGA:  12    -0.411706195710E+03   -0.14331E-04   -0.15155E-04  6480   0.233E-03 0.177E-04
CGA:  13    -0.411706230888E+03   -0.35178E-04   -0.32354E-04  6480   0.135E-03 0.580E-04
CGA:  14    -0.411706239239E+03   -0.83509E-05   -0.82283E-05  6480   0.120E-03-0.285E-05
   4 F= -.41170624E+03 E0= -.41170047E+03  d E =0.245472E-03  mag=    14.0000
       N       E                     dE             d eps       ncg     rms          ort
SDA:   1    -0.411680752512E+03    0.25478E-01    0.00000E+00  6480   0.115E+01 0.000E+00
CGA:   2    -0.411699416330E+03   -0.18664E-01   -0.23327E-01  6480   0.106E+00-0.202E+00
CGA:   3    -0.411701907559E+03   -0.24912E-02   -0.24455E-02  6480   0.150E-01 0.865E-03
CGA:   4    -0.411704617577E+03   -0.27100E-02   -0.27205E-02  6480   0.441E-01-0.105E-03
CGA:   5    -0.411705813815E+03   -0.11962E-02   -0.11897E-02  6480   0.425E-02 0.103E-03
CGA:   6    -0.411706398514E+03   -0.58470E-03   -0.57854E-03  6480   0.656E-02 0.110E-03
CGA:   7    -0.411706592004E+03   -0.19349E-03   -0.19594E-03  6480   0.141E-02 0.112E-03
CGA:   8    -0.411706663784E+03   -0.71780E-04   -0.73775E-04  6480   0.915E-03 0.605E-04
CGA:   9    -0.411706742439E+03   -0.78655E-04   -0.78513E-04  6480   0.564E-03 0.430E-04
CGA:  10    -0.411706757273E+03   -0.14834E-04   -0.15827E-04  6480   0.145E-03 0.179E-04
CGA:  11    -0.411706771068E+03   -0.13795E-04   -0.13161E-04  6480   0.734E-04 0.567E-04
CGA:  12    -0.411706776275E+03   -0.52074E-05   -0.55819E-05  6480   0.102E-03 0.167E-04
   5 F= -.41170678E+03 E0= -.41170100E+03  d E =-.537037E-03  mag=    14.0000
       N       E                     dE             d eps       ncg     rms          ort
SDA:   1    -0.411705941114E+03    0.82995E-03    0.00000E+00  6480   0.299E-01 0.000E+00
CGA:   2    -0.411706623290E+03   -0.68218E-03   -0.66247E-03  6480   0.338E-02 0.548E-03
CGA:   3    -0.411706709770E+03   -0.86480E-04   -0.85393E-04  6480   0.397E-03-0.679E-05
CGA:   4    -0.411706776826E+03   -0.67056E-04   -0.59720E-04  6480   0.199E-03 0.909E-04
CGA:   5    -0.411706792949E+03   -0.16123E-04   -0.16024E-04  6480   0.498E-03-0.113E-04
CGA:   6    -0.411706818731E+03   -0.25782E-04   -0.24991E-04  6480   0.161E-03-0.387E-04
CGA:   7    -0.411706821602E+03   -0.28710E-05   -0.29679E-05  6480   0.735E-04 0.164E-05
   6 F= -.41170682E+03 E0= -.41170104E+03  d E =-.453263E-04  mag=    14.0000
