       N       E                     dE             d eps       ncg     rms          rms(c)
DAV:   1     0.281350920111E+04    0.28135E+04   -0.13315E+05 24200   0.152E+03
DAV:   2    -0.295602089705E+02   -0.28431E+04   -0.27589E+04 27144   0.437E+02
DAV:   3    -0.309291947305E+03   -0.27973E+03   -0.27389E+03 28080   0.149E+02
DAV:   4    -0.324171812735E+03   -0.14880E+02   -0.14420E+02 37168   0.359E+01
DAV:   5    -0.325284746627E+03   -0.11129E+01   -0.10976E+01 45240   0.658E+00    0.705E+01
DAV:   6    -0.292750250309E+03    0.32534E+02   -0.29678E+02 33264   0.485E+01    0.510E+01
DAV:   7    -0.319753089246E+03   -0.27003E+02   -0.14492E+02 36072   0.699E+01    0.758E+01
DAV:   8    -0.306616905511E+03    0.13136E+02   -0.14166E+02 33728   0.567E+01    0.467E+01
DAV:   9    -0.288258944681E+03    0.18358E+02   -0.39910E+01 33496   0.230E+01    0.334E+01
DAV:  10    -0.289885626875E+03   -0.16267E+01   -0.65729E+01 34088   0.151E+01    0.384E+01
DAV:  11    -0.286843931159E+03    0.30417E+01   -0.18430E+01 34040   0.978E+00    0.256E+01
DAV:  12    -0.286239342718E+03    0.60459E+00   -0.90687E-01 33792   0.400E+00    0.181E+01
DAV:  13    -0.286907305949E+03   -0.66796E+00   -0.24460E-01 35544   0.164E+00    0.145E+01
DAV:  14    -0.287830764252E+03   -0.92346E+00   -0.16552E+01 33368   0.520E+00    0.251E+01
DAV:  15    -0.287644109069E+03    0.18666E+00   -0.29912E+00 32720   0.246E+00    0.182E+01
DAV:  16    -0.287785055154E+03   -0.14095E+00   -0.10091E-01 29904   0.150E+00    0.162E+01
DAV:  17    -0.287842170611E+03   -0.57115E-01   -0.16688E+00 36376   0.160E+00    0.137E+01
DAV:  18    -0.287911337080E+03   -0.69166E-01   -0.38568E-02 27336   0.701E-01    0.138E+01
DAV:  19    -0.287935154592E+03   -0.23818E-01   -0.68502E-02 32880   0.519E-01    0.139E+01
DAV:  20    -0.287897812756E+03    0.37342E-01   -0.18315E-02 31368   0.360E-01    0.140E+01
DAV:  21    -0.287853539935E+03    0.44273E-01   -0.15151E-01 32632   0.776E-01    0.120E+01
DAV:  22    -0.287907505038E+03   -0.53965E-01   -0.14018E+00 35336   0.168E+00    0.965E+00
DAV:  23    -0.287894114319E+03    0.13391E-01   -0.13232E-01 30512   0.107E+00    0.950E+00
DAV:  24    -0.287838598039E+03    0.55516E-01   -0.33518E-02 30968   0.405E-01    0.875E+00
DAV:  25    -0.287841595083E+03   -0.29970E-02   -0.37767E-02 32920   0.293E-01    0.942E+00
DAV:  26    -0.287802732373E+03    0.38863E-01   -0.33590E-02 31144   0.405E-01    0.903E+00
DAV:  27    -0.287763196288E+03    0.39536E-01   -0.18931E-01 34000   0.658E-01    0.986E+00
DAV:  28    -0.287628376301E+03    0.13482E+00   -0.13075E-01 34568   0.119E+00    0.745E+00
DAV:  29    -0.287568944367E+03    0.59432E-01   -0.92013E-02 34392   0.843E-01    0.600E+00
DAV:  30    -0.287578693630E+03   -0.97493E-02   -0.74280E-03 27232   0.282E-01    0.593E+00
DAV:  31    -0.287576398447E+03    0.22952E-02   -0.15432E-03 35088   0.100E-01    0.579E+00
DAV:  32    -0.287563882827E+03    0.12516E-01   -0.15281E-02 33232   0.263E-01    0.534E+00
DAV:  33    -0.287555927484E+03    0.79553E-02   -0.10818E-02 32928   0.238E-01    0.522E+00
DAV:  34    -0.287553153535E+03    0.27739E-02   -0.22507E-03 28688   0.163E-01    0.511E+00
DAV:  35    -0.287555607697E+03   -0.24542E-02   -0.59334E-03 32576   0.297E-01    0.526E+00
DAV:  36    -0.287542011355E+03    0.13596E-01   -0.30186E-02 31616   0.657E-01    0.519E+00
DAV:  37    -0.287533591590E+03    0.84198E-02   -0.31963E-02 32760   0.499E-01    0.623E+00
DAV:  38    -0.287526729248E+03    0.68623E-02   -0.30085E-02 30456   0.620E-01    0.541E+00
DAV:  39    -0.287503676928E+03    0.23052E-01   -0.12926E-01 33296   0.708E-01    0.382E+00
DAV:  40    -0.287522971867E+03   -0.19295E-01   -0.14955E-02 29992   0.409E-01    0.408E+00
DAV:  41    -0.287519231033E+03    0.37408E-02   -0.11761E-02 32528   0.247E-01    0.369E+00
DAV:  42    -0.287523865927E+03   -0.46349E-02   -0.21415E-03 31600   0.138E-01    0.364E+00
DAV:  43    -0.287534487497E+03   -0.10622E-01   -0.16837E-02 30904   0.421E-01    0.365E+00
DAV:  44    -0.287538652655E+03   -0.41652E-02   -0.24408E-02 32160   0.363E-01    0.344E+00
DAV:  45    -0.287536884014E+03    0.17686E-02   -0.27804E-03 28976   0.176E-01    0.354E+00
DAV:  46    -0.287539159729E+03   -0.22757E-02   -0.44877E-03 30744   0.227E-01    0.335E+00
DAV:  47    -0.287536537688E+03    0.26220E-02   -0.72895E-03 31944   0.258E-01    0.316E+00
DAV:  48    -0.287534451403E+03    0.20863E-02   -0.36795E-03 32976   0.132E-01    0.309E+00
DAV:  49    -0.287536173177E+03   -0.17218E-02   -0.35972E-03 32832   0.212E-01    0.301E+00
DAV:  50    -0.287544849473E+03   -0.86763E-02   -0.70808E-03 32408   0.288E-01    0.296E+00
DAV:  51    -0.287561305143E+03   -0.16456E-01   -0.16919E-02 32680   0.347E-01    0.279E+00
DAV:  52    -0.287557640919E+03    0.36642E-02   -0.60224E-02 33112   0.447E-01    0.257E+00
DAV:  53    -0.287566815907E+03   -0.91750E-02   -0.49541E-02 31808   0.348E-01    0.325E+00
DAV:  54    -0.287561082256E+03    0.57337E-02   -0.12376E-02 29256   0.347E-01    0.342E+00
DAV:  55    -0.287562922977E+03   -0.18407E-02   -0.38752E-03 33744   0.185E-01    0.316E+00
DAV:  56    -0.287595493257E+03   -0.32570E-01   -0.81450E-02 31088   0.743E-01    0.283E+00
DAV:  57    -0.287593017819E+03    0.24754E-02   -0.13968E-02 28904   0.340E-01    0.228E+00
DAV:  58    -0.287594180810E+03   -0.11630E-02   -0.13152E-02 32872   0.284E-01    0.137E+00
DAV:  59    -0.287596297467E+03   -0.21167E-02   -0.81719E-03 32680   0.170E-01    0.746E-01
DAV:  60    -0.287597662726E+03   -0.13653E-02   -0.84845E-04 27832   0.101E-01    0.820E-01
DAV:  61    -0.287596037797E+03    0.16249E-02   -0.13109E-02 31816   0.253E-01    0.110E+00
DAV:  62    -0.287599154728E+03   -0.31169E-02   -0.43273E-03 29880   0.242E-01    0.652E-01
DAV:  63    -0.287599619332E+03   -0.46460E-03   -0.22546E-03 33408   0.104E-01    0.595E-01
DAV:  64    -0.287599670410E+03   -0.51078E-04   -0.78322E-04 31648   0.682E-02    0.495E-01
DAV:  65    -0.287599699787E+03   -0.29377E-04   -0.16167E-03 32432   0.807E-02    0.340E-01
DAV:  66    -0.287599872758E+03   -0.17297E-03   -0.73195E-04 28880   0.781E-02    0.143E-01
DAV:  67    -0.287599975415E+03   -0.10266E-03   -0.23455E-04 25896   0.467E-02    0.657E-02
DAV:  68    -0.287599992835E+03   -0.17420E-04   -0.33510E-05 18512   0.211E-02    0.506E-02
DAV:  69    -0.287599994157E+03   -0.13220E-05   -0.22369E-05 13856   0.129E-02
   1 F= -.28759999E+03 E0= -.28758684E+03  d E =-.287600E+03  mag=    10.0000
       N       E                     dE             d eps       ncg     rms          rms(c)
DAV:   1    -0.287601400535E+03   -0.14077E-02   -0.58036E-04 25056   0.979E-02    0.211E-02
DAV:   2    -0.287601423270E+03   -0.22735E-04   -0.20963E-04 23416   0.297E-02    0.133E-01
DAV:   3    -0.287601394183E+03    0.29087E-04   -0.13684E-04 18408   0.227E-02    0.278E-02
DAV:   4    -0.287601404188E+03   -0.10005E-04   -0.44215E-06 14040   0.681E-03    0.257E-02
DAV:   5    -0.287601404371E+03   -0.18324E-06   -0.19066E-06 12992   0.446E-03
   2 F= -.28760140E+03 E0= -.28758829E+03  d E =-.141021E-02  mag=    10.0000
       N       E                     dE             d eps       ncg     rms          rms(c)
DAV:   1    -0.287662982696E+03   -0.61579E-01   -0.22896E+00 24768   0.616E+00    0.874E-01
DAV:   2    -0.287696509718E+03   -0.33527E-01   -0.34674E-01 29952   0.137E+00    0.496E+00
DAV:   3    -0.287667831097E+03    0.28679E-01   -0.27203E-01 34344   0.725E-01    0.156E+00
DAV:   4    -0.287678329416E+03   -0.10498E-01   -0.53499E-02 32752   0.423E-01    0.124E+00
DAV:   5    -0.287676368548E+03    0.19609E-02   -0.12114E-02 33856   0.294E-01    0.426E-01
DAV:   6    -0.287678128409E+03   -0.17599E-02   -0.13456E-02 34752   0.179E-01    0.123E+00
DAV:   7    -0.287675785862E+03    0.23425E-02   -0.12509E-02 33896   0.175E-01    0.149E-01
DAV:   8    -0.287676755541E+03   -0.96968E-03   -0.59094E-04 28376   0.787E-02    0.143E-01
DAV:   9    -0.287676853932E+03   -0.98391E-04   -0.33683E-04 29152   0.390E-02    0.138E-01
DAV:  10    -0.287676867813E+03   -0.13881E-04   -0.14741E-04 20520   0.284E-02    0.138E-01
DAV:  11    -0.287676858918E+03    0.88952E-05   -0.10191E-04 18960   0.224E-02    0.108E-01
DAV:  12    -0.287676857169E+03    0.17484E-05   -0.68559E-05 20032   0.204E-02
   3 F= -.28767686E+03 E0= -.28766391E+03  d E =-.754528E-01  mag=    10.0000
       N       E                     dE             d eps       ncg     rms          rms(c)
DAV:   1    -0.287733082827E+03   -0.56224E-01   -0.67364E+00 25056   0.104E+01    0.116E+00
DAV:   2    -0.287827449726E+03   -0.94367E-01   -0.96275E-01 30160   0.225E+00    0.866E+00
DAV:   3    -0.287743685131E+03    0.83765E-01   -0.71806E-01 34824   0.107E+00    0.256E+00
DAV:   4    -0.287769258946E+03   -0.25574E-01   -0.11041E-01 33368   0.607E-01    0.118E+00
DAV:   5    -0.287771356063E+03   -0.20971E-02   -0.16696E-02 32320   0.373E-01    0.894E-01
DAV:   6    -0.287771059908E+03    0.29616E-03   -0.15749E-02 33976   0.193E-01    0.867E-01
DAV:   7    -0.287770049693E+03    0.10102E-02   -0.41115E-03 31704   0.199E-01    0.286E-01
DAV:   8    -0.287770556836E+03   -0.50714E-03   -0.21082E-03 33984   0.909E-02    0.199E-01
DAV:   9    -0.287770830043E+03   -0.27321E-03   -0.82957E-04 29720   0.509E-02    0.262E-01
DAV:  10    -0.287770792806E+03    0.37237E-04   -0.47370E-05 19088   0.221E-02    0.283E-01
DAV:  11    -0.287770599297E+03    0.19351E-03   -0.23216E-04 26688   0.325E-02    0.250E-01
DAV:  12    -0.287770586130E+03    0.13167E-04   -0.15481E-04 21656   0.286E-02    0.257E-01
DAV:  13    -0.287770586908E+03   -0.77766E-06   -0.76678E-05 22144   0.240E-02
   4 F= -.28777059E+03 E0= -.28775747E+03  d E =-.937297E-01  mag=    10.0000
       N       E                     dE             d eps       ncg     rms          rms(c)
DAV:   1    -0.287807331550E+03   -0.36745E-01   -0.92043E+00 25344   0.117E+01    0.116E+00
DAV:   2    -0.287902906419E+03   -0.95575E-01   -0.10009E+00 29176   0.245E+00    0.760E+00
DAV:   3    -0.287833516299E+03    0.69390E-01   -0.50803E-01 35288   0.101E+00    0.251E+00
DAV:   4    -0.287850559015E+03   -0.17043E-01   -0.10514E-01 34688   0.547E-01    0.110E+00
DAV:   5    -0.287853552747E+03   -0.29937E-02   -0.15123E-02 31928   0.358E-01    0.879E-01
DAV:   6    -0.287852909372E+03    0.64338E-03   -0.10800E-02 33896   0.175E-01    0.761E-01
DAV:   7    -0.287851876711E+03    0.10327E-02   -0.22561E-03 32032   0.156E-01    0.495E-01
DAV:   8    -0.287851377492E+03    0.49922E-03   -0.73088E-03 34680   0.214E-01    0.383E-01
DAV:   9    -0.287852850477E+03   -0.14730E-02   -0.50108E-03 31792   0.127E-01    0.532E-01
DAV:  10    -0.287852645456E+03    0.20502E-03   -0.82263E-04 33512   0.123E-01    0.374E-01
DAV:  11    -0.287852563747E+03    0.81709E-04   -0.60664E-04 34320   0.959E-02    0.192E-01
DAV:  12    -0.287852574752E+03   -0.11004E-04   -0.31492E-04 28984   0.429E-02    0.147E-01
DAV:  13    -0.287852577350E+03   -0.25988E-05   -0.25020E-04 24032   0.319E-02    0.112E-01
DAV:  14    -0.287852581417E+03   -0.40665E-05   -0.27702E-04 25896   0.375E-02    0.631E-02
DAV:  15    -0.287852628696E+03   -0.47280E-04   -0.16099E-04 20960   0.258E-02    0.670E-02
DAV:  16    -0.287852635929E+03   -0.72324E-05   -0.18722E-05 16248   0.152E-02
   5 F= -.28785264E+03 E0= -.28783977E+03  d E =-.820490E-01  mag=    10.0000
       N       E                     dE             d eps       ncg     rms          rms(c)
DAV:   1    -0.287853222584E+03   -0.59389E-03   -0.13237E+01 25344   0.139E+01    0.139E+00
DAV:   2    -0.288011386071E+03   -0.15816E+00   -0.16122E+00 29096   0.300E+00    0.109E+01
DAV:   3    -0.287876623363E+03    0.13476E+00   -0.10265E+00 34864   0.128E+00    0.378E+00
DAV:   4    -0.287909207986E+03   -0.32585E-01   -0.20258E-01 33760   0.703E-01    0.124E+00
DAV:   5    -0.287925224490E+03   -0.16017E-01   -0.10165E-01 33672   0.558E-01    0.298E+00
DAV:   6    -0.287910595130E+03    0.14629E-01   -0.60993E-02 33896   0.475E-01    0.533E-01
DAV:   7    -0.287913930247E+03   -0.33351E-02   -0.51012E-03 29784   0.258E-01    0.331E-01
DAV:   8    -0.287914300793E+03   -0.37055E-03   -0.33689E-03 34672   0.140E-01    0.266E-01
DAV:   9    -0.287914857767E+03   -0.55697E-03   -0.23179E-03 31088   0.828E-02    0.349E-01
DAV:  10    -0.287914891235E+03   -0.33468E-04   -0.95020E-04 31872   0.713E-02    0.267E-01
DAV:  11    -0.287914872718E+03    0.18517E-04   -0.28112E-04 31312   0.536E-02    0.192E-01
DAV:  12    -0.287914888781E+03   -0.16063E-04   -0.42172E-04 31912   0.674E-02    0.175E-01
DAV:  13    -0.287914904100E+03   -0.15318E-04   -0.14583E-04 28064   0.356E-02    0.148E-01
DAV:  14    -0.287914900985E+03    0.31147E-05   -0.48215E-05 20240   0.300E-02
   6 F= -.28791490E+03 E0= -.28790192E+03  d E =-.622651E-01  mag=    10.0000
       N       E                     dE             d eps       ncg     rms          rms(c)
DAV:   1    -0.287813390659E+03    0.10151E+00   -0.31041E+01 25344   0.210E+01    0.203E+00
DAV:   2    -0.288090357168E+03   -0.27697E+00   -0.29191E+00 28088   0.436E+00    0.123E+01
DAV:   3    -0.287915432787E+03    0.17492E+00   -0.16180E+00 34744   0.170E+00    0.581E+00
DAV:   4    -0.287935801090E+03   -0.20368E-01   -0.46340E-01 34568   0.953E-01    0.189E+00
DAV:   5    -0.287963851440E+03   -0.28050E-01   -0.19630E-01 34096   0.784E-01    0.395E+00
DAV:   6    -0.287937809662E+03    0.26042E-01   -0.98770E-02 34088   0.633E-01    0.873E-01
DAV:   7    -0.287941990190E+03   -0.41805E-02   -0.84053E-03 30120   0.333E-01    0.624E-01
DAV:   8    -0.287942582332E+03   -0.59214E-03   -0.16751E-02 34968   0.256E-01    0.543E-01
DAV:   9    -0.287944983194E+03   -0.24009E-02   -0.89288E-03 30680   0.179E-01    0.742E-01
DAV:  10    -0.287944788769E+03    0.19443E-03   -0.23087E-03 34056   0.138E-01    0.602E-01
DAV:  11    -0.287944553800E+03    0.23497E-03   -0.63628E-04 33760   0.865E-02    0.415E-01
DAV:  12    -0.287944607256E+03   -0.53457E-04   -0.96964E-04 32632   0.120E-01    0.261E-01
DAV:  13    -0.287944735627E+03   -0.12837E-03   -0.71076E-04 33192   0.730E-02    0.226E-01
DAV:  14    -0.287944720268E+03    0.15359E-04   -0.17331E-04 28192   0.407E-02    0.183E-01
DAV:  15    -0.287944707685E+03    0.12584E-04   -0.16577E-04 30336   0.444E-02    0.119E-01
DAV:  16    -0.287944745791E+03   -0.38107E-04   -0.22283E-04 25488   0.437E-02    0.970E-02
DAV:  17    -0.287944763983E+03   -0.18191E-04   -0.13140E-04 24896   0.297E-02    0.743E-02
DAV:  18    -0.287944765369E+03   -0.13864E-05   -0.25755E-05 17464   0.186E-02
   7 F= -.28794477E+03 E0= -.28793157E+03  d E =-.298644E-01  mag=    10.0000
       N       E                     dE             d eps       ncg     rms          rms(c)
DAV:   1    -0.287931782735E+03    0.12981E-01   -0.67624E+00 25344   0.960E+00    0.788E-01
DAV:   2    -0.287960055715E+03   -0.28273E-01   -0.30889E-01 26512   0.173E+00    0.231E+00
DAV:   3    -0.287954154387E+03    0.59013E-02   -0.90050E-02 34504   0.565E-01    0.114E+00
DAV:   4    -0.287958134029E+03   -0.39796E-02   -0.36226E-02 35384   0.367E-01    0.161E+00
DAV:   5    -0.287953886541E+03    0.42475E-02   -0.24843E-02 34152   0.293E-01    0.543E-01
DAV:   6    -0.287955002024E+03   -0.11155E-02   -0.78747E-03 32848   0.137E-01    0.561E-01
DAV:   7    -0.287954339998E+03    0.66203E-03   -0.39345E-03 31752   0.152E-01    0.254E-01
DAV:   8    -0.287954440009E+03   -0.10001E-03   -0.13996E-03 33440   0.923E-02    0.175E-01
DAV:   9    -0.287954667371E+03   -0.22736E-03   -0.11099E-03 29016   0.557E-02    0.200E-01
DAV:  10    -0.287954717356E+03   -0.49985E-04   -0.40319E-04 29872   0.521E-02    0.162E-01
DAV:  11    -0.287954723858E+03   -0.65020E-05   -0.10299E-04 23408   0.319E-02    0.145E-01
DAV:  12    -0.287954723712E+03    0.14587E-06   -0.82372E-05 25064   0.321E-02
   8 F= -.28795472E+03 E0= -.28794170E+03  d E =-.995834E-02  mag=    10.0000
       N       E                     dE             d eps       ncg     rms          rms(c)
DAV:   1    -0.287950520351E+03    0.42035E-02   -0.35959E+00 25344   0.720E+00    0.568E-01
DAV:   2    -0.287966182194E+03   -0.15662E-01   -0.16465E-01 26296   0.126E+00    0.158E+00
DAV:   3    -0.287963495535E+03    0.26867E-02   -0.47977E-02 34240   0.382E-01    0.775E-01
DAV:   4    -0.287965209859E+03   -0.17143E-02   -0.18956E-02 35488   0.246E-01    0.109E+00
DAV:   5    -0.287963308849E+03    0.19010E-02   -0.10958E-02 34080   0.185E-01    0.373E-01
DAV:   6    -0.287963915171E+03   -0.60632E-03   -0.29016E-03 32592   0.100E-01    0.359E-01
DAV:   7    -0.287963572366E+03    0.34280E-03   -0.15980E-03 32440   0.104E-01    0.177E-01
DAV:   8    -0.287963594894E+03   -0.22527E-04   -0.78490E-04 32792   0.694E-02    0.121E-01
DAV:   9    -0.287963761030E+03   -0.16614E-03   -0.64110E-04 27040   0.412E-02    0.168E-01
DAV:  10    -0.287963749662E+03    0.11368E-04   -0.13754E-04 28296   0.433E-02    0.124E-01
DAV:  11    -0.287963737138E+03    0.12524E-04   -0.15235E-04 29368   0.477E-02    0.462E-02
DAV:  12    -0.287963754670E+03   -0.17533E-04   -0.91982E-05 25792   0.260E-02    0.447E-02
DAV:  13    -0.287963763387E+03   -0.87163E-05   -0.37267E-05 16960   0.175E-02
   9 F= -.28796376E+03 E0= -.28795068E+03  d E =-.903967E-02  mag=    10.0000
       N       E                     dE             d eps       ncg     rms          rms(c)
DAV:   1    -0.287948036433E+03    0.15718E-01   -0.69386E+00 25344   0.967E+00    0.643E-01
DAV:   2    -0.287972343496E+03   -0.24307E-01   -0.26091E-01 25200   0.164E+00    0.797E-01
DAV:   3    -0.287976321160E+03   -0.39777E-02   -0.62304E-02 35216   0.443E-01    0.189E+00
DAV:   4    -0.287971418441E+03    0.49027E-02   -0.36695E-02 34464   0.322E-01    0.951E-01
DAV:   5    -0.287971592400E+03   -0.17396E-03   -0.80187E-03 33768   0.160E-01    0.332E-01
DAV:   6    -0.287971919891E+03   -0.32749E-03   -0.27935E-03 32192   0.153E-01    0.423E-01
DAV:   7    -0.287971741447E+03    0.17844E-03   -0.45100E-03 34552   0.124E-01    0.382E-01
DAV:   8    -0.287971685489E+03    0.55958E-04   -0.16750E-03 33776   0.929E-02    0.124E-01
DAV:   9    -0.287971931878E+03   -0.24639E-03   -0.81552E-04 28120   0.453E-02    0.179E-01
DAV:  10    -0.287971936729E+03   -0.48510E-05   -0.11686E-04 25952   0.380E-02    0.155E-01
DAV:  11    -0.287971910337E+03    0.26391E-04   -0.79539E-05 22568   0.353E-02    0.840E-02
DAV:  12    -0.287971921594E+03   -0.11256E-04   -0.23182E-04 28200   0.397E-02    0.951E-02
DAV:  13    -0.287971923335E+03   -0.17414E-05   -0.41204E-05 18136   0.220E-02
  10 F= -.28797192E+03 E0= -.28795886E+03  d E =-.815995E-02  mag=    10.0000
       N       E                     dE             d eps       ncg     rms          rms(c)
DAV:   1    -0.287909406867E+03    0.62515E-01   -0.21456E+01 25344   0.164E+01    0.114E+00
DAV:   2    -0.287983068305E+03   -0.73661E-01   -0.78773E-01 24640   0.280E+00    0.154E+00
DAV:   3    -0.287993428667E+03   -0.10360E-01   -0.21796E-01 34976   0.739E-01    0.286E+00
DAV:   4    -0.287979843379E+03    0.13585E-01   -0.71573E-02 35248   0.503E-01    0.990E-01
DAV:   5    -0.287981194965E+03   -0.13516E-02   -0.11344E-02 33960   0.202E-01    0.606E-01
DAV:   6    -0.287982121788E+03   -0.92682E-03   -0.12466E-02 34312   0.233E-01    0.111E+00
DAV:   7    -0.287980099247E+03    0.20225E-02   -0.14511E-02 34416   0.239E-01    0.788E-01
DAV:   8    -0.287980027040E+03    0.72207E-04   -0.87547E-03 32896   0.178E-01    0.322E-01
DAV:   9    -0.287980919353E+03   -0.89231E-03   -0.34071E-03 30800   0.112E-01    0.319E-01
DAV:  10    -0.287980930998E+03   -0.11646E-04   -0.62189E-04 32512   0.887E-02    0.254E-01
DAV:  11    -0.287980878077E+03    0.52921E-04   -0.85217E-04 33120   0.920E-02    0.190E-01
DAV:  12    -0.287980945167E+03   -0.67090E-04   -0.70647E-04 32176   0.631E-02    0.114E-01
DAV:  13    -0.287981008240E+03   -0.63073E-04   -0.15244E-04 27232   0.412E-02    0.107E-01
DAV:  14    -0.287981006353E+03    0.18863E-05   -0.18138E-05 16456   0.149E-02
  11 F= -.28798101E+03 E0= -.28796808E+03  d E =-.908302E-02  mag=    10.0000
       N       E                     dE             d eps       ncg     rms          rms(c)
DAV:   1    -0.287943030010E+03    0.37978E-01   -0.13578E+01 25344   0.134E+01    0.949E-01
DAV:   2    -0.287998017953E+03   -0.54988E-01   -0.57823E-01 25336   0.234E+00    0.257E+00
DAV:   3    -0.287991840049E+03    0.61779E-02   -0.13783E-01 34216   0.671E-01    0.141E+00
DAV:   4    -0.287996517332E+03   -0.46773E-02   -0.60549E-02 34768   0.436E-01    0.211E+00
DAV:   5    -0.287989708656E+03    0.68087E-02   -0.30440E-02 33264   0.333E-01    0.427E-01
DAV:   6    -0.287992738090E+03   -0.30294E-02   -0.13234E-02 33064   0.205E-01    0.115E+00
DAV:   7    -0.287990417154E+03    0.23209E-02   -0.11778E-02 34464   0.204E-01    0.364E-01
DAV:   8    -0.287991186558E+03   -0.76940E-03   -0.28866E-03 31008   0.117E-01    0.214E-01
DAV:   9    -0.287991756594E+03   -0.57004E-03   -0.14773E-03 30368   0.681E-02    0.306E-01
DAV:  10    -0.287991683270E+03    0.73324E-04   -0.20422E-04 26080   0.459E-02    0.284E-01
DAV:  11    -0.287991597162E+03    0.86108E-04   -0.23713E-05 18400   0.166E-02    0.275E-01
DAV:  12    -0.287991565997E+03    0.31164E-04   -0.73130E-06 13712   0.980E-03    0.272E-01
DAV:  13    -0.287991556478E+03    0.95194E-05   -0.24939E-04 26472   0.466E-02    0.207E-01
DAV:  14    -0.287991642511E+03   -0.86033E-04   -0.40036E-04 30632   0.782E-02    0.141E-01
DAV:  15    -0.287991672665E+03   -0.30154E-04   -0.14982E-04 28296   0.427E-02    0.139E-01
DAV:  16    -0.287991674412E+03   -0.17464E-05   -0.10496E-04 26408   0.484E-02    0.640E-02
DAV:  17    -0.287991688238E+03   -0.13826E-04   -0.11419E-04 26600   0.382E-02    0.558E-02
DAV:  18    -0.287991699049E+03   -0.10812E-04   -0.48347E-05 18824   0.229E-02    0.434E-02
DAV:  19    -0.287991703455E+03   -0.44056E-05   -0.21574E-05 18304   0.188E-02
  12 F= -.28799170E+03 E0= -.28797878E+03  d E =-.106971E-01  mag=    10.0000
       N       E                     dE             d eps       ncg     rms          rms(c)
DAV:   1    -0.287988133743E+03    0.35653E-02   -0.52043E+00 25344   0.831E+00    0.655E-01
DAV:   2    -0.288008585083E+03   -0.20451E-01   -0.21620E-01 25576   0.147E+00    0.145E+00
DAV:   3    -0.288007061925E+03    0.15232E-02   -0.52814E-02 34832   0.410E-01    0.103E+00
DAV:   4    -0.288008366513E+03   -0.13046E-02   -0.28783E-02 35448   0.288E-01    0.133E+00
DAV:   5    -0.288005571897E+03    0.27946E-02   -0.12951E-02 33696   0.216E-01    0.302E-01
DAV:   6    -0.288006737983E+03   -0.11661E-02   -0.48900E-03 33736   0.121E-01    0.659E-01
DAV:   7    -0.288005861809E+03    0.87617E-03   -0.36022E-03 34536   0.132E-01    0.219E-01
DAV:   8    -0.288006130619E+03   -0.26881E-03   -0.14422E-03 32920   0.838E-02    0.168E-01
DAV:   9    -0.288006363405E+03   -0.23279E-03   -0.71823E-04 27352   0.499E-02    0.210E-01
DAV:  10    -0.288006342215E+03    0.21190E-04   -0.18942E-04 29048   0.432E-02    0.174E-01
DAV:  11    -0.288006323472E+03    0.18743E-04   -0.70581E-05 21880   0.271E-02    0.128E-01
DAV:  12    -0.288006326744E+03   -0.32717E-05   -0.88206E-05 26328   0.340E-02
  13 F= -.28800633E+03 E0= -.28799335E+03  d E =-.146233E-01  mag=    10.0000
       N       E                     dE             d eps       ncg     rms          rms(c)
DAV:   1    -0.288009557545E+03   -0.32341E-02   -0.41483E-01 25344   0.237E+00    0.189E-01
DAV:   2    -0.288011141372E+03   -0.15838E-02   -0.16804E-02 25312   0.412E-01    0.388E-01
DAV:   3    -0.288011135264E+03    0.61086E-05   -0.42189E-03 35264   0.115E-01    0.408E-01
DAV:   4    -0.288010987260E+03    0.14800E-03   -0.95046E-04 31920   0.738E-02    0.173E-01
DAV:   5    -0.288011006533E+03   -0.19273E-04   -0.64616E-05 20240   0.207E-02    0.147E-01
DAV:   6    -0.288011011358E+03   -0.48255E-05   -0.11021E-05 14608   0.114E-02
  14 F= -.28801101E+03 E0= -.28799792E+03  d E =-.468461E-02  mag=    10.0000
       N       E                     dE             d eps       ncg     rms          rms(c)
DAV:   1    -0.288009013221E+03    0.19933E-02   -0.25116E+00 25344   0.558E+00    0.417E-01
DAV:   2    -0.288019684626E+03   -0.10671E-01   -0.11056E-01 27432   0.989E-01    0.170E+00
DAV:   3    -0.288015411936E+03    0.42727E-02   -0.30363E-02 33312   0.331E-01    0.477E-01
DAV:   4    -0.288017728350E+03   -0.23164E-02   -0.13205E-02 34008   0.188E-01    0.963E-01
DAV:   5    -0.288016222459E+03    0.15059E-02   -0.57190E-03 33488   0.158E-01    0.270E-01
DAV:   6    -0.288016842799E+03   -0.62034E-03   -0.36269E-03 33928   0.975E-02    0.554E-01
DAV:   7    -0.288016340917E+03    0.50188E-03   -0.29234E-03 33456   0.117E-01    0.170E-01
DAV:   8    -0.288016705130E+03   -0.36421E-03   -0.99101E-04 29016   0.582E-02    0.192E-01
DAV:   9    -0.288016725216E+03   -0.20086E-04   -0.79899E-05 21816   0.286E-02    0.195E-01
DAV:  10    -0.288016703634E+03    0.21582E-04   -0.33723E-05 19136   0.197E-02    0.174E-01
DAV:  11    -0.288016670819E+03    0.32815E-04   -0.19283E-04 27568   0.454E-02    0.111E-01
DAV:  12    -0.288016687354E+03   -0.16535E-04   -0.26071E-04 30200   0.457E-02    0.850E-02
DAV:  13    -0.288016714673E+03   -0.27319E-04   -0.98677E-05 20352   0.247E-02    0.819E-02
DAV:  14    -0.288016722609E+03   -0.79364E-05   -0.32923E-05 19288   0.232E-02
  15 F= -.28801672E+03 E0= -.28800370E+03  d E =-.571125E-02  mag=    10.0000
       N       E                     dE             d eps       ncg     rms          rms(c)
DAV:   1    -0.287866674341E+03    0.15004E+00   -0.51497E+01 25344   0.263E+01    0.179E+00
DAV:   2    -0.288071703269E+03   -0.20503E+00   -0.21608E+00 26016   0.461E+00    0.520E+00
DAV:   3    -0.288042841800E+03    0.28861E-01   -0.44414E-01 33824   0.134E+00    0.235E+00
DAV:   4    -0.288059915696E+03   -0.17074E-01   -0.16137E-01 35144   0.795E-01    0.302E+00
DAV:   5    -0.288044211882E+03    0.15704E-01   -0.98437E-02 34344   0.627E-01    0.130E+00
DAV:   6    -0.288049097940E+03   -0.48861E-02   -0.57342E-02 33800   0.332E-01    0.176E+00
DAV:   7    -0.288044233901E+03    0.48640E-02   -0.38599E-02 34240   0.364E-01    0.866E-01
DAV:   8    -0.288044784946E+03   -0.55104E-03   -0.91099E-03 32952   0.215E-01    0.275E-01
DAV:   9    -0.288045616010E+03   -0.83106E-03   -0.20692E-03 32096   0.102E-01    0.361E-01
DAV:  10    -0.288045585989E+03    0.30020E-04   -0.76039E-04 30216   0.606E-02    0.293E-01
DAV:  11    -0.288045559927E+03    0.26062E-04   -0.43410E-04 27128   0.458E-02    0.210E-01
DAV:  12    -0.288045569744E+03   -0.98162E-05   -0.70925E-04 31624   0.593E-02    0.235E-01
DAV:  13    -0.288045613929E+03   -0.44186E-04   -0.45475E-04 26928   0.480E-02    0.108E-01
DAV:  14    -0.288045689925E+03   -0.75996E-04   -0.16651E-04 22728   0.328E-02    0.823E-02
DAV:  15    -0.288045701480E+03   -0.11555E-04   -0.12906E-04 25528   0.378E-02    0.715E-02
DAV:  16    -0.288045706114E+03   -0.46346E-05   -0.26225E-05 19680   0.215E-02
  16 F= -.28804571E+03 E0= -.28803259E+03  d E =-.289835E-01  mag=    10.0000
       N       E                     dE             d eps       ncg     rms          rms(c)
DAV:   1    -0.287619340861E+03    0.42636E+00   -0.45460E+01 25360   0.223E+01    0.567E+00
DAV:   2    -0.288072816913E+03   -0.45348E+00   -0.57503E+00 31176   0.562E+00    0.108E+01
DAV:   3    -0.287896394576E+03    0.17642E+00   -0.40635E+00 34048   0.360E+00    0.968E+00
DAV:   4    -0.287823038070E+03    0.73357E-01   -0.24517E+00 33416   0.187E+00    0.665E+00
DAV:   5    -0.287780506537E+03    0.42532E-01   -0.53061E-01 34296   0.179E+00    0.583E+00
DAV:   6    -0.287746361842E+03    0.34145E-01   -0.43037E-01 34336   0.128E+00    0.300E+00
DAV:   7    -0.287759816525E+03   -0.13455E-01   -0.40150E-01 33992   0.105E+00    0.417E+00
DAV:   8    -0.287748204638E+03    0.11612E-01   -0.35561E-01 33760   0.896E-01    0.208E+00
DAV:   9    -0.287757076045E+03   -0.88714E-02   -0.53501E-02 31232   0.520E-01    0.129E+00
DAV:  10    -0.287757128152E+03   -0.52107E-04   -0.10047E-02 31616   0.225E-01    0.108E+00
DAV:  11    -0.287756523125E+03    0.60503E-03   -0.19938E-03 30968   0.114E-01    0.849E-01
DAV:  12    -0.287758673651E+03   -0.21505E-02   -0.11578E-02 33584   0.229E-01    0.159E+00
DAV:  13    -0.287754512127E+03    0.41615E-02   -0.11296E-02 32376   0.236E-01    0.728E-01
DAV:  14    -0.287756277681E+03   -0.17656E-02   -0.89841E-03 33216   0.178E-01    0.425E-01
DAV:  15    -0.287757067830E+03   -0.79015E-03   -0.27950E-03 29264   0.136E-01    0.334E-01
DAV:  16    -0.287757012585E+03    0.55245E-04   -0.60958E-04 31960   0.691E-02    0.272E-01
DAV:  17    -0.287756996735E+03    0.15850E-04   -0.35741E-04 29792   0.488E-02    0.276E-01
DAV:  18    -0.287756912436E+03    0.84298E-04   -0.57225E-04 26264   0.455E-02    0.933E-02
DAV:  19    -0.287757020158E+03   -0.10772E-03   -0.20719E-04 24032   0.350E-02    0.102E-01
DAV:  20    -0.287757038041E+03   -0.17883E-04   -0.35306E-05 18904   0.203E-02    0.119E-01
DAV:  21    -0.287757026952E+03    0.11089E-04   -0.11758E-05 15008   0.135E-02    0.102E-01
DAV:  22    -0.287757021466E+03    0.54864E-05   -0.55640E-05 17992   0.164E-02
  17 F= -.28775702E+03 E0= -.28774425E+03  d E =0.288685E+00  mag=    10.0000
       N       E                     dE             d eps       ncg     rms          rms(c)
DAV:   1    -0.287912256961E+03   -0.15523E+00   -0.25751E+00 25344   0.478E+00    0.155E+00
DAV:   2    -0.287968936685E+03   -0.56680E-01   -0.46247E-01 31880   0.142E+00    0.686E+00
DAV:   3    -0.287901821893E+03    0.67115E-01   -0.64273E-01 32712   0.114E+00    0.173E+00
DAV:   4    -0.287927512249E+03   -0.25690E-01   -0.79575E-02 30744   0.552E-01    0.333E+00
DAV:   5    -0.287913496114E+03    0.14016E-01   -0.72856E-02 32440   0.385E-01    0.121E+00
DAV:   6    -0.287917393273E+03   -0.38972E-02   -0.88010E-03 31152   0.184E-01    0.109E+00
DAV:   7    -0.287916736179E+03    0.65709E-03   -0.10592E-02 34080   0.195E-01    0.803E-01
DAV:   8    -0.287916817911E+03   -0.81732E-04   -0.17271E-02 31584   0.202E-01    0.570E-01
DAV:   9    -0.287919155398E+03   -0.23375E-02   -0.64646E-03 27936   0.168E-01    0.790E-01
DAV:  10    -0.287918770593E+03    0.38481E-03   -0.21058E-03 31136   0.128E-01    0.688E-01
DAV:  11    -0.287918602093E+03    0.16850E-03   -0.66671E-04 33384   0.696E-02    0.480E-01
DAV:  12    -0.287918783873E+03   -0.18178E-03   -0.41757E-04 30224   0.596E-02    0.307E-01
DAV:  13    -0.287919009924E+03   -0.22605E-03   -0.31811E-04 28616   0.566E-02    0.181E-01
DAV:  14    -0.287919140903E+03   -0.13098E-03   -0.22425E-04 26872   0.395E-02    0.160E-01
DAV:  15    -0.287919137107E+03    0.37957E-05   -0.12150E-04 21112   0.280E-02    0.957E-02
DAV:  16    -0.287919147583E+03   -0.10476E-04   -0.51212E-05 19944   0.205E-02    0.456E-02
DAV:  17    -0.287919155790E+03   -0.82069E-05   -0.28068E-05 15440   0.142E-02
  18 F= -.28791916E+03 E0= -.28790626E+03  d E =-.162134E+00  mag=    10.0000
       N       E                     dE             d eps       ncg     rms          rms(c)
DAV:   1    -0.287971352983E+03   -0.52205E-01   -0.56297E-01 25344   0.225E+00    0.704E-01
DAV:   2    -0.287981514545E+03   -0.10162E-01   -0.81438E-02 31568   0.633E-01    0.291E+00
DAV:   3    -0.287968922230E+03    0.12592E-01   -0.88239E-02 32168   0.507E-01    0.773E-01
DAV:   4    -0.287974546245E+03   -0.56240E-02   -0.16467E-02 30072   0.269E-01    0.115E+00
DAV:   5    -0.287972188687E+03    0.23576E-02   -0.89161E-03 33744   0.182E-01    0.465E-01
DAV:   6    -0.287972656046E+03   -0.46736E-03   -0.95494E-04 29848   0.629E-02    0.450E-01
DAV:   7    -0.287972574373E+03    0.81673E-04   -0.26883E-04 24360   0.367E-02    0.398E-01
DAV:   8    -0.287972260528E+03    0.31385E-03   -0.28780E-03 32248   0.122E-01    0.212E-01
DAV:   9    -0.287972891059E+03   -0.63053E-03   -0.19832E-03 30000   0.812E-02    0.289E-01
DAV:  10    -0.287972875167E+03    0.15892E-04   -0.34275E-04 31920   0.632E-02    0.245E-01
DAV:  11    -0.287972828575E+03    0.46592E-04   -0.21749E-04 29352   0.453E-02    0.141E-01
DAV:  12    -0.287972862292E+03   -0.33717E-04   -0.10725E-04 22336   0.312E-02    0.119E-01
DAV:  13    -0.287972863488E+03   -0.11962E-05   -0.35044E-05 19280   0.202E-02
  19 F= -.28797286E+03 E0= -.28795979E+03  d E =-.537077E-01  mag=    10.0000
       N       E                     dE             d eps       ncg     rms          rms(c)
DAV:   1    -0.288043959682E+03   -0.71097E-01   -0.75851E+00 25352   0.832E+00    0.258E+00
DAV:   2    -0.288190829928E+03   -0.14687E+00   -0.11505E+00 31712   0.230E+00    0.109E+01
DAV:   3    -0.288039260939E+03    0.15157E+00   -0.18885E+00 32568   0.167E+00    0.326E+00
DAV:   4    -0.288117611450E+03   -0.78351E-01   -0.55774E-01 32904   0.106E+00    0.861E+00
DAV:   5    -0.288036418092E+03    0.81193E-01   -0.58466E-01 32536   0.942E-01    0.304E+00
DAV:   6    -0.288054663058E+03   -0.18245E-01   -0.56916E-02 30384   0.429E-01    0.159E+00
DAV:   7    -0.288057226343E+03   -0.25633E-02   -0.10860E-02 31776   0.298E-01    0.130E+00
DAV:   8    -0.288057756325E+03   -0.52998E-03   -0.35003E-02 33032   0.339E-01    0.942E-01
DAV:   9    -0.288062962611E+03   -0.52063E-02   -0.27415E-02 30600   0.261E-01    0.121E+00
DAV:  10    -0.288063612941E+03   -0.65033E-03   -0.45555E-03 30208   0.199E-01    0.123E+00
DAV:  11    -0.288062703220E+03    0.90972E-03   -0.12000E-03 33752   0.108E-01    0.106E+00
DAV:  12    -0.288062668393E+03    0.34827E-04   -0.26001E-03 32304   0.185E-01    0.745E-01
DAV:  13    -0.288063058194E+03   -0.38980E-03   -0.19755E-03 33232   0.126E-01    0.560E-01
DAV:  14    -0.288063379305E+03   -0.32111E-03   -0.81371E-04 31080   0.847E-02    0.391E-01
DAV:  15    -0.288063562002E+03   -0.18270E-03   -0.68057E-04 31784   0.735E-02    0.274E-01
DAV:  16    -0.288063657756E+03   -0.95755E-04   -0.13542E-04 26616   0.363E-02    0.242E-01
DAV:  17    -0.288063656957E+03    0.79970E-06   -0.85177E-06 16424   0.126E-02
  20 F= -.28806366E+03 E0= -.28805048E+03  d E =-.907935E-01  mag=    10.0000
       N       E                     dE             d eps       ncg     rms          rms(c)
DAV:   1    -0.288065532126E+03   -0.18744E-02   -0.10340E-01 25472   0.107E+00    0.318E-01
DAV:   2    -0.288067714831E+03   -0.21827E-02   -0.20369E-02 33832   0.306E-01    0.135E+00
DAV:   3    -0.288064860139E+03    0.28547E-02   -0.16083E-02 33296   0.219E-01    0.332E-01
DAV:   4    -0.288066301782E+03   -0.14416E-02   -0.69410E-03 32360   0.134E-01    0.658E-01
DAV:   5    -0.288065634067E+03    0.66772E-03   -0.23060E-03 32712   0.102E-01    0.214E-01
DAV:   6    -0.288065771426E+03   -0.13736E-03   -0.15540E-04 26504   0.301E-02    0.198E-01
DAV:   7    -0.288065773022E+03   -0.15959E-05   -0.19914E-04 21504   0.250E-02    0.185E-01
DAV:   8    -0.288065730512E+03    0.42510E-04   -0.50191E-04 26168   0.487E-02    0.103E-01
DAV:   9    -0.288065829107E+03   -0.98595E-04   -0.59415E-04 24192   0.358E-02    0.101E-01
DAV:  10    -0.288065877166E+03   -0.48060E-04   -0.12989E-04 23144   0.287E-02    0.103E-01
DAV:  11    -0.288065870491E+03    0.66748E-05   -0.21399E-05 16704   0.156E-02
  21 F= -.28806587E+03 E0= -.28805269E+03  d E =-.221353E-02  mag=    10.0000
       N       E                     dE             d eps       ncg     rms          rms(c)
DAV:   1    -0.288066527046E+03   -0.64988E-03   -0.44558E-01 25344   0.227E+00    0.476E-01
DAV:   2    -0.288067951922E+03   -0.14249E-02   -0.18160E-02 28328   0.443E-01    0.366E-01
DAV:   3    -0.288070807469E+03   -0.28555E-02   -0.34895E-02 34624   0.253E-01    0.173E+00
DAV:   4    -0.288066214049E+03    0.45934E-02   -0.24821E-02 33800   0.224E-01    0.251E-01
DAV:   5    -0.288067576425E+03   -0.13624E-02   -0.14310E-03 30864   0.826E-02    0.200E-01
DAV:   6    -0.288067724428E+03   -0.14800E-03   -0.10823E-03 33184   0.689E-02    0.299E-01
DAV:   7    -0.288067599851E+03    0.12458E-03   -0.11466E-03 32296   0.569E-02    0.144E-01
DAV:   8    -0.288067677018E+03   -0.77167E-04   -0.30451E-04 23928   0.364E-02    0.110E-01
DAV:   9    -0.288067692064E+03   -0.15046E-04   -0.60043E-05 17856   0.177E-02    0.116E-01
DAV:  10    -0.288067684041E+03    0.80231E-05   -0.95203E-06 15368   0.107E-02
  22 F= -.28806768E+03 E0= -.28805435E+03  d E =-.181355E-02  mag=    10.0000
       N       E                     dE             d eps       ncg     rms          rms(c)
DAV:   1    -0.288067882341E+03   -0.19028E-03   -0.12651E-02 25848   0.363E-01    0.999E-02
DAV:   2    -0.288068253094E+03   -0.37075E-03   -0.32254E-03 33720   0.108E-01    0.583E-01
DAV:   3    -0.288067708494E+03    0.54460E-03   -0.24592E-03 31760   0.866E-02    0.556E-02
DAV:   4    -0.288067920582E+03   -0.21209E-03   -0.10352E-04 22640   0.334E-02    0.671E-02
DAV:   5    -0.288067928424E+03   -0.78416E-05   -0.13689E-04 19240   0.197E-02    0.903E-02
DAV:   6    -0.288067918671E+03    0.97532E-05   -0.37229E-05 15464   0.142E-02
  23 F= -.28806792E+03 E0= -.28805470E+03  d E =-.234630E-03  mag=    10.0000
       N       E                     dE             d eps       ncg     rms          rms(c)
DAV:   1    -0.288068239472E+03   -0.31105E-03   -0.17717E-02 25120   0.430E-01    0.770E-02
DAV:   2    -0.288068546543E+03   -0.30707E-03   -0.30152E-03 33808   0.106E-01    0.463E-01
DAV:   3    -0.288068179150E+03    0.36739E-03   -0.23062E-03 31320   0.752E-02    0.101E-01
DAV:   4    -0.288068272793E+03   -0.93642E-04   -0.19961E-04 20016   0.271E-02    0.779E-02
DAV:   5    -0.288068274595E+03   -0.18018E-05   -0.63391E-05 18232   0.222E-02
  24 F= -.28806827E+03 E0= -.28805498E+03  d E =-.355924E-03  mag=    10.0000
       N       E                     dE             d eps       ncg     rms          rms(c)
DAV:   1    -0.288068770026E+03   -0.49723E-03   -0.80718E-01 24768   0.284E+00    0.191E-01
DAV:   2    -0.288070917014E+03   -0.21470E-02   -0.23278E-02 26480   0.469E-01    0.359E-01
DAV:   3    -0.288071003260E+03   -0.86246E-04   -0.49295E-03 34544   0.128E-01    0.463E-01
DAV:   4    -0.288070695791E+03    0.30747E-03   -0.15326E-03 32240   0.860E-02    0.940E-02
DAV:   5    -0.288070873094E+03   -0.17730E-03   -0.11144E-03 34168   0.553E-02    0.317E-01
DAV:   6    -0.288070706071E+03    0.16702E-03   -0.11016E-03 32616   0.595E-02    0.121E-01
DAV:   7    -0.288070753912E+03   -0.47841E-04   -0.29082E-04 23776   0.334E-02    0.102E-01
DAV:   8    -0.288070755908E+03   -0.19962E-05   -0.44092E-05 17384   0.223E-02
  25 F= -.28807076E+03 E0= -.28805745E+03  d E =-.248131E-02  mag=    10.0000
       N       E                     dE             d eps       ncg     rms          rms(c)
DAV:   1    -0.288070705469E+03    0.48444E-04   -0.17203E+00 24768   0.413E+00    0.290E-01
DAV:   2    -0.288075316981E+03   -0.46115E-02   -0.50138E-02 26408   0.688E-01    0.506E-01
DAV:   3    -0.288075468982E+03   -0.15200E-03   -0.96755E-03 33904   0.185E-01    0.681E-01
DAV:   4    -0.288074798253E+03    0.67073E-03   -0.26408E-03 32848   0.123E-01    0.267E-01
DAV:   5    -0.288074973270E+03   -0.17502E-03   -0.19128E-03 33960   0.647E-02    0.318E-01
DAV:   6    -0.288074841115E+03    0.13215E-03   -0.16006E-03 32696   0.854E-02    0.220E-01
DAV:   7    -0.288074847112E+03   -0.59965E-05   -0.11004E-03 34256   0.617E-02    0.174E-01
DAV:   8    -0.288074909407E+03   -0.62296E-04   -0.46205E-04 24960   0.418E-02    0.132E-01
DAV:   9    -0.288074921542E+03   -0.12134E-04   -0.62778E-05 19400   0.212E-02    0.132E-01
DAV:  10    -0.288074906577E+03    0.14965E-04   -0.24521E-04 31200   0.567E-02    0.943E-02
DAV:  11    -0.288074899673E+03    0.69040E-05   -0.10884E-04 26872   0.362E-02    0.143E-01
DAV:  12    -0.288074900933E+03   -0.12605E-05   -0.17771E-04 28992   0.380E-02    0.785E-02
DAV:  13    -0.288074926404E+03   -0.25470E-04   -0.57799E-05 21624   0.286E-02    0.604E-02
DAV:  14    -0.288074927857E+03   -0.14531E-05   -0.16191E-05 15240   0.138E-02
  26 F= -.28807493E+03 E0= -.28806163E+03  d E =-.417195E-02  mag=    10.0000
       N       E                     dE             d eps       ncg     rms          rms(c)
DAV:   1    -0.288045018452E+03    0.29908E-01   -0.16875E+01 24768   0.131E+01    0.827E-01
DAV:   2    -0.288090042307E+03   -0.45024E-01   -0.48930E-01 25952   0.216E+00    0.103E+00
DAV:   3    -0.288097525200E+03   -0.74829E-02   -0.12576E-01 34856   0.583E-01    0.288E+00
DAV:   4    -0.288085404537E+03    0.12121E-01   -0.69608E-02 34864   0.399E-01    0.782E-01
DAV:   5    -0.288088235278E+03   -0.28307E-02   -0.91911E-03 32904   0.182E-01    0.563E-01
DAV:   6    -0.288088548615E+03   -0.31334E-03   -0.98632E-03 34184   0.224E-01    0.932E-01
DAV:   7    -0.288087023272E+03    0.15253E-02   -0.81972E-03 33960   0.184E-01    0.408E-01
DAV:   8    -0.288087237703E+03   -0.21443E-03   -0.20825E-03 31936   0.126E-01    0.171E-01
DAV:   9    -0.288087737496E+03   -0.49979E-03   -0.23757E-03 29496   0.755E-02    0.254E-01
DAV:  10    -0.288087850221E+03   -0.11273E-03   -0.74887E-04 31488   0.791E-02    0.232E-01
DAV:  11    -0.288087819253E+03    0.30968E-04   -0.13174E-04 29400   0.370E-02    0.202E-01
DAV:  12    -0.288087790724E+03    0.28530E-04   -0.19754E-04 31568   0.502E-02    0.131E-01
DAV:  13    -0.288087816264E+03   -0.25540E-04   -0.13388E-04 26728   0.384E-02    0.113E-01
DAV:  14    -0.288087818809E+03   -0.25457E-05   -0.61709E-05 21192   0.228E-02
  27 F= -.28808782E+03 E0= -.28807433E+03  d E =-.128910E-01  mag=    10.0000
       N       E                     dE             d eps       ncg     rms          rms(c)
DAV:   1    -0.287677645197E+03    0.41017E+00   -0.15113E+02 25056   0.392E+01    0.261E+00
DAV:   2    -0.288168469627E+03   -0.49082E+00   -0.53117E+00 26776   0.677E+00    0.786E+00
DAV:   3    -0.288130757207E+03    0.37712E-01   -0.16598E+00 33840   0.188E+00    0.431E+00
DAV:   4    -0.288187904067E+03   -0.57147E-01   -0.90487E-01 34872   0.132E+00    0.867E+00
DAV:   5    -0.288084217235E+03    0.10369E+00   -0.47178E-01 33088   0.101E+00    0.281E+00
DAV:   6    -0.288104273454E+03   -0.20056E-01   -0.62754E-02 31816   0.489E-01    0.213E+00
DAV:   7    -0.288098813305E+03    0.54601E-02   -0.69002E-02 31400   0.570E-01    0.141E+00
DAV:   8    -0.288098276265E+03    0.53704E-03   -0.40737E-02 33264   0.488E-01    0.593E-01
DAV:   9    -0.288103395716E+03   -0.51195E-02   -0.29262E-02 31352   0.278E-01    0.120E+00
DAV:  10    -0.288103476420E+03   -0.80704E-04   -0.73577E-03 31088   0.190E-01    0.134E+00
DAV:  11    -0.288102460818E+03    0.10156E-02   -0.53163E-04 27392   0.759E-02    0.139E+00
DAV:  12    -0.288101845406E+03    0.61541E-03   -0.25005E-03 33704   0.135E-01    0.141E+00
DAV:  13    -0.288101416613E+03    0.42879E-03   -0.14344E-03 30304   0.104E-01    0.131E+00
DAV:  14    -0.288100555259E+03    0.86135E-03   -0.39406E-03 32936   0.130E-01    0.113E+00
DAV:  15    -0.288100978429E+03   -0.42317E-03   -0.12343E-03 30624   0.108E-01    0.126E+00
DAV:  16    -0.288100756092E+03    0.22234E-03   -0.47459E-04 31248   0.520E-02    0.129E+00
DAV:  17    -0.288100891855E+03   -0.13576E-03   -0.40640E-05 20016   0.206E-02    0.128E+00
DAV:  18    -0.288100898027E+03   -0.61725E-05   -0.18292E-05 17760   0.168E-02
  28 F= -.28810090E+03 E0= -.28808603E+03  d E =-.130792E-01  mag=    10.0000
       N       E                     dE             d eps       ncg     rms          rms(c)
DAV:   1    -0.288091734681E+03    0.91572E-02   -0.62966E+00 25056   0.807E+00    0.199E+00
DAV:   2    -0.288261813249E+03   -0.17008E+00   -0.18100E+00 32768   0.263E+00    0.766E+00
DAV:   3    -0.288132465782E+03    0.12935E+00   -0.78297E-01 33136   0.174E+00    0.552E+00
DAV:   4    -0.288101819892E+03    0.30646E-01   -0.26455E-01 32896   0.820E-01    0.217E+00
DAV:   5    -0.288111057975E+03   -0.92381E-02   -0.10582E-02 29256   0.258E-01    0.214E+00
DAV:   6    -0.288111416944E+03   -0.35897E-03   -0.39652E-03 29696   0.134E-01    0.241E+00
DAV:   7    -0.288114635951E+03   -0.32190E-02   -0.19159E-02 33416   0.236E-01    0.285E+00
DAV:   8    -0.288103049517E+03    0.11586E-01   -0.12347E-01 34200   0.700E-01    0.161E+00
DAV:   9    -0.288108304250E+03   -0.52547E-02   -0.31401E-02 31720   0.405E-01    0.884E-01
DAV:  10    -0.288109633849E+03   -0.13296E-02   -0.12730E-02 33184   0.186E-01    0.864E-01
DAV:  11    -0.288109297000E+03    0.33685E-03   -0.43119E-03 31608   0.137E-01    0.575E-01
DAV:  12    -0.288109347847E+03   -0.50847E-04   -0.27984E-03 32872   0.112E-01    0.471E-01
DAV:  13    -0.288109391326E+03   -0.43479E-04   -0.18636E-03 32968   0.108E-01    0.226E-01
DAV:  14    -0.288109622036E+03   -0.23071E-03   -0.56563E-04 30552   0.621E-02    0.261E-01
DAV:  15    -0.288109559385E+03    0.62651E-04   -0.30969E-04 26336   0.426E-02    0.186E-01
DAV:  16    -0.288109596676E+03   -0.37291E-04   -0.56780E-04 28640   0.541E-02    0.164E-01
DAV:  17    -0.288109597552E+03   -0.87641E-06   -0.43339E-04 22312   0.364E-02    0.128E-01
DAV:  18    -0.288109595964E+03    0.15887E-05   -0.16232E-04 19632   0.301E-02    0.672E-02
DAV:  19    -0.288109608435E+03   -0.12472E-04   -0.17052E-04 18784   0.230E-02    0.101E-01
DAV:  20    -0.288109599698E+03    0.87374E-05   -0.25187E-05 16520   0.170E-02
  29 F= -.28810960E+03 E0= -.28809568E+03  d E =-.870167E-02  mag=    10.0000
       N       E                     dE             d eps       ncg     rms          rms(c)
DAV:   1    -0.288084496937E+03    0.25111E-01   -0.11180E+01 24768   0.105E+01    0.809E-01
DAV:   2    -0.288119905598E+03   -0.35409E-01   -0.37179E-01 27480   0.179E+00    0.263E+00
DAV:   3    -0.288111088313E+03    0.88173E-02   -0.10024E-01 33800   0.594E-01    0.114E+00
DAV:   4    -0.288112126603E+03   -0.10383E-02   -0.94449E-03 32032   0.301E-01    0.503E-01
DAV:   5    -0.288112483442E+03   -0.35684E-03   -0.87835E-03 34688   0.175E-01    0.735E-01
DAV:   6    -0.288111207229E+03    0.12762E-02   -0.80508E-03 33592   0.194E-01    0.477E-01
DAV:   7    -0.288111439978E+03   -0.23275E-03   -0.66494E-03 34024   0.119E-01    0.527E-01
DAV:   8    -0.288111282391E+03    0.15759E-03   -0.29514E-03 31960   0.107E-01    0.171E-01
DAV:   9    -0.288111635419E+03   -0.35303E-03   -0.89589E-04 28680   0.527E-02    0.195E-01
DAV:  10    -0.288111675771E+03   -0.40352E-04   -0.28543E-04 30448   0.512E-02    0.160E-01
DAV:  11    -0.288111655288E+03    0.20483E-04   -0.10066E-04 22328   0.280E-02    0.128E-01
DAV:  12    -0.288111630143E+03    0.25146E-04   -0.95626E-05 26784   0.311E-02    0.841E-02
DAV:  13    -0.288111652277E+03   -0.22134E-04   -0.14930E-04 21992   0.337E-02    0.759E-02
DAV:  14    -0.288111663962E+03   -0.11685E-04   -0.48836E-05 18512   0.203E-02    0.718E-02
DAV:  15    -0.288111659778E+03    0.41839E-05   -0.16091E-05 15528   0.138E-02
  30 F= -.28811166E+03 E0= -.28809777E+03  d E =-.206008E-02  mag=    10.0000
       N       E                     dE             d eps       ncg     rms          rms(c)
DAV:   1    -0.288104882208E+03    0.67818E-02   -0.33652E+00 25056   0.593E+00    0.402E-01
DAV:   2    -0.288115462805E+03   -0.10581E-01   -0.11185E-01 26752   0.100E+00    0.118E+00
DAV:   3    -0.288113899633E+03    0.15632E-02   -0.28009E-02 33912   0.311E-01    0.729E-01
DAV:   4    -0.288113697859E+03    0.20177E-03   -0.32132E-03 32000   0.158E-01    0.260E-01
DAV:   5    -0.288113904147E+03   -0.20629E-03   -0.26917E-03 34456   0.866E-02    0.484E-01
DAV:   6    -0.288113672570E+03    0.23158E-03   -0.37855E-03 33504   0.110E-01    0.475E-01
DAV:   7    -0.288113423319E+03    0.24925E-03   -0.23533E-03 33480   0.836E-02    0.105E-01
DAV:   8    -0.288113640555E+03   -0.21724E-03   -0.48540E-04 26360   0.452E-02    0.117E-01
DAV:   9    -0.288113685670E+03   -0.45115E-04   -0.11439E-04 20032   0.230E-02    0.153E-01
DAV:  10    -0.288113656721E+03    0.28949E-04   -0.14583E-05 16576   0.161E-02    0.143E-01
DAV:  11    -0.288113644896E+03    0.11826E-04   -0.13112E-05 15832   0.121E-02    0.109E-01
DAV:  12    -0.288113644115E+03    0.78110E-06   -0.66607E-05 22000   0.258E-02
  31 F= -.28811364E+03 E0= -.28809975E+03  d E =-.198434E-02  mag=    10.0000
       N       E                     dE             d eps       ncg     rms          rms(c)
DAV:   1    -0.287908956960E+03    0.20469E+00   -0.29955E+01 25344   0.188E+01    0.298E+00
DAV:   2    -0.288085942516E+03   -0.17699E+00   -0.19018E+00 28296   0.368E+00    0.781E+00
DAV:   3    -0.288018702542E+03    0.67240E-01   -0.15298E+00 33840   0.191E+00    0.381E+00
DAV:   4    -0.288077148479E+03   -0.58446E-01   -0.79361E-01 34008   0.119E+00    0.801E+00
DAV:   5    -0.287977889210E+03    0.99259E-01   -0.51105E-01 33152   0.106E+00    0.181E+00
DAV:   6    -0.288009079404E+03   -0.31190E-01   -0.65155E-02 31184   0.499E-01    0.263E+00
DAV:   7    -0.288002261951E+03    0.68175E-02   -0.34331E-02 32640   0.428E-01    0.101E+00
DAV:   8    -0.288005389177E+03   -0.31272E-02   -0.23513E-02 33616   0.309E-01    0.109E+00
DAV:   9    -0.288006379228E+03   -0.99005E-03   -0.36436E-02 33176   0.295E-01    0.860E-01
DAV:  10    -0.288007770922E+03   -0.13917E-02   -0.11770E-02 30088   0.215E-01    0.575E-01
DAV:  11    -0.288008082945E+03   -0.31202E-03   -0.15526E-03 32688   0.109E-01    0.553E-01
DAV:  12    -0.288007913482E+03    0.16946E-03   -0.22769E-04 28368   0.427E-02    0.517E-01
DAV:  13    -0.288007926232E+03   -0.12750E-04   -0.53658E-04 31648   0.748E-02    0.433E-01
DAV:  14    -0.288007803569E+03    0.12266E-03   -0.16408E-03 32368   0.136E-01    0.387E-01
DAV:  15    -0.288007856935E+03   -0.53366E-04   -0.68057E-04 32752   0.871E-02    0.436E-01
DAV:  16    -0.288007803294E+03    0.53640E-04   -0.24341E-04 31504   0.558E-02    0.357E-01
DAV:  17    -0.288007897531E+03   -0.94236E-04   -0.64782E-04 30776   0.694E-02    0.144E-01
DAV:  18    -0.288007980702E+03   -0.83171E-04   -0.25369E-04 27472   0.492E-02    0.691E-02
DAV:  19    -0.288008009124E+03   -0.28423E-04   -0.94220E-05 22408   0.336E-02    0.110E-01
DAV:  20    -0.288007996577E+03    0.12547E-04   -0.34552E-05 20016   0.198E-02    0.145E-01
DAV:  21    -0.288007979624E+03    0.16953E-04   -0.41718E-05 17152   0.186E-02    0.779E-02
DAV:  22    -0.288008005121E+03   -0.25497E-04   -0.63862E-05 18848   0.194E-02    0.274E-02
DAV:  23    -0.288008014821E+03   -0.97000E-05   -0.92028E-06 14912   0.126E-02
  32 F= -.28800801E+03 E0= -.28799397E+03  d E =0.105629E+00  mag=    10.0000
       N       E                     dE             d eps       ncg     rms          rms(c)
DAV:   1    -0.288095687804E+03   -0.87683E-01   -0.40730E+00 25344   0.580E+00    0.186E+00
DAV:   2    -0.288155946860E+03   -0.60259E-01   -0.53277E-01 30456   0.158E+00    0.694E+00
DAV:   3    -0.288097204221E+03    0.58743E-01   -0.77186E-01 32736   0.119E+00    0.295E+00
DAV:   4    -0.288132881643E+03   -0.35677E-01   -0.35480E-01 32168   0.772E-01    0.488E+00
DAV:   5    -0.288101376404E+03    0.31505E-01   -0.22330E-01 32576   0.650E-01    0.219E+00
DAV:   6    -0.288103663190E+03   -0.22868E-02   -0.31899E-02 32352   0.356E-01    0.977E-01
DAV:   7    -0.288105660410E+03   -0.19972E-02   -0.25363E-03 29424   0.168E-01    0.839E-01
DAV:   8    -0.288104878421E+03    0.78199E-03   -0.15396E-02 33592   0.255E-01    0.610E-01
DAV:   9    -0.288107850624E+03   -0.29722E-02   -0.15433E-02 29880   0.186E-01    0.762E-01
DAV:  10    -0.288107758498E+03    0.92127E-04   -0.22643E-03 31832   0.158E-01    0.530E-01
DAV:  11    -0.288107706663E+03    0.51835E-04   -0.18390E-03 34064   0.128E-01    0.365E-01
DAV:  12    -0.288107806758E+03   -0.10010E-03   -0.10245E-03 33040   0.107E-01    0.298E-01
DAV:  13    -0.288107840708E+03   -0.33950E-04   -0.80697E-04 32280   0.561E-02    0.232E-01
DAV:  14    -0.288107862898E+03   -0.22190E-04   -0.41794E-04 30232   0.692E-02    0.151E-01
DAV:  15    -0.288107888808E+03   -0.25911E-04   -0.69073E-05 26432   0.254E-02    0.149E-01
DAV:  16    -0.288107880266E+03    0.85424E-05   -0.12045E-05 16416   0.159E-02
  33 F= -.28810788E+03 E0= -.28809402E+03  d E =-.998654E-01  mag=    10.0000
       N       E                     dE             d eps       ncg     rms          rms(c)
DAV:   1    -0.288113723562E+03   -0.58348E-02   -0.80851E-02 25344   0.859E-01    0.248E-01
DAV:   2    -0.288114630745E+03   -0.90718E-03   -0.85875E-03 30880   0.217E-01    0.758E-01
DAV:   3    -0.288113758424E+03    0.87232E-03   -0.50312E-03 33360   0.126E-01    0.211E-01
DAV:   4    -0.288114113032E+03   -0.35461E-03   -0.98961E-04 29808   0.704E-02    0.287E-01
DAV:   5    -0.288113999002E+03    0.11403E-03   -0.37311E-04 26360   0.416E-02    0.202E-01
DAV:   6    -0.288114005312E+03   -0.63097E-05   -0.41171E-05 17896   0.192E-02
  34 F= -.28811401E+03 E0= -.28810021E+03  d E =-.612505E-02  mag=    10.0000
       N       E                     dE             d eps       ncg     rms          rms(c)
DAV:   1    -0.288116473772E+03   -0.24748E-02   -0.17922E+00 25056   0.419E+00    0.128E+00
DAV:   2    -0.288156799077E+03   -0.40325E-01   -0.39333E-01 31848   0.123E+00    0.501E+00
DAV:   3    -0.288114874998E+03    0.41924E-01   -0.31951E-01 32920   0.940E-01    0.217E+00
DAV:   4    -0.288123763340E+03   -0.88883E-02   -0.10710E-01 31984   0.498E-01    0.203E+00
DAV:   5    -0.288120299271E+03    0.34641E-02   -0.53365E-02 33896   0.405E-01    0.142E+00
DAV:   6    -0.288119120546E+03    0.11787E-02   -0.17943E-02 33856   0.246E-01    0.668E-01
DAV:   7    -0.288118805754E+03    0.31479E-03   -0.39394E-03 32784   0.178E-01    0.410E-01
DAV:   8    -0.288120099689E+03   -0.12939E-02   -0.15161E-02 33016   0.160E-01    0.637E-01
DAV:   9    -0.288120514635E+03   -0.41495E-03   -0.59493E-03 31656   0.140E-01    0.416E-01
DAV:  10    -0.288120539521E+03   -0.24886E-04   -0.10949E-03 32320   0.936E-02    0.316E-01
DAV:  11    -0.288120518093E+03    0.21428E-04   -0.58393E-04 33552   0.613E-02    0.241E-01
DAV:  12    -0.288120511167E+03    0.69263E-05   -0.28401E-04 30312   0.704E-02    0.162E-01
DAV:  13    -0.288120536871E+03   -0.25705E-04   -0.21495E-04 30264   0.419E-02    0.175E-01
DAV:  14    -0.288120509289E+03    0.27582E-04   -0.23533E-04 25728   0.450E-02    0.583E-02
DAV:  15    -0.288120549396E+03   -0.40107E-04   -0.13251E-04 24984   0.279E-02    0.629E-02
DAV:  16    -0.288120554211E+03   -0.48142E-05   -0.34202E-05 17960   0.204E-02
  35 F= -.28812055E+03 E0= -.28810679E+03  d E =-.654890E-02  mag=    10.0000
       N       E                     dE             d eps       ncg     rms          rms(c)
DAV:   1    -0.288121514886E+03   -0.96549E-03   -0.29132E-01 25344   0.164E+00    0.467E-01
DAV:   2    -0.288126336696E+03   -0.48218E-02   -0.44967E-02 30952   0.438E-01    0.195E+00
DAV:   3    -0.288120664122E+03    0.56726E-02   -0.41399E-02 32312   0.330E-01    0.496E-01
DAV:   4    -0.288123493535E+03   -0.28294E-02   -0.13619E-02 31184   0.195E-01    0.105E+00
DAV:   5    -0.288121671176E+03    0.18224E-02   -0.96913E-03 33680   0.159E-01    0.299E-01
DAV:   6    -0.288122173536E+03   -0.50236E-03   -0.76021E-04 29352   0.616E-02    0.227E-01
DAV:   7    -0.288122182494E+03   -0.89581E-05   -0.18171E-04 25960   0.406E-02    0.188E-01
DAV:   8    -0.288122105376E+03    0.77118E-04   -0.74345E-04 29736   0.599E-02    0.109E-01
DAV:   9    -0.288122261845E+03   -0.15647E-03   -0.68935E-04 26272   0.419E-02    0.144E-01
DAV:  10    -0.288122271992E+03   -0.10148E-04   -0.15708E-04 25096   0.356E-02    0.116E-01
DAV:  11    -0.288122268817E+03    0.31751E-05   -0.45820E-05 19568   0.218E-02
  36 F= -.28812227E+03 E0= -.28810844E+03  d E =-.171461E-02  mag=    10.0000
       N       E                     dE             d eps       ncg     rms          rms(c)
DAV:   1    -0.288122664736E+03   -0.39274E-03   -0.21300E-02 25344   0.528E-01    0.104E-01
DAV:   2    -0.288122805307E+03   -0.14057E-03   -0.15525E-03 29488   0.113E-01    0.227E-01
DAV:   3    -0.288122761874E+03    0.43433E-04   -0.11066E-03 30392   0.552E-02    0.173E-01
DAV:   4    -0.288122759961E+03    0.19130E-05   -0.40248E-04 22056   0.347E-02    0.143E-01
DAV:   5    -0.288122731339E+03    0.28622E-04   -0.12669E-04 19416   0.247E-02    0.812E-02
DAV:   6    -0.288122739419E+03   -0.80803E-05   -0.30541E-05 14720   0.121E-02
  37 F= -.28812274E+03 E0= -.28810891E+03  d E =-.470602E-03  mag=    10.0000
       N       E                     dE             d eps       ncg     rms          rms(c)
DAV:   1    -0.288123316121E+03   -0.58478E-03   -0.16715E-02 25344   0.543E-01    0.945E-02
DAV:   2    -0.288123691176E+03   -0.37506E-03   -0.35956E-03 32112   0.124E-01    0.584E-01
DAV:   3    -0.288123156161E+03    0.53501E-03   -0.20865E-03 31408   0.808E-02    0.849E-02
DAV:   4    -0.288123417049E+03   -0.26089E-03   -0.53244E-04 22560   0.408E-02    0.198E-01
DAV:   5    -0.288123379635E+03    0.37415E-04   -0.41505E-04 21968   0.374E-02    0.870E-02
DAV:   6    -0.288123405893E+03   -0.26258E-04   -0.15197E-04 18376   0.211E-02    0.110E-01
DAV:   7    -0.288123406807E+03   -0.91445E-06   -0.86579E-05 17120   0.206E-02
  38 F= -.28812341E+03 E0= -.28810950E+03  d E =-.667388E-03  mag=    10.0000
       N       E                     dE             d eps       ncg     rms          rms(c)
DAV:   1    -0.288124043284E+03   -0.63739E-03   -0.22282E-02 25344   0.630E-01    0.927E-02
DAV:   2    -0.288124180267E+03   -0.13698E-03   -0.15618E-03 25368   0.122E-01    0.137E-01
DAV:   3    -0.288124167380E+03    0.12887E-04   -0.28550E-04 24752   0.339E-02    0.128E-01
DAV:   4    -0.288124157653E+03    0.97269E-05   -0.70766E-05 18976   0.215E-02
  39 F= -.28812416E+03 E0= -.28811028E+03  d E =-.750846E-03  mag=    10.0000
       N       E                     dE             d eps       ncg     rms          rms(c)
DAV:   1    -0.288124653071E+03   -0.48569E-03   -0.51112E-01 25344   0.305E+00    0.300E-01
DAV:   2    -0.288127488655E+03   -0.28356E-02   -0.31983E-02 24592   0.557E-01    0.565E-01
DAV:   3    -0.288127438073E+03    0.50582E-04   -0.10219E-02 34400   0.160E-01    0.554E-01
DAV:   4    -0.288127180691E+03    0.25738E-03   -0.27381E-03 33704   0.104E-01    0.342E-01
DAV:   5    -0.288127114345E+03    0.66345E-04   -0.13352E-03 33112   0.673E-02    0.248E-01
DAV:   6    -0.288127295545E+03   -0.18120E-03   -0.23308E-03 32296   0.789E-02    0.530E-01
DAV:   7    -0.288126798084E+03    0.49746E-03   -0.23778E-03 32936   0.909E-02    0.137E-01
DAV:   8    -0.288127197460E+03   -0.39938E-03   -0.12781E-03 26632   0.641E-02    0.154E-01
DAV:   9    -0.288127243964E+03   -0.46504E-04   -0.15030E-04 23256   0.364E-02    0.131E-01
DAV:  10    -0.288127226151E+03    0.17813E-04   -0.14539E-04 29600   0.444E-02    0.752E-02
DAV:  11    -0.288127220130E+03    0.60211E-05   -0.70471E-05 22424   0.323E-02
  40 F= -.28812722E+03 E0= -.28811329E+03  d E =-.306248E-02  mag=    10.0000
       N       E                     dE             d eps       ncg     rms          rms(c)
DAV:   1    -0.288127673097E+03   -0.44695E-03   -0.58434E-01 25344   0.302E+00    0.289E-01
DAV:   2    -0.288130614632E+03   -0.29415E-02   -0.31891E-02 25360   0.560E-01    0.695E-01
DAV:   3    -0.288130224167E+03    0.39046E-03   -0.10582E-02 34656   0.178E-01    0.526E-01
DAV:   4    -0.288130160718E+03    0.63449E-04   -0.25136E-03 32800   0.113E-01    0.281E-01
DAV:   5    -0.288130122267E+03    0.38450E-04   -0.10059E-03 33200   0.627E-02    0.126E-01
DAV:   6    -0.288130274943E+03   -0.15268E-03   -0.12524E-03 32480   0.585E-02    0.354E-01
DAV:   7    -0.288130074175E+03    0.20077E-03   -0.91571E-04 26912   0.472E-02    0.119E-01
DAV:   8    -0.288130146610E+03   -0.72435E-04   -0.75788E-05 19392   0.229E-02    0.112E-01
DAV:   9    -0.288130148643E+03   -0.20337E-05   -0.35431E-05 15960   0.134E-02
  41 F= -.28813015E+03 E0= -.28811611E+03  d E =-.292851E-02  mag=    10.0000
       N       E                     dE             d eps       ncg     rms          rms(c)
DAV:   1    -0.288130772240E+03   -0.62563E-03   -0.81149E-02 25344   0.106E+00    0.157E-01
DAV:   2    -0.288131496653E+03   -0.72441E-03   -0.74199E-03 29600   0.219E-01    0.625E-01
DAV:   3    -0.288130934035E+03    0.56262E-03   -0.45842E-03 33336   0.111E-01    0.165E-01
DAV:   4    -0.288131256054E+03   -0.32202E-03   -0.16738E-03 30064   0.699E-02    0.354E-01
DAV:   5    -0.288131027578E+03    0.22848E-03   -0.92766E-04 29232   0.595E-02    0.771E-02
DAV:   6    -0.288131111771E+03   -0.84192E-04   -0.11811E-04 20256   0.241E-02    0.101E-01
DAV:   7    -0.288131106368E+03    0.54028E-05   -0.79586E-05 17904   0.188E-02
  42 F= -.28813111E+03 E0= -.28811711E+03  d E =-.957725E-03  mag=    10.0000
       N       E                     dE             d eps       ncg     rms          rms(c)
DAV:   1    -0.288131485871E+03   -0.37410E-03   -0.69914E-02 25344   0.981E-01    0.120E-01
DAV:   2    -0.288131879566E+03   -0.39370E-03   -0.41874E-03 28512   0.182E-01    0.407E-01
DAV:   3    -0.288131622767E+03    0.25680E-03   -0.17102E-03 33152   0.713E-02    0.126E-01
DAV:   4    -0.288131701684E+03   -0.78917E-04   -0.13844E-04 23480   0.362E-02    0.129E-01
DAV:   5    -0.288131682695E+03    0.18989E-04   -0.22083E-04 21656   0.278E-02    0.124E-01
DAV:   6    -0.288131733209E+03   -0.50514E-04   -0.79424E-04 25240   0.437E-02    0.275E-01
DAV:   7    -0.288131632243E+03    0.10097E-03   -0.66771E-04 24944   0.452E-02    0.746E-02
DAV:   8    -0.288131715803E+03   -0.83560E-04   -0.15406E-04 20816   0.328E-02    0.732E-02
DAV:   9    -0.288131718417E+03   -0.26144E-05   -0.28139E-05 17416   0.176E-02
  43 F= -.28813172E+03 E0= -.28811778E+03  d E =-.612050E-03  mag=    10.0000
       N       E                     dE             d eps       ncg     rms          rms(c)
DAV:   1    -0.288132309112E+03   -0.59331E-03   -0.27739E-01 24768   0.186E+00    0.152E-01
DAV:   2    -0.288133466309E+03   -0.11572E-02   -0.12298E-02 26760   0.330E-01    0.534E-01
DAV:   3    -0.288133083176E+03    0.38313E-03   -0.37412E-03 34120   0.109E-01    0.199E-01
DAV:   4    -0.288133202258E+03   -0.11908E-03   -0.31064E-04 28792   0.556E-02    0.125E-01
DAV:   5    -0.288133191328E+03    0.10931E-04   -0.27195E-04 22208   0.313E-02    0.129E-01
DAV:   6    -0.288133169955E+03    0.21373E-04   -0.24910E-04 26216   0.356E-02    0.136E-01
DAV:   7    -0.288133162913E+03    0.70414E-05   -0.41566E-04 20792   0.305E-02    0.130E-01
DAV:   8    -0.288133172117E+03   -0.92034E-05   -0.22842E-04 19528   0.272E-02    0.689E-02
DAV:   9    -0.288133189347E+03   -0.17230E-04   -0.43711E-05 17096   0.158E-02    0.654E-02
DAV:  10    -0.288133188828E+03    0.51884E-06   -0.20118E-05 18096   0.174E-02
  44 F= -.28813319E+03 E0= -.28811918E+03  d E =-.147041E-02  mag=    10.0000
       N       E                     dE             d eps       ncg     rms          rms(c)
DAV:   1    -0.288092110704E+03    0.41079E-01   -0.15335E+01 24768   0.135E+01    0.931E-01
DAV:   2    -0.288142051186E+03   -0.49940E-01   -0.54924E-01 25032   0.233E+00    0.132E+00
DAV:   3    -0.288150001831E+03   -0.79506E-02   -0.14441E-01 34808   0.641E-01    0.335E+00
DAV:   4    -0.288135183479E+03    0.14818E-01   -0.78163E-02 34624   0.453E-01    0.580E-01
DAV:   5    -0.288140635006E+03   -0.54515E-02   -0.13239E-02 33248   0.223E-01    0.961E-01
DAV:   6    -0.288139514685E+03    0.11203E-02   -0.13208E-02 35104   0.237E-01    0.772E-01
DAV:   7    -0.288139698545E+03   -0.18386E-03   -0.11498E-02 33648   0.176E-01    0.810E-01
DAV:   8    -0.288138926501E+03    0.77204E-03   -0.63753E-03 33824   0.147E-01    0.215E-01
DAV:   9    -0.288139855124E+03   -0.92862E-03   -0.27949E-03 29136   0.802E-02    0.429E-01
DAV:  10    -0.288139852924E+03    0.22002E-05   -0.92240E-04 30088   0.855E-02    0.315E-01
DAV:  11    -0.288139812363E+03    0.40561E-04   -0.28837E-04 29784   0.461E-02    0.231E-01
DAV:  12    -0.288139816399E+03   -0.40363E-05   -0.26621E-04 31656   0.479E-02    0.166E-01
DAV:  13    -0.288139865065E+03   -0.48666E-04   -0.17607E-04 25904   0.426E-02    0.893E-02
DAV:  14    -0.288139891903E+03   -0.26837E-04   -0.85365E-05 22976   0.290E-02    0.878E-02
DAV:  15    -0.288139888935E+03    0.29680E-05   -0.46121E-05 19736   0.233E-02
  45 F= -.28813989E+03 E0= -.28812580E+03  d E =-.670011E-02  mag=    10.0000
       N       E                     dE             d eps       ncg     rms          rms(c)
DAV:   1    -0.288131986095E+03    0.79058E-02   -0.25706E+00 25344   0.531E+00    0.914E-01
DAV:   2    -0.288160446840E+03   -0.28461E-01   -0.24295E-01 28888   0.115E+00    0.469E+00
DAV:   3    -0.288129200772E+03    0.31246E-01   -0.21982E-01 32408   0.697E-01    0.711E-01
DAV:   4    -0.288143073151E+03   -0.13872E-01   -0.36261E-02 30496   0.370E-01    0.206E+00
DAV:   5    -0.288137068765E+03    0.60044E-02   -0.31137E-02 32872   0.294E-01    0.510E-01
DAV:   6    -0.288139500666E+03   -0.24319E-02   -0.76477E-03 32032   0.145E-01    0.625E-01
DAV:   7    -0.288139046208E+03    0.45446E-03   -0.21222E-03 32088   0.136E-01    0.252E-01
DAV:   8    -0.288139308338E+03   -0.26213E-03   -0.15818E-03 32440   0.718E-02    0.197E-01
DAV:   9    -0.288139484723E+03   -0.17638E-03   -0.52227E-04 26536   0.466E-02    0.195E-01
DAV:  10    -0.288139463160E+03    0.21563E-04   -0.64869E-05 21672   0.276E-02    0.183E-01
DAV:  11    -0.288139441272E+03    0.21888E-04   -0.18847E-05 17648   0.152E-02    0.170E-01
DAV:  12    -0.288139432129E+03    0.91429E-05   -0.18364E-04 29816   0.589E-02    0.939E-02
DAV:  13    -0.288139459057E+03   -0.26928E-04   -0.17797E-04 27608   0.357E-02    0.110E-01
DAV:  14    -0.288139465954E+03   -0.68967E-05   -0.52900E-05 19448   0.258E-02
  46 F= -.28813947E+03 E0= -.28812553E+03  d E =0.422981E-03  mag=    10.0000
       N       E                     dE             d eps       ncg     rms          rms(c)
DAV:   1    -0.288127032801E+03    0.12426E-01   -0.38155E+00 24768   0.681E+00    0.701E-01
DAV:   2    -0.288147006956E+03   -0.19974E-01   -0.20766E-01 27104   0.127E+00    0.289E+00
DAV:   3    -0.288136424311E+03    0.10583E-01   -0.11212E-01 33864   0.527E-01    0.961E-01
DAV:   4    -0.288142578465E+03   -0.61542E-02   -0.33644E-02 33472   0.319E-01    0.179E+00
DAV:   5    -0.288137332977E+03    0.52455E-02   -0.22560E-02 32168   0.266E-01    0.436E-01
DAV:   6    -0.288139414958E+03   -0.20820E-02   -0.53914E-03 31136   0.151E-01    0.669E-01
DAV:   7    -0.288138735666E+03    0.67929E-03   -0.43157E-03 34248   0.125E-01    0.189E-01
DAV:   8    -0.288139076332E+03   -0.34067E-03   -0.66802E-04 28984   0.646E-02    0.157E-01
DAV:   9    -0.288139166681E+03   -0.90349E-04   -0.55915E-04 25312   0.379E-02    0.125E-01
DAV:  10    -0.288139218992E+03   -0.52311E-04   -0.20055E-04 23640   0.356E-02    0.142E-01
DAV:  11    -0.288139205534E+03    0.13458E-04   -0.13278E-04 23944   0.337E-02    0.844E-02
DAV:  12    -0.288139204080E+03    0.14546E-05   -0.62621E-05 22256   0.254E-02
  47 F= -.28813920E+03 E0= -.28812523E+03  d E =0.261875E-03  mag=    10.0000
       N       E                     dE             d eps       ncg     rms          rms(c)
DAV:   1    -0.288137889842E+03    0.13157E-02   -0.59767E-01 25056   0.244E+00    0.294E-01
DAV:   2    -0.288140889853E+03   -0.30000E-02   -0.31335E-02 27728   0.451E-01    0.119E+00
DAV:   3    -0.288138989024E+03    0.19008E-02   -0.20420E-02 33608   0.216E-01    0.363E-01
DAV:   4    -0.288139732681E+03   -0.74366E-03   -0.33900E-03 32832   0.116E-01    0.531E-01
DAV:   5    -0.288139222350E+03    0.51033E-03   -0.17597E-03 32344   0.831E-02    0.134E-01
DAV:   6    -0.288139453067E+03   -0.23072E-03   -0.82823E-04 24136   0.485E-02    0.270E-01
DAV:   7    -0.288139338362E+03    0.11470E-03   -0.28712E-04 29360   0.483E-02    0.124E-01
DAV:   8    -0.288139366764E+03   -0.28402E-04   -0.24869E-04 23024   0.286E-02    0.605E-02
DAV:   9    -0.288139404975E+03   -0.38211E-04   -0.80845E-05 18760   0.220E-02    0.717E-02
DAV:  10    -0.288139404324E+03    0.65177E-06   -0.24452E-05 16336   0.145E-02
  48 F= -.28813940E+03 E0= -.28812539E+03  d E =-.200244E-03  mag=    10.0000
       N       E                     dE             d eps       ncg     rms          rms(c)
DAV:   1    -0.288137376822E+03    0.20282E-02   -0.13500E+00 24768   0.375E+00    0.271E-01
DAV:   2    -0.288141702720E+03   -0.43259E-02   -0.46379E-02 26848   0.648E-01    0.846E-01
DAV:   3    -0.288140880745E+03    0.82197E-03   -0.11350E-02 34536   0.200E-01    0.423E-01
DAV:   4    -0.288141135038E+03   -0.25429E-03   -0.25370E-03 34192   0.114E-01    0.414E-01
DAV:   5    -0.288140862907E+03    0.27213E-03   -0.11848E-03 33088   0.707E-02    0.141E-01
DAV:   6    -0.288141052022E+03   -0.18911E-03   -0.15903E-03 33136   0.647E-02    0.393E-01
DAV:   7    -0.288140771290E+03    0.28073E-03   -0.14915E-03 32928   0.631E-02    0.982E-02
DAV:   8    -0.288140917703E+03   -0.14641E-03   -0.53227E-04 25128   0.386E-02    0.117E-01
DAV:   9    -0.288140954911E+03   -0.37208E-04   -0.11630E-04 19784   0.253E-02    0.117E-01
DAV:  10    -0.288140947073E+03    0.78375E-05   -0.37074E-05 19392   0.206E-02
  49 F= -.28814095E+03 E0= -.28812687E+03  d E =-.154275E-02  mag=    10.0000
       N       E                     dE             d eps       ncg     rms          rms(c)
DAV:   1    -0.287572433431E+03    0.56852E+00   -0.49253E+01 25344   0.226E+01    0.541E+00
DAV:   2    -0.288073737156E+03   -0.50130E+00   -0.56288E+00 29856   0.533E+00    0.124E+01
DAV:   3    -0.287822464675E+03    0.25127E+00   -0.47100E+00 33552   0.326E+00    0.696E+00
DAV:   4    -0.287868986868E+03   -0.46522E-01   -0.22150E+00 34320   0.212E+00    0.129E+01
DAV:   5    -0.287777803722E+03    0.91183E-01   -0.33818E+00 33144   0.189E+00    0.107E+01
DAV:   6    -0.287706755745E+03    0.71048E-01   -0.83065E-01 32528   0.135E+00    0.511E+00
DAV:   7    -0.287727683614E+03   -0.20928E-01   -0.62451E-01 33256   0.125E+00    0.646E+00
DAV:   8    -0.287711695222E+03    0.15988E-01   -0.76105E-01 33256   0.986E-01    0.324E+00
DAV:   9    -0.287719155503E+03   -0.74603E-02   -0.15333E-01 32280   0.633E-01    0.174E+00
DAV:  10    -0.287734996049E+03   -0.15841E-01   -0.12367E-01 33360   0.488E-01    0.368E+00
DAV:  11    -0.287741292645E+03   -0.62966E-02   -0.26355E-02 28896   0.322E-01    0.499E+00
DAV:  12    -0.287730692234E+03    0.10600E-01   -0.19159E-03 25488   0.162E-01    0.525E+00
DAV:  13    -0.287706146368E+03    0.24546E-01   -0.70277E-02 35816   0.339E-01    0.229E+00
DAV:  14    -0.287719772167E+03   -0.13626E-01   -0.16110E-02 29696   0.250E-01    0.120E+00
DAV:  15    -0.287724906337E+03   -0.51342E-02   -0.28149E-03 27584   0.147E-01    0.122E+00
DAV:  16    -0.287725182776E+03   -0.27644E-03   -0.42902E-04 28984   0.559E-02    0.113E+00
DAV:  17    -0.287725289234E+03   -0.10646E-03   -0.34363E-05 20960   0.241E-02    0.112E+00
DAV:  18    -0.287725535243E+03   -0.24601E-03   -0.67058E-04 31168   0.826E-02    0.114E+00
DAV:  19    -0.287724687593E+03    0.84765E-03   -0.29297E-03 33856   0.137E-01    0.684E-01
DAV:  20    -0.287724798738E+03   -0.11114E-03   -0.34765E-03 33616   0.102E-01    0.302E-01
DAV:  21    -0.287725157474E+03   -0.35874E-03   -0.43524E-04 27512   0.634E-02    0.311E-01
DAV:  22    -0.287725131987E+03    0.25487E-04   -0.38555E-05 20680   0.240E-02    0.320E-01
DAV:  23    -0.287725059833E+03    0.72154E-04   -0.74029E-05 20248   0.234E-02    0.299E-01
DAV:  24    -0.287725012198E+03    0.47635E-04   -0.37785E-04 27200   0.451E-02    0.289E-01
DAV:  25    -0.287725093124E+03   -0.80926E-04   -0.10424E-03 30056   0.486E-02    0.504E-01
DAV:  26    -0.287724974541E+03    0.11858E-03   -0.16263E-04 22960   0.326E-02    0.592E-01
DAV:  27    -0.287724841041E+03    0.13350E-03   -0.38575E-05 18976   0.196E-02    0.624E-01
DAV:  28    -0.287724709067E+03    0.13197E-03   -0.35629E-05 19936   0.211E-02    0.648E-01
DAV:  29    -0.287724584688E+03    0.12438E-03   -0.46413E-05 20176   0.214E-02    0.678E-01
DAV:  30    -0.287724537416E+03    0.47272E-04   -0.28871E-05 15160   0.140E-02    0.706E-01
DAV:  31    -0.287724585755E+03   -0.48339E-04   -0.10442E-05 14632   0.122E-02    0.681E-01
DAV:  32    -0.287724835593E+03   -0.24984E-03   -0.31825E-04 26472   0.537E-02    0.542E-01
DAV:  33    -0.287724924975E+03   -0.89382E-04   -0.20971E-04 26808   0.322E-02    0.446E-01
DAV:  34    -0.287724953654E+03   -0.28678E-04   -0.30807E-05 18280   0.224E-02    0.457E-01
DAV:  35    -0.287725003643E+03   -0.49989E-04   -0.18792E-05 14064   0.136E-02    0.460E-01
DAV:  36    -0.287725057212E+03   -0.53569E-04   -0.12305E-05 16472   0.131E-02    0.444E-01
DAV:  37    -0.287725094239E+03   -0.37027E-04   -0.44837E-05 18384   0.170E-02    0.390E-01
DAV:  38    -0.287725164043E+03   -0.69803E-04   -0.73338E-05 19896   0.223E-02    0.334E-01
DAV:  39    -0.287725180867E+03   -0.16825E-04   -0.26926E-05 14944   0.124E-02    0.309E-01
DAV:  40    -0.287725177155E+03    0.37121E-05   -0.60679E-06 14048   0.745E-03
  50 F= -.28772518E+03 E0= -.28771037E+03  d E =0.415770E+00  mag=    10.0000
       N       E                     dE             d eps       ncg     rms          rms(c)
DAV:   1    -0.288043419195E+03   -0.31824E+00   -0.24747E+01 25392   0.141E+01    0.463E+00
DAV:   2    -0.288360814237E+03   -0.31740E+00   -0.37159E+00 30408   0.393E+00    0.111E+01
DAV:   3    -0.288159016941E+03    0.20180E+00   -0.26612E+00 34104   0.286E+00    0.749E+00
DAV:   4    -0.288238285957E+03   -0.79269E-01   -0.21975E+00 33336   0.172E+00    0.124E+01
DAV:   5    -0.288090742614E+03    0.14754E+00   -0.19406E+00 32552   0.151E+00    0.615E+00
DAV:   6    -0.288130062394E+03   -0.39320E-01   -0.38491E-01 31008   0.832E-01    0.730E+00
DAV:   7    -0.288094397625E+03    0.35665E-01   -0.89994E-01 33200   0.983E-01    0.351E+00
DAV:   8    -0.288117641977E+03   -0.23244E-01   -0.17259E-01 31856   0.780E-01    0.238E+00
DAV:   9    -0.288117763634E+03   -0.12166E-03   -0.28515E-02 32592   0.350E-01    0.231E+00
DAV:  10    -0.288115570076E+03    0.21936E-02   -0.24663E-02 32712   0.283E-01    0.190E+00
DAV:  11    -0.288117221936E+03   -0.16519E-02   -0.18383E-02 31464   0.220E-01    0.177E+00
DAV:  12    -0.288116894501E+03    0.32744E-03   -0.46960E-03 30184   0.163E-01    0.150E+00
DAV:  13    -0.288116706695E+03    0.18781E-03   -0.48545E-03 33224   0.124E-01    0.120E+00
DAV:  14    -0.288117584720E+03   -0.87803E-03   -0.31670E-03 30664   0.132E-01    0.925E-01
DAV:  15    -0.288118578281E+03   -0.99356E-03   -0.30952E-03 31192   0.148E-01    0.655E-01
DAV:  16    -0.288118730173E+03   -0.15189E-03   -0.33850E-03 30776   0.147E-01    0.521E-01
DAV:  17    -0.288119018024E+03   -0.28785E-03   -0.16487E-03 32256   0.115E-01    0.552E-01
DAV:  18    -0.288119044266E+03   -0.26241E-04   -0.27569E-04 28880   0.504E-02    0.590E-01
DAV:  19    -0.288119026753E+03    0.17513E-04   -0.33992E-04 27672   0.531E-02    0.405E-01
DAV:  20    -0.288119389777E+03   -0.36302E-03   -0.23143E-03 31104   0.104E-01    0.303E-01
DAV:  21    -0.288119474522E+03   -0.84744E-04   -0.45739E-04 28744   0.638E-02    0.275E-01
DAV:  22    -0.288119440030E+03    0.34492E-04   -0.59507E-04 28680   0.500E-02    0.147E-01
DAV:  23    -0.288119469111E+03   -0.29081E-04   -0.17491E-04 25200   0.402E-02    0.152E-01
DAV:  24    -0.288119464133E+03    0.49782E-05   -0.57232E-05 21032   0.254E-02
  51 F= -.28811946E+03 E0= -.28810526E+03  d E =-.394287E+00  mag=    10.0000
       N       E                     dE             d eps       ncg     rms          rms(c)
DAV:   1    -0.288126350901E+03   -0.68818E-02   -0.46072E-01 25056   0.207E+00    0.606E-01
DAV:   2    -0.288133915448E+03   -0.75645E-02   -0.79500E-02 30952   0.555E-01    0.244E+00
DAV:   3    -0.288125517002E+03    0.83984E-02   -0.86157E-02 33544   0.447E-01    0.801E-01
DAV:   4    -0.288129193318E+03   -0.36763E-02   -0.18988E-02 32752   0.244E-01    0.124E+00
DAV:   5    -0.288126525845E+03    0.26675E-02   -0.10466E-02 33200   0.193E-01    0.238E-01
DAV:   6    -0.288127625161E+03   -0.10993E-02   -0.29364E-03 31496   0.931E-02    0.459E-01
DAV:   7    -0.288127450007E+03    0.17515E-03   -0.10090E-03 32040   0.819E-02    0.277E-01
DAV:   8    -0.288127465499E+03   -0.15492E-04   -0.37073E-04 27696   0.369E-02    0.153E-01
DAV:   9    -0.288127513338E+03   -0.47839E-04   -0.82721E-05 19632   0.234E-02    0.127E-01
DAV:  10    -0.288127503787E+03    0.95512E-05   -0.17229E-04 22152   0.276E-02    0.737E-02
DAV:  11    -0.288127545651E+03   -0.41864E-04   -0.12925E-04 20080   0.239E-02    0.829E-02
DAV:  12    -0.288127556932E+03   -0.11281E-04   -0.44944E-05 16864   0.159E-02    0.726E-02
DAV:  13    -0.288127556718E+03    0.21454E-06   -0.98932E-06 14672   0.987E-03
  52 F= -.28812756E+03 E0= -.28811347E+03  d E =-.809258E-02  mag=    10.0000
       N       E                     dE             d eps       ncg     rms          rms(c)
DAV:   1    -0.288130990371E+03   -0.34334E-02   -0.74900E-01 25344   0.285E+00    0.656E-01
DAV:   2    -0.288136740253E+03   -0.57499E-02   -0.62644E-02 31040   0.644E-01    0.197E+00
DAV:   3    -0.288132494654E+03    0.42456E-02   -0.75672E-02 33768   0.368E-01    0.931E-01
DAV:   4    -0.288133914181E+03   -0.14195E-02   -0.13477E-02 33408   0.239E-01    0.995E-01
DAV:   5    -0.288132309063E+03    0.16051E-02   -0.87384E-03 33800   0.171E-01    0.318E-01
DAV:   6    -0.288133031602E+03   -0.72254E-03   -0.32088E-03 32080   0.951E-02    0.518E-01
DAV:   7    -0.288132639998E+03    0.39160E-03   -0.15893E-03 32880   0.985E-02    0.194E-01
DAV:   8    -0.288132839305E+03   -0.19931E-03   -0.92948E-04 28736   0.495E-02    0.151E-01
DAV:   9    -0.288132913660E+03   -0.74354E-04   -0.20962E-04 21920   0.338E-02    0.164E-01
DAV:  10    -0.288132897859E+03    0.15801E-04   -0.79329E-05 24736   0.295E-02    0.133E-01
DAV:  11    -0.288132887369E+03    0.10490E-04   -0.11439E-04 23736   0.339E-02    0.124E-01
DAV:  12    -0.288132898850E+03   -0.11481E-04   -0.15010E-04 25128   0.299E-02    0.118E-01
DAV:  13    -0.288132903526E+03   -0.46759E-05   -0.65970E-05 18968   0.230E-02
  53 F= -.28813290E+03 E0= -.28811883E+03  d E =-.534681E-02  mag=    10.0000
       N       E                     dE             d eps       ncg     rms          rms(c)
DAV:   1    -0.288134013002E+03   -0.11142E-02   -0.46459E-02 25392   0.699E-01    0.183E-01
DAV:   2    -0.288134433152E+03   -0.42015E-03   -0.42624E-03 29920   0.165E-01    0.455E-01
DAV:   3    -0.288134203542E+03    0.22961E-03   -0.46948E-03 33800   0.115E-01    0.326E-01
DAV:   4    -0.288134376669E+03   -0.17313E-03   -0.28530E-03 30080   0.813E-02    0.479E-01
DAV:   5    -0.288134017698E+03    0.35897E-03   -0.14007E-03 30576   0.706E-02    0.624E-02
DAV:   6    -0.288134170475E+03   -0.15278E-03   -0.25882E-04 24328   0.320E-02    0.123E-01
DAV:   7    -0.288134171920E+03   -0.14456E-05   -0.15310E-04 18848   0.239E-02    0.102E-01
DAV:   8    -0.288134170774E+03    0.11460E-05   -0.43878E-05 16120   0.176E-02
  54 F= -.28813417E+03 E0= -.28812009E+03  d E =-.126725E-02  mag=    10.0000
       N       E                     dE             d eps       ncg     rms          rms(c)
DAV:   1    -0.288134690728E+03   -0.51881E-03   -0.53804E-02 25344   0.925E-01    0.176E-01
DAV:   2    -0.288135871259E+03   -0.11805E-02   -0.11474E-02 30896   0.217E-01    0.103E+00
DAV:   3    -0.288134315256E+03    0.15560E-02   -0.90753E-03 32120   0.151E-01    0.124E-01
DAV:   4    -0.288135034885E+03   -0.71963E-03   -0.12477E-03 27736   0.715E-02    0.316E-01
DAV:   5    -0.288134868028E+03    0.16686E-03   -0.94624E-04 26136   0.523E-02    0.919E-02
DAV:   6    -0.288134934457E+03   -0.66430E-04   -0.30694E-04 20760   0.315E-02    0.159E-01
[...]
DAV:   4    -0.288137705112E+03    0.13711E-02   -0.65890E-03 34560   0.164E-01    0.289E-01
DAV:   5    -0.288138054231E+03   -0.34912E-03   -0.29296E-03 34384   0.880E-02    0.432E-01
DAV:   6    -0.288137929528E+03    0.12470E-03   -0.33915E-03 33080   0.118E-01    0.489E-01
DAV:   7    -0.288137631402E+03    0.29813E-03   -0.26449E-03 34208   0.970E-02    0.146E-01
DAV:   8    -0.288137781514E+03   -0.15011E-03   -0.24976E-04 26256   0.444E-02    0.962E-02
DAV:   9    -0.288137782512E+03   -0.99749E-06   -0.64912E-05 19696   0.204E-02
  68 F= -.28813778E+03 E0= -.28812367E+03  d E =0.376538E-02  mag=    10.0000
       N       E                     dE             d eps       ncg     rms          rms(c)
DAV:   1    -0.288076309400E+03    0.61472E-01   -0.22079E+01 25056   0.141E+01    0.115E+00
DAV:   2    -0.288141106204E+03   -0.64797E-01   -0.66840E-01 27464   0.237E+00    0.315E+00
DAV:   3    -0.288130341650E+03    0.10765E-01   -0.21960E-01 33784   0.800E-01    0.200E+00
DAV:   4    -0.288135049691E+03   -0.47080E-02   -0.91697E-02 33216   0.513E-01    0.287E+00
DAV:   5    -0.288123807288E+03    0.11242E-01   -0.68163E-02 33496   0.385E-01    0.537E-01
DAV:   6    -0.288126838354E+03   -0.30311E-02   -0.61680E-03 28360   0.247E-01    0.571E-01
DAV:   7    -0.288126881947E+03   -0.43592E-04   -0.75728E-03 34368   0.166E-01    0.546E-01
DAV:   8    -0.288126836542E+03    0.45405E-04   -0.43597E-03 33280   0.142E-01    0.314E-01
DAV:   9    -0.288127507610E+03   -0.67107E-03   -0.28954E-03 31232   0.799E-02    0.366E-01
DAV:  10    -0.288127540687E+03   -0.33077E-04   -0.70899E-04 30800   0.737E-02    0.290E-01
DAV:  11    -0.288127489496E+03    0.51191E-04   -0.17127E-04 28600   0.384E-02    0.237E-01
DAV:  12    -0.288127498669E+03   -0.91731E-05   -0.15535E-04 29832   0.484E-02    0.184E-01
DAV:  13    -0.288127535346E+03   -0.36677E-04   -0.27000E-04 30088   0.525E-02    0.133E-01
DAV:  14    -0.288127539730E+03   -0.43846E-05   -0.65161E-05 19808   0.253E-02
  69 F= -.28812754E+03 E0= -.28811334E+03  d E =0.102428E-01  mag=    10.0000
       N       E                     dE             d eps       ncg     rms          rms(c)
DAV:   1    -0.288121938289E+03    0.55971E-02   -0.50108E+00 25056   0.692E+00    0.846E-01
DAV:   2    -0.288141698520E+03   -0.19760E-01   -0.20087E-01 27512   0.122E+00    0.252E+00
DAV:   3    -0.288134072407E+03    0.76261E-02   -0.10762E-01 33232   0.544E-01    0.126E+00
DAV:   4    -0.288135790236E+03   -0.17178E-02   -0.22685E-02 31768   0.313E-01    0.113E+00
DAV:   5    -0.288134091200E+03    0.16990E-02   -0.11811E-02 34040   0.197E-01    0.317E-01
DAV:   6    -0.288135732972E+03   -0.16418E-02   -0.12046E-02 34176   0.158E-01    0.108E+00
DAV:   7    -0.288133752662E+03    0.19803E-02   -0.50032E-03 33248   0.157E-01    0.349E-01
DAV:   8    -0.288134380219E+03   -0.62756E-03   -0.15732E-03 32088   0.718E-02    0.192E-01
DAV:   9    -0.288134628348E+03   -0.24813E-03   -0.36015E-04 25056   0.446E-02    0.205E-01
DAV:  10    -0.288134608840E+03    0.19508E-04   -0.14521E-04 26480   0.375E-02    0.154E-01
DAV:  11    -0.288134620498E+03   -0.11658E-04   -0.73210E-05 24008   0.385E-02    0.116E-01
DAV:  12    -0.288134642969E+03   -0.22471E-04   -0.89348E-05 25048   0.322E-02    0.108E-01
DAV:  13    -0.288134653597E+03   -0.10628E-04   -0.77330E-05 18808   0.223E-02    0.647E-02
DAV:  14    -0.288134665287E+03   -0.11690E-04   -0.24498E-05 17936   0.179E-02    0.487E-02
DAV:  15    -0.288134666953E+03   -0.16655E-05   -0.83905E-06 13656   0.947E-03
  70 F= -.28813467E+03 E0= -.28812046E+03  d E =-.712722E-02  mag=    10.0000
       N       E                     dE             d eps       ncg     rms          rms(c)
DAV:   1    -0.288128403344E+03    0.62619E-02   -0.41986E+00 25344   0.628E+00    0.616E-01
DAV:   2    -0.288142515654E+03   -0.14112E-01   -0.14927E-01 27704   0.108E+00    0.191E+00
DAV:   3    -0.288138431508E+03    0.40841E-02   -0.66768E-02 33952   0.415E-01    0.938E-01
DAV:   4    -0.288139720355E+03   -0.12888E-02   -0.15952E-02 33344   0.250E-01    0.108E+00
DAV:   5    -0.288138033920E+03    0.16864E-02   -0.11263E-02 33808   0.182E-01    0.322E-01
DAV:   6    -0.288138949727E+03   -0.91581E-03   -0.41989E-03 32688   0.112E-01    0.576E-01
DAV:   7    -0.288138223387E+03    0.72634E-03   -0.23584E-03 32808   0.116E-01    0.173E-01
DAV:   8    -0.288138440424E+03   -0.21704E-03   -0.72329E-04 31024   0.590E-02    0.110E-01
DAV:   9    -0.288138536045E+03   -0.95621E-04   -0.38127E-04 22864   0.346E-02    0.128E-01
DAV:  10    -0.288138546669E+03   -0.10624E-04   -0.20165E-04 25840   0.339E-02    0.103E-01
DAV:  11    -0.288138550754E+03   -0.40856E-05   -0.55632E-05 18720   0.198E-02
  71 F= -.28813855E+03 E0= -.28812436E+03  d E =-.388380E-02  mag=    10.0000
       N       E                     dE             d eps       ncg     rms          rms(c)
DAV:   1    -0.288136194165E+03    0.23525E-02   -0.81762E-01 25344   0.274E+00    0.375E-01
DAV:   2    -0.288140438481E+03   -0.42443E-02   -0.41376E-02 27760   0.524E-01    0.137E+00
DAV:   3    -0.288137574461E+03    0.28640E-02   -0.23337E-02 33200   0.265E-01    0.447E-01
DAV:   4    -0.288138670876E+03   -0.10964E-02   -0.47053E-03 31288   0.141E-01    0.667E-01
DAV:   5    -0.288137998966E+03    0.67191E-03   -0.27095E-03 33000   0.914E-02    0.179E-01
DAV:   6    -0.288138275532E+03   -0.27657E-03   -0.12576E-03 32792   0.688E-02    0.363E-01
DAV:   7    -0.288138043065E+03    0.23247E-03   -0.13285E-03 32896   0.680E-02    0.100E-01
DAV:   8    -0.288138215702E+03   -0.17264E-03   -0.65473E-04 25104   0.431E-02    0.114E-01
DAV:   9    -0.288138248609E+03   -0.32908E-04   -0.13271E-04 20712   0.285E-02    0.944E-02
DAV:  10    -0.288138244286E+03    0.43237E-05   -0.67506E-05 19888   0.220E-02
  72 F= -.28813824E+03 E0= -.28812406E+03  d E =0.306469E-03  mag=    10.0000
       N       E                     dE             d eps       ncg     rms          rms(c)
DAV:   1    -0.288137306926E+03    0.94168E-03   -0.28409E-01 25344   0.166E+00    0.165E-01
DAV:   2    -0.288138119745E+03   -0.81282E-03   -0.87218E-03 27040   0.281E-01    0.333E-01
DAV:   3    -0.288138091502E+03    0.28243E-04   -0.32446E-03 34448   0.101E-01    0.360E-01
DAV:   4    -0.288138009300E+03    0.82202E-04   -0.12131E-03 30416   0.687E-02    0.271E-01
DAV:   5    -0.288137926110E+03    0.83190E-04   -0.54393E-04 24056   0.455E-02    0.116E-01
DAV:   6    -0.288137961761E+03   -0.35651E-04   -0.10915E-04 23768   0.287E-02    0.101E-01
DAV:   7    -0.288137996275E+03   -0.34514E-04   -0.41404E-04 21368   0.302E-02    0.181E-01
DAV:   8    -0.288137971470E+03    0.24805E-04   -0.40232E-04 20408   0.315E-02    0.839E-02
DAV:   9    -0.288137982428E+03   -0.10957E-04   -0.46521E-05 18408   0.221E-02    0.718E-02
DAV:  10    -0.288137976617E+03    0.58102E-05   -0.54390E-05 20512   0.204E-02
  73 F= -.28813798E+03 E0= -.28812375E+03  d E =0.267668E-03  mag=    10.0000
       N       E                     dE             d eps       ncg     rms          rms(c)
DAV:   1    -0.288138332837E+03   -0.35041E-03   -0.44821E-02 25056   0.680E-01    0.109E-01
DAV:   2    -0.288138624183E+03   -0.29135E-03   -0.29537E-03 28312   0.134E-01    0.390E-01
DAV:   3    -0.288138422626E+03    0.20156E-03   -0.21144E-03 32776   0.708E-02    0.132E-01
DAV:   4    -0.288138474672E+03   -0.52046E-04   -0.15580E-04 22704   0.333E-02    0.870E-02
DAV:   5    -0.288138466346E+03    0.83263E-05   -0.35266E-05 16600   0.139E-02
  74 F= -.28813847E+03 E0= -.28812425E+03  d E =-.489728E-03  mag=    10.0000
       N       E                     dE             d eps       ncg     rms          rms(c)
DAV:   1    -0.288138613429E+03   -0.13876E-03   -0.43599E-03 25344   0.255E-01    0.942E-02
DAV:   2    -0.288138992679E+03   -0.37925E-03   -0.34410E-03 32504   0.956E-02    0.620E-01
DAV:   3    -0.288138334257E+03    0.65842E-03   -0.23424E-03 30280   0.828E-02    0.873E-02
DAV:   4    -0.288138578791E+03   -0.24453E-03   -0.66544E-05 20256   0.283E-02    0.737E-02
DAV:   5    -0.288138605390E+03   -0.26599E-04   -0.20738E-04 21256   0.263E-02    0.129E-01
DAV:   6    -0.288138624372E+03   -0.18982E-04   -0.58533E-04 21264   0.338E-02    0.181E-01
DAV:   7    -0.288138602646E+03    0.21726E-04   -0.35292E-04 20160   0.305E-02    0.868E-02
DAV:   8    -0.288138630871E+03   -0.28225E-04   -0.52010E-05 18256   0.223E-02    0.655E-02
DAV:   9    -0.288138629366E+03    0.15057E-05   -0.22147E-05 17328   0.152E-02
  75 F= -.28813863E+03 E0= -.28812444E+03  d E =-.163020E-03  mag=    10.0000
       N       E                     dE             d eps       ncg     rms          rms(c)
DAV:   1    -0.288138561211E+03    0.69661E-04   -0.83084E-02 25344   0.994E-01    0.817E-02
DAV:   2    -0.288138859936E+03   -0.29873E-03   -0.32248E-03 25736   0.175E-01    0.189E-01
DAV:   3    -0.288138823520E+03    0.36416E-04   -0.64696E-04 31760   0.476E-02    0.126E-01
DAV:   4    -0.288138823273E+03    0.24716E-06   -0.15724E-04 21840   0.298E-02    0.969E-02
DAV:   5    -0.288138811860E+03    0.11413E-04   -0.68074E-05 17744   0.193E-02    0.570E-02
DAV:   6    -0.288138811411E+03    0.44918E-06   -0.43708E-05 16184   0.149E-02
  76 F= -.28813881E+03 E0= -.28812460E+03  d E =-.182045E-03  mag=    10.0000
       N       E                     dE             d eps       ncg     rms          rms(c)
DAV:   1    -0.288135225881E+03    0.35860E-02   -0.12760E+00 25344   0.373E+00    0.269E-01
DAV:   2    -0.288139146915E+03   -0.39210E-02   -0.42456E-02 25960   0.634E-01    0.648E-01
DAV:   3    -0.288138840725E+03    0.30619E-03   -0.97094E-03 34696   0.176E-01    0.502E-01
DAV:   4    -0.288138634846E+03    0.20588E-03   -0.14572E-03 32984   0.103E-01    0.162E-01
DAV:   5    -0.288138831551E+03   -0.19671E-03   -0.17879E-03 34368   0.664E-02    0.398E-01
DAV:   6    -0.288138623290E+03    0.20826E-03   -0.18014E-03 32856   0.722E-02    0.225E-01
DAV:   7    -0.288138650234E+03   -0.26944E-04   -0.57610E-04 25952   0.423E-02    0.118E-01
DAV:   8    -0.288138679186E+03   -0.28951E-04   -0.30211E-05 17720   0.202E-02    0.112E-01
DAV:   9    -0.288138671521E+03    0.76648E-05   -0.58990E-06 13992   0.875E-03
  77 F= -.28813867E+03 E0= -.28812441E+03  d E =0.139890E-03  mag=    10.0000
       N       E                     dE             d eps       ncg     rms          rms(c)
DAV:   1    -0.288110321102E+03    0.28358E-01   -0.90687E+00 25344   0.103E+01    0.854E-01
DAV:   2    -0.288140310048E+03   -0.29989E-01   -0.32183E-01 25848   0.177E+00    0.184E+00
DAV:   3    -0.288138667397E+03    0.16427E-02   -0.96797E-02 34456   0.532E-01    0.169E+00
DAV:   4    -0.288136220523E+03    0.24469E-02   -0.22044E-02 34024   0.346E-01    0.104E+00
DAV:   5    -0.288135588349E+03    0.63217E-03   -0.14082E-02 34536   0.195E-01    0.553E-01
DAV:   6    -0.288136781120E+03   -0.11928E-02   -0.13421E-02 34200   0.185E-01    0.108E+00
DAV:   7    -0.288134497154E+03    0.22840E-02   -0.10186E-02 35208   0.212E-01    0.210E-01
DAV:   8    -0.288135825051E+03   -0.13279E-02   -0.40523E-03 28896   0.110E-01    0.314E-01
DAV:   9    -0.288136086116E+03   -0.26107E-03   -0.70048E-04 28032   0.625E-02    0.366E-01
DAV:  10    -0.288135949255E+03    0.13686E-03   -0.14816E-04 30128   0.462E-02    0.306E-01
DAV:  11    -0.288135920664E+03    0.28591E-04   -0.22306E-04 31176   0.660E-02    0.156E-01
DAV:  12    -0.288135964236E+03   -0.43572E-04   -0.33346E-04 32280   0.616E-02    0.125E-01
DAV:  13    -0.288135995399E+03   -0.31163E-04   -0.22051E-04 27632   0.336E-02    0.129E-01
DAV:  14    -0.288136000438E+03   -0.50383E-05   -0.67903E-05 21096   0.324E-02
  78 F= -.28813600E+03 E0= -.28812180E+03  d E =0.267108E-02  mag=    10.0000
       N       E                     dE             d eps       ncg     rms          rms(c)
DAV:   1    -0.288123777480E+03    0.12218E-01   -0.63147E+00 25344   0.808E+00    0.704E-01
DAV:   2    -0.288143986724E+03   -0.20209E-01   -0.21274E-01 26608   0.138E+00    0.184E+00
DAV:   3    -0.288140714995E+03    0.32717E-02   -0.67492E-02 34360   0.461E-01    0.125E+00
DAV:   4    -0.288140315422E+03    0.39957E-03   -0.13708E-02 33120   0.269E-01    0.767E-01
DAV:   5    -0.288139724018E+03    0.59140E-03   -0.54522E-03 34064   0.148E-01    0.347E-01
DAV:   6    -0.288139678512E+03    0.45506E-04   -0.13161E-03 29512   0.111E-01    0.345E-01
DAV:   7    -0.288139925225E+03   -0.24671E-03   -0.52885E-03 34552   0.977E-02    0.659E-01
DAV:   8    -0.288139340501E+03    0.58472E-03   -0.46679E-03 33056   0.116E-01    0.163E-01
DAV:   9    -0.288139847233E+03   -0.50673E-03   -0.12997E-03 29216   0.682E-02    0.220E-01
DAV:  10    -0.288139871208E+03   -0.23976E-04   -0.40358E-04 31160   0.626E-02    0.188E-01
DAV:  11    -0.288139856298E+03    0.14910E-04   -0.11842E-04 26032   0.327E-02    0.124E-01
DAV:  12    -0.288139863192E+03   -0.68943E-05   -0.36777E-05 21048   0.227E-02
  79 F= -.28813986E+03 E0= -.28812563E+03  d E =-.386275E-02  mag=    10.0000
       N       E                     dE             d eps       ncg     rms          rms(c)
DAV:   1    -0.288090387218E+03    0.49469E-01   -0.15654E+01 25344   0.135E+01    0.105E+00
DAV:   2    -0.288137773441E+03   -0.47386E-01   -0.51261E-01 25280   0.229E+00    0.110E+00
DAV:   3    -0.288147926132E+03   -0.10153E-01   -0.15179E-01 35056   0.655E-01    0.325E+00
DAV:   4    -0.288130991279E+03    0.16935E-01   -0.72043E-02 34560   0.506E-01    0.707E-01
DAV:   5    -0.288135758930E+03   -0.47677E-02   -0.12868E-02 33648   0.194E-01    0.835E-01
DAV:   6    -0.288134815284E+03    0.94365E-03   -0.73923E-03 32736   0.241E-01    0.413E-01
DAV:   7    -0.288136687127E+03   -0.18718E-02   -0.18442E-02 34616   0.206E-01    0.111E+00
DAV:   8    -0.288134804575E+03    0.18826E-02   -0.10064E-02 33768   0.183E-01    0.277E-01
DAV:   9    -0.288135685929E+03   -0.88135E-03   -0.13916E-03 28880   0.745E-02    0.330E-01
DAV:  10    -0.288135641859E+03    0.44070E-04   -0.20954E-04 28048   0.553E-02    0.278E-01
DAV:  11    -0.288135625199E+03    0.16660E-04   -0.36295E-04 31472   0.846E-02    0.206E-01
DAV:  12    -0.288135648569E+03   -0.23370E-04   -0.62242E-04 33496   0.586E-02    0.147E-01
DAV:  13    -0.288135699240E+03   -0.50671E-04   -0.15142E-04 23936   0.344E-02    0.131E-01
DAV:  14    -0.288135699066E+03    0.17373E-06   -0.25235E-05 16872   0.168E-02
  80 F= -.28813570E+03 E0= -.28812145E+03  d E =0.416413E-02  mag=    10.0000
       N       E                     dE             d eps       ncg     rms          rms(c)
DAV:   1    -0.288116113722E+03    0.19586E-01   -0.87266E+00 25344   0.995E+00    0.849E-01
DAV:   2    -0.288142865971E+03   -0.26752E-01   -0.28966E-01 25944   0.170E+00    0.137E+00
DAV:   3    -0.288143800347E+03   -0.93438E-03   -0.72921E-02 34864   0.516E-01    0.168E+00
DAV:   4    -0.288141182542E+03    0.26178E-02   -0.38338E-02 35144   0.359E-01    0.120E+00
DAV:   5    -0.288139674336E+03    0.15082E-02   -0.15760E-02 33904   0.214E-01    0.352E-01
DAV:   6    -0.288140236809E+03   -0.56247E-03   -0.66001E-03 32048   0.191E-01    0.731E-01
DAV:   7    -0.288139574094E+03    0.66271E-03   -0.73185E-03 34128   0.140E-01    0.433E-01
DAV:   8    -0.288140078077E+03   -0.50398E-03   -0.35809E-03 31160   0.108E-01    0.230E-01
DAV:   9    -0.288140360852E+03   -0.28278E-03   -0.67731E-04 27952   0.553E-02    0.249E-01
DAV:  10    -0.288140303974E+03    0.56879E-04   -0.12097E-04 25960   0.346E-02    0.219E-01
DAV:  11    -0.288140279638E+03    0.24336E-04   -0.11691E-04 22360   0.334E-02    0.159E-01
DAV:  12    -0.288140290701E+03   -0.11062E-04   -0.28636E-04 30744   0.535E-02    0.105E-01
DAV:  13    -0.288140297977E+03   -0.72761E-05   -0.11410E-04 25504   0.347E-02    0.115E-01
DAV:  14    -0.288140294336E+03    0.36407E-05   -0.36283E-05 19296   0.223E-02
  81 F= -.28814029E+03 E0= -.28812612E+03  d E =-.459527E-02  mag=    10.0000
       N       E                     dE             d eps       ncg     rms          rms(c)
DAV:   1    -0.288130496773E+03    0.98012E-02   -0.23512E+00 25344   0.505E+00    0.650E-01
DAV:   2    -0.288141915554E+03   -0.11419E-01   -0.11288E-01 27592   0.949E-01    0.209E+00
DAV:   3    -0.288136105025E+03    0.58105E-02   -0.60767E-02 33568   0.411E-01    0.859E-01
DAV:   4    -0.288139083614E+03   -0.29786E-02   -0.18757E-02 32584   0.273E-01    0.130E+00
DAV:   5    -0.288136289561E+03    0.27941E-02   -0.98837E-03 32600   0.201E-01    0.386E-01
DAV:   6    -0.288137225639E+03   -0.93608E-03   -0.16656E-03 28872   0.791E-02    0.462E-01
DAV:   7    -0.288137043979E+03    0.18166E-03   -0.11088E-03 28880   0.593E-02    0.308E-01
DAV:   8    -0.288136916303E+03    0.12768E-03   -0.10437E-03 31736   0.980E-02    0.236E-01
DAV:   9    -0.288137225464E+03   -0.30916E-03   -0.20625E-03 30560   0.726E-02    0.232E-01
DAV:  10    -0.288137322177E+03   -0.96714E-04   -0.54017E-04 30984   0.668E-02    0.184E-01
DAV:  11    -0.288137299490E+03    0.22687E-04   -0.10575E-04 28096   0.381E-02    0.136E-01
DAV:  12    -0.288137296573E+03    0.29170E-05   -0.12058E-04 26432   0.450E-02    0.900E-02
DAV:  13    -0.288137306119E+03   -0.95464E-05   -0.68035E-05 20408   0.223E-02
  82 F= -.28813731E+03 E0= -.28812314E+03  d E =0.298822E-02  mag=    10.0000
       N       E                     dE             d eps       ncg     rms          rms(c)
DAV:   1    -0.288136679058E+03    0.61752E-03   -0.13213E+00 25344   0.379E+00    0.483E-01
DAV:   2    -0.288142923372E+03   -0.62443E-02   -0.62506E-02 27600   0.712E-01    0.151E+00
DAV:   3    -0.288139889918E+03    0.30335E-02   -0.33905E-02 33904   0.317E-01    0.674E-01
DAV:   4    -0.288141811261E+03   -0.19213E-02   -0.14235E-02 32584   0.211E-01    0.105E+00
DAV:   5    -0.288139867996E+03    0.19433E-02   -0.72720E-03 32464   0.169E-01    0.280E-01
DAV:   6    -0.288140469674E+03   -0.60168E-03   -0.10926E-03 29768   0.668E-02    0.364E-01
DAV:   7    -0.288140349316E+03    0.12036E-03   -0.77877E-04 25160   0.474E-02    0.233E-01
DAV:   8    -0.288140298321E+03    0.50995E-04   -0.36186E-04 28200   0.563E-02    0.152E-01
DAV:   9    -0.288140416077E+03   -0.11776E-03   -0.10686E-03 28344   0.505E-02    0.161E-01
DAV:  10    -0.288140509708E+03   -0.93631E-04   -0.44347E-04 28496   0.507E-02    0.150E-01
DAV:  11    -0.288140503181E+03    0.65274E-05   -0.71839E-05 23360   0.313E-02
  83 F= -.28814050E+03 E0= -.28812625E+03  d E =-.319706E-02  mag=    10.0000
       N       E                     dE             d eps       ncg     rms          rms(c)
DAV:   1    -0.288140411259E+03    0.98449E-04   -0.51785E-03 26128   0.230E-01    0.947E-02
DAV:   2    -0.288140616230E+03   -0.20497E-03   -0.18619E-03 34192   0.875E-02    0.399E-01
DAV:   3    -0.288140323835E+03    0.29239E-03   -0.10733E-03 29856   0.656E-02    0.107E-01
DAV:   4    -0.288140403929E+03   -0.80093E-04   -0.77201E-05 18728   0.200E-02    0.973E-02
DAV:   5    -0.288140409352E+03   -0.54234E-05   -0.22299E-05 15312   0.149E-02
  84 F= -.28814041E+03 E0= -.28812624E+03  d E =0.938290E-04  mag=    10.0000
       N       E                     dE             d eps       ncg     rms          rms(c)
DAV:   1    -0.288140410959E+03   -0.70301E-05   -0.72171E-03 25752   0.272E-01    0.204E-01
DAV:   2    -0.288145721053E+03   -0.53101E-02   -0.52770E-02 34256   0.271E-01    0.227E+00
DAV:   3    -0.288137674027E+03    0.80470E-02   -0.35253E-02 32048   0.275E-01    0.348E-01
DAV:   4    -0.288140032517E+03   -0.23585E-02   -0.98906E-04 25840   0.722E-02    0.674E-02
DAV:   5    -0.288140382040E+03   -0.34952E-03   -0.16042E-04 22744   0.387E-02    0.630E-02
DAV:   6    -0.288140415556E+03   -0.33516E-04   -0.81354E-05 19368   0.196E-02    0.837E-02
DAV:   7    -0.288140412261E+03    0.32957E-05   -0.45239E-05 15280   0.167E-02
  85 F= -.28814041E+03 E0= -.28812621E+03  d E =-.290875E-05  mag=    10.0000
