       N       E                     dE             d eps       ncg     rms          ort
DAV:   1     0.113755321836E+05    0.11376E+05   -0.60598E+05   700   0.161E+03
DAV:   2    -0.753734761278E+03   -0.12129E+05   -0.11687E+05   700   0.456E+02
DAV:   3    -0.208388236264E+04   -0.13301E+04   -0.12990E+04   700   0.161E+02
DAV:   4    -0.216499046178E+04   -0.81108E+02   -0.78225E+02   700   0.410E+01
DAV:   5    -0.217328255491E+04   -0.82921E+01   -0.80315E+01   700   0.788E+00
SDA:   6    -0.124215855857E+04    0.93112E+03   -0.80315E+01   700   0.456E+04 0.000E+00
CGA:   7    -0.164487651770E+04   -0.40272E+03   -0.51208E+03   700   0.802E+03-0.293E+03
CGA:   8    -0.168183354477E+04   -0.36957E+02   -0.32523E+02   700   0.517E+03 0.303E+03
CGA:   9    -0.169216764834E+04   -0.10334E+02   -0.55677E+02   700   0.905E+03-0.285E+03
CGA:  10    -0.171676368310E+04   -0.24596E+02   -0.25962E+02   700   0.281E+03 0.802E+01
CGA:  11    -0.171993375096E+04   -0.31701E+01   -0.18677E+02   700   0.480E+03 0.421E+02
CGA:  12    -0.171323220230E+04    0.67015E+01   -0.32449E+02   700   0.368E+03-0.747E+02
CGA:  13    -0.173066101877E+04   -0.17429E+02   -0.78238E+01   700   0.193E+03 0.258E+02
CGA:  14    -0.172861681555E+04    0.20442E+01   -0.13264E+02   700   0.235E+03-0.360E+02
CGA:  15    -0.173376346616E+04   -0.51467E+01   -0.90936E+01   700   0.152E+03-0.435E+02
CGA:  16    -0.173130998764E+04    0.24535E+01   -0.64192E+01   700   0.418E+03-0.171E+03
CGA:  17    -0.173100744832E+04    0.30254E+00   -0.26736E+02   700   0.480E+03-0.146E+03
CGA:  18    -0.172573693521E+04    0.52705E+01   -0.18776E+02   700   0.123E+03-0.377E+02
CGA:  19    -0.173034560918E+04   -0.46087E+01   -0.66230E+01   700   0.282E+03-0.129E+03
CGA:  20    -0.172445420247E+04    0.58914E+01   -0.14952E+02   700   0.411E+03-0.123E+03
CGA:  21    -0.173741558145E+04   -0.12961E+02   -0.11674E+02   700   0.811E+02 0.401E+02
CGA:  22    -0.173809594320E+04   -0.68036E+00   -0.57018E+01   700   0.259E+03 0.203E+02
CGA:  23    -0.171691455376E+04    0.21181E+02   -0.13203E+02   700   0.111E+03-0.756E+02
CGA:  24    -0.171762401835E+04   -0.70946E+00   -0.29185E+00   700   0.122E+03 0.882E+02
CGA:  25    -0.172360368413E+04   -0.59797E+01   -0.87966E+00   700   0.984E+03 0.117E+04
CGA:  26    -0.172696963297E+04   -0.33659E+01   -0.44606E+02   700   0.856E+02-0.394E+02
CGA:  27    -0.173457790486E+04   -0.76083E+01   -0.44821E+01   700   0.620E+02-0.677E+02
CGA:  28    -0.174092388087E+04   -0.63460E+01   -0.16808E+01   700   0.494E+02 0.241E+01
CGA:  29    -0.173676252463E+04    0.41614E+01   -0.90681E+00   700   0.311E+03-0.275E+03
CGA:  30    -0.173196692010E+04    0.47956E+01   -0.11433E+02   700   0.537E+03-0.107E+03
CGA:  31    -0.173851536734E+04   -0.65484E+01   -0.17306E+02   700   0.340E+02-0.219E+02
CGA:  32    -0.173940217481E+04   -0.88681E+00   -0.35483E+00   700   0.404E+02 0.481E+02
CGA:  33    -0.174033200614E+04   -0.92983E+00   -0.44017E+00   700   0.359E+02 0.462E+02
CGA:  34    -0.174127938751E+04   -0.94738E+00   -0.31742E+00   700   0.657E+02 0.825E+02
CGA:  35    -0.174286149975E+04   -0.15821E+01   -0.82426E+00   700   0.351E+01 0.109E+02
CGA:  36    -0.174295709804E+04   -0.95598E-01   -0.81335E-01   700   0.701E+01 0.807E+00
CGA:  37    -0.174301059818E+04   -0.53500E-01   -0.27444E-01   700   0.674E+01 0.834E+01
CGA:  38    -0.174307415480E+04   -0.63557E-01   -0.13237E+00   700   0.642E+01-0.289E+01
CGA:  39    -0.174314963461E+04   -0.75480E-01   -0.42785E-01   700   0.495E+01 0.275E+01
CGA:  40    -0.174324035258E+04   -0.90718E-01   -0.77956E-01   700   0.151E+01 0.105E+01
CGA:  41    -0.174338479944E+04   -0.14445E+00   -0.17870E+00   700   0.110E+02-0.103E+01
CGA:  42    -0.174353078190E+04   -0.14598E+00   -0.19774E+00   700   0.363E+01-0.278E+01
CGA:  43    -0.174359935392E+04   -0.68572E-01   -0.69192E-01   700   0.101E+01-0.306E-01
CGA:  44    -0.174365648171E+04   -0.57128E-01   -0.57191E-01   700   0.186E+01 0.264E-01
CGA:  45    -0.174377728026E+04   -0.12080E+00   -0.12585E+00   700   0.456E+01-0.358E+00
CGA:  46    -0.174390447748E+04   -0.12720E+00   -0.97333E-01   700   0.442E+01 0.952E+00
CGA:  47    -0.174397371236E+04   -0.69235E-01   -0.66725E-01   700   0.963E+00 0.427E-01
CGA:  48    -0.174398861612E+04   -0.14904E-01   -0.16473E-01   700   0.576E+00-0.101E+00
CGA:  49    -0.174400405825E+04   -0.15442E-01   -0.15626E-01   700   0.792E+00-0.945E-02
CGA:  50    -0.174403249586E+04   -0.28438E-01   -0.28808E-01   700   0.140E+01 0.886E-02
CGA:  51    -0.174408169724E+04   -0.49201E-01   -0.48150E-01   700   0.140E+01 0.261E-01
CGA:  52    -0.174410732407E+04   -0.25627E-01   -0.24093E-01   700   0.555E+00 0.749E-01
CGA:  53    -0.174411806617E+04   -0.10742E-01   -0.11250E-01   700   0.315E+00-0.285E-01
CGA:  54    -0.174412776990E+04   -0.97037E-02   -0.99589E-02   700   0.377E+00-0.674E-03
CGA:  55    -0.174413933262E+04   -0.11563E-01   -0.11555E-01   700   0.345E+00 0.229E-02
CGA:  56    -0.174415251649E+04   -0.13184E-01   -0.13260E-01   700   0.374E+00 0.264E-02
CGA:  57    -0.174416339015E+04   -0.10874E-01   -0.10959E-01   700   0.197E+00-0.715E-02
CGA:  58    -0.174417019351E+04   -0.68034E-02   -0.68112E-02   700   0.173E+00-0.377E-02
CGA:  59    -0.174417591571E+04   -0.57222E-02   -0.57869E-02   700   0.954E-01 0.309E-02
CGA:  60    -0.174417931533E+04   -0.33996E-02   -0.34150E-02   700   0.782E-01 0.684E-03
CGA:  61    -0.174418328447E+04   -0.39691E-02   -0.39721E-02   700   0.761E-01-0.185E-02
CGA:  62    -0.174418693250E+04   -0.36480E-02   -0.36530E-02   700   0.766E-01-0.249E-03
CGA:  63    -0.174418965697E+04   -0.27245E-02   -0.27414E-02   700   0.467E-01 0.401E-02
CGA:  64    -0.174419176797E+04   -0.21110E-02   -0.21112E-02   700   0.435E-01 0.786E-03
CGA:  65    -0.174419391672E+04   -0.21487E-02   -0.21630E-02   700   0.427E-01-0.305E-02
CGA:  66    -0.174419602988E+04   -0.21132E-02   -0.21316E-02   700   0.418E-01-0.843E-03
CGA:  67    -0.174419734971E+04   -0.13198E-02   -0.13380E-02   700   0.224E-01 0.188E-02
CGA:  68    -0.174419857464E+04   -0.12249E-02   -0.12288E-02   700   0.326E-01-0.718E-03
CGA:  69    -0.174420013081E+04   -0.15562E-02   -0.15602E-02   700   0.239E-01-0.781E-03
CGA:  70    -0.174420099479E+04   -0.86397E-03   -0.87359E-03   700   0.157E-01 0.187E-02
CGA:  71    -0.174420158184E+04   -0.58706E-03   -0.59719E-03   700   0.777E-02 0.107E-02
SDA:  72    -0.174420206862E+04   -0.48678E-03   -0.49888E-03   700   0.152E-01-0.768E-03
CGA:  73    -0.174420243548E+04   -0.36686E-03   -0.38477E-03   700   0.268E-02 0.883E-03
CGA:  74    -0.174420236729E+04    0.68187E-04   -0.15011E-03   700   0.382E-01-0.352E-02
CGA:  75    -0.174420344325E+04   -0.10760E-02   -0.11452E-02   700   0.257E-02 0.854E-03
CGA:  76    -0.174420360481E+04   -0.16155E-03   -0.14318E-03   700   0.317E-02-0.852E-03
CGA:  77    -0.174420384567E+04   -0.24086E-03   -0.25274E-03   700   0.520E-02-0.248E-03
CGA:  78    -0.174420415792E+04   -0.31225E-03   -0.30881E-03   700   0.378E-02-0.314E-03
CGA:  79    -0.174420443666E+04   -0.27874E-03   -0.28414E-03   700   0.801E-02-0.169E-02
CGA:  80    -0.174420471632E+04   -0.27966E-03   -0.26885E-03   700   0.746E-02-0.543E-03
CGA:  81    -0.174420488887E+04   -0.17254E-03   -0.18355E-03   700   0.218E-02 0.306E-03
CGA:  82    -0.174420498846E+04   -0.99597E-04   -0.86365E-04   700   0.970E-03-0.398E-03
CGA:  83    -0.174420504469E+04   -0.56223E-04   -0.54431E-04   700   0.203E-02-0.552E-03
CGA:  84    -0.174420507870E+04   -0.34014E-04   -0.50828E-04   700   0.321E-03 0.359E-03
CGA:  85    -0.174420510400E+04   -0.25300E-04   -0.25189E-04   700   0.392E-03-0.425E-04
CGA:  86    -0.174420515830E+04   -0.54296E-04    0.77531E-04   700   0.681E-03 0.101E-03
CGA:  87    -0.174420520419E+04   -0.45889E-04   -0.16121E-03   700   0.282E-02-0.946E-03
CGA:  88    -0.174420530762E+04   -0.10343E-03   -0.10569E-03   700   0.423E-03 0.565E-04
CGA:  89    -0.174420531711E+04   -0.94946E-05   -0.14954E-04   700   0.199E-03 0.140E-03
CGA:  90    -0.174420534539E+04   -0.28272E-04   -0.29661E-04   700   0.259E-03-0.333E-04
CGA:  91    -0.174420535023E+04   -0.48482E-05   -0.64603E-05   700   0.134E-03 0.362E-04
   1 F= -.17442054E+04 E0= -.17441818E+04  d E =-.174421E+04  mag=    46.0000
       N       E                     dE             d eps       ncg     rms          ort
SDA:   1    -0.174416442898E+04    0.40916E-01    0.00000E+00   700   0.147E+00 0.000E+00
CGA:   2    -0.174417338941E+04   -0.89604E-02   -0.89978E-02   700   0.204E+00 0.642E-02
CGA:   3    -0.174419317094E+04   -0.19782E-01   -0.19811E-01   700   0.915E-01-0.158E-02
CGA:   4    -0.174419819535E+04   -0.50244E-02   -0.50767E-02   700   0.452E-01 0.218E-02
CGA:   5    -0.174420125369E+04   -0.30583E-02   -0.30489E-02   700   0.441E-01-0.309E-02
CGA:   6    -0.174420367451E+04   -0.24208E-02   -0.24149E-02   700   0.654E-02-0.551E-03
CGA:   7    -0.174420425610E+04   -0.58159E-03   -0.69022E-03   700   0.129E-01-0.284E-02
CGA:   8    -0.174420450753E+04   -0.25143E-03   -0.25937E-03   700   0.756E-02 0.194E-03
CGA:   9    -0.174420470152E+04   -0.19399E-03   -0.22120E-03   700   0.293E-02 0.804E-03
CGA:  10    -0.174420480422E+04   -0.10270E-03   -0.97995E-04   700   0.103E-02-0.118E-03
CGA:  11    -0.174420489055E+04   -0.86327E-04   -0.96439E-04   700   0.311E-02-0.314E-03
CGA:  12    -0.174420492313E+04   -0.32579E-04   -0.49615E-04   700   0.197E-02 0.394E-03
CGA:  13    -0.174420493639E+04   -0.13268E-04   -0.35766E-04   700   0.721E-03 0.454E-03
CGA:  14    -0.174420494608E+04   -0.96909E-05   -0.18516E-04   700   0.490E-03 0.218E-03
CGA:  15    -0.174420496855E+04   -0.22469E-04   -0.20869E-04   700   0.431E-03-0.545E-04
CGA:  16    -0.174420499094E+04   -0.22382E-04   -0.24407E-04   700   0.137E-02-0.384E-03
CGA:  17    -0.174420501059E+04   -0.19650E-04   -0.30931E-04   700   0.216E-03 0.309E-03
CGA:  18    -0.174420502374E+04   -0.13153E-04   -0.12834E-04   700   0.122E-03-0.371E-04
CGA:  19    -0.174420503982E+04   -0.16085E-04    0.69013E-05   700   0.186E-03-0.166E-04
CGA:  20    -0.174420504982E+04   -0.99993E-05   -0.98950E-05   700   0.124E-03 0.207E-04
   2 F= -.17442050E+04 E0= -.17441819E+04  d E =0.300409E-03  mag=    46.0000
       N       E                     dE             d eps       ncg     rms          ort
SDA:   1    -0.174419322004E+04    0.11820E-01    0.00000E+00   700   0.546E-01 0.000E+00
CGA:   2    -0.174419627028E+04   -0.30502E-02   -0.30521E-02   700   0.619E-01-0.258E-02
CGA:   3    -0.174420089593E+04   -0.46257E-02   -0.45305E-02   700   0.473E-01 0.429E-02
CGA:   4    -0.174420385281E+04   -0.29569E-02   -0.29677E-02   700   0.157E-01-0.433E-02
CGA:   5    -0.174420488663E+04   -0.10338E-02   -0.10182E-02   700   0.103E-01 0.102E-02
CGA:   6    -0.174420531855E+04   -0.43191E-03   -0.45972E-03   700   0.374E-02 0.182E-02
CGA:   7    -0.174420560516E+04   -0.28661E-03   -0.29017E-03   700   0.267E-02-0.371E-03
CGA:   8    -0.174420568953E+04   -0.84367E-04   -0.98409E-04   700   0.984E-03 0.891E-03
CGA:   9    -0.174420572949E+04   -0.39959E-04   -0.46639E-04   700   0.369E-03 0.328E-03
CGA:  10    -0.174420576486E+04   -0.35376E-04   -0.67456E-04   700   0.213E-02-0.389E-03
CGA:  11    -0.174420579021E+04   -0.25346E-04   -0.43665E-04   700   0.261E-03 0.482E-03
CGA:  12    -0.174420580061E+04   -0.10405E-04   -0.10915E-04   700   0.116E-03 0.230E-04
CGA:  13    -0.174420582402E+04   -0.23405E-04    0.54296E-05   700   0.169E-03-0.393E-04
CGA:  14    -0.174420583672E+04   -0.12702E-04    0.26155E-03   700   0.242E-03 0.136E-04
CGA:  15    -0.174420583862E+04   -0.18988E-05   -0.56363E-05   700   0.102E-03 0.109E-03
   3 F= -.17442058E+04 E0= -.17441826E+04  d E =-.488386E-03  mag=    46.0000
       N       E                     dE             d eps       ncg     rms          ort
SDA:   1    -0.173217533581E+04    0.12031E+02    0.00000E+00   700   0.367E+03 0.000E+00
CGA:   2    -0.174248107072E+04   -0.10306E+02   -0.12570E+02   700   0.325E+02-0.326E+02
CGA:   3    -0.174339317912E+04   -0.91211E+00   -0.97451E+00   700   0.170E+02-0.231E+01
CGA:   4    -0.174373051851E+04   -0.33734E+00   -0.17196E+00   700   0.123E+02 0.158E+02
CGA:   5    -0.174415650911E+04   -0.42599E+00   -0.32422E+00   700   0.904E+00 0.145E+01
CGA:   6    -0.174417738974E+04   -0.20881E-01   -0.19234E-01   700   0.180E+00 0.835E-01
CGA:   7    -0.174418443106E+04   -0.70413E-02   -0.70455E-02   700   0.149E+00 0.417E-03
CGA:   8    -0.174419184311E+04   -0.74120E-02   -0.74261E-02   700   0.192E+00-0.638E-02
CGA:   9    -0.174419961377E+04   -0.77707E-02   -0.77684E-02   700   0.101E+00-0.126E-02
CGA:  10    -0.174420157332E+04   -0.19595E-02   -0.20925E-02   700   0.235E-01 0.644E-02
CGA:  11    -0.174420231240E+04   -0.73908E-03   -0.77096E-03   700   0.199E-01 0.239E-02
CGA:  12    -0.174420353394E+04   -0.12215E-02   -0.12448E-02   700   0.285E-01-0.181E-02
CGA:  13    -0.174420440452E+04   -0.87059E-03   -0.85535E-03   700   0.177E-01-0.117E-02
CGA:  14    -0.174420474345E+04   -0.33893E-03   -0.37419E-03   700   0.699E-02 0.168E-02
CGA:  15    -0.174420488668E+04   -0.14322E-03   -0.16919E-03   700   0.413E-02 0.127E-02
CGA:  16    -0.174420508703E+04   -0.20036E-03   -0.20016E-03   700   0.527E-02-0.272E-03
CGA:  17    -0.174420530775E+04   -0.22072E-03   -0.24258E-03   700   0.625E-02-0.294E-02
CGA:  18    -0.174420545567E+04   -0.14792E-03   -0.16489E-03   700   0.118E-02 0.111E-02
CGA:  19    -0.174420554056E+04   -0.84886E-04   -0.82759E-04   700   0.809E-03 0.127E-03
CGA:  20    -0.174420559644E+04   -0.55887E-04   -0.58327E-04   700   0.827E-03-0.100E-03
CGA:  21    -0.174420561458E+04   -0.18141E-04   -0.21259E-04   700   0.419E-03 0.225E-03
CGA:  22    -0.174420563069E+04   -0.16105E-04   -0.17338E-04   700   0.384E-03 0.122E-03
CGA:  23    -0.174420548174E+04    0.14895E-03   -0.87928E-04   700   0.496E-02-0.123E-02
CGA:  24    -0.174420565633E+04   -0.17459E-03   -0.18467E-03   700   0.132E-02 0.153E-03
CGA:  25    -0.174420571079E+04   -0.54461E-04   -0.60998E-04   700   0.409E-03 0.238E-03
CGA:  26    -0.174420573470E+04   -0.23912E-04   -0.25868E-04   700   0.113E-03 0.103E-03
CGA:  27    -0.174420573327E+04    0.14341E-05   -0.26147E-04   700   0.144E-02-0.245E-03
CGA:  28    -0.174420575179E+04   -0.18527E-04   -0.31610E-04   700   0.124E-03 0.247E-03
CGA:  29    -0.174420575604E+04   -0.42479E-05   -0.51245E-05   700   0.538E-04 0.228E-04
   4 F= -.17442058E+04 E0= -.17441824E+04  d E =-.405809E-03  mag=    46.0000
