       N       E                     dE             d eps       ncg     rms          ort
DAV:   1     0.243472754707E+04    0.24347E+04   -0.14150E+05  7056   0.152E+03
DAV:   2    -0.217358868304E+03   -0.26521E+04   -0.25557E+04  7056   0.411E+02
DAV:   3    -0.453797162663E+03   -0.23644E+03   -0.22996E+03  7056   0.141E+02
DAV:   4    -0.464518610871E+03   -0.10721E+02   -0.10406E+02  7056   0.317E+01
DAV:   5    -0.465098482478E+03   -0.57987E+00   -0.57316E+00  7056   0.485E+00
SDA:   6    -0.298602180674E+03    0.16650E+03   -0.57316E+00  7056   0.566E+03 0.000E+00
CGA:   7    -0.349506910993E+03   -0.50905E+02   -0.69774E+02  7056   0.534E+02 0.295E+02
CGA:   8    -0.360659917978E+03   -0.11153E+02   -0.11152E+02  7056   0.122E+02 0.146E+00
CGA:   9    -0.363879191317E+03   -0.32193E+01   -0.32155E+01  7056   0.392E+01 0.398E-01
CGA:  10    -0.364903176332E+03   -0.10240E+01   -0.10239E+01  7056   0.136E+01-0.804E-02
CGA:  11    -0.365265378076E+03   -0.36220E+00   -0.36350E+00  7056   0.440E+00-0.198E-01
CGA:  12    -0.365389739216E+03   -0.12436E+00   -0.12490E+00  7056   0.131E+00-0.654E-02
CGA:  13    -0.365425824856E+03   -0.36086E-01   -0.36090E-01  7056   0.384E-01-0.603E-04
CGA:  14    -0.365438806725E+03   -0.12982E-01   -0.12951E-01  7056   0.131E-01 0.262E-03
CGA:  15    -0.365443462043E+03   -0.46553E-02   -0.45939E-02  7056   0.499E-02 0.477E-03
CGA:  16    -0.365445361412E+03   -0.18994E-02   -0.18476E-02  7056   0.178E-02 0.392E-03
CGA:  17    -0.365446155908E+03   -0.79450E-03   -0.80302E-03  7056   0.866E-03-0.474E-04
CGA:  18    -0.365446502541E+03   -0.34663E-03   -0.45707E-03  7056   0.765E-03-0.368E-03
CGA:  19    -0.365446634926E+03   -0.13238E-03   -0.14238E-03  7056   0.368E-03-0.150E-03
CGA:  20    -0.365446699943E+03   -0.65018E-04   -0.66943E-04  7056   0.153E-03 0.568E-04
CGA:  21    -0.365446724999E+03   -0.25056E-04   -0.30738E-04  7056   0.781E-04 0.674E-04
CGA:  22    -0.365446739876E+03   -0.14877E-04   -0.19304E-04  7056   0.463E-04 0.534E-04
CGA:  23    -0.365446758956E+03   -0.19080E-04   -0.18406E-04  7056   0.346E-04 0.461E-05
CGA:  24    -0.365446764172E+03   -0.52158E-05   -0.68067E-05  7056   0.123E-04 0.202E-04
   1 F= -.36544676E+03 E0= -.36544676E+03  d E =-.365447E+03  mag=    12.0000
       N       E                     dE             d eps       ncg     rms          ort
SDA:   1    -0.365474693288E+03   -0.27934E-01    0.00000E+00  7056   0.807E-02 0.000E+00
CGA:   2    -0.365476586483E+03   -0.18932E-02   -0.18961E-02  7056   0.204E-02 0.195E-03
CGA:   3    -0.365477141148E+03   -0.55466E-03   -0.55467E-03  7056   0.546E-03-0.569E-06
CGA:   4    -0.365477252581E+03   -0.11143E-03   -0.11152E-03  7056   0.125E-03 0.146E-05
CGA:   5    -0.365477281146E+03   -0.28565E-04   -0.28582E-04  7056   0.345E-04 0.850E-06
CGA:   6    -0.365477292274E+03   -0.11128E-04   -0.18473E-04  7056   0.619E-04-0.257E-04
CGA:   7    -0.365477300902E+03   -0.86287E-05   -0.93626E-05  7056   0.761E-05 0.667E-05
   2 F= -.36547730E+03 E0= -.36547730E+03  d E =-.305367E-01  mag=    12.0000
       N       E                     dE             d eps       ncg     rms          ort
SDA:   1    -0.362330628804E+03    0.31467E+01    0.00000E+00  7056   0.124E+02 0.000E+00
CGA:   2    -0.365325303705E+03   -0.29947E+01   -0.29947E+01  7056   0.324E+01-0.795E-02
CGA:   3    -0.366163766796E+03   -0.83846E+00   -0.83855E+00  7056   0.828E+00-0.877E-02
CGA:   4    -0.366334150750E+03   -0.17038E+00   -0.17036E+00  7056   0.190E+00-0.690E-03
CGA:   5    -0.366377605338E+03   -0.43455E-01   -0.43461E-01  7056   0.528E-01 0.243E-03
CGA:   6    -0.366393765855E+03   -0.16161E-01   -0.16188E-01  7056   0.245E-01-0.476E-03
CGA:   7    -0.366401490224E+03   -0.77244E-02   -0.77504E-02  7056   0.111E-01-0.368E-03
CGA:   8    -0.366404918225E+03   -0.34280E-02   -0.34128E-02  7056   0.380E-02 0.260E-03
CGA:   9    -0.366406161783E+03   -0.12436E-02   -0.12281E-02  7056   0.126E-02 0.257E-03
CGA:  10    -0.366406628433E+03   -0.46665E-03   -0.46052E-03  7056   0.493E-03 0.715E-04
CGA:  11    -0.366406831312E+03   -0.20288E-03   -0.19764E-03  7056   0.207E-03 0.448E-04
CGA:  12    -0.366406912200E+03   -0.80889E-04   -0.78470E-04  7056   0.689E-04 0.309E-04
CGA:  13    -0.366406932322E+03   -0.20122E-04   -0.20497E-04  7056   0.214E-04 0.275E-04
CGA:  14    -0.366406937159E+03   -0.48372E-05   -0.59067E-05  7056   0.895E-05 0.144E-04
   3 F= -.36640694E+03 E0= -.36640694E+03  d E =-.929636E+00  mag=    12.0000
       N       E                     dE             d eps       ncg     rms          ort
SDA:   1    -0.355061917410E+03    0.11345E+02    0.00000E+00  7056   0.384E+02 0.000E+00
CGA:   2    -0.363944732838E+03   -0.88828E+01   -0.88905E+01  7056   0.960E+01 0.276E-01
CGA:   3    -0.366419428718E+03   -0.24747E+01   -0.24744E+01  7056   0.256E+01-0.369E-01
CGA:   4    -0.366940609981E+03   -0.52118E+00   -0.52113E+00  7056   0.586E+00-0.276E-02
CGA:   5    -0.367074749058E+03   -0.13414E+00   -0.13421E+00  7056   0.168E+00 0.240E-02
CGA:   6    -0.367125637188E+03   -0.50888E-01   -0.50856E-01  7056   0.796E-01 0.786E-03
CGA:   7    -0.367151452949E+03   -0.25816E-01   -0.25882E-01  7056   0.375E-01-0.105E-02
CGA:   8    -0.367163039110E+03   -0.11586E-01   -0.11599E-01  7056   0.131E-01-0.254E-03
CGA:   9    -0.367167153120E+03   -0.41140E-02   -0.41005E-02  7056   0.422E-02 0.291E-03
CGA:  10    -0.367168613122E+03   -0.14600E-02   -0.14493E-02  7056   0.154E-02 0.163E-03
CGA:  11    -0.367169248434E+03   -0.63531E-03   -0.62571E-03  7056   0.661E-03 0.815E-04
CGA:  12    -0.367169534103E+03   -0.28567E-03   -0.29023E-03  7056   0.272E-03-0.330E-04
CGA:  13    -0.367169621936E+03   -0.87833E-04   -0.86960E-04  7056   0.737E-04 0.171E-04
CGA:  14    -0.367169649067E+03   -0.27132E-04   -0.26787E-04  7056   0.226E-04 0.644E-05
CGA:  15    -0.367169654529E+03   -0.54621E-05   -0.59597E-05  7056   0.813E-05 0.102E-04
   4 F= -.36716965E+03 E0= -.36716965E+03  d E =-.762717E+00  mag=    12.0000
       N       E                     dE             d eps       ncg     rms          ort
SDA:   1    -0.363580899450E+03    0.35887E+01    0.00000E+00  7056   0.117E+02 0.000E+00
CGA:   2    -0.366279645226E+03   -0.26987E+01   -0.27000E+01  7056   0.327E+01-0.198E-03
CGA:   3    -0.367098562596E+03   -0.81892E+00   -0.81878E+00  7056   0.870E+00-0.332E-02
CGA:   4    -0.367269092066E+03   -0.17053E+00   -0.17060E+00  7056   0.179E+00 0.314E-04
CGA:   5    -0.367310666336E+03   -0.41574E-01   -0.41580E-01  7056   0.497E-01 0.161E-03
CGA:   6    -0.367325538588E+03   -0.14872E-01   -0.14863E-01  7056   0.235E-01 0.426E-03
CGA:   7    -0.367333468143E+03   -0.79296E-02   -0.79215E-02  7056   0.119E-01 0.139E-03
CGA:   8    -0.367337428083E+03   -0.39599E-02   -0.39587E-02  7056   0.455E-02 0.247E-04
CGA:   9    -0.367338882885E+03   -0.14548E-02   -0.14544E-02  7056   0.143E-02 0.124E-04
CGA:  10    -0.367339355372E+03   -0.47249E-03   -0.47294E-03  7056   0.486E-03-0.900E-05
CGA:  11    -0.367339542616E+03   -0.18724E-03   -0.18734E-03  7056   0.197E-03-0.818E-06
CGA:  12    -0.367339626768E+03   -0.84152E-04   -0.89029E-04  7056   0.880E-04-0.303E-04
CGA:  13    -0.367339649521E+03   -0.22753E-04   -0.22710E-04  7056   0.226E-04 0.741E-05
CGA:  14    -0.367339657167E+03   -0.76459E-05   -0.76291E-05  7056   0.692E-05 0.147E-05
   5 F= -.36733966E+03 E0= -.36733966E+03  d E =-.170003E+00  mag=    12.0000
       N       E                     dE             d eps       ncg     rms          ort
SDA:   1    -0.359797983050E+03    0.75417E+01    0.00000E+00  7056   0.208E+02 0.000E+00
CGA:   2    -0.365277728510E+03   -0.54797E+01   -0.54807E+01  7056   0.770E+01-0.361E-02
CGA:   3    -0.366957792965E+03   -0.16801E+01   -0.16804E+01  7056   0.175E+01 0.324E-03
CGA:   4    -0.367291686798E+03   -0.33389E+00   -0.33414E+00  7056   0.320E+00 0.930E-03
CGA:   5    -0.367367587521E+03   -0.75901E-01   -0.75881E-01  7056   0.857E-01-0.556E-03
CGA:   6    -0.367391085108E+03   -0.23498E-01   -0.23499E-01  7056   0.342E-01 0.891E-04
CGA:   7    -0.367402062793E+03   -0.10978E-01   -0.10969E-01  7056   0.165E-01 0.236E-03
CGA:   8    -0.367407849525E+03   -0.57867E-02   -0.57944E-02  7056   0.705E-02-0.122E-03
CGA:   9    -0.367410164921E+03   -0.23154E-02   -0.23239E-02  7056   0.240E-02-0.196E-03
CGA:  10    -0.367410938599E+03   -0.77368E-03   -0.77597E-03  7056   0.822E-03-0.560E-04
CGA:  11    -0.367411250507E+03   -0.31191E-03   -0.31473E-03  7056   0.359E-03-0.286E-04
CGA:  12    -0.367411395008E+03   -0.14450E-03   -0.14718E-03  7056   0.152E-03-0.212E-04
CGA:  13    -0.367411444955E+03   -0.49947E-04   -0.49694E-04  7056   0.454E-04 0.585E-05
CGA:  14    -0.367411459036E+03   -0.14081E-04   -0.14124E-04  7056   0.130E-04 0.607E-05
CGA:  15    -0.367411465636E+03   -0.66000E-05   -0.79452E-05  7056   0.108E-04-0.579E-05
   6 F= -.36741147E+03 E0= -.36741147E+03  d E =-.718085E-01  mag=    12.0000
       N       E                     dE             d eps       ncg     rms          ort
SDA:   1    -0.359453562339E+03    0.79579E+01    0.00000E+00  7056   0.199E+02 0.000E+00
CGA:   2    -0.365551616284E+03   -0.60981E+01   -0.60981E+01  7056   0.805E+01-0.694E-02
CGA:   3    -0.367119292243E+03   -0.15677E+01   -0.15688E+01  7056   0.154E+01-0.387E-03
CGA:   4    -0.367419606472E+03   -0.30031E+00   -0.30044E+00  7056   0.286E+00-0.831E-04
CGA:   5    -0.367487366806E+03   -0.67760E-01   -0.67760E-01  7056   0.736E-01-0.864E-04
CGA:   6    -0.367506472976E+03   -0.19106E-01   -0.19104E-01  7056   0.257E-01-0.875E-04
CGA:   7    -0.367514322115E+03   -0.78491E-02   -0.78502E-02  7056   0.111E-01-0.113E-03
CGA:   8    -0.367518107316E+03   -0.37852E-02   -0.37919E-02  7056   0.459E-02-0.140E-03
CGA:   9    -0.367519598633E+03   -0.14913E-02   -0.14960E-02  7056   0.153E-02-0.150E-03
CGA:  10    -0.367520084614E+03   -0.48598E-03   -0.48733E-03  7056   0.507E-03-0.458E-04
CGA:  11    -0.367520278167E+03   -0.19355E-03   -0.19579E-03  7056   0.243E-03-0.233E-04
CGA:  12    -0.367520376385E+03   -0.98217E-04   -0.98089E-04  7056   0.118E-03 0.113E-05
CGA:  13    -0.367520421694E+03   -0.45309E-04   -0.45168E-04  7056   0.497E-04 0.200E-05
CGA:  14    -0.367520435329E+03   -0.13635E-04   -0.13990E-04  7056   0.146E-04 0.905E-05
CGA:  15    -0.367520442577E+03   -0.72474E-05   -0.77169E-05  7056   0.815E-05-0.355E-05
   7 F= -.36752044E+03 E0= -.36752044E+03  d E =-.108977E+00  mag=    12.0000
       N       E                     dE             d eps       ncg     rms          ort
SDA:   1    -0.366738677139E+03    0.78176E+00    0.00000E+00  7056   0.229E+01 0.000E+00
CGA:   2    -0.367348344240E+03   -0.60967E+00   -0.60975E+00  7056   0.770E+00 0.477E-03
CGA:   3    -0.367525763866E+03   -0.17742E+00   -0.17759E+00  7056   0.182E+00 0.142E-02
CGA:   4    -0.367562049900E+03   -0.36286E-01   -0.36244E-01  7056   0.379E-01-0.531E-03
CGA:   5    -0.367570928383E+03   -0.88785E-02   -0.88812E-02  7056   0.103E-01 0.510E-04
CGA:   6    -0.367573884863E+03   -0.29565E-02   -0.29570E-02  7056   0.431E-02 0.377E-04
CGA:   7    -0.367575241081E+03   -0.13562E-02   -0.13560E-02  7056   0.193E-02 0.157E-04
CGA:   8    -0.367575888551E+03   -0.64747E-03   -0.64684E-03  7056   0.735E-03 0.182E-04
CGA:   9    -0.367576132732E+03   -0.24418E-03   -0.24422E-03  7056   0.249E-03-0.144E-05
CGA:  10    -0.367576211848E+03   -0.79115E-04   -0.78919E-04  7056   0.832E-04 0.149E-04
CGA:  11    -0.367576244782E+03   -0.32934E-04   -0.32494E-04  7056   0.371E-04 0.692E-05
CGA:  12    -0.367576257236E+03   -0.12454E-04   -0.12438E-04  7056   0.132E-04 0.112E-04
CGA:  13    -0.367576262651E+03   -0.54157E-05   -0.53917E-05  7056   0.515E-05 0.426E-05
   8 F= -.36757626E+03 E0= -.36757626E+03  d E =-.558201E-01  mag=    12.0000
       N       E                     dE             d eps       ncg     rms          ort
SDA:   1    -0.366998855284E+03    0.57740E+00    0.00000E+00  7056   0.159E+01 0.000E+00
CGA:   2    -0.367456077791E+03   -0.45722E+00   -0.45725E+00  7056   0.581E+00 0.858E-03
CGA:   3    -0.367579280507E+03   -0.12320E+00   -0.12334E+00  7056   0.120E+00 0.892E-03
CGA:   4    -0.367602691917E+03   -0.23411E-01   -0.23347E-01  7056   0.230E-01-0.698E-03
CGA:   5    -0.367608031324E+03   -0.53394E-02   -0.53299E-02  7056   0.585E-02-0.144E-03
CGA:   6    -0.367609569442E+03   -0.15381E-02   -0.15402E-02  7056   0.214E-02 0.697E-04
CGA:   7    -0.367610242762E+03   -0.67332E-03   -0.67202E-03  7056   0.969E-03 0.699E-04
CGA:   8    -0.367610606812E+03   -0.36405E-03   -0.36426E-03  7056   0.438E-03-0.326E-05
CGA:   9    -0.367610757288E+03   -0.15048E-03   -0.15142E-03  7056   0.155E-03-0.189E-04
CGA:  10    -0.367610801909E+03   -0.44621E-04   -0.44607E-04  7056   0.467E-04 0.115E-04
CGA:  11    -0.367610822049E+03   -0.20141E-04   -0.20346E-04  7056   0.257E-04-0.193E-05
CGA:  12    -0.367610829749E+03   -0.77002E-05   -0.76663E-05  7056   0.972E-05 0.574E-05
   9 F= -.36761083E+03 E0= -.36761083E+03  d E =-.345671E-01  mag=    12.0000
       N       E                     dE             d eps       ncg     rms          ort
SDA:   1    -0.364171305235E+03    0.34395E+01    0.00000E+00  7056   0.843E+01 0.000E+00
CGA:   2    -0.366895811413E+03   -0.27245E+01   -0.27244E+01  7056   0.319E+01 0.444E-02
CGA:   3    -0.367499728547E+03   -0.60392E+00   -0.60432E+00  7056   0.586E+00-0.215E-03
CGA:   4    -0.367614356880E+03   -0.11463E+00   -0.11443E+00  7056   0.109E+00-0.242E-02
CGA:   5    -0.367639617215E+03   -0.25260E-01   -0.25238E-01  7056   0.262E-01-0.389E-03
CGA:   6    -0.367645976950E+03   -0.63597E-02   -0.63754E-02  7056   0.800E-02 0.319E-03
CGA:   7    -0.367648405822E+03   -0.24289E-02   -0.24270E-02  7056   0.338E-02 0.177E-03
CGA:   8    -0.367649651329E+03   -0.12455E-02   -0.12490E-02  7056   0.155E-02-0.482E-04
CGA:   9    -0.367650168202E+03   -0.51687E-03   -0.52044E-03  7056   0.530E-03-0.740E-04
CGA:  10    -0.367650328555E+03   -0.16035E-03   -0.16034E-03  7056   0.165E-03 0.446E-06
CGA:  11    -0.367650393128E+03   -0.64574E-04   -0.65127E-04  7056   0.848E-04-0.556E-05
CGA:  12    -0.367650424555E+03   -0.31427E-04   -0.30576E-04  7056   0.403E-04 0.119E-04
CGA:  13    -0.367650441533E+03   -0.16978E-04   -0.16600E-04  7056   0.173E-04 0.677E-05
CGA:  14    -0.367650446267E+03   -0.47343E-05   -0.51491E-05  7056   0.579E-05 0.786E-05
  10 F= -.36765045E+03 E0= -.36765045E+03  d E =-.396165E-01  mag=    12.0000
       N       E                     dE             d eps       ncg     rms          ort
SDA:   1    -0.337670665901E+03    0.29980E+02    0.00000E+00  7056   0.755E+02 0.000E+00
CGA:   2    -0.358744440959E+03   -0.21074E+02   -0.21079E+02  7056   0.289E+02 0.273E-01
CGA:   3    -0.364643068207E+03   -0.58986E+01   -0.59084E+01  7056   0.642E+01 0.370E-01
CGA:   4    -0.365944965415E+03   -0.13019E+01   -0.13029E+01  7056   0.128E+01 0.337E-02
CGA:   5    -0.366245073659E+03   -0.30011E+00   -0.30001E+00  7056   0.355E+00-0.169E-02
CGA:   6    -0.366342114736E+03   -0.97041E-01   -0.97039E-01  7056   0.134E+00-0.283E-03
CGA:   7    -0.366382434017E+03   -0.40319E-01   -0.40323E-01  7056   0.549E-01-0.319E-03
CGA:   8    -0.366400752816E+03   -0.18319E-01   -0.18330E-01  7056   0.201E-01-0.260E-03
CGA:   9    -0.366407216435E+03   -0.64636E-02   -0.64747E-02  7056   0.632E-02-0.354E-03
CGA:  10    -0.366409279459E+03   -0.20630E-02   -0.20736E-02  7056   0.212E-02-0.263E-03
CGA:  11    -0.366410046428E+03   -0.76697E-03   -0.76845E-03  7056   0.914E-03-0.184E-04
CGA:  12    -0.366410403632E+03   -0.35720E-03   -0.35285E-03  7056   0.418E-03 0.488E-04
CGA:  13    -0.366410549631E+03   -0.14600E-03   -0.14454E-03  7056   0.176E-03 0.605E-04
CGA:  14    -0.366410628674E+03   -0.79042E-04   -0.82227E-04  7056   0.107E-03-0.312E-04
CGA:  15    -0.366410646500E+03   -0.17826E-04   -0.19921E-04  7056   0.388E-04 0.245E-04
CGA:  16    -0.366410656033E+03   -0.95335E-05   -0.10495E-04  7056   0.153E-04 0.111E-04
CGA:  17    -0.366410659496E+03   -0.34629E-05   -0.13732E-04  7056   0.582E-04-0.260E-04
  11 F= -.36641066E+03 E0= -.36641066E+03  d E =0.123979E+01  mag=    12.0000
       N       E                     dE             d eps       ncg     rms          ort
SDA:   1    -0.356683342795E+03    0.97273E+01    0.00000E+00  7056   0.262E+02 0.000E+00
CGA:   2    -0.365012681454E+03   -0.83293E+01   -0.83293E+01  7056   0.831E+01-0.173E-02
CGA:   3    -0.367088571936E+03   -0.20759E+01   -0.20774E+01  7056   0.153E+01 0.519E-02
CGA:   4    -0.367453760346E+03   -0.36519E+00   -0.36524E+00  7056   0.415E+00-0.869E-04
CGA:   5    -0.367552011802E+03   -0.98251E-01   -0.98218E-01  7056   0.141E+00-0.662E-03
CGA:   6    -0.367593426624E+03   -0.41415E-01   -0.41411E-01  7056   0.512E-01-0.341E-03
CGA:   7    -0.367608831794E+03   -0.15405E-01   -0.15405E-01  7056   0.204E-01 0.457E-04
CGA:   8    -0.367614889870E+03   -0.60581E-02   -0.60569E-02  7056   0.643E-02-0.171E-03
CGA:   9    -0.367616838845E+03   -0.19490E-02   -0.19491E-02  7056   0.177E-02-0.594E-04
CGA:  10    -0.367617397696E+03   -0.55885E-03   -0.55900E-03  7056   0.526E-03-0.944E-05
CGA:  11    -0.367617594765E+03   -0.19707E-03   -0.19814E-03  7056   0.226E-03-0.145E-04
CGA:  12    -0.367617687395E+03   -0.92630E-04   -0.93180E-04  7056   0.103E-03-0.470E-05
CGA:  13    -0.367617722763E+03   -0.35368E-04   -0.34792E-04  7056   0.391E-04 0.187E-04
CGA:  14    -0.367617741200E+03   -0.18436E-04   -0.18510E-04  7056   0.225E-04-0.895E-06
CGA:  15    -0.367617744684E+03   -0.34844E-05   -0.44820E-05  7056   0.880E-05 0.871E-05
  12 F= -.36761774E+03 E0= -.36761774E+03  d E =-.120709E+01  mag=    12.0000
       N       E                     dE             d eps       ncg     rms          ort
SDA:   1    -0.367534244236E+03    0.83497E-01    0.00000E+00  7056   0.312E+00 0.000E+00
CGA:   2    -0.367628592228E+03   -0.94348E-01   -0.94357E-01  7056   0.113E+00 0.127E-02
CGA:   3    -0.367652421941E+03   -0.23830E-01   -0.23837E-01  7056   0.277E-01-0.550E-04
CGA:   4    -0.367658084845E+03   -0.56629E-02   -0.56233E-02  7056   0.547E-02-0.411E-03
CGA:   5    -0.367659374436E+03   -0.12896E-02   -0.12876E-02  7056   0.157E-02-0.338E-04
CGA:   6    -0.367659768295E+03   -0.39386E-03   -0.39849E-03  7056   0.523E-03 0.113E-03
CGA:   7    -0.367659917006E+03   -0.14871E-03   -0.15074E-03  7056   0.184E-03 0.803E-04
CGA:   8    -0.367659991693E+03   -0.74687E-04   -0.74338E-04  7056   0.769E-04 0.607E-05
CGA:   9    -0.367660019303E+03   -0.27610E-04   -0.28251E-04  7056   0.298E-04-0.107E-04
CGA:  10    -0.367660025846E+03   -0.65429E-05   -0.66255E-05  7056   0.745E-05 0.204E-05
  13 F= -.36766003E+03 E0= -.36766003E+03  d E =-.422812E-01  mag=    12.0000
       N       E                     dE             d eps       ncg     rms          ort
SDA:   1    -0.367080162534E+03    0.57986E+00    0.00000E+00  7056   0.160E+01 0.000E+00
CGA:   2    -0.367548711297E+03   -0.46855E+00   -0.46856E+00  7056   0.600E+00 0.309E-02
CGA:   3    -0.367672215858E+03   -0.12350E+00   -0.12359E+00  7056   0.144E+00 0.128E-03
CGA:   4    -0.367701514968E+03   -0.29299E-01   -0.29223E-01  7056   0.273E-01-0.960E-03
CGA:   5    -0.367707921187E+03   -0.64062E-02   -0.63995E-02  7056   0.769E-02-0.135E-03
CGA:   6    -0.367709925371E+03   -0.20042E-02   -0.20094E-02  7056   0.267E-02 0.243E-03
CGA:   7    -0.367710723210E+03   -0.79784E-03   -0.79654E-03  7056   0.996E-03 0.193E-03
CGA:   8    -0.367711092967E+03   -0.36976E-03   -0.36952E-03  7056   0.386E-03 0.343E-05
CGA:   9    -0.367711224576E+03   -0.13161E-03   -0.13365E-03  7056   0.133E-03-0.349E-04
CGA:  10    -0.367711261392E+03   -0.36816E-04   -0.36821E-04  7056   0.371E-04-0.367E-06
CGA:  11    -0.367711275505E+03   -0.14113E-04   -0.14399E-04  7056   0.193E-04-0.291E-05
CGA:  12    -0.367711275563E+03   -0.58506E-07   -0.16392E-04  7056   0.752E-04-0.260E-04
CGA:  13    -0.367711289555E+03   -0.13991E-04   -0.14613E-04  7056   0.992E-05 0.467E-05
CGA:  14    -0.367711291582E+03   -0.20270E-05   -0.23121E-05  7056   0.227E-05 0.284E-05
  14 F= -.36771129E+03 E0= -.36771129E+03  d E =-.512657E-01  mag=    12.0000
       N       E                     dE             d eps       ncg     rms          ort
SDA:   1    -0.367681782517E+03    0.29507E-01    0.00000E+00  7056   0.984E-01 0.000E+00
CGA:   2    -0.367709499624E+03   -0.27717E-01   -0.27735E-01  7056   0.393E-01 0.572E-03
CGA:   3    -0.367717329782E+03   -0.78302E-02   -0.78327E-02  7056   0.833E-02-0.263E-04
CGA:   4    -0.367719054796E+03   -0.17250E-02   -0.17060E-02  7056   0.159E-02-0.198E-03
CGA:   5    -0.367719406868E+03   -0.35207E-03   -0.35091E-03  7056   0.392E-03-0.160E-04
CGA:   6    -0.367719495336E+03   -0.88468E-04   -0.90550E-04  7056   0.113E-03 0.337E-04
CGA:   7    -0.367719526574E+03   -0.31238E-04   -0.32017E-04  7056   0.415E-04 0.244E-04
CGA:   8    -0.367719543338E+03   -0.16764E-04   -0.16495E-04  7056   0.197E-04 0.724E-05
CGA:   9    -0.367719551700E+03   -0.83618E-05   -0.83986E-05  7056   0.897E-05-0.524E-06
  15 F= -.36771955E+03 E0= -.36771955E+03  d E =-.826012E-02  mag=    12.0000
       N       E                     dE             d eps       ncg     rms          ort
SDA:   1    -0.367231127005E+03    0.48842E+00    0.00000E+00  7056   0.132E+01 0.000E+00
CGA:   2    -0.367605621222E+03   -0.37449E+00   -0.37451E+00  7056   0.533E+00 0.140E-02
CGA:   3    -0.367710165979E+03   -0.10454E+00   -0.10462E+00  7056   0.110E+00 0.811E-04
CGA:   4    -0.367732213162E+03   -0.22047E-01   -0.22008E-01  7056   0.201E-01-0.525E-03
CGA:   5    -0.367736748861E+03   -0.45357E-02   -0.45294E-02  7056   0.496E-02-0.111E-03
CGA:   6    -0.367737980581E+03   -0.12317E-02   -0.12342E-02  7056   0.158E-02 0.807E-04
CGA:   7    -0.367738462095E+03   -0.48151E-03   -0.47984E-03  7056   0.640E-03 0.872E-04
CGA:   8    -0.367738701903E+03   -0.23981E-03   -0.23856E-03  7056   0.282E-03 0.167E-04
CGA:   9    -0.367738803958E+03   -0.10205E-03   -0.10324E-03  7056   0.105E-03-0.162E-04
CGA:  10    -0.367738836243E+03   -0.32285E-04   -0.32359E-04  7056   0.341E-04-0.192E-05
CGA:  11    -0.367738850009E+03   -0.13766E-04   -0.14814E-04  7056   0.225E-04-0.685E-05
CGA:  12    -0.367738857157E+03   -0.71483E-05   -0.77930E-05  7056   0.137E-04-0.469E-05
  16 F= -.36773886E+03 E0= -.36773886E+03  d E =-.193055E-01  mag=    12.0000
       N       E                     dE             d eps       ncg     rms          ort
SDA:   1    -0.367356681504E+03    0.38217E+00    0.00000E+00  7056   0.979E+00 0.000E+00
CGA:   2    -0.367650264254E+03   -0.29358E+00   -0.29358E+00  7056   0.399E+00-0.148E-03
CGA:   3    -0.367726187927E+03   -0.75924E-01   -0.75998E-01  7056   0.757E-01 0.142E-03
CGA:   4    -0.367741135378E+03   -0.14947E-01   -0.14959E-01  7056   0.140E-01 0.637E-04
CGA:   5    -0.367744326240E+03   -0.31909E-02   -0.31895E-02  7056   0.334E-02-0.198E-04
CGA:   6    -0.367745171527E+03   -0.84529E-03   -0.84299E-03  7056   0.106E-02-0.589E-04
CGA:   7    -0.367745489585E+03   -0.31806E-03   -0.31828E-03  7056   0.434E-03-0.154E-04
CGA:   8    -0.367745628617E+03   -0.13903E-03   -0.13807E-03  7056   0.162E-03 0.300E-04
CGA:   9    -0.367745687971E+03   -0.59354E-04   -0.59322E-04  7056   0.570E-04 0.650E-06
CGA:  10    -0.367745709685E+03   -0.21714E-04   -0.22814E-04  7056   0.267E-04-0.106E-04
CGA:  11    -0.367745717545E+03   -0.78605E-05   -0.79558E-05  7056   0.116E-04-0.146E-05
  17 F= -.36774572E+03 E0= -.36774572E+03  d E =-.686039E-02  mag=    12.0000
       N       E                     dE             d eps       ncg     rms          ort
SDA:   1    -0.366846227624E+03    0.89948E+00    0.00000E+00  7056   0.218E+01 0.000E+00
CGA:   2    -0.367549996716E+03   -0.70377E+00   -0.70372E+00  7056   0.880E+00 0.130E-02
CGA:   3    -0.367710132535E+03   -0.16014E+00   -0.16025E+00  7056   0.151E+00-0.243E-03
CGA:   4    -0.367740308500E+03   -0.30176E-01   -0.30142E-01  7056   0.288E-01-0.450E-03
CGA:   5    -0.367746976119E+03   -0.66676E-02   -0.66613E-02  7056   0.673E-02-0.115E-03
CGA:   6    -0.367748604843E+03   -0.16287E-02   -0.16299E-02  7056   0.200E-02 0.240E-04
CGA:   7    -0.367749192929E+03   -0.58809E-03   -0.58783E-03  7056   0.780E-03 0.288E-04
CGA:   8    -0.367749462839E+03   -0.26991E-03   -0.26813E-03  7056   0.317E-03 0.327E-04
CGA:   9    -0.367749577126E+03   -0.11429E-03   -0.11525E-03  7056   0.115E-03-0.156E-04
CGA:  10    -0.367749617218E+03   -0.40092E-04   -0.42535E-04  7056   0.494E-04-0.244E-04
CGA:  11    -0.367749628856E+03   -0.11638E-04   -0.11623E-04  7056   0.170E-04 0.421E-05
CGA:  12    -0.367749634110E+03   -0.52544E-05   -0.52940E-05  7056   0.796E-05 0.469E-05
  18 F= -.36774963E+03 E0= -.36774963E+03  d E =-.391656E-02  mag=    12.0000
       N       E                     dE             d eps       ncg     rms          ort
SDA:   1    -0.362352647299E+03    0.53970E+01    0.00000E+00  7056   0.128E+02 0.000E+00
CGA:   2    -0.366621539337E+03   -0.42689E+01   -0.42685E+01  7056   0.510E+01 0.576E-02
CGA:   3    -0.367537922795E+03   -0.91638E+00   -0.91717E+00  7056   0.846E+00-0.134E-02
CGA:   4    -0.367707568828E+03   -0.16965E+00   -0.16945E+00  7056   0.165E+00-0.266E-02
CGA:   5    -0.367746166770E+03   -0.38598E-01   -0.38579E-01  7056   0.394E-01-0.434E-03
CGA:   6    -0.367755772035E+03   -0.96053E-02   -0.96175E-02  7056   0.120E-01 0.297E-03
CGA:   7    -0.367759400003E+03   -0.36280E-02   -0.36256E-02  7056   0.503E-02 0.125E-03
CGA:   8    -0.367761208592E+03   -0.18086E-02   -0.18096E-02  7056   0.215E-02-0.134E-04
CGA:   9    -0.367761939686E+03   -0.73109E-03   -0.73870E-03  7056   0.734E-03-0.129E-03
CGA:  10    -0.367762173462E+03   -0.23378E-03   -0.23752E-03  7056   0.248E-03-0.681E-04
CGA:  11    -0.367762252124E+03   -0.78662E-04   -0.78187E-04  7056   0.993E-04 0.835E-05
CGA:  12    -0.367762293916E+03   -0.41792E-04   -0.40799E-04  7056   0.559E-04 0.960E-05
CGA:  13    -0.367762312939E+03   -0.19023E-04   -0.18891E-04  7056   0.245E-04 0.160E-04
CGA:  14    -0.367762325356E+03   -0.12417E-04   -0.12276E-04  7056   0.114E-04 0.155E-05
CGA:  15    -0.367762329483E+03   -0.41273E-05   -0.40399E-05  7056   0.403E-05 0.299E-05
  19 F= -.36776233E+03 E0= -.36776233E+03  d E =-.126954E-01  mag=    12.0000
       N       E                     dE             d eps       ncg     rms          ort
SDA:   1    -0.342143378626E+03    0.25619E+02    0.00000E+00  7056   0.599E+02 0.000E+00
CGA:   2    -0.362774731677E+03   -0.20631E+02   -0.20630E+02  7056   0.209E+02 0.336E-02
CGA:   3    -0.366660271627E+03   -0.38855E+01   -0.38920E+01  7056   0.367E+01 0.387E-02
CGA:   4    -0.367398153966E+03   -0.73788E+00   -0.73790E+00  7056   0.784E+00-0.407E-02
CGA:   5    -0.367586288514E+03   -0.18813E+00   -0.18811E+00  7056   0.201E+00-0.735E-03
CGA:   6    -0.367638845466E+03   -0.52557E-01   -0.52571E-01  7056   0.707E-01 0.271E-03
CGA:   7    -0.367660685329E+03   -0.21840E-01   -0.21842E-01  7056   0.309E-01-0.139E-03
CGA:   8    -0.367671286758E+03   -0.10601E-01   -0.10624E-01  7056   0.117E-01-0.443E-03
CGA:   9    -0.367675018807E+03   -0.37320E-02   -0.37478E-02  7056   0.355E-02-0.513E-03
CGA:  10    -0.367676138550E+03   -0.11197E-02   -0.11272E-02  7056   0.115E-02-0.212E-03
CGA:  11    -0.367676544122E+03   -0.40557E-03   -0.40520E-03  7056   0.512E-03 0.435E-05
CGA:  12    -0.367676764654E+03   -0.22053E-03   -0.21534E-03  7056   0.276E-03 0.440E-04
CGA:  13    -0.367676880037E+03   -0.11538E-03   -0.11258E-03  7056   0.134E-03 0.414E-04
CGA:  14    -0.367676936121E+03   -0.56084E-04   -0.55679E-04  7056   0.604E-04 0.777E-05
CGA:  15    -0.367676960253E+03   -0.24132E-04   -0.24000E-04  7056   0.249E-04 0.211E-05
CGA:  16    -0.367676972376E+03   -0.12123E-04   -0.12901E-04  7056   0.157E-04-0.436E-05
CGA:  17    -0.367676901609E+03    0.70768E-04   -0.38111E-04  7056   0.331E-03-0.567E-04
CGA:  18    -0.367676960455E+03   -0.58846E-04   -0.67713E-04  7056   0.444E-04 0.233E-04
CGA:  19    -0.367676977900E+03   -0.17445E-04   -0.17223E-04  7056   0.128E-04-0.106E-05
CGA:  20    -0.367676983385E+03   -0.54851E-05   -0.56981E-05  7056   0.492E-05 0.195E-05
  20 F= -.36767698E+03 E0= -.36767698E+03  d E =0.853461E-01  mag=    12.0000
       N       E                     dE             d eps       ncg     rms          ort
SDA:   1    -0.365007866563E+03    0.26691E+01    0.00000E+00  7056   0.714E+01 0.000E+00
CGA:   2    -0.367036568571E+03   -0.20287E+01   -0.20272E+01  7056   0.286E+01 0.301E-02
CGA:   3    -0.367635628048E+03   -0.59906E+00   -0.60023E+00  7056   0.635E+00 0.183E-02
CGA:   4    -0.367760852841E+03   -0.12522E+00   -0.12547E+00  7056   0.128E+00 0.176E-04
CGA:   5    -0.367791218943E+03   -0.30366E-01   -0.30357E-01  7056   0.351E-01 0.372E-04
CGA:   6    -0.367800775205E+03   -0.95563E-02   -0.95282E-02  7056   0.133E-01-0.128E-03
CGA:   7    -0.367804699356E+03   -0.39242E-02   -0.39025E-02  7056   0.512E-02-0.121E-03
CGA:   8    -0.367806357620E+03   -0.16583E-02   -0.16576E-02  7056   0.182E-02-0.492E-05
CGA:   9    -0.367806920600E+03   -0.56298E-03   -0.56430E-03  7056   0.566E-03 0.851E-05
CGA:  10    -0.367807107413E+03   -0.18681E-03   -0.18605E-03  7056   0.185E-03-0.602E-05
CGA:  11    -0.367807181910E+03   -0.74497E-04   -0.73998E-04  7056   0.883E-04-0.118E-04
CGA:  12    -0.367807213584E+03   -0.31673E-04   -0.32030E-04  7056   0.369E-04 0.609E-05
CGA:  13    -0.367807231001E+03   -0.17417E-04   -0.17415E-04  7056   0.207E-04-0.259E-05
CGA:  14    -0.367807237221E+03   -0.62199E-05   -0.63526E-05  7056   0.836E-05 0.117E-05
CGA:  15    -0.367807097655E+03    0.13957E-03   -0.75617E-04  7056   0.615E-03-0.689E-04
CGA:  16    -0.367807206108E+03   -0.10845E-03   -0.12764E-03  7056   0.901E-04 0.312E-04
CGA:  17    -0.367807238291E+03   -0.32183E-04   -0.28073E-04  7056   0.205E-04-0.876E-05
CGA:  18    -0.367807244996E+03   -0.67053E-05   -0.76996E-05  7056   0.607E-05 0.305E-05
  21 F= -.36780724E+03 E0= -.36780724E+03  d E =-.130262E+00  mag=    12.0000
       N       E                     dE             d eps       ncg     rms          ort
SDA:   1    -0.367005057701E+03    0.80218E+00    0.00000E+00  7056   0.198E+01 0.000E+00
CGA:   2    -0.367658286671E+03   -0.65323E+00   -0.65435E+00  7056   0.727E+00-0.167E-02
CGA:   3    -0.367799865597E+03   -0.14158E+00   -0.14176E+00  7056   0.149E+00-0.246E-03
CGA:   4    -0.367829363159E+03   -0.29498E-01   -0.29431E-01  7056   0.282E-01-0.199E-03
CGA:   5    -0.367836281194E+03   -0.69180E-02   -0.68825E-02  7056   0.780E-02-0.930E-04
CGA:   6    -0.367838278974E+03   -0.19978E-02   -0.20244E-02  7056   0.266E-02 0.657E-04
CGA:   7    -0.367839052530E+03   -0.77356E-03   -0.78449E-03  7056   0.105E-02 0.327E-04
CGA:   8    -0.367839447907E+03   -0.39538E-03   -0.38076E-03  7056   0.417E-03-0.578E-04
CGA:   9    -0.367839575256E+03   -0.12735E-03   -0.12277E-03  7056   0.117E-03-0.160E-04
CGA:  10    -0.367839606103E+03   -0.30847E-04   -0.32327E-04  7056   0.301E-04 0.497E-05
CGA:  11    -0.367839616409E+03   -0.10306E-04   -0.10681E-04  7056   0.124E-04 0.163E-05
CGA:  12    -0.367839618684E+03   -0.22749E-05   -0.14693E-04  7056   0.745E-04-0.220E-04
CGA:  13    -0.367839626801E+03   -0.81167E-05   -0.13612E-04  7056   0.106E-04 0.136E-04
  22 F= -.36783963E+03 E0= -.36783963E+03  d E =-.323818E-01  mag=    12.0000
       N       E                     dE             d eps       ncg     rms          ort
SDA:   1    -0.367419542268E+03    0.42008E+00    0.00000E+00  7056   0.995E+00 0.000E+00
CGA:   2    -0.367767894710E+03   -0.34835E+00   -0.34862E+00  7056   0.338E+00 0.915E-03
CGA:   3    -0.367830831211E+03   -0.62937E-01   -0.62959E-01  7056   0.601E-01-0.274E-03
CGA:   4    -0.367842887733E+03   -0.12057E-01   -0.11922E-01  7056   0.122E-01-0.454E-03
CGA:   5    -0.367845685521E+03   -0.27978E-02   -0.27902E-02  7056   0.287E-02-0.304E-04
CGA:   6    -0.367846345314E+03   -0.65979E-03   -0.68350E-03  7056   0.831E-03 0.925E-04
CGA:   7    -0.367846595419E+03   -0.25010E-03   -0.25546E-03  7056   0.349E-03 0.293E-04
CGA:   8    -0.367846723250E+03   -0.12783E-03   -0.12833E-03  7056   0.153E-03 0.430E-05
CGA:   9    -0.367846775370E+03   -0.52120E-04   -0.51704E-04  7056   0.505E-04-0.319E-05
CGA:  10    -0.367846793502E+03   -0.18132E-04   -0.17524E-04  7056   0.184E-04-0.584E-05
CGA:  11    -0.367846799092E+03   -0.55903E-05   -0.56262E-05  7056   0.759E-05 0.326E-06
CGA:  12    -0.367846708232E+03    0.90860E-04   -0.48995E-04  7056   0.425E-03-0.460E-04
CGA:  13    -0.367846782227E+03   -0.73996E-04   -0.87901E-04  7056   0.545E-04 0.226E-04
CGA:  14    -0.367846804538E+03   -0.22310E-04   -0.18137E-04  7056   0.178E-04-0.888E-05
CGA:  15    -0.367846807670E+03   -0.31324E-05   -0.44893E-05  7056   0.470E-05 0.294E-05
  23 F= -.36784681E+03 E0= -.36784681E+03  d E =-.718087E-02  mag=    12.0000
       N       E                     dE             d eps       ncg     rms          ort
SDA:   1    -0.352632494745E+03    0.15214E+02    0.00000E+00  7056   0.352E+02 0.000E+00
CGA:   2    -0.365140134982E+03   -0.12508E+02   -0.12562E+02  7056   0.112E+02 0.410E-01
CGA:   3    -0.367276556604E+03   -0.21364E+01   -0.21482E+01  7056   0.195E+01 0.902E-01
CGA:   4    -0.367671970407E+03   -0.39541E+00   -0.39518E+00  7056   0.425E+00-0.330E-03
CGA:   5    -0.367771514344E+03   -0.99544E-01   -0.99536E-01  7056   0.104E+00-0.212E-03
CGA:   6    -0.367797970207E+03   -0.26456E-01   -0.26550E-01  7056   0.347E-01 0.155E-03
CGA:   7    -0.367808682487E+03   -0.10712E-01   -0.10663E-01  7056   0.152E-01-0.180E-03
CGA:   8    -0.367813881549E+03   -0.51991E-02   -0.51584E-02  7056   0.599E-02-0.168E-03
CGA:   9    -0.367815806289E+03   -0.19247E-02   -0.18893E-02  7056   0.178E-02-0.135E-03
CGA:  10    -0.367816399252E+03   -0.59296E-03   -0.57086E-03  7056   0.561E-03-0.906E-04
CGA:  11    -0.367816606670E+03   -0.20742E-03   -0.20440E-03  7056   0.265E-03-0.175E-04
CGA:  12    -0.367816736408E+03   -0.12974E-03   -0.12855E-03  7056   0.198E-03-0.239E-04
CGA:  13    -0.367816803743E+03   -0.67336E-04   -0.69281E-04  7056   0.945E-04 0.115E-04
CGA:  14    -0.367816851085E+03   -0.47341E-04   -0.45364E-04  7056   0.539E-04-0.230E-04
CGA:  15    -0.367816866269E+03   -0.15184E-04   -0.14866E-04  7056   0.192E-04-0.198E-05
CGA:  16    -0.367816876440E+03   -0.10171E-04   -0.12195E-04  7056   0.252E-04-0.154E-04
CGA:  17    -0.367816883884E+03   -0.74442E-05   -0.76177E-05  7056   0.225E-05 0.748E-06
  24 F= -.36781688E+03 E0= -.36781688E+03  d E =0.299238E-01  mag=    12.0000
       N       E                     dE             d eps       ncg     rms          ort
SDA:   1    -0.360110072039E+03    0.77068E+01    0.00000E+00  7056   0.181E+02 0.000E+00
CGA:   2    -0.366368952383E+03   -0.62589E+01   -0.62616E+01  7056   0.628E+01 0.129E-02
CGA:   3    -0.367557590019E+03   -0.11886E+01   -0.11922E+01  7056   0.110E+01 0.639E-02
CGA:   4    -0.367776967900E+03   -0.21938E+00   -0.21904E+00  7056   0.227E+00-0.185E-02
CGA:   5    -0.367830534123E+03   -0.53566E-01   -0.53533E-01  7056   0.543E-01-0.154E-03
CGA:   6    -0.367844384325E+03   -0.13850E-01   -0.13899E-01  7056   0.182E-01 0.201E-03
CGA:   7    -0.367849863226E+03   -0.54789E-02   -0.54675E-02  7056   0.782E-02-0.777E-04
CGA:   8    -0.367852535102E+03   -0.26719E-02   -0.26616E-02  7056   0.311E-02-0.951E-04
CGA:   9    -0.367853546166E+03   -0.10111E-02   -0.99968E-03  7056   0.974E-03-0.950E-04
CGA:  10    -0.367853862901E+03   -0.31674E-03   -0.31053E-03  7056   0.314E-03-0.560E-04
CGA:  11    -0.367853978529E+03   -0.11563E-03   -0.11491E-03  7056   0.153E-03-0.160E-04
CGA:  12    -0.367854049058E+03   -0.70528E-04   -0.71599E-04  7056   0.122E-03-0.173E-04
CGA:  13    -0.367854089988E+03   -0.40931E-04   -0.40585E-04  7056   0.709E-04-0.616E-05
CGA:  14    -0.367854115756E+03   -0.25768E-04   -0.25139E-04  7056   0.302E-04-0.108E-04
CGA:  15    -0.367854126195E+03   -0.10439E-04   -0.18953E-04  7056   0.498E-04-0.275E-04
CGA:  16    -0.367854136866E+03   -0.10671E-04   -0.11451E-04  7056   0.832E-05 0.367E-05
CGA:  17    -0.367854140977E+03   -0.41104E-05   -0.47438E-05  7056   0.121E-04-0.651E-05
  25 F= -.36785414E+03 E0= -.36785414E+03  d E =-.372571E-01  mag=    12.0000
       N       E                     dE             d eps       ncg     rms          ort
SDA:   1    -0.362141472570E+03    0.57127E+01    0.00000E+00  7056   0.133E+02 0.000E+00
CGA:   2    -0.366798968862E+03   -0.46575E+01   -0.46571E+01  7056   0.450E+01-0.909E-02
CGA:   3    -0.367646406130E+03   -0.84744E+00   -0.84899E+00  7056   0.798E+00 0.212E-02
CGA:   4    -0.367805127498E+03   -0.15872E+00   -0.15916E+00  7056   0.164E+00 0.234E-02
CGA:   5    -0.367843704644E+03   -0.38577E-01   -0.38548E-01  7056   0.406E-01-0.184E-03
CGA:   6    -0.367854317872E+03   -0.10613E-01   -0.10527E-01  7056   0.135E-01-0.666E-03
CGA:   7    -0.367858370930E+03   -0.40531E-02   -0.40275E-02  7056   0.573E-02-0.320E-03
CGA:   8    -0.367860315661E+03   -0.19447E-02   -0.19380E-02  7056   0.228E-02-0.196E-03
CGA:   9    -0.367861034156E+03   -0.71849E-03   -0.71389E-03  7056   0.687E-03-0.845E-04
CGA:  10    -0.367861244017E+03   -0.20986E-03   -0.20912E-03  7056   0.201E-03-0.126E-04
CGA:  11    -0.367861317136E+03   -0.73118E-04   -0.73121E-04  7056   0.897E-04 0.608E-06
CGA:  12    -0.367861344678E+03   -0.27542E-04   -0.28901E-04  7056   0.403E-04 0.261E-04
CGA:  13    -0.367861362832E+03   -0.18155E-04   -0.18376E-04  7056   0.210E-04 0.127E-04
CGA:  14    -0.367861370081E+03   -0.72483E-05   -0.81181E-05  7056   0.900E-05 0.115E-04
  26 F= -.36786137E+03 E0= -.36786137E+03  d E =-.722910E-02  mag=    12.0000
       N       E                     dE             d eps       ncg     rms          ort
SDA:   1    -0.367423527278E+03    0.43784E+00    0.00000E+00  7056   0.109E+01 0.000E+00
CGA:   2    -0.367778019654E+03   -0.35449E+00   -0.35448E+00  7056   0.388E+00-0.581E-03
CGA:   3    -0.367857279695E+03   -0.79260E-01   -0.79257E-01  7056   0.811E-01-0.403E-03
CGA:   4    -0.367873463246E+03   -0.16184E-01   -0.16243E-01  7056   0.175E-01 0.338E-03
CGA:   5    -0.367877664521E+03   -0.42013E-02   -0.42053E-02  7056   0.486E-02 0.385E-04
CGA:   6    -0.367879037445E+03   -0.13729E-02   -0.13668E-02  7056   0.189E-02-0.112E-03
CGA:   7    -0.367879576526E+03   -0.53908E-03   -0.53692E-03  7056   0.739E-03-0.511E-04
CGA:   8    -0.367879809625E+03   -0.23310E-03   -0.23299E-03  7056   0.251E-03-0.145E-04
CGA:   9    -0.367879883167E+03   -0.73542E-04   -0.73685E-04  7056   0.735E-04 0.443E-05
CGA:  10    -0.367879905318E+03   -0.22151E-04   -0.22319E-04  7056   0.217E-04 0.536E-05
CGA:  11    -0.367879911338E+03   -0.60205E-05   -0.63927E-05  7056   0.833E-05 0.691E-05
  27 F= -.36787991E+03 E0= -.36787991E+03  d E =-.185413E-01  mag=    12.0000
       N       E                     dE             d eps       ncg     rms          ort
SDA:   1    -0.367480162885E+03    0.39974E+00    0.00000E+00  7056   0.944E+00 0.000E+00
CGA:   2    -0.367811696641E+03   -0.33153E+00   -0.33148E+00  7056   0.307E+00 0.148E-02
CGA:   3    -0.367870196141E+03   -0.58499E-01   -0.58558E-01  7056   0.547E-01 0.120E-03
CGA:   4    -0.367881245841E+03   -0.11050E-01   -0.10960E-01  7056   0.113E-01-0.814E-03
CGA:   5    -0.367883786881E+03   -0.25410E-02   -0.25409E-02  7056   0.256E-02-0.411E-05
CGA:   6    -0.367884373388E+03   -0.58651E-03   -0.59759E-03  7056   0.712E-03 0.153E-03
CGA:   7    -0.367884596737E+03   -0.22335E-03   -0.22358E-03  7056   0.302E-03 0.384E-04
CGA:   8    -0.367884710740E+03   -0.11400E-03   -0.11391E-03  7056   0.135E-03 0.178E-05
CGA:   9    -0.367884757840E+03   -0.47099E-04   -0.47573E-04  7056   0.473E-04-0.102E-04
CGA:  10    -0.367884773445E+03   -0.15605E-04   -0.16243E-04  7056   0.188E-04-0.984E-05
CGA:  11    -0.367884779400E+03   -0.59551E-05   -0.66044E-05  7056   0.115E-04-0.489E-05
  28 F= -.36788478E+03 E0= -.36788478E+03  d E =-.486806E-02  mag=    12.0000
       N       E                     dE             d eps       ncg     rms          ort
SDA:   1    -0.367543767370E+03    0.34101E+00    0.00000E+00  7056   0.819E+00 0.000E+00
CGA:   2    -0.367823373658E+03   -0.27961E+00   -0.27957E+00  7056   0.285E+00 0.130E-02
CGA:   3    -0.367875895684E+03   -0.52522E-01   -0.52578E-01  7056   0.536E-01-0.682E-05
CGA:   4    -0.367886632400E+03   -0.10737E-01   -0.10669E-01  7056   0.990E-02-0.640E-03
CGA:   5    -0.367888901959E+03   -0.22696E-02   -0.22683E-02  7056   0.228E-02-0.179E-04
CGA:   6    -0.367889425663E+03   -0.52370E-03   -0.53063E-03  7056   0.630E-03 0.989E-04
CGA:   7    -0.367889628257E+03   -0.20259E-03   -0.20255E-03  7056   0.281E-03 0.497E-05
CGA:   8    -0.367889736917E+03   -0.10866E-03   -0.11220E-03  7056   0.149E-03-0.365E-04
CGA:   9    -0.367889782099E+03   -0.45182E-04   -0.46523E-04  7056   0.531E-04-0.242E-04
CGA:  10    -0.367889797424E+03   -0.15326E-04   -0.15853E-04  7056   0.206E-04-0.105E-04
CGA:  11    -0.367889798469E+03   -0.10445E-05   -0.14102E-04  7056   0.666E-04-0.241E-04
CGA:  12    -0.367889814969E+03   -0.16500E-04   -0.15895E-04  7056   0.137E-04-0.619E-05
CGA:  13    -0.367889816708E+03   -0.17389E-05   -0.22644E-05  7056   0.312E-05 0.351E-05
  29 F= -.36788982E+03 E0= -.36788982E+03  d E =-.503731E-02  mag=    12.0000
       N       E                     dE             d eps       ncg     rms          ort
SDA:   1    -0.344017251417E+03    0.23873E+02    0.00000E+00  7056   0.567E+02 0.000E+00
CGA:   2    -0.363444030769E+03   -0.19427E+02   -0.19425E+02  7056   0.185E+02 0.319E-01
CGA:   3    -0.366958720811E+03   -0.35147E+01   -0.35228E+01  7056   0.357E+01 0.412E-02
CGA:   4    -0.367662637202E+03   -0.70392E+00   -0.70404E+00  7056   0.684E+00-0.215E-02
CGA:   5    -0.367825429010E+03   -0.16279E+00   -0.16276E+00  7056   0.174E+00-0.576E-03
CGA:   6    -0.367869640792E+03   -0.44212E-01   -0.44203E-01  7056   0.580E-01-0.320E-03
CGA:   7    -0.367887794102E+03   -0.18153E-01   -0.18162E-01  7056   0.261E-01-0.853E-03
CGA:   8    -0.367896571198E+03   -0.87771E-02   -0.88123E-02  7056   0.101E-01-0.909E-03
CGA:   9    -0.367899745319E+03   -0.31741E-02   -0.31858E-02  7056   0.293E-02-0.548E-03
CGA:  10    -0.367900631236E+03   -0.88592E-03   -0.88869E-03  7056   0.866E-03-0.196E-03
CGA:  11    -0.367900938108E+03   -0.30687E-03   -0.31149E-03  7056   0.403E-03-0.590E-04
CGA:  12    -0.367901112307E+03   -0.17420E-03   -0.18098E-03  7056   0.317E-03-0.404E-04
CGA:  13    -0.367901211362E+03   -0.99055E-04   -0.98757E-04  7056   0.165E-03 0.114E-04
CGA:  14    -0.367901277736E+03   -0.66375E-04   -0.68088E-04  7056   0.771E-04-0.224E-04
CGA:  15    -0.367901306409E+03   -0.28673E-04   -0.41474E-04  7056   0.720E-04-0.429E-04
CGA:  16    -0.367901329554E+03   -0.23144E-04   -0.22905E-04  7056   0.222E-04-0.112E-04
CGA:  17    -0.367901335132E+03   -0.55783E-05   -0.11048E-04  7056   0.514E-04-0.218E-04
  30 F= -.36790134E+03 E0= -.36790134E+03  d E =-.115184E-01  mag=    12.0000
       N       E                     dE             d eps       ncg     rms          ort
SDA:   1    -0.340393174417E+03    0.27508E+02    0.00000E+00  7056   0.644E+02 0.000E+00
CGA:   2    -0.363259847782E+03   -0.22867E+02   -0.22866E+02  7056   0.183E+02 0.138E-01
CGA:   3    -0.366971658574E+03   -0.37118E+01   -0.37206E+01  7056   0.337E+01 0.791E-02
CGA:   4    -0.367643922536E+03   -0.67226E+00   -0.67215E+00  7056   0.732E+00-0.232E-02
CGA:   5    -0.367814936375E+03   -0.17101E+00   -0.17101E+00  7056   0.183E+00-0.296E-03
CGA:   6    -0.367863334190E+03   -0.48398E-01   -0.48381E-01  7056   0.636E-01-0.402E-03
CGA:   7    -0.367883477810E+03   -0.20144E-01   -0.20140E-01  7056   0.289E-01-0.950E-03
CGA:   8    -0.367892949015E+03   -0.94712E-02   -0.94788E-02  7056   0.105E-01-0.672E-03
CGA:   9    -0.367896294077E+03   -0.33451E-02   -0.33468E-02  7056   0.300E-02-0.485E-03
CGA:  10    -0.367897242934E+03   -0.94886E-03   -0.95125E-03  7056   0.970E-03-0.236E-03
CGA:  11    -0.367897585278E+03   -0.34234E-03   -0.34530E-03  7056   0.469E-03-0.459E-04
CGA:  12    -0.367897791009E+03   -0.20573E-03   -0.20679E-03  7056   0.328E-03-0.776E-05
CGA:  13    -0.367897924027E+03   -0.13302E-03   -0.13250E-03  7056   0.178E-03 0.731E-05
CGA:  14    -0.367898003685E+03   -0.79658E-04   -0.83698E-04  7056   0.990E-04-0.325E-04
CGA:  15    -0.367898038725E+03   -0.35039E-04   -0.38529E-04  7056   0.535E-04-0.256E-04
CGA:  16    -0.367897987408E+03    0.51316E-04   -0.51352E-04  7056   0.386E-03-0.109E-03
CGA:  17    -0.367898066901E+03   -0.79492E-04   -0.83150E-04  7056   0.495E-04 0.197E-04
CGA:  18    -0.367898083266E+03   -0.16366E-04   -0.16442E-04  7056   0.107E-04 0.105E-05
CGA:  19    -0.367898087585E+03   -0.43184E-05   -0.42881E-05  7056   0.407E-05 0.409E-05
  31 F= -.36789809E+03 E0= -.36789809E+03  d E =0.324755E-02  mag=    12.0000
       N       E                     dE             d eps       ncg     rms          ort
SDA:   1    -0.355618066869E+03    0.12280E+02    0.00000E+00  7056   0.307E+02 0.000E+00
CGA:   2    -0.364472910536E+03   -0.88548E+01   -0.88641E+01  7056   0.145E+02 0.726E-02
CGA:   3    -0.367155793339E+03   -0.26829E+01   -0.26942E+01  7056   0.237E+01 0.358E-01
CGA:   4    -0.367644841207E+03   -0.48905E+00   -0.48928E+00  7056   0.443E+00 0.304E-02
CGA:   5    -0.367748357586E+03   -0.10352E+00   -0.10349E+00  7056   0.116E+00-0.321E-03
CGA:   6    -0.367777456127E+03   -0.29099E-01   -0.29051E-01  7056   0.373E-01-0.517E-03
CGA:   7    -0.367788656749E+03   -0.11201E-01   -0.11189E-01  7056   0.150E-01-0.261E-03
CGA:   8    -0.367793756900E+03   -0.51002E-02   -0.50996E-02  7056   0.583E-02-0.218E-03
CGA:   9    -0.367795623879E+03   -0.18670E-02   -0.18642E-02  7056   0.179E-02-0.136E-03
CGA:  10    -0.367796185152E+03   -0.56127E-03   -0.56031E-03  7056   0.521E-03-0.405E-04
CGA:  11    -0.367796366652E+03   -0.18150E-03   -0.18124E-03  7056   0.211E-03 0.200E-04
CGA:  12    -0.367796448086E+03   -0.81434E-04   -0.80557E-04  7056   0.110E-03 0.363E-04
CGA:  13    -0.367796492128E+03   -0.44042E-04   -0.44122E-04  7056   0.549E-04 0.323E-04
CGA:  14    -0.367796513942E+03   -0.21814E-04   -0.22506E-04  7056   0.238E-04 0.252E-04
CGA:  15    -0.367796522519E+03   -0.85774E-05   -0.96434E-05  7056   0.114E-04 0.163E-04
  32 F= -.36779652E+03 E0= -.36779652E+03  d E =0.101565E+00  mag=    12.0000
       N       E                     dE             d eps       ncg     rms          ort
SDA:   1    -0.364275402020E+03    0.35211E+01    0.00000E+00  7056   0.897E+01 0.000E+00
CGA:   2    -0.366942825809E+03   -0.26674E+01   -0.26675E+01  7056   0.422E+01-0.328E-02
CGA:   3    -0.367734320383E+03   -0.79149E+00   -0.79246E+00  7056   0.723E+00-0.664E-03
CGA:   4    -0.367880284198E+03   -0.14596E+00   -0.14612E+00  7056   0.144E+00 0.985E-03
CGA:   5    -0.367914893658E+03   -0.34609E-01   -0.34629E-01  7056   0.380E-01 0.210E-03
CGA:   6    -0.367924719851E+03   -0.98262E-02   -0.98020E-02  7056   0.133E-01-0.427E-03
CGA:   7    -0.367928674068E+03   -0.39542E-02   -0.39492E-02  7056   0.518E-02-0.359E-03
CGA:   8    -0.367930367747E+03   -0.16937E-02   -0.16968E-02  7056   0.195E-02-0.133E-03
CGA:   9    -0.367930961104E+03   -0.59336E-03   -0.59332E-03  7056   0.593E-03-0.382E-04
CGA:  10    -0.367931148976E+03   -0.18787E-03   -0.18800E-03  7056   0.184E-03-0.137E-04
CGA:  11    -0.367931214753E+03   -0.65777E-04   -0.65617E-04  7056   0.760E-04 0.301E-05
CGA:  12    -0.367931242506E+03   -0.27753E-04   -0.27213E-04  7056   0.344E-04 0.152E-04
CGA:  13    -0.367931255717E+03   -0.13210E-04   -0.13196E-04  7056   0.165E-04 0.115E-04
CGA:  14    -0.367931261407E+03   -0.56901E-05   -0.60755E-05  7056   0.734E-05 0.909E-05
  33 F= -.36793126E+03 E0= -.36793126E+03  d E =-.134739E+00  mag=    12.0000
       N       E                     dE             d eps       ncg     rms          ort
SDA:   1    -0.366356183311E+03    0.15751E+01    0.00000E+00  7056   0.370E+01 0.000E+00
CGA:   2    -0.367675203245E+03   -0.13190E+01   -0.13190E+01  7056   0.105E+01 0.424E-03
CGA:   3    -0.367889242176E+03   -0.21404E+00   -0.21415E+00  7056   0.196E+00 0.117E-03
CGA:   4    -0.367927455702E+03   -0.38214E-01   -0.38122E-01  7056   0.404E-01-0.991E-03
CGA:   5    -0.367936552707E+03   -0.90970E-02   -0.91041E-02  7056   0.905E-02 0.875E-04
CGA:   6    -0.367938822775E+03   -0.22701E-02   -0.22744E-02  7056   0.273E-02 0.875E-04
CGA:   7    -0.367939701144E+03   -0.87837E-03   -0.88072E-03  7056   0.130E-02-0.105E-03
CGA:   8    -0.367940124556E+03   -0.42341E-03   -0.42559E-03  7056   0.512E-03-0.492E-04
CGA:   9    -0.367940291240E+03   -0.16668E-03   -0.16839E-03  7056   0.159E-03-0.402E-04
CGA:  10    -0.367940343548E+03   -0.52309E-04   -0.55097E-04  7056   0.661E-04-0.376E-04
CGA:  11    -0.367940361722E+03   -0.18173E-04   -0.18748E-04  7056   0.308E-04-0.868E-05
CGA:  12    -0.367940373179E+03   -0.11457E-04   -0.15153E-04  7056   0.425E-04-0.144E-04
CGA:  13    -0.367940380506E+03   -0.73276E-05   -0.73507E-05  7056   0.248E-04-0.694E-05
  34 F= -.36794038E+03 E0= -.36794038E+03  d E =-.911910E-02  mag=    12.0000
       N       E                     dE             d eps       ncg     rms          ort
SDA:   1    -0.362353427818E+03    0.55869E+01    0.00000E+00  7056   0.131E+02 0.000E+00
CGA:   2    -0.366951897569E+03   -0.45985E+01   -0.45984E+01  7056   0.432E+01-0.228E-02
CGA:   3    -0.367739910728E+03   -0.78801E+00   -0.78978E+00  7056   0.807E+00 0.438E-02
CGA:   4    -0.367899495086E+03   -0.15958E+00   -0.15941E+00  7056   0.153E+00-0.225E-02
CGA:   5    -0.367935501673E+03   -0.36007E-01   -0.35974E-01  7056   0.358E-01-0.427E-03
CGA:   6    -0.367944253470E+03   -0.87518E-02   -0.87648E-02  7056   0.108E-01 0.188E-03
CGA:   7    -0.367947656178E+03   -0.34027E-02   -0.34048E-02  7056   0.485E-02-0.293E-03
CGA:   8    -0.367949320252E+03   -0.16641E-02   -0.16760E-02  7056   0.203E-02-0.241E-03
CGA:   9    -0.367949948547E+03   -0.62830E-03   -0.63022E-03  7056   0.600E-03-0.100E-03
CGA:  10    -0.367950143779E+03   -0.19523E-03   -0.19868E-03  7056   0.206E-03-0.883E-04
CGA:  11    -0.367950207298E+03   -0.63518E-04   -0.64138E-04  7056   0.885E-04-0.114E-04
CGA:  12    -0.367950246403E+03   -0.39105E-04   -0.44151E-04  7056   0.940E-04-0.235E-04
CGA:  13    -0.367950265542E+03   -0.19139E-04   -0.19506E-04  7056   0.452E-04 0.896E-05
CGA:  14    -0.367950283041E+03   -0.17499E-04   -0.17725E-04  7056   0.231E-04-0.626E-05
CGA:  15    -0.367950087533E+03    0.19551E-03   -0.10560E-03  7056   0.101E-02-0.134E-03
CGA:  16    -0.367950251482E+03   -0.16395E-03   -0.18420E-03  7056   0.109E-03 0.492E-04
CGA:  17    -0.367950298290E+03   -0.46808E-04   -0.44867E-04  7056   0.241E-04-0.109E-04
CGA:  18    -0.367950308359E+03   -0.10069E-04   -0.99195E-05  7056   0.982E-05-0.142E-05
CGA:  19    -0.367950309020E+03   -0.66058E-06   -0.20308E-05  7056   0.388E-05 0.407E-05
  35 F= -.36795031E+03 E0= -.36795031E+03  d E =-.992851E-02  mag=    12.0000
       N       E                     dE             d eps       ncg     rms          ort
SDA:   1    -0.353798039596E+03    0.14152E+02    0.00000E+00  7056   0.304E+02 0.000E+00
CGA:   2    -0.363595101126E+03   -0.97971E+01   -0.98136E+01  7056   0.108E+02-0.603E-03
CGA:   3    -0.365965567282E+03   -0.23705E+01   -0.23790E+01  7056   0.251E+01 0.124E-01
CGA:   4    -0.366472386382E+03   -0.50682E+00   -0.50782E+00  7056   0.578E+00 0.174E-03
CGA:   5    -0.366618003181E+03   -0.14562E+00   -0.14555E+00  7056   0.171E+00 0.319E-03
CGA:   6    -0.366667390892E+03   -0.49388E-01   -0.49339E-01  7056   0.681E-01-0.318E-03
CGA:   7    -0.366686637489E+03   -0.19247E-01   -0.19192E-01  7056   0.251E-01-0.307E-03
CGA:   8    -0.366694614171E+03   -0.79767E-02   -0.79698E-02  7056   0.792E-02-0.457E-04
CGA:   9    -0.366697064434E+03   -0.24503E-02   -0.24460E-02  7056   0.229E-02-0.310E-04
CGA:  10    -0.366697810449E+03   -0.74602E-03   -0.73589E-03  7056   0.680E-03-0.838E-04
CGA:  11    -0.366698055400E+03   -0.24495E-03   -0.24210E-03  7056   0.271E-03-0.423E-04
CGA:  12    -0.366698160197E+03   -0.10480E-03   -0.10417E-03  7056   0.142E-03-0.262E-04
CGA:  13    -0.366698197121E+03   -0.36924E-04   -0.38620E-04  7056   0.605E-04 0.127E-04
CGA:  14    -0.366698227157E+03   -0.30036E-04   -0.30979E-04  7056   0.472E-04-0.214E-04
CGA:  15    -0.366698234569E+03   -0.74124E-05   -0.81914E-05  7056   0.214E-04 0.490E-05
  36 F= -.36669823E+03 E0= -.36669823E+03  d E =0.125207E+01  mag=    12.0000
       N       E                     dE             d eps       ncg     rms          ort
SDA:   1    -0.363508239457E+03    0.31900E+01    0.00000E+00  7056   0.997E+01 0.000E+00
CGA:   2    -0.366767922774E+03   -0.32597E+01   -0.32590E+01  7056   0.327E+01-0.509E-02
CGA:   3    -0.367557175192E+03   -0.78925E+00   -0.78962E+00  7056   0.627E+00-0.259E-02
CGA:   4    -0.367695612085E+03   -0.13844E+00   -0.13868E+00  7056   0.176E+00 0.823E-03
CGA:   5    -0.367736927851E+03   -0.41316E-01   -0.41256E-01  7056   0.526E-01-0.423E-03
CGA:   6    -0.367752675352E+03   -0.15748E-01   -0.15733E-01  7056   0.200E-01-0.186E-03
CGA:   7    -0.367758369178E+03   -0.56938E-02   -0.57106E-02  7056   0.767E-02 0.181E-03
CGA:   8    -0.367760708685E+03   -0.23395E-02   -0.23413E-02  7056   0.240E-02 0.244E-04
CGA:   9    -0.367761450616E+03   -0.74193E-03   -0.74135E-03  7056   0.681E-03-0.977E-05
CGA:  10    -0.367761657268E+03   -0.20665E-03   -0.20762E-03  7056   0.192E-03 0.160E-04
CGA:  11    -0.367761720171E+03   -0.62903E-04   -0.63619E-04  7056   0.681E-04 0.187E-04
CGA:  12    -0.367761744695E+03   -0.24524E-04   -0.24931E-04  7056   0.294E-04 0.149E-04
CGA:  13    -0.367761758674E+03   -0.13979E-04   -0.13888E-04  7056   0.167E-04 0.316E-05
CGA:  14    -0.367761761796E+03   -0.31225E-05   -0.41909E-05  7056   0.728E-05 0.798E-05
  37 F= -.36776176E+03 E0= -.36776176E+03  d E =-.106353E+01  mag=    12.0000
       N       E                     dE             d eps       ncg     rms          ort
SDA:   1    -0.366349246090E+03    0.14125E+01    0.00000E+00  7056   0.370E+01 0.000E+00
CGA:   2    -0.367558990520E+03   -0.12097E+01   -0.12099E+01  7056   0.123E+01 0.421E-02
CGA:   3    -0.367853535469E+03   -0.29454E+00   -0.29456E+00  7056   0.251E+00-0.952E-03
CGA:   4    -0.367907217415E+03   -0.53682E-01   -0.53739E-01  7056   0.677E-01 0.199E-03
CGA:   5    -0.367923368717E+03   -0.16151E-01   -0.16135E-01  7056   0.203E-01-0.191E-03
CGA:   6    -0.367929393205E+03   -0.60245E-02   -0.60258E-02  7056   0.770E-02 0.398E-04
CGA:   7    -0.367931558614E+03   -0.21654E-02   -0.21729E-02  7056   0.287E-02 0.159E-03
CGA:   8    -0.367932462096E+03   -0.90348E-03   -0.90355E-03  7056   0.908E-03 0.293E-05
CGA:   9    -0.367932746475E+03   -0.28438E-03   -0.28426E-03  7056   0.259E-03-0.101E-04
CGA:  10    -0.367932823643E+03   -0.77168E-04   -0.77330E-04  7056   0.700E-04 0.720E-05
CGA:  11    -0.367932846893E+03   -0.23250E-04   -0.23251E-04  7056   0.246E-04 0.777E-05
CGA:  12    -0.367932856221E+03   -0.93283E-05   -0.92426E-05  7056   0.108E-04 0.555E-05
  38 F= -.36793286E+03 E0= -.36793286E+03  d E =-.171094E+00  mag=    12.0000
       N       E                     dE             d eps       ncg     rms          ort
SDA:   1    -0.367855245284E+03    0.77602E-01    0.00000E+00  7056   0.220E+00 0.000E+00
CGA:   2    -0.367926390820E+03   -0.71146E-01   -0.71146E-01  7056   0.696E-01 0.674E-03
CGA:   3    -0.367942952058E+03   -0.16561E-01   -0.16547E-01  7056   0.165E-01-0.201E-03
CGA:   4    -0.367946284835E+03   -0.33328E-02   -0.33091E-02  7056   0.383E-02-0.212E-03
CGA:   5    -0.367947212957E+03   -0.92812E-03   -0.92462E-03  7056   0.119E-02-0.505E-04
CGA:   6    -0.367947530253E+03   -0.31730E-03   -0.31960E-03  7056   0.418E-03 0.596E-04
CGA:   7    -0.367947648541E+03   -0.11829E-03   -0.11968E-03  7056   0.154E-03 0.381E-04
CGA:   8    -0.367947708753E+03   -0.60212E-04   -0.61088E-04  7056   0.637E-04-0.155E-04
CGA:   9    -0.367947726712E+03   -0.17959E-04   -0.17974E-04  7056   0.176E-04-0.473E-05
CGA:  10    -0.367947732273E+03   -0.55617E-05   -0.56984E-05  7056   0.667E-05-0.351E-05
  39 F= -.36794773E+03 E0= -.36794773E+03  d E =-.148761E-01  mag=    12.0000
       N       E                     dE             d eps       ncg     rms          ort
SDA:   1    -0.367817429134E+03    0.13030E+00    0.00000E+00  7056   0.339E+00 0.000E+00
CGA:   2    -0.367924078694E+03   -0.10665E+00   -0.10665E+00  7056   0.114E+00 0.972E-03
CGA:   3    -0.367949862858E+03   -0.25784E-01   -0.25797E-01  7056   0.296E-01 0.448E-04
CGA:   4    -0.367955737281E+03   -0.58744E-02   -0.58211E-02  7056   0.601E-02-0.499E-03
CGA:   5    -0.367957222073E+03   -0.14848E-02   -0.14790E-02  7056   0.184E-02-0.108E-03
CGA:   6    -0.367957698672E+03   -0.47660E-03   -0.48044E-03  7056   0.632E-03 0.109E-03
CGA:   7    -0.367957879924E+03   -0.18125E-03   -0.18286E-03  7056   0.229E-03 0.601E-04
CGA:   8    -0.367957972157E+03   -0.92233E-04   -0.93961E-04  7056   0.981E-04-0.227E-04
CGA:   9    -0.367958001693E+03   -0.29536E-04   -0.30205E-04  7056   0.320E-04-0.169E-04
CGA:  10    -0.367958010324E+03   -0.86317E-05   -0.87921E-05  7056   0.100E-04-0.571E-05
  40 F= -.36795801E+03 E0= -.36795801E+03  d E =-.102781E-01  mag=    12.0000
       N       E                     dE             d eps       ncg     rms          ort
SDA:   1    -0.367950932952E+03    0.70687E-02    0.00000E+00  7056   0.214E-01 0.000E+00
CGA:   2    -0.367957744344E+03   -0.68114E-02   -0.68113E-02  7056   0.810E-02-0.316E-04
CGA:   3    -0.367959416333E+03   -0.16720E-02   -0.16888E-02  7056   0.181E-02 0.140E-03
CGA:   4    -0.367959801189E+03   -0.38486E-03   -0.37865E-03  7056   0.447E-03-0.580E-04
CGA:   5    -0.367959905480E+03   -0.10429E-03   -0.10403E-03  7056   0.131E-03-0.378E-05
CGA:   6    -0.367959935231E+03   -0.29751E-04   -0.30467E-04  7056   0.496E-04 0.991E-05
CGA:   7    -0.367959950040E+03   -0.14810E-04   -0.14816E-04  7056   0.190E-04 0.261E-06
CGA:   8    -0.367959957294E+03   -0.72535E-05   -0.76140E-05  7056   0.935E-05-0.374E-05
  41 F= -.36795996E+03 E0= -.36795996E+03  d E =-.194697E-02  mag=    12.0000
       N       E                     dE             d eps       ncg     rms          ort
SDA:   1    -0.367954524616E+03    0.54254E-02    0.00000E+00  7056   0.158E-01 0.000E+00
CGA:   2    -0.367959104631E+03   -0.45800E-02   -0.45819E-02  7056   0.718E-02 0.111E-03
CGA:   3    -0.367960459813E+03   -0.13552E-02   -0.13716E-02  7056   0.136E-02 0.132E-03
CGA:   4    -0.367960768573E+03   -0.30876E-03   -0.30144E-03  7056   0.294E-03-0.904E-04
CGA:   5    -0.367960840137E+03   -0.71564E-04   -0.70378E-04  7056   0.937E-04-0.313E-04
CGA:   6    -0.367960854680E+03   -0.14543E-04   -0.16131E-04  7056   0.237E-04 0.159E-04
CGA:   7    -0.367960857546E+03   -0.28668E-05   -0.44232E-05  7056   0.959E-05 0.121E-04
  42 F= -.36796086E+03 E0= -.36796086E+03  d E =-.900252E-03  mag=    12.0000
       N       E                     dE             d eps       ncg     rms          ort
SDA:   1    -0.367949860371E+03    0.10994E-01    0.00000E+00  7056   0.305E-01 0.000E+00
CGA:   2    -0.367958654872E+03   -0.87945E-02   -0.87944E-02  7056   0.151E-01 0.146E-04
CGA:   3    -0.367961344872E+03   -0.26900E-02   -0.27154E-02  7056   0.237E-02 0.218E-03
CGA:   4    -0.367961841819E+03   -0.49695E-03   -0.49282E-03  7056   0.471E-03-0.563E-04
CGA:   5    -0.367961955376E+03   -0.11356E-03   -0.11217E-03  7056   0.140E-03-0.446E-04
CGA:   6    -0.367961980689E+03   -0.25314E-04   -0.26002E-04  7056   0.334E-04 0.100E-04
CGA:   7    -0.367961986860E+03   -0.61705E-05   -0.70315E-05  7056   0.116E-04 0.116E-04
  43 F= -.36796199E+03 E0= -.36796199E+03  d E =-.112931E-02  mag=    12.0000
       N       E                     dE             d eps       ncg     rms          ort
SDA:   1    -0.367905869059E+03    0.56112E-01    0.00000E+00  7056   0.144E+00 0.000E+00
CGA:   2    -0.367949504539E+03   -0.43635E-01   -0.43640E-01  7056   0.690E-01-0.213E-03
CGA:   3    -0.367961576354E+03   -0.12072E-01   -0.12123E-01  7056   0.104E-01 0.453E-03
CGA:   4    -0.367963681382E+03   -0.21050E-02   -0.21028E-02  7056   0.197E-02-0.395E-04
CGA:   5    -0.367964137821E+03   -0.45644E-03   -0.45476E-03  7056   0.500E-03-0.592E-04
CGA:   6    -0.367964250399E+03   -0.11258E-03   -0.11250E-03  7056   0.135E-03-0.301E-05
CGA:   7    -0.367964289575E+03   -0.39176E-04   -0.39139E-04  7056   0.541E-04 0.111E-05
CGA:   8    -0.367964310665E+03   -0.21090E-04   -0.22330E-04  7056   0.323E-04-0.825E-05
CGA:   9    -0.367964319438E+03   -0.87730E-05   -0.89024E-05  7056   0.107E-04-0.220E-05
  44 F= -.36796432E+03 E0= -.36796432E+03  d E =-.233258E-02  mag=    12.0000
       N       E                     dE             d eps       ncg     rms          ort
SDA:   1    -0.364999031370E+03    0.29653E+01    0.00000E+00  7056   0.718E+01 0.000E+00
CGA:   2    -0.367265647420E+03   -0.22666E+01   -0.22666E+01  7056   0.332E+01-0.270E-02
CGA:   3    -0.367843407000E+03   -0.57776E+00   -0.57858E+00  7056   0.497E+00 0.252E-02
CGA:   4    -0.367943498033E+03   -0.10009E+00   -0.10008E+00  7056   0.945E-01-0.279E-03
CGA:   5    -0.367965012092E+03   -0.21514E-01   -0.21503E-01  7056   0.227E-01-0.325E-03
CGA:   6    -0.367970404354E+03   -0.53923E-02   -0.53884E-02  7056   0.623E-02-0.154E-03
CGA:   7    -0.367972277032E+03   -0.18727E-02   -0.18792E-02  7056   0.263E-02-0.162E-03
CGA:   8    -0.367973196799E+03   -0.91977E-03   -0.93409E-03  7056   0.120E-02-0.144E-03
CGA:   9    -0.367973575723E+03   -0.37892E-03   -0.38269E-03  7056   0.389E-03-0.562E-04
CGA:  10    -0.367973701435E+03   -0.12571E-03   -0.12870E-03  7056   0.129E-03-0.408E-04
CGA:  11    -0.367973742981E+03   -0.41546E-04   -0.41726E-04  7056   0.544E-04-0.212E-05
CGA:  12    -0.367973765747E+03   -0.22766E-04   -0.22938E-04  7056   0.361E-04-0.111E-05
CGA:  13    -0.367973774477E+03   -0.87301E-05   -0.91153E-05  7056   0.147E-04 0.125E-04
  45 F= -.36797377E+03 E0= -.36797377E+03  d E =-.945504E-02  mag=    12.0000
       N       E                     dE             d eps       ncg     rms          ort
SDA:   1    -0.364881179366E+03    0.30926E+01    0.00000E+00  7056   0.748E+01 0.000E+00
CGA:   2    -0.367256978402E+03   -0.23758E+01   -0.23757E+01  7056   0.337E+01-0.652E-03
CGA:   3    -0.367850829884E+03   -0.59385E+00   -0.59463E+00  7056   0.519E+00 0.140E-02
CGA:   4    -0.367954749788E+03   -0.10392E+00   -0.10388E+00  7056   0.990E-01-0.661E-03
CGA:   5    -0.367977262906E+03   -0.22513E-01   -0.22502E-01  7056   0.238E-01-0.245E-03
CGA:   6    -0.367982984294E+03   -0.57214E-02   -0.57194E-02  7056   0.667E-02-0.628E-04
CGA:   7    -0.367985007917E+03   -0.20236E-02   -0.20278E-02  7056   0.286E-02-0.141E-03
CGA:   8    -0.367986008624E+03   -0.10007E-02   -0.10128E-02  7056   0.129E-02-0.142E-03
CGA:   9    -0.367986411629E+03   -0.40301E-03   -0.40492E-03  7056   0.405E-03-0.389E-04
CGA:  10    -0.367986543358E+03   -0.13173E-03   -0.13375E-03  7056   0.134E-03-0.353E-04
CGA:  11    -0.367986586067E+03   -0.42708E-04   -0.42496E-04  7056   0.535E-04 0.343E-05
CGA:  12    -0.367986608119E+03   -0.22052E-04   -0.21506E-04  7056   0.303E-04 0.535E-05
CGA:  13    -0.367986615518E+03   -0.73993E-05   -0.81526E-05  7056   0.132E-04 0.152E-04
  46 F= -.36798662E+03 E0= -.36798662E+03  d E =-.128410E-01  mag=    12.0000
       N       E                     dE             d eps       ncg     rms          ort
SDA:   1    -0.367682710998E+03    0.30390E+00    0.00000E+00  7056   0.954E+00 0.000E+00
CGA:   2    -0.367888783304E+03   -0.20607E+00   -0.20635E+00  7056   0.290E+00 0.204E-02
CGA:   3    -0.367960127881E+03   -0.71345E-01   -0.71331E-01  7056   0.800E-01-0.494E-03
CGA:   4    -0.367975469099E+03   -0.15341E-01   -0.15323E-01  7056   0.157E-01-0.239E-03
CGA:   5    -0.367978952431E+03   -0.34833E-02   -0.34817E-02  7056   0.406E-02-0.271E-04
CGA:   6    -0.367980024392E+03   -0.10720E-02   -0.10719E-02  7056   0.173E-02-0.669E-05
CGA:   7    -0.367980538114E+03   -0.51372E-03   -0.51342E-03  7056   0.809E-03 0.182E-04
CGA:   8    -0.367980816663E+03   -0.27855E-03   -0.27797E-03  7056   0.353E-03 0.935E-05
CGA:   9    -0.367980932497E+03   -0.11583E-03   -0.11598E-03  7056   0.127E-03-0.396E-05
CGA:  10    -0.367980976576E+03   -0.44078E-04   -0.44800E-04  7056   0.495E-04-0.104E-04
CGA:  11    -0.367980993578E+03   -0.17002E-04   -0.17298E-04  7056   0.203E-04-0.330E-05
CGA:  12    -0.367980999695E+03   -0.61169E-05   -0.60510E-05  7056   0.629E-05 0.270E-05
  47 F= -.36798100E+03 E0= -.36798100E+03  d E =0.561582E-02  mag=    12.0000
       N       E                     dE             d eps       ncg     rms          ort
SDA:   1    -0.367802992704E+03    0.17800E+00    0.00000E+00  7056   0.450E+00 0.000E+00
CGA:   2    -0.367938070927E+03   -0.13508E+00   -0.13507E+00  7056   0.187E+00-0.718E-03
CGA:   3    -0.367974954886E+03   -0.36884E-01   -0.36879E-01  7056   0.345E-01-0.299E-03
CGA:   4    -0.367981414473E+03   -0.64596E-02   -0.65003E-02  7056   0.646E-02 0.332E-03
CGA:   5    -0.367982926418E+03   -0.15119E-02   -0.15162E-02  7056   0.161E-02 0.638E-04
CGA:   6    -0.367983357339E+03   -0.43092E-03   -0.42934E-03  7056   0.591E-03-0.538E-04
CGA:   7    -0.367983527145E+03   -0.16981E-03   -0.16993E-03  7056   0.258E-03-0.253E-04
CGA:   8    -0.367983609405E+03   -0.82260E-04   -0.82509E-04  7056   0.105E-03-0.602E-05
CGA:   9    -0.367983644048E+03   -0.34643E-04   -0.35305E-04  7056   0.403E-04-0.131E-04
CGA:  10    -0.367983654079E+03   -0.10030E-04   -0.10040E-04  7056   0.107E-04 0.770E-06
CGA:  11    -0.367983658061E+03   -0.39822E-05   -0.40277E-05  7056   0.515E-05-0.632E-06
  48 F= -.36798366E+03 E0= -.36798366E+03  d E =-.265837E-02  mag=    12.0000
       N       E                     dE             d eps       ncg     rms          ort
SDA:   1    -0.367553439385E+03    0.43021E+00    0.00000E+00  7056   0.105E+01 0.000E+00
CGA:   2    -0.367885665268E+03   -0.33223E+00   -0.33222E+00  7056   0.463E+00 0.108E-03
CGA:   3    -0.367968284893E+03   -0.82620E-01   -0.82741E-01  7056   0.730E-01 0.295E-03
CGA:   4    -0.367982715889E+03   -0.14431E-01   -0.14416E-01  7056   0.136E-01-0.173E-03
CGA:   5    -0.367985820791E+03   -0.31049E-02   -0.31021E-02  7056   0.321E-02-0.427E-04
CGA:   6    -0.367986589040E+03   -0.76825E-03   -0.76724E-03  7056   0.888E-03-0.192E-04
CGA:   7    -0.367986861114E+03   -0.27207E-03   -0.27269E-03  7056   0.391E-03-0.399E-04
CGA:   8    -0.367986993602E+03   -0.13249E-03   -0.13344E-03  7056   0.172E-03-0.152E-04
CGA:   9    -0.367987044639E+03   -0.51037E-04   -0.50951E-04  7056   0.496E-04 0.802E-05
CGA:  10    -0.367987063463E+03   -0.18824E-04   -0.19428E-04  7056   0.201E-04-0.788E-05
CGA:  11    -0.367987068418E+03   -0.49547E-05   -0.49743E-05  7056   0.697E-05 0.253E-05
  49 F= -.36798707E+03 E0= -.36798707E+03  d E =-.341036E-02  mag=    12.0000
       N       E                     dE             d eps       ncg     rms          ort
SDA:   1    -0.351670336696E+03    0.16317E+02    0.00000E+00  7056   0.588E+02 0.000E+00
CGA:   2    -0.363194351916E+03   -0.11524E+02   -0.11723E+02  7056   0.141E+02 0.241E+00
CGA:   3    -0.366641318726E+03   -0.34470E+01   -0.34487E+01  7056   0.474E+01 0.996E-02
CGA:   4    -0.367497995711E+03   -0.85668E+00   -0.85705E+00  7056   0.112E+01 0.167E-03
CGA:   5    -0.367725815238E+03   -0.22782E+00   -0.22803E+00  7056   0.263E+00-0.321E-03
CGA:   6    -0.367795612782E+03   -0.69798E-01   -0.69787E-01  7056   0.111E+00-0.569E-03
CGA:   7    -0.367830789314E+03   -0.35177E-01   -0.35205E-01  7056   0.562E-01-0.760E-03
CGA:   8    -0.367849876236E+03   -0.19087E-01   -0.19087E-01  7056   0.249E-01 0.131E-04
CGA:   9    -0.367857685320E+03   -0.78091E-02   -0.78068E-02  7056   0.855E-02 0.804E-04
CGA:  10    -0.367860539438E+03   -0.28541E-02   -0.28574E-02  7056   0.313E-02-0.757E-04
CGA:  11    -0.367861707724E+03   -0.11683E-02   -0.11724E-02  7056   0.133E-02-0.473E-04
CGA:  12    -0.367862211288E+03   -0.50356E-03   -0.50126E-03  7056   0.508E-03 0.256E-04
CGA:  13    -0.367862396813E+03   -0.18553E-03   -0.18442E-03  7056   0.156E-03 0.190E-04
CGA:  14    -0.367862460820E+03   -0.64007E-04   -0.64935E-04  7056   0.559E-04-0.951E-05
CGA:  15    -0.367862476957E+03   -0.16138E-04   -0.16129E-04  7056   0.180E-04 0.115E-04
CGA:  16    -0.367862486631E+03   -0.96732E-05   -0.11032E-04  7056   0.147E-04-0.672E-05
  50 F= -.36786249E+03 E0= -.36786249E+03  d E =0.124582E+00  mag=    12.0000
       N       E                     dE             d eps       ncg     rms          ort
SDA:   1    -0.365514128187E+03    0.23483E+01    0.00000E+00  7056   0.590E+01 0.000E+00
CGA:   2    -0.367211689710E+03   -0.16976E+01   -0.16978E+01  7056   0.235E+01 0.688E-03
CGA:   3    -0.367712577367E+03   -0.50089E+00   -0.50129E+00  7056   0.576E+00 0.165E-04
CGA:   4    -0.367828787937E+03   -0.11621E+00   -0.11623E+00  7056   0.118E+00-0.532E-03
CGA:   5    -0.367857501153E+03   -0.28713E-01   -0.28691E-01  7056   0.357E-01-0.267E-03
CGA:   6    -0.367867200778E+03   -0.96996E-02   -0.97160E-02  7056   0.140E-01 0.291E-03
CGA:   7    -0.367871158688E+03   -0.39579E-02   -0.39684E-02  7056   0.505E-02 0.243E-03
CGA:   8    -0.367872836970E+03   -0.16783E-02   -0.16784E-02  7056   0.183E-02-0.331E-04
CGA:   9    -0.367873410374E+03   -0.57340E-03   -0.57301E-03  7056   0.605E-03-0.613E-04
CGA:  10    -0.367873596270E+03   -0.18590E-03   -0.18588E-03  7056   0.190E-03-0.452E-05
CGA:  11    -0.367873665691E+03   -0.69421E-04   -0.69281E-04  7056   0.798E-04 0.296E-05
CGA:  12    -0.367873703477E+03   -0.37786E-04   -0.40431E-04  7056   0.567E-04-0.151E-04
CGA:  13    -0.367873715323E+03   -0.11846E-04   -0.12419E-04  7056   0.231E-04 0.915E-05
CGA:  14    -0.367873722576E+03   -0.72528E-05   -0.73859E-05  7056   0.828E-05 0.248E-05
  51 F= -.36787372E+03 E0= -.36787372E+03  d E =-.112359E-01  mag=    12.0000
       N       E                     dE             d eps       ncg     rms          ort
SDA:   1    -0.367384625739E+03    0.48909E+00    0.00000E+00  7056   0.134E+01 0.000E+00
CGA:   2    -0.367797104086E+03   -0.41248E+00   -0.41247E+00  7056   0.491E+00-0.886E-03
CGA:   3    -0.367905403823E+03   -0.10830E+00   -0.10837E+00  7056   0.119E+00 0.218E-03
CGA:   4    -0.367929240878E+03   -0.23837E-01   -0.23881E-01  7056   0.262E-01 0.284E-03
CGA:   5    -0.367935712742E+03   -0.64719E-02   -0.64771E-02  7056   0.793E-02 0.751E-04
CGA:   6    -0.367938024957E+03   -0.23122E-02   -0.23083E-02  7056   0.334E-02-0.171E-03
CGA:   7    -0.367938964147E+03   -0.93919E-03   -0.93649E-03  7056   0.123E-02-0.106E-03
CGA:   8    -0.367939330926E+03   -0.36678E-03   -0.36683E-03  7056   0.374E-03 0.177E-04
CGA:   9    -0.367939443304E+03   -0.11238E-03   -0.11259E-03  7056   0.109E-03 0.147E-04
CGA:  10    -0.367939481590E+03   -0.38286E-04   -0.38436E-04  7056   0.384E-04-0.533E-05
CGA:  11    -0.367939495077E+03   -0.13487E-04   -0.13556E-04  7056   0.158E-04-0.118E-05
CGA:  12    -0.367939500261E+03   -0.51839E-05   -0.51314E-05  7056   0.633E-05 0.248E-05
  52 F= -.36793950E+03 E0= -.36793950E+03  d E =-.657777E-01  mag=    12.0000
       N       E                     dE             d eps       ncg     rms          ort
SDA:   1    -0.367915022911E+03    0.24472E-01    0.00000E+00  7056   0.816E-01 0.000E+00
CGA:   2    -0.367936600664E+03   -0.21578E-01   -0.21564E-01  7056   0.297E-01-0.275E-03
CGA:   3    -0.367943263912E+03   -0.66632E-02   -0.66918E-02  7056   0.690E-02 0.257E-03
CGA:   4    -0.367944631783E+03   -0.13679E-02   -0.13674E-02  7056   0.141E-02-0.799E-05
CGA:   5    -0.367944956609E+03   -0.32483E-03   -0.32370E-03  7056   0.394E-03-0.133E-04
CGA:   6    -0.367945057177E+03   -0.10057E-03   -0.10134E-03  7056   0.155E-03 0.148E-04
CGA:   7    -0.367945102309E+03   -0.45133E-04   -0.45284E-04  7056   0.665E-04 0.549E-05
CGA:   8    -0.367945127632E+03   -0.25322E-04   -0.25822E-04  7056   0.336E-04-0.743E-05
CGA:   9    -0.367945137308E+03   -0.96762E-05   -0.97269E-05  7056   0.117E-04-0.339E-05
  53 F= -.36794514E+03 E0= -.36794514E+03  d E =-.563705E-02  mag=    12.0000
       N       E                     dE             d eps       ncg     rms          ort
SDA:   1    -0.367892990919E+03    0.52137E-01    0.00000E+00  7056   0.184E+00 0.000E+00
CGA:   2    -0.367934988850E+03   -0.41998E-01   -0.42002E-01  7056   0.628E-01-0.147E-03
CGA:   3    -0.367949508075E+03   -0.14519E-01   -0.14548E-01  7056   0.165E-01 0.329E-03
CGA:   4    -0.367952756874E+03   -0.32488E-02   -0.32452E-02  7056   0.308E-02-0.434E-04
CGA:   5    -0.367953443589E+03   -0.68672E-03   -0.68399E-03  7056   0.815E-03-0.367E-04
CGA:   6    -0.367953646071E+03   -0.20248E-03   -0.20402E-03  7056   0.313E-03 0.378E-04
CGA:   7    -0.367953739204E+03   -0.93133E-04   -0.93354E-04  7056   0.138E-03 0.338E-04
CGA:   8    -0.367953797662E+03   -0.58458E-04   -0.58887E-04  7056   0.779E-04-0.471E-05
CGA:   9    -0.367953824119E+03   -0.26457E-04   -0.27104E-04  7056   0.337E-04-0.102E-04
CGA:  10    -0.367953832528E+03   -0.84088E-05   -0.84249E-05  7056   0.102E-04 0.137E-05
  54 F= -.36795383E+03 E0= -.36795383E+03  d E =-.869522E-02  mag=    12.0000
       N       E                     dE             d eps       ncg     rms          ort
SDA:   1    -0.367604864576E+03    0.34896E+00    0.00000E+00  7056   0.110E+01 0.000E+00
CGA:   2    -0.367854904816E+03   -0.25004E+00   -0.25016E+00  7056   0.377E+00 0.188E-03
CGA:   3    -0.367942629054E+03   -0.87724E-01   -0.87808E-01  7056   0.977E-01 0.938E-03
CGA:   4    -0.367961408888E+03   -0.18780E-01   -0.18766E-01  7056   0.178E-01-0.193E-03
CGA:   5    -0.367965332374E+03   -0.39235E-02   -0.39186E-02  7056   0.451E-02-0.728E-04
CGA:   6    -0.367966499488E+03   -0.11671E-02   -0.11693E-02  7056   0.176E-02 0.813E-04
CGA:   7    -0.367967042113E+03   -0.54263E-03   -0.54149E-03  7056   0.838E-03 0.642E-04
CGA:   8    -0.367967357184E+03   -0.31507E-03   -0.31589E-03  7056   0.415E-03-0.112E-04
CGA:   9    -0.367967492302E+03   -0.13512E-03   -0.13560E-03  7056   0.151E-03-0.120E-04
CGA:  10    -0.367967538761E+03   -0.46459E-04   -0.46377E-04  7056   0.484E-04 0.337E-05
CGA:  11    -0.367967558662E+03   -0.19901E-04   -0.20571E-04  7056   0.250E-04-0.550E-05
CGA:  12    -0.367967568363E+03   -0.97013E-05   -0.12700E-04  7056   0.201E-04-0.109E-04
  55 F= -.36796757E+03 E0= -.36796757E+03  d E =-.137358E-01  mag=    12.0000
       N       E                     dE             d eps       ncg     rms          ort
SDA:   1    -0.367564370700E+03    0.40319E+00    0.00000E+00  7056   0.135E+01 0.000E+00
CGA:   2    -0.367854360327E+03   -0.28999E+00   -0.29014E+00  7056   0.390E+00-0.348E-03
CGA:   3    -0.367949977458E+03   -0.95617E-01   -0.95697E-01  7056   0.106E+00 0.109E-02
CGA:   4    -0.367970303301E+03   -0.20326E-01   -0.20323E-01  7056   0.205E-01-0.926E-04
CGA:   5    -0.367974708427E+03   -0.44051E-02   -0.44109E-02  7056   0.515E-02 0.703E-04
CGA:   6    -0.367976087816E+03   -0.13794E-02   -0.13809E-02  7056   0.218E-02 0.578E-04
CGA:   7    -0.367976800041E+03   -0.71223E-03   -0.71270E-03  7056   0.122E-02-0.167E-04
CGA:   8    -0.367977232858E+03   -0.43282E-03   -0.43385E-03  7056   0.577E-03-0.166E-04
CGA:   9    -0.367977409063E+03   -0.17621E-03   -0.17603E-03  7056   0.183E-03 0.126E-04
CGA:  10    -0.367977466748E+03   -0.57685E-04   -0.57590E-04  7056   0.556E-04 0.834E-05
CGA:  11    -0.367977488180E+03   -0.21432E-04   -0.21437E-04  7056   0.235E-04-0.811E-07
CGA:  12    -0.367977497661E+03   -0.94816E-05   -0.95279E-05  7056   0.101E-04-0.451E-06
  56 F= -.36797750E+03 E0= -.36797750E+03  d E =-.992930E-02  mag=    12.0000
       N       E                     dE             d eps       ncg     rms          ort
SDA:   1    -0.367590313953E+03    0.38717E+00    0.00000E+00  7056   0.127E+01 0.000E+00
CGA:   2    -0.367866524971E+03   -0.27621E+00   -0.27633E+00  7056   0.386E+00-0.320E-03
CGA:   3    -0.367959239176E+03   -0.92714E-01   -0.92806E-01  7056   0.102E+00 0.118E-02
CGA:   4    -0.367978650366E+03   -0.19411E-01   -0.19397E-01  7056   0.189E-01-0.205E-03
CGA:   5    -0.367982769717E+03   -0.41194E-02   -0.41219E-02  7056   0.470E-02 0.321E-04
CGA:   6    -0.367984009801E+03   -0.12401E-02   -0.12413E-02  7056   0.194E-02 0.426E-04
CGA:   7    -0.367984641248E+03   -0.63145E-03   -0.63198E-03  7056   0.108E-02-0.175E-04
CGA:   8    -0.367985027826E+03   -0.38658E-03   -0.38688E-03  7056   0.520E-03-0.512E-05
CGA:   9    -0.367985188432E+03   -0.16061E-03   -0.16035E-03  7056   0.166E-03 0.159E-04
CGA:  10    -0.367985240662E+03   -0.52230E-04   -0.52141E-04  7056   0.490E-04 0.956E-05
CGA:  11    -0.367985258187E+03   -0.17525E-04   -0.17347E-04  7056   0.183E-04 0.454E-05
CGA:  12    -0.367985264844E+03   -0.66575E-05   -0.65319E-05  7056   0.699E-05 0.424E-05
  57 F= -.36798526E+03 E0= -.36798526E+03  d E =-.776718E-02  mag=    12.0000
       N       E                     dE             d eps       ncg     rms          ort
SDA:   1    -0.367957529942E+03    0.27728E-01    0.00000E+00  7056   0.853E-01 0.000E+00
CGA:   2    -0.367976935836E+03   -0.19406E-01   -0.19448E-01  7056   0.276E-01 0.506E-03
CGA:   3    -0.367983787325E+03   -0.68515E-02   -0.68434E-02  7056   0.759E-02-0.188E-03
CGA:   4    -0.367985262859E+03   -0.14755E-02   -0.14681E-02  7056   0.153E-02-0.803E-04
CGA:   5    -0.367985602355E+03   -0.33950E-03   -0.33907E-03  7056   0.401E-03-0.678E-05
CGA:   6    -0.367985712913E+03   -0.11056E-03   -0.11054E-03  7056   0.175E-03-0.233E-05
CGA:   7    -0.367985763110E+03   -0.50196E-04   -0.50181E-04  7056   0.762E-04 0.349E-05
CGA:   8    -0.367985787232E+03   -0.24122E-04   -0.23992E-04  7056   0.287E-04 0.537E-05
CGA:   9    -0.367985797164E+03   -0.99319E-05   -0.99008E-05  7056   0.108E-04 0.843E-06
  58 F= -.36798580E+03 E0= -.36798580E+03  d E =-.532319E-03  mag=    12.0000
       N       E                     dE             d eps       ncg     rms          ort
SDA:   1    -0.367980817354E+03    0.49699E-02    0.00000E+00  7056   0.144E-01 0.000E+00
CGA:   2    -0.367984714344E+03   -0.38970E-02   -0.39002E-02  7056   0.756E-02 0.136E-03
CGA:   3    -0.367986119810E+03   -0.14055E-02   -0.14138E-02  7056   0.111E-02 0.666E-04
CGA:   4    -0.367986371983E+03   -0.25217E-03   -0.24666E-03  7056   0.253E-03-0.823E-04
CGA:   5    -0.367986422818E+03   -0.50835E-04   -0.50268E-04  7056   0.592E-04-0.832E-05
CGA:   6    -0.367986433029E+03   -0.10211E-04   -0.11023E-04  7056   0.138E-04 0.929E-05
CGA:   7    -0.367986436120E+03   -0.30908E-05   -0.33896E-05  7056   0.535E-05 0.470E-05
  59 F= -.36798644E+03 E0= -.36798644E+03  d E =-.638956E-03  mag=    12.0000
       N       E                     dE             d eps       ncg     rms          ort
SDA:   1    -0.367881993071E+03    0.10444E+00    0.00000E+00  7056   0.271E+00 0.000E+00
CGA:   2    -0.367959285330E+03   -0.77292E-01   -0.77283E-01  7056   0.134E+00 0.420E-03
CGA:   3    -0.367983849809E+03   -0.24564E-01   -0.24616E-01  7056   0.205E-01 0.386E-03
CGA:   4    -0.367988001949E+03   -0.41521E-02   -0.41338E-02  7056   0.385E-02-0.289E-03
CGA:   5    -0.367988861243E+03   -0.85929E-03   -0.85722E-03  7056   0.925E-03-0.570E-04
CGA:   6    -0.367989063148E+03   -0.20191E-03   -0.20319E-03  7056   0.241E-03 0.330E-04
CGA:   7    -0.367989132821E+03   -0.69673E-04   -0.69314E-04  7056   0.907E-04 0.193E-04
CGA:   8    -0.367989167131E+03   -0.34310E-04   -0.33698E-04  7056   0.427E-04 0.731E-05
CGA:   9    -0.367989181118E+03   -0.13987E-04   -0.13751E-04  7056   0.141E-04 0.712E-05
[...]
CGA:   9    -0.367994334793E+03   -0.26689E-02   -0.26815E-02  7056   0.289E-02-0.212E-03
CGA:  10    -0.367995248236E+03   -0.91344E-03   -0.91685E-03  7056   0.947E-03-0.776E-04
CGA:  11    -0.367995594969E+03   -0.34673E-03   -0.34969E-03  7056   0.427E-03-0.311E-04
CGA:  12    -0.367995755487E+03   -0.16052E-03   -0.15795E-03  7056   0.177E-03 0.270E-04
CGA:  13    -0.367995827110E+03   -0.71623E-04   -0.70352E-04  7056   0.624E-04 0.156E-04
CGA:  14    -0.367995852848E+03   -0.25738E-04   -0.25666E-04  7056   0.214E-04 0.843E-06
CGA:  15    -0.367995862438E+03   -0.95905E-05   -0.10487E-04  7056   0.125E-04-0.493E-05
  82 F= -.36799586E+03 E0= -.36799586E+03  d E =0.209008E-01  mag=    12.0000
       N       E                     dE             d eps       ncg     rms          ort
SDA:   1    -0.366617870749E+03    0.13780E+01    0.00000E+00  7056   0.395E+01 0.000E+00
CGA:   2    -0.367591085410E+03   -0.97321E+00   -0.97388E+00  7056   0.155E+01 0.338E-02
CGA:   3    -0.367918608292E+03   -0.32752E+00   -0.32782E+00  7056   0.356E+00 0.460E-03
CGA:   4    -0.367987316409E+03   -0.68708E-01   -0.68601E-01  7056   0.619E-01-0.118E-02
CGA:   5    -0.368001006088E+03   -0.13690E-01   -0.13685E-01  7056   0.156E-01-0.761E-04
CGA:   6    -0.368004873984E+03   -0.38679E-02   -0.38750E-02  7056   0.527E-02 0.119E-03
CGA:   7    -0.368006492603E+03   -0.16186E-02   -0.16186E-02  7056   0.242E-02 0.275E-05
CGA:   8    -0.368007348868E+03   -0.85626E-03   -0.85648E-03  7056   0.112E-02-0.572E-05
CGA:   9    -0.368007719515E+03   -0.37065E-03   -0.37103E-03  7056   0.404E-03-0.143E-04
CGA:  10    -0.368007844844E+03   -0.12533E-03   -0.12523E-03  7056   0.126E-03 0.115E-04
CGA:  11    -0.368007892972E+03   -0.48129E-04   -0.47959E-04  7056   0.552E-04 0.258E-05
CGA:  12    -0.368007916397E+03   -0.23425E-04   -0.23300E-04  7056   0.256E-04 0.115E-05
CGA:  13    -0.368007926141E+03   -0.97440E-05   -0.96186E-05  7056   0.861E-05 0.232E-05
  83 F= -.36800793E+03 E0= -.36800793E+03  d E =-.120637E-01  mag=    12.0000
       N       E                     dE             d eps       ncg     rms          ort
SDA:   1    -0.365648129419E+03    0.23598E+01    0.00000E+00  7056   0.658E+01 0.000E+00
CGA:   2    -0.367376590682E+03   -0.17285E+01   -0.17294E+01  7056   0.224E+01 0.807E-02
CGA:   3    -0.367893436777E+03   -0.51685E+00   -0.51704E+00  7056   0.486E+00 0.312E-03
CGA:   4    -0.367984249149E+03   -0.90812E-01   -0.90679E-01  7056   0.926E-01-0.157E-02
CGA:   5    -0.368004222746E+03   -0.19974E-01   -0.19991E-01  7056   0.224E-01 0.183E-03
CGA:   6    -0.368010082223E+03   -0.58595E-02   -0.58664E-02  7056   0.819E-02 0.182E-03
CGA:   7    -0.368012664430E+03   -0.25822E-02   -0.25846E-02  7056   0.433E-02-0.137E-03
CGA:   8    -0.368014167931E+03   -0.15035E-02   -0.15052E-02  7056   0.201E-02-0.318E-04
CGA:   9    -0.368014827753E+03   -0.65982E-03   -0.66026E-03  7056   0.699E-03-0.147E-04
CGA:  10    -0.368015053091E+03   -0.22534E-03   -0.22578E-03  7056   0.227E-03-0.177E-04
CGA:  11    -0.368015132995E+03   -0.79904E-04   -0.79423E-04  7056   0.908E-04 0.820E-05
CGA:  12    -0.368015171709E+03   -0.38714E-04   -0.38447E-04  7056   0.429E-04 0.250E-05
CGA:  13    -0.368015185728E+03   -0.14018E-04   -0.13951E-04  7056   0.133E-04 0.943E-05
CGA:  14    -0.368015190893E+03   -0.51649E-05   -0.51446E-05  7056   0.433E-05 0.257E-05
  84 F= -.36801519E+03 E0= -.36801519E+03  d E =-.726475E-02  mag=    12.0000
       N       E                     dE             d eps       ncg     rms          ort
SDA:   1    -0.367520814302E+03    0.49437E+00    0.00000E+00  7056   0.133E+01 0.000E+00
CGA:   2    -0.367869390056E+03   -0.34858E+00   -0.34859E+00  7056   0.584E+00-0.925E-03
CGA:   3    -0.367985917550E+03   -0.11653E+00   -0.11659E+00  7056   0.116E+00-0.291E-03
CGA:   4    -0.368008402052E+03   -0.22485E-01   -0.22534E-01  7056   0.207E-01 0.421E-03
CGA:   5    -0.368013008839E+03   -0.46068E-02   -0.46109E-02  7056   0.526E-02 0.501E-04
CGA:   6    -0.368014352678E+03   -0.13438E-02   -0.13405E-02  7056   0.176E-02-0.943E-04
CGA:   7    -0.368014872541E+03   -0.51986E-03   -0.52035E-03  7056   0.763E-03-0.405E-04
CGA:   8    -0.368015130444E+03   -0.25790E-03   -0.25931E-03  7056   0.331E-03-0.246E-04
CGA:   9    -0.368015233345E+03   -0.10290E-03   -0.10298E-03  7056   0.108E-03-0.308E-05
CGA:  10    -0.368015272124E+03   -0.38779E-04   -0.40456E-04  7056   0.468E-04-0.198E-04
CGA:  11    -0.368015286599E+03   -0.14475E-04   -0.14903E-04  7056   0.204E-04-0.468E-05
CGA:  12    -0.368015294060E+03   -0.74610E-05   -0.75765E-05  7056   0.926E-05-0.108E-05
  85 F= -.36801529E+03 E0= -.36801529E+03  d E =-.103168E-03  mag=    12.0000
       N       E                     dE             d eps       ncg     rms          ort
SDA:   1    -0.367906331111E+03    0.10896E+00    0.00000E+00  7056   0.292E+00 0.000E+00
CGA:   2    -0.367987395117E+03   -0.81064E-01   -0.81081E-01  7056   0.104E+00 0.315E-03
CGA:   3    -0.368010518082E+03   -0.23123E-01   -0.23116E-01  7056   0.227E-01-0.175E-03
CGA:   4    -0.368014787169E+03   -0.42691E-02   -0.42721E-02  7056   0.448E-02 0.759E-05
CGA:   5    -0.368015801316E+03   -0.10141E-02   -0.10095E-02  7056   0.118E-02-0.654E-04
CGA:   6    -0.368016113720E+03   -0.31240E-03   -0.31176E-03  7056   0.445E-03-0.248E-04
CGA:   7    -0.368016228407E+03   -0.11469E-03   -0.11578E-03  7056   0.170E-03 0.410E-04
CGA:   8    -0.368016292364E+03   -0.63957E-04   -0.63577E-04  7056   0.775E-04 0.732E-05
CGA:   9    -0.368016322187E+03   -0.29823E-04   -0.30716E-04  7056   0.376E-04-0.104E-04
CGA:  10    -0.368016332438E+03   -0.10251E-04   -0.10275E-04  7056   0.126E-04-0.138E-05
CGA:  11    -0.368016336684E+03   -0.42456E-05   -0.42478E-05  7056   0.558E-05-0.495E-07
  86 F= -.36801634E+03 E0= -.36801634E+03  d E =-.104262E-02  mag=    12.0000
       N       E                     dE             d eps       ncg     rms          ort
SDA:   1    -0.367999098958E+03    0.17233E-01    0.00000E+00  7056   0.521E-01 0.000E+00
CGA:   2    -0.368011900666E+03   -0.12802E-01   -0.12822E-01  7056   0.189E-01 0.301E-03
CGA:   3    -0.368016088642E+03   -0.41880E-02   -0.41967E-02  7056   0.449E-02 0.860E-04
CGA:   4    -0.368016975045E+03   -0.88640E-03   -0.87348E-03  7056   0.829E-03-0.128E-03
CGA:   5    -0.368017150739E+03   -0.17569E-03   -0.17531E-03  7056   0.200E-03-0.538E-05
CGA:   6    -0.368017195209E+03   -0.44470E-04   -0.45613E-04  7056   0.617E-04 0.194E-04
CGA:   7    -0.368017215431E+03   -0.20222E-04   -0.20158E-04  7056   0.294E-04 0.511E-05
CGA:   8    -0.368017226196E+03   -0.10766E-04   -0.10587E-04  7056   0.134E-04 0.376E-05
CGA:   9    -0.368017231311E+03   -0.51152E-05   -0.50738E-05  7056   0.545E-05 0.847E-06
  87 F= -.36801723E+03 E0= -.36801723E+03  d E =-.894628E-03  mag=    12.0000
       N       E                     dE             d eps       ncg     rms          ort
SDA:   1    -0.367997130937E+03    0.20095E-01    0.00000E+00  7056   0.495E-01 0.000E+00
CGA:   2    -0.368013506770E+03   -0.16376E-01   -0.16368E-01  7056   0.187E-01 0.164E-03
CGA:   3    -0.368016961191E+03   -0.34544E-02   -0.34523E-02  7056   0.336E-02-0.457E-04
CGA:   4    -0.368017627015E+03   -0.66582E-03   -0.66212E-03  7056   0.649E-03-0.436E-04
CGA:   5    -0.368017773262E+03   -0.14625E-03   -0.14547E-03  7056   0.160E-03-0.143E-04
CGA:   6    -0.368017808946E+03   -0.35684E-04   -0.35933E-04  7056   0.420E-04 0.502E-05
CGA:   7    -0.368017819822E+03   -0.10876E-04   -0.11031E-04  7056   0.149E-04 0.711E-05
CGA:   8    -0.368017825580E+03   -0.57584E-05   -0.56268E-05  7056   0.697E-05 0.282E-05
  88 F= -.36801783E+03 E0= -.36801783E+03  d E =-.594269E-03  mag=    12.0000
       N       E                     dE             d eps       ncg     rms          ort
SDA:   1    -0.364331791099E+03    0.36860E+01    0.00000E+00  7056   0.879E+01 0.000E+00
CGA:   2    -0.367238950754E+03   -0.29072E+01   -0.29070E+01  7056   0.356E+01 0.651E-03
CGA:   3    -0.367869505992E+03   -0.63056E+00   -0.63112E+00  7056   0.586E+00-0.449E-03
CGA:   4    -0.367986530704E+03   -0.11702E+00   -0.11697E+00  7056   0.115E+00-0.972E-03
CGA:   5    -0.368012276328E+03   -0.25746E-01   -0.25735E-01  7056   0.278E-01-0.251E-03
CGA:   6    -0.368018942117E+03   -0.66658E-02   -0.66662E-02  7056   0.788E-02 0.437E-05
CGA:   7    -0.368021331530E+03   -0.23894E-02   -0.23911E-02  7056   0.340E-02-0.506E-04
CGA:   8    -0.368022533264E+03   -0.12017E-02   -0.12104E-02  7056   0.155E-02-0.991E-04
CGA:   9    -0.368023043402E+03   -0.51014E-03   -0.51459E-03  7056   0.516E-03-0.659E-04
CGA:  10    -0.368023213888E+03   -0.17049E-03   -0.17493E-03  7056   0.183E-03-0.585E-04
CGA:  11    -0.368023273872E+03   -0.59984E-04   -0.60155E-04  7056   0.781E-04-0.208E-05
CGA:  12    -0.368023309100E+03   -0.35229E-04   -0.35855E-04  7056   0.520E-04-0.360E-05
CGA:  13    -0.368023321050E+03   -0.11949E-04   -0.12689E-04  7056   0.208E-04 0.186E-04
CGA:  14    -0.368023329785E+03   -0.87359E-05   -0.86817E-05  7056   0.842E-05 0.398E-05
CGA:  15    -0.368023322495E+03    0.72905E-05   -0.12658E-04  7056   0.718E-04-0.207E-04
CGA:  16    -0.368023331258E+03   -0.87628E-05   -0.12124E-04  7056   0.123E-04 0.193E-04
  89 F= -.36802333E+03 E0= -.36802333E+03  d E =-.550568E-02  mag=    12.0000
       N       E                     dE             d eps       ncg     rms          ort
SDA:   1    -0.353519004127E+03    0.14504E+02    0.00000E+00  7056   0.347E+02 0.000E+00
CGA:   2    -0.364893898171E+03   -0.11375E+02   -0.11375E+02  7056   0.137E+02-0.631E-02
CGA:   3    -0.367386168615E+03   -0.24923E+01   -0.24976E+01  7056   0.230E+01 0.408E-02
CGA:   4    -0.367843417545E+03   -0.45725E+00   -0.45710E+00  7056   0.456E+00-0.276E-02
CGA:   5    -0.367947468053E+03   -0.10405E+00   -0.10404E+00  7056   0.112E+00-0.296E-03
CGA:   6    -0.367975097187E+03   -0.27629E-01   -0.27631E-01  7056   0.345E-01-0.360E-04
CGA:   7    -0.367985667138E+03   -0.10570E-01   -0.10568E-01  7056   0.151E-01-0.419E-03
CGA:   8    -0.367990917665E+03   -0.52505E-02   -0.52652E-02  7056   0.658E-02-0.359E-03
CGA:   9    -0.367993037204E+03   -0.21195E-02   -0.21231E-02  7056   0.211E-02-0.209E-03
CGA:  10    -0.367993718448E+03   -0.68124E-03   -0.68418E-03  7056   0.699E-03-0.140E-03
CGA:  11    -0.367993967484E+03   -0.24904E-03   -0.25074E-03  7056   0.326E-03-0.253E-04
CGA:  12    -0.367994103823E+03   -0.13634E-03   -0.13494E-03  7056   0.185E-03 0.121E-04
CGA:  13    -0.367994171102E+03   -0.67279E-04   -0.66452E-04  7056   0.772E-04 0.354E-04
CGA:  14    -0.367994206480E+03   -0.35378E-04   -0.35161E-04  7056   0.330E-04 0.366E-05
CGA:  15    -0.367994221555E+03   -0.15075E-04   -0.15093E-04  7056   0.149E-04-0.296E-06
CGA:  16    -0.367994152959E+03    0.68596E-04   -0.37155E-04  7056   0.307E-03-0.545E-04
CGA:  17    -0.367994229429E+03   -0.76469E-04   -0.77119E-04  7056   0.482E-04 0.191E-05
CGA:  18    -0.367994239599E+03   -0.10170E-04   -0.11871E-04  7056   0.897E-05 0.490E-05
CGA:  19    -0.367994243209E+03   -0.36102E-05   -0.40152E-05  7056   0.373E-05 0.243E-05
  90 F= -.36799424E+03 E0= -.36799424E+03  d E =0.290880E-01  mag=    12.0000
       N       E                     dE             d eps       ncg     rms          ort
SDA:   1    -0.362353946660E+03    0.56403E+01    0.00000E+00  7056   0.137E+02 0.000E+00
CGA:   2    -0.366655531584E+03   -0.43016E+01   -0.43092E+01  7056   0.616E+01-0.639E-02
CGA:   3    -0.367763292310E+03   -0.11078E+01   -0.11119E+01  7056   0.996E+00 0.146E-01
CGA:   4    -0.367964361216E+03   -0.20107E+00   -0.20105E+00  7056   0.199E+00 0.465E-04
CGA:   5    -0.368009243079E+03   -0.44882E-01   -0.44867E-01  7056   0.510E-01-0.197E-03
CGA:   6    -0.368021925313E+03   -0.12682E-01   -0.12687E-01  7056   0.157E-01-0.201E-07
CGA:   7    -0.368026702897E+03   -0.47776E-02   -0.47691E-02  7056   0.672E-02-0.498E-04
CGA:   8    -0.368029079623E+03   -0.23767E-02   -0.23563E-02  7056   0.284E-02-0.168E-03
CGA:   9    -0.368030028051E+03   -0.94843E-03   -0.93064E-03  7056   0.900E-03-0.134E-03
CGA:  10    -0.368030295446E+03   -0.26739E-03   -0.26631E-03  7056   0.253E-03-0.746E-05
CGA:  11    -0.368030387594E+03   -0.92148E-04   -0.92365E-04  7056   0.111E-03 0.232E-05
CGA:  12    -0.368030436905E+03   -0.49311E-04   -0.49354E-04  7056   0.683E-04 0.383E-05
CGA:  13    -0.368030467764E+03   -0.30858E-04   -0.30840E-04  7056   0.415E-04-0.152E-05
CGA:  14    -0.368030476373E+03   -0.86095E-05   -0.10496E-04  7056   0.142E-04 0.983E-05
  91 F= -.36803048E+03 E0= -.36803048E+03  d E =-.362332E-01  mag=    12.0000
       N       E                     dE             d eps       ncg     rms          ort
SDA:   1    -0.358635482611E+03    0.93950E+01    0.00000E+00  7056   0.234E+02 0.000E+00
CGA:   2    -0.365723494569E+03   -0.70880E+01   -0.70949E+01  7056   0.956E+01-0.255E-02
CGA:   3    -0.367577168442E+03   -0.18537E+01   -0.18577E+01  7056   0.172E+01 0.755E-02
CGA:   4    -0.367901873216E+03   -0.32470E+00   -0.32513E+00  7056   0.324E+00 0.174E-02
CGA:   5    -0.367975486935E+03   -0.73614E-01   -0.73663E-01  7056   0.809E-01 0.178E-03
CGA:   6    -0.367995617572E+03   -0.20131E-01   -0.20063E-01  7056   0.268E-01-0.522E-03
CGA:   7    -0.368003755088E+03   -0.81375E-02   -0.81006E-02  7056   0.123E-01-0.459E-03
CGA:   8    -0.368008139827E+03   -0.43847E-02   -0.43774E-02  7056   0.581E-02-0.356E-03
CGA:   9    -0.368010018950E+03   -0.18791E-02   -0.18704E-02  7056   0.197E-02-0.176E-03
CGA:  10    -0.368010656249E+03   -0.63730E-03   -0.63395E-03  7056   0.658E-03-0.707E-04
CGA:  11    -0.368010888132E+03   -0.23188E-03   -0.23211E-03  7056   0.286E-03 0.197E-04
CGA:  12    -0.368011005320E+03   -0.11719E-03   -0.11655E-03  7056   0.136E-03 0.336E-04
CGA:  13    -0.368011061807E+03   -0.56487E-04   -0.56618E-04  7056   0.535E-04 0.222E-04
CGA:  14    -0.368011086014E+03   -0.24206E-04   -0.24172E-04  7056   0.204E-04 0.286E-05
CGA:  15    -0.368011092149E+03   -0.61354E-05   -0.65678E-05  7056   0.700E-05 0.593E-05
  92 F= -.36801109E+03 E0= -.36801109E+03  d E =0.193842E-01  mag=    12.0000
       N       E                     dE             d eps       ncg     rms          ort
SDA:   1    -0.366937118930E+03    0.10740E+01    0.00000E+00  7056   0.266E+01 0.000E+00
CGA:   2    -0.367736774109E+03   -0.79966E+00   -0.79942E+00  7056   0.102E+01-0.312E-02
CGA:   3    -0.367946990794E+03   -0.21022E+00   -0.21047E+00  7056   0.214E+00 0.651E-03
CGA:   4    -0.367988353795E+03   -0.41363E-01   -0.41468E-01  7056   0.418E-01 0.479E-03
CGA:   5    -0.367998045546E+03   -0.96918E-02   -0.96941E-02  7056   0.116E-01 0.178E-04
CGA:   6    -0.368001206553E+03   -0.31610E-02   -0.31420E-02  7056   0.431E-02-0.245E-03
CGA:   7    -0.368002483413E+03   -0.12769E-02   -0.12692E-02  7056   0.186E-02-0.170E-03
CGA:   8    -0.368003064497E+03   -0.58108E-03   -0.58058E-03  7056   0.670E-03-0.275E-04
CGA:   9    -0.368003259495E+03   -0.19500E-03   -0.19630E-03  7056   0.196E-03 0.286E-04
CGA:  10    -0.368003330699E+03   -0.71203E-04   -0.71331E-04  7056   0.758E-04-0.135E-04
CGA:  11    -0.368003357643E+03   -0.26945E-04   -0.26984E-04  7056   0.337E-04-0.976E-06
CGA:  12    -0.368003368312E+03   -0.10669E-04   -0.10807E-04  7056   0.134E-04 0.766E-05
CGA:  13    -0.368003372995E+03   -0.46838E-05   -0.49000E-05  7056   0.557E-05 0.490E-05
  93 F= -.36800337E+03 E0= -.36800337E+03  d E =0.771915E-02  mag=    12.0000
       N       E                     dE             d eps       ncg     rms          ort
SDA:   1    -0.365290139146E+03    0.27132E+01    0.00000E+00  7056   0.714E+01 0.000E+00
CGA:   2    -0.367320198802E+03   -0.20301E+01   -0.20316E+01  7056   0.273E+01 0.868E-02
CGA:   3    -0.367894610143E+03   -0.57441E+00   -0.57480E+00  7056   0.547E+00-0.128E-02
CGA:   4    -0.367996831678E+03   -0.10222E+00   -0.10197E+00  7056   0.101E+00-0.203E-02
CGA:   5    -0.368019598175E+03   -0.22766E-01   -0.22749E-01  7056   0.254E-01-0.173E-03
CGA:   6    -0.368025927369E+03   -0.63292E-02   -0.63571E-02  7056   0.860E-02 0.289E-03
CGA:   7    -0.368028521770E+03   -0.25944E-02   -0.25995E-02  7056   0.396E-02 0.128E-03
CGA:   8    -0.368029969392E+03   -0.14476E-02   -0.14473E-02  7056   0.188E-02 0.132E-04
CGA:   9    -0.368030609428E+03   -0.64004E-03   -0.64008E-03  7056   0.683E-03-0.342E-04
CGA:  10    -0.368030834840E+03   -0.22541E-03   -0.22539E-03  7056   0.239E-03-0.233E-04
CGA:  11    -0.368030927415E+03   -0.92574E-04   -0.93708E-04  7056   0.119E-03-0.168E-04
CGA:  12    -0.368030977864E+03   -0.50449E-04   -0.52881E-04  7056   0.676E-04-0.176E-04
CGA:  13    -0.368030995650E+03   -0.17786E-04   -0.18021E-04  7056   0.209E-04 0.679E-05
CGA:  14    -0.368031001501E+03   -0.58510E-05   -0.61656E-05  7056   0.594E-05 0.401E-05
  94 F= -.36803100E+03 E0= -.36803100E+03  d E =-.276285E-01  mag=    12.0000
       N       E                     dE             d eps       ncg     rms          ort
SDA:   1    -0.367876722396E+03    0.15427E+00    0.00000E+00  7056   0.389E+00 0.000E+00
CGA:   2    -0.367991042242E+03   -0.11432E+00   -0.11437E+00  7056   0.164E+00 0.590E-03
CGA:   3    -0.368022871176E+03   -0.31829E-01   -0.31809E-01  7056   0.317E-01-0.439E-03
CGA:   4    -0.368029033582E+03   -0.61624E-02   -0.61503E-02  7056   0.566E-02-0.106E-03
CGA:   5    -0.368030329192E+03   -0.12956E-02   -0.12904E-02  7056   0.147E-02-0.545E-04
CGA:   6    -0.368030680876E+03   -0.35168E-03   -0.35387E-03  7056   0.439E-03 0.267E-04
CGA:   7    -0.368030794890E+03   -0.11401E-03   -0.11718E-03  7056   0.158E-03 0.555E-04
CGA:   8    -0.368030856521E+03   -0.61631E-04   -0.61249E-04  7056   0.735E-04 0.138E-04
CGA:   9    -0.368030886150E+03   -0.29629E-04   -0.30032E-04  7056   0.335E-04-0.691E-05
CGA:  10    -0.368030895877E+03   -0.97278E-05   -0.97276E-05  7056   0.109E-04-0.188E-05
  95 F= -.36803090E+03 E0= -.36803090E+03  d E =0.105624E-03  mag=    12.0000
       N       E                     dE             d eps       ncg     rms          ort
SDA:   1    -0.368013751318E+03    0.17135E-01    0.00000E+00  7056   0.433E-01 0.000E+00
CGA:   2    -0.368027456881E+03   -0.13706E-01   -0.13705E-01  7056   0.153E-01-0.342E-03
CGA:   3    -0.368030586623E+03   -0.31297E-02   -0.31546E-02  7056   0.309E-02 0.208E-03
CGA:   4    -0.368031190209E+03   -0.60359E-03   -0.60709E-03  7056   0.666E-03 0.264E-04
CGA:   5    -0.368031343177E+03   -0.15297E-03   -0.15359E-03  7056   0.177E-03 0.766E-05
CGA:   6    -0.368031397616E+03   -0.54439E-04   -0.54432E-04  7056   0.778E-04-0.178E-04
CGA:   7    -0.368031422058E+03   -0.24442E-04   -0.26017E-04  7056   0.530E-04-0.233E-04
CGA:   8    -0.368031432159E+03   -0.10101E-04   -0.10035E-04  7056   0.168E-04-0.181E-05
CGA:   9    -0.368031434249E+03   -0.20900E-05   -0.28334E-05  7056   0.598E-05 0.570E-05
  96 F= -.36803143E+03 E0= -.36803143E+03  d E =-.538372E-03  mag=    12.0000
       N       E                     dE             d eps       ncg     rms          ort
SDA:   1    -0.368015908239E+03    0.15524E-01    0.00000E+00  7056   0.448E-01 0.000E+00
CGA:   2    -0.368027836633E+03   -0.11928E-01   -0.11935E-01  7056   0.155E-01 0.228E-03
CGA:   3    -0.368031368967E+03   -0.35323E-02   -0.35443E-02  7056   0.320E-02 0.178E-03
CGA:   4    -0.368032022017E+03   -0.65305E-03   -0.64060E-03  7056   0.678E-03-0.142E-03
CGA:   5    -0.368032151440E+03   -0.12942E-03   -0.13172E-03  7056   0.148E-03 0.287E-04
CGA:   6    -0.368032187943E+03   -0.36503E-04   -0.37107E-04  7056   0.499E-04 0.155E-04
CGA:   7    -0.368032207691E+03   -0.19748E-04   -0.30594E-04  7056   0.985E-04-0.391E-04
CGA:   8    -0.368032219322E+03   -0.11631E-04   -0.14573E-04  7056   0.125E-04 0.205E-04
CGA:   9    -0.368032221656E+03   -0.23342E-05   -0.28269E-05  7056   0.485E-05 0.507E-05
  97 F= -.36803222E+03 E0= -.36803222E+03  d E =-.787407E-03  mag=    12.0000
