 vasp.6.1.2 22Jul20 (build Mar 19 2021 09:51:12) complex                        
  
 executed on             LinuxIFC date 2021.07.23  10:32:00
 running on   12 total cores
 distrk:  each k-point on   12 cores,    1 groups
 distr:  one band on NCORE=   4 cores,    3 groups


--------------------------------------------------------------------------------------------------------


 INCAR:
 POTCAR:    PAW_PBE Ca_sv 06Sep2000               
 POTCAR:    PAW_PBE Si 05Jan2001                  
 POTCAR:    PAW_PBE O 08Apr2002                   
 POTCAR:    PAW_PBE Ca_sv 06Sep2000               
   VRHFIN =Ca: 3s3p4s                                                                               
   LEXCH  = PE                                                                                      
   EATOM  =  1006.0909 eV,   73.9456 Ry                                                             
                                                                                                    
   TITEL  = PAW_PBE Ca_sv 06Sep2000                                                                 
   LULTRA =        F    use ultrasoft PP ?                                                          
   IUNSCR =        1    unscreen: 0-lin 1-nonlin 2-no                                               
   RPACOR =    2.000    partial core radius                                                         
   POMASS =   40.078; ZVAL   =   10.000    mass and valenz                                          
   RCORE  =    2.300    outmost cutoff radius                                                       
   RWIGS  =    2.500; RWIGS  =    1.323    wigner-seitz radius (au A)                               
   ENMAX  =  266.622; ENMIN  =  199.967 eV                                                          
   RCLOC  =    1.808    cutoff for local pot                                                        
   LCOR   =        T    correct aug charges                                                         
   LPAW   =        T    paw PP                                                                      
   EAUG   =  420.852                                                                                
   RMAX   =    2.359    core radius for proj-oper                                                   
   RAUG   =    1.300    factor for augmentation sphere                                              
   RDEP   =    2.392    radius for radial grids                                                     
   RDEPT  =    1.987    core radius for aug-charge                                                  
                                                                                                    
   Atomic configuration                                                                             
    7 entries                                                                                       
     n  l   j            E        occ.                                                              
     1  0  0.50     -3949.1705   2.0000                                                             
     2  0  0.50      -414.3434   2.0000                                                             
     2  1  1.50      -334.7047   6.0000                                                             
     3  0  0.50       -47.0896   2.0000                                                             
     4  0  0.50        -3.7663   2.0000                                                             
     3  1  1.50       -28.0061   6.0000                                                             
     3  2  1.50        -4.0817   0.0000                                                             
   Description                                                                                      
     l       E           TYP  RCUT    TYP  RCUT                                                     
     0    -47.0896403     23  2.300                                                                 
     0     -3.7663320     23  2.300                                                                 
     1    -28.0060855     23  2.300                                                                 
     1      6.8029130     23  2.300                                                                 
     2     -4.0817478     23  2.300                                                                 
     2      0.4464412     23  2.300                                                                 
  local pseudopotential read in
  partial core-charges read in
  partial kinetic energy density read in
  atomic valenz-charges read in
  non local Contribution for L=           0  read in
    real space projection operators read in
  non local Contribution for L=           0  read in
    real space projection operators read in
  non local Contribution for L=           1  read in
    real space projection operators read in
  non local Contribution for L=           1  read in
    real space projection operators read in
  non local Contribution for L=           2  read in
    real space projection operators read in
  non local Contribution for L=           2  read in
    real space projection operators read in
    PAW grid and wavefunctions read in
 
   number of l-projection  operators is LMAX  =           6
   number of lm-projection operators is LMMAX =          18
 
 POTCAR:    PAW_PBE Si 05Jan2001                  
   VRHFIN =Si: s2p2                                                                                 
   LEXCH  = PE                                                                                      
   EATOM  =   103.0669 eV,    7.5752 Ry                                                             
                                                                                                    
   TITEL  = PAW_PBE Si 05Jan2001                                                                    
   LULTRA =        F    use ultrasoft PP ?                                                          
   IUNSCR =        1    unscreen: 0-lin 1-nonlin 2-no                                               
   RPACOR =    1.500    partial core radius                                                         
   POMASS =   28.085; ZVAL   =    4.000    mass and valenz                                          
   RCORE  =    1.900    outmost cutoff radius                                                       
   RWIGS  =    2.480; RWIGS  =    1.312    wigner-seitz radius (au A)                               
   ENMAX  =  245.345; ENMIN  =  184.009 eV                                                          
   ICORE  =        2    local potential                                                             
   LCOR   =        T    correct aug charges                                                         
   LPAW   =        T    paw PP                                                                      
   EAUG   =  322.069                                                                                
   DEXC   =    0.000                                                                                
   RMAX   =    1.950    core radius for proj-oper                                                   
   RAUG   =    1.300    factor for augmentation sphere                                              
   RDEP   =    1.993    radius for radial grids                                                     
   RDEPT  =    1.837    core radius for aug-charge                                                  
                                                                                                    
   Atomic configuration                                                                             
    6 entries                                                                                       
     n  l   j            E        occ.                                                              
     1  0  0.50     -1785.8828   2.0000                                                             
     2  0  0.50      -139.4969   2.0000                                                             
     2  1  1.50       -95.5546   6.0000                                                             
     3  0  0.50       -10.8127   2.0000                                                             
     3  1  0.50        -4.0811   2.0000                                                             
     3  2  1.50        -4.0817   0.0000                                                             
   Description                                                                                      
     l       E           TYP  RCUT    TYP  RCUT                                                     
     0    -10.8127223     23  1.900                                                                 
     0     -7.6451159     23  1.900                                                                 
     1     -4.0811372     23  1.900                                                                 
     1      2.4879257     23  1.900                                                                 
     2     -4.0817478      7  1.900                                                                 
  local pseudopotential read in
  partial core-charges read in
  partial kinetic energy density read in
  atomic valenz-charges read in
  non local Contribution for L=           0  read in
    real space projection operators read in
  non local Contribution for L=           0  read in
    real space projection operators read in
  non local Contribution for L=           1  read in
    real space projection operators read in
  non local Contribution for L=           1  read in
    real space projection operators read in
    PAW grid and wavefunctions read in
 
   number of l-projection  operators is LMAX  =           4
   number of lm-projection operators is LMMAX =           8
 
 POTCAR:    PAW_PBE O 08Apr2002                   
   VRHFIN =O: s2p4                                                                                  
   LEXCH  = PE                                                                                      
   EATOM  =   432.3788 eV,   31.7789 Ry                                                             
                                                                                                    
   TITEL  = PAW_PBE O 08Apr2002                                                                     
   LULTRA =        F    use ultrasoft PP ?                                                          
   IUNSCR =        1    unscreen: 0-lin 1-nonlin 2-no                                               
   RPACOR =    1.200    partial core radius                                                         
   POMASS =   16.000; ZVAL   =    6.000    mass and valenz                                          
   RCORE  =    1.520    outmost cutoff radius                                                       
   RWIGS  =    1.550; RWIGS  =    0.820    wigner-seitz radius (au A)                               
   ENMAX  =  400.000; ENMIN  =  300.000 eV                                                          
   ICORE  =        2    local potential                                                             
   LCOR   =        T    correct aug charges                                                         
   LPAW   =        T    paw PP                                                                      
   EAUG   =  605.392                                                                                
   DEXC   =    0.000                                                                                
   RMAX   =    1.553    core radius for proj-oper                                                   
   RAUG   =    1.300    factor for augmentation sphere                                              
   RDEP   =    1.550    radius for radial grids                                                     
   RDEPT  =    1.329    core radius for aug-charge                                                  
                                                                                                    
   Atomic configuration                                                                             
    4 entries                                                                                       
     n  l   j            E        occ.                                                              
     1  0  0.50      -514.6923   2.0000                                                             
     2  0  0.50       -23.9615   2.0000                                                             
     2  1  0.50        -9.0305   4.0000                                                             
     3  2  1.50        -9.5241   0.0000                                                             
   Description                                                                                      
     l       E           TYP  RCUT    TYP  RCUT                                                     
     0    -23.9615318     23  1.200                                                                 
     0     -9.5240782     23  1.200                                                                 
     1     -9.0304911     23  1.520                                                                 
     1      8.1634956     23  1.520                                                                 
     2     -9.5240782      7  1.500                                                                 
  local pseudopotential read in
  partial core-charges read in
  partial kinetic energy density read in
  kinetic energy density of atom read in
  atomic valenz-charges read in
  non local Contribution for L=           0  read in
    real space projection operators read in
  non local Contribution for L=           0  read in
    real space projection operators read in
  non local Contribution for L=           1  read in
    real space projection operators read in
  non local Contribution for L=           1  read in
    real space projection operators read in
    PAW grid and wavefunctions read in
 
   number of l-projection  operators is LMAX  =           4
   number of lm-projection operators is LMMAX =           8
 
 Optimization of the real space projectors (new method)

 maximal supplied QI-value         = 16.25
 optimisation between [QCUT,QGAM] = [ 11.54, 23.24] = [ 37.28,151.24] Ry 
 Optimized for a Real-space Cutoff    1.58 Angstroem

   l    n(q)    QCUT    max X(q) W(low)/X(q) W(high)/X(q)  e(spline) 
   0     11    11.539    11.817    0.25E-04    0.22E-05    0.26E-07
   0     11    11.539     8.461    0.39E-04    0.49E-05    0.55E-07
   1     11    11.539     3.957    0.21E-05    0.44E-05    0.32E-07
   1     11    11.539     4.314    0.56E-04    0.44E-04    0.19E-06
   2     10    11.539    14.565    0.25E-03    0.21E-04    0.75E-06
   2     10    11.539    14.552    0.23E-03    0.22E-04    0.72E-06
 Optimization of the real space projectors (new method)

 maximal supplied QI-value         = 19.84
 optimisation between [QCUT,QGAM] = [ 11.51, 23.22] = [ 37.09,150.92] Ry 
 Optimized for a Real-space Cutoff    1.21 Angstroem

   l    n(q)    QCUT    max X(q) W(low)/X(q) W(high)/X(q)  e(spline) 
   0      8    11.508   159.560    0.71E-04    0.15E-03    0.51E-07
   0      8    11.508   115.863    0.70E-04    0.15E-03    0.51E-07
   1      8    11.508    88.339    0.16E-03    0.38E-04    0.82E-07
   1      8    11.508    48.592    0.15E-03    0.36E-04    0.79E-07
 Optimization of the real space projectors (new method)

 maximal supplied QI-value         = 24.76
 optimisation between [QCUT,QGAM] = [ 11.64, 23.27] = [ 37.91,151.63] Ry 
 Optimized for a Real-space Cutoff    1.14 Angstroem

   l    n(q)    QCUT    max X(q) W(low)/X(q) W(high)/X(q)  e(spline) 
   0      8    11.635    20.381    0.10E-03    0.33E-03    0.24E-06
   0      8    11.635    15.268    0.11E-03    0.35E-03    0.26E-06
   1      7    11.635     5.964    0.24E-03    0.31E-03    0.30E-06
   1      7    11.635     5.382    0.22E-03    0.25E-03    0.26E-06
  PAW_PBE Ca_sv 06Sep2000               :
 energy of atom  1       EATOM=-1006.0909
 kinetic energy error for atom=    0.0022 (will be added to EATOM!!)
  PAW_PBE Si 05Jan2001                  :
 energy of atom  2       EATOM= -103.0669
 kinetic energy error for atom=    0.0005 (will be added to EATOM!!)
  PAW_PBE O 08Apr2002                   :
 energy of atom  3       EATOM= -432.3788
 kinetic energy error for atom=    0.0208 (will be added to EATOM!!)
 
 
 POSCAR: Ca6 Si2 O2
  positions in direct lattice
  velocities in cartesian coordinates

 METAGGA = SCAN     LMAXTAU =  6    LMIXTAU =  F

 exchange correlation table for  LEXCH =        8
   RHO(1)=    0.500       N(1)  =     2000
   RHO(2)=  100.500       N(2)  =     4000
 


--------------------------------------------------------------------------------------------------------


 ion  position               nearest neighbor table
   1  0.250  0.282  0.218-  10 2.36   9 2.36   8 3.12
   2  0.750  0.718  0.782-  10 2.36   9 2.36   7 3.12
   3  0.267  0.233  0.733-   9 2.35  10 2.35
   4  0.233  0.767  0.267-  10 2.35   9 2.35
   5  0.733  0.767  0.267-   9 2.35  10 2.35
   6  0.767  0.233  0.733-  10 2.35   9 2.35
   7  0.750  0.249  0.251-   2 3.12
   8  0.250  0.751  0.749-   1 3.12
   9  0.500  1.000  0.000-   5 2.35   3 2.35   4 2.35   6 2.35   2 2.36   1 2.36
  10  1.000  0.500  0.500-   6 2.35   4 2.35   3 2.35   5 2.35   2 2.36   1 2.36
 

IMPORTANT INFORMATION: All symmetrisations will be switched off!
NOSYMM: (Re-)initialisation of all symmetry stuff for point group C_1.


----------------------------------------------------------------------------------------

                                     Primitive cell                                     

  volume of cell :     207.2195

  direct lattice vectors                    reciprocal lattice vectors
     0.000000061 -6.641166025 -0.000053658    -0.000000001 -0.150576828  0.106541801
    -3.324309215 -3.320620885 -4.693074050    -0.150407186  0.000000859 -0.106540586
     3.324309333 -3.320620945 -4.693074092     0.150407184  0.000000862 -0.106540584

  length of vectors
     6.641166025  6.640971229  6.640971347     0.184457412  0.184318252  0.184318250

  position of ions in fractional coordinates (direct lattice)
     0.250000005  0.281765684  0.218234336
     0.750000042  0.718234638  0.781765329
     0.266999290  0.232990496  0.733004824
     0.233000726  0.766995166  0.267009460
     0.733000448  0.767009418  0.266995249
     0.766999552  0.233004727  0.732990526
     0.750000000  0.248539602  0.251460430
     0.249999940  0.751460311  0.748539767
     0.500000011  0.999999947  0.000000050
     0.999999985  0.500000011  0.500000030

  ion indices of the primitive-cell ions
   primitive index   ion index
                 1           1
                 2           2
                 3           3
                 4           4
                 5           5
                 6           6
                 7           7
                 8           8
                 9           9
                10          10

----------------------------------------------------------------------------------------

 
 
 KPOINTS: K-points file                           

Automatic generation of k-mesh.
Space group operators:
 irot       det(A)        alpha          n_x          n_y          n_z        tau_x        tau_y        tau_z
    1     1.000000     0.000001     1.000000     0.000000     0.000000     0.000000     0.000000     0.000000
 
 Subroutine IBZKPT returns following result:
 ===========================================
 
 Found     63 irreducible k-points:
 
 Following reciprocal coordinates:
            Coordinates               Weight
  0.000000  0.000000  0.000000      1.000000
  0.200000 -0.000000  0.000000      2.000000
  0.400000  0.000000 -0.000000      2.000000
  0.000000  0.200000  0.000000      2.000000
 -0.000000  0.000000 -0.200000      2.000000
  0.200000  0.200000  0.000000      2.000000
 -0.200000 -0.000000 -0.200000      2.000000
  0.400000  0.200000  0.000000      2.000000
 -0.400000 -0.000000 -0.200000      2.000000
 -0.400000  0.200000 -0.000000      2.000000
  0.400000 -0.000000 -0.200000      2.000000
 -0.200000  0.200000  0.000000      2.000000
  0.200000 -0.000000 -0.200000      2.000000
 -0.000000  0.400000 -0.000000      2.000000
 -0.000000  0.000000 -0.400000      2.000000
  0.200000  0.400000  0.000000      2.000000
 -0.200000 -0.000000 -0.400000      2.000000
  0.400000  0.400000 -0.000000      2.000000
 -0.400000 -0.000000 -0.400000      2.000000
 -0.400000  0.400000 -0.000000      2.000000
  0.400000 -0.000000 -0.400000      2.000000
 -0.200000  0.400000  0.000000      2.000000
  0.200000  0.000000 -0.400000      2.000000
  0.000000  0.200000  0.200000      2.000000
  0.200000  0.200000  0.200000      2.000000
  0.400000  0.200000  0.200000      2.000000
 -0.400000  0.200000  0.200000      2.000000
 -0.200000  0.200000  0.200000      2.000000
  0.000000  0.400000  0.200000      2.000000
 -0.000000 -0.200000 -0.400000      2.000000
  0.200000  0.400000  0.200000      2.000000
 -0.200000 -0.200000 -0.400000      2.000000
  0.400000  0.400000  0.200000      2.000000
 -0.400000 -0.200000 -0.400000      2.000000
 -0.400000  0.400000  0.200000      2.000000
  0.400000 -0.200000 -0.400000      2.000000
 -0.200000  0.400000  0.200000      2.000000
  0.200000 -0.200000 -0.400000      2.000000
 -0.000000 -0.400000  0.200000      2.000000
  0.000000 -0.200000  0.400000      2.000000
  0.200000 -0.400000  0.200000      2.000000
 -0.200000 -0.200000  0.400000      2.000000
  0.400000 -0.400000  0.200000      2.000000
 -0.400000 -0.200000  0.400000      2.000000
 -0.400000 -0.400000  0.200000      2.000000
  0.400000 -0.200000  0.400000      2.000000
 -0.200000 -0.400000  0.200000      2.000000
  0.200000 -0.200000  0.400000      2.000000
  0.000000 -0.200000  0.200000      2.000000
  0.200000 -0.200000  0.200000      2.000000
 -0.200000 -0.200000  0.200000      2.000000
  0.400000 -0.200000  0.200000      2.000000
 -0.400000 -0.200000  0.200000      2.000000
  0.000000  0.400000  0.400000      2.000000
  0.200000  0.400000  0.400000      2.000000
  0.400000  0.400000  0.400000      2.000000
 -0.400000  0.400000  0.400000      2.000000
 -0.200000  0.400000  0.400000      2.000000
  0.000000 -0.400000  0.400000      2.000000
  0.200000 -0.400000  0.400000      2.000000
 -0.200000 -0.400000  0.400000      2.000000
  0.400000 -0.400000  0.400000      2.000000
 -0.400000 -0.400000  0.400000      2.000000
 
 Following cartesian coordinates:
            Coordinates               Weight
  0.000000  0.000000  0.000000      1.000000
 -0.000000 -0.030115  0.021308      2.000000
 -0.000000 -0.060231  0.042617      2.000000
 -0.030081  0.000000 -0.021308      2.000000
 -0.030081 -0.000000  0.021308      2.000000
 -0.030081 -0.030115  0.000000      2.000000
 -0.030081  0.030115 -0.000000      2.000000
 -0.030081 -0.060231  0.021309      2.000000
 -0.030081  0.060231 -0.021309      2.000000
 -0.030081  0.060231 -0.063925      2.000000
 -0.030081 -0.060231  0.063925      2.000000
 -0.030081  0.030116 -0.042616      2.000000
 -0.030081 -0.030116  0.042616      2.000000
 -0.060163  0.000000 -0.042616      2.000000
 -0.060163 -0.000000  0.042616      2.000000
 -0.060163 -0.030115 -0.021308      2.000000
 -0.060163  0.030115  0.021308      2.000000
 -0.060163 -0.060230  0.000000      2.000000
 -0.060163  0.060230 -0.000000      2.000000
 -0.060163  0.060231 -0.085233      2.000000
 -0.060163 -0.060231  0.085233      2.000000
 -0.060163  0.030116 -0.063925      2.000000
 -0.060163 -0.030116  0.063925      2.000000
 -0.000000  0.000000 -0.042616      2.000000
 -0.000000 -0.030115 -0.021308      2.000000
 -0.000000 -0.060230  0.000000      2.000000
  0.000000  0.060231 -0.085233      2.000000
 -0.000000  0.030116 -0.063925      2.000000
 -0.030081  0.000001 -0.063924      2.000000
 -0.030081 -0.000001  0.063924      2.000000
 -0.030081 -0.030115 -0.042616      2.000000
 -0.030081  0.030115  0.042616      2.000000
 -0.030081 -0.060230 -0.021308      2.000000
 -0.030081  0.060230  0.021308      2.000000
 -0.030081  0.060231 -0.106541      2.000000
 -0.030081 -0.060231  0.106541      2.000000
 -0.030081  0.030116 -0.085233      2.000000
 -0.030081 -0.030116  0.085233      2.000000
  0.090244 -0.000000  0.021308      2.000000
  0.090244  0.000000 -0.021308      2.000000
  0.090244 -0.030116  0.042616      2.000000
  0.090244  0.030116 -0.042616      2.000000
  0.090244 -0.060231  0.063925      2.000000
  0.090244  0.060231 -0.063925      2.000000
  0.090244  0.060231 -0.021309      2.000000
  0.090244 -0.060231  0.021309      2.000000
  0.090244  0.030115 -0.000000      2.000000
  0.090244 -0.030115  0.000000      2.000000
  0.060163  0.000000  0.000000      2.000000
  0.060163 -0.030115  0.021308      2.000000
  0.060163  0.030115 -0.021308      2.000000
  0.060163 -0.060231  0.042617      2.000000
  0.060163  0.060231 -0.042617      2.000000
 -0.000000  0.000001 -0.085232      2.000000
 -0.000000 -0.030115 -0.063924      2.000000
 -0.000000 -0.060230 -0.042616      2.000000
 -0.000000  0.060231 -0.127849      2.000000
 -0.000000  0.030116 -0.106541      2.000000
  0.120326  0.000000  0.000000      2.000000
  0.120326 -0.030115  0.021308      2.000000
  0.120326  0.030115 -0.021308      2.000000
  0.120326 -0.060231  0.042617      2.000000
  0.120326  0.060231 -0.042617      2.000000
 


--------------------------------------------------------------------------------------------------------




 Dimension of arrays:
   k-points           NKPTS =     63   k-points in BZ     NKDIM =     63   number of bands    NBANDS=     48
   number of dos      NEDOS =    301   number of ions     NIONS =     10
   non local maximal  LDIM  =      6   non local SUM 2l+1 LMDIM =     18
   total plane-waves  NPLWV = 125000
   max r-space proj   IRMAX =  10013   max aug-charges    IRDMAX=  28977
   dimension x,y,z NGX =    50 NGY =   50 NGZ =   50
   dimension x,y,z NGXF=   100 NGYF=  100 NGZF=  100
   support grid    NGXF=   100 NGYF=  100 NGZF=  100
   ions per type =               6   2   2
   NGX,Y,Z   is equivalent  to a cutoff of  12.52, 12.52, 12.52 a.u.
   NGXF,Y,Z  is equivalent  to a cutoff of  25.03, 25.03, 25.03 a.u.

 SYSTEM =  unknown system                          
 POSCAR =  Ca6 Si2 O2                              

 Startparameter for this run:
   NWRITE =      2    write-flag & timer
   PREC   = accura    normal or accurate (medium, high low for compatibility)
   ISTART =      0    job   : 0-new  1-cont  2-samecut
   ICHARG =      1    charge: 1-file 2-atom 10-const
   ISPIN  =      2    spin polarized calculation?
   LNONCOLLINEAR =      F non collinear calculations
   LSORBIT =      F    spin-orbit coupling
   INIWAV =      1    electr: 0-lowe 1-rand  2-diag
   LASPH  =      T    aspherical Exc in radial PAW
   METAGGA=      F    non-selfconsistent MetaGGA calc.

 Electronic Relaxation 1
   ENCUT  =  520.0 eV  38.22 Ry    6.18 a.u.  12.35 12.35 12.35*2*pi/ulx,y,z
   ENINI  =  520.0     initial cutoff
   ENAUG  =  605.4 eV  augmentation charge cutoff
   NELM   =    100;   NELMIN=  6; NELMDL= -5     # of ELM steps 
   EDIFF  = 0.1E-04   stopping-criterion for ELM
   LREAL  =      T    real-space projection
   NLSPLINE    = F    spline interpolate recip. space projectors
   LCOMPAT=      F    compatible to vasp.4.4
   GGA_COMPAT  = T    GGA compatible to vasp.4.4-vasp.4.6
   LMAXPAW     = -100 max onsite density
   LMAXMIX     =    4 max onsite mixed and CHGCAR
   VOSKOWN=      0    Vosko Wilk Nusair interpolation
   ROPT   =   -0.00025  -0.00025  -0.00025
 Ionic relaxation
   EDIFFG = -.3E-01   stopping-criterion for IOM
   NSW    =     99    number of steps for IOM
   NBLOCK =      1;   KBLOCK =     99    inner block; outer block 
   IBRION =      2    ionic relax: 0-MD 1-quasi-New 2-CG
   NFREE  =      1    steps in history (QN), initial steepest desc. (CG)
   ISIF   =      3    stress and relaxation
   IWAVPR =     11    prediction:  0-non 1-charg 2-wave 3-comb
   ISYM   =      0    0-nonsym 1-usesym 2-fastsym
   LCORR  =      T    Harris-Foulkes like correction to forces

   POTIM  = 0.5000    time-step for ionic-motion
   TEIN   =    0.0    initial temperature
   TEBEG  =    0.0;   TEEND  =   0.0 temperature during run
   SMASS  =  -3.00    Nose mass-parameter (am)
   estimated Nose-frequenzy (Omega)   =  0.10E-29 period in steps = 0.13E+47 mass=  -0.101E-26a.u.
   SCALEE = 1.0000    scale energy and forces
   NPACO  =    256;   APACO  = 16.0  distance and # of slots for P.C.
   PSTRESS=    0.0 pullay stress

  Mass of Ions in am
   POMASS =  40.08 28.09 16.00
  Ionic Valenz
   ZVAL   =  10.00  4.00  6.00
  Atomic Wigner-Seitz radii
   RWIGS  =  -1.00 -1.00 -1.00
  virtual crystal weights 
   VCA    =   1.00  1.00  1.00
   NELECT =      80.0000    total number of electrons
   NUPDOWN=      -1.0000    fix difference up-down

 DOS related values:
   EMIN   =  10.00;   EMAX   =-10.00  energy-range for DOS
   EFERMI =   0.00
   ISMEAR =     0;   SIGMA  =   0.05  broadening in eV -4-tet -1-fermi 0-gaus

 Electronic relaxation 2 (details)
   IALGO  =     38    algorithm
   LDIAG  =      T    sub-space diagonalisation (order eigenvalues)
   LSUBROT=      F    optimize rotation matrix (better conditioning)
   TURBO    =      0    0=normal 1=particle mesh
   IRESTART =      0    0=no restart 2=restart with 2 vectors
   NREBOOT  =      0    no. of reboots
   NMIN     =      0    reboot dimension
   EREF     =   0.00    reference energy to select bands
   IMIX   =      4    mixing-type and parameters
     AMIX     =   0.40;   BMIX     =  1.00
     AMIX_MAG =   1.60;   BMIX_MAG =  1.00
     AMIN     =   0.10
     WC   =   100.;   INIMIX=   1;  MIXPRE=   1;  MAXMIX= -45

 Intra band minimization:
   WEIMIN = 0.0010     energy-eigenvalue tresh-hold
   EBREAK =  0.52E-07  absolut break condition
   DEPER  =   0.30     relativ break condition  

   TIME   =   0.40     timestep for ELM

  volume/ion in A,a.u.               =      20.72       139.84
  Fermi-wavevector in a.u.,A,eV,Ry     =   1.192050  2.252649 19.333662  1.420984
  Thomas-Fermi vector in A             =   2.328098
 
 Write flags
   LWAVE        =      F    write WAVECAR
   LDOWNSAMPLE  =      F    k-point downsampling of WAVECAR
   LCHARG       =      T    write CHGCAR
   LVTOT        =      F    write LOCPOT, total local potential
   LVHAR        =      F    write LOCPOT, Hartree potential only
   LELF         =      F    write electronic localiz. function (ELF)
   LORBIT       =     11    0 simple, 1 ext, 2 COOP (PROOUT), +10 PAW based schemes


 Dipole corrections
   LMONO  =      F    monopole corrections only (constant potential shift)
   LDIPOL =      F    correct potential (dipole corrections)
   IDIPOL =      0    1-x, 2-y, 3-z, 4-all directions 
   EPSILON=  1.0000000 bulk dielectric constant

 LDA+U is selected, type is set to LDAUTYPE =  2
   angular momentum for each species LDAUL =    -1   -1   -1
   U (eV)           for each species LDAUU =   0.0  0.0  0.0
   J (eV)           for each species LDAUJ =   0.0  0.0  0.0
 Exchange correlation treatment:
   GGA     =    --    GGA type
   LEXCH   =     8    internal setting for exchange type
   VOSKOWN=      0    Vosko Wilk Nusair interpolation
   LHFCALC =     F    Hartree Fock is set to
   LHFONE  =     F    Hartree Fock one center treatment
   AEXX    =    0.0000 exact exchange contribution

 Linear response parameters
   LEPSILON=     F    determine dielectric tensor
   LRPA    =     F    only Hartree local field effects (RPA)
   LNABLA  =     F    use nabla operator in PAW spheres
   LVEL    =     F    velocity operator in full k-point grid
   LINTERFAST=   F  fast interpolation
   KINTER  =     0    interpolate to denser k-point grid
   CSHIFT  =0.1000    complex shift for real part using Kramers Kronig
   OMEGAMAX=  -1.0    maximum frequency
   DEG_THRESHOLD= 0.2000000E-02 threshold for treating states as degnerate
   RTIME   =   -0.100 relaxation time in fs
  (WPLASMAI=    0.000 imaginary part of plasma frequency in eV, 0.658/RTIME)
   DFIELD  = 0.0000000 0.0000000 0.0000000 field for delta impulse in time
 
 Orbital magnetization related:
   ORBITALMAG=     F  switch on orbital magnetization
   LCHIMAG   =     F  perturbation theory with respect to B field
   DQ        =  0.001000  dq finite difference perturbation B field
   LLRAUG    =     F  two centre corrections for induced B field



--------------------------------------------------------------------------------------------------------


 conjugate gradient relaxation of ions
 charge density and potential will be updated during run
 spin polarized calculation
 Variant of blocked Davidson
 Davidson routine will perform the subspace rotation
 perform sub-space diagonalisation
    after iterative eigenvector-optimisation
 modified Broyden-mixing scheme, WC =      100.0
 initial mixing is a Kerker type mixing with AMIX =  0.4000 and BMIX =      1.0000
 Hartree-type preconditioning will be used
 using additional bands            8
 real space projection scheme for non local part
 use partial core corrections
 calculate Harris-corrections to forces 
   (improved forces if not selfconsistent)
 use gradient corrections 
 use of overlap-Matrix (Vanderbilt PP)
 Gauss-broadening in eV      SIGMA  =   0.05


--------------------------------------------------------------------------------------------------------


  energy-cutoff  :      520.00
  volume of cell :      207.22
      direct lattice vectors                 reciprocal lattice vectors
     0.000000061 -6.641166025 -0.000053658    -0.000000001 -0.150576828  0.106541801
    -3.324309215 -3.320620885 -4.693074050    -0.150407186  0.000000859 -0.106540586
     3.324309333 -3.320620945 -4.693074092     0.150407184  0.000000862 -0.106540584

  length of vectors
     6.641166025  6.640971229  6.640971347     0.184457412  0.184318252  0.184318250


 
 k-points in units of 2pi/SCALE and weight: K-points file                           
   0.00000000  0.00000000  0.00000000       0.008
  -0.00000000 -0.03011537  0.02130836       0.016
  -0.00000000 -0.06023073  0.04261672       0.016
  -0.03008144  0.00000017 -0.02130812       0.016
  -0.03008144 -0.00000017  0.02130812       0.016
  -0.03008144 -0.03011519  0.00000024       0.016
  -0.03008144  0.03011519 -0.00000024       0.016
  -0.03008144 -0.06023056  0.02130860       0.016
  -0.03008144  0.06023056 -0.02130860       0.016
  -0.03008144  0.06023090 -0.06392484       0.016
  -0.03008144 -0.06023090  0.06392484       0.016
  -0.03008144  0.03011554 -0.04261648       0.016
  -0.03008144 -0.03011554  0.04261648       0.016
  -0.06016287  0.00000034 -0.04261623       0.016
  -0.06016287 -0.00000034  0.04261623       0.016
  -0.06016287 -0.03011502 -0.02130787       0.016
  -0.06016287  0.03011502  0.02130787       0.016
  -0.06016287 -0.06023039  0.00000049       0.016
  -0.06016287  0.06023039 -0.00000049       0.016
  -0.06016287  0.06023108 -0.08523296       0.016
  -0.06016287 -0.06023108  0.08523295       0.016
  -0.06016287  0.03011571 -0.06392459       0.016
  -0.06016287 -0.03011571  0.06392459       0.016
  -0.00000000  0.00000034 -0.04261623       0.016
  -0.00000000 -0.03011502 -0.02130787       0.016
  -0.00000000 -0.06023039  0.00000049       0.016
   0.00000000  0.06023108 -0.08523295       0.016
  -0.00000000  0.03011571 -0.06392459       0.016
  -0.03008144  0.00000052 -0.06392435       0.016
  -0.03008144 -0.00000052  0.06392435       0.016
  -0.03008144 -0.03011485 -0.04261599       0.016
  -0.03008144  0.03011485  0.04261599       0.016
  -0.03008144 -0.06023022 -0.02130763       0.016
  -0.03008144  0.06023021  0.02130763       0.016
  -0.03008144  0.06023125 -0.10654107       0.016
  -0.03008144 -0.06023125  0.10654107       0.016
  -0.03008144  0.03011588 -0.08523271       0.016
  -0.03008144 -0.03011588  0.08523271       0.016
   0.09024431 -0.00000017  0.02130812       0.016
   0.09024431  0.00000017 -0.02130812       0.016
   0.09024431 -0.03011554  0.04261648       0.016
   0.09024431  0.03011554 -0.04261648       0.016
   0.09024431 -0.06023090  0.06392484       0.016
   0.09024431  0.06023090 -0.06392484       0.016
   0.09024431  0.06023056 -0.02130860       0.016
   0.09024431 -0.06023056  0.02130860       0.016
   0.09024431  0.03011519 -0.00000024       0.016
   0.09024431 -0.03011519  0.00000024       0.016
   0.06016287  0.00000000  0.00000000       0.016
   0.06016287 -0.03011537  0.02130836       0.016
   0.06016287  0.03011537 -0.02130836       0.016
   0.06016287 -0.06023073  0.04261672       0.016
   0.06016287  0.06023073 -0.04261672       0.016
  -0.00000000  0.00000069 -0.08523247       0.016
  -0.00000000 -0.03011468 -0.06392411       0.016
  -0.00000000 -0.06023004 -0.04261575       0.016
  -0.00000000  0.06023142 -0.12784919       0.016
  -0.00000000  0.03011605 -0.10654083       0.016
   0.12032575  0.00000000  0.00000000       0.016
   0.12032575 -0.03011536  0.02130836       0.016
   0.12032575  0.03011537 -0.02130836       0.016
   0.12032575 -0.06023073  0.04261672       0.016
   0.12032575  0.06023073 -0.04261672       0.016
 
 k-points in reciprocal lattice and weights: K-points file                           
   0.00000000  0.00000000  0.00000000       0.008
   0.20000000 -0.00000000  0.00000000       0.016
   0.40000000  0.00000000 -0.00000000       0.016
   0.00000000  0.20000000  0.00000000       0.016
  -0.00000000  0.00000000 -0.20000000       0.016
   0.20000000  0.20000000  0.00000000       0.016
  -0.20000000 -0.00000000 -0.20000000       0.016
   0.40000000  0.20000000  0.00000000       0.016
  -0.40000000 -0.00000000 -0.20000000       0.016
  -0.40000000  0.20000000 -0.00000000       0.016
   0.40000000 -0.00000000 -0.20000000       0.016
  -0.20000000  0.20000000  0.00000000       0.016
   0.20000000 -0.00000000 -0.20000000       0.016
  -0.00000000  0.40000000 -0.00000000       0.016
  -0.00000000  0.00000000 -0.40000000       0.016
   0.20000000  0.40000000  0.00000000       0.016
  -0.20000000 -0.00000000 -0.40000000       0.016
   0.40000000  0.40000000 -0.00000000       0.016
  -0.40000000 -0.00000000 -0.40000000       0.016
  -0.40000000  0.40000000 -0.00000000       0.016
   0.40000000 -0.00000000 -0.40000000       0.016
  -0.20000000  0.40000000  0.00000000       0.016
   0.20000000  0.00000000 -0.40000000       0.016
   0.00000000  0.20000000  0.20000000       0.016
   0.20000000  0.20000000  0.20000000       0.016
   0.40000000  0.20000000  0.20000000       0.016
  -0.40000000  0.20000000  0.20000000       0.016
  -0.20000000  0.20000000  0.20000000       0.016
   0.00000000  0.40000000  0.20000000       0.016
  -0.00000000 -0.20000000 -0.40000000       0.016
   0.20000000  0.40000000  0.20000000       0.016
  -0.20000000 -0.20000000 -0.40000000       0.016
   0.40000000  0.40000000  0.20000000       0.016
  -0.40000000 -0.20000000 -0.40000000       0.016
  -0.40000000  0.40000000  0.20000000       0.016
   0.40000000 -0.20000000 -0.40000000       0.016
  -0.20000000  0.40000000  0.20000000       0.016
   0.20000000 -0.20000000 -0.40000000       0.016
  -0.00000000 -0.40000000  0.20000000       0.016
   0.00000000 -0.20000000  0.40000000       0.016
   0.20000000 -0.40000000  0.20000000       0.016
  -0.20000000 -0.20000000  0.40000000       0.016
   0.40000000 -0.40000000  0.20000000       0.016
  -0.40000000 -0.20000000  0.40000000       0.016
  -0.40000000 -0.40000000  0.20000000       0.016
   0.40000000 -0.20000000  0.40000000       0.016
  -0.20000000 -0.40000000  0.20000000       0.016
   0.20000000 -0.20000000  0.40000000       0.016
   0.00000000 -0.20000000  0.20000000       0.016
   0.20000000 -0.20000000  0.20000000       0.016
  -0.20000000 -0.20000000  0.20000000       0.016
   0.40000000 -0.20000000  0.20000000       0.016
  -0.40000000 -0.20000000  0.20000000       0.016
   0.00000000  0.40000000  0.40000000       0.016
   0.20000000  0.40000000  0.40000000       0.016
   0.40000000  0.40000000  0.40000000       0.016
  -0.40000000  0.40000000  0.40000000       0.016
  -0.20000000  0.40000000  0.40000000       0.016
   0.00000000 -0.40000000  0.40000000       0.016
   0.20000000 -0.40000000  0.40000000       0.016
  -0.20000000 -0.40000000  0.40000000       0.016
   0.40000000 -0.40000000  0.40000000       0.016
  -0.40000000 -0.40000000  0.40000000       0.016
 
 position of ions in fractional coordinates (direct lattice) 
   0.25000001  0.28176568  0.21823434
   0.75000004  0.71823464  0.78176533
   0.26699929  0.23299050  0.73300482
   0.23300073  0.76699517  0.26700946
   0.73300045  0.76700942  0.26699525
   0.76699955  0.23300473  0.73299053
   0.75000000  0.24853960  0.25146043
   0.24999994  0.75146031  0.74853977
   0.50000001  0.99999995  0.00000005
   0.99999999  0.50000001  0.50000003
 
 position of ions in cartesian coordinates  (Angst):
  -0.21119781 -3.32060206 -2.34655054
   0.21119580 -9.96180606 -7.03965120
   1.66220234 -4.98089089 -4.53350193
  -1.66210704 -4.98093387 -4.85267279
  -1.66220164 -8.30151518 -4.85269981
   1.66210753 -8.30147542 -4.53352844
   0.00970981 -6.64118509 -2.34657743
  -0.00970869 -6.64122274 -7.03962489
  -3.32430884 -6.64120396 -4.69310086
   0.00000018 -9.96178698 -4.69312792
 


--------------------------------------------------------------------------------------------------------


 k-point   1 :   0.0000 0.0000 0.0000  plane waves:    5601
 k-point   2 :   0.2000-0.0000 0.0000  plane waves:    5604
 k-point   3 :   0.4000 0.0000-0.0000  plane waves:    5580
 k-point   4 :   0.0000 0.2000 0.0000  plane waves:    5600
 k-point   5 :  -0.0000 0.0000-0.2000  plane waves:    5600
 k-point   6 :   0.2000 0.2000 0.0000  plane waves:    5605
 k-point   7 :  -0.2000-0.0000-0.2000  plane waves:    5605
 k-point   8 :   0.4000 0.2000 0.0000  plane waves:    5572
 k-point   9 :  -0.4000-0.0000-0.2000  plane waves:    5572
 k-point  10 :  -0.4000 0.2000-0.0000  plane waves:    5588
 k-point  11 :   0.4000-0.0000-0.2000  plane waves:    5588
 k-point  12 :  -0.2000 0.2000 0.0000  plane waves:    5569
 k-point  13 :   0.2000-0.0000-0.2000  plane waves:    5569
 k-point  14 :  -0.0000 0.4000-0.0000  plane waves:    5578
 k-point  15 :  -0.0000 0.0000-0.4000  plane waves:    5578
 k-point  16 :   0.2000 0.4000 0.0000  plane waves:    5572
 k-point  17 :  -0.2000-0.0000-0.4000  plane waves:    5572
 k-point  18 :   0.4000 0.4000-0.0000  plane waves:    5568
 k-point  19 :  -0.4000-0.0000-0.4000  plane waves:    5568
 k-point  20 :  -0.4000 0.4000-0.0000  plane waves:    5560
 k-point  21 :   0.4000-0.0000-0.4000  plane waves:    5560
 k-point  22 :  -0.2000 0.4000 0.0000  plane waves:    5589
 k-point  23 :   0.2000 0.0000-0.4000  plane waves:    5589
 k-point  24 :   0.0000 0.2000 0.2000  plane waves:    5609
 k-point  25 :   0.2000 0.2000 0.2000  plane waves:    5604
 k-point  26 :   0.4000 0.2000 0.2000  plane waves:    5572
 k-point  27 :  -0.4000 0.2000 0.2000  plane waves:    5593
 k-point  28 :  -0.2000 0.2000 0.2000  plane waves:    5571
 k-point  29 :   0.0000 0.4000 0.2000  plane waves:    5575
 k-point  30 :  -0.0000-0.2000-0.4000  plane waves:    5575
 k-point  31 :   0.2000 0.4000 0.2000  plane waves:    5569
 k-point  32 :  -0.2000-0.2000-0.4000  plane waves:    5569
 k-point  33 :   0.4000 0.4000 0.2000  plane waves:    5572
 k-point  34 :  -0.4000-0.2000-0.4000  plane waves:    5572
 k-point  35 :  -0.4000 0.4000 0.2000  plane waves:    5576
 k-point  36 :   0.4000-0.2000-0.4000  plane waves:    5576
 k-point  37 :  -0.2000 0.4000 0.2000  plane waves:    5577
 k-point  38 :   0.2000-0.2000-0.4000  plane waves:    5577
 k-point  39 :  -0.0000-0.4000 0.2000  plane waves:    5592
 k-point  40 :   0.0000-0.2000 0.4000  plane waves:    5592
 k-point  41 :   0.2000-0.4000 0.2000  plane waves:    5590
 k-point  42 :  -0.2000-0.2000 0.4000  plane waves:    5590
 k-point  43 :   0.4000-0.4000 0.2000  plane waves:    5576
 k-point  44 :  -0.4000-0.2000 0.4000  plane waves:    5576
 k-point  45 :  -0.4000-0.4000 0.2000  plane waves:    5560
 k-point  46 :   0.4000-0.2000 0.4000  plane waves:    5560
 k-point  47 :  -0.2000-0.4000 0.2000  plane waves:    5572
 k-point  48 :   0.2000-0.2000 0.4000  plane waves:    5572
 k-point  49 :   0.0000-0.2000 0.2000  plane waves:    5574
 k-point  50 :   0.2000-0.2000 0.2000  plane waves:    5572
 k-point  51 :  -0.2000-0.2000 0.2000  plane waves:    5572
 k-point  52 :   0.4000-0.2000 0.2000  plane waves:    5576
 k-point  53 :  -0.4000-0.2000 0.2000  plane waves:    5576
 k-point  54 :   0.0000 0.4000 0.4000  plane waves:    5566
 k-point  55 :   0.2000 0.4000 0.4000  plane waves:    5571
 k-point  56 :   0.4000 0.4000 0.4000  plane waves:    5580
 k-point  57 :  -0.4000 0.4000 0.4000  plane waves:    5591
 k-point  58 :  -0.2000 0.4000 0.4000  plane waves:    5566
 k-point  59 :   0.0000-0.4000 0.4000  plane waves:    5568
 k-point  60 :   0.2000-0.4000 0.4000  plane waves:    5577
 k-point  61 :  -0.2000-0.4000 0.4000  plane waves:    5577
 k-point  62 :   0.4000-0.4000 0.4000  plane waves:    5587
 k-point  63 :  -0.4000-0.4000 0.4000  plane waves:    5587

 maximum and minimum number of plane-waves per node :      1443     1354

 maximum number of plane-waves:      5609
 maximum index in each direction: 
   IXMAX=   12   IYMAX=   12   IZMAX=   12
   IXMIN=  -12   IYMIN=  -12   IZMIN=  -12


 real space projection operators:
  total allocation   :       9152.19 KBytes
  max/ min on nodes  :       2357.91       2218.19


 parallel 3D FFT for wavefunctions:
    minimum data exchange during FFTs selected (reduces bandwidth)
 parallel 3D FFT for charge:
    minimum data exchange during FFTs selected (reduces bandwidth)


 total amount of memory used by VASP MPI-rank0   100014. kBytes
=======================================================================

   base      :      30000. kBytes
   nonlr-proj:       4587. kBytes
   fftplans  :       3990. kBytes
   grid      :      14218. kBytes
   one-center:         93. kBytes
   wavefun   :      47126. kBytes
 
     INWAV:  cpu time    0.0000: real time    0.0000
 Broyden mixing: mesh for mixing (old mesh)
   NGX = 25   NGY = 25   NGZ = 25
  (NGX  =100   NGY  =100   NGZ  =100)
  gives a total of  15625 points

 initial charge density was supplied:
 number of electron      80.0000009 magnetization       0.0000000
 keeping initial charge density in first step


--------------------------------------------------------------------------------------------------------


 Maximum index for non-local projection operator         2525
 Maximum index for augmentation-charges         2356 (set IRDMAX)


--------------------------------------------------------------------------------------------------------


 First call to EWALD:  gamma=   0.300
 Maximum number of real-space cells 3x 3x 3
 Maximum number of reciprocal cells 3x 3x 3

    FEWALD:  cpu time    0.0010: real time    0.0010


--------------------------------------- Iteration      1(   1)  ---------------------------------------


    POTLOK:  cpu time    0.3148: real time    0.3148
    SETDIJ:  cpu time    0.9745: real time    0.9746
     EDDAV:  cpu time   71.4048: real time   71.4187
       DOS:  cpu time    0.0041: real time    0.0041
    --------------------------------------------
      LOOP:  cpu time   72.6983: real time   72.7122

 eigenvalue-minimisations  : 12141
 total energy-change (2. order) : 0.7902829E+03  (-0.4047563E+04)
 number of electron      80.0000009 magnetization       0.0000000
 augmentation part       80.0000009 magnetization       0.0000000

 Free energy of the ion-electron system (eV)
  ---------------------------------------------------
  alpha Z        PSCENC =       318.44306766
  Ewald energy   TEWEN  =     -4798.12870978
  -Hartree energ DENC   =     -1904.73955740
  -exchange      EXHF   =         0.00000000
  -V(xc)+E(xc)   XCENC  =       348.55872358
  PAW double counting   =      6073.12129392    -6086.33733796
  entropy T*S    EENTRO =        -0.00331363
  eigenvalues    EBANDS =      -268.01201839
  atomic energy  EATOM  =      7107.38074292
  Solvation  Ediel_sol  =         0.00000000
  ---------------------------------------------------
  free energy    TOTEN  =       790.28289093 eV

  energy without entropy =      790.28620456  energy(sigma->0) =      790.28454774


--------------------------------------------------------------------------------------------------------




--------------------------------------- Iteration      1(   2)  ---------------------------------------


     EDDAV:  cpu time   68.9134: real time   68.9241
       DOS:  cpu time    0.0040: real time    0.0040
    --------------------------------------------
      LOOP:  cpu time   68.9174: real time   68.9281

 eigenvalue-minimisations  : 12771
 total energy-change (2. order) :-0.8297253E+03  (-0.8165268E+03)
 number of electron      80.0000009 magnetization       0.0000000
 augmentation part       80.0000009 magnetization       0.0000000

 Free energy of the ion-electron system (eV)
  ---------------------------------------------------
  alpha Z        PSCENC =       318.44306766
  Ewald energy   TEWEN  =     -4798.12870978
  -Hartree energ DENC   =     -1904.73955740
  -exchange      EXHF   =         0.00000000
  -V(xc)+E(xc)   XCENC  =       348.55872358
  PAW double counting   =      6073.12129392    -6086.33733796
  entropy T*S    EENTRO =        -0.00452000
  eigenvalues    EBANDS =     -1097.73616201
  atomic energy  EATOM  =      7107.38074292
  Solvation  Ediel_sol  =         0.00000000
  ---------------------------------------------------
  free energy    TOTEN  =       -39.44245906 eV

  energy without entropy =      -39.43793906  energy(sigma->0) =      -39.44019906


--------------------------------------------------------------------------------------------------------




--------------------------------------- Iteration      1(   3)  ---------------------------------------


     EDDAV:  cpu time   87.6288: real time   87.6412
       DOS:  cpu time    0.0039: real time    0.0039
    --------------------------------------------
      LOOP:  cpu time   87.6327: real time   87.6451

 eigenvalue-minimisations  : 18153
 total energy-change (2. order) :-0.7857840E+02  (-0.7734719E+02)
 number of electron      80.0000009 magnetization       0.0000000
 augmentation part       80.0000009 magnetization       0.0000000

 Free energy of the ion-electron system (eV)
  ---------------------------------------------------
  alpha Z        PSCENC =       318.44306766
  Ewald energy   TEWEN  =     -4798.12870978
  -Hartree energ DENC   =     -1904.73955740
  -exchange      EXHF   =         0.00000000
  -V(xc)+E(xc)   XCENC  =       348.55872358
  PAW double counting   =      6073.12129392    -6086.33733796
  entropy T*S    EENTRO =        -0.00032381
  eigenvalues    EBANDS =     -1176.31876039
  atomic energy  EATOM  =      7107.38074292
  Solvation  Ediel_sol  =         0.00000000
  ---------------------------------------------------
  free energy    TOTEN  =      -118.02086125 eV

  energy without entropy =     -118.02053744  energy(sigma->0) =     -118.02069935


--------------------------------------------------------------------------------------------------------




--------------------------------------- Iteration      1(   4)  ---------------------------------------


     EDDAV:  cpu time   97.8452: real time   97.8538
       DOS:  cpu time    0.0042: real time    0.0042
    --------------------------------------------
      LOOP:  cpu time   97.8494: real time   97.8580

 eigenvalue-minimisations  : 20574
 total energy-change (2. order) :-0.6445078E+01  (-0.6415211E+01)
 number of electron      80.0000009 magnetization       0.0000000
 augmentation part       80.0000009 magnetization       0.0000000

 Free energy of the ion-electron system (eV)
  ---------------------------------------------------
  alpha Z        PSCENC =       318.44306766
  Ewald energy   TEWEN  =     -4798.12870978
  -Hartree energ DENC   =     -1904.73955740
  -exchange      EXHF   =         0.00000000
  -V(xc)+E(xc)   XCENC  =       348.55872358
  PAW double counting   =      6073.12129392    -6086.33733796
  entropy T*S    EENTRO =        -0.00058137
  eigenvalues    EBANDS =     -1182.76358102
  atomic energy  EATOM  =      7107.38074292
  Solvation  Ediel_sol  =         0.00000000
  ---------------------------------------------------
  free energy    TOTEN  =      -124.46593944 eV

  energy without entropy =     -124.46535807  energy(sigma->0) =     -124.46564876


--------------------------------------------------------------------------------------------------------




--------------------------------------- Iteration      1(   5)  ---------------------------------------


     EDDAV:  cpu time   92.6299: real time   92.6403
       DOS:  cpu time    0.0043: real time    0.0043
    CHARGE:  cpu time    9.0358: real time    9.0364
    MIXING:  cpu time    0.0081: real time    0.0081
    --------------------------------------------
      LOOP:  cpu time  101.6782: real time  101.6892

 eigenvalue-minimisations  : 18189
 total energy-change (2. order) :-0.4339063E+00  (-0.4334007E+00)
 number of electron      80.0000008 magnetization      -0.0000889
 augmentation part       15.5731030 magnetization       0.0024284

 Broyden mixing:
  rms(total) = 0.28426E+00    rms(broyden)= 0.28420E+00
  rms(prec ) = 0.53604E+00
  weight for this iteration     100.00

 Free energy of the ion-electron system (eV)
  ---------------------------------------------------
  alpha Z        PSCENC =       318.44306766
  Ewald energy   TEWEN  =     -4798.12870978
  -Hartree energ DENC   =     -1904.73955740
  -exchange      EXHF   =         0.00000000
  -V(xc)+E(xc)   XCENC  =       348.55872358
  PAW double counting   =      6073.12129392    -6086.33733796
  entropy T*S    EENTRO =        -0.00060949
  eigenvalues    EBANDS =     -1183.19745916
  atomic energy  EATOM  =      7107.38074292
  Solvation  Ediel_sol  =         0.00000000
  ---------------------------------------------------
  free energy    TOTEN  =      -124.89984570 eV

  energy without entropy =     -124.89923621  energy(sigma->0) =     -124.89954096


--------------------------------------------------------------------------------------------------------




--------------------------------------- Iteration      1(   6)  ---------------------------------------


    POTLOK:  cpu time    0.3674: real time    0.3830
    SETDIJ:  cpu time    1.1960: real time    1.1961
     EDDAV:  cpu time   79.7680: real time   79.7742
       DOS:  cpu time    0.0018: real time    0.0018
    CHARGE:  cpu time    9.1208: real time    9.1213
    MIXING:  cpu time    0.0063: real time    0.0063
    --------------------------------------------
      LOOP:  cpu time   90.4603: real time   90.4826

 eigenvalue-minimisations  : 15375
 total energy-change (2. order) : 0.1821922E+02  (-0.1165004E+01)
 number of electron      80.0000009 magnetization      -0.0000448
 augmentation part       16.4401635 magnetization       0.0014281

 Broyden mixing:
  rms(total) = 0.23596E+00    rms(broyden)= 0.23581E+00
  rms(prec ) = 0.46050E+00
  weight for this iteration     100.00

 eigenvalues of (default mixing * dielectric matrix)
  average eigenvalue GAMMA=   0.5545
  0.5545

 Free energy of the ion-electron system (eV)
  ---------------------------------------------------
  alpha Z        PSCENC =       318.44306766
  Ewald energy   TEWEN  =     -4798.12870978
  -Hartree energ DENC   =     -1902.17497056
  -exchange      EXHF   =         0.00000000
  -V(xc)+E(xc)   XCENC  =       352.34467317
  PAW double counting   =      6071.41333737    -6080.32805770
  entropy T*S    EENTRO =        -0.00000000
  eigenvalues    EBANDS =     -1175.63071154
  atomic energy  EATOM  =      7107.38074292
  Solvation  Ediel_sol  =         0.00000000
  ---------------------------------------------------
  free energy    TOTEN  =      -106.68062845 eV

  energy without entropy =     -106.68062845  energy(sigma->0) =     -106.68062845


--------------------------------------------------------------------------------------------------------




--------------------------------------- Iteration      1(   7)  ---------------------------------------


    POTLOK:  cpu time    0.3603: real time    0.3606
    SETDIJ:  cpu time    1.2022: real time    1.2023
     EDDAV:  cpu time   86.4622: real time   86.4683
       DOS:  cpu time    0.0025: real time    0.0025
    CHARGE:  cpu time    8.7466: real time    8.7469
    MIXING:  cpu time    0.0063: real time    0.0063
    --------------------------------------------
      LOOP:  cpu time   96.7801: real time   96.7869

 eigenvalue-minimisations  : 16920
 total energy-change (2. order) : 0.5062095E-01  (-0.1048427E+00)
 number of electron      80.0000009 magnetization      -0.0000254
 augmentation part       16.5819735 magnetization      -0.0000293

 Broyden mixing:
  rms(total) = 0.11802E+00    rms(broyden)= 0.11801E+00
  rms(prec ) = 0.22407E+00
  weight for this iteration     100.00

 eigenvalues of (default mixing * dielectric matrix)
  average eigenvalue GAMMA=   0.6778
  0.6778  0.6778

 Free energy of the ion-electron system (eV)
  ---------------------------------------------------
  alpha Z        PSCENC =       318.44306766
  Ewald energy   TEWEN  =     -4798.12870978
  -Hartree energ DENC   =     -1905.63901770
  -exchange      EXHF   =         0.00000000
  -V(xc)+E(xc)   XCENC  =       353.03168173
  PAW double counting   =      6076.87879199    -6086.00556233
  entropy T*S    EENTRO =        -0.00000001
  eigenvalues    EBANDS =     -1172.59100197
  atomic energy  EATOM  =      7107.38074292
  Solvation  Ediel_sol  =         0.00000000
  ---------------------------------------------------
  free energy    TOTEN  =      -106.63000750 eV

  energy without entropy =     -106.63000749  energy(sigma->0) =     -106.63000750


--------------------------------------------------------------------------------------------------------




--------------------------------------- Iteration      1(   8)  ---------------------------------------


    POTLOK:  cpu time    0.3389: real time    0.3390
    SETDIJ:  cpu time    1.1980: real time    1.1980
     EDDAV:  cpu time   91.6015: real time   91.6070
       DOS:  cpu time    0.0031: real time    0.0031
    CHARGE:  cpu time    8.6048: real time    8.6052
    MIXING:  cpu time    0.0066: real time    0.0066
    --------------------------------------------
      LOOP:  cpu time  101.7529: real time  101.7588

 eigenvalue-minimisations  : 18702
 total energy-change (2. order) : 0.2895361E-01  (-0.6775292E-02)
 number of electron      80.0000009 magnetization      -0.0000200
 augmentation part       16.6174589 magnetization       0.0000343

 Broyden mixing:
  rms(total) = 0.72295E-01    rms(broyden)= 0.72290E-01
  rms(prec ) = 0.13711E+00
  weight for this iteration     100.00

 eigenvalues of (default mixing * dielectric matrix)
  average eigenvalue GAMMA=   0.7646
  0.5944  0.8497  0.8497

 Free energy of the ion-electron system (eV)
  ---------------------------------------------------
  alpha Z        PSCENC =       318.44306766
  Ewald energy   TEWEN  =     -4798.12870978
  -Hartree energ DENC   =     -1905.79254297
  -exchange      EXHF   =         0.00000000
  -V(xc)+E(xc)   XCENC  =       352.86816975
  PAW double counting   =      6073.83537927    -6084.05118425
  entropy T*S    EENTRO =        -0.00000003
  eigenvalues    EBANDS =     -1171.15597646
  atomic energy  EATOM  =      7107.38074292
  Solvation  Ediel_sol  =         0.00000000
  ---------------------------------------------------
  free energy    TOTEN  =      -106.60105389 eV

  energy without entropy =     -106.60105386  energy(sigma->0) =     -106.60105387


--------------------------------------------------------------------------------------------------------




--------------------------------------- Iteration      1(   9)  ---------------------------------------


    POTLOK:  cpu time    0.3334: real time    0.3335
    SETDIJ:  cpu time    1.1976: real time    1.1977
     EDDAV:  cpu time   83.2231: real time   83.2273
       DOS:  cpu time    0.0032: real time    0.0032
    CHARGE:  cpu time    8.6107: real time    8.6110
    MIXING:  cpu time    0.0064: real time    0.0064
    --------------------------------------------
      LOOP:  cpu time   93.3744: real time   93.3791

 eigenvalue-minimisations  : 15759
 total energy-change (2. order) : 0.6619661E-02  (-0.5034572E-03)
 number of electron      80.0000009 magnetization      -0.0000134
 augmentation part       16.6221227 magnetization       0.0001794

 Broyden mixing:
  rms(total) = 0.57952E-01    rms(broyden)= 0.57952E-01
  rms(prec ) = 0.10951E+00
  weight for this iteration     100.00

 eigenvalues of (default mixing * dielectric matrix)
  average eigenvalue GAMMA=   0.8910
  1.1269  1.1269  0.6551  0.6551

 Free energy of the ion-electron system (eV)
  ---------------------------------------------------
  alpha Z        PSCENC =       318.44306766
  Ewald energy   TEWEN  =     -4798.12870978
  -Hartree energ DENC   =     -1905.43528202
  -exchange      EXHF   =         0.00000000
  -V(xc)+E(xc)   XCENC  =       352.81699129
  PAW double counting   =      6071.43301783    -6082.25027853
  entropy T*S    EENTRO =        -0.00000007
  eigenvalues    EBANDS =     -1170.85398353
  atomic energy  EATOM  =      7107.38074292
  Solvation  Ediel_sol  =         0.00000000
  ---------------------------------------------------
  free energy    TOTEN  =      -106.59443423 eV

  energy without entropy =     -106.59443416  energy(sigma->0) =     -106.59443419


--------------------------------------------------------------------------------------------------------




--------------------------------------- Iteration      1(  10)  ---------------------------------------


    POTLOK:  cpu time    0.3386: real time    0.3388
    SETDIJ:  cpu time    1.1908: real time    1.1908
     EDDAV:  cpu time   82.9067: real time   82.9105
       DOS:  cpu time    0.0033: real time    0.0033
    CHARGE:  cpu time    8.6475: real time    8.6478
    MIXING:  cpu time    0.0067: real time    0.0067
    --------------------------------------------
      LOOP:  cpu time   93.0937: real time   93.0979

 eigenvalue-minimisations  : 16218
 total energy-change (2. order) : 0.7036080E-02  (-0.4721584E-03)
 number of electron      80.0000009 magnetization      -0.0000120
 augmentation part       16.6292529 magnetization       0.0000460

 Broyden mixing:
  rms(total) = 0.40353E-01    rms(broyden)= 0.40352E-01
  rms(prec ) = 0.75758E-01
  weight for this iteration     100.00

 eigenvalues of (default mixing * dielectric matrix)
  average eigenvalue GAMMA=   0.8511
  1.2177  1.2177  0.6448  0.6448  0.5303

 Free energy of the ion-electron system (eV)
  ---------------------------------------------------
  alpha Z        PSCENC =       318.44306766
  Ewald energy   TEWEN  =     -4798.12870978
  -Hartree energ DENC   =     -1905.13106168
  -exchange      EXHF   =         0.00000000
  -V(xc)+E(xc)   XCENC  =       352.84166112
  PAW double counting   =      6069.95976543    -6081.54694765
  entropy T*S    EENTRO =        -0.00000016
  eigenvalues    EBANDS =     -1170.40591600
  atomic energy  EATOM  =      7107.38074292
  Solvation  Ediel_sol  =         0.00000000
  ---------------------------------------------------
  free energy    TOTEN  =      -106.58739815 eV

  energy without entropy =     -106.58739799  energy(sigma->0) =     -106.58739807


--------------------------------------------------------------------------------------------------------




--------------------------------------- Iteration      1(  11)  ---------------------------------------


    POTLOK:  cpu time    0.3380: real time    0.3382
    SETDIJ:  cpu time    1.1923: real time    1.1923
     EDDAV:  cpu time   83.7797: real time   83.7843
       DOS:  cpu time    0.0035: real time    0.0036
    CHARGE:  cpu time    8.4922: real time    8.4926
    MIXING:  cpu time    0.0067: real time    0.0067
    --------------------------------------------
      LOOP:  cpu time   93.8126: real time   93.8176

 eigenvalue-minimisations  : 16524
 total energy-change (2. order) : 0.1513249E-02  (-0.5439584E-04)
 number of electron      80.0000009 magnetization      -0.0000109
 augmentation part       16.6305728 magnetization       0.0001038

 Broyden mixing:
  rms(total) = 0.35554E-01    rms(broyden)= 0.35554E-01
  rms(prec ) = 0.66716E-01
  weight for this iteration     100.00

 eigenvalues of (default mixing * dielectric matrix)
  average eigenvalue GAMMA=   0.7715
  1.2427  1.2427  0.6256  0.6256  0.4462  0.4462

 Free energy of the ion-electron system (eV)
  ---------------------------------------------------
  alpha Z        PSCENC =       318.44306766
  Ewald energy   TEWEN  =     -4798.12870978
  -Hartree energ DENC   =     -1905.11177256
  -exchange      EXHF   =         0.00000000
  -V(xc)+E(xc)   XCENC  =       352.83526195
  PAW double counting   =      6070.10899341    -6081.86027651
  entropy T*S    EENTRO =        -0.00000018
  eigenvalues    EBANDS =     -1170.25319180
  atomic energy  EATOM  =      7107.38074292
  Solvation  Ediel_sol  =         0.00000000
  ---------------------------------------------------
  free energy    TOTEN  =      -106.58588490 eV

  energy without entropy =     -106.58588471  energy(sigma->0) =     -106.58588481


--------------------------------------------------------------------------------------------------------




--------------------------------------- Iteration      1(  12)  ---------------------------------------


    POTLOK:  cpu time    0.3385: real time    0.3386
    SETDIJ:  cpu time    1.1916: real time    1.1916
     EDDAV:  cpu time   78.3239: real time   78.3701
       DOS:  cpu time    0.0032: real time    0.0032
    CHARGE:  cpu time    8.4717: real time    8.4719
    MIXING:  cpu time    0.0069: real time    0.0069
    --------------------------------------------
      LOOP:  cpu time   88.3358: real time   88.3824

 eigenvalue-minimisations  : 14871
 total energy-change (2. order) : 0.1194970E-02  (-0.1849996E-04)
 number of electron      80.0000009 magnetization      -0.0000071
 augmentation part       16.6317651 magnetization       0.0000955

 Broyden mixing:
  rms(total) = 0.31933E-01    rms(broyden)= 0.31933E-01
  rms(prec ) = 0.60191E-01
  weight for this iteration     100.00

 eigenvalues of (default mixing * dielectric matrix)
  average eigenvalue GAMMA=   0.9911
  1.7039  1.7039  0.8512  0.8512  0.6340  0.6340  0.5599

 Free energy of the ion-electron system (eV)
  ---------------------------------------------------
  alpha Z        PSCENC =       318.44306766
  Ewald energy   TEWEN  =     -4798.12870978
  -Hartree energ DENC   =     -1905.10347903
  -exchange      EXHF   =         0.00000000
  -V(xc)+E(xc)   XCENC  =       352.84016288
  PAW double counting   =      6070.98131063    -6082.87549276
  entropy T*S    EENTRO =        -0.00000020
  eigenvalues    EBANDS =     -1170.12229225
  atomic energy  EATOM  =      7107.38074292
  Solvation  Ediel_sol  =         0.00000000
  ---------------------------------------------------
  free energy    TOTEN  =      -106.58468993 eV

  energy without entropy =     -106.58468972  energy(sigma->0) =     -106.58468982


--------------------------------------------------------------------------------------------------------




--------------------------------------- Iteration      1(  13)  ---------------------------------------


    POTLOK:  cpu time    0.3379: real time    0.3381
    SETDIJ:  cpu time    1.1939: real time    1.1939
     EDDAV:  cpu time   78.5832: real time   78.5868
       DOS:  cpu time    0.0032: real time    0.0032
    CHARGE:  cpu time    8.4931: real time    8.4934
    MIXING:  cpu time    0.0071: real time    0.0071
    --------------------------------------------
      LOOP:  cpu time   88.6184: real time   88.6225

 eigenvalue-minimisations  : 14994
 total energy-change (2. order) : 0.3602669E-02  (-0.1701731E-03)
 number of electron      80.0000009 magnetization      -0.0000052
 augmentation part       16.6350976 magnetization       0.0000516

 Broyden mixing:
  rms(total) = 0.20754E-01    rms(broyden)= 0.20754E-01
  rms(prec ) = 0.39298E-01
  weight for this iteration     100.00

 eigenvalues of (default mixing * dielectric matrix)
  average eigenvalue GAMMA=   0.9881
  1.8605  1.8605  0.8927  0.8927  0.6403  0.6403  0.5588  0.5588

 Free energy of the ion-electron system (eV)
  ---------------------------------------------------
  alpha Z        PSCENC =       318.44306766
  Ewald energy   TEWEN  =     -4798.12870978
  -Hartree energ DENC   =     -1904.97791838
  -exchange      EXHF   =         0.00000000
  -V(xc)+E(xc)   XCENC  =       352.86572440
  PAW double counting   =      6072.13309719    -6084.50074918
  entropy T*S    EENTRO =        -0.00000031
  eigenvalues    EBANDS =     -1169.79634179
  atomic energy  EATOM  =      7107.38074292
  Solvation  Ediel_sol  =         0.00000000
  ---------------------------------------------------
  free energy    TOTEN  =      -106.58108726 eV

  energy without entropy =     -106.58108695  energy(sigma->0) =     -106.58108710


--------------------------------------------------------------------------------------------------------




--------------------------------------- Iteration      1(  14)  ---------------------------------------


    POTLOK:  cpu time    0.3377: real time    0.3378
    SETDIJ:  cpu time    1.1825: real time    1.1825
     EDDAV:  cpu time   77.7549: real time   77.7589
       DOS:  cpu time    0.0031: real time    0.0031
    CHARGE:  cpu time    8.4474: real time    8.4477
    MIXING:  cpu time    0.0072: real time    0.0072
    --------------------------------------------
      LOOP:  cpu time   87.7329: real time   87.7373

 eigenvalue-minimisations  : 14706
 total energy-change (2. order) : 0.1615150E-02  (-0.5491689E-04)
 number of electron      80.0000009 magnetization      -0.0000029
 augmentation part       16.6368912 magnetization       0.0000542

 Broyden mixing:
  rms(total) = 0.15040E-01    rms(broyden)= 0.15040E-01
  rms(prec ) = 0.28407E-01
  weight for this iteration     100.00

 eigenvalues of (default mixing * dielectric matrix)
  average eigenvalue GAMMA=   0.9611
  1.9453  1.9453  0.9217  0.9217  0.6531  0.6531  0.5471  0.5471  0.5157

 Free energy of the ion-electron system (eV)
  ---------------------------------------------------
  alpha Z        PSCENC =       318.44306766
  Ewald energy   TEWEN  =     -4798.12870978
  -Hartree energ DENC   =     -1904.92478452
  -exchange      EXHF   =         0.00000000
  -V(xc)+E(xc)   XCENC  =       352.86881594
  PAW double counting   =      6072.40603671    -6084.99410616
  entropy T*S    EENTRO =        -0.00000038
  eigenvalues    EBANDS =     -1169.63053450
  atomic energy  EATOM  =      7107.38074292
  Solvation  Ediel_sol  =         0.00000000
  ---------------------------------------------------
  free energy    TOTEN  =      -106.57947211 eV

  energy without entropy =     -106.57947173  energy(sigma->0) =     -106.57947192


--------------------------------------------------------------------------------------------------------




--------------------------------------- Iteration      1(  15)  ---------------------------------------


    POTLOK:  cpu time    0.3372: real time    0.3374
    SETDIJ:  cpu time    1.1910: real time    1.1910
     EDDAV:  cpu time   74.2665: real time   74.2703
       DOS:  cpu time    0.0038: real time    0.0038
    CHARGE:  cpu time    8.4275: real time    8.4277
    MIXING:  cpu time    0.0073: real time    0.0073
    --------------------------------------------
      LOOP:  cpu time   84.2334: real time   84.2375

 eigenvalue-minimisations  : 13584
 total energy-change (2. order) : 0.1921135E-02  (-0.6244810E-04)
 number of electron      80.0000009 magnetization      -0.0000006
 augmentation part       16.6389957 magnetization       0.0000499

 Broyden mixing:
  rms(total) = 0.83559E-02    rms(broyden)= 0.83554E-02
  rms(prec ) = 0.15876E-01
  weight for this iteration     100.00

 eigenvalues of (default mixing * dielectric matrix)
  average eigenvalue GAMMA=   1.1897
  2.6733  2.6733  1.2316  1.2316  0.8192  0.8192  0.6398  0.6398  0.5843  0.5843

 Free energy of the ion-electron system (eV)
  ---------------------------------------------------
  alpha Z        PSCENC =       318.44306766
  Ewald energy   TEWEN  =     -4798.12870978
  -Hartree energ DENC   =     -1904.84496509
  -exchange      EXHF   =         0.00000000
  -V(xc)+E(xc)   XCENC  =       352.88066559
  PAW double counting   =      6072.73294790    -6085.60597231
  entropy T*S    EENTRO =        -0.00000048
  eigenvalues    EBANDS =     -1169.43532737
  atomic energy  EATOM  =      7107.38074292
  Solvation  Ediel_sol  =         0.00000000
  ---------------------------------------------------
  free energy    TOTEN  =      -106.57755097 eV

  energy without entropy =     -106.57755049  energy(sigma->0) =     -106.57755073


--------------------------------------------------------------------------------------------------------




--------------------------------------- Iteration      1(  16)  ---------------------------------------


    POTLOK:  cpu time    0.3382: real time    0.3383
    SETDIJ:  cpu time    1.1831: real time    1.1831
     EDDAV:  cpu time   76.7396: real time   76.7434
       DOS:  cpu time    0.0032: real time    0.0032
    CHARGE:  cpu time    8.4478: real time    8.4481
    MIXING:  cpu time    0.0076: real time    0.0076
    --------------------------------------------
      LOOP:  cpu time   86.7195: real time   86.7238

 eigenvalue-minimisations  : 14448
 total energy-change (2. order) : 0.1732053E-02  (-0.6376061E-04)
 number of electron      80.0000009 magnetization      -0.0000001
 augmentation part       16.6411355 magnetization       0.0000049

 Broyden mixing:
  rms(total) = 0.18156E-02    rms(broyden)= 0.18137E-02
  rms(prec ) = 0.34362E-02
  weight for this iteration     100.00

 eigenvalues of (default mixing * dielectric matrix)
  average eigenvalue GAMMA=   1.2769
  3.1464  3.1464  1.3808  1.3808  0.8929  0.8929  0.6941  0.6941  0.6166  0.6166
  0.5848

 Free energy of the ion-electron system (eV)
  ---------------------------------------------------
  alpha Z        PSCENC =       318.44306766
  Ewald energy   TEWEN  =     -4798.12870978
  -Hartree energ DENC   =     -1904.75968351
  -exchange      EXHF   =         0.00000000
  -V(xc)+E(xc)   XCENC  =       352.89112664
  PAW double counting   =      6072.84283671    -6085.99092369
  entropy T*S    EENTRO =        -0.00000061
  eigenvalues    EBANDS =     -1169.25427525
  atomic energy  EATOM  =      7107.38074292
  Solvation  Ediel_sol  =         0.00000000
  ---------------------------------------------------
  free energy    TOTEN  =      -106.57581892 eV

  energy without entropy =     -106.57581830  energy(sigma->0) =     -106.57581861


--------------------------------------------------------------------------------------------------------




--------------------------------------- Iteration      1(  17)  ---------------------------------------


    POTLOK:  cpu time    0.3374: real time    0.3375
    SETDIJ:  cpu time    1.1924: real time    1.1924
     EDDAV:  cpu time   77.7189: real time   77.7224
       DOS:  cpu time    0.0033: real time    0.0033
    CHARGE:  cpu time    8.4722: real time    8.4724
    MIXING:  cpu time    0.0075: real time    0.0075
    --------------------------------------------
      LOOP:  cpu time   87.7316: real time   87.7356

 eigenvalue-minimisations  : 14754
 total energy-change (2. order) : 0.3663021E-03  (-0.5746093E-05)
 number of electron      80.0000009 magnetization      -0.0000001
 augmentation part       16.6416274 magnetization      -0.0000008

 Broyden mixing:
  rms(total) = 0.36134E-03    rms(broyden)= 0.36022E-03
  rms(prec ) = 0.62127E-03
  weight for this iteration     100.00

 eigenvalues of (default mixing * dielectric matrix)
  average eigenvalue GAMMA=   1.2266
  3.2268  3.2268  1.4279  1.4279  0.9177  0.9177  0.7069  0.7069  0.5981  0.5981
  0.5614  0.4032

 Free energy of the ion-electron system (eV)
  ---------------------------------------------------
  alpha Z        PSCENC =       318.44306766
  Ewald energy   TEWEN  =     -4798.12870978
  -Hartree energ DENC   =     -1904.73921632
  -exchange      EXHF   =         0.00000000
  -V(xc)+E(xc)   XCENC  =       352.88800839
  PAW double counting   =      6072.85037547    -6086.05926429
  entropy T*S    EENTRO =        -0.00000065
  eigenvalues    EBANDS =     -1169.21045602
  atomic energy  EATOM  =      7107.38074292
  Solvation  Ediel_sol  =         0.00000000
  ---------------------------------------------------
  free energy    TOTEN  =      -106.57545262 eV

  energy without entropy =     -106.57545197  energy(sigma->0) =     -106.57545229


--------------------------------------------------------------------------------------------------------




--------------------------------------- Iteration      1(  18)  ---------------------------------------


    POTLOK:  cpu time    0.3377: real time    0.3379
    SETDIJ:  cpu time    1.1953: real time    1.1953
     EDDAV:  cpu time   55.0583: real time   55.0612
       DOS:  cpu time    0.0034: real time    0.0034
    --------------------------------------------
      LOOP:  cpu time   56.5947: real time   56.5978

 eigenvalue-minimisations  :  7965
 total energy-change (2. order) : 0.9658776E-05  (-0.1938383E-06)
 number of electron      80.0000009 magnetization      -0.0000001
 augmentation part       16.6416274 magnetization      -0.0000008

 Free energy of the ion-electron system (eV)
  ---------------------------------------------------
  alpha Z        PSCENC =       318.44306766
  Ewald energy   TEWEN  =     -4798.12870978
  -Hartree energ DENC   =     -1904.73880314
  -exchange      EXHF   =         0.00000000
  -V(xc)+E(xc)   XCENC  =       352.88660395
  PAW double counting   =      6072.87837078    -6086.08872999
  entropy T*S    EENTRO =        -0.00000065
  eigenvalues    EBANDS =     -1169.20798471
  atomic energy  EATOM  =      7107.38074292
  Solvation  Ediel_sol  =         0.00000000
  ---------------------------------------------------
  free energy    TOTEN  =      -106.57544296 eV

  energy without entropy =     -106.57544231  energy(sigma->0) =     -106.57544263


--------------------------------------------------------------------------------------------------------




 average (electrostatic) potential at core
  the test charge radii are     1.1137  0.9892  0.7215
  (the norm of the test charge is              1.0000)
       1 -49.3625       2 -49.3625       3 -49.3690       4 -49.3690       5 -49.3690
       6 -49.3690       7 -86.6569       8 -86.6569       9 -75.2691      10 -75.2691
 
 
 
 E-fermi :   4.6763     XC(G=0): -10.1196     alpha+bet :-11.7001


 spin component 1

 k-point     1 :       0.0000    0.0000    0.0000
  band No.  band energies     occupation 
      1     -38.4459      1.00000
      2     -38.3713      1.00000
      3     -38.3690      1.00000
      4     -38.3649      1.00000
      5     -38.3349      1.00000
      6     -38.3316      1.00000
      7     -19.6798      1.00000
      8     -18.7972      1.00000
      9     -18.7860      1.00000
[...]
     44       6.5189      0.00000
     45       7.0648      0.00000
     46       7.1104      0.00000
     47       7.2437      0.00000
     48       7.3233      0.00000

 k-point    63 :      -0.4000   -0.4000    0.4000
  band No.  band energies     occupation 
      1     -38.4367      1.00000
      2     -38.4293      1.00000
      3     -38.3960      1.00000
      4     -38.3865      1.00000
      5     -38.3771      1.00000
      6     -38.3746      1.00000
      7     -19.2519      1.00000
      8     -19.1815      1.00000
      9     -18.6977      1.00000
     10     -18.6776      1.00000
     11     -18.6699      1.00000
     12     -18.6647      1.00000
     13     -18.6435      1.00000
     14     -18.6228      1.00000
     15     -18.5977      1.00000
     16     -18.5596      1.00000
     17     -18.5221      1.00000
     18     -18.4840      1.00000
     19     -18.4397      1.00000
     20     -18.4380      1.00000
     21     -18.4154      1.00000
     22     -18.3884      1.00000
     23     -18.3845      1.00000
     24     -18.3586      1.00000
     25     -15.0607      1.00000
     26     -14.9791      1.00000
     27      -2.5277      1.00000
     28      -2.4604      1.00000
     29      -0.8161      1.00000
     30      -0.6639      1.00000
     31      -0.5750      1.00000
     32      -0.4078      1.00000
     33      -0.3730      1.00000
     34      -0.1128      1.00000
     35       2.1432      1.00000
     36       2.3991      1.00000
     37       2.7616      1.00000
     38       3.0515      1.00000
     39       3.3471      1.00000
     40       3.5683      1.00000
     41       6.1873      0.00000
     42       6.4068      0.00000
     43       6.4913      0.00000
     44       6.5189      0.00000
     45       7.0648      0.00000
     46       7.1104      0.00000
     47       7.2436      0.00000
     48       7.3231      0.00000


--------------------------------------------------------------------------------------------------------


 soft charge-density along one line, spin component           1
         0         1         2         3         4         5         6         7         8         9
 total charge-density along one line
 
 soft charge-density along one line, spin component           2
         0         1         2         3         4         5         6         7         8         9
 total charge-density along one line
 
 pseudopotential strength for first ion, spin component:           1
-18.483  -5.585   0.000   0.000  -0.004   0.000  -0.000   0.008
 -5.585  -1.210  -0.000   0.000  -0.003   0.000   0.000   0.000
  0.000  -0.000 -20.098   0.000  -0.000   7.001  -0.000   0.000
  0.000   0.000   0.000 -20.065   0.000  -0.000   6.981  -0.000
 -0.004  -0.003  -0.000   0.000 -20.091   0.000  -0.000   6.997
  0.000   0.000   7.001  -0.000   0.000   8.491   0.000  -0.000
 -0.000   0.000  -0.000   6.981  -0.000   0.000   8.424  -0.000
  0.008   0.000   0.000  -0.000   6.997  -0.000  -0.000   8.473
 -0.000   0.000  -0.004  -0.000  -0.000   0.008   0.000   0.000
  0.000   0.000   0.000   0.000  -0.000  -0.000   0.000   0.000
  0.018  -0.008   0.000   0.000   0.006  -0.000  -0.000  -0.010
  0.000  -0.000  -0.000   0.003  -0.000   0.000  -0.002   0.000
  0.003  -0.003  -0.000  -0.000  -0.003  -0.000   0.000   0.008
 -0.000   0.000  -0.005  -0.000  -0.000   0.008   0.000   0.000
  0.000   0.000   0.000   0.000  -0.000  -0.000   0.000   0.000
  0.021  -0.003   0.000   0.000   0.007  -0.000  -0.000  -0.009
  0.000   0.000  -0.000   0.003  -0.000   0.000   0.001   0.000
  0.004  -0.002  -0.000  -0.000  -0.004   0.000   0.000   0.009
 pseudopotential strength for first ion, spin component:           2
-18.483  -5.585  -0.000   0.000  -0.004  -0.000  -0.000   0.008
 -5.585  -1.210   0.000   0.000  -0.003  -0.000  -0.000   0.000
 -0.000   0.000 -20.098   0.000   0.000   7.001  -0.000  -0.000
  0.000   0.000   0.000 -20.065   0.000  -0.000   6.981  -0.000
 -0.004  -0.003   0.000   0.000 -20.091  -0.000  -0.000   6.997
 -0.000  -0.000   7.001  -0.000  -0.000   8.491   0.000   0.000
 -0.000  -0.000  -0.000   6.981  -0.000   0.000   8.424   0.000
  0.008   0.000  -0.000  -0.000   6.997   0.000   0.000   8.473
 -0.000  -0.000  -0.004  -0.000   0.000   0.008   0.000  -0.000
  0.000   0.000   0.000  -0.000  -0.000  -0.000  -0.000   0.000
  0.018  -0.008   0.000   0.000   0.006   0.000  -0.000  -0.010
 -0.000   0.000  -0.000   0.003   0.000   0.000  -0.002  -0.000
  0.003  -0.003   0.000   0.000  -0.003   0.000  -0.000   0.008
  0.000  -0.000  -0.005  -0.000   0.000   0.008   0.000  -0.000
  0.000   0.000   0.000  -0.000  -0.000  -0.000  -0.000   0.000
  0.021  -0.003   0.000   0.000   0.007   0.000  -0.000  -0.009
  0.000  -0.000  -0.000   0.003   0.000   0.000   0.001  -0.000
  0.004  -0.002   0.000   0.000  -0.004   0.000  -0.000   0.009
 total augmentation occupancy for first ion, spin component:           1
  2.004   0.017   0.000   0.000   0.000   0.000  -0.000   0.001  -0.000   0.000  -0.006  -0.000   0.001   0.000  -0.000   0.002
  0.017   0.624  -0.000   0.000   0.008   0.000   0.000  -0.008   0.000   0.000   0.090   0.000   0.010  -0.000  -0.000  -0.079
  0.000  -0.000   2.006   0.000  -0.000   0.009   0.000  -0.000   0.003  -0.000   0.000  -0.000   0.000  -0.001   0.000  -0.000
  0.000   0.000   0.000   2.008   0.000   0.000   0.001  -0.000  -0.000   0.000  -0.000  -0.006   0.000   0.000  -0.000   0.000
  0.000   0.008  -0.000   0.000   2.006  -0.000  -0.000   0.010  -0.000  -0.000  -0.008  -0.000   0.007  -0.000   0.000   0.003
  0.000   0.000   0.009   0.000  -0.000   0.026   0.000   0.000   0.002  -0.000  -0.000   0.000  -0.000  -0.001   0.000   0.000
 -0.000   0.000   0.000   0.001  -0.000   0.000   0.038   0.000  -0.000  -0.000   0.000   0.015  -0.000   0.000   0.000  -0.000
  0.001  -0.008  -0.000  -0.000   0.010   0.000   0.000   0.027   0.000   0.000   0.013  -0.000  -0.014  -0.000  -0.000  -0.007
 -0.000   0.000   0.003  -0.000  -0.000   0.002  -0.000   0.000   0.086   0.000  -0.000   0.000  -0.000  -0.034  -0.000   0.000
  0.000   0.000  -0.000   0.000  -0.000  -0.000  -0.000   0.000   0.000   0.123  -0.000  -0.000   0.000  -0.000  -0.061   0.000
 -0.006   0.090   0.000  -0.000  -0.008  -0.000   0.000   0.013  -0.000  -0.000   0.519   0.000  -0.001   0.000   0.000  -0.278
 -0.000   0.000  -0.000  -0.006  -0.000   0.000   0.015  -0.000   0.000  -0.000   0.000   0.140   0.000  -0.000   0.000  -0.000
  0.001   0.010   0.000   0.000   0.007  -0.000  -0.000  -0.014  -0.000   0.000  -0.001   0.000   0.261  -0.000  -0.000   0.001
  0.000  -0.000  -0.001   0.000  -0.000  -0.001   0.000  -0.000  -0.034  -0.000   0.000  -0.000  -0.000   0.014   0.000  -0.000
 -0.000  -0.000   0.000  -0.000   0.000   0.000   0.000  -0.000  -0.000  -0.061   0.000   0.000  -0.000   0.000   0.031  -0.000
  0.002  -0.079  -0.000   0.000   0.003   0.000  -0.000  -0.007   0.000   0.000  -0.278  -0.000   0.001  -0.000  -0.000   0.154
  0.000  -0.000   0.000   0.003   0.000  -0.000  -0.009   0.000  -0.000   0.000  -0.000  -0.069  -0.000   0.000  -0.000   0.000
 -0.001  -0.005   0.000  -0.000  -0.002   0.000   0.000   0.006  -0.000  -0.000   0.001  -0.000  -0.103   0.000   0.000  -0.000
 total augmentation occupancy for first ion, spin component:           2
  0.000   0.000  -0.000   0.000   0.000  -0.000   0.000  -0.000   0.000   0.000   0.000   0.000  -0.000  -0.000  -0.000  -0.000
  0.000  -0.000  -0.000   0.000   0.000  -0.000  -0.000   0.000   0.000   0.000  -0.000   0.000   0.000  -0.000  -0.000   0.000
 -0.000  -0.000   0.000   0.000  -0.000   0.000   0.000  -0.000   0.000  -0.000  -0.000  -0.000  -0.000  -0.000   0.000   0.000
  0.000   0.000   0.000   0.000  -0.000   0.000   0.000  -0.000   0.000   0.000   0.000   0.000  -0.000   0.000  -0.000  -0.000
  0.000   0.000  -0.000  -0.000   0.000  -0.000  -0.000   0.000  -0.000   0.000  -0.000   0.000   0.000   0.000   0.000  -0.000
 -0.000  -0.000   0.000   0.000  -0.000  -0.000   0.000  -0.000  -0.000  -0.000  -0.000  -0.000  -0.000  -0.000  -0.000   0.000
  0.000  -0.000   0.000   0.000  -0.000   0.000  -0.000   0.000   0.000   0.000   0.000  -0.000  -0.000  -0.000   0.000  -0.000
 -0.000   0.000  -0.000  -0.000   0.000  -0.000   0.000   0.000   0.000   0.000  -0.000  -0.000   0.000  -0.000  -0.000   0.000
  0.000   0.000   0.000   0.000  -0.000  -0.000   0.000   0.000  -0.000  -0.000   0.000   0.000   0.000  -0.000   0.000  -0.000
  0.000   0.000  -0.000   0.000   0.000  -0.000   0.000   0.000  -0.000  -0.000   0.000  -0.000   0.000   0.000   0.000  -0.000
  0.000  -0.000  -0.000   0.000  -0.000  -0.000   0.000  -0.000   0.000   0.000   0.000   0.000  -0.000   0.000  -0.000  -0.000
  0.000   0.000  -0.000   0.000   0.000  -0.000  -0.000  -0.000   0.000  -0.000   0.000  -0.000   0.000   0.000   0.000  -0.000
 -0.000   0.000  -0.000  -0.000   0.000  -0.000  -0.000   0.000   0.000   0.000  -0.000   0.000   0.000  -0.000  -0.000   0.000
 -0.000  -0.000  -0.000   0.000   0.000  -0.000  -0.000  -0.000  -0.000   0.000   0.000   0.000  -0.000   0.000  -0.000   0.000
 -0.000  -0.000   0.000  -0.000   0.000  -0.000   0.000  -0.000   0.000   0.000  -0.000   0.000  -0.000  -0.000  -0.000   0.000
 -0.000   0.000   0.000  -0.000  -0.000   0.000  -0.000   0.000  -0.000  -0.000  -0.000  -0.000   0.000   0.000   0.000   0.000
 -0.000  -0.000   0.000  -0.000  -0.000   0.000   0.000   0.000  -0.000  -0.000  -0.000   0.000   0.000   0.000   0.000   0.000
  0.000  -0.000   0.000  -0.000  -0.000   0.000   0.000  -0.000  -0.000  -0.000   0.000  -0.000  -0.000   0.000  -0.000  -0.000


------------------------ aborting loop because EDIFF is reached ----------------------------------------


 


 total charge     
 
# of ion       s       p       d       tot
------------------------------------------
    1        2.043   5.863   0.269   8.175
    2        2.043   5.863   0.269   8.175
    3        2.042   5.863   0.268   8.173
    4        2.042   5.863   0.268   8.173
    5        2.042   5.863   0.268   8.173
    6        2.042   5.863   0.268   8.173
    7        0.739   0.899   0.000   1.638
    8        0.739   0.899   0.000   1.638
    9        1.562   3.502   0.000   5.064
   10        1.562   3.502   0.000   5.064
--------------------------------------------------
tot         16.857  43.978   1.611  62.447
 


 magnetization (x)
 
# of ion       s       p       d       tot
------------------------------------------
    1       -0.000  -0.000   0.000  -0.000
    2       -0.000  -0.000   0.000  -0.000
    3       -0.000  -0.000   0.000  -0.000
    4       -0.000  -0.000   0.000  -0.000
    5       -0.000  -0.000  -0.000  -0.000
    6       -0.000  -0.000   0.000  -0.000
    7        0.000   0.000   0.000   0.000
    8       -0.000  -0.000   0.000  -0.000
    9        0.000   0.000   0.000   0.000
   10        0.000   0.000   0.000   0.000
--------------------------------------------------
tot         -0.000   0.000   0.000   0.000
 
    CHARGE:  cpu time    0.8578: real time    0.8578
    FORLOC:  cpu time    0.0075: real time    0.0075
    FORNL :  cpu time   10.1687: real time   10.1692
    STRESS:  cpu time  175.3069: real time  175.3132
    FORCOR:  cpu time    0.2827: real time    0.2827
    FORHAR:  cpu time    0.0253: real time    0.0253
    MIXING:  cpu time    0.0065: real time    0.0065
    OFIELD:  cpu time    0.0000: real time    0.0000

  FORCE on cell =-STRESS in cart. coord.  units (eV):
  Direction    XX          YY          ZZ          XY          YZ          ZX
  --------------------------------------------------------------------------------------
  Alpha Z   317.40537   317.40537   317.40537
  Ewald   -1595.91331 -1603.81087 -1593.23471     0.00002     0.00286    -0.00000
  Hartree   635.22749   631.08815   640.54669     0.00001     0.00364     0.00000
  E(xc)    -370.55369  -370.56933  -370.55464     0.00000     0.00068    -0.00000
  Local     -16.73274    -4.45491   -24.58465    -0.00003    -0.00825     0.00000
  n-local  -203.53504  -203.43865  -203.56709    -0.00000    -0.00114     0.00000
  augment   168.33715   168.27900   168.26064     0.00000     0.00251     0.00000
  Kinetic  1065.72268  1065.39938  1065.65388     0.00000    -0.00048    -0.00000
  Fock        0.00000     0.00000     0.00000     0.00000     0.00000     0.00000
  -------------------------------------------------------------------------------------
  Total      -0.04210    -0.10186    -0.07451     0.00000    -0.00017    -0.00000
  in kB      -0.32443    -0.78498    -0.57418     0.00000    -0.00129    -0.00001
  external pressure =       -0.56 kB  Pullay stress =        0.00 kB


 VOLUME and BASIS-vectors are now :
 -----------------------------------------------------------------------------
  energy-cutoff  :      520.00
  volume of cell :      207.90
      direct lattice vectors                 reciprocal lattice vectors
     0.000000050 -6.646122193 -0.000024037    -0.000000002 -0.150464064  0.106428034
    -3.329152708 -3.323078024 -4.698046322    -0.150188365  0.000000384 -0.106427489
     3.329152645 -3.323078073 -4.698046244     0.150188367  0.000000386 -0.106427493

  length of vectors
     6.646122193  6.648138428  6.648138365     0.184299650  0.184074320  0.184074324


 FORCES acting on ions
    electron-ion (+dipol)            ewald-force                    non-local-force                 convergence-correction
 -----------------------------------------------------------------------------------------------
   0.288E+02 0.149E-04 -.193E-04   -.297E+02 -.146E-04 0.204E-04   0.910E+00 -.715E-06 -.709E-06   0.533E-04 -.568E-07 0.688E-07
   -.288E+02 -.259E-04 0.350E-05   0.297E+02 0.263E-04 -.174E-05   -.910E+00 0.137E-05 -.169E-05   -.538E-04 -.434E-06 -.145E-07
   0.178E-02 -.482E-02 -.166E+02   -.168E-02 0.489E-02 0.173E+02   -.515E-03 -.395E-03 -.715E+00   0.154E-05 -.372E-06 -.201E-04
   0.182E-02 0.482E-02 0.166E+02   -.171E-02 -.488E-02 -.173E+02   -.515E-03 0.395E-03 0.715E+00   0.110E-05 0.107E-05 0.212E-04
   -.201E-02 0.509E-02 0.166E+02   0.192E-02 -.512E-02 -.173E+02   0.491E-03 0.360E-03 0.715E+00   0.628E-06 0.163E-05 0.201E-04
   -.197E-02 -.505E-02 -.166E+02   0.189E-02 0.507E-02 0.173E+02   0.490E-03 -.360E-03 -.715E+00   0.454E-06 -.837E-06 -.208E-04
   0.195E+01 -.149E-04 -.364E-04   -.184E+01 0.146E-04 0.341E-04   -.126E+00 0.953E-06 0.279E-05   -.747E-05 -.367E-07 -.278E-07
   -.195E+01 0.181E-04 -.327E-04   0.184E+01 -.178E-04 0.290E-04   0.126E+00 -.103E-05 0.457E-05   0.748E-05 0.660E-07 -.453E-08
   0.118E-03 -.201E-06 0.389E-04   -.133E-03 0.309E-06 -.387E-04   0.163E-04 0.761E-08 0.316E-06   -.139E-07 0.761E-07 0.272E-07
   0.915E-04 -.243E-04 -.149E-04   -.106E-03 0.252E-04 0.140E-04   0.171E-04 -.386E-06 0.153E-05   -.678E-08 -.561E-08 0.409E-07
 -----------------------------------------------------------------------------------------------
   0.208E-03 0.344E-06 0.192E-06   -.108E-13 -.111E-13 0.444E-14   -.216E-03 -.339E-06 0.163E-05   0.314E-05 0.110E-05 0.442E-06
 
 
 POSITION                                       TOTAL-FORCE (eV/Angst)
 -----------------------------------------------------------------------------------
     -0.21284     -3.32307     -2.34903        -0.016496     -0.000001      0.000000
      0.21284     -9.96921     -7.04709         0.016494      0.000001     -0.000000
      1.66460     -4.98461     -4.53898        -0.000408     -0.000330     -0.011824
     -1.66455     -4.98461     -4.85712        -0.000409      0.000331      0.011823
     -1.66460     -8.30767     -4.85714         0.000406      0.000334      0.011823
      1.66455     -8.30767     -4.53899         0.000406     -0.000336     -0.011824
      0.00865     -6.64613     -2.34904        -0.018778      0.000000      0.000000
     -0.00865     -6.64615     -7.04708         0.018780     -0.000001      0.000001
     -3.32915     -6.64614     -4.69806         0.000001      0.000000      0.000000
      0.00000     -9.96920     -4.69807         0.000003      0.000000      0.000000
 -----------------------------------------------------------------------------------
    total drift:                               -0.000005      0.000001      0.000002


--------------------------------------------------------------------------------------------------------



  FREE ENERGIE OF THE ION-ELECTRON SYSTEM (eV)
  ---------------------------------------------------
  free  energy   TOTEN  =      -106.57467731 eV

  energy  without entropy=     -106.57467682  energy(sigma->0) =     -106.57467707
 
 d Force = 0.1384080E-03[ 0.117E-03, 0.160E-03]  d Energy =-0.7656419E-03 0.904E-03
 d Force = 0.3722945E-01[ 0.360E-01, 0.385E-01]  d Ewald  =-0.5177761E+01 0.521E+01


--------------------------------------------------------------------------------------------------------


    POTLOK:  cpu time    1.5076: real time    1.5076


--------------------------------------------------------------------------------------------------------


 Steepest descent step on ions:
 trial-energy change:    0.000766  1 .order   -0.000425   -0.000949    0.000100
  (g-gl).g = 0.949E-03      g.g   = 0.949E-03  gl.gl    = 0.000E+00
 g(Force)  = 0.160E-03   g(Stress)= 0.790E-03 ortho     = 0.000E+00
 gamma     =   0.00000
 trial     =   1.00000
 opt step  =   0.90472  (harmonic =   0.90472) maximal distance =0.00120725
 next E    =  -106.575872   (d E  =  -0.00043)


--------------------------------------------------------------------------------------------------------


  
 reached required accuracy - stopping structural energy minimisation
     LOOP+:  cpu time 1083.6756: real time 1083.7231
    4ORBIT:  cpu time    0.0000: real time    0.0000
 


 total charge     
 
# of ion       s       p       d       tot
------------------------------------------
    1        2.043   5.863   0.269   8.175
    2        2.043   5.863   0.269   8.175
    3        2.042   5.863   0.268   8.173
    4        2.042   5.863   0.268   8.173
    5        2.042   5.863   0.268   8.173
    6        2.042   5.863   0.268   8.173
    7        0.739   0.899   0.000   1.638
    8        0.739   0.899   0.000   1.638
    9        1.562   3.502   0.000   5.064
   10        1.562   3.502   0.000   5.064
--------------------------------------------------
tot         16.857  43.978   1.611  62.447
 


 magnetization (x)
 
# of ion       s       p       d       tot
------------------------------------------
    1       -0.000  -0.000   0.000  -0.000
    2       -0.000  -0.000   0.000  -0.000
    3       -0.000  -0.000   0.000  -0.000
    4       -0.000  -0.000   0.000  -0.000
    5       -0.000  -0.000  -0.000  -0.000
    6       -0.000  -0.000   0.000  -0.000
    7        0.000   0.000   0.000   0.000
    8       -0.000  -0.000   0.000  -0.000
    9        0.000   0.000   0.000   0.000
   10        0.000   0.000   0.000   0.000
--------------------------------------------------
tot         -0.000   0.000   0.000   0.000
 

 total amount of memory used by VASP MPI-rank0   100014. kBytes
=======================================================================

   base      :      30000. kBytes
   nonlr-proj:       4587. kBytes
   fftplans  :       3990. kBytes
   grid      :      14218. kBytes
   one-center:         93. kBytes
   wavefun   :      47126. kBytes
 
  
  
 General timing and accounting informations for this job:
 ========================================================
  
                  Total CPU time used (sec):     2867.100
                            User time (sec):     2865.716
                          System time (sec):        1.384
                         Elapsed time (sec):     2867.582
  
                   Maximum memory used (kb):      239436.
                   Average memory used (kb):           0.
  
                          Minor page faults:        30569
                          Major page faults:            0
                 Voluntary context switches:           58
