       N       E                     dE             d eps       ncg     rms          ort
DAV:   1     0.286084241230E+04    0.28608E+04   -0.15309E+05  7560   0.161E+03
DAV:   2    -0.190165643973E+03   -0.30510E+04   -0.28814E+04  7560   0.446E+02
DAV:   3    -0.514135248006E+03   -0.32397E+03   -0.31960E+03  7560   0.158E+02
DAV:   4    -0.527777102132E+03   -0.13642E+02   -0.13507E+02  7560   0.286E+01
DAV:   5    -0.528428000978E+03   -0.65090E+00   -0.64975E+00  7560   0.497E+00
SDA:   6    -0.332764455776E+03    0.19566E+03   -0.64975E+00  7560   0.546E+03 0.000E+00
CGA:   7    -0.395786267029E+03   -0.63022E+02   -0.68895E+02  7560   0.204E+03-0.196E+02
CGA:   8    -0.404917654648E+03   -0.91314E+01   -0.18990E+02  7560   0.406E+02-0.138E+02
CGA:   9    -0.409751334940E+03   -0.48337E+01   -0.31373E+01  7560   0.156E+02 0.209E+02
CGA:  10    -0.410968925661E+03   -0.12176E+01   -0.64545E+00  7560   0.112E+02 0.144E+02
CGA:  11    -0.411856700417E+03   -0.88777E+00   -0.50084E+00  7560   0.666E+01 0.597E+01
CGA:  12    -0.414062940274E+03   -0.22062E+01   -0.19830E+01  7560   0.419E+01 0.130E+01
CGA:  13    -0.414768047010E+03   -0.70511E+00   -0.43079E+00  7560   0.226E+01 0.257E+01
CGA:  14    -0.415371003824E+03   -0.60296E+00   -0.56177E+00  7560   0.102E+01 0.387E+00
CGA:  15    -0.415772101369E+03   -0.40110E+00   -0.41741E+00  7560   0.158E+01-0.860E-01
CGA:  16    -0.415947360435E+03   -0.17526E+00   -0.18869E+00  7560   0.345E+00 0.281E-01
CGA:  17    -0.415989170070E+03   -0.41810E-01   -0.43540E-01  7560   0.656E-01-0.878E-02
CGA:  18    -0.416009289971E+03   -0.20120E-01   -0.21457E-01  7560   0.548E-01-0.859E-02
CGA:  19    -0.416020518578E+03   -0.11229E-01   -0.11460E-01  7560   0.250E-01-0.444E-02
CGA:  20    -0.416025760688E+03   -0.52421E-02   -0.52345E-02  7560   0.986E-02 0.189E-03
CGA:  21    -0.416027451981E+03   -0.16913E-02   -0.17361E-02  7560   0.424E-02 0.251E-02
CGA:  22    -0.416028148258E+03   -0.69628E-03   -0.79142E-03  7560   0.196E-02 0.221E-02
CGA:  23    -0.416028689874E+03   -0.54162E-03   -0.50402E-03  7560   0.710E-03 0.552E-03
CGA:  24    -0.416029067723E+03   -0.37785E-03   -0.34555E-03  7560   0.242E-03 0.171E-03
CGA:  25    -0.416029100705E+03   -0.32982E-04   -0.44704E-04  7560   0.144E-03 0.218E-03
CGA:  26    -0.416029111399E+03   -0.10694E-04   -0.18701E-04  7560   0.926E-04 0.114E-03
CGA:  27    -0.416029124134E+03   -0.12735E-04   -0.15213E-04  7560   0.646E-04 0.780E-04
CGA:  28    -0.416029136744E+03   -0.12611E-04   -0.12585E-04  7560   0.474E-04 0.564E-04
CGA:  29    -0.416029147291E+03   -0.10547E-04   -0.99200E-05  7560   0.361E-04 0.424E-04
CGA:  30    -0.416029156000E+03   -0.87088E-05   -0.79163E-05  7560   0.279E-04 0.326E-04
   1 F= -.41602916E+03 E0= -.41602916E+03  d E =-.416029E+03  mag=    18.0000
       N       E                     dE             d eps       ncg     rms          ort
SDA:   1    -0.416113534627E+03   -0.84387E-01    0.00000E+00  7560   0.100E-01 0.000E+00
CGA:   2    -0.416115875590E+03   -0.23410E-02   -0.23255E-02  7560   0.228E-02 0.451E-03
CGA:   3    -0.416116497530E+03   -0.62194E-03   -0.61120E-03  7560   0.732E-03 0.188E-03
CGA:   4    -0.416116648526E+03   -0.15100E-03   -0.15119E-03  7560   0.231E-03 0.166E-04
CGA:   5    -0.416116699592E+03   -0.51067E-04   -0.50961E-04  7560   0.824E-04 0.763E-05
CGA:   6    -0.416116713745E+03   -0.14153E-04   -0.15006E-04  7560   0.350E-04 0.326E-04
CGA:   7    -0.416116717653E+03   -0.39082E-05   -0.62000E-05  7560   0.203E-04 0.308E-04
   2 F= -.41611672E+03 E0= -.41611672E+03  d E =-.875617E-01  mag=    18.0000
       N       E                     dE             d eps       ncg     rms          ort
SDA:   1    -0.412688374183E+03    0.34283E+01    0.00000E+00  7560   0.197E+02 0.000E+00
CGA:   2    -0.417582032887E+03   -0.48937E+01   -0.48985E+01  7560   0.479E+01-0.764E-01
CGA:   3    -0.418822541481E+03   -0.12405E+01   -0.12425E+01  7560   0.164E+01-0.351E-01
CGA:   4    -0.419113050567E+03   -0.29051E+00   -0.29030E+00  7560   0.447E+00-0.992E-02
CGA:   5    -0.419207067394E+03   -0.94017E-01   -0.94041E-01  7560   0.141E+00-0.174E-02
CGA:   6    -0.419242344021E+03   -0.35277E-01   -0.35277E-01  7560   0.689E-01-0.433E-04
CGA:   7    -0.419260814639E+03   -0.18471E-01   -0.18471E-01  7560   0.293E-01-0.319E-04
CGA:   8    -0.419269053562E+03   -0.82389E-02   -0.82354E-02  7560   0.114E-01 0.407E-04
CGA:   9    -0.419272126302E+03   -0.30727E-02   -0.30673E-02  7560   0.389E-02 0.896E-04
CGA:  10    -0.419273423026E+03   -0.12967E-02   -0.13327E-02  7560   0.182E-02-0.283E-03
CGA:  11    -0.419274039810E+03   -0.61678E-03   -0.64202E-03  7560   0.916E-03-0.156E-03
CGA:  12    -0.419274296297E+03   -0.25649E-03   -0.24937E-03  7560   0.303E-03 0.997E-04
CGA:  13    -0.419274409393E+03   -0.11310E-03   -0.11344E-03  7560   0.114E-03-0.335E-05
CGA:  14    -0.419274437097E+03   -0.27704E-04   -0.27419E-04  7560   0.392E-04 0.347E-04
CGA:  15    -0.419274449033E+03   -0.11936E-04   -0.11965E-04  7560   0.148E-04 0.148E-04
CGA:  16    -0.419274454270E+03   -0.52374E-05   -0.16408E-04  7560   0.430E-04-0.197E-04
   3 F= -.41927445E+03 E0= -.41927445E+03  d E =-.315774E+01  mag=    18.0000
       N       E                     dE             d eps       ncg     rms          ort
SDA:   1    -0.402538507200E+03    0.16736E+02    0.00000E+00  7560   0.630E+02 0.000E+00
CGA:   2    -0.417468084047E+03   -0.14930E+02   -0.14939E+02  7560   0.145E+02-0.340E-03
CGA:   3    -0.421008599845E+03   -0.35405E+01   -0.35394E+01  7560   0.539E+01-0.795E-01
CGA:   4    -0.421981757407E+03   -0.97316E+00   -0.97246E+00  7560   0.138E+01-0.177E-01
CGA:   5    -0.422268094619E+03   -0.28634E+00   -0.28605E+00  7560   0.438E+00-0.494E-02
CGA:   6    -0.422375384192E+03   -0.10729E+00   -0.10729E+00  7560   0.206E+00-0.450E-03
CGA:   7    -0.422430791458E+03   -0.55407E-01   -0.55394E-01  7560   0.859E-01 0.435E-03
CGA:   8    -0.422454935359E+03   -0.24144E-01   -0.24133E-01  7560   0.328E-01 0.390E-03
CGA:   9    -0.422463792638E+03   -0.88573E-02   -0.88498E-02  7560   0.108E-01 0.505E-03
CGA:  10    -0.422467340381E+03   -0.35477E-02   -0.35484E-02  7560   0.453E-02-0.164E-04
CGA:  11    -0.422469014415E+03   -0.16740E-02   -0.16783E-02  7560   0.240E-02-0.401E-04
CGA:  12    -0.422469867071E+03   -0.85266E-03   -0.83669E-03  7560   0.997E-03 0.181E-03
CGA:  13    -0.422470255333E+03   -0.38826E-03   -0.38789E-03  7560   0.386E-03 0.293E-05
CGA:  14    -0.422470376234E+03   -0.12090E-03   -0.11861E-03  7560   0.124E-03 0.680E-04
CGA:  15    -0.422470430430E+03   -0.54195E-04   -0.54100E-04  7560   0.573E-04 0.834E-06
CGA:  16    -0.422470456914E+03   -0.26485E-04   -0.28476E-04  7560   0.354E-04-0.938E-05
CGA:  17    -0.422470467248E+03   -0.10334E-04   -0.10192E-04  7560   0.143E-04 0.260E-05
CGA:  18    -0.422470472484E+03   -0.52361E-05   -0.10287E-04  7560   0.237E-04-0.134E-04
   4 F= -.42247047E+03 E0= -.42247047E+03  d E =-.319602E+01  mag=    18.0000
       N       E                     dE             d eps       ncg     rms          ort
SDA:   1    -0.413084549621E+03    0.93859E+01    0.00000E+00  7560   0.361E+02 0.000E+00
CGA:   2    -0.421022657774E+03   -0.79381E+01   -0.79654E+01  7560   0.789E+01 0.683E-01
CGA:   3    -0.422909464192E+03   -0.18868E+01   -0.18854E+01  7560   0.309E+01-0.171E-01
CGA:   4    -0.423459532489E+03   -0.55007E+00   -0.54969E+00  7560   0.700E+00-0.547E-02
CGA:   5    -0.423599393689E+03   -0.13986E+00   -0.13996E+00  7560   0.202E+00 0.940E-03
CGA:   6    -0.423645909232E+03   -0.46516E-01   -0.46614E-01  7560   0.868E-01 0.146E-02
CGA:   7    -0.423670758054E+03   -0.24849E-01   -0.24850E-01  7560   0.431E-01 0.275E-03
CGA:   8    -0.423684253811E+03   -0.13496E-01   -0.13507E-01  7560   0.212E-01-0.436E-03
CGA:   9    -0.423690345316E+03   -0.60915E-02   -0.60915E-02  7560   0.800E-02 0.175E-04
CGA:  10    -0.423692886376E+03   -0.25411E-02   -0.25375E-02  7560   0.309E-02 0.128E-03
CGA:  11    -0.423693986279E+03   -0.10999E-02   -0.10982E-02  7560   0.145E-02 0.281E-04
CGA:  12    -0.423694530764E+03   -0.54449E-03   -0.54209E-03  7560   0.626E-03 0.311E-04
CGA:  13    -0.423694778091E+03   -0.24733E-03   -0.25539E-03  7560   0.268E-03-0.790E-04
CGA:  14    -0.423694857093E+03   -0.79002E-04   -0.78841E-04  7560   0.818E-04 0.463E-05
CGA:  15    -0.423694886550E+03   -0.29457E-04   -0.29454E-04  7560   0.313E-04 0.105E-07
CGA:  16    -0.423694897666E+03   -0.11116E-04   -0.10893E-04  7560   0.132E-04 0.536E-05
CGA:  17    -0.423694899596E+03   -0.19305E-05   -0.29592E-05  7560   0.664E-05 0.880E-05
   5 F= -.42369490E+03 E0= -.42369490E+03  d E =-.122443E+01  mag=    18.0000
       N       E                     dE             d eps       ncg     rms          ort
SDA:   1    -0.413347779665E+03    0.10347E+02    0.00000E+00  7560   0.364E+02 0.000E+00
CGA:   2    -0.421475044339E+03   -0.81273E+01   -0.81584E+01  7560   0.831E+01 0.101E+00
CGA:   3    -0.423521934549E+03   -0.20469E+01   -0.20454E+01  7560   0.310E+01-0.191E-01
CGA:   4    -0.424057670576E+03   -0.53574E+00   -0.53556E+00  7560   0.685E+00-0.433E-02
CGA:   5    -0.424193967281E+03   -0.13630E+00   -0.13651E+00  7560   0.194E+00 0.200E-02
CGA:   6    -0.424238730956E+03   -0.44764E-01   -0.44897E-01  7560   0.831E-01 0.245E-02
CGA:   7    -0.424262696018E+03   -0.23965E-01   -0.23963E-01  7560   0.426E-01 0.765E-03
CGA:   8    -0.424276561745E+03   -0.13866E-01   -0.13887E-01  7560   0.219E-01-0.503E-03
CGA:   9    -0.424282857007E+03   -0.62953E-02   -0.62955E-02  7560   0.828E-02-0.343E-04
CGA:  10    -0.424285405477E+03   -0.25485E-02   -0.25441E-02  7560   0.303E-02 0.193E-03
CGA:  11    -0.424286463469E+03   -0.10580E-02   -0.10538E-02  7560   0.137E-02 0.786E-04
CGA:  12    -0.424286995937E+03   -0.53247E-03   -0.53288E-03  7560   0.629E-03-0.499E-05
CGA:  13    -0.424287250596E+03   -0.25466E-03   -0.27803E-03  7560   0.334E-03-0.156E-03
CGA:  14    -0.424287334704E+03   -0.84108E-04   -0.84560E-04  7560   0.112E-03-0.130E-04
CGA:  15    -0.424287369145E+03   -0.34441E-04   -0.34353E-04  7560   0.430E-04 0.520E-05
CGA:  16    -0.424287383890E+03   -0.14745E-04   -0.14578E-04  7560   0.188E-04 0.807E-05
CGA:  17    -0.424287387040E+03   -0.31501E-05   -0.44172E-05  7560   0.915E-05 0.119E-04
   6 F= -.42428739E+03 E0= -.42428739E+03  d E =-.592487E+00  mag=    18.0000
       N       E                     dE             d eps       ncg     rms          ort
SDA:   1    -0.410432232859E+03    0.13855E+02    0.00000E+00  7560   0.451E+02 0.000E+00
CGA:   2    -0.420840337132E+03   -0.10408E+02   -0.10448E+02  7560   0.122E+02 0.165E+00
CGA:   3    -0.423583022267E+03   -0.27427E+01   -0.27428E+01  7560   0.447E+01-0.121E-02
CGA:   4    -0.424342457519E+03   -0.75944E+00   -0.76015E+00  7560   0.906E+00-0.934E-05
CGA:   5    -0.424523801630E+03   -0.18134E+00   -0.18148E+00  7560   0.259E+00 0.719E-03
CGA:   6    -0.424581585548E+03   -0.57784E-01   -0.57792E-01  7560   0.102E+00 0.550E-04
CGA:   7    -0.424611386708E+03   -0.29801E-01   -0.29801E-01  7560   0.554E-01 0.180E-04
CGA:   8    -0.424629451119E+03   -0.18064E-01   -0.18057E-01  7560   0.296E-01 0.146E-03
CGA:   9    -0.424638474088E+03   -0.90230E-02   -0.90193E-02  7560   0.115E-01 0.151E-03
CGA:  10    -0.424642041566E+03   -0.35675E-02   -0.35660E-02  7560   0.402E-02 0.511E-04
CGA:  11    -0.424643378769E+03   -0.13372E-02   -0.13372E-02  7560   0.168E-02-0.133E-05
CGA:  12    -0.424643973495E+03   -0.59473E-03   -0.58945E-03  7560   0.703E-03 0.808E-04
CGA:  13    -0.424644238406E+03   -0.26491E-03   -0.26172E-03  7560   0.270E-03 0.481E-04
CGA:  14    -0.424644338605E+03   -0.10020E-03   -0.98789E-04  7560   0.948E-04 0.281E-04
CGA:  15    -0.424644372168E+03   -0.33562E-04   -0.33109E-04  7560   0.353E-04 0.217E-04
CGA:  16    -0.424644390838E+03   -0.18671E-04   -0.18456E-04  7560   0.219E-04 0.163E-05
CGA:  17    -0.424644401098E+03   -0.10260E-04   -0.10058E-04  7560   0.117E-04 0.144E-05
CGA:  18    -0.424644406539E+03   -0.54414E-05   -0.56107E-05  7560   0.559E-05-0.123E-05
   7 F= -.42464441E+03 E0= -.42464441E+03  d E =-.357019E+00  mag=    18.0000
       N       E                     dE             d eps       ncg     rms          ort
SDA:   1    -0.398181139376E+03    0.26463E+02    0.00000E+00  7560   0.767E+02 0.000E+00
CGA:   2    -0.417223190547E+03   -0.19042E+02   -0.19105E+02  7560   0.258E+02 0.239E+00
CGA:   3    -0.422548416889E+03   -0.53252E+01   -0.53282E+01  7560   0.874E+01 0.463E-01
CGA:   4    -0.424060908608E+03   -0.15125E+01   -0.15165E+01  7560   0.167E+01 0.190E-01
CGA:   5    -0.424390552469E+03   -0.32964E+00   -0.33018E+00  7560   0.489E+00 0.444E-02
CGA:   6    -0.424500777080E+03   -0.11022E+00   -0.11025E+00  7560   0.183E+00 0.771E-04
CGA:   7    -0.424553054524E+03   -0.52277E-01   -0.52274E-01  7560   0.908E-01-0.801E-03
CGA:   8    -0.424581175616E+03   -0.28121E-01   -0.28113E-01  7560   0.458E-01 0.325E-03
CGA:   9    -0.424595472423E+03   -0.14297E-01   -0.14285E-01  7560   0.187E-01 0.574E-03
CGA:  10    -0.424601522615E+03   -0.60502E-02   -0.60456E-02  7560   0.738E-02 0.155E-03
CGA:  11    -0.424604125785E+03   -0.26032E-02   -0.26110E-02  7560   0.348E-02-0.142E-03
CGA:  12    -0.424605398602E+03   -0.12728E-02   -0.12729E-02  7560   0.156E-02-0.449E-05
CGA:  13    -0.424605909561E+03   -0.51096E-03   -0.50665E-03  7560   0.508E-03 0.168E-03
CGA:  14    -0.424606090378E+03   -0.18082E-03   -0.17978E-03  7560   0.163E-03 0.578E-04
CGA:  15    -0.424606160679E+03   -0.70301E-04   -0.70312E-04  7560   0.701E-04-0.245E-06
CGA:  16    -0.424606192723E+03   -0.32044E-04   -0.33391E-04  7560   0.401E-04-0.799E-05
CGA:  17    -0.424606030977E+03    0.16175E-03   -0.87649E-04  7560   0.653E-03-0.137E-03
CGA:  18    -0.424606182100E+03   -0.15112E-03   -0.16714E-03  7560   0.832E-04 0.499E-04
CGA:  19    -0.424606213697E+03   -0.31598E-04   -0.30268E-04  7560   0.394E-04-0.591E-05
CGA:  20    -0.424606218208E+03   -0.45104E-05   -0.86832E-05  7560   0.137E-04 0.134E-04
   8 F= -.42460622E+03 E0= -.42460622E+03  d E =0.381883E-01  mag=    18.0000
       N       E                     dE             d eps       ncg     rms          ort
SDA:   1    -0.421174306313E+03    0.34319E+01    0.00000E+00  7560   0.969E+01 0.000E+00
CGA:   2    -0.424049170617E+03   -0.28749E+01   -0.28731E+01  7560   0.344E+01-0.225E-02
CGA:   3    -0.424695988507E+03   -0.64682E+00   -0.64760E+00  7560   0.110E+01-0.775E-03
CGA:   4    -0.424893725976E+03   -0.19774E+00   -0.19809E+00  7560   0.223E+00 0.827E-03
CGA:   5    -0.424936949053E+03   -0.43223E-01   -0.43300E-01  7560   0.680E-01 0.374E-03
CGA:   6    -0.424952152633E+03   -0.15204E-01   -0.15217E-01  7560   0.235E-01 0.416E-04
CGA:   7    -0.424958336136E+03   -0.61835E-02   -0.61639E-02  7560   0.939E-02-0.112E-03
CGA:   8    -0.424960974819E+03   -0.26387E-02   -0.26289E-02  7560   0.400E-02-0.646E-04
CGA:   9    -0.424962140414E+03   -0.11656E-02   -0.11672E-02  7560   0.146E-02 0.104E-04
CGA:  10    -0.424962629896E+03   -0.48948E-03   -0.48236E-03  7560   0.627E-03-0.760E-04
CGA:  11    -0.424962825191E+03   -0.19529E-03   -0.19547E-03  7560   0.282E-03 0.147E-05
CGA:  12    -0.424962913200E+03   -0.88009E-04   -0.91634E-04  7560   0.126E-03 0.402E-04
CGA:  13    -0.424962976312E+03   -0.63112E-04   -0.63747E-04  7560   0.856E-04-0.190E-04
CGA:  14    -0.424962997998E+03   -0.21686E-04   -0.22339E-04  7560   0.322E-04 0.620E-05
CGA:  15    -0.424963005849E+03   -0.78507E-05   -0.87547E-05  7560   0.107E-04 0.589E-05
   9 F= -.42496301E+03 E0= -.42496301E+03  d E =-.356788E+00  mag=    18.0000
       N       E                     dE             d eps       ncg     rms          ort
SDA:   1    -0.424139859770E+03    0.82314E+00    0.00000E+00  7560   0.257E+01 0.000E+00
CGA:   2    -0.424787293683E+03   -0.64743E+00   -0.64714E+00  7560   0.919E+00-0.515E-02
CGA:   3    -0.424963179447E+03   -0.17589E+00   -0.17593E+00  7560   0.305E+00 0.394E-04
CGA:   4    -0.425017159253E+03   -0.53980E-01   -0.54316E-01  7560   0.596E-01 0.151E-02
CGA:   5    -0.425028421637E+03   -0.11262E-01   -0.11272E-01  7560   0.168E-01 0.344E-04
CGA:   6    -0.425032368329E+03   -0.39467E-02   -0.38799E-02  7560   0.633E-02-0.524E-03
CGA:   7    -0.425034092641E+03   -0.17243E-02   -0.17088E-02  7560   0.305E-02-0.215E-03
CGA:   8    -0.425034935355E+03   -0.84271E-03   -0.85147E-03  7560   0.137E-02 0.146E-03
CGA:   9    -0.425035382636E+03   -0.44728E-03   -0.44891E-03  7560   0.575E-03 0.481E-04
CGA:  10    -0.425035600395E+03   -0.21776E-03   -0.21982E-03  7560   0.309E-03-0.794E-04
CGA:  11    -0.425035683249E+03   -0.82855E-04   -0.82944E-04  7560   0.123E-03 0.249E-05
CGA:  12    -0.425035719515E+03   -0.36265E-04   -0.36994E-04  7560   0.462E-04 0.163E-04
CGA:  13    -0.425035733247E+03   -0.13732E-04   -0.14430E-04  7560   0.165E-04 0.108E-04
CGA:  14    -0.425035736497E+03   -0.32503E-05   -0.43087E-05  7560   0.637E-05 0.843E-05
  10 F= -.42503574E+03 E0= -.42503574E+03  d E =-.727306E-01  mag=    18.0000
       N       E                     dE             d eps       ncg     rms          ort
SDA:   1    -0.421382699650E+03    0.36530E+01    0.00000E+00  7560   0.107E+02 0.000E+00
CGA:   2    -0.423894741319E+03   -0.25120E+01   -0.25135E+01  7560   0.496E+01-0.862E-03
CGA:   3    -0.424779810101E+03   -0.88507E+00   -0.88468E+00  7560   0.133E+01-0.492E-03
CGA:   4    -0.425025568087E+03   -0.24576E+00   -0.24603E+00  7560   0.300E+00 0.168E-02
CGA:   5    -0.425078474394E+03   -0.52906E-01   -0.53065E-01  7560   0.710E-01 0.933E-03
CGA:   6    -0.425094288954E+03   -0.15815E-01   -0.15771E-01  7560   0.235E-01-0.571E-03
CGA:   7    -0.425100306650E+03   -0.60177E-02   -0.59927E-02  7560   0.957E-02-0.608E-03
CGA:   8    -0.425102999130E+03   -0.26925E-02   -0.26943E-02  7560   0.435E-02 0.218E-03
CGA:   9    -0.425104367877E+03   -0.13687E-02   -0.13661E-02  7560   0.184E-02 0.256E-03
CGA:  10    -0.425105039049E+03   -0.67117E-03   -0.67429E-03  7560   0.935E-03-0.667E-04
CGA:  11    -0.425105348577E+03   -0.30953E-03   -0.30978E-03  7560   0.429E-03-0.696E-05
CGA:  12    -0.425105498959E+03   -0.15038E-03   -0.14967E-03  7560   0.187E-03 0.139E-04
CGA:  13    -0.425105557539E+03   -0.58580E-04   -0.58613E-04  7560   0.656E-04 0.334E-04
CGA:  14    -0.425105573896E+03   -0.16357E-04   -0.18196E-04  7560   0.218E-04 0.266E-04
CGA:  15    -0.425105580489E+03   -0.65936E-05   -0.72602E-05  7560   0.872E-05 0.104E-04
  11 F= -.42510558E+03 E0= -.42510558E+03  d E =-.698440E-01  mag=    18.0000
       N       E                     dE             d eps       ncg     rms          ort
SDA:   1    -0.419501968650E+03    0.56036E+01    0.00000E+00  7560   0.159E+02 0.000E+00
CGA:   2    -0.423258137683E+03   -0.37562E+01   -0.37592E+01  7560   0.779E+01 0.170E-01
CGA:   3    -0.424651847395E+03   -0.13937E+01   -0.13935E+01  7560   0.199E+01-0.225E-02
CGA:   4    -0.425015564692E+03   -0.36372E+00   -0.36339E+00  7560   0.443E+00-0.257E-02
CGA:   5    -0.425094149501E+03   -0.78585E-01   -0.78722E-01  7560   0.106E+00 0.993E-03
CGA:   6    -0.425117373338E+03   -0.23224E-01   -0.23259E-01  7560   0.340E-01 0.535E-03
CGA:   7    -0.425126053783E+03   -0.86804E-02   -0.86731E-02  7560   0.136E-01-0.352E-03
CGA:   8    -0.425130135890E+03   -0.40821E-02   -0.40835E-02  7560   0.665E-02-0.539E-04
CGA:   9    -0.425132201454E+03   -0.20656E-02   -0.20581E-02  7560   0.279E-02 0.212E-03
CGA:  10    -0.425133126618E+03   -0.92516E-03   -0.92275E-03  7560   0.121E-02 0.537E-04
CGA:  11    -0.425133542784E+03   -0.41617E-03   -0.41421E-03  7560   0.543E-03 0.336E-04
CGA:  12    -0.425133742931E+03   -0.20015E-03   -0.19746E-03  7560   0.249E-03 0.371E-04
CGA:  13    -0.425133830247E+03   -0.87317E-04   -0.85770E-04  7560   0.943E-04 0.423E-04
CGA:  14    -0.425133860745E+03   -0.30497E-04   -0.30761E-04  7560   0.303E-04 0.278E-04
CGA:  15    -0.425133872579E+03   -0.11834E-04   -0.11745E-04  7560   0.113E-04 0.781E-05
CGA:  16    -0.425133876770E+03   -0.41912E-05   -0.41696E-05  7560   0.488E-05 0.403E-05
  12 F= -.42513388E+03 E0= -.42513388E+03  d E =-.282963E-01  mag=    18.0000
       N       E                     dE             d eps       ncg     rms          ort
SDA:   1    -0.415769277003E+03    0.93646E+01    0.00000E+00  7560   0.262E+02 0.000E+00
CGA:   2    -0.422043312547E+03   -0.62740E+01   -0.62793E+01  7560   0.130E+02 0.468E-01
CGA:   3    -0.424364806578E+03   -0.23215E+01   -0.23224E+01  7560   0.323E+01 0.517E-02
CGA:   4    -0.424951396980E+03   -0.58659E+00   -0.58601E+00  7560   0.722E+00-0.355E-02
CGA:   5    -0.425080565319E+03   -0.12917E+00   -0.12933E+00  7560   0.173E+00 0.135E-02
CGA:   6    -0.425118450020E+03   -0.37885E-01   -0.37935E-01  7560   0.542E-01 0.940E-03
CGA:   7    -0.425132109944E+03   -0.13660E-01   -0.13656E-01  7560   0.208E-01-0.313E-03
CGA:   8    -0.425138305705E+03   -0.61958E-02   -0.61947E-02  7560   0.976E-02 0.209E-04
CGA:   9    -0.425141348791E+03   -0.30431E-02   -0.30308E-02  7560   0.403E-02 0.273E-03
CGA:  10    -0.425142674175E+03   -0.13254E-02   -0.13226E-02  7560   0.172E-02 0.508E-04
CGA:  11    -0.425143256224E+03   -0.58205E-03   -0.57881E-03  7560   0.760E-03 0.501E-04
CGA:  12    -0.425143547037E+03   -0.29081E-03   -0.28741E-03  7560   0.371E-03 0.354E-04
CGA:  13    -0.425143681433E+03   -0.13440E-03   -0.13120E-03  7560   0.150E-03 0.538E-04
CGA:  14    -0.425143731773E+03   -0.50340E-04   -0.49936E-04  7560   0.486E-04 0.390E-04
CGA:  15    -0.425143753088E+03   -0.21316E-04   -0.20998E-04  7560   0.193E-04 0.515E-05
CGA:  16    -0.425143760272E+03   -0.71831E-05   -0.70167E-05  7560   0.745E-05 0.372E-05
  13 F= -.42514376E+03 E0= -.42514376E+03  d E =-.988350E-02  mag=    18.0000
       N       E                     dE             d eps       ncg     rms          ort
SDA:   1    -0.417562509151E+03    0.75812E+01    0.00000E+00  7560   0.184E+02 0.000E+00
CGA:   2    -0.423131124525E+03   -0.55686E+01   -0.55685E+01  7560   0.830E+01 0.344E-02
CGA:   3    -0.424489755323E+03   -0.13586E+01   -0.13587E+01  7560   0.201E+01 0.136E-02
CGA:   4    -0.424864605464E+03   -0.37485E+00   -0.37483E+00  7560   0.466E+00-0.102E-02
CGA:   5    -0.424950170342E+03   -0.85565E-01   -0.85682E-01  7560   0.121E+00 0.107E-02
CGA:   6    -0.424977190689E+03   -0.27020E-01   -0.27051E-01  7560   0.402E-01 0.555E-03
CGA:   7    -0.424987442516E+03   -0.10252E-01   -0.10245E-01  7560   0.151E-01-0.382E-03
CGA:   8    -0.424991765863E+03   -0.43233E-02   -0.43248E-02  7560   0.658E-02-0.802E-04
CGA:   9    -0.424993717696E+03   -0.19518E-02   -0.19489E-02  7560   0.237E-02 0.112E-03
CGA:  10    -0.424994476509E+03   -0.75881E-03   -0.76012E-03  7560   0.951E-03-0.318E-04
CGA:  11    -0.424994767175E+03   -0.29067E-03   -0.28820E-03  7560   0.394E-03 0.760E-04
CGA:  12    -0.424994933379E+03   -0.16620E-03   -0.16532E-03  7560   0.236E-03 0.755E-05
CGA:  13    -0.424995034569E+03   -0.10119E-03   -0.10306E-03  7560   0.137E-03-0.129E-04
CGA:  14    -0.424995063419E+03   -0.28850E-04   -0.30921E-04  7560   0.478E-04 0.413E-04
CGA:  15    -0.424995077350E+03   -0.13931E-04   -0.14662E-04  7560   0.165E-04 0.142E-04
CGA:  16    -0.424995085903E+03   -0.85527E-05   -0.12147E-04  7560   0.214E-04-0.127E-04
  14 F= -.42499509E+03 E0= -.42499509E+03  d E =0.148674E+00  mag=    18.0000
       N       E                     dE             d eps       ncg     rms          ort
SDA:   1    -0.422220827636E+03    0.27742E+01    0.00000E+00  7560   0.783E+01 0.000E+00
CGA:   2    -0.424332926396E+03   -0.21121E+01   -0.21123E+01  7560   0.380E+01 0.236E-02
CGA:   3    -0.424975960630E+03   -0.64303E+00   -0.64377E+00  7560   0.942E+00 0.404E-02
CGA:   4    -0.425152573467E+03   -0.17661E+00   -0.17655E+00  7560   0.221E+00-0.798E-03
CGA:   5    -0.425192823501E+03   -0.40250E-01   -0.40225E-01  7560   0.555E-01-0.310E-03
CGA:   6    -0.425204965906E+03   -0.12142E-01   -0.12181E-01  7560   0.181E-01 0.704E-03
CGA:   7    -0.425209438388E+03   -0.44725E-02   -0.44877E-02  7560   0.647E-02 0.595E-03
CGA:   8    -0.425211382463E+03   -0.19441E-02   -0.19431E-02  7560   0.291E-02 0.439E-04
CGA:   9    -0.425212322596E+03   -0.94013E-03   -0.94463E-03  7560   0.123E-02-0.871E-04
CGA:  10    -0.425212685836E+03   -0.36324E-03   -0.36283E-03  7560   0.483E-03 0.129E-04
CGA:  11    -0.425212846370E+03   -0.16053E-03   -0.15975E-03  7560   0.219E-03 0.145E-04
CGA:  12    -0.425212935071E+03   -0.88701E-04   -0.88721E-04  7560   0.125E-03-0.421E-06
CGA:  13    -0.425212988845E+03   -0.53774E-04   -0.71634E-04  7560   0.129E-03-0.612E-04
CGA:  14    -0.425213009513E+03   -0.20668E-04   -0.21629E-04  7560   0.612E-04-0.304E-04
CGA:  15    -0.425213022308E+03   -0.12795E-04   -0.12531E-04  7560   0.272E-04-0.844E-05
CGA:  16    -0.425213030760E+03   -0.84525E-05   -0.10103E-04  7560   0.235E-04-0.125E-04
  15 F= -.42521303E+03 E0= -.42521303E+03  d E =-.217945E+00  mag=    18.0000
       N       E                     dE             d eps       ncg     rms          ort
SDA:   1    -0.424968043673E+03    0.24498E+00    0.00000E+00  7560   0.627E+00 0.000E+00
CGA:   2    -0.425162850761E+03   -0.19481E+00   -0.19480E+00  7560   0.277E+00 0.979E-03
CGA:   3    -0.425207893446E+03   -0.45043E-01   -0.44902E-01  7560   0.651E-01-0.111E-02
CGA:   4    -0.425219700557E+03   -0.11807E-01   -0.11766E-01  7560   0.140E-01-0.376E-03
CGA:   5    -0.425222225242E+03   -0.25247E-02   -0.25397E-02  7560   0.351E-02 0.139E-03
CGA:   6    -0.425222949951E+03   -0.72471E-03   -0.73532E-03  7560   0.966E-03 0.139E-03
CGA:   7    -0.425223203775E+03   -0.25382E-03   -0.25382E-03  7560   0.377E-03-0.514E-06
CGA:   8    -0.425223319857E+03   -0.11608E-03   -0.11654E-03  7560   0.185E-03-0.147E-04
CGA:   9    -0.425223372183E+03   -0.52326E-04   -0.52220E-04  7560   0.675E-04 0.774E-05
CGA:  10    -0.425223394537E+03   -0.22354E-04   -0.22437E-04  7560   0.275E-04-0.220E-05
CGA:  11    -0.425223400355E+03   -0.58183E-05   -0.61925E-05  7560   0.100E-04 0.758E-05
  16 F= -.42522340E+03 E0= -.42522340E+03  d E =-.103696E-01  mag=    18.0000
       N       E                     dE             d eps       ncg     rms          ort
SDA:   1    -0.417104380886E+03    0.81190E+01    0.00000E+00  7560   0.197E+02 0.000E+00
CGA:   2    -0.423436314785E+03   -0.63319E+01   -0.63307E+01  7560   0.831E+01 0.149E-01
CGA:   3    -0.424760490226E+03   -0.13242E+01   -0.13241E+01  7560   0.192E+01-0.180E-02
CGA:   4    -0.425104447347E+03   -0.34396E+00   -0.34375E+00  7560   0.405E+00-0.242E-02
CGA:   5    -0.425179755937E+03   -0.75309E-01   -0.75399E-01  7560   0.108E+00 0.944E-03
CGA:   6    -0.425202780113E+03   -0.23024E-01   -0.23071E-01  7560   0.308E-01 0.846E-03
CGA:   7    -0.425210618237E+03   -0.78381E-02   -0.78359E-02  7560   0.122E-01-0.220E-03
CGA:   8    -0.425214414217E+03   -0.37960E-02   -0.38122E-02  7560   0.605E-02-0.315E-03
CGA:   9    -0.425216280065E+03   -0.18658E-02   -0.18733E-02  7560   0.241E-02-0.143E-03
CGA:  10    -0.425217008691E+03   -0.72863E-03   -0.73202E-03  7560   0.881E-03-0.792E-04
CGA:  11    -0.425217261498E+03   -0.25281E-03   -0.25075E-03  7560   0.329E-03 0.843E-04
CGA:  12    -0.425217405372E+03   -0.14387E-03   -0.14405E-03  7560   0.210E-03-0.173E-05
CGA:  13    -0.425217499051E+03   -0.93679E-04   -0.10262E-03  7560   0.150E-03-0.422E-04
CGA:  14    -0.425217527320E+03   -0.28269E-04   -0.29356E-04  7560   0.541E-04 0.252E-04
CGA:  15    -0.425217542656E+03   -0.15336E-04   -0.15546E-04  7560   0.179E-04 0.516E-05
CGA:  16    -0.425217526637E+03    0.16018E-04   -0.21111E-04  7560   0.112E-03-0.470E-04
CGA:  17    -0.425217540143E+03   -0.13506E-04   -0.20152E-04  7560   0.239E-04 0.459E-04
CGA:  18    -0.425217549300E+03   -0.91570E-05   -0.91728E-05  7560   0.579E-05 0.349E-06
  17 F= -.42521755E+03 E0= -.42521755E+03  d E =0.585105E-02  mag=    18.0000
       N       E                     dE             d eps       ncg     rms          ort
SDA:   1    -0.411956368599E+03    0.13261E+02    0.00000E+00  7560   0.318E+02 0.000E+00
CGA:   2    -0.422608551397E+03   -0.10652E+02   -0.10651E+02  7560   0.111E+02 0.908E-02
CGA:   3    -0.424495206348E+03   -0.18867E+01   -0.18879E+01  7560   0.292E+01 0.309E-02
CGA:   4    -0.425001344108E+03   -0.50614E+00   -0.50670E+00  7560   0.590E+00 0.249E-02
CGA:   5    -0.425115968422E+03   -0.11462E+00   -0.11481E+00  7560   0.167E+00 0.164E-02
CGA:   6    -0.425151438824E+03   -0.35470E-01   -0.35518E-01  7560   0.489E-01 0.497E-03
CGA:   7    -0.425164235536E+03   -0.12797E-01   -0.12795E-01  7560   0.204E-01-0.850E-04
CGA:   8    -0.425170436431E+03   -0.62009E-02   -0.62012E-02  7560   0.942E-02-0.273E-04
CGA:   9    -0.425173356482E+03   -0.29201E-02   -0.29201E-02  7560   0.360E-02-0.495E-05
CGA:  10    -0.425174457590E+03   -0.11011E-02   -0.11011E-02  7560   0.128E-02-0.159E-05
CGA:  11    -0.425174872132E+03   -0.41454E-03   -0.41297E-03  7560   0.550E-03 0.534E-04
CGA:  12    -0.425175128759E+03   -0.25663E-03   -0.27220E-03  7560   0.434E-03-0.868E-04
CGA:  13    -0.425175279285E+03   -0.15053E-03   -0.15731E-03  7560   0.226E-03-0.537E-04
CGA:  14    -0.425175336631E+03   -0.57345E-04   -0.57659E-04  7560   0.708E-04 0.168E-04
CGA:  15    -0.425175361160E+03   -0.24530E-04   -0.24566E-04  7560   0.260E-04-0.252E-05
CGA:  16    -0.425175369141E+03   -0.79810E-05   -0.79618E-05  7560   0.102E-04 0.222E-05
  18 F= -.42517537E+03 E0= -.42517537E+03  d E =0.421802E-01  mag=    18.0000
       N       E                     dE             d eps       ncg     rms          ort
SDA:   1    -0.421083708771E+03    0.40917E+01    0.00000E+00  7560   0.986E+01 0.000E+00
CGA:   2    -0.424308984802E+03   -0.32253E+01   -0.32246E+01  7560   0.313E+01 0.159E-01
CGA:   3    -0.424925513318E+03   -0.61653E+00   -0.61723E+00  7560   0.942E+00 0.338E-02
CGA:   4    -0.425087880713E+03   -0.16237E+00   -0.16241E+00  7560   0.203E+00 0.311E-04
CGA:   5    -0.425130112003E+03   -0.42231E-01   -0.42149E-01  7560   0.617E-01-0.104E-02
CGA:   6    -0.425143532611E+03   -0.13421E-01   -0.13396E-01  7560   0.218E-01-0.379E-03
CGA:   7    -0.425149226555E+03   -0.56939E-02   -0.57011E-02  7560   0.837E-02 0.329E-03
CGA:   8    -0.425151615353E+03   -0.23888E-02   -0.23892E-02  7560   0.351E-02 0.175E-03
CGA:   9    -0.425152670689E+03   -0.10553E-02   -0.10553E-02  7560   0.124E-02 0.307E-05
CGA:  10    -0.425153071291E+03   -0.40060E-03   -0.40393E-03  7560   0.519E-03-0.820E-04
CGA:  11    -0.425153259342E+03   -0.18805E-03   -0.20937E-03  7560   0.372E-03-0.146E-03
CGA:  12    -0.425153327636E+03   -0.68293E-04   -0.70135E-04  7560   0.161E-03 0.597E-04
CGA:  13    -0.425153365089E+03   -0.37454E-04   -0.41069E-04  7560   0.655E-04 0.498E-04
CGA:  14    -0.425153388498E+03   -0.23409E-04   -0.23612E-04  7560   0.302E-04 0.159E-04
CGA:  15    -0.425153394740E+03   -0.62425E-05   -0.76044E-05  7560   0.140E-04 0.160E-04
  19 F= -.42515339E+03 E0= -.42515339E+03  d E =0.219744E-01  mag=    18.0000
       N       E                     dE             d eps       ncg     rms          ort
SDA:   1    -0.423547874097E+03    0.16055E+01    0.00000E+00  7560   0.414E+01 0.000E+00
CGA:   2    -0.424965382786E+03   -0.14175E+01   -0.14179E+01  7560   0.121E+01-0.601E-02
CGA:   3    -0.425201044916E+03   -0.23566E+00   -0.23589E+00  7560   0.374E+00 0.180E-02
CGA:   4    -0.425265612485E+03   -0.64568E-01   -0.64617E-01  7560   0.771E-01 0.414E-03
CGA:   5    -0.425281222488E+03   -0.15610E-01   -0.15600E-01  7560   0.234E-01-0.137E-03
CGA:   6    -0.425286280519E+03   -0.50580E-02   -0.50530E-02  7560   0.765E-02-0.890E-04
CGA:   7    -0.425288312699E+03   -0.20322E-02   -0.20316E-02  7560   0.305E-02-0.873E-04
CGA:   8    -0.425289185731E+03   -0.87303E-03   -0.87472E-03  7560   0.132E-02-0.974E-04
CGA:   9    -0.425289535228E+03   -0.34950E-03   -0.34946E-03  7560   0.421E-03 0.526E-04
CGA:  10    -0.425289670104E+03   -0.13488E-03   -0.13497E-03  7560   0.161E-03-0.278E-05
CGA:  11    -0.425289731104E+03   -0.61000E-04   -0.71893E-04  7560   0.140E-03-0.622E-04
CGA:  12    -0.425289749096E+03   -0.17991E-04   -0.19152E-04  7560   0.714E-04 0.192E-04
CGA:  13    -0.425289763976E+03   -0.14881E-04   -0.16160E-04  7560   0.303E-04 0.156E-04
CGA:  14    -0.425289769467E+03   -0.54906E-05   -0.25834E-04  7560   0.929E-04-0.482E-04
CGA:  15    -0.425289784360E+03   -0.14893E-04   -0.17780E-04  7560   0.122E-04 0.271E-04
CGA:  16    -0.425289789727E+03   -0.53671E-05   -0.58187E-05  7560   0.486E-05-0.587E-05
  20 F= -.42528979E+03 E0= -.42528979E+03  d E =-.136395E+00  mag=    18.0000
       N       E                     dE             d eps       ncg     rms          ort
SDA:   1    -0.425212526671E+03    0.77258E-01    0.00000E+00  7560   0.222E+00 0.000E+00
CGA:   2    -0.425268643751E+03   -0.56117E-01   -0.56080E-01  7560   0.109E+00-0.996E-03
CGA:   3    -0.425287341959E+03   -0.18698E-01   -0.18832E-01  7560   0.272E-01 0.110E-02
CGA:   4    -0.425292177419E+03   -0.48355E-02   -0.48986E-02  7560   0.561E-02 0.572E-03
CGA:   5    -0.425293270145E+03   -0.10927E-02   -0.10830E-02  7560   0.149E-02-0.108E-03
CGA:   6    -0.425293637406E+03   -0.36726E-03   -0.36147E-03  7560   0.585E-03-0.197E-03
CGA:   7    -0.425293745832E+03   -0.10843E-03   -0.11008E-03  7560   0.187E-03 0.283E-04
CGA:   8    -0.425293779298E+03   -0.33466E-04   -0.38362E-04  7560   0.699E-04 0.637E-04
CGA:   9    -0.425293798004E+03   -0.18706E-04   -0.20159E-04  7560   0.357E-04 0.275E-04
CGA:  10    -0.425293816893E+03   -0.18889E-04   -0.20041E-04  7560   0.350E-04-0.844E-05
CGA:  11    -0.425293825078E+03   -0.81845E-05   -0.87424E-05  7560   0.252E-04-0.102E-04
  21 F= -.42529383E+03 E0= -.42529383E+03  d E =-.403535E-02  mag=    18.0000
       N       E                     dE             d eps       ncg     rms          ort
SDA:   1    -0.424347695124E+03    0.94612E+00    0.00000E+00  7560   0.252E+01 0.000E+00
CGA:   2    -0.425038712889E+03   -0.69102E+00   -0.69101E+00  7560   0.107E+01-0.219E-02
CGA:   3    -0.425236428383E+03   -0.19772E+00   -0.19770E+00  7560   0.287E+00-0.263E-03
CGA:   4    -0.425285709563E+03   -0.49281E-01   -0.49277E-01  7560   0.539E-01-0.210E-03
CGA:   5    -0.425296005998E+03   -0.10296E-01   -0.10269E-01  7560   0.148E-01-0.368E-03
CGA:   6    -0.425299169526E+03   -0.31635E-02   -0.31529E-02  7560   0.442E-02-0.216E-03
CGA:   7    -0.425300259517E+03   -0.10900E-02   -0.10907E-02  7560   0.173E-02 0.541E-04
CGA:   8    -0.425300788272E+03   -0.52875E-03   -0.52801E-03  7560   0.863E-03 0.188E-04
CGA:   9    -0.425301112069E+03   -0.32380E-03   -0.34245E-03  7560   0.547E-03-0.146E-03
CGA:  10    -0.425301262159E+03   -0.15009E-03   -0.15546E-03  7560   0.248E-03-0.758E-04
CGA:  11    -0.425301325426E+03   -0.63268E-04   -0.63143E-04  7560   0.941E-04 0.566E-05
CGA:  12    -0.425301352253E+03   -0.26827E-04   -0.26768E-04  7560   0.402E-04 0.211E-04
CGA:  13    -0.425301365064E+03   -0.12811E-04   -0.12979E-04  7560   0.174E-04 0.146E-04
CGA:  14    -0.425301371633E+03   -0.65699E-05   -0.65598E-05  7560   0.706E-05 0.691E-05
  22 F= -.42530137E+03 E0= -.42530137E+03  d E =-.754656E-02  mag=    18.0000
       N       E                     dE             d eps       ncg     rms          ort
SDA:   1    -0.408746592182E+03    0.16555E+02    0.00000E+00  7560   0.427E+02 0.000E+00
CGA:   2    -0.420801057207E+03   -0.12054E+02   -0.12054E+02  7560   0.188E+02 0.437E-01
CGA:   3    -0.424124765582E+03   -0.33237E+01   -0.33248E+01  7560   0.467E+01 0.115E-01
CGA:   4    -0.424944246412E+03   -0.81948E+00   -0.81983E+00  7560   0.935E+00 0.136E-02
CGA:   5    -0.425121490472E+03   -0.17724E+00   -0.17740E+00  7560   0.255E+00 0.174E-02
CGA:   6    -0.425176180382E+03   -0.54690E-01   -0.54744E-01  7560   0.749E-01 0.102E-02
CGA:   7    -0.425195333082E+03   -0.19153E-01   -0.19154E-01  7560   0.298E-01 0.344E-03
CGA:   8    -0.425204249187E+03   -0.89161E-02   -0.89072E-02  7560   0.137E-01 0.225E-03
CGA:   9    -0.425208680402E+03   -0.44312E-02   -0.44307E-02  7560   0.570E-02 0.334E-05
CGA:  10    -0.425210477650E+03   -0.17972E-02   -0.17963E-02  7560   0.224E-02 0.141E-04
CGA:  11    -0.425211236947E+03   -0.75930E-03   -0.75501E-03  7560   0.101E-02 0.610E-04
CGA:  12    -0.425211669319E+03   -0.43237E-03   -0.44207E-03  7560   0.631E-03-0.624E-04
CGA:  13    -0.425211908610E+03   -0.23929E-03   -0.24298E-03  7560   0.291E-03-0.286E-04
CGA:  14    -0.425212004650E+03   -0.96040E-04   -0.96077E-04  7560   0.898E-04-0.817E-06
CGA:  15    -0.425212039402E+03   -0.34751E-04   -0.37604E-04  7560   0.391E-04-0.216E-04
CGA:  16    -0.425212050750E+03   -0.11348E-04   -0.11867E-04  7560   0.153E-04-0.493E-05
CGA:  17    -0.425212054065E+03   -0.33153E-05   -0.34656E-05  7560   0.567E-05 0.380E-05
  23 F= -.42521205E+03 E0= -.42521205E+03  d E =0.893176E-01  mag=    18.0000
       N       E                     dE             d eps       ncg     rms          ort
SDA:   1    -0.420908041123E+03    0.43040E+01    0.00000E+00  7560   0.111E+02 0.000E+00
CGA:   2    -0.424144282546E+03   -0.32362E+01   -0.32365E+01  7560   0.459E+01 0.976E-02
CGA:   3    -0.424945118259E+03   -0.80084E+00   -0.80188E+00  7560   0.127E+01 0.651E-02
CGA:   4    -0.425186345641E+03   -0.24123E+00   -0.24129E+00  7560   0.294E+00 0.425E-04
CGA:   5    -0.425241796273E+03   -0.55451E-01   -0.55285E-01  7560   0.795E-01-0.181E-02
CGA:   6    -0.425259791236E+03   -0.17995E-01   -0.17934E-01  7560   0.278E-01-0.105E-02
CGA:   7    -0.425266710094E+03   -0.69189E-02   -0.69286E-02  7560   0.104E-01 0.321E-03
CGA:   8    -0.425269557786E+03   -0.28477E-02   -0.28525E-02  7560   0.392E-02 0.467E-03
CGA:   9    -0.425270810767E+03   -0.12530E-02   -0.12542E-02  7560   0.148E-02-0.485E-04
CGA:  10    -0.425271270479E+03   -0.45971E-03   -0.46324E-03  7560   0.566E-03-0.100E-03
CGA:  11    -0.425271457883E+03   -0.18740E-03   -0.19470E-03  7560   0.281E-03-0.858E-04
CGA:  12    -0.425271536535E+03   -0.78652E-04   -0.77719E-04  7560   0.117E-03 0.242E-04
CGA:  13    -0.425271564465E+03   -0.27929E-04   -0.30385E-04  7560   0.486E-04 0.487E-04
CGA:  14    -0.425271575127E+03   -0.10662E-04   -0.13603E-04  7560   0.234E-04 0.327E-04
CGA:  15    -0.425271582147E+03   -0.70202E-05   -0.68896E-05  7560   0.112E-04 0.108E-04
  24 F= -.42527158E+03 E0= -.42527158E+03  d E =-.595281E-01  mag=    18.0000
       N       E                     dE             d eps       ncg     rms          ort
SDA:   1    -0.422848153577E+03    0.24234E+01    0.00000E+00  7560   0.644E+01 0.000E+00
CGA:   2    -0.424673704669E+03   -0.18256E+01   -0.18255E+01  7560   0.281E+01 0.107E-02
CGA:   3    -0.425178133941E+03   -0.50443E+00   -0.50450E+00  7560   0.731E+00-0.167E-02
CGA:   4    -0.425308073048E+03   -0.12994E+00   -0.12985E+00  7560   0.149E+00-0.102E-02
CGA:   5    -0.425336329871E+03   -0.28257E-01   -0.28329E-01  7560   0.405E-01 0.879E-03
CGA:   6    -0.425344980673E+03   -0.86508E-02   -0.87032E-02  7560   0.122E-01 0.976E-03
CGA:   7    -0.425348287646E+03   -0.33070E-02   -0.33070E-02  7560   0.509E-02 0.502E-05
CGA:   8    -0.425349864598E+03   -0.15770E-02   -0.15939E-02  7560   0.251E-02-0.345E-03
CGA:   9    -0.425350566599E+03   -0.70200E-03   -0.70222E-03  7560   0.929E-03-0.643E-05
CGA:  10    -0.425350845168E+03   -0.27857E-03   -0.27781E-03  7560   0.349E-03 0.237E-04
CGA:  11    -0.425350972079E+03   -0.12691E-03   -0.12743E-03  7560   0.178E-03-0.605E-05
CGA:  12    -0.425351043626E+03   -0.71547E-04   -0.72997E-04  7560   0.109E-03-0.102E-04
CGA:  13    -0.425350631506E+03    0.41212E-03   -0.22320E-03  7560   0.179E-02-0.386E-03
CGA:  14    -0.425351016318E+03   -0.38481E-03   -0.41563E-03  7560   0.177E-03 0.109E-03
CGA:  15    -0.425351100917E+03   -0.84599E-04   -0.83387E-04  7560   0.906E-04-0.220E-04
CGA:  16    -0.425351102613E+03   -0.16962E-05   -0.15289E-04  7560   0.442E-04 0.448E-04
CGA:  17    -0.425351106442E+03   -0.38290E-05   -0.12103E-04  7560   0.191E-04 0.278E-04
  25 F= -.42535111E+03 E0= -.42535111E+03  d E =-.795243E-01  mag=    18.0000
       N       E                     dE             d eps       ncg     rms          ort
SDA:   1    -0.424788042281E+03    0.56306E+00    0.00000E+00  7560   0.144E+01 0.000E+00
CGA:   2    -0.425190536773E+03   -0.40249E+00   -0.40254E+00  7560   0.575E+00-0.380E-03
CGA:   3    -0.425300452360E+03   -0.10992E+00   -0.10986E+00  7560   0.162E+00-0.360E-03
CGA:   4    -0.425328040710E+03   -0.27588E-01   -0.27561E-01  7560   0.318E-01-0.135E-03
CGA:   5    -0.425334138091E+03   -0.60974E-02   -0.61582E-02  7560   0.878E-02 0.255E-03
CGA:   6    -0.425335929874E+03   -0.17918E-02   -0.18454E-02  7560   0.263E-02 0.253E-03
CGA:   7    -0.425336680036E+03   -0.75016E-03   -0.74450E-03  7560   0.119E-02-0.432E-04
CGA:   8    -0.425337088131E+03   -0.40809E-03   -0.39718E-03  7560   0.712E-03-0.182E-03
CGA:   9    -0.425337256627E+03   -0.16850E-03   -0.16931E-03  7560   0.258E-03 0.693E-05
CGA:  10    -0.425337321256E+03   -0.64629E-04   -0.68523E-04  7560   0.935E-04 0.301E-04
CGA:  11    -0.425337359546E+03   -0.38290E-04   -0.38089E-04  7560   0.592E-04-0.977E-05
CGA:  12    -0.425337374316E+03   -0.14771E-04   -0.15477E-04  7560   0.286E-04 0.761E-05
CGA:  13    -0.425337388043E+03   -0.13727E-04   -0.19302E-04  7560   0.516E-04-0.256E-04
CGA:  14    -0.425337408214E+03   -0.20171E-04   -0.20165E-04  7560   0.291E-04-0.317E-04
CGA:  15    -0.425337407002E+03    0.12122E-05   -0.30647E-05  7560   0.755E-05 0.150E-04
  26 F= -.42533741E+03 E0= -.42533741E+03  d E =0.136994E-01  mag=    18.0000
       N       E                     dE             d eps       ncg     rms          ort
SDA:   1    -0.425185829997E+03    0.15158E+00    0.00000E+00  7560   0.412E+00 0.000E+00
CGA:   2    -0.425294401798E+03   -0.10857E+00   -0.10862E+00  7560   0.220E+00 0.287E-03
CGA:   3    -0.425331673888E+03   -0.37272E-01   -0.37420E-01  7560   0.494E-01 0.709E-03
CGA:   4    -0.425340821061E+03   -0.91472E-02   -0.91714E-02  7560   0.121E-01 0.145E-03
CGA:   5    -0.425343078809E+03   -0.22577E-02   -0.22430E-02  7560   0.294E-02-0.982E-04
CGA:   6    -0.425343739728E+03   -0.66092E-03   -0.65583E-03  7560   0.995E-03-0.481E-04
CGA:   7    -0.425343961450E+03   -0.22172E-03   -0.22668E-03  7560   0.318E-03 0.518E-04
CGA:   8    -0.425344037376E+03   -0.75926E-04   -0.80483E-04  7560   0.110E-03 0.556E-04
CGA:   9    -0.425344070991E+03   -0.33615E-04   -0.34717E-04  7560   0.429E-04 0.222E-04
CGA:  10    -0.425344086742E+03   -0.15751E-04   -0.15780E-04  7560   0.193E-04 0.302E-05
CGA:  11    -0.425344094862E+03   -0.81203E-05   -0.87661E-05  7560   0.135E-04-0.589E-05
  27 F= -.42534409E+03 E0= -.42534409E+03  d E =-.668786E-02  mag=    18.0000
       N       E                     dE             d eps       ncg     rms          ort
SDA:   1    -0.425170059754E+03    0.17403E+00    0.00000E+00  7560   0.483E+00 0.000E+00
CGA:   2    -0.425282892177E+03   -0.11283E+00   -0.11287E+00  7560   0.268E+00 0.160E-03
CGA:   3    -0.425331774119E+03   -0.48882E-01   -0.48960E-01  7560   0.603E-01 0.521E-03
CGA:   4    -0.425342252174E+03   -0.10478E-01   -0.10491E-01  7560   0.134E-01 0.807E-04
CGA:   5    -0.425344753892E+03   -0.25017E-02   -0.24903E-02  7560   0.322E-02-0.106E-03
CGA:   6    -0.425345452369E+03   -0.69848E-03   -0.69414E-03  7560   0.979E-03-0.587E-04
CGA:   7    -0.425345670835E+03   -0.21847E-03   -0.22058E-03  7560   0.310E-03 0.353E-04
CGA:   8    -0.425345751481E+03   -0.80646E-04   -0.81888E-04  7560   0.116E-03 0.403E-04
CGA:   9    -0.425345792649E+03   -0.41168E-04   -0.40881E-04  7560   0.553E-04 0.103E-04
CGA:  10    -0.425345814124E+03   -0.21475E-04   -0.21878E-04  7560   0.310E-04-0.526E-05
CGA:  11    -0.425345823863E+03   -0.97389E-05   -0.10029E-04  7560   0.150E-04-0.429E-05
  28 F= -.42534582E+03 E0= -.42534582E+03  d E =-.172900E-02  mag=    18.0000
       N       E                     dE             d eps       ncg     rms          ort
SDA:   1    -0.409896147369E+03    0.15450E+02    0.00000E+00  7560   0.395E+02 0.000E+00
CGA:   2    -0.420725526165E+03   -0.10829E+02   -0.10831E+02  7560   0.211E+02 0.545E-01
CGA:   3    -0.424265771276E+03   -0.35402E+01   -0.35450E+01  7560   0.426E+01 0.537E-01
CGA:   4    -0.425029701905E+03   -0.76393E+00   -0.76387E+00  7560   0.968E+00 0.145E-02
CGA:   5    -0.425207953174E+03   -0.17825E+00   -0.17834E+00  7560   0.235E+00 0.197E-03
CGA:   6    -0.425258918563E+03   -0.50965E-01   -0.51029E-01  7560   0.711E-01 0.103E-02
CGA:   7    -0.425276445755E+03   -0.17527E-01   -0.17544E-01  7560   0.262E-01 0.644E-03
CGA:   8    -0.425284359680E+03   -0.79139E-02   -0.79054E-02  7560   0.123E-01 0.279E-03
CGA:   9    -0.425288399194E+03   -0.40395E-02   -0.40384E-02  7560   0.535E-02 0.154E-04
CGA:  10    -0.425290105184E+03   -0.17060E-02   -0.17089E-02  7560   0.210E-02-0.688E-04
CGA:  11    -0.425290808144E+03   -0.70296E-03   -0.70363E-03  7560   0.913E-03-0.126E-04
CGA:  12    -0.425291166660E+03   -0.35852E-03   -0.36252E-03  7560   0.502E-03-0.343E-04
CGA:  13    -0.425291375482E+03   -0.20882E-03   -0.22212E-03  7560   0.283E-03-0.768E-04
CGA:  14    -0.425291459700E+03   -0.84219E-04   -0.85109E-04  7560   0.901E-04-0.147E-04
CGA:  15    -0.425291488531E+03   -0.28831E-04   -0.29047E-04  7560   0.276E-04-0.506E-05
CGA:  16    -0.425291499159E+03   -0.10628E-04   -0.14853E-04  7560   0.258E-04-0.156E-04
CGA:  17    -0.425291503386E+03   -0.42268E-05   -0.51736E-05  7560   0.509E-05 0.843E-05
  29 F= -.42529150E+03 E0= -.42529150E+03  d E =0.543205E-01  mag=    18.0000
       N       E                     dE             d eps       ncg     rms          ort
SDA:   1    -0.422806221836E+03    0.24853E+01    0.00000E+00  7560   0.641E+01 0.000E+00
CGA:   2    -0.424507637440E+03   -0.17014E+01   -0.17018E+01  7560   0.344E+01 0.391E-02
CGA:   3    -0.425087278757E+03   -0.57964E+00   -0.57998E+00  7560   0.750E+00 0.205E-02
CGA:   4    -0.425223195076E+03   -0.13592E+00   -0.13572E+00  7560   0.178E+00-0.150E-02
CGA:   5    -0.425256093092E+03   -0.32898E-01   -0.32939E-01  7560   0.449E-01 0.286E-03
CGA:   6    -0.425265557194E+03   -0.94641E-02   -0.95374E-02  7560   0.134E-01 0.884E-03
CGA:   7    -0.425268932104E+03   -0.33749E-02   -0.33804E-02  7560   0.491E-02 0.128E-03
CGA:   8    -0.425270448942E+03   -0.15168E-02   -0.15218E-02  7560   0.230E-02-0.258E-03
CGA:   9    -0.425271103818E+03   -0.65488E-03   -0.65503E-03  7560   0.856E-03-0.125E-04
CGA:  10    -0.425271344073E+03   -0.24025E-03   -0.24065E-03  7560   0.298E-03 0.607E-04
CGA:  11    -0.425271441385E+03   -0.97312E-04   -0.96812E-04  7560   0.130E-03 0.338E-04
CGA:  12    -0.425271497604E+03   -0.56219E-04   -0.55791E-04  7560   0.803E-04 0.432E-05
CGA:  13    -0.425271533663E+03   -0.36059E-04   -0.52515E-04  7560   0.104E-03-0.488E-04
CGA:  14    -0.425271552441E+03   -0.18778E-04   -0.21115E-04  7560   0.141E-04 0.215E-04
CGA:  15    -0.425271558245E+03   -0.58037E-05   -0.57878E-05  7560   0.490E-05 0.468E-06
  30 F= -.42527156E+03 E0= -.42527156E+03  d E =0.199451E-01  mag=    18.0000
       N       E                     dE             d eps       ncg     rms          ort
SDA:   1    -0.419631072029E+03    0.56405E+01    0.00000E+00  7560   0.141E+02 0.000E+00
CGA:   2    -0.423839065850E+03   -0.42080E+01   -0.42081E+01  7560   0.712E+01 0.198E-02
CGA:   3    -0.424990783182E+03   -0.11517E+01   -0.11522E+01  7560   0.147E+01 0.536E-03
CGA:   4    -0.425254562930E+03   -0.26378E+00   -0.26385E+00  7560   0.325E+00 0.255E-03
CGA:   5    -0.425314854012E+03   -0.60291E-01   -0.60318E-01  7560   0.817E-01 0.105E-03
CGA:   6    -0.425332696661E+03   -0.17843E-01   -0.17803E-01  7560   0.243E-01-0.614E-03
CGA:   7    -0.425338696948E+03   -0.60003E-02   -0.59902E-02  7560   0.924E-02-0.303E-03
CGA:   8    -0.425341381002E+03   -0.26841E-02   -0.26822E-02  7560   0.417E-02 0.134E-03
CGA:   9    -0.425342777593E+03   -0.13966E-02   -0.14004E-02  7560   0.186E-02-0.794E-04
CGA:  10    -0.425343389642E+03   -0.61205E-03   -0.62107E-03  7560   0.810E-03-0.161E-03
CGA:  11    -0.425343620486E+03   -0.23084E-03   -0.23008E-03  7560   0.310E-03 0.308E-04
CGA:  12    -0.425343745637E+03   -0.12515E-03   -0.12630E-03  7560   0.176E-03-0.114E-04
CGA:  13    -0.425343794526E+03   -0.48889E-04   -0.49040E-04  7560   0.690E-04 0.439E-04
CGA:  14    -0.425343814600E+03   -0.20074E-04   -0.21266E-04  7560   0.241E-04 0.257E-04
CGA:  15    -0.425343827872E+03   -0.13272E-04   -0.13932E-04  7560   0.158E-04-0.506E-05
CGA:  16    -0.425343829718E+03   -0.18454E-05   -0.23889E-05  7560   0.904E-05 0.511E-05
  31 F= -.42534383E+03 E0= -.42534383E+03  d E =-.722715E-01  mag=    18.0000
       N       E                     dE             d eps       ncg     rms          ort
SDA:   1    -0.424551246046E+03    0.79258E+00    0.00000E+00  7560   0.197E+01 0.000E+00
CGA:   2    -0.425091356532E+03   -0.54011E+00   -0.54014E+00  7560   0.907E+00 0.175E-02
CGA:   3    -0.425252734044E+03   -0.16138E+00   -0.16136E+00  7560   0.237E+00-0.565E-03
CGA:   4    -0.425294794428E+03   -0.42060E-01   -0.42097E-01  7560   0.491E-01 0.296E-03
CGA:   5    -0.425304254093E+03   -0.94597E-02   -0.94637E-02  7560   0.138E-01 0.375E-04
CGA:   6    -0.425307305659E+03   -0.30516E-02   -0.30415E-02  7560   0.436E-02-0.213E-03
CGA:   7    -0.425308445807E+03   -0.11401E-02   -0.11399E-02  7560   0.184E-02-0.113E-03
CGA:   8    -0.425308916526E+03   -0.47072E-03   -0.47136E-03  7560   0.689E-03 0.148E-03
CGA:   9    -0.425309130902E+03   -0.21438E-03   -0.21264E-03  7560   0.271E-03 0.933E-04
CGA:  10    -0.425309246829E+03   -0.11593E-03   -0.12237E-03  7560   0.195E-03-0.501E-04
CGA:  11    -0.425309297105E+03   -0.50276E-04   -0.50353E-04  7560   0.957E-04-0.194E-05
CGA:  12    -0.425309325437E+03   -0.28332E-04   -0.28188E-04  7560   0.448E-04 0.678E-05
CGA:  13    -0.425309341082E+03   -0.15646E-04   -0.15589E-04  7560   0.208E-04 0.114E-05
CGA:  14    -0.425309345200E+03   -0.41175E-05   -0.46080E-05  7560   0.814E-05 0.766E-05
  32 F= -.42530935E+03 E0= -.42530935E+03  d E =0.344845E-01  mag=    18.0000
       N       E                     dE             d eps       ncg     rms          ort
SDA:   1    -0.424958359838E+03    0.35098E+00    0.00000E+00  7560   0.938E+00 0.000E+00
CGA:   2    -0.425242023777E+03   -0.28366E+00   -0.28367E+00  7560   0.417E+00-0.549E-03
CGA:   3    -0.425311878723E+03   -0.69855E-01   -0.69918E-01  7560   0.104E+00 0.457E-03
CGA:   4    -0.425331121512E+03   -0.19243E-01   -0.19212E-01  7560   0.231E-01-0.420E-03
CGA:   5    -0.425335502020E+03   -0.43805E-02   -0.43829E-02  7560   0.641E-02 0.252E-04
CGA:   6    -0.425336842804E+03   -0.13408E-02   -0.13542E-02  7560   0.191E-02 0.265E-03
CGA:   7    -0.425337345276E+03   -0.50247E-03   -0.50304E-03  7560   0.739E-03 0.905E-04
CGA:   8    -0.425337604923E+03   -0.25965E-03   -0.27518E-03  7560   0.479E-03-0.160E-03
CGA:   9    -0.425337709642E+03   -0.10472E-03   -0.10521E-03  7560   0.179E-03-0.292E-04
CGA:  10    -0.425337745069E+03   -0.35427E-04   -0.36891E-04  7560   0.635E-04 0.327E-04
CGA:  11    -0.425337762861E+03   -0.17792E-04   -0.18086E-04  7560   0.295E-04 0.138E-04
CGA:  12    -0.425337775012E+03   -0.12151E-04   -0.12067E-04  7560   0.187E-04 0.112E-05
CGA:  13    -0.425337781947E+03   -0.69349E-05   -0.71406E-05  7560   0.125E-04-0.200E-05
  33 F= -.42533778E+03 E0= -.42533778E+03  d E =-.284367E-01  mag=    18.0000
       N       E                     dE             d eps       ncg     rms          ort
SDA:   1    -0.425284361014E+03    0.53414E-01    0.00000E+00  7560   0.131E+00 0.000E+00
CGA:   2    -0.425324595034E+03   -0.40234E-01   -0.40230E-01  7560   0.617E-01 0.723E-04
CGA:   3    -0.425334623297E+03   -0.10028E-01   -0.10048E-01  7560   0.133E-01 0.168E-03
CGA:   4    -0.425336995627E+03   -0.23723E-02   -0.23722E-02  7560   0.286E-02-0.423E-05
CGA:   5    -0.425337524378E+03   -0.52875E-03   -0.52810E-03  7560   0.726E-03-0.895E-05
CGA:   6    -0.425337672288E+03   -0.14791E-03   -0.14885E-03  7560   0.190E-03 0.178E-04
CGA:   7    -0.425337716581E+03   -0.44293E-04   -0.44583E-04  7560   0.628E-04 0.110E-04
CGA:   8    -0.425337736674E+03   -0.20093E-04   -0.20064E-04  7560   0.309E-04 0.603E-06
CGA:   9    -0.425337746099E+03   -0.94247E-05   -0.93289E-05  7560   0.124E-04 0.222E-05
  34 F= -.42533775E+03 E0= -.42533775E+03  d E =0.358481E-04  mag=    18.0000
       N       E                     dE             d eps       ncg     rms          ort
SDA:   1    -0.414415671281E+03    0.10922E+02    0.00000E+00  7560   0.271E+02 0.000E+00
CGA:   2    -0.422514610194E+03   -0.80989E+01   -0.80979E+01  7560   0.127E+02 0.152E-01
CGA:   3    -0.424632225025E+03   -0.21176E+01   -0.21194E+01  7560   0.284E+01 0.649E-02
CGA:   4    -0.425124099084E+03   -0.49187E+00   -0.49178E+00  7560   0.594E+00-0.194E-02
CGA:   5    -0.425235438768E+03   -0.11134E+00   -0.11133E+00  7560   0.156E+00-0.228E-03
CGA:   6    -0.425268190557E+03   -0.32752E-01   -0.32782E-01  7560   0.433E-01 0.683E-03
CGA:   7    -0.425278783183E+03   -0.10593E-01   -0.10593E-01  7560   0.161E-01 0.152E-03
CGA:   8    -0.425283610268E+03   -0.48271E-02   -0.48278E-02  7560   0.755E-02-0.178E-04
CGA:   9    -0.425286013885E+03   -0.24036E-02   -0.24021E-02  7560   0.316E-02 0.203E-04
CGA:  10    -0.425287039331E+03   -0.10254E-02   -0.10373E-02  7560   0.127E-02-0.164E-03
CGA:  11    -0.425287454085E+03   -0.41475E-03   -0.42344E-03  7560   0.572E-03-0.932E-04
CGA:  12    -0.425287652686E+03   -0.19860E-03   -0.19796E-03  7560   0.278E-03 0.530E-05
CGA:  13    -0.425287781475E+03   -0.12879E-03   -0.15432E-03  7560   0.239E-03-0.911E-04
CGA:  14    -0.425287832681E+03   -0.51207E-04   -0.51512E-04  7560   0.925E-04-0.828E-05
CGA:  15    -0.425287855919E+03   -0.23237E-04   -0.23301E-04  7560   0.287E-04 0.270E-05
CGA:  16    -0.425287865871E+03   -0.99523E-05   -0.10293E-04  7560   0.125E-04-0.522E-05
  35 F= -.42528787E+03 E0= -.42528787E+03  d E =0.498802E-01  mag=    18.0000
       N       E                     dE             d eps       ncg     rms          ort
SDA:   1    -0.417068488376E+03    0.82194E+01    0.00000E+00  7560   0.203E+02 0.000E+00
CGA:   2    -0.423286729570E+03   -0.62182E+01   -0.62173E+01  7560   0.756E+01 0.206E-01
CGA:   3    -0.424734881304E+03   -0.14482E+01   -0.14485E+01  7560   0.190E+01-0.214E-02
CGA:   4    -0.425043888211E+03   -0.30901E+00   -0.30886E+00  7560   0.369E+00-0.149E-02
CGA:   5    -0.425118669177E+03   -0.74781E-01   -0.74806E-01  7560   0.106E+00 0.297E-03
CGA:   6    -0.425140305990E+03   -0.21637E-01   -0.21675E-01  7560   0.307E-01 0.535E-03
CGA:   7    -0.425148575653E+03   -0.82697E-02   -0.82701E-02  7560   0.134E-01-0.167E-03
CGA:   8    -0.425152703080E+03   -0.41274E-02   -0.41363E-02  7560   0.692E-02-0.196E-03
CGA:   9    -0.425154840391E+03   -0.21373E-02   -0.21281E-02  7560   0.279E-02 0.206E-03
CGA:  10    -0.425155790255E+03   -0.94986E-03   -0.95565E-03  7560   0.119E-02-0.942E-04
CGA:  11    -0.425156214437E+03   -0.42418E-03   -0.43859E-03  7560   0.659E-03-0.134E-03
CGA:  12    -0.425156412996E+03   -0.19856E-03   -0.19514E-03  7560   0.279E-03 0.612E-04
CGA:  13    -0.425156533807E+03   -0.12081E-03   -0.12363E-03  7560   0.146E-03-0.231E-04
CGA:  14    -0.425156579854E+03   -0.46047E-04   -0.46183E-04  7560   0.490E-04-0.249E-05
CGA:  15    -0.425156592387E+03   -0.12532E-04   -0.12744E-04  7560   0.134E-04 0.826E-05
CGA:  16    -0.425156598356E+03   -0.59693E-05   -0.81002E-05  7560   0.136E-04-0.942E-05
  36 F= -.42515660E+03 E0= -.42515660E+03  d E =0.131268E+00  mag=    18.0000
       N       E                     dE             d eps       ncg     rms          ort
SDA:   1    -0.412344043674E+03    0.12813E+02    0.00000E+00  7560   0.326E+02 0.000E+00
CGA:   2    -0.422102435482E+03   -0.97584E+01   -0.97582E+01  7560   0.136E+02 0.222E-01
CGA:   3    -0.424548906639E+03   -0.24465E+01   -0.24474E+01  7560   0.336E+01 0.812E-02
CGA:   4    -0.425108681224E+03   -0.55977E+00   -0.56024E+00  7560   0.661E+00 0.216E-02
CGA:   5    -0.425237643065E+03   -0.12896E+00   -0.12904E+00  7560   0.187E+00 0.712E-03
CGA:   6    -0.425276874472E+03   -0.39231E-01   -0.39231E-01  7560   0.535E-01-0.643E-04
CGA:   7    -0.425290623148E+03   -0.13749E-01   -0.13750E-01  7560   0.221E-01 0.687E-04
CGA:   8    -0.425297255114E+03   -0.66320E-02   -0.66304E-02  7560   0.106E-01 0.618E-04
CGA:   9    -0.425300803510E+03   -0.35484E-02   -0.35645E-02  7560   0.479E-02-0.280E-03
CGA:  10    -0.425302260176E+03   -0.14567E-02   -0.14570E-02  7560   0.182E-02-0.134E-04
CGA:  11    -0.425302855580E+03   -0.59540E-03   -0.59220E-03  7560   0.783E-03 0.708E-04
CGA:  12    -0.425303201878E+03   -0.34630E-03   -0.36013E-03  7560   0.533E-03-0.875E-04
CGA:  13    -0.425303361405E+03   -0.15953E-03   -0.15706E-03  7560   0.211E-03 0.604E-04
CGA:  14    -0.425303428500E+03   -0.67095E-04   -0.67340E-04  7560   0.664E-04 0.347E-04
CGA:  15    -0.425303459369E+03   -0.30869E-04   -0.34324E-04  7560   0.390E-04-0.230E-04
CGA:  16    -0.425303461898E+03   -0.25295E-05   -0.41434E-05  7560   0.216E-04 0.117E-04
  37 F= -.42530346E+03 E0= -.42530346E+03  d E =-.146864E+00  mag=    18.0000
       N       E                     dE             d eps       ncg     rms          ort
SDA:   1    -0.421160838752E+03    0.41426E+01    0.00000E+00  7560   0.108E+02 0.000E+00
CGA:   2    -0.424195026816E+03   -0.30342E+01   -0.30342E+01  7560   0.424E+01 0.190E-03
CGA:   3    -0.425004534001E+03   -0.80951E+00   -0.80960E+00  7560   0.116E+01 0.464E-03
CGA:   4    -0.425199932643E+03   -0.19540E+00   -0.19551E+00  7560   0.228E+00 0.291E-03
CGA:   5    -0.425245220921E+03   -0.45288E-01   -0.45278E-01  7560   0.647E-01-0.209E-03
CGA:   6    -0.425258803344E+03   -0.13582E-01   -0.13575E-01  7560   0.195E-01-0.142E-03
CGA:   7    -0.425263910057E+03   -0.51067E-02   -0.51085E-02  7560   0.818E-02 0.267E-03
CGA:   8    -0.425266367456E+03   -0.24574E-02   -0.24544E-02  7560   0.385E-02 0.107E-03
CGA:   9    -0.425267693194E+03   -0.13257E-02   -0.13420E-02  7560   0.187E-02-0.220E-03
CGA:  10    -0.425268248475E+03   -0.55528E-03   -0.55580E-03  7560   0.745E-03-0.133E-04
CGA:  11    -0.425268494521E+03   -0.24605E-03   -0.24458E-03  7560   0.335E-03 0.260E-04
CGA:  12    -0.425268640594E+03   -0.14607E-03   -0.15218E-03  7560   0.219E-03-0.382E-04
CGA:  13    -0.425268707494E+03   -0.66899E-04   -0.66342E-04  7560   0.835E-04 0.979E-05
CGA:  14    -0.425268738775E+03   -0.31281E-04   -0.32171E-04  7560   0.322E-04-0.112E-04
CGA:  15    -0.425268749401E+03   -0.10626E-04   -0.11682E-04  7560   0.142E-04-0.841E-05
CGA:  16    -0.425268752980E+03   -0.35795E-05   -0.36030E-05  7560   0.505E-05-0.533E-06
  38 F= -.42526875E+03 E0= -.42526875E+03  d E =0.347089E-01  mag=    18.0000
       N       E                     dE             d eps       ncg     rms          ort
SDA:   1    -0.421549838177E+03    0.37189E+01    0.00000E+00  7560   0.957E+01 0.000E+00
CGA:   2    -0.424382230376E+03   -0.28324E+01   -0.28325E+01  7560   0.374E+01 0.102E-01
CGA:   3    -0.425094683009E+03   -0.71245E+00   -0.71263E+00  7560   0.959E+00-0.586E-03
CGA:   4    -0.425253764491E+03   -0.15908E+00   -0.15897E+00  7560   0.188E+00-0.107E-02
CGA:   5    -0.425291558072E+03   -0.37794E-01   -0.37817E-01  7560   0.535E-01 0.229E-03
CGA:   6    -0.425302530273E+03   -0.10972E-01   -0.11008E-01  7560   0.155E-01 0.426E-03
CGA:   7    -0.425306778670E+03   -0.42484E-02   -0.42472E-02  7560   0.690E-02-0.161E-03
CGA:   8    -0.425308872395E+03   -0.20937E-02   -0.20971E-02  7560   0.346E-02-0.125E-03
CGA:   9    -0.425309913992E+03   -0.10416E-02   -0.10374E-02  7560   0.136E-02 0.170E-03
CGA:  10    -0.425310391372E+03   -0.47738E-03   -0.47946E-03  7560   0.614E-03-0.399E-04
CGA:  11    -0.425310612221E+03   -0.22085E-03   -0.22621E-03  7560   0.338E-03-0.569E-04
CGA:  12    -0.425310712869E+03   -0.10065E-03   -0.99285E-04  7560   0.140E-03 0.400E-04
CGA:  13    -0.425310775384E+03   -0.62515E-04   -0.65061E-04  7560   0.801E-04-0.206E-04
CGA:  14    -0.425310796650E+03   -0.21266E-04   -0.21225E-04  7560   0.272E-04 0.304E-05
CGA:  15    -0.425310803053E+03   -0.64035E-05   -0.67383E-05  7560   0.810E-05 0.562E-05
  39 F= -.42531080E+03 E0= -.42531080E+03  d E =-.420501E-01  mag=    18.0000
       N       E                     dE             d eps       ncg     rms          ort
SDA:   1    -0.425138909077E+03    0.17189E+00    0.00000E+00  7560   0.411E+00 0.000E+00
CGA:   2    -0.425264118821E+03   -0.12521E+00   -0.12520E+00  7560   0.157E+00 0.139E-02
CGA:   3    -0.425294110649E+03   -0.29992E-01   -0.30010E-01  7560   0.393E-01 0.131E-03
CGA:   4    -0.425300505432E+03   -0.63948E-02   -0.63705E-02  7560   0.758E-02-0.201E-03
CGA:   5    -0.425302011644E+03   -0.15062E-02   -0.15102E-02  7560   0.212E-02 0.450E-04
CGA:   6    -0.425302428538E+03   -0.41689E-03   -0.42320E-03  7560   0.580E-03 0.753E-04
CGA:   7    -0.425302584682E+03   -0.15614E-03   -0.15646E-03  7560   0.245E-03 0.190E-04
CGA:   8    -0.425302662986E+03   -0.78304E-04   -0.78017E-04  7560   0.131E-03 0.907E-05
CGA:   9    -0.425302700613E+03   -0.37627E-04   -0.37624E-04  7560   0.509E-04 0.242E-04
CGA:  10    -0.425302718156E+03   -0.17543E-04   -0.17438E-04  7560   0.217E-04 0.925E-05
CGA:  11    -0.425302728867E+03   -0.10711E-04   -0.12188E-04  7560   0.221E-04-0.751E-05
CGA:  12    -0.425302732307E+03   -0.34397E-05   -0.35088E-05  7560   0.125E-04 0.152E-05
  40 F= -.42530273E+03 E0= -.42530273E+03  d E =0.807075E-02  mag=    18.0000
       N       E                     dE             d eps       ncg     rms          ort
SDA:   1    -0.424770214381E+03    0.53251E+00    0.00000E+00  7560   0.130E+01 0.000E+00
CGA:   2    -0.425171942689E+03   -0.40173E+00   -0.40166E+00  7560   0.499E+00 0.218E-02
CGA:   3    -0.425264328270E+03   -0.92386E-01   -0.92422E-01  7560   0.126E+00 0.203E-03
CGA:   4    -0.425284983654E+03   -0.20655E-01   -0.20603E-01  7560   0.238E-01-0.496E-03
CGA:   5    -0.425289650851E+03   -0.46672E-02   -0.46673E-02  7560   0.666E-02-0.347E-05
CGA:   6    -0.425290978709E+03   -0.13279E-02   -0.13353E-02  7560   0.179E-02 0.106E-03
CGA:   7    -0.425291430497E+03   -0.45179E-03   -0.45283E-03  7560   0.712E-03 0.610E-04
CGA:   8    -0.425291665258E+03   -0.23476E-03   -0.23499E-03  7560   0.406E-03-0.432E-05
CGA:   9    -0.425291803252E+03   -0.13799E-03   -0.13892E-03  7560   0.198E-03-0.123E-04
CGA:  10    -0.425291857589E+03   -0.54336E-04   -0.54137E-04  7560   0.682E-04 0.181E-04
CGA:  11    -0.425291882874E+03   -0.25285E-04   -0.25343E-04  7560   0.339E-04-0.902E-06
CGA:  12    -0.425291895575E+03   -0.12701E-04   -0.22029E-04  7560   0.569E-04-0.244E-04
CGA:  13    -0.425291907788E+03   -0.12212E-04   -0.12580E-04  7560   0.718E-05 0.500E-05
CGA:  14    -0.425291912525E+03   -0.47376E-05    0.27268E-04  7560   0.177E-05 0.173E-05
  41 F= -.42529191E+03 E0= -.42529191E+03  d E =0.108198E-01  mag=    18.0000
       N       E                     dE             d eps       ncg     rms          ort
SDA:   1    -0.404644705081E+03    0.20647E+02    0.00000E+00  7560   0.509E+02 0.000E+00
CGA:   2    -0.420604552518E+03   -0.15960E+02   -0.15958E+02  7560   0.189E+02 0.476E-01
CGA:   3    -0.424045376915E+03   -0.34408E+01   -0.34438E+01  7560   0.474E+01 0.132E-01
CGA:   4    -0.424849262649E+03   -0.80389E+00   -0.80421E+00  7560   0.924E+00 0.438E-03
CGA:   5    -0.425034378630E+03   -0.18512E+00   -0.18522E+00  7560   0.269E+00 0.879E-03
CGA:   6    -0.425090730764E+03   -0.56352E-01   -0.56430E-01  7560   0.789E-01 0.105E-02
CGA:   7    -0.425111470962E+03   -0.20740E-01   -0.20747E-01  7560   0.332E-01 0.523E-03
CGA:   8    -0.425121751770E+03   -0.10281E-01   -0.10293E-01  7560   0.166E-01-0.362E-03
CGA:   9    -0.425126948407E+03   -0.51966E-02   -0.52062E-02  7560   0.651E-02-0.230E-03
CGA:  10    -0.425128900595E+03   -0.19522E-02   -0.19497E-02  7560   0.231E-02 0.905E-04
CGA:  11    -0.425129736746E+03   -0.83615E-03   -0.84722E-03  7560   0.118E-02-0.134E-03
CGA:  12    -0.425130205515E+03   -0.46877E-03   -0.48368E-03  7560   0.733E-03-0.100E-03
CGA:  13    -0.425130488399E+03   -0.28288E-03   -0.29780E-03  7560   0.374E-03-0.983E-04
CGA:  14    -0.425130608513E+03   -0.12011E-03   -0.12452E-03  7560   0.127E-03-0.510E-04
CGA:  15    -0.425130639935E+03   -0.31421E-04   -0.31570E-04  7560   0.354E-04 0.981E-05
CGA:  16    -0.425130651855E+03   -0.11921E-04   -0.11895E-04  7560   0.127E-04 0.252E-05
CGA:  17    -0.425130655207E+03   -0.33522E-05   -0.35578E-05  7560   0.565E-05 0.503E-05
  42 F= -.42513066E+03 E0= -.42513066E+03  d E =0.161257E+00  mag=    18.0000
       N       E                     dE             d eps       ncg     rms          ort
SDA:   1    -0.420668641440E+03    0.44620E+01    0.00000E+00  7560   0.116E+02 0.000E+00
CGA:   2    -0.424115185578E+03   -0.34465E+01   -0.34465E+01  7560   0.477E+01 0.186E-03
CGA:   3    -0.424973246671E+03   -0.85806E+00   -0.85749E+00  7560   0.121E+01-0.125E-02
CGA:   4    -0.425178153072E+03   -0.20491E+00   -0.20510E+00  7560   0.247E+00 0.988E-03
CGA:   5    -0.425225826599E+03   -0.47674E-01   -0.47713E-01  7560   0.690E-01 0.363E-03
CGA:   6    -0.425240426201E+03   -0.14600E-01   -0.14582E-01  7560   0.205E-01-0.280E-03
CGA:   7    -0.425245673165E+03   -0.52470E-02   -0.52422E-02  7560   0.837E-02-0.256E-03
CGA:   8    -0.425248116038E+03   -0.24429E-02   -0.24433E-02  7560   0.393E-02-0.235E-04
CGA:   9    -0.425249383963E+03   -0.12679E-02   -0.12724E-02  7560   0.171E-02-0.929E-04
CGA:  10    -0.425249939180E+03   -0.55522E-03   -0.56169E-03  7560   0.742E-03-0.113E-03
CGA:  11    -0.425250162015E+03   -0.22283E-03   -0.22182E-03  7560   0.307E-03 0.257E-04
CGA:  12    -0.425250281065E+03   -0.11905E-03   -0.11788E-03  7560   0.156E-03 0.132E-04
CGA:  13    -0.425250333180E+03   -0.52115E-04   -0.51164E-04  7560   0.598E-04 0.340E-04
CGA:  14    -0.425250350879E+03   -0.17699E-04   -0.18519E-04  7560   0.203E-04 0.237E-04
CGA:  15    -0.425250359861E+03   -0.89816E-05   -0.88542E-05  7560   0.875E-05 0.497E-05
  43 F= -.42525036E+03 E0= -.42525036E+03  d E =-.119705E+00  mag=    18.0000
       N       E                     dE             d eps       ncg     rms          ort
SDA:   1    -0.421683501408E+03    0.35668E+01    0.00000E+00  7560   0.889E+01 0.000E+00
CGA:   2    -0.424372630232E+03   -0.26891E+01   -0.26890E+01  7560   0.384E+01-0.180E-03
CGA:   3    -0.425032793791E+03   -0.66016E+00   -0.66089E+00  7560   0.948E+00 0.369E-02
CGA:   4    -0.425202043997E+03   -0.16925E+00   -0.16945E+00  7560   0.198E+00 0.204E-02
CGA:   5    -0.425239330242E+03   -0.37286E-01   -0.37259E-01  7560   0.535E-01-0.324E-03
CGA:   6    -0.425251074029E+03   -0.11744E-01   -0.11722E-01  7560   0.166E-01-0.425E-03
CGA:   7    -0.425255195754E+03   -0.41217E-02   -0.41208E-02  7560   0.627E-02-0.516E-04
CGA:   8    -0.425256942179E+03   -0.17464E-02   -0.17442E-02  7560   0.253E-02 0.226E-03
CGA:   9    -0.425257724672E+03   -0.78249E-03   -0.77789E-03  7560   0.927E-03 0.170E-03
CGA:  10    -0.425258067490E+03   -0.34282E-03   -0.35254E-03  7560   0.458E-03-0.114E-03
CGA:  11    -0.425258209694E+03   -0.14220E-03   -0.14929E-03  7560   0.238E-03-0.733E-04
CGA:  12    -0.425258272569E+03   -0.62876E-04   -0.62227E-04  7560   0.994E-04 0.205E-04
CGA:  13    -0.425258310372E+03   -0.37802E-04   -0.37263E-04  7560   0.485E-04 0.836E-05
CGA:  14    -0.425258324400E+03   -0.14028E-04   -0.14237E-04  7560   0.182E-04 0.148E-04
CGA:  15    -0.425258328401E+03   -0.40011E-05   -0.48366E-05  7560   0.737E-05 0.104E-04
  44 F= -.42525833E+03 E0= -.42525833E+03  d E =-.796854E-02  mag=    18.0000
       N       E                     dE             d eps       ncg     rms          ort
SDA:   1    -0.424568502217E+03    0.68982E+00    0.00000E+00  7560   0.175E+01 0.000E+00
CGA:   2    -0.425121587442E+03   -0.55309E+00   -0.55308E+00  7560   0.625E+00 0.112E-02
CGA:   3    -0.425238031408E+03   -0.11644E+00   -0.11630E+00  7560   0.181E+00-0.122E-02
CGA:   4    -0.425269789411E+03   -0.31758E-01   -0.31647E-01  7560   0.374E-01-0.938E-03
CGA:   5    -0.425277062606E+03   -0.72732E-02   -0.72878E-02  7560   0.107E-01 0.138E-03
CGA:   6    -0.425279318758E+03   -0.22562E-02   -0.22760E-02  7560   0.339E-02 0.245E-03
CGA:   7    -0.425280210165E+03   -0.89141E-03   -0.89338E-03  7560   0.132E-02 0.632E-04
CGA:   8    -0.425280629522E+03   -0.41936E-03   -0.42274E-03  7560   0.679E-03-0.128E-03
CGA:   9    -0.425280823123E+03   -0.19360E-03   -0.19641E-03  7560   0.274E-03-0.875E-04
CGA:  10    -0.425280878901E+03   -0.55778E-04   -0.57411E-04  7560   0.809E-04 0.332E-04
CGA:  11    -0.425280897795E+03   -0.18894E-04   -0.20441E-04  7560   0.339E-04 0.249E-04
CGA:  12    -0.425280910167E+03   -0.12372E-04   -0.12409E-04  7560   0.192E-04 0.927E-05
CGA:  13    -0.425280919230E+03   -0.90633E-05   -0.89481E-05  7560   0.130E-04 0.138E-05
  45 F= -.42528092E+03 E0= -.42528092E+03  d E =-.225908E-01  mag=    18.0000
       N       E                     dE             d eps       ncg     rms          ort
SDA:   1    -0.425030404611E+03    0.25051E+00    0.00000E+00  7560   0.591E+00 0.000E+00
CGA:   2    -0.425225816679E+03   -0.19541E+00   -0.19539E+00  7560   0.210E+00 0.101E-02
CGA:   3    -0.425264381892E+03   -0.38565E-01   -0.38539E-01  7560   0.522E-01-0.270E-03
CGA:   4    -0.425273087070E+03   -0.87052E-02   -0.86984E-02  7560   0.102E-01-0.690E-04
CGA:   5    -0.425275081847E+03   -0.19948E-02   -0.20079E-02  7560   0.280E-02 0.130E-03
CGA:   6    -0.425275652203E+03   -0.57036E-03   -0.57606E-03  7560   0.779E-03 0.636E-04
CGA:   7    -0.425275847177E+03   -0.19497E-03   -0.19701E-03  7560   0.296E-03 0.511E-04
CGA:   8    -0.425275941660E+03   -0.94484E-04   -0.94286E-04  7560   0.151E-03 0.141E-04
CGA:   9    -0.425275993126E+03   -0.51466E-04   -0.51226E-04  7560   0.660E-04 0.616E-05
CGA:  10    -0.425276004861E+03   -0.11735E-04   -0.13921E-04  7560   0.229E-04 0.256E-04
CGA:  11    -0.425276010688E+03   -0.58265E-05   -0.66157E-05  7560   0.108E-04 0.105E-04
CGA:  12    -0.425276008631E+03    0.20564E-05   -0.15680E-04  7560   0.708E-04-0.248E-04
CGA:  13    -0.425276020334E+03   -0.11703E-04   -0.13822E-04  7560   0.962E-05 0.176E-04
CGA:  14    -0.425275991693E+03    0.28641E-04   -0.16637E-04  7560   0.136E-03-0.421E-04
CGA:  15    -0.425276021379E+03   -0.29686E-04   -0.33236E-04  7560   0.134E-04 0.299E-04
CGA:  16    -0.425275986248E+03    0.35131E-04   -0.22699E-04  7560   0.183E-03-0.559E-04
CGA:  17    -0.425276007677E+03   -0.21430E-04   -0.34502E-04  7560   0.372E-04 0.593E-04
CGA:  18    -0.425276023016E+03   -0.15339E-04   -0.15017E-04  7560   0.408E-05-0.346E-05
CGA:  19    -0.425276036783E+03   -0.13767E-04    0.19544E-06  7560   0.306E-05-0.180E-05
CGA:  20    -0.425276036304E+03    0.47915E-06   -0.50566E-07  7560   0.253E-05 0.146E-05
  46 F= -.42527604E+03 E0= -.42527604E+03  d E =0.488293E-02  mag=    18.0000
       N       E                     dE             d eps       ncg     rms          ort
SDA:   1    -0.424996999975E+03    0.27904E+00    0.00000E+00  7560   0.684E+00 0.000E+00
CGA:   2    -0.425195831043E+03   -0.19883E+00   -0.19893E+00  7560   0.305E+00 0.116E-02
CGA:   3    -0.425250002985E+03   -0.54172E-01   -0.54079E-01  7560   0.745E-01-0.591E-03
CGA:   4    -0.425262670339E+03   -0.12667E-01   -0.12633E-01  7560   0.139E-01-0.221E-03
CGA:   5    -0.425265344802E+03   -0.26745E-02   -0.26832E-02  7560   0.389E-02 0.571E-04
CGA:   6    -0.425266155357E+03   -0.81055E-03   -0.81144E-03  7560   0.108E-02 0.591E-05
CGA:   7    -0.425266424470E+03   -0.26911E-03   -0.27014E-03  7560   0.421E-03 0.139E-04
CGA:   8    -0.425266558226E+03   -0.13376E-03   -0.13365E-03  7560   0.222E-03-0.183E-04
CGA:   9    -0.425266635680E+03   -0.77454E-04   -0.79181E-04  7560   0.120E-03-0.324E-04
CGA:  10    -0.425266656307E+03   -0.20627E-04   -0.22999E-04  7560   0.389E-04 0.240E-04
CGA:  11    -0.425266665729E+03   -0.94224E-05   -0.10427E-04  7560   0.166E-04 0.107E-04
CGA:  12    -0.425266672504E+03   -0.67755E-05   -0.14729E-04  7560   0.480E-04-0.209E-04
  47 F= -.42526667E+03 E0= -.42526667E+03  d E =0.936380E-02  mag=    18.0000
       N       E                     dE             d eps       ncg     rms          ort
SDA:   1    -0.424775474863E+03    0.49119E+00    0.00000E+00  7560   0.127E+01 0.000E+00
CGA:   2    -0.425117282386E+03   -0.34181E+00   -0.34196E+00  7560   0.590E+00 0.200E-02
CGA:   3    -0.425221651837E+03   -0.10437E+00   -0.10430E+00  7560   0.151E+00-0.695E-03
CGA:   4    -0.425247874995E+03   -0.26223E-01   -0.26182E-01  7560   0.286E-01-0.308E-03
CGA:   5    -0.425253175079E+03   -0.53001E-02   -0.53091E-02  7560   0.762E-02 0.692E-04
CGA:   6    -0.425254788489E+03   -0.16134E-02   -0.16147E-02  7560   0.212E-02 0.125E-04
CGA:   7    -0.425255298301E+03   -0.50981E-03   -0.51357E-03  7560   0.769E-03 0.690E-04
CGA:   8    -0.425255523217E+03   -0.22492E-03   -0.22543E-03  7560   0.345E-03 0.553E-04
CGA:   9    -0.425255644784E+03   -0.12157E-03   -0.12078E-03  7560   0.159E-03 0.233E-04
CGA:  10    -0.425255689913E+03   -0.45130E-04   -0.45923E-04  7560   0.592E-04 0.331E-04
CGA:  11    -0.425255713643E+03   -0.23730E-04   -0.23497E-04  7560   0.307E-04 0.648E-05
CGA:  12    -0.425255727789E+03   -0.14146E-04   -0.23451E-04  7560   0.583E-04-0.237E-04
CGA:  13    -0.425255732931E+03   -0.51419E-05   -0.87889E-05  7560   0.115E-04 0.223E-04
  48 F= -.42525573E+03 E0= -.42525573E+03  d E =0.109396E-01  mag=    18.0000
       N       E                     dE             d eps       ncg     rms          ort
SDA:   1    -0.424573482601E+03    0.68225E+00    0.00000E+00  7560   0.177E+01 0.000E+00
CGA:   2    -0.425029853617E+03   -0.45637E+00   -0.45647E+00  7560   0.955E+00 0.145E-02
CGA:   3    -0.425198066085E+03   -0.16821E+00   -0.16819E+00  7560   0.213E+00-0.533E-03
CGA:   4    -0.425235146355E+03   -0.37080E-01   -0.37046E-01  7560   0.462E-01-0.306E-03
CGA:   5    -0.425243626805E+03   -0.84805E-02   -0.84853E-02  7560   0.115E-01 0.397E-04
CGA:   6    -0.425246075060E+03   -0.24483E-02   -0.24517E-02  7560   0.335E-02 0.485E-04
CGA:   7    -0.425246855054E+03   -0.77999E-03   -0.78418E-03  7560   0.110E-02 0.964E-04
CGA:   8    -0.425247160572E+03   -0.30552E-03   -0.30571E-03  7560   0.432E-03 0.693E-04
CGA:   9    -0.425247298254E+03   -0.13768E-03   -0.13685E-03  7560   0.173E-03 0.347E-04
CGA:  10    -0.425247350807E+03   -0.52553E-04   -0.52412E-04  7560   0.631E-04 0.269E-04
CGA:  11    -0.425247372998E+03   -0.22191E-04   -0.21926E-04  7560   0.271E-04 0.104E-04
CGA:  12    -0.425247384009E+03   -0.11011E-04   -0.10723E-04  7560   0.145E-04 0.449E-05
CGA:  13    -0.425247386658E+03   -0.26497E-05   -0.33614E-05  7560   0.730E-05 0.883E-05
  49 F= -.42524739E+03 E0= -.42524739E+03  d E =0.834627E-02  mag=    18.0000
       N       E                     dE             d eps       ncg     rms          ort
SDA:   1    -0.425166516444E+03    0.80868E-01    0.00000E+00  7560   0.244E+00 0.000E+00
CGA:   2    -0.425230322388E+03   -0.63806E-01   -0.63791E-01  7560   0.105E+00-0.108E-02
CGA:   3    -0.425249304455E+03   -0.18982E-01   -0.18952E-01  7560   0.301E-01-0.342E-03
CGA:   4    -0.425254702997E+03   -0.53985E-02   -0.54181E-02  7560   0.644E-02 0.202E-03
CGA:   5    -0.425255890149E+03   -0.11872E-02   -0.12013E-02  7560   0.169E-02 0.170E-03
CGA:   6    -0.425256256887E+03   -0.36674E-03   -0.36882E-03  7560   0.516E-03 0.407E-04
CGA:   7    -0.425256408750E+03   -0.15186E-03   -0.15332E-03  7560   0.252E-03-0.502E-04
CGA:   8    -0.425256477914E+03   -0.69164E-04   -0.71415E-04  7560   0.124E-03-0.435E-04
CGA:   9    -0.425256511429E+03   -0.33516E-04   -0.36278E-04  7560   0.612E-04-0.315E-04
CGA:  10    -0.425256521716E+03   -0.10287E-04   -0.10513E-04  7560   0.200E-04 0.572E-05
CGA:  11    -0.425256523503E+03   -0.17867E-05   -0.31333E-05  7560   0.942E-05 0.109E-04
  50 F= -.42525652E+03 E0= -.42525652E+03  d E =-.913684E-02  mag=    18.0000
       N       E                     dE             d eps       ncg     rms          ort
SDA:   1    -0.425181543770E+03    0.74978E-01    0.00000E+00  7560   0.191E+00 0.000E+00
CGA:   2    -0.425231891373E+03   -0.50348E-01   -0.50341E-01  7560   0.915E-01 0.910E-03
CGA:   3    -0.425248625815E+03   -0.16734E-01   -0.16689E-01  7560   0.230E-01-0.625E-03
CGA:   4    -0.425252600703E+03   -0.39749E-02   -0.39582E-02  7560   0.451E-02-0.214E-03
CGA:   5    -0.425253416652E+03   -0.81595E-03   -0.81922E-03  7560   0.116E-02 0.484E-04
CGA:   6    -0.425253663338E+03   -0.24669E-03   -0.24697E-03  7560   0.326E-03 0.746E-05
CGA:   7    -0.425253739731E+03   -0.76393E-04   -0.76551E-04  7560   0.112E-03 0.144E-04
CGA:   8    -0.425253772388E+03   -0.32657E-04   -0.32398E-04  7560   0.482E-04 0.797E-05
CGA:   9    -0.425253791248E+03   -0.18860E-04   -0.19821E-04  7560   0.304E-04-0.694E-05
CGA:  10    -0.425253794546E+03   -0.32980E-05   -0.42873E-05  7560   0.126E-04 0.113E-04
  51 F= -.42525379E+03 E0= -.42525379E+03  d E =0.272896E-02  mag=    18.0000
       N       E                     dE             d eps       ncg     rms          ort
SDA:   1    -0.425147918186E+03    0.10587E+00    0.00000E+00  7560   0.290E+00 0.000E+00
CGA:   2    -0.425219456921E+03   -0.71539E-01   -0.71541E-01  7560   0.157E+00-0.612E-03
CGA:   3    -0.425247873878E+03   -0.28417E-01   -0.28348E-01  7560   0.359E-01-0.117E-02
CGA:   4    -0.425254058695E+03   -0.61848E-02   -0.61898E-02  7560   0.771E-02 0.690E-04
CGA:   5    -0.425255440122E+03   -0.13814E-02   -0.13883E-02  7560   0.184E-02 0.120E-03
CGA:   6    -0.425255866272E+03   -0.42615E-03   -0.42559E-03  7560   0.604E-03-0.104E-03
CGA:   7    -0.425256001746E+03   -0.13547E-03   -0.13560E-03  7560   0.202E-03-0.265E-04
CGA:   8    -0.425256047734E+03   -0.45988E-04   -0.45885E-04  7560   0.668E-04 0.247E-04
CGA:   9    -0.425256070626E+03   -0.22891E-04   -0.22664E-04  7560   0.296E-04 0.326E-05
CGA:  10    -0.425256081667E+03   -0.11041E-04   -0.12192E-04  7560   0.207E-04-0.739E-05
CGA:  11    -0.425256084979E+03   -0.33121E-05   -0.33897E-05  7560   0.848E-05 0.298E-05
  52 F= -.42525608E+03 E0= -.42525608E+03  d E =-.229043E-02  mag=    18.0000
       N       E                     dE             d eps       ncg     rms          ort
SDA:   1    -0.424730826241E+03    0.52526E+00    0.00000E+00  7560   0.132E+01 0.000E+00
CGA:   2    -0.425099253372E+03   -0.36843E+00   -0.36842E+00  7560   0.724E+00-0.240E-03
CGA:   3    -0.425222072362E+03   -0.12282E+00   -0.12270E+00  7560   0.149E+00-0.178E-02
CGA:   4    -0.425248010760E+03   -0.25938E-01   -0.25964E-01  7560   0.316E-01 0.398E-03
CGA:   5    -0.425253728928E+03   -0.57182E-02   -0.57431E-02  7560   0.763E-02 0.451E-03
CGA:   6    -0.425255425371E+03   -0.16964E-02   -0.16959E-02  7560   0.228E-02-0.383E-04
CGA:   7    -0.425255959969E+03   -0.53460E-03   -0.53462E-03  7560   0.759E-03-0.716E-05
CGA:   8    -0.425256160039E+03   -0.20007E-03   -0.19790E-03  7560   0.290E-03 0.736E-04
CGA:   9    -0.425256253306E+03   -0.93267E-04   -0.91016E-04  7560   0.114E-03 0.429E-04
CGA:  10    -0.425256290106E+03   -0.36800E-04   -0.35821E-04  7560   0.446E-04 0.257E-04
CGA:  11    -0.425256303598E+03   -0.13492E-04   -0.13380E-04  7560   0.185E-04 0.173E-04
CGA:  12    -0.425256311375E+03   -0.77772E-05   -0.74435E-05  7560   0.105E-04 0.653E-05
  53 F= -.42525631E+03 E0= -.42525631E+03  d E =-.226396E-03  mag=    18.0000
       N       E                     dE             d eps       ncg     rms          ort
SDA:   1    -0.424927273334E+03    0.32903E+00    0.00000E+00  7560   0.799E+00 0.000E+00
[...]
CGA:   8    -0.425322618898E+03   -0.15729E-02   -0.15692E-02  7560   0.260E-02 0.172E-03
CGA:   9    -0.425323450597E+03   -0.83170E-03   -0.82268E-03  7560   0.110E-02 0.254E-03
CGA:  10    -0.425323836577E+03   -0.38598E-03   -0.38240E-03  7560   0.483E-03 0.807E-04
CGA:  11    -0.425324024214E+03   -0.18764E-03   -0.18786E-03  7560   0.254E-03-0.293E-05
CGA:  12    -0.425324132389E+03   -0.10817E-03   -0.11978E-03  7560   0.187E-03-0.601E-04
CGA:  13    -0.425324186187E+03   -0.53798E-04   -0.57688E-04  7560   0.831E-04-0.344E-04
CGA:  14    -0.425324202164E+03   -0.15977E-04   -0.16565E-04  7560   0.264E-04 0.115E-04
CGA:  15    -0.425324209280E+03   -0.71152E-05   -0.73413E-05  7560   0.978E-05 0.466E-05
  67 F= -.42532421E+03 E0= -.42532421E+03  d E =-.140706E-01  mag=    18.0000
       N       E                     dE             d eps       ncg     rms          ort
SDA:   1    -0.420215072025E+03    0.51091E+01    0.00000E+00  7560   0.149E+02 0.000E+00
CGA:   2    -0.423431750153E+03   -0.32167E+01   -0.32218E+01  7560   0.712E+01 0.175E-01
CGA:   3    -0.424808040037E+03   -0.13763E+01   -0.13774E+01  7560   0.203E+01 0.955E-02
CGA:   4    -0.425164608115E+03   -0.35657E+00   -0.35612E+00  7560   0.413E+00-0.258E-02
CGA:   5    -0.425239555646E+03   -0.74948E-01   -0.74781E-01  7560   0.104E+00-0.177E-02
CGA:   6    -0.425262217326E+03   -0.22662E-01   -0.22655E-01  7560   0.312E-01-0.143E-03
CGA:   7    -0.425269590403E+03   -0.73731E-02   -0.73931E-02  7560   0.109E-01 0.402E-03
CGA:   8    -0.425272754452E+03   -0.31640E-02   -0.31633E-02  7560   0.473E-02 0.228E-03
CGA:   9    -0.425274379824E+03   -0.16254E-02   -0.16365E-02  7560   0.238E-02-0.202E-03
CGA:  10    -0.425275147364E+03   -0.76754E-03   -0.77436E-03  7560   0.110E-02-0.128E-03
CGA:  11    -0.425275481140E+03   -0.33378E-03   -0.33247E-03  7560   0.442E-03 0.432E-04
CGA:  12    -0.425275643717E+03   -0.16258E-03   -0.16127E-03  7560   0.209E-03 0.213E-04
CGA:  13    -0.425275719541E+03   -0.75824E-04   -0.74465E-04  7560   0.894E-04 0.295E-04
CGA:  14    -0.425275757250E+03   -0.37709E-04   -0.37275E-04  7560   0.357E-04 0.615E-05
CGA:  15    -0.425275773401E+03   -0.16152E-04   -0.21826E-04  7560   0.328E-04-0.209E-04
CGA:  16    -0.425275776660E+03   -0.32588E-05   -0.52851E-05  7560   0.672E-05 0.133E-04
  68 F= -.42527578E+03 E0= -.42527578E+03  d E =0.484326E-01  mag=    18.0000
       N       E                     dE             d eps       ncg     rms          ort
SDA:   1    -0.418027178016E+03    0.72486E+01    0.00000E+00  7560   0.195E+02 0.000E+00
CGA:   2    -0.423012305100E+03   -0.49851E+01   -0.49875E+01  7560   0.888E+01 0.240E-01
CGA:   3    -0.424644659833E+03   -0.16324E+01   -0.16329E+01  7560   0.241E+01 0.504E-02
CGA:   4    -0.425060917804E+03   -0.41626E+00   -0.41587E+00  7560   0.482E+00-0.254E-02
CGA:   5    -0.425150699519E+03   -0.89782E-01   -0.89743E-01  7560   0.129E+00-0.555E-03
CGA:   6    -0.425178329848E+03   -0.27630E-01   -0.27662E-01  7560   0.389E-01 0.456E-03
CGA:   7    -0.425187985729E+03   -0.96559E-02   -0.96690E-02  7560   0.147E-01 0.447E-03
CGA:   8    -0.425192372287E+03   -0.43866E-02   -0.43842E-02  7560   0.686E-02 0.111E-03
CGA:   9    -0.425194680607E+03   -0.23083E-02   -0.23242E-02  7560   0.319E-02-0.262E-03
CGA:  10    -0.425195649053E+03   -0.96845E-03   -0.96962E-03  7560   0.130E-02-0.334E-04
CGA:  11    -0.425196067629E+03   -0.41858E-03   -0.41564E-03  7560   0.556E-03 0.662E-04
CGA:  12    -0.425196304528E+03   -0.23690E-03   -0.24021E-03  7560   0.337E-03-0.261E-04
CGA:  13    -0.425196414679E+03   -0.11015E-03   -0.10819E-03  7560   0.135E-03 0.410E-04
CGA:  14    -0.425196463381E+03   -0.48701E-04   -0.48270E-04  7560   0.458E-04 0.157E-04
CGA:  15    -0.425196483818E+03   -0.20437E-04   -0.21827E-04  7560   0.227E-04-0.104E-04
CGA:  16    -0.425196485034E+03   -0.12161E-05   -0.26569E-05  7560   0.118E-04 0.970E-05
  69 F= -.42519649E+03 E0= -.42519649E+03  d E =0.792916E-01  mag=    18.0000
       N       E                     dE             d eps       ncg     rms          ort
SDA:   1    -0.418474053956E+03    0.67224E+01    0.00000E+00  7560   0.197E+02 0.000E+00
CGA:   2    -0.422999325947E+03   -0.45253E+01   -0.45292E+01  7560   0.898E+01 0.214E-01
CGA:   3    -0.424691302571E+03   -0.16920E+01   -0.16919E+01  7560   0.260E+01 0.260E-02
CGA:   4    -0.425147131539E+03   -0.45583E+00   -0.45624E+00  7560   0.520E+00 0.215E-02
CGA:   5    -0.425242072845E+03   -0.94941E-01   -0.95145E-01  7560   0.134E+00 0.197E-02
CGA:   6    -0.425271254695E+03   -0.29182E-01   -0.29221E-01  7560   0.405E-01 0.732E-03
CGA:   7    -0.425281497273E+03   -0.10243E-01   -0.10238E-01  7560   0.159E-01-0.374E-03
CGA:   8    -0.425286110473E+03   -0.46132E-02   -0.46156E-02  7560   0.720E-02-0.848E-04
CGA:   9    -0.425288358587E+03   -0.22481E-02   -0.22379E-02  7560   0.308E-02 0.214E-03
CGA:  10    -0.425289387414E+03   -0.10288E-02   -0.10275E-02  7560   0.135E-02 0.214E-04
CGA:  11    -0.425289859115E+03   -0.47170E-03   -0.46965E-03  7560   0.629E-03 0.260E-04
CGA:  12    -0.425290110214E+03   -0.25110E-03   -0.25367E-03  7560   0.339E-03-0.216E-04
CGA:  13    -0.425290246513E+03   -0.13630E-03   -0.14500E-03  7560   0.181E-03-0.539E-04
CGA:  14    -0.425290287758E+03   -0.41245E-04   -0.41644E-04  7560   0.538E-04 0.259E-04
CGA:  15    -0.425290305424E+03   -0.17666E-04   -0.17667E-04  7560   0.178E-04 0.258E-05
CGA:  16    -0.425290212454E+03    0.92970E-04   -0.50157E-04  7560   0.370E-03-0.822E-04
CGA:  17    -0.425290294498E+03   -0.82044E-04   -0.94770E-04  7560   0.417E-04 0.473E-04
CGA:  18    -0.425289481362E+03    0.81314E-03   -0.44000E-03  7560   0.260E-02-0.348E-03
CGA:  19    -0.425290002003E+03   -0.52064E-03   -0.73906E-03  7560   0.461E-03 0.336E-03
CGA:  20    -0.425290425118E+03   -0.42312E-03   -0.27867E-03  7560   0.503E-03-0.397E-03
CGA:  21    -0.425290340872E+03    0.84245E-04   -0.62883E-04  7560   0.930E-04 0.194E-03
CGA:  22    -0.425290304951E+03    0.35921E-04   -0.12499E-04  7560   0.354E-04 0.648E-04
CGA:  23    -0.425290328202E+03   -0.23251E-04   -0.20801E-04  7560   0.793E-05-0.112E-04
CGA:  24    -0.425290326386E+03    0.18164E-05   -0.64870E-06  7560   0.439E-05 0.365E-05
  70 F= -.42529033E+03 E0= -.42529033E+03  d E =-.938414E-01  mag=    18.0000
       N       E                     dE             d eps       ncg     rms          ort
SDA:   1    -0.410673437049E+03    0.14617E+02    0.00000E+00  7560   0.403E+02 0.000E+00
CGA:   2    -0.420845023151E+03   -0.10172E+02   -0.10232E+02  7560   0.175E+02 0.285E+00
CGA:   3    -0.424181731636E+03   -0.33367E+01   -0.33350E+01  7560   0.454E+01 0.466E+00
CGA:   4    -0.425013755233E+03   -0.83202E+00   -0.83273E+00  7560   0.914E+00 0.420E-01
CGA:   5    -0.425187232122E+03   -0.17348E+00   -0.17383E+00  7560   0.254E+00 0.176E-02
CGA:   6    -0.425243102223E+03   -0.55870E-01   -0.55998E-01  7560   0.789E-01 0.190E-03
CGA:   7    -0.425263248811E+03   -0.20147E-01   -0.20134E-01  7560   0.315E-01-0.756E-04
CGA:   8    -0.425272597734E+03   -0.93489E-02   -0.94042E-02  7560   0.146E-01 0.176E-03
CGA:   9    -0.425277228527E+03   -0.46308E-02   -0.46816E-02  7560   0.626E-02 0.191E-03
CGA:  10    -0.425279314961E+03   -0.20864E-02   -0.20787E-02  7560   0.268E-02-0.368E-04
CGA:  11    -0.425280261555E+03   -0.94659E-03   -0.94736E-03  7560   0.129E-02 0.200E-05
CGA:  12    -0.425280775051E+03   -0.51350E-03   -0.51223E-03  7560   0.677E-03-0.969E-05
CGA:  13    -0.425281040736E+03   -0.26569E-03   -0.26492E-03  7560   0.287E-03-0.620E-05
CGA:  14    -0.425281133476E+03   -0.92740E-04   -0.96074E-04  7560   0.846E-04 0.173E-04
CGA:  15    -0.425281169977E+03   -0.36501E-04   -0.35342E-04  7560   0.324E-04-0.931E-05
CGA:  16    -0.425281181878E+03   -0.11900E-04   -0.11632E-04  7560   0.125E-04-0.247E-05
CGA:  17    -0.425280984669E+03    0.19721E-03   -0.10666E-03  7560   0.756E-03-0.857E-04
CGA:  18    -0.425281157065E+03   -0.17240E-03   -0.19784E-03  7560   0.905E-04 0.382E-04
CGA:  19    -0.425281197213E+03   -0.40148E-04   -0.31358E-04  7560   0.399E-04-0.156E-04
CGA:  20    -0.425281198847E+03   -0.16342E-05   -0.75827E-05  7560   0.112E-04 0.939E-05
  71 F= -.42528120E+03 E0= -.42528120E+03  d E =0.912754E-02  mag=    18.0000
       N       E                     dE             d eps       ncg     rms          ort
SDA:   1    -0.420692216730E+03    0.45890E+01    0.00000E+00  7560   0.123E+02 0.000E+00
CGA:   2    -0.423862426456E+03   -0.31702E+01   -0.31798E+01  7560   0.601E+01 0.258E-01
CGA:   3    -0.424945903181E+03   -0.10835E+01   -0.10831E+01  7560   0.143E+01 0.107E+00
CGA:   4    -0.425209375822E+03   -0.26347E+00   -0.26282E+00  7560   0.318E+00 0.701E-02
CGA:   5    -0.425269095458E+03   -0.59720E-01   -0.59687E-01  7560   0.840E-01-0.258E-04
CGA:   6    -0.425287411930E+03   -0.18316E-01   -0.18338E-01  7560   0.256E-01 0.329E-04
CGA:   7    -0.425293674373E+03   -0.62624E-02   -0.63235E-02  7560   0.948E-02 0.142E-03
CGA:   8    -0.425296344840E+03   -0.26705E-02   -0.27133E-02  7560   0.400E-02 0.118E-03
CGA:   9    -0.425297637524E+03   -0.12927E-02   -0.12835E-02  7560   0.168E-02-0.305E-04
CGA:  10    -0.425298165196E+03   -0.52767E-03   -0.52673E-03  7560   0.677E-03-0.423E-05
CGA:  11    -0.425298388643E+03   -0.22345E-03   -0.22837E-03  7560   0.304E-03 0.186E-04
CGA:  12    -0.425298527172E+03   -0.13853E-03   -0.13420E-03  7560   0.197E-03-0.285E-04
CGA:  13    -0.425298587867E+03   -0.60696E-04   -0.63440E-04  7560   0.823E-04 0.123E-04
CGA:  14    -0.425298617171E+03   -0.29303E-04   -0.29966E-04  7560   0.292E-04 0.291E-05
CGA:  15    -0.425298631356E+03   -0.14185E-04   -0.13313E-04  7560   0.148E-04-0.768E-05
CGA:  16    -0.425298631535E+03   -0.17975E-06   -0.19624E-05  7560   0.672E-05 0.484E-05
  72 F= -.42529863E+03 E0= -.42529863E+03  d E =-.174327E-01  mag=    18.0000
       N       E                     dE             d eps       ncg     rms          ort
SDA:   1    -0.418325093606E+03    0.69735E+01    0.00000E+00  7560   0.187E+02 0.000E+00
CGA:   2    -0.423136688129E+03   -0.48116E+01   -0.48212E+01  7560   0.866E+01 0.652E-02
CGA:   3    -0.424723718365E+03   -0.15870E+01   -0.15868E+01  7560   0.233E+01 0.373E-01
CGA:   4    -0.425132891670E+03   -0.40917E+00   -0.40845E+00  7560   0.479E+00 0.198E-02
CGA:   5    -0.425222715775E+03   -0.89824E-01   -0.89872E-01  7560   0.128E+00 0.322E-04
CGA:   6    -0.425250319196E+03   -0.27603E-01   -0.27752E-01  7560   0.394E-01 0.586E-03
CGA:   7    -0.425260240384E+03   -0.99212E-02   -0.99561E-02  7560   0.151E-01 0.172E-03
CGA:   8    -0.425264742124E+03   -0.45017E-02   -0.44802E-02  7560   0.681E-02-0.160E-03
CGA:   9    -0.425266963984E+03   -0.22219E-02   -0.21994E-02  7560   0.301E-02-0.228E-03
CGA:  10    -0.425267879611E+03   -0.91563E-03   -0.91530E-03  7560   0.121E-02-0.460E-05
CGA:  11    -0.425268262961E+03   -0.38335E-03   -0.39083E-03  7560   0.525E-03 0.822E-04
CGA:  12    -0.425268486036E+03   -0.22308E-03   -0.22311E-03  7560   0.307E-03 0.230E-05
CGA:  13    -0.425268598624E+03   -0.11259E-03   -0.11351E-03  7560   0.132E-03 0.221E-04
CGA:  14    -0.425268644536E+03   -0.45912E-04   -0.46990E-04  7560   0.434E-04 0.140E-04
CGA:  15    -0.425268662380E+03   -0.17844E-04   -0.17798E-04  7560   0.161E-04-0.141E-05
CGA:  16    -0.425268663440E+03   -0.10599E-05   -0.28216E-05  7560   0.688E-05 0.795E-05
  73 F= -.42526866E+03 E0= -.42526866E+03  d E =0.299681E-01  mag=    18.0000
       N       E                     dE             d eps       ncg     rms          ort
SDA:   1    -0.423542680622E+03    0.17260E+01    0.00000E+00  7560   0.452E+01 0.000E+00
CGA:   2    -0.424828968692E+03   -0.12863E+01   -0.12865E+01  7560   0.193E+01-0.221E-02
CGA:   3    -0.425176798688E+03   -0.34783E+00   -0.34786E+00  7560   0.551E+00-0.430E-03
CGA:   4    -0.425274087188E+03   -0.97288E-01   -0.97440E-01  7560   0.115E+00 0.786E-03
CGA:   5    -0.425296288452E+03   -0.22201E-01   -0.22243E-01  7560   0.322E-01 0.247E-03
CGA:   6    -0.425303354698E+03   -0.70662E-02   -0.70687E-02  7560   0.105E-01 0.688E-05
CGA:   7    -0.425306090235E+03   -0.27355E-02   -0.27331E-02  7560   0.410E-02-0.321E-04
CGA:   8    -0.425307230657E+03   -0.11404E-02   -0.11438E-02  7560   0.164E-02 0.597E-04
CGA:   9    -0.425307714005E+03   -0.48335E-03   -0.48738E-03  7560   0.585E-03 0.985E-04
CGA:  10    -0.425307925959E+03   -0.21195E-03   -0.21245E-03  7560   0.283E-03-0.442E-04
CGA:  11    -0.425308025650E+03   -0.99691E-04   -0.10200E-03  7560   0.162E-03-0.401E-04
CGA:  12    -0.425308070742E+03   -0.45092E-04   -0.45241E-04  7560   0.700E-04 0.149E-04
CGA:  13    -0.425308103010E+03   -0.32268E-04   -0.33874E-04  7560   0.478E-04-0.148E-04
CGA:  14    -0.425308115659E+03   -0.12649E-04   -0.12641E-04  7560   0.199E-04-0.181E-05
CGA:  15    -0.425308122681E+03   -0.70217E-05   -0.72025E-05  7560   0.937E-05-0.499E-05
  74 F= -.42530812E+03 E0= -.42530812E+03  d E =-.394592E-01  mag=    18.0000
       N       E                     dE             d eps       ncg     rms          ort
SDA:   1    -0.424583670021E+03    0.72445E+00    0.00000E+00  7560   0.195E+01 0.000E+00
CGA:   2    -0.425148169517E+03   -0.56450E+00   -0.56455E+00  7560   0.807E+00 0.748E-04
CGA:   3    -0.425291830846E+03   -0.14366E+00   -0.14380E+00  7560   0.226E+00 0.922E-03
CGA:   4    -0.425332203508E+03   -0.40373E-01   -0.40489E-01  7560   0.501E-01 0.668E-03
CGA:   5    -0.425341715165E+03   -0.95117E-02   -0.94964E-02  7560   0.135E-01-0.129E-03
CGA:   6    -0.425344740929E+03   -0.30258E-02   -0.29977E-02  7560   0.458E-02-0.306E-03
CGA:   7    -0.425345886575E+03   -0.11456E-02   -0.11412E-02  7560   0.173E-02-0.778E-04
CGA:   8    -0.425346330314E+03   -0.44374E-03   -0.44763E-03  7560   0.634E-03 0.852E-04
CGA:   9    -0.425346521654E+03   -0.19134E-03   -0.19208E-03  7560   0.223E-03 0.408E-04
CGA:  10    -0.425346596296E+03   -0.74642E-04   -0.74641E-04  7560   0.911E-04-0.270E-07
CGA:  11    -0.425346629182E+03   -0.32887E-04   -0.33321E-04  7560   0.480E-04-0.737E-05
CGA:  12    -0.425346646632E+03   -0.17450E-04   -0.17766E-04  7560   0.268E-04-0.343E-05
CGA:  13    -0.425346653805E+03   -0.71729E-05   -0.72928E-05  7560   0.101E-04 0.580E-05
  75 F= -.42534665E+03 E0= -.42534665E+03  d E =-.385311E-01  mag=    18.0000
       N       E                     dE             d eps       ncg     rms          ort
SDA:   1    -0.425155824870E+03    0.19082E+00    0.00000E+00  7560   0.536E+00 0.000E+00
CGA:   2    -0.425276588731E+03   -0.12076E+00   -0.12092E+00  7560   0.223E+00 0.144E-02
CGA:   3    -0.425319726258E+03   -0.43138E-01   -0.43246E-01  7560   0.718E-01 0.879E-03
CGA:   4    -0.425332290766E+03   -0.12565E-01   -0.12544E-01  7560   0.134E-01-0.194E-03
CGA:   5    -0.425334801876E+03   -0.25111E-02   -0.24969E-02  7560   0.361E-02-0.137E-03
CGA:   6    -0.425335558685E+03   -0.75681E-03   -0.75889E-03  7560   0.107E-02 0.261E-04
CGA:   7    -0.425335815869E+03   -0.25718E-03   -0.26012E-03  7560   0.402E-03 0.691E-04
CGA:   8    -0.425335939841E+03   -0.12397E-03   -0.12374E-03  7560   0.191E-03 0.372E-04
CGA:   9    -0.425336014413E+03   -0.74572E-04   -0.74716E-04  7560   0.111E-03-0.198E-05
CGA:  10    -0.425336048125E+03   -0.33711E-04   -0.33594E-04  7560   0.467E-04 0.564E-05
CGA:  11    -0.425336062708E+03   -0.14583E-04   -0.14535E-04  7560   0.187E-04 0.574E-05
CGA:  12    -0.425336071108E+03   -0.84005E-05   -0.86882E-05  7560   0.125E-04-0.230E-05
  76 F= -.42533607E+03 E0= -.42533607E+03  d E =0.105827E-01  mag=    18.0000
       N       E                     dE             d eps       ncg     rms          ort
SDA:   1    -0.425114291901E+03    0.22177E+00    0.00000E+00  7560   0.609E+00 0.000E+00
CGA:   2    -0.425255965767E+03   -0.14167E+00   -0.14186E+00  7560   0.214E+00 0.244E-02
CGA:   3    -0.425301717257E+03   -0.45751E-01   -0.45736E-01  7560   0.728E-01-0.232E-03
CGA:   4    -0.425313875057E+03   -0.12158E-01   -0.12058E-01  7560   0.137E-01-0.849E-03
CGA:   5    -0.425316580907E+03   -0.27059E-02   -0.26865E-02  7560   0.395E-02-0.236E-03
CGA:   6    -0.425317367254E+03   -0.78635E-03   -0.79165E-03  7560   0.119E-02 0.704E-04
CGA:   7    -0.425317672659E+03   -0.30540E-03   -0.30737E-03  7560   0.510E-03 0.103E-03
CGA:   8    -0.425317858423E+03   -0.18576E-03   -0.18712E-03  7560   0.332E-03-0.210E-04
CGA:   9    -0.425317978525E+03   -0.12010E-03   -0.13178E-03  7560   0.244E-03-0.849E-04
CGA:  10    -0.425318027919E+03   -0.49394E-04   -0.49306E-04  7560   0.933E-04-0.796E-05
CGA:  11    -0.425318048498E+03   -0.20579E-04   -0.21250E-04  7560   0.381E-04 0.142E-04
CGA:  12    -0.425318057558E+03   -0.90608E-05   -0.97715E-05  7560   0.171E-04 0.123E-04
  77 F= -.42531806E+03 E0= -.42531806E+03  d E =0.180135E-01  mag=    18.0000
       N       E                     dE             d eps       ncg     rms          ort
SDA:   1    -0.425196074995E+03    0.12197E+00    0.00000E+00  7560   0.361E+00 0.000E+00
CGA:   2    -0.425285762879E+03   -0.89688E-01   -0.89676E-01  7560   0.172E+00-0.672E-03
CGA:   3    -0.425317080189E+03   -0.31317E-01   -0.31297E-01  7560   0.477E-01-0.269E-03
CGA:   4    -0.425325118845E+03   -0.80387E-02   -0.80931E-02  7560   0.899E-02 0.534E-03
CGA:   5    -0.425326744681E+03   -0.16258E-02   -0.16489E-02  7560   0.231E-02 0.278E-03
CGA:   6    -0.425327267012E+03   -0.52233E-03   -0.52354E-03  7560   0.710E-03 0.296E-04
CGA:   7    -0.425327458322E+03   -0.19131E-03   -0.19164E-03  7560   0.308E-03-0.362E-04
CGA:   8    -0.425327536918E+03   -0.78595E-04   -0.78374E-04  7560   0.124E-03 0.211E-04
CGA:   9    -0.425327567175E+03   -0.30257E-04   -0.31126E-04  7560   0.463E-04 0.377E-04
CGA:  10    -0.425327580606E+03   -0.13431E-04   -0.13934E-04  7560   0.208E-04 0.190E-04
CGA:  11    -0.425327590433E+03   -0.98268E-05   -0.95269E-05  7560   0.133E-04 0.433E-05
  78 F= -.42532759E+03 E0= -.42532759E+03  d E =-.953287E-02  mag=    18.0000
       N       E                     dE             d eps       ncg     rms          ort
SDA:   1    -0.425289891387E+03    0.37689E-01    0.00000E+00  7560   0.104E+00 0.000E+00
CGA:   2    -0.425313711456E+03   -0.23820E-01   -0.23849E-01  7560   0.523E-01 0.581E-03
CGA:   3    -0.425323495403E+03   -0.97839E-02   -0.98242E-02  7560   0.135E-01 0.451E-03
CGA:   4    -0.425325953099E+03   -0.24577E-02   -0.24584E-02  7560   0.325E-02 0.593E-05
CGA:   5    -0.425326571530E+03   -0.61843E-03   -0.61270E-03  7560   0.843E-03-0.756E-04
CGA:   6    -0.425326762771E+03   -0.19124E-03   -0.18891E-03  7560   0.294E-03-0.740E-04
CGA:   7    -0.425326823524E+03   -0.60752E-04   -0.60889E-04  7560   0.929E-04 0.416E-05
CGA:   8    -0.425326841191E+03   -0.17667E-04   -0.19022E-04  7560   0.287E-04 0.242E-04
CGA:   9    -0.425326848490E+03   -0.72987E-05   -0.77418E-05  7560   0.123E-04 0.108E-04
  79 F= -.42532685E+03 E0= -.42532685E+03  d E =0.741943E-03  mag=    18.0000
       N       E                     dE             d eps       ncg     rms          ort
SDA:   1    -0.425302895936E+03    0.23945E-01    0.00000E+00  7560   0.596E-01 0.000E+00
CGA:   2    -0.425317122140E+03   -0.14226E-01   -0.14233E-01  7560   0.221E-01 0.467E-03
CGA:   3    -0.425321658688E+03   -0.45365E-02   -0.45358E-02  7560   0.729E-02-0.201E-04
CGA:   4    -0.425322947839E+03   -0.12892E-02   -0.12723E-02  7560   0.151E-02-0.228E-03
CGA:   5    -0.425323230190E+03   -0.28235E-03   -0.28056E-03  7560   0.408E-03-0.338E-04
CGA:   6    -0.425323300372E+03   -0.70182E-04   -0.73095E-04  7560   0.105E-03 0.487E-04
CGA:   7    -0.425323323461E+03   -0.23089E-04   -0.24106E-04  7560   0.404E-04 0.300E-04
CGA:   8    -0.425323339574E+03   -0.16113E-04   -0.16047E-04  7560   0.289E-04 0.912E-06
CGA:   9    -0.425323349540E+03   -0.99659E-05   -0.13789E-04  7560   0.351E-04-0.170E-04
  80 F= -.42532335E+03 E0= -.42532335E+03  d E =0.349895E-02  mag=    18.0000
