       N       E                     dE             d eps       ncg     rms          ort
DAV:   1     0.311817506489E+04    0.31182E+04   -0.14123E+05 10962   0.176E+03
DAV:   2     0.195000485391E+02   -0.30987E+04   -0.28269E+04 10962   0.462E+02
DAV:   3    -0.434140676553E+03   -0.45364E+03   -0.44222E+03 10962   0.198E+02
DAV:   4    -0.457267549782E+03   -0.23127E+02   -0.22178E+02 10962   0.428E+01
DAV:   5    -0.458778030215E+03   -0.15105E+01   -0.14680E+01 10962   0.768E+00
SDA:   6    -0.195875752163E+03    0.26290E+03   -0.14680E+01 10962   0.233E+04 0.000E+00
CGA:   7    -0.297281954276E+03   -0.10141E+03   -0.22982E+03 10962   0.280E+04-0.439E+03
CGA:   8    -0.288267617034E+03    0.90143E+01   -0.15529E+03 10962   0.779E+03-0.505E+03
CGA:   9    -0.314757646788E+03   -0.26490E+02   -0.52231E+02 10962   0.517E+03-0.284E+03
CGA:  10    -0.344737369289E+03   -0.29980E+02   -0.19495E+02 10962   0.463E+02 0.575E+02
CGA:  11    -0.346335632310E+03   -0.15983E+01   -0.37341E+01 10962   0.220E+03-0.561E+02
CGA:  12    -0.350355647015E+03   -0.40200E+01   -0.93768E+01 10962   0.284E+02-0.175E+02
CGA:  13    -0.351789801099E+03   -0.14342E+01   -0.78636E+00 10962   0.222E+02 0.262E+02
CGA:  14    -0.353348810905E+03   -0.15590E+01   -0.51661E+00 10962   0.112E+02 0.754E+01
CGA:  15    -0.352329964325E+03    0.10188E+01   -0.48056E+00 10962   0.167E+03-0.451E+02
CGA:  16    -0.352541042946E+03   -0.21108E+00   -0.85952E+01 10962   0.210E+02-0.114E+02
CGA:  17    -0.353255835391E+03   -0.71479E+00   -0.33607E+00 10962   0.317E+02 0.339E+02
CGA:  18    -0.355102010971E+03   -0.18462E+01   -0.68887E+00 10962   0.469E+01 0.129E+02
CGA:  19    -0.355228299376E+03   -0.12629E+00   -0.92288E-01 10962   0.353E+01 0.210E+01
CGA:  20    -0.355422402941E+03   -0.19410E+00   -0.16567E+00 10962   0.149E+02 0.423E+00
CGA:  21    -0.355850602632E+03   -0.42820E+00   -0.33813E+00 10962   0.399E+02 0.394E+01
CGA:  22    -0.355823642050E+03    0.26961E-01   -0.49607E+00 10962   0.416E+02-0.370E+02
CGA:  23    -0.355683266509E+03    0.14038E+00   -0.10788E+01 10962   0.430E+02-0.257E+02
CGA:  24    -0.356185435314E+03   -0.50217E+00   -0.78339E+00 10962   0.304E+02-0.404E+02
CGA:  25    -0.355631295458E+03    0.55414E+00   -0.10849E+01 10962   0.396E+02-0.176E+02
CGA:  26    -0.356697765855E+03   -0.10665E+01   -0.60077E+00 10962   0.423E+01-0.111E+02
CGA:  27    -0.357437022010E+03   -0.73926E+00   -0.91462E+00 10962   0.961E+00-0.494E-01
CGA:  28    -0.357748049762E+03   -0.31103E+00   -0.27941E+00 10962   0.351E+00 0.672E-01
CGA:  29    -0.357908903232E+03   -0.16085E+00   -0.16700E-02 10962   0.519E+00-0.162E+00
CGA:  30    -0.357963076380E+03   -0.54173E-01   -0.54059E-01 10962   0.144E+00-0.572E-02
CGA:  31    -0.357985441275E+03   -0.22365E-01   -0.22160E-01 10962   0.525E-01-0.417E-02
CGA:  32    -0.358003282044E+03   -0.17841E-01   -0.18642E-01 10962   0.617E-01-0.465E-02
CGA:  33    -0.358016180011E+03   -0.12898E-01   -0.12958E-01 10962   0.306E-01-0.277E-02
CGA:  34    -0.358023861183E+03   -0.76812E-02   -0.81509E-02 10962   0.197E-01-0.680E-02
CGA:  35    -0.358027524956E+03   -0.36638E-02   -0.46310E-02 10962   0.120E-01-0.110E-01
CGA:  36    -0.358030731225E+03   -0.32063E-02   -0.31199E-02 10962   0.295E-02 0.213E-02
CGA:  37    -0.358031738535E+03   -0.10073E-02   -0.93711E-03 10962   0.143E-02 0.147E-02
CGA:  38    -0.358032335451E+03   -0.59692E-03   -0.55533E-03 10962   0.846E-03 0.118E-02
CGA:  39    -0.358032553653E+03   -0.21820E-03   -0.20901E-03 10962   0.564E-03 0.438E-03
CGA:  40    -0.358032724408E+03   -0.17075E-03   -0.15327E-03 10962   0.500E-03 0.388E-03
CGA:  41    -0.358032876484E+03   -0.15208E-03   -0.13658E-03 10962   0.465E-03 0.354E-03
CGA:  42    -0.358033078639E+03   -0.20215E-03   -0.16617E-03 10962   0.542E-03 0.286E-03
CGA:  43    -0.358033226223E+03   -0.14758E-03   -0.14218E-03 10962   0.509E-03 0.219E-03
CGA:  44    -0.358033897759E+03   -0.67154E-03   -0.43044E-03 10962   0.497E-03 0.668E-03
CGA:  45    -0.358034127736E+03   -0.22998E-03   -0.23452E-03 10962   0.123E-02-0.208E-04
CGA:  46    -0.358037450485E+03   -0.33227E-02   -0.15753E-02 10962   0.513E-02 0.965E-03
CGA:  47    -0.358037894696E+03   -0.44421E-03   -0.10402E-02 10962   0.204E-02-0.223E-03
CGA:  48    -0.358037779682E+03    0.11501E-03   -0.42094E-03 10962   0.335E-02 0.104E-02
CGA:  49    -0.358037201766E+03    0.57792E-03   -0.62495E-03 10962   0.636E-02 0.125E-02
CGA:  50    -0.358026759735E+03    0.10442E-01   -0.78285E-03 10962   0.595E-01 0.118E-01
CGA:  51    -0.358024560845E+03    0.21989E-02   -0.12123E-01 10962   0.707E-01 0.147E-01
CGA:  52    -0.357990699479E+03    0.33861E-01   -0.11662E-01 10962   0.196E+00 0.621E-01
CGA:  53    -0.358001404120E+03   -0.10705E-01   -0.41058E-01 10962   0.136E+00 0.459E-01
CGA:  54    -0.357978809217E+03    0.22595E-01   -0.24814E-01 10962   0.152E+00 0.781E-01
CGA:  55    -0.357991388889E+03   -0.12580E-01   -0.29812E-01 10962   0.110E+00 0.589E-01
CGA:  56    -0.357983429449E+03    0.79594E-02   -0.21603E-01 10962   0.106E+00 0.749E-01
CGA:  57    -0.357996273251E+03   -0.12844E-01   -0.20890E-01 10962   0.861E-01 0.535E-01
CGA:  58    -0.358011490757E+03   -0.15218E-01   -0.19562E-01 10962   0.513E-01 0.335E-01
CGA:  59    -0.358024994230E+03   -0.13503E-01   -0.15908E-01 10962   0.325E-01 0.135E-01
CGA:  60    -0.358026104927E+03   -0.11107E-02   -0.63609E-02 10962   0.205E-01 0.189E-01
CGA:  61    -0.358034260986E+03   -0.81561E-02   -0.82709E-02 10962   0.658E-02-0.131E-02
CGA:  62    -0.358037552510E+03   -0.32915E-02   -0.31431E-02 10962   0.283E-02 0.130E-02
CGA:  63    -0.358039711735E+03   -0.21592E-02   -0.18934E-02 10962   0.238E-02 0.160E-02
CGA:  64    -0.358041528056E+03   -0.18163E-02   -0.14253E-02 10962   0.167E-02 0.121E-02
CGA:  65    -0.358042044278E+03   -0.51622E-03   -0.54802E-03 10962   0.140E-02 0.628E-03
CGA:  66    -0.358043823803E+03   -0.17795E-02   -0.17423E-02 10962   0.564E-02 0.752E-04
CGA:  67    -0.358043915722E+03   -0.91919E-04   -0.67811E-03 10962   0.632E-02 0.820E-03
CGA:  68    -0.358044084901E+03   -0.16918E-03   -0.78616E-03 10962   0.385E-02-0.500E-03
CGA:  69    -0.358044150738E+03   -0.65838E-04   -0.45611E-03 10962   0.399E-02 0.134E-02
CGA:  70    -0.358045250892E+03   -0.11002E-02   -0.13817E-02 10962   0.439E-02 0.130E-02
CGA:  71    -0.358047522040E+03   -0.22711E-02   -0.30971E-02 10962   0.111E-01 0.743E-03
CGA:  72    -0.358047192730E+03    0.32931E-03   -0.13679E-02 10962   0.160E-01 0.937E-02
CGA:  73    -0.358053575458E+03   -0.63827E-02   -0.61941E-02 10962   0.484E-02 0.338E-02
CGA:  74    -0.358057321063E+03   -0.37456E-02   -0.39676E-02 10962   0.103E-01-0.775E-03
CGA:  75    -0.358059075337E+03   -0.17543E-02   -0.18059E-02 10962   0.490E-02 0.836E-03
CGA:  76    -0.358059657351E+03   -0.58201E-03   -0.70172E-03 10962   0.203E-02 0.643E-03
CGA:  77    -0.358060174162E+03   -0.51681E-03   -0.54063E-03 10962   0.255E-02 0.244E-03
CGA:  78    -0.358061081061E+03   -0.90690E-03   -0.89486E-03 10962   0.422E-02-0.415E-03
CGA:  79    -0.358061989875E+03   -0.90881E-03   -0.83809E-03 10962   0.679E-02-0.506E-03
CGA:  80    -0.358062997687E+03   -0.10078E-02   -0.97630E-03 10962   0.612E-02 0.513E-04
CGA:  81    -0.358063738327E+03   -0.74064E-03   -0.80627E-03 10962   0.484E-02 0.445E-03
CGA:  82    -0.358064577260E+03   -0.83893E-03   -0.89441E-03 10962   0.724E-02 0.575E-03
CGA:  83    -0.358066390342E+03   -0.18131E-02   -0.18482E-02 10962   0.136E-01 0.283E-03
CGA:  84    -0.358069194392E+03   -0.28041E-02   -0.25246E-02 10962   0.178E-01-0.651E-03
CGA:  85    -0.358071647724E+03   -0.24533E-02   -0.23483E-02 10962   0.216E-01-0.170E-02
CGA:  86    -0.358074587980E+03   -0.29403E-02   -0.26065E-02 10962   0.253E-01-0.136E-02
CGA:  87    -0.358077394099E+03   -0.28061E-02   -0.26787E-02 10962   0.252E-01-0.105E-02
CGA:  88    -0.358080073437E+03   -0.26793E-02   -0.24933E-02 10962   0.263E-01-0.170E-04
CGA:  89    -0.358083039917E+03   -0.29665E-02   -0.27302E-02 10962   0.320E-01 0.246E-02
CGA:  90    -0.358086266099E+03   -0.32262E-02   -0.33904E-02 10962   0.375E-01-0.347E-03
CGA:  91    -0.358089393963E+03   -0.31279E-02   -0.27045E-02 10962   0.373E-01 0.358E-02
CGA:  92    -0.358092501909E+03   -0.31079E-02   -0.27423E-02 10962   0.358E-01 0.205E-02
CGA:  93    -0.358094764400E+03   -0.22625E-02   -0.23509E-02 10962   0.370E-01-0.260E-02
CGA:  94    -0.358096461645E+03   -0.16972E-02   -0.20251E-02 10962   0.401E-01-0.166E-02
CGA:  95    -0.358098671307E+03   -0.22097E-02   -0.23440E-02 10962   0.430E-01 0.699E-03
CGA:  96    -0.358101300124E+03   -0.26288E-02   -0.25162E-02 10962   0.436E-01 0.511E-02
CGA:  97    -0.358103776959E+03   -0.24768E-02   -0.25822E-02 10962   0.419E-01 0.465E-02
CGA:  98    -0.358105756940E+03   -0.19800E-02   -0.22616E-02 10962   0.417E-01 0.220E-02
CGA:  99    -0.358107523928E+03   -0.17670E-02   -0.19661E-02 10962   0.425E-01 0.239E-02
CGA: 100    -0.358109253969E+03   -0.17300E-02   -0.19191E-02 10962   0.434E-01 0.108E-02
CGA: 101    -0.358110957202E+03   -0.17032E-02   -0.17541E-02 10962   0.435E-01 0.421E-02
CGA: 102    -0.358112714701E+03   -0.17575E-02   -0.18606E-02 10962   0.426E-01 0.134E-02
SDA: 103    -0.358114145112E+03   -0.14304E-02   -0.15851E-02 10962   0.417E-01 0.313E-04
CGA: 104    -0.358148408690E+03   -0.34264E-01   -0.29964E-01 10962   0.408E-01 0.737E-02
CGA: 105    -0.358172985065E+03   -0.24576E-01   -0.22922E-01 10962   0.323E-01 0.564E-02
CGA: 106    -0.358191523047E+03   -0.18538E-01   -0.17492E-01 10962   0.142E-01 0.416E-02
CGA: 107    -0.358208894901E+03   -0.17372E-01   -0.16215E-01 10962   0.234E-01 0.707E-03
CGA: 108    -0.358215791824E+03   -0.68969E-02   -0.26920E-01 10962   0.975E-01-0.291E-01
CGA: 109    -0.358236890182E+03   -0.21098E-01   -0.21183E-01 10962   0.159E-01 0.595E-04
CGA: 110    -0.358244041001E+03   -0.71508E-02   -0.76833E-02 10962   0.839E-02-0.271E-02
CGA: 111    -0.358247312414E+03   -0.32714E-02   -0.36001E-02 10962   0.795E-02-0.146E-02
CGA: 112    -0.358249955820E+03   -0.26434E-02   -0.28417E-02 10962   0.426E-02-0.155E-02
CGA: 113    -0.358251415362E+03   -0.14595E-02   -0.19143E-02 10962   0.433E-02-0.185E-02
CGA: 114    -0.358252338181E+03   -0.92282E-03   -0.10564E-02 10962   0.214E-02-0.127E-02
CGA: 115    -0.358252649634E+03   -0.31145E-03   -0.14060E-02 10962   0.638E-02-0.185E-02
CGA: 116    -0.358253966384E+03   -0.13168E-02   -0.14170E-02 10962   0.768E-03 0.699E-03
CGA: 117    -0.358254171195E+03   -0.20481E-03   -0.23557E-03 10962   0.390E-03 0.391E-03
CGA: 118    -0.358254269759E+03   -0.98564E-04   -0.11375E-03 10962   0.248E-03 0.256E-03
CGA: 119    -0.358254330324E+03   -0.60565E-04   -0.72427E-04 10962   0.195E-03 0.212E-03
CGA: 120    -0.358254384359E+03   -0.54035E-04   -0.60349E-04 10962   0.160E-03 0.174E-03
CGA: 121    -0.358254432669E+03   -0.48310E-04   -0.51559E-04 10962   0.135E-03 0.146E-03
CGA: 122    -0.358254478203E+03   -0.45534E-04   -0.45934E-04 10962   0.116E-03 0.124E-03
CGA: 123    -0.358254527286E+03   -0.49083E-04   -0.44655E-04 10962   0.102E-03 0.107E-03
CGA: 124    -0.358254568486E+03   -0.41200E-04   -0.38239E-04 10962   0.955E-04 0.924E-04
CGA: 125    -0.358254638060E+03   -0.69574E-04   -0.55593E-04 10962   0.183E-03 0.586E-04
CGA: 126    -0.358254650179E+03   -0.12120E-04   -0.24542E-04 10962   0.815E-04 0.552E-04
CGA: 127    -0.358254696748E+03   -0.46569E-04   -0.42368E-04 10962   0.181E-03 0.786E-04
CGA: 128    -0.358254751303E+03   -0.54555E-04   -0.48605E-04 10962   0.250E-03-0.739E-04
CGA: 129    -0.358254897606E+03   -0.14630E-03   -0.10529E-03 10962   0.494E-03 0.109E-03
CGA: 130    -0.358255033938E+03   -0.13633E-03   -0.15846E-03 10962   0.205E-03 0.155E-03
CGA: 131    -0.358254526162E+03    0.50778E-03   -0.31909E-03 10962   0.108E-01-0.623E-03
CGA: 132    -0.358255849009E+03   -0.13228E-02   -0.15117E-02 10962   0.448E-03 0.337E-03
CGA: 133    -0.358255944391E+03   -0.95381E-04   -0.10308E-03 10962   0.906E-04 0.169E-04
CGA: 134    -0.358255997141E+03   -0.52750E-04   -0.52424E-04 10962   0.185E-03 0.123E-04
CGA: 135    -0.358256085802E+03   -0.88662E-04   -0.94007E-04 10962   0.349E-03-0.241E-05
CGA: 136    -0.356293483716E+03    0.19626E+01   -0.79359E-03 10962   0.838E+01-0.251E+00
CGA: 137    -0.358216583565E+03   -0.19231E+01   -0.34114E+01 10962   0.161E+00-0.119E-02
CGA: 138    -0.358209972568E+03    0.66110E-02   -0.40184E-01 10962   0.184E+00 0.227E-01
CGA: 139    -0.357999902906E+03    0.21007E+00   -0.33576E-01 10962   0.587E+00 0.170E+00
CGA: 140    -0.358091786913E+03   -0.91884E-01   -0.18395E+00 10962   0.413E+00 0.161E+00
CGA: 141    -0.358019600472E+03    0.72186E-01   -0.11074E+00 10962   0.390E+00 0.307E+00
CGA: 142    -0.358120987250E+03   -0.10139E+00   -0.13128E+00 10962   0.331E+00 0.136E+00
CGA: 143    -0.358147537876E+03   -0.26551E-01   -0.11396E+00 10962   0.381E+00 0.218E+00
CGA: 144    -0.358240069476E+03   -0.92532E-01   -0.13669E+00 10962   0.600E-01 0.534E-01
CGA: 145    -0.358255326235E+03   -0.15257E-01   -0.20986E-01 10962   0.837E-02 0.110E-02
CGA: 146    -0.358256551233E+03   -0.12250E-02   -0.19153E-02 10962   0.208E-02 0.757E-03
CGA: 147    -0.358257177951E+03   -0.62672E-03   -0.77618E-03 10962   0.140E-02 0.175E-03
CGA: 148    -0.358257750558E+03   -0.57261E-03   -0.57632E-03 10962   0.614E-03-0.270E-03
CGA: 149    -0.358257779079E+03   -0.28521E-04   -0.95919E-04 10962   0.243E-03 0.161E-03
CGA: 150    -0.358257799166E+03   -0.20088E-04   -0.56707E-04 10962   0.200E-03 0.146E-03
CGA: 151    -0.357528313489E+03    0.72949E+00    0.81797E-01 10962   0.198E+01-0.128E+01
CGA: 152    -0.357587346529E+03   -0.59033E-01   -0.89016E+00 10962   0.452E+00-0.934E-01
CGA: 153    -0.357640790931E+03   -0.53444E-01   -0.10600E+00 10962   0.334E+00-0.263E+00
CGA: 154    -0.357756580892E+03   -0.11579E+00   -0.73006E-01 10962   0.954E+00 0.658E+00
CGA: 155    -0.357886756063E+03   -0.13018E+00   -0.29859E+00 10962   0.981E+00 0.353E+00
CGA: 156    -0.357974564382E+03   -0.87808E-01   -0.52343E+00 10962   0.398E-01 0.120E-01
CGA: 157    -0.357983107032E+03   -0.85426E-02   -0.10192E-01 10962   0.260E-01-0.108E-02
CGA: 158    -0.358141165084E+03   -0.15806E+00    0.27076E-02 10962   0.342E-01 0.994E-03
CGA: 159    -0.358225338761E+03   -0.84174E-01    0.19464E-01 10962   0.198E+00-0.629E-01
CGA: 160    -0.358254310789E+03   -0.28972E-01   -0.31217E-01 10962   0.413E-02 0.191E-02
CGA: 161    -0.358257177366E+03   -0.28666E-02   -0.28665E-02 10962   0.193E-02-0.114E-04
CGA: 162    -0.358258017490E+03   -0.84012E-03   -0.75787E-03 10962   0.784E-03-0.275E-03
CGA: 163    -0.358258177749E+03   -0.16026E-03   -0.19766E-03 10962   0.183E-03 0.103E-03
CGA: 164    -0.358258269877E+03   -0.92128E-04   -0.83393E-04 10962   0.874E-04-0.331E-04
CGA: 165    -0.358258316405E+03   -0.46527E-04   -0.50364E-04 10962   0.144E-03-0.637E-04
CGA: 166    -0.358258312846E+03    0.35588E-05   -0.24120E-04 10962   0.372E-04 0.579E-04
   1 F= -.35825831E+03 E0= -.35825831E+03  d E =-.358258E+03  mag=    12.0000
       N       E                     dE             d eps       ncg     rms          ort
SDA:   1    -0.358258250284E+03    0.66120E-04    0.00000E+00 10962   0.251E-02 0.000E+00
CGA:   2    -0.358258802763E+03   -0.55248E-03   -0.56735E-03 10962   0.150E-02 0.392E-04
CGA:   3    -0.358259035988E+03   -0.23322E-03   -0.24299E-03 10962   0.450E-03 0.227E-04
CGA:   4    -0.358259110752E+03   -0.74764E-04   -0.76547E-04 10962   0.119E-03 0.438E-05
CGA:   5    -0.358259132383E+03   -0.21631E-04   -0.22236E-04 10962   0.431E-04 0.163E-05
CGA:   6    -0.358259138923E+03   -0.65394E-05   -0.90307E-05 10962   0.229E-04 0.783E-05
   2 F= -.35825914E+03 E0= -.35825914E+03  d E =-.826077E-03  mag=    12.0000
       N       E                     dE             d eps       ncg     rms          ort
SDA:   1    -0.358242391767E+03    0.16741E-01    0.00000E+00 10962   0.539E-01 0.000E+00
CGA:   2    -0.358254167002E+03   -0.11775E-01   -0.11819E-01 10962   0.326E-01 0.144E-03
CGA:   3    -0.358259434733E+03   -0.52677E-02   -0.52867E-02 10962   0.946E-02 0.512E-04
CGA:   4    -0.358260994530E+03   -0.15598E-02   -0.15521E-02 10962   0.231E-02-0.285E-04
CGA:   5    -0.358261393577E+03   -0.39905E-03   -0.39291E-03 10962   0.605E-03-0.225E-04
CGA:   6    -0.358261506368E+03   -0.11279E-03   -0.11409E-03 10962   0.202E-03 0.518E-05
CGA:   7    -0.358261546228E+03   -0.39860E-04   -0.43531E-04 10962   0.764E-04 0.175E-04
CGA:   8    -0.358261562941E+03   -0.16713E-04   -0.19653E-04 10962   0.365E-04 0.167E-04
CGA:   9    -0.358261572762E+03   -0.98215E-05   -0.11661E-04 10962   0.224E-04 0.129E-04
   3 F= -.35826157E+03 E0= -.35826157E+03  d E =-.243384E-02  mag=    12.0000
       N       E                     dE             d eps       ncg     rms          ort
SDA:   1    -0.358167788806E+03    0.93774E-01    0.00000E+00 10962   0.287E+00 0.000E+00
CGA:   2    -0.358224719705E+03   -0.56931E-01   -0.57038E-01 10962   0.167E+00 0.459E-03
CGA:   3    -0.358252859059E+03   -0.28139E-01   -0.28183E-01 10962   0.517E-01 0.161E-03
CGA:   4    -0.358261152482E+03   -0.82934E-02   -0.82676E-02 10962   0.117E-01-0.139E-03
CGA:   5    -0.358263087866E+03   -0.19354E-02   -0.19181E-02 10962   0.280E-02-0.907E-04
CGA:   6    -0.358263598114E+03   -0.51025E-03   -0.51051E-03 10962   0.832E-03 0.879E-06
CGA:   7    -0.358263766382E+03   -0.16827E-03   -0.17275E-03 10962   0.260E-03 0.332E-04
CGA:   8    -0.358263825770E+03   -0.59388E-04   -0.62349E-04 10962   0.104E-03 0.283E-04
CGA:   9    -0.358263855650E+03   -0.29880E-04   -0.30950E-04 10962   0.502E-04 0.172E-04
CGA:  10    -0.358263872705E+03   -0.17055E-04   -0.17383E-04 10962   0.297E-04 0.109E-04
CGA:  11    -0.358263882707E+03   -0.10002E-04   -0.10430E-04 10962   0.191E-04 0.116E-04
CGA:  12    -0.358263891835E+03   -0.91280E-05   -0.89754E-05 10962   0.177E-04 0.104E-04
   4 F= -.35826389E+03 E0= -.35826389E+03  d E =-.231907E-02  mag=    12.0000
       N       E                     dE             d eps       ncg     rms          ort
SDA:   1    -0.358069204284E+03    0.19468E+00    0.00000E+00 10962   0.584E+00 0.000E+00
CGA:   2    -0.358185083204E+03   -0.11588E+00   -0.11601E+00 10962   0.344E+00 0.763E-03
CGA:   3    -0.358243212416E+03   -0.58129E-01   -0.58181E-01 10962   0.106E+00 0.243E-03
CGA:   4    -0.358259933958E+03   -0.16722E-01   -0.16684E-01 10962   0.234E-01-0.263E-03
CGA:   5    -0.358263775252E+03   -0.38413E-02   -0.38190E-02 10962   0.554E-02-0.156E-03
CGA:   6    -0.358264782590E+03   -0.10073E-02   -0.10069E-02 10962   0.159E-02-0.474E-05
CGA:   7    -0.358265110607E+03   -0.32802E-03   -0.33059E-03 10962   0.477E-03 0.288E-04
CGA:   8    -0.358265224450E+03   -0.11384E-03   -0.11494E-03 10962   0.189E-03 0.197E-04
CGA:   9    -0.358265279435E+03   -0.54984E-04   -0.55093E-04 10962   0.877E-04 0.111E-04
CGA:  10    -0.358265307321E+03   -0.27886E-04   -0.27785E-04 10962   0.444E-04 0.974E-05
CGA:  11    -0.358265320626E+03   -0.13306E-04   -0.13522E-04 10962   0.231E-04 0.140E-04
CGA:  12    -0.358265329903E+03   -0.92771E-05   -0.91411E-05 10962   0.178E-04 0.117E-04
   5 F= -.35826533E+03 E0= -.35826533E+03  d E =-.143807E-02  mag=    12.0000
       N       E                     dE             d eps       ncg     rms          ort
SDA:   1    -0.354134315469E+03    0.41310E+01    0.00000E+00 10962   0.119E+02 0.000E+00
CGA:   2    -0.356593460948E+03   -0.24591E+01   -0.24625E+01 10962   0.730E+01 0.909E-02
CGA:   3    -0.357810122097E+03   -0.12167E+01   -0.12172E+01 10962   0.215E+01 0.696E-02
CGA:   4    -0.358144056322E+03   -0.33393E+00   -0.33362E+00 10962   0.457E+00-0.815E-03
CGA:   5    -0.358218992618E+03   -0.74936E-01   -0.74893E-01 10962   0.109E+00-0.548E-03
CGA:   6    -0.358239131401E+03   -0.20139E-01   -0.20161E-01 10962   0.319E-01 0.207E-03
CGA:   7    -0.358245805631E+03   -0.66742E-02   -0.66783E-02 10962   0.955E-02 0.641E-04
CGA:   8    -0.358248108125E+03   -0.23025E-02   -0.23034E-02 10962   0.378E-02 0.358E-04
CGA:   9    -0.358249172802E+03   -0.10647E-02   -0.10649E-02 10962   0.161E-02-0.150E-04
CGA:  10    -0.358249662086E+03   -0.48928E-03   -0.49180E-03 10962   0.695E-03-0.613E-04
CGA:  11    -0.358249859578E+03   -0.19749E-03   -0.19743E-03 10962   0.259E-03 0.226E-05
CGA:  12    -0.358249955793E+03   -0.96215E-04   -0.10121E-03 10962   0.177E-03-0.416E-04
CGA:  13    -0.358250022143E+03   -0.66351E-04   -0.66730E-04 10962   0.159E-03-0.259E-05
CGA:  14    -0.358250097284E+03   -0.75141E-04   -0.68986E-04 10962   0.131E-03 0.382E-04
CGA:  15    -0.358250174764E+03   -0.77479E-04   -0.70155E-04 10962   0.100E-03 0.510E-04
CGA:  16    -0.358250233554E+03   -0.58790E-04   -0.53320E-04 10962   0.703E-04 0.632E-04
CGA:  17    -0.358250265795E+03   -0.32241E-04   -0.30733E-04 10962   0.405E-04 0.110E-04
CGA:  18    -0.358250278272E+03   -0.12478E-04   -0.13340E-04 10962   0.307E-04 0.357E-04
CGA:  19    -0.358250299162E+03   -0.20890E-04   -0.17202E-04 10962   0.285E-04 0.145E-04
CGA:  20    -0.358250306854E+03   -0.76917E-05   -0.10417E-04 10962   0.251E-04 0.378E-04
CGA:  21    -0.358250338793E+03   -0.31939E-04   -0.37963E-04 10962   0.119E-03-0.534E-05
CGA:  22    -0.358250352294E+03   -0.13502E-04   -0.22664E-04 10962   0.120E-03 0.682E-04
CGA:  23    -0.358250389867E+03   -0.37573E-04   -0.38432E-04 10962   0.179E-04 0.175E-04
CGA:  24    -0.358250406968E+03   -0.17101E-04   -0.14372E-04 10962   0.245E-04 0.809E-05
CGA:  25    -0.358250429197E+03   -0.22229E-04   -0.18288E-04 10962   0.259E-04 0.299E-04
CGA:  26    -0.358250346584E+03    0.82613E-04   -0.47232E-04 10962   0.675E-03-0.733E-04
CGA:  27    -0.358250422807E+03   -0.76223E-04   -0.12530E-03 10962   0.128E-03 0.924E-04
CGA:  28    -0.358250484066E+03   -0.61260E-04   -0.55326E-04 10962   0.271E-04-0.195E-04
CGA:  29    -0.358250500949E+03   -0.16883E-04   -0.18638E-04 10962   0.646E-04-0.126E-04
CGA:  30    -0.358250497146E+03    0.38036E-05   -0.64027E-05 10962   0.598E-04 0.206E-04
CGA:  31    -0.358250498620E+03   -0.14747E-05   -0.16844E-04 10962   0.366E-04 0.347E-04
CGA:  32    -0.358248976368E+03    0.15223E-02   -0.83438E-03 10962   0.103E-01-0.489E-03
CGA:  33    -0.358250381194E+03   -0.14048E-02   -0.17132E-02 10962   0.420E-03 0.254E-03
CGA:  34    -0.358250533926E+03   -0.15273E-03   -0.14936E-03 10962   0.565E-04-0.568E-05
CGA:  35    -0.358250573937E+03   -0.40011E-04   -0.29996E-04 10962   0.418E-04-0.170E-04
CGA:  36    -0.358250562174E+03    0.11764E-04   -0.42541E-05 10962   0.241E-04 0.123E-04
CGA:  37    -0.358250549649E+03    0.12525E-04   -0.38638E-05 10962   0.375E-04 0.241E-04
CGA:  38    -0.358250563426E+03   -0.13778E-04   -0.19780E-04 10962   0.295E-04 0.918E-05
CGA:  39    -0.358250511620E+03    0.51806E-04   -0.57485E-05 10962   0.133E-03 0.505E-04
CGA:  40    -0.358250502847E+03    0.87725E-05   -0.49184E-04 10962   0.103E-03 0.477E-04
CGA:  41    -0.358250481120E+03    0.21727E-04   -0.40358E-04 10962   0.267E-03 0.155E-03
CGA:  42    -0.358250545498E+03   -0.64378E-04   -0.13419E-03 10962   0.562E-04 0.341E-04
CGA:  43    -0.358250534535E+03    0.10963E-04   -0.19339E-04 10962   0.115E-03 0.534E-04
CGA:  44    -0.358250577918E+03   -0.43383E-04   -0.61959E-04 10962   0.185E-04 0.230E-04
CGA:  45    -0.358250579601E+03   -0.16827E-05   -0.68057E-05 10962   0.578E-05 0.796E-05
CGA:  46    -0.358250593499E+03   -0.13898E-04    0.28196E-04 10962   0.579E-05 0.252E-05
CGA:  47    -0.358250590815E+03    0.26845E-05   -0.14239E-05 10962   0.341E-05 0.720E-05
   6 F= -.35825059E+03 E0= -.35825059E+03  d E =0.147391E-01  mag=    12.0000
       N       E                     dE             d eps       ncg     rms          ort
SDA:   1    -0.357252190899E+03    0.99840E+00    0.00000E+00 10962   0.256E+01 0.000E+00
CGA:   2    -0.357911376483E+03   -0.65919E+00   -0.65965E+00 10962   0.170E+01 0.874E-03
CGA:   3    -0.358161453812E+03   -0.25008E+00   -0.25025E+00 10962   0.410E+00 0.659E-02
CGA:   4    -0.358225624674E+03   -0.64171E-01   -0.64053E-01 10962   0.890E-01 0.209E-03
CGA:   5    -0.358240473696E+03   -0.14849E-01   -0.14790E-01 10962   0.226E-01-0.115E-03
CGA:   6    -0.358244758182E+03   -0.42845E-02   -0.42811E-02 10962   0.684E-02-0.120E-04
CGA:   7    -0.358246181608E+03   -0.14234E-02   -0.14241E-02 10962   0.212E-02 0.112E-05
CGA:   8    -0.358246710839E+03   -0.52923E-03   -0.53027E-03 10962   0.900E-03 0.324E-05
CGA:   9    -0.358246967414E+03   -0.25658E-03   -0.25599E-03 10962   0.385E-03-0.226E-05
CGA:  10    -0.358247086718E+03   -0.11930E-03   -0.11590E-03 10962   0.155E-03-0.146E-04
CGA:  11    -0.358247134776E+03   -0.48059E-04   -0.46048E-04 10962   0.605E-04-0.940E-05
CGA:  12    -0.358247158340E+03   -0.23564E-04   -0.22471E-04 10962   0.427E-04-0.942E-05
CGA:  13    -0.358247178786E+03   -0.20446E-04   -0.21337E-04 10962   0.583E-04-0.106E-04
CGA:  14    -0.358247205174E+03   -0.26388E-04   -0.27161E-04 10962   0.685E-04-0.762E-05
CGA:  15    -0.358247236631E+03   -0.31456E-04   -0.31550E-04 10962   0.556E-04-0.756E-05
CGA:  16    -0.358247257255E+03   -0.20624E-04   -0.20869E-04 10962   0.331E-04 0.187E-05
CGA:  17    -0.358247273511E+03   -0.16256E-04   -0.16263E-04 10962   0.254E-04-0.182E-06
CGA:  18    -0.358247278596E+03   -0.50848E-05   -0.74328E-05 10962   0.149E-04 0.108E-04
   7 F= -.35824728E+03 E0= -.35824728E+03  d E =0.331222E-02  mag=    12.0000
       N       E                     dE             d eps       ncg     rms          ort
SDA:   1    -0.357435520708E+03    0.81175E+00    0.00000E+00 10962   0.255E+01 0.000E+00
CGA:   2    -0.357910900789E+03   -0.47538E+00   -0.47618E+00 10962   0.145E+01-0.198E-02
CGA:   3    -0.358163656279E+03   -0.25276E+00   -0.25263E+00 10962   0.475E+00 0.502E-03
CGA:   4    -0.358237889138E+03   -0.74233E-01   -0.74225E-01 10962   0.103E+00 0.470E-03
CGA:   5    -0.358254557921E+03   -0.16669E-01   -0.16772E-01 10962   0.242E-01 0.322E-03
CGA:   6    -0.358258916427E+03   -0.43585E-02   -0.43842E-02 10962   0.682E-02 0.957E-04
CGA:   7    -0.358260371668E+03   -0.14552E-02   -0.14476E-02 10962   0.207E-02-0.381E-04
CGA:   8    -0.358260857646E+03   -0.48598E-03   -0.48397E-03 10962   0.774E-03-0.119E-04
CGA:   9    -0.358261069023E+03   -0.21138E-03   -0.21061E-03 10962   0.312E-03-0.626E-05
CGA:  10    -0.358261163478E+03   -0.94455E-04   -0.93322E-04 10962   0.131E-03-0.123E-04
CGA:  11    -0.358261204096E+03   -0.40618E-04   -0.39882E-04 10962   0.518E-04-0.101E-04
CGA:  12    -0.358261224221E+03   -0.20125E-04   -0.22184E-04 10962   0.488E-04-0.261E-04
CGA:  13    -0.358261233620E+03   -0.93990E-05   -0.10294E-04 10962   0.986E-05 0.501E-05
CGA:  14    -0.358261160909E+03    0.72711E-04   -0.39189E-04 10962   0.361E-03-0.472E-04
CGA:  15    -0.358261244694E+03   -0.83785E-04   -0.87358E-04 10962   0.537E-04 0.782E-05
CGA:  16    -0.358261265337E+03   -0.20643E-04   -0.17822E-04 10962   0.134E-04-0.817E-05
CGA:  17    -0.358261264478E+03    0.85884E-06   -0.18372E-05 10962   0.505E-05 0.548E-05
   8 F= -.35826126E+03 E0= -.35826126E+03  d E =-.139859E-01  mag=    12.0000
       N       E                     dE             d eps       ncg     rms          ort
SDA:   1    -0.358083919970E+03    0.17735E+00    0.00000E+00 10962   0.519E+00 0.000E+00
CGA:   2    -0.358191293525E+03   -0.10737E+00   -0.10742E+00 10962   0.315E+00-0.980E-04
CGA:   3    -0.358243665664E+03   -0.52372E-01   -0.52363E-01 10962   0.965E-01 0.670E-04
CGA:   4    -0.358258693311E+03   -0.15028E-01   -0.15016E-01 10962   0.211E-01 0.321E-04
CGA:   5    -0.358262179944E+03   -0.34866E-02   -0.34984E-02 10962   0.512E-02 0.284E-04
CGA:   6    -0.358263131708E+03   -0.95176E-03   -0.95341E-03 10962   0.154E-02 0.426E-05
CGA:   7    -0.358263466908E+03   -0.33520E-03   -0.33076E-03 10962   0.490E-03-0.151E-04
CGA:   8    -0.358263585458E+03   -0.11855E-03   -0.11739E-03 10962   0.192E-03-0.460E-05
CGA:   9    -0.358263636916E+03   -0.51458E-04   -0.51414E-04 10962   0.752E-04-0.204E-06
CGA:  10    -0.358263660091E+03   -0.23175E-04   -0.22570E-04 10962   0.304E-04-0.354E-05
CGA:  11    -0.358263670849E+03   -0.10758E-04   -0.10071E-04 10962   0.145E-04-0.597E-05
CGA:  12    -0.358263676295E+03   -0.54467E-05   -0.64097E-05 10962   0.215E-04-0.102E-04
   9 F= -.35826368E+03 E0= -.35826368E+03  d E =-.241182E-02  mag=    12.0000
       N       E                     dE             d eps       ncg     rms          ort
SDA:   1    -0.357481679429E+03    0.78199E+00    0.00000E+00 10962   0.192E+01 0.000E+00
CGA:   2    -0.358052321602E+03   -0.57064E+00   -0.57074E+00 10962   0.111E+01 0.220E-03
CGA:   3    -0.358206080250E+03   -0.15376E+00   -0.15382E+00 10962   0.270E+00 0.741E-03
CGA:   4    -0.358248746070E+03   -0.42666E-01   -0.42590E-01 10962   0.575E-01-0.249E-03
CGA:   5    -0.358258337227E+03   -0.95912E-02   -0.95582E-02 10962   0.149E-01-0.140E-03
CGA:   6    -0.358261213535E+03   -0.28763E-02   -0.28712E-02 10962   0.441E-02-0.266E-04
CGA:   7    -0.358262119059E+03   -0.90552E-03   -0.90191E-03 10962   0.135E-02-0.197E-04
CGA:   8    -0.358262470015E+03   -0.35096E-03   -0.34915E-03 10962   0.608E-03-0.147E-04
CGA:   9    -0.358262644859E+03   -0.17484E-03   -0.17369E-03 10962   0.267E-03-0.134E-04
CGA:  10    -0.358262728794E+03   -0.83935E-04   -0.82537E-04 10962   0.111E-03-0.258E-04
CGA:  11    -0.358262762574E+03   -0.33780E-04   -0.32943E-04 10962   0.456E-04-0.213E-04
CGA:  12    -0.358262777483E+03   -0.14908E-04   -0.16091E-04 10962   0.367E-04-0.168E-04
CGA:  13    -0.358262786757E+03   -0.92745E-05   -0.16296E-04 10962   0.666E-04-0.212E-04
CGA:  14    -0.358262803107E+03   -0.16350E-04   -0.16731E-04 10962   0.145E-04 0.281E-05
CGA:  15    -0.358262810469E+03   -0.73613E-05   -0.79280E-05 10962   0.128E-04-0.392E-05
  10 F= -.35826281E+03 E0= -.35826281E+03  d E =0.865827E-03  mag=    12.0000
       N       E                     dE             d eps       ncg     rms          ort
SDA:   1    -0.348720037396E+03    0.95428E+01    0.00000E+00 10962   0.252E+02 0.000E+00
CGA:   2    -0.354316358603E+03   -0.55963E+01   -0.56162E+01 10962   0.149E+02-0.707E-02
CGA:   3    -0.356710180439E+03   -0.23938E+01   -0.23933E+01 10962   0.452E+01 0.742E-01
CGA:   4    -0.357456507333E+03   -0.74633E+00   -0.74572E+00 10962   0.110E+01 0.882E-02
CGA:   5    -0.357644908482E+03   -0.18840E+00   -0.18876E+00 10962   0.302E+00 0.569E-03
CGA:   6    -0.357703549237E+03   -0.58641E-01   -0.58757E-01 10962   0.980E-01 0.603E-03
CGA:   7    -0.357725383938E+03   -0.21835E-01   -0.21878E-01 10962   0.380E-01 0.365E-03
CGA:   8    -0.357734957332E+03   -0.95734E-02   -0.96168E-02 10962   0.151E-01 0.526E-03
CGA:   9    -0.357739078140E+03   -0.41208E-02   -0.41394E-02 10962   0.605E-02 0.309E-03
CGA:  10    -0.357740812144E+03   -0.17340E-02   -0.17351E-02 10962   0.227E-02 0.236E-04
CGA:  11    -0.357741516667E+03   -0.70452E-03   -0.70468E-03 10962   0.993E-03 0.955E-05
CGA:  12    -0.357741897516E+03   -0.38085E-03   -0.38391E-03 10962   0.746E-03-0.506E-04
CGA:  13    -0.357742255408E+03   -0.35789E-03   -0.35469E-03 10962   0.797E-03 0.192E-04
CGA:  14    -0.357742734518E+03   -0.47911E-03   -0.45986E-03 10962   0.883E-03 0.873E-04
CGA:  15    -0.357743235484E+03   -0.50097E-03   -0.47860E-03 10962   0.732E-03 0.155E-03
CGA:  16    -0.357743614703E+03   -0.37922E-03   -0.36413E-03 10962   0.473E-03 0.215E-03
CGA:  17    -0.357743911828E+03   -0.29712E-03   -0.28271E-03 10962   0.355E-03 0.133E-03
CGA:  18    -0.357744117843E+03   -0.20602E-03   -0.19551E-03 10962   0.257E-03 0.152E-03
CGA:  19    -0.357744311267E+03   -0.19342E-03   -0.18070E-03 10962   0.216E-03 0.944E-04
CGA:  20    -0.357744465758E+03   -0.15449E-03   -0.14395E-03 10962   0.174E-03 0.841E-04
CGA:  21    -0.357744639857E+03   -0.17410E-03   -0.21633E-03 10962   0.470E-03-0.963E-04
CGA:  22    -0.357744729085E+03   -0.89227E-04   -0.10510E-03 10962   0.128E-03 0.876E-04
CGA:  23    -0.357744803207E+03   -0.74122E-04   -0.83224E-04 10962   0.192E-03-0.603E-04
CGA:  24    -0.357744827954E+03   -0.24747E-04   -0.27313E-04 10962   0.196E-03 0.189E-04
CGA:  25    -0.357744881270E+03   -0.53315E-04   -0.58988E-04 10962   0.154E-03 0.460E-04
CGA:  26    -0.357744974120E+03   -0.92851E-04   -0.10813E-03 10962   0.259E-03-0.879E-04
CGA:  27    -0.357745036916E+03   -0.62796E-04   -0.70084E-04 10962   0.521E-04 0.567E-04
CGA:  28    -0.357745061010E+03   -0.24094E-04   -0.54332E-04 10962   0.268E-03-0.657E-04
CGA:  29    -0.357745085047E+03   -0.24037E-04   -0.41966E-04 10962   0.505E-04 0.690E-04
CGA:  30    -0.357745103511E+03   -0.18464E-04   -0.19303E-04 10962   0.321E-04 0.845E-05
CGA:  31    -0.357745138955E+03   -0.35445E-04    0.39250E-04 10962   0.566E-04-0.256E-05
CGA:  32    -0.357745181742E+03   -0.42787E-04    0.31925E-03 10962   0.109E-03 0.326E-04
CGA:  33    -0.357745185910E+03   -0.41677E-05   -0.15932E-04 10962   0.339E-04 0.468E-04
  11 F= -.35774519E+03 E0= -.35774519E+03  d E =0.517625E+00  mag=    12.0000
       N       E                     dE             d eps       ncg     rms          ort
SDA:   1    -0.356316063094E+03    0.14291E+01    0.00000E+00 10962   0.446E+01 0.000E+00
CGA:   2    -0.357757992642E+03   -0.14419E+01   -0.14412E+01 10962   0.143E+01-0.799E-02
CGA:   3    -0.358087843615E+03   -0.32985E+00   -0.32996E+00 10962   0.457E+00-0.240E-03
CGA:   4    -0.358153143345E+03   -0.65300E-01   -0.65299E-01 10962   0.138E+00 0.231E-04
CGA:   5    -0.358181617606E+03   -0.28474E-01   -0.28445E-01 10962   0.393E-01-0.142E-03
CGA:   6    -0.358189816360E+03   -0.81988E-02   -0.81557E-02 10962   0.186E-01-0.310E-03
CGA:   7    -0.358194505930E+03   -0.46896E-02   -0.46509E-02 10962   0.737E-02-0.441E-03
CGA:   8    -0.358196353498E+03   -0.18476E-02   -0.18277E-02 10962   0.319E-02-0.244E-03
CGA:   9    -0.358197185284E+03   -0.83179E-03   -0.82565E-03 10962   0.109E-02-0.954E-04
CGA:  10    -0.358197470065E+03   -0.28478E-03   -0.28518E-03 10962   0.374E-03 0.648E-05
CGA:  11    -0.358197580872E+03   -0.11081E-03   -0.11129E-03 10962   0.165E-03 0.161E-04
CGA:  12    -0.358197645561E+03   -0.64689E-04   -0.63931E-04 10962   0.117E-03 0.158E-04
CGA:  13    -0.358197703792E+03   -0.58230E-04   -0.55653E-04 10962   0.105E-03 0.235E-04
CGA:  14    -0.358197778319E+03   -0.74527E-04   -0.73526E-04 10962   0.128E-03 0.252E-05
CGA:  15    -0.358197855968E+03   -0.77649E-04   -0.86210E-04 10962   0.163E-03-0.315E-04
CGA:  16    -0.358197913309E+03   -0.57342E-04   -0.64236E-04 10962   0.143E-03-0.494E-04
CGA:  17    -0.358197947732E+03   -0.34423E-04   -0.34368E-04 10962   0.945E-04-0.639E-05
CGA:  18    -0.358197989552E+03   -0.41820E-04   -0.44971E-04 10962   0.947E-04-0.268E-04
CGA:  19    -0.358198017069E+03   -0.27517E-04   -0.27640E-04 10962   0.783E-04-0.572E-05
CGA:  20    -0.358198037861E+03   -0.20792E-04   -0.21881E-04 10962   0.464E-04 0.130E-04
CGA:  21    -0.358198051794E+03   -0.13933E-04   -0.15399E-04 10962   0.301E-04 0.165E-04
CGA:  22    -0.358198062984E+03   -0.11190E-04   -0.12241E-04 10962   0.221E-04 0.155E-04
CGA:  23    -0.358198077579E+03   -0.14595E-04   -0.21298E-04 10962   0.524E-04-0.112E-04
CGA:  24    -0.358198090746E+03   -0.13167E-04   -0.13527E-04 10962   0.153E-04 0.267E-05
CGA:  25    -0.358198095481E+03   -0.47350E-05   -0.49949E-05 10962   0.969E-05 0.343E-05
CGA:  26    -0.358198105141E+03   -0.96600E-05    0.35783E-04 10962   0.932E-05 0.762E-05
  12 F= -.35819811E+03 E0= -.35819811E+03  d E =-.452919E+00  mag=    12.0000
       N       E                     dE             d eps       ncg     rms          ort
SDA:   1    -0.358122505180E+03    0.75590E-01    0.00000E+00 10962   0.294E+00 0.000E+00
CGA:   2    -0.358214034853E+03   -0.91530E-01   -0.91489E-01 10962   0.117E+00-0.500E-03
CGA:   3    -0.358235101494E+03   -0.21067E-01   -0.21072E-01 10962   0.473E-01-0.993E-05
CGA:   4    -0.358242141805E+03   -0.70403E-02   -0.70511E-02 10962   0.105E-01 0.396E-04
CGA:   5    -0.358244233861E+03   -0.20921E-02   -0.20924E-02 10962   0.366E-02 0.136E-05
CGA:   6    -0.358244957844E+03   -0.72398E-03   -0.71678E-03 10962   0.132E-02-0.414E-04
CGA:   7    -0.358245318446E+03   -0.36060E-03   -0.35383E-03 10962   0.675E-03-0.753E-04
CGA:   8    -0.358245487956E+03   -0.16951E-03   -0.16397E-03 10962   0.282E-03-0.556E-04
CGA:   9    -0.358245568932E+03   -0.80976E-04   -0.79462E-04 10962   0.134E-03-0.331E-04
CGA:  10    -0.358245605104E+03   -0.36172E-04   -0.35554E-04 10962   0.633E-04-0.123E-04
CGA:  11    -0.358245627698E+03   -0.22593E-04   -0.22924E-04 10962   0.502E-04-0.664E-05
CGA:  12    -0.358245648394E+03   -0.20696E-04   -0.44201E-04 10962   0.205E-03-0.378E-04
CGA:  13    -0.358245700033E+03   -0.51640E-04   -0.50980E-04 10962   0.457E-04-0.504E-05
CGA:  14    -0.358245718513E+03   -0.18479E-04   -0.35734E-04 10962   0.134E-03-0.407E-04
CGA:  15    -0.358245745616E+03   -0.27103E-04   -0.28288E-04 10962   0.233E-04 0.630E-05
CGA:  16    -0.358245757049E+03   -0.11433E-04   -0.19299E-04 10962   0.811E-04-0.196E-04
CGA:  17    -0.358245770011E+03   -0.12962E-04   -0.15234E-04 10962   0.193E-04 0.103E-04
CGA:  18    -0.358245722171E+03    0.47840E-04   -0.38833E-04 10962   0.355E-03-0.626E-04
CGA:  19    -0.358245816209E+03   -0.94038E-04   -0.98298E-04 10962   0.588E-04 0.225E-04
CGA:  20    -0.358245838910E+03   -0.22701E-04   -0.19231E-04 10962   0.341E-04-0.233E-04
CGA:  21    -0.358245844358E+03   -0.54473E-05   -0.63595E-05 10962   0.169E-04 0.652E-05
CGA:  22    -0.358245855714E+03   -0.11357E-04   -0.11263E-04 10962   0.424E-04 0.773E-06
CGA:  23    -0.358245897162E+03   -0.41448E-04    0.22582E-03 10962   0.523E-04 0.149E-05
CGA:  24    -0.358245956744E+03   -0.59582E-04    0.53102E-04 10962   0.995E-04 0.165E-04
CGA:  25    -0.358246018646E+03   -0.61902E-04   -0.12674E-03 10962   0.338E-03-0.117E-03
CGA:  26    -0.358246117573E+03   -0.98927E-04   -0.93305E-04 10962   0.840E-04-0.285E-04
CGA:  27    -0.358246124076E+03   -0.65023E-05   -0.11755E-04 10962   0.725E-05 0.168E-04
  13 F= -.35824612E+03 E0= -.35824612E+03  d E =-.480189E-01  mag=    12.0000
       N       E                     dE             d eps       ncg     rms          ort
SDA:   1    -0.358011204484E+03    0.23491E+00    0.00000E+00 10962   0.641E+00 0.000E+00
CGA:   2    -0.358190676233E+03   -0.17947E+00   -0.17943E+00 10962   0.339E+00-0.780E-03
CGA:   3    -0.358243200443E+03   -0.52524E-01   -0.52540E-01 10962   0.115E+00-0.142E-04
CGA:   4    -0.358261991111E+03   -0.18791E-01   -0.18824E-01 10962   0.273E-01 0.145E-03
CGA:   5    -0.358266946351E+03   -0.49552E-02   -0.49692E-02 10962   0.869E-02 0.627E-04
CGA:   6    -0.358268688655E+03   -0.17423E-02   -0.17378E-02 10962   0.297E-02-0.246E-04
CGA:   7    -0.358269427174E+03   -0.73852E-03   -0.72801E-03 10962   0.141E-02-0.803E-04
CGA:   8    -0.358269791961E+03   -0.36479E-03   -0.35748E-03 10962   0.562E-03-0.655E-04
CGA:   9    -0.358269947035E+03   -0.15507E-03   -0.15273E-03 10962   0.238E-03-0.292E-04
CGA:  10    -0.358270011331E+03   -0.64296E-04   -0.63618E-04 10962   0.909E-04-0.844E-05
CGA:  11    -0.358270039518E+03   -0.28187E-04   -0.28274E-04 10962   0.463E-04 0.257E-05
CGA:  12    -0.358270061314E+03   -0.21796E-04   -0.21885E-04 10962   0.497E-04-0.748E-06
CGA:  13    -0.358270092950E+03   -0.31636E-04   -0.35091E-04 10962   0.986E-04-0.928E-05
CGA:  14    -0.358270142348E+03   -0.49399E-04   -0.56850E-04 10962   0.159E-03-0.221E-04
CGA:  15    -0.358270200301E+03   -0.57952E-04   -0.62496E-04 10962   0.161E-03-0.413E-04
CGA:  16    -0.358270250734E+03   -0.50434E-04   -0.51613E-04 10962   0.124E-03-0.400E-04
CGA:  17    -0.358270287619E+03   -0.36885E-04   -0.36718E-04 10962   0.845E-04-0.197E-04
CGA:  18    -0.358270311767E+03   -0.24148E-04   -0.24197E-04 10962   0.550E-04-0.775E-06
CGA:  19    -0.358270329844E+03   -0.18077E-04   -0.18476E-04 10962   0.344E-04 0.596E-05
CGA:  20    -0.358270340651E+03   -0.10807E-04   -0.11653E-04 10962   0.210E-04 0.913E-05
CGA:  21    -0.358270345960E+03   -0.53089E-05   -0.67280E-05 10962   0.116E-04 0.103E-04
  14 F= -.35827035E+03 E0= -.35827035E+03  d E =-.242219E-01  mag=    12.0000
       N       E                     dE             d eps       ncg     rms          ort
SDA:   1    -0.358258895948E+03    0.11445E-01    0.00000E+00 10962   0.448E-01 0.000E+00
CGA:   2    -0.358267257523E+03   -0.83616E-02   -0.83267E-02 10962   0.253E-01-0.201E-03
CGA:   3    -0.358271618058E+03   -0.43605E-02   -0.43453E-02 10962   0.848E-02-0.871E-04
CGA:   4    -0.358272943959E+03   -0.13259E-02   -0.13353E-02 10962   0.198E-02 0.453E-04
CGA:   5    -0.358273264403E+03   -0.32044E-03   -0.32922E-03 10962   0.477E-03 0.481E-04
CGA:   6    -0.358273351632E+03   -0.87229E-04   -0.89106E-04 10962   0.138E-03 0.119E-04
CGA:   7    -0.358273386881E+03   -0.35250E-04   -0.34151E-04 10962   0.597E-04-0.124E-04
CGA:   8    -0.358273403264E+03   -0.16383E-04   -0.15985E-04 10962   0.347E-04-0.127E-04
CGA:   9    -0.358273411257E+03   -0.79926E-05   -0.78063E-05 10962   0.161E-04-0.487E-05
  15 F= -.35827341E+03 E0= -.35827341E+03  d E =-.306530E-02  mag=    12.0000
       N       E                     dE             d eps       ncg     rms          ort
SDA:   1    -0.358241793183E+03    0.31610E-01    0.00000E+00 10962   0.114E+00 0.000E+00
CGA:   2    -0.358262313909E+03   -0.20521E-01   -0.20492E-01 10962   0.622E-01-0.254E-03
CGA:   3    -0.358273257787E+03   -0.10944E-01   -0.10935E-01 10962   0.218E-01-0.889E-04
CGA:   4    -0.358276713154E+03   -0.34554E-02   -0.34670E-02 10962   0.509E-02 0.740E-04
CGA:   5    -0.358277546625E+03   -0.83347E-03   -0.84290E-03 10962   0.123E-02 0.691E-04
CGA:   6    -0.358277773261E+03   -0.22664E-03   -0.22871E-03 10962   0.355E-03 0.187E-04
CGA:   7    -0.358277854998E+03   -0.81738E-04   -0.81220E-04 10962   0.133E-03-0.847E-05
CGA:   8    -0.358277887533E+03   -0.32535E-04   -0.32495E-04 10962   0.552E-04-0.122E-05
CGA:   9    -0.358277901175E+03   -0.13642E-04   -0.13792E-04 10962   0.214E-04 0.488E-05
CGA:  10    -0.358277907774E+03   -0.65981E-05   -0.65917E-05 10962   0.971E-05 0.254E-05
  16 F= -.35827791E+03 E0= -.35827791E+03  d E =-.449652E-02  mag=    12.0000
       N       E                     dE             d eps       ncg     rms          ort
SDA:   1    -0.358258995579E+03    0.18906E-01    0.00000E+00 10962   0.712E-01 0.000E+00
CGA:   2    -0.358270996392E+03   -0.12001E-01   -0.11980E-01 10962   0.361E-01-0.209E-03
CGA:   3    -0.358277500656E+03   -0.65043E-02   -0.64985E-02 10962   0.135E-01-0.761E-04
CGA:   4    -0.358279655312E+03   -0.21547E-02   -0.21618E-02 10962   0.310E-02 0.598E-04
CGA:   5    -0.358280157191E+03   -0.50188E-03   -0.50764E-03 10962   0.705E-03 0.550E-04
CGA:   6    -0.358280284995E+03   -0.12780E-03   -0.12914E-03 10962   0.197E-03 0.162E-04
CGA:   7    -0.358280329740E+03   -0.44744E-04   -0.44622E-04 10962   0.697E-04-0.346E-05
CGA:   8    -0.358280346524E+03   -0.16785E-04   -0.16795E-04 10962   0.294E-04 0.997E-06
CGA:   9    -0.358280354173E+03   -0.76488E-05   -0.76445E-05 10962   0.128E-04 0.382E-05
  17 F= -.35828035E+03 E0= -.35828035E+03  d E =-.244640E-02  mag=    12.0000
       N       E                     dE             d eps       ncg     rms          ort
SDA:   1    -0.358023233497E+03    0.25711E+00    0.00000E+00 10962   0.913E+00 0.000E+00
CGA:   2    -0.358169605813E+03   -0.14637E+00   -0.14640E+00 10962   0.433E+00-0.559E-03
CGA:   3    -0.358249563072E+03   -0.79957E-01   -0.79951E-01 10962   0.172E+00-0.290E-03
CGA:   4    -0.358277623514E+03   -0.28060E-01   -0.28072E-01 10962   0.396E-01 0.113E-03
CGA:   5    -0.358283995787E+03   -0.63723E-02   -0.63947E-02 10962   0.895E-02 0.256E-03
CGA:   6    -0.358285585775E+03   -0.15900E-02   -0.15992E-02 10962   0.241E-02 0.141E-03
CGA:   7    -0.358286095707E+03   -0.50993E-03   -0.51074E-03 10962   0.735E-03 0.267E-04
CGA:   8    -0.358286268193E+03   -0.17249E-03   -0.17262E-03 10962   0.270E-03 0.260E-04
CGA:   9    -0.358286337468E+03   -0.69275E-04   -0.68974E-04 10962   0.101E-03 0.306E-04
CGA:  10    -0.358286367910E+03   -0.30442E-04   -0.29929E-04 10962   0.426E-04 0.183E-04
CGA:  11    -0.358286381325E+03   -0.13415E-04   -0.13138E-04 10962   0.185E-04 0.122E-04
CGA:  12    -0.358286387504E+03   -0.61793E-05   -0.60675E-05 10962   0.882E-05 0.737E-05
  18 F= -.35828639E+03 E0= -.35828639E+03  d E =-.603333E-02  mag=    12.0000
       N       E                     dE             d eps       ncg     rms          ort
SDA:   1    -0.358119212875E+03    0.16717E+00    0.00000E+00 10962   0.570E+00 0.000E+00
CGA:   2    -0.358219218086E+03   -0.10001E+00   -0.99954E-01 10962   0.289E+00-0.978E-03
CGA:   3    -0.358269796273E+03   -0.50578E-01   -0.50564E-01 10962   0.104E+00-0.287E-03
CGA:   4    -0.358286913909E+03   -0.17118E-01   -0.17139E-01 10962   0.241E-01 0.264E-03
CGA:   5    -0.358290760987E+03   -0.38471E-02   -0.38641E-02 10962   0.535E-02 0.216E-03
CGA:   6    -0.358291734776E+03   -0.97379E-03   -0.97802E-03 10962   0.155E-02 0.796E-04
CGA:   7    -0.358292076411E+03   -0.34163E-03   -0.34146E-03 10962   0.508E-03-0.138E-04
CGA:   8    -0.358292201335E+03   -0.12492E-03   -0.12515E-03 10962   0.216E-03-0.120E-04
CGA:   9    -0.358292259818E+03   -0.58483E-04   -0.58403E-04 10962   0.943E-04 0.170E-05
CGA:  10    -0.358292289123E+03   -0.29305E-04   -0.29426E-04 10962   0.443E-04-0.161E-05
CGA:  11    -0.358292302406E+03   -0.13282E-04   -0.13097E-04 10962   0.189E-04 0.292E-05
CGA:  12    -0.358292308900E+03   -0.64942E-05   -0.63224E-05 10962   0.971E-05 0.234E-05
  19 F= -.35829231E+03 E0= -.35829231E+03  d E =-.592140E-02  mag=    12.0000
       N       E                     dE             d eps       ncg     rms          ort
SDA:   1    -0.358191684520E+03    0.10062E+00    0.00000E+00 10962   0.324E+00 0.000E+00
CGA:   2    -0.358256032231E+03   -0.64348E-01   -0.64289E-01 10962   0.178E+00-0.108E-02
CGA:   3    -0.358285529363E+03   -0.29497E-01   -0.29486E-01 10962   0.583E-01-0.152E-03
CGA:   4    -0.358294925686E+03   -0.93963E-02   -0.94229E-02 10962   0.129E-01 0.288E-03
CGA:   5    -0.358296977706E+03   -0.20520E-02   -0.20651E-02 10962   0.294E-02 0.148E-03
CGA:   6    -0.358297533883E+03   -0.55618E-03   -0.55792E-03 10962   0.884E-03 0.312E-04
CGA:   7    -0.358297734626E+03   -0.20074E-03   -0.20021E-03 10962   0.312E-03-0.339E-04
CGA:   8    -0.358297814345E+03   -0.79720E-04   -0.80563E-04 10962   0.153E-03-0.284E-04
CGA:   9    -0.358297854212E+03   -0.39866E-04   -0.40440E-04 10962   0.698E-04-0.115E-04
CGA:  10    -0.358297874146E+03   -0.19934E-04   -0.20571E-04 10962   0.318E-04-0.842E-05
CGA:  11    -0.358297882690E+03   -0.85435E-05   -0.87085E-05 10962   0.125E-04-0.258E-05
  20 F= -.35829788E+03 E0= -.35829788E+03  d E =-.557379E-02  mag=    12.0000
       N       E                     dE             d eps       ncg     rms          ort
SDA:   1    -0.358193975463E+03    0.10390E+00    0.00000E+00 10962   0.302E+00 0.000E+00
CGA:   2    -0.358267669845E+03   -0.73694E-01   -0.73679E-01 10962   0.166E+00-0.184E-02
CGA:   3    -0.358293624810E+03   -0.25955E-01   -0.25972E-01 10962   0.516E-01 0.155E-03
CGA:   4    -0.358301642185E+03   -0.80174E-02   -0.80675E-02 10962   0.998E-02 0.544E-03
CGA:   5    -0.358303259803E+03   -0.16176E-02   -0.16313E-02 10962   0.255E-02 0.169E-03
CGA:   6    -0.358303765271E+03   -0.50547E-03   -0.50590E-03 10962   0.794E-03 0.966E-05
CGA:   7    -0.358303943976E+03   -0.17871E-03   -0.17828E-03 10962   0.303E-03-0.339E-04
CGA:   8    -0.358304022395E+03   -0.78419E-04   -0.78819E-04 10962   0.149E-03-0.112E-04
CGA:   9    -0.358304062395E+03   -0.40001E-04   -0.39814E-04 10962   0.641E-04 0.473E-05
CGA:  10    -0.358304082963E+03   -0.20568E-04   -0.20690E-04 10962   0.280E-04-0.168E-05
CGA:  11    -0.358304092212E+03   -0.92492E-05   -0.99169E-05 10962   0.154E-04-0.555E-05
  21 F= -.35830409E+03 E0= -.35830409E+03  d E =-.620952E-02  mag=    12.0000
       N       E                     dE             d eps       ncg     rms          ort
SDA:   1    -0.358115877593E+03    0.18821E+00    0.00000E+00 10962   0.515E+00 0.000E+00
CGA:   2    -0.358256682018E+03   -0.14080E+00   -0.14086E+00 10962   0.253E+00-0.296E-02
CGA:   3    -0.358296878790E+03   -0.40197E-01   -0.40256E-01 10962   0.814E-01 0.605E-03
CGA:   4    -0.358308832793E+03   -0.11954E-01   -0.12038E-01 10962   0.143E-01 0.820E-03
CGA:   5    -0.358311280791E+03   -0.24480E-02   -0.24628E-02 10962   0.415E-02 0.202E-03
CGA:   6    -0.358312088345E+03   -0.80755E-03   -0.80720E-03 10962   0.121E-02-0.753E-05
CGA:   7    -0.358312360007E+03   -0.27166E-03   -0.27117E-03 10962   0.489E-03-0.386E-04
CGA:   8    -0.358312487855E+03   -0.12785E-03   -0.12797E-03 10962   0.234E-03-0.381E-05
CGA:   9    -0.358312552914E+03   -0.65059E-04   -0.64434E-04 10962   0.102E-03 0.159E-04
CGA:  10    -0.358312584668E+03   -0.31754E-04   -0.31383E-04 10962   0.387E-04 0.781E-05
CGA:  11    -0.358312597833E+03   -0.13165E-04   -0.13243E-04 10962   0.167E-04-0.104E-05
CGA:  12    -0.358312602449E+03   -0.46157E-05   -0.45318E-05 10962   0.680E-05 0.256E-05
  22 F= -.35831260E+03 E0= -.35831260E+03  d E =-.851024E-02  mag=    12.0000
       N       E                     dE             d eps       ncg     rms          ort
SDA:   1    -0.356914181184E+03    0.13984E+01    0.00000E+00 10962   0.363E+01 0.000E+00
CGA:   2    -0.357953569818E+03   -0.10394E+01   -0.10395E+01 10962   0.170E+01-0.613E-02
CGA:   3    -0.358227221684E+03   -0.27365E+00   -0.27378E+00 10962   0.543E+00 0.124E-02
CGA:   4    -0.358305681780E+03   -0.78460E-01   -0.78656E-01 10962   0.950E-01 0.176E-02
CGA:   5    -0.358322559974E+03   -0.16878E-01   -0.16905E-01 10962   0.288E-01 0.393E-03
CGA:   6    -0.358328030841E+03   -0.54709E-02   -0.54634E-02 10962   0.808E-02-0.145E-03
CGA:   7    -0.358329847173E+03   -0.18163E-02   -0.18135E-02 10962   0.332E-02-0.219E-03
CGA:   8    -0.358330743858E+03   -0.89669E-03   -0.90214E-03 10962   0.166E-02-0.132E-03
CGA:   9    -0.358331220160E+03   -0.47630E-03   -0.47858E-03 10962   0.803E-03-0.377E-04
CGA:  10    -0.358331449160E+03   -0.22900E-03   -0.22940E-03 10962   0.288E-03-0.813E-05
CGA:  11    -0.358331532837E+03   -0.83677E-04   -0.83818E-04 10962   0.100E-03-0.294E-05
CGA:  12    -0.358331561339E+03   -0.28501E-04   -0.28028E-04 10962   0.388E-04 0.140E-04
CGA:  13    -0.358331573851E+03   -0.12512E-04   -0.12172E-04 10962   0.180E-04 0.134E-04
CGA:  14    -0.358331580391E+03   -0.65405E-05   -0.64085E-05 10962   0.933E-05 0.959E-05
  23 F= -.35833158E+03 E0= -.35833158E+03  d E =-.189779E-01  mag=    12.0000
       N       E                     dE             d eps       ncg     rms          ort
SDA:   1    -0.358136484686E+03    0.19509E+00    0.00000E+00 10962   0.548E+00 0.000E+00
CGA:   2    -0.358261597613E+03   -0.12511E+00   -0.12511E+00 10962   0.349E+00-0.476E-03
CGA:   3    -0.358316791224E+03   -0.55194E-01   -0.55155E-01 10962   0.971E-01-0.462E-03
CGA:   4    -0.358331947506E+03   -0.15156E-01   -0.15173E-01 10962   0.212E-01 0.162E-03
CGA:   5    -0.358335420694E+03   -0.34732E-02   -0.34883E-02 10962   0.527E-02 0.187E-03
CGA:   6    -0.358336434480E+03   -0.10138E-02   -0.10154E-02 10962   0.162E-02 0.321E-04
CGA:   7    -0.358336785079E+03   -0.35060E-03   -0.35048E-03 10962   0.550E-03-0.587E-05
CGA:   8    -0.358336916846E+03   -0.13177E-03   -0.13167E-03 10962   0.217E-03 0.214E-04
CGA:   9    -0.358336975645E+03   -0.58799E-04   -0.58313E-04 10962   0.828E-04 0.212E-04
CGA:  10    -0.358337001495E+03   -0.25850E-04   -0.25571E-04 10962   0.331E-04 0.631E-05
CGA:  11    -0.358337011972E+03   -0.10477E-04   -0.10353E-04 10962   0.129E-04 0.245E-05
CGA:  12    -0.358337017017E+03   -0.50441E-05   -0.74153E-05 10962   0.188E-04-0.809E-05
  24 F= -.35833702E+03 E0= -.35833702E+03  d E =-.543663E-02  mag=    12.0000
       N       E                     dE             d eps       ncg     rms          ort
SDA:   1    -0.358174006655E+03    0.16301E+00    0.00000E+00 10962   0.427E+00 0.000E+00
CGA:   2    -0.358280917707E+03   -0.10691E+00   -0.10692E+00 10962   0.238E+00 0.221E-02
CGA:   3    -0.358317987288E+03   -0.37070E-01   -0.37065E-01 10962   0.704E-01-0.107E-03
CGA:   4    -0.358329098835E+03   -0.11112E-01   -0.11047E-01 10962   0.145E-01-0.709E-03
CGA:   5    -0.358331526204E+03   -0.24274E-02   -0.24105E-02 10962   0.395E-02-0.224E-03
CGA:   6    -0.358332254286E+03   -0.72808E-03   -0.72900E-03 10962   0.114E-02 0.170E-04
CGA:   7    -0.358332483945E+03   -0.22966E-03   -0.23151E-03 10962   0.375E-03 0.530E-04
CGA:   8    -0.358332587163E+03   -0.10322E-03   -0.10274E-03 10962   0.172E-03 0.188E-04
CGA:   9    -0.358332644732E+03   -0.57569E-04   -0.59217E-04 10962   0.104E-03-0.183E-04
CGA:  10    -0.358332673870E+03   -0.29138E-04   -0.30620E-04 10962   0.496E-04-0.172E-04
CGA:  11    -0.358332684699E+03   -0.10829E-04   -0.10849E-04 10962   0.165E-04-0.126E-05
CGA:  12    -0.358332690377E+03   -0.56778E-05   -0.67025E-05 10962   0.135E-04-0.604E-05
  25 F= -.35833269E+03 E0= -.35833269E+03  d E =0.432664E-02  mag=    12.0000
       N       E                     dE             d eps       ncg     rms          ort
SDA:   1    -0.358306774106E+03    0.25911E-01    0.00000E+00 10962   0.808E-01 0.000E+00
CGA:   2    -0.358321919419E+03   -0.15145E-01   -0.15151E-01 10962   0.451E-01 0.262E-04
CGA:   3    -0.358329674116E+03   -0.77547E-02   -0.77532E-02 10962   0.153E-01-0.293E-04
CGA:   4    -0.358332107634E+03   -0.24335E-02   -0.24312E-02 10962   0.362E-02-0.239E-04
CGA:   5    -0.358332702797E+03   -0.59516E-03   -0.59639E-03 10962   0.872E-03 0.112E-04
CGA:   6    -0.358332864450E+03   -0.16165E-03   -0.16224E-03 10962   0.249E-03 0.730E-05
CGA:   7    -0.358332919192E+03   -0.54742E-04   -0.54845E-04 10962   0.877E-04 0.245E-05
CGA:   8    -0.358332940032E+03   -0.20840E-04   -0.20933E-04 10962   0.340E-04 0.438E-05
CGA:   9    -0.358332949600E+03   -0.95684E-05   -0.95426E-05 10962   0.142E-04 0.241E-05
  26 F= -.35833295E+03 E0= -.35833295E+03  d E =-.259223E-03  mag=    12.0000
       N       E                     dE             d eps       ncg     rms          ort
SDA:   1    -0.358294550481E+03    0.38390E-01    0.00000E+00 10962   0.101E+00 0.000E+00
CGA:   2    -0.358325870400E+03   -0.31320E-01   -0.31364E-01 10962   0.464E-01-0.930E-03
CGA:   3    -0.358333008138E+03   -0.71377E-02   -0.71581E-02 10962   0.142E-01 0.184E-03
CGA:   4    -0.358335013431E+03   -0.20053E-02   -0.20319E-02 10962   0.250E-02 0.230E-03
CGA:   5    -0.358335454666E+03   -0.44123E-03   -0.44495E-03 10962   0.771E-03 0.480E-04
CGA:   6    -0.358335608940E+03   -0.15427E-03   -0.15329E-03 10962   0.224E-03-0.186E-04
CGA:   7    -0.358335660582E+03   -0.51642E-04   -0.51498E-04 10962   0.967E-04-0.147E-04
CGA:   8    -0.358335683587E+03   -0.23005E-04   -0.23003E-04 10962   0.426E-04 0.206E-06
CGA:   9    -0.358335695356E+03   -0.11769E-04   -0.11647E-04 10962   0.181E-04 0.450E-05
CGA:  10    -0.358335701361E+03   -0.60047E-05   -0.59538E-05 10962   0.781E-05 0.102E-05
  27 F= -.35833570E+03 E0= -.35833570E+03  d E =-.275176E-02  mag=    12.0000
       N       E                     dE             d eps       ncg     rms          ort
SDA:   1    -0.356906961464E+03    0.14287E+01    0.00000E+00 10962   0.345E+01 0.000E+00
CGA:   2    -0.358027560119E+03   -0.11206E+01   -0.11208E+01 10962   0.145E+01-0.313E-02
CGA:   3    -0.358251680926E+03   -0.22412E+00   -0.22424E+00 10962   0.438E+00 0.962E-03
CGA:   4    -0.358316819201E+03   -0.65138E-01   -0.65225E-01 10962   0.815E-01 0.719E-03
CGA:   5    -0.358331696160E+03   -0.14877E-01   -0.14873E-01 10962   0.258E-01-0.523E-04
CGA:   6    -0.358336493638E+03   -0.47975E-02   -0.47879E-02 10962   0.716E-02-0.151E-03
CGA:   7    -0.358338104254E+03   -0.16106E-02   -0.16083E-02 10962   0.284E-02-0.108E-03
CGA:   8    -0.358338840930E+03   -0.73668E-03   -0.73777E-03 10962   0.131E-02-0.611E-04
CGA:   9    -0.358339219663E+03   -0.37873E-03   -0.37972E-03 10962   0.595E-03-0.195E-04
CGA:  10    -0.358339387414E+03   -0.16775E-03   -0.16825E-03 10962   0.213E-03-0.131E-04
CGA:  11    -0.358339450556E+03   -0.63142E-04   -0.63663E-04 10962   0.790E-04-0.959E-05
CGA:  12    -0.358339474773E+03   -0.24217E-04   -0.23910E-04 10962   0.370E-04 0.490E-05
CGA:  13    -0.358339489807E+03   -0.15034E-04   -0.14279E-04 10962   0.227E-04 0.715E-05
CGA:  14    -0.358339500250E+03   -0.10443E-04   -0.96211E-05 10962   0.140E-04 0.888E-05
CGA:  15    -0.358339507117E+03   -0.68666E-05   -0.63853E-05 10962   0.840E-05 0.804E-05
  28 F= -.35833951E+03 E0= -.35833951E+03  d E =-.380576E-02  mag=    12.0000
       N       E                     dE             d eps       ncg     rms          ort
SDA:   1    -0.358123178548E+03    0.21632E+00    0.00000E+00 10962   0.551E+00 0.000E+00
CGA:   2    -0.358273163029E+03   -0.14998E+00   -0.15000E+00 10962   0.347E+00 0.649E-03
CGA:   3    -0.358323607881E+03   -0.50445E-01   -0.50465E-01 10962   0.870E-01 0.119E-03
CGA:   4    -0.358337619891E+03   -0.14012E-01   -0.13987E-01 10962   0.197E-01-0.227E-03
CGA:   5    -0.358341011183E+03   -0.33913E-02   -0.33804E-02 10962   0.567E-02-0.109E-03
CGA:   6    -0.358342098240E+03   -0.10871E-02   -0.10878E-02 10962   0.171E-02 0.845E-05
CGA:   7    -0.358342469892E+03   -0.37165E-03   -0.37335E-03 10962   0.635E-03 0.349E-04
CGA:   8    -0.358342631599E+03   -0.16171E-03   -0.16196E-03 10962   0.260E-03 0.180E-04
CGA:   9    -0.358342708164E+03   -0.76565E-04   -0.76568E-04 10962   0.115E-03-0.853E-07
CGA:  10    -0.358342741841E+03   -0.33677E-04   -0.33767E-04 10962   0.463E-04-0.302E-05
CGA:  11    -0.358342756027E+03   -0.14187E-04   -0.14244E-04 10962   0.208E-04-0.115E-05
CGA:  12    -0.358342763659E+03   -0.76322E-05   -0.13526E-04 10962   0.471E-04-0.148E-04
CGA:  13    -0.358342774231E+03   -0.10571E-04   -0.10686E-04 10962   0.100E-04 0.186E-05
CGA:  14    -0.358342779246E+03   -0.50151E-05   -0.78497E-05 10962   0.235E-04-0.604E-05
  29 F= -.35834278E+03 E0= -.35834278E+03  d E =-.327213E-02  mag=    12.0000
       N       E                     dE             d eps       ncg     rms          ort
SDA:   1    -0.358198660455E+03    0.14411E+00    0.00000E+00 10962   0.354E+00 0.000E+00
CGA:   2    -0.358305830351E+03   -0.10717E+00   -0.10717E+00 10962   0.173E+00 0.574E-03
CGA:   3    -0.358331382119E+03   -0.25552E-01   -0.25528E-01 10962   0.503E-01-0.190E-03
CGA:   4    -0.358339334032E+03   -0.79519E-02   -0.79196E-02 10962   0.106E-01-0.238E-03
CGA:   5    -0.358341134632E+03   -0.18006E-02   -0.17965E-02 10962   0.303E-02-0.358E-04
CGA:   6    -0.358341707573E+03   -0.57294E-03   -0.57451E-03 10962   0.901E-03 0.164E-04
CGA:   7    -0.358341907384E+03   -0.19981E-03   -0.19952E-03 10962   0.339E-03-0.506E-05
CGA:   8    -0.358342003044E+03   -0.95659E-04   -0.95888E-04 10962   0.175E-03-0.276E-04
CGA:   9    -0.358342053862E+03   -0.50819E-04   -0.52292E-04 10962   0.950E-04-0.307E-04
CGA:  10    -0.358342077385E+03   -0.23523E-04   -0.24001E-04 10962   0.381E-04-0.174E-04
CGA:  11    -0.358342086627E+03   -0.92418E-05   -0.93350E-05 10962   0.143E-04-0.469E-05
  30 F= -.35834209E+03 E0= -.35834209E+03  d E =0.692619E-03  mag=    12.0000
       N       E                     dE             d eps       ncg     rms          ort
SDA:   1    -0.358311000054E+03    0.31077E-01    0.00000E+00 10962   0.913E-01 0.000E+00
CGA:   2    -0.358328979020E+03   -0.17979E-01   -0.17984E-01 10962   0.539E-01 0.238E-04
CGA:   3    -0.358338124211E+03   -0.91452E-02   -0.91519E-02 10962   0.172E-01 0.426E-04
CGA:   4    -0.358340895461E+03   -0.27712E-02   -0.27725E-02 10962   0.405E-02 0.636E-05
CGA:   5    -0.358341572572E+03   -0.67711E-03   -0.67633E-03 10962   0.105E-02-0.823E-05
CGA:   6    -0.358341770618E+03   -0.19805E-03   -0.19697E-03 10962   0.318E-03-0.142E-04
CGA:   7    -0.358341842910E+03   -0.72292E-04   -0.71755E-04 10962   0.126E-03-0.165E-04
CGA:   8    -0.358341875680E+03   -0.32770E-04   -0.33041E-04 10962   0.616E-04-0.157E-04
CGA:   9    -0.358341891040E+03   -0.15360E-04   -0.15585E-04 10962   0.283E-04-0.791E-05
CGA:  10    -0.358341898161E+03   -0.71210E-05   -0.71713E-05 10962   0.113E-04-0.175E-05
  31 F= -.35834190E+03 E0= -.35834190E+03  d E =0.188466E-03  mag=    12.0000
       N       E                     dE             d eps       ncg     rms          ort
SDA:   1    -0.358272564888E+03    0.69326E-01    0.00000E+00 10962   0.184E+00 0.000E+00
CGA:   2    -0.358317586081E+03   -0.45021E-01   -0.45021E-01 10962   0.124E+00-0.550E-04
CGA:   3    -0.358336275615E+03   -0.18690E-01   -0.18698E-01 10962   0.297E-01 0.543E-04
CGA:   4    -0.358340913195E+03   -0.46376E-02   -0.46405E-02 10962   0.631E-02 0.222E-04
CGA:   5    -0.358341953614E+03   -0.10404E-02   -0.10394E-02 10962   0.164E-02-0.119E-04
CGA:   6    -0.358342265756E+03   -0.31214E-03   -0.31139E-03 10962   0.489E-03-0.126E-04
CGA:   7    -0.358342365792E+03   -0.10004E-03   -0.99877E-04 10962   0.153E-03-0.384E-05
CGA:   8    -0.358342403462E+03   -0.37670E-04   -0.37669E-04 10962   0.646E-04 0.509E-06
CGA:   9    -0.358342421749E+03   -0.18287E-04   -0.18249E-04 10962   0.287E-04 0.106E-05
CGA:  10    -0.358342430728E+03   -0.89790E-05   -0.90043E-05 10962   0.127E-04-0.411E-06
  32 F= -.35834243E+03 E0= -.35834243E+03  d E =-.532567E-03  mag=    12.0000
       N       E                     dE             d eps       ncg     rms          ort
SDA:   1    -0.348545226323E+03    0.97972E+01    0.00000E+00 10962   0.266E+02 0.000E+00
CGA:   2    -0.354161141053E+03   -0.56159E+01   -0.56270E+01 10962   0.156E+02 0.666E-01
CGA:   3    -0.356783037024E+03   -0.26219E+01   -0.26229E+01 10962   0.476E+01 0.215E-01
CGA:   4    -0.357566313097E+03   -0.78328E+00   -0.78256E+00 10962   0.116E+01 0.327E-02
CGA:   5    -0.357761595979E+03   -0.19528E+00   -0.19559E+00 10962   0.311E+00 0.234E-02
CGA:   6    -0.357821397987E+03   -0.59802E-01   -0.59912E-01 10962   0.994E-01 0.185E-02
CGA:   7    -0.357843765462E+03   -0.22367E-01   -0.22378E-01 10962   0.385E-01 0.577E-03
CGA:   8    -0.357853508879E+03   -0.97434E-02   -0.97373E-02 10962   0.155E-01 0.602E-03
CGA:   9    -0.357857684594E+03   -0.41757E-02   -0.41656E-02 10962   0.597E-02 0.440E-03
CGA:  10    -0.357859411478E+03   -0.17269E-02   -0.17254E-02 10962   0.226E-02 0.405E-04
CGA:  11    -0.357860056233E+03   -0.64475E-03   -0.63977E-03 10962   0.833E-03 0.135E-03
CGA:  12    -0.357860347173E+03   -0.29094E-03   -0.28689E-03 10962   0.450E-03 0.517E-04
CGA:  13    -0.357860555993E+03   -0.20882E-03   -0.20166E-03 10962   0.370E-03 0.420E-04
CGA:  14    -0.357860737142E+03   -0.18115E-03   -0.16578E-03 10962   0.286E-03 0.102E-03
CGA:  15    -0.357860918521E+03   -0.18138E-03   -0.16697E-03 10962   0.250E-03 0.762E-04
CGA:  16    -0.357861058214E+03   -0.13969E-03   -0.12444E-03 10962   0.194E-03 0.132E-03
CGA:  17    -0.357861155170E+03   -0.96956E-04   -0.94517E-04 10962   0.127E-03 0.114E-04
CGA:  18    -0.357861270158E+03   -0.11499E-03   -0.97764E-04 10962   0.146E-03 0.395E-04
CGA:  19    -0.357861415471E+03   -0.14531E-03   -0.11845E-03 10962   0.122E-03 0.880E-04
CGA:  20    -0.357861406223E+03    0.92488E-05   -0.12816E-03 10962   0.109E-02-0.190E-03
CGA:  21    -0.357861523300E+03   -0.11708E-03   -0.15646E-03 10962   0.101E-03 0.177E-03
CGA:  22    -0.357861550439E+03   -0.27139E-04   -0.29766E-04 10962   0.614E-04 0.259E-04
CGA:  23    -0.357861548800E+03    0.16386E-05   -0.96550E-04 10962   0.783E-03-0.108E-03
CGA:  24    -0.357861649190E+03   -0.10039E-03   -0.13726E-03 10962   0.132E-03 0.168E-03
CGA:  25    -0.357861696386E+03   -0.47196E-04   -0.48583E-04 10962   0.492E-04 0.173E-04
CGA:  26    -0.357861412764E+03    0.28362E-03   -0.15454E-03 10962   0.273E-02-0.207E-03
CGA:  27    -0.357861743029E+03   -0.33027E-03   -0.45071E-03 10962   0.230E-03 0.225E-03
CGA:  28    -0.357861843657E+03   -0.10063E-03   -0.10176E-03 10962   0.692E-04 0.439E-05
CGA:  29    -0.357861870235E+03   -0.26578E-04   -0.64469E-04 10962   0.714E-03-0.145E-03
CGA:  30    -0.357861904931E+03   -0.34697E-04   -0.10214E-03 10962   0.576E-04 0.128E-03
CGA:  31    -0.357861901006E+03    0.39252E-05   -0.11386E-04 10962   0.364E-04 0.324E-04
CGA:  32    -0.357861947914E+03   -0.46907E-04    0.25002E-03 10962   0.614E-04 0.282E-05
CGA:  33    -0.357861949536E+03   -0.16224E-05   -0.16648E-04 10962   0.328E-04 0.413E-04
  33 F= -.35786195E+03 E0= -.35786195E+03  d E =0.480481E+00  mag=    12.0000
       N       E                     dE             d eps       ncg     rms          ort
SDA:   1    -0.355498246741E+03    0.23637E+01    0.00000E+00 10962   0.663E+01 0.000E+00
CGA:   2    -0.357611335963E+03   -0.21131E+01   -0.21091E+01 10962   0.242E+01 0.410E-02
CGA:   3    -0.358074701668E+03   -0.46337E+00   -0.46373E+00 10962   0.974E+00 0.699E-03
CGA:   4    -0.358218543718E+03   -0.14384E+00   -0.14398E+00 10962   0.218E+00 0.600E-03
CGA:   5    -0.358263531699E+03   -0.44988E-01   -0.44914E-01 10962   0.782E-01 0.140E-04
CGA:   6    -0.358278421376E+03   -0.14890E-01   -0.14814E-01 10962   0.281E-01-0.189E-03
CGA:   7    -0.358285836739E+03   -0.74154E-02   -0.73478E-02 10962   0.129E-01-0.290E-03
CGA:   8    -0.358288922007E+03   -0.30853E-02   -0.30397E-02 10962   0.486E-02-0.185E-03
CGA:   9    -0.358290270984E+03   -0.13490E-02   -0.13343E-02 10962   0.180E-02-0.749E-04
CGA:  10    -0.358290743101E+03   -0.47212E-03   -0.47099E-03 10962   0.606E-03-0.534E-05
CGA:  11    -0.358290921058E+03   -0.17796E-03   -0.17768E-03 10962   0.235E-03-0.162E-05
CGA:  12    -0.358291003418E+03   -0.82360E-04   -0.82733E-04 10962   0.136E-03 0.432E-05
CGA:  13    -0.358291061293E+03   -0.57875E-04   -0.58059E-04 10962   0.107E-03 0.900E-05
CGA:  14    -0.358291122015E+03   -0.60721E-04   -0.60662E-04 10962   0.102E-03 0.129E-05
CGA:  15    -0.358291177139E+03   -0.55124E-04   -0.55529E-04 10962   0.910E-04-0.333E-05
CGA:  16    -0.358291222264E+03   -0.45125E-04   -0.45998E-04 10962   0.761E-04-0.111E-04
CGA:  17    -0.358291249410E+03   -0.27146E-04   -0.27383E-04 10962   0.484E-04 0.580E-05
CGA:  18    -0.358291275362E+03   -0.25952E-04   -0.25960E-04 10962   0.423E-04-0.357E-06
CGA:  19    -0.358291294844E+03   -0.19482E-04   -0.19418E-04 10962   0.323E-04 0.580E-05
CGA:  20    -0.358291305395E+03   -0.10550E-04   -0.12203E-04 10962   0.168E-04 0.137E-04
CGA:  21    -0.358291310688E+03   -0.52937E-05   -0.69255E-05 10962   0.923E-05 0.104E-04
  34 F= -.35829131E+03 E0= -.35829131E+03  d E =-.429361E+00  mag=    12.0000
       N       E                     dE             d eps       ncg     rms          ort
SDA:   1    -0.358235983663E+03    0.55322E-01    0.00000E+00 10962   0.201E+00 0.000E+00
CGA:   2    -0.358288490976E+03   -0.52507E-01   -0.52489E-01 10962   0.119E+00-0.141E-03
CGA:   3    -0.358306395034E+03   -0.17904E-01   -0.17883E-01 10962   0.342E-01-0.822E-04
CGA:   4    -0.358312242034E+03   -0.58470E-02   -0.58584E-02 10962   0.890E-02 0.391E-04
CGA:   5    -0.358313753343E+03   -0.15113E-02   -0.15186E-02 10962   0.248E-02 0.293E-04
CGA:   6    -0.358314251626E+03   -0.49828E-03   -0.49469E-03 10962   0.874E-03-0.189E-04
CGA:   7    -0.358314462405E+03   -0.21078E-03   -0.20786E-03 10962   0.382E-03-0.206E-04
CGA:   8    -0.358314558304E+03   -0.95899E-04   -0.95111E-04 10962   0.153E-03-0.655E-05
CGA:   9    -0.358314601348E+03   -0.43044E-04   -0.42512E-04 10962   0.644E-04-0.621E-05
CGA:  10    -0.358314619147E+03   -0.17799E-04   -0.17644E-04 10962   0.260E-04-0.196E-05
CGA:  11    -0.358314628786E+03   -0.96392E-05   -0.97270E-05 10962   0.186E-04-0.344E-05
CGA:  12    -0.358314620687E+03    0.80993E-05   -0.21143E-04 10962   0.172E-03-0.307E-04
CGA:  13    -0.358314655466E+03   -0.34779E-04   -0.36104E-04 10962   0.269E-04 0.663E-05
CGA:  14    -0.358314668103E+03   -0.12637E-04   -0.13019E-04 10962   0.182E-04-0.566E-05
CGA:  15    -0.358314672491E+03   -0.43885E-05   -0.47155E-05 10962   0.980E-05 0.445E-05
CGA:  16    -0.358314669913E+03    0.25784E-05   -0.17033E-04 10962   0.103E-03-0.196E-04
CGA:  17    -0.358314692052E+03   -0.22139E-04   -0.24694E-04 10962   0.118E-04 0.122E-04
CGA:  18    -0.358314703913E+03   -0.11861E-04    0.12809E-03 10962   0.846E-05-0.118E-05
CGA:  19    -0.358314703485E+03    0.42784E-06   -0.11839E-05 10962   0.654E-05 0.571E-05
  35 F= -.35831470E+03 E0= -.35831470E+03  d E =-.233928E-01  mag=    12.0000
       N       E                     dE             d eps       ncg     rms          ort
SDA:   1    -0.358063917182E+03    0.25079E+00    0.00000E+00 10962   0.747E+00 0.000E+00
CGA:   2    -0.358237779655E+03   -0.17386E+00   -0.17389E+00 10962   0.462E+00-0.599E-04
CGA:   3    -0.358309496326E+03   -0.71717E-01   -0.71679E-01 10962   0.128E+00-0.294E-04
CGA:   4    -0.358331093374E+03   -0.21597E-01   -0.21610E-01 10962   0.336E-01 0.307E-04
CGA:   5    -0.358336715359E+03   -0.56220E-02   -0.56389E-02 10962   0.864E-02 0.685E-04
CGA:   6    -0.358338376533E+03   -0.16612E-02   -0.16601E-02 10962   0.284E-02-0.744E-05
CGA:   7    -0.358339024390E+03   -0.64786E-03   -0.64758E-03 10962   0.112E-02-0.209E-05
CGA:   8    -0.358339299292E+03   -0.27490E-03   -0.27762E-03 10962   0.443E-03 0.254E-04
CGA:   9    -0.358339419773E+03   -0.12048E-03   -0.12137E-03 10962   0.170E-03 0.108E-04
CGA:  10    -0.358339467712E+03   -0.47939E-04   -0.48140E-04 10962   0.619E-04 0.291E-05
CGA:  11    -0.358339486834E+03   -0.19122E-04   -0.19134E-04 10962   0.268E-04 0.305E-06
CGA:  12    -0.358339497497E+03   -0.10663E-04   -0.18978E-04 10962   0.745E-04-0.228E-04
CGA:  13    -0.358339512948E+03   -0.15450E-04   -0.16164E-04 10962   0.148E-04 0.500E-05
CGA:  14    -0.358339521380E+03   -0.84320E-05   -0.11211E-04 10962   0.319E-04-0.778E-05
  36 F= -.35833952E+03 E0= -.35833952E+03  d E =-.248179E-01  mag=    12.0000
       N       E                     dE             d eps       ncg     rms          ort
SDA:   1    -0.358296534316E+03    0.42979E-01    0.00000E+00 10962   0.142E+00 0.000E+00
CGA:   2    -0.358326349884E+03   -0.29816E-01   -0.29842E-01 10962   0.862E-01 0.137E-03
CGA:   3    -0.358340369337E+03   -0.14019E-01   -0.14023E-01 10962   0.245E-01 0.631E-05
CGA:   4    -0.358344383345E+03   -0.40140E-02   -0.40163E-02 10962   0.610E-02 0.624E-05
CGA:   5    -0.358345403742E+03   -0.10204E-02   -0.10227E-02 10962   0.152E-02 0.122E-04
CGA:   6    -0.358345690123E+03   -0.28638E-03   -0.28578E-03 10962   0.459E-03-0.466E-05
CGA:   7    -0.358345786787E+03   -0.96664E-04   -0.98110E-04 10962   0.162E-03 0.136E-04
CGA:   8    -0.358345822425E+03   -0.35638E-04   -0.37628E-04 10962   0.612E-04 0.223E-04
CGA:   9    -0.358345838395E+03   -0.15970E-04   -0.16904E-04 10962   0.256E-04 0.138E-04
CGA:  10    -0.358345846510E+03   -0.81148E-05   -0.83858E-05 10962   0.130E-04 0.680E-05
  37 F= -.35834585E+03 E0= -.35834585E+03  d E =-.632513E-02  mag=    12.0000
       N       E                     dE             d eps       ncg     rms          ort
SDA:   1    -0.358206616888E+03    0.13922E+00    0.00000E+00 10962   0.446E+00 0.000E+00
CGA:   2    -0.358290501507E+03   -0.83885E-01   -0.83945E-01 10962   0.253E+00 0.338E-03
CGA:   3    -0.358334321720E+03   -0.43820E-01   -0.43823E-01 10962   0.795E-01-0.122E-04
CGA:   4    -0.358347197865E+03   -0.12876E-01   -0.12871E-01 10962   0.192E-01-0.672E-04
CGA:   5    -0.358350372574E+03   -0.31747E-02   -0.31774E-02 10962   0.472E-02 0.171E-04
CGA:   6    -0.358351237993E+03   -0.86542E-03   -0.86603E-03 10962   0.132E-02 0.492E-05
CGA:   7    -0.358351513323E+03   -0.27533E-03   -0.27707E-03 10962   0.437E-03 0.262E-04
CGA:   8    -0.358351614511E+03   -0.10119E-03   -0.10268E-03 10962   0.162E-03 0.357E-04
CGA:   9    -0.358351658426E+03   -0.43915E-04   -0.44262E-04 10962   0.635E-04 0.202E-04
CGA:  10    -0.358351677430E+03   -0.19003E-04   -0.19032E-04 10962   0.267E-04 0.109E-04
CGA:  11    -0.358351685610E+03   -0.81805E-05   -0.82215E-05 10962   0.115E-04 0.686E-05
  38 F= -.35835169E+03 E0= -.35835169E+03  d E =-.583910E-02  mag=    12.0000
       N       E                     dE             d eps       ncg     rms          ort
SDA:   1    -0.358294014234E+03    0.57663E-01    0.00000E+00 10962   0.184E+00 0.000E+00
CGA:   2    -0.358328246823E+03   -0.34233E-01   -0.34254E-01 10962   0.103E+00 0.168E-03
CGA:   3    -0.358346060978E+03   -0.17814E-01   -0.17807E-01 10962   0.326E-01-0.999E-04
CGA:   4    -0.358351378836E+03   -0.53179E-02   -0.53089E-02 10962   0.785E-02-0.928E-04
CGA:   5    -0.358352667704E+03   -0.12889E-02   -0.12878E-02 10962   0.192E-02-0.119E-04
CGA:   6    -0.358353015222E+03   -0.34752E-03   -0.34722E-03 10962   0.544E-03-0.435E-05
CGA:   7    -0.358353129422E+03   -0.11420E-03   -0.11444E-03 10962   0.180E-03 0.519E-05
CGA:   8    -0.358353173815E+03   -0.44393E-04   -0.44432E-04 10962   0.747E-04 0.404E-05
CGA:   9    -0.358353196837E+03   -0.23022E-04   -0.23231E-04 10962   0.389E-04-0.421E-05
CGA:  10    -0.358353208632E+03   -0.11795E-04   -0.11951E-04 10962   0.217E-04-0.227E-05
CGA:  11    -0.358353216316E+03   -0.76838E-05   -0.81917E-05 10962   0.167E-04-0.366E-05
CGA:  12    -0.358353180765E+03    0.35551E-04   -0.19911E-04 10962   0.289E-03-0.432E-04
CGA:  13    -0.358353239591E+03   -0.58827E-04   -0.60559E-04 10962   0.428E-04 0.618E-05
CGA:  14    -0.358353257566E+03   -0.17975E-04   -0.17366E-04 10962   0.207E-04-0.805E-05
CGA:  15    -0.358353261759E+03   -0.41932E-05   -0.50094E-05 10962   0.826E-05 0.475E-05
CGA:  16    -0.358353143210E+03    0.11855E-03   -0.63910E-04 10962   0.552E-03-0.586E-04
CGA:  17    -0.358353256328E+03   -0.11312E-03   -0.13032E-03 10962   0.705E-04 0.281E-04
CGA:  18    -0.358353301715E+03   -0.45387E-04   -0.28708E-04 10962   0.692E-04-0.396E-04
CGA:  19    -0.358353295224E+03    0.64915E-05   -0.79068E-05 10962   0.114E-04 0.213E-04
  39 F= -.35835330E+03 E0= -.35835330E+03  d E =-.160961E-02  mag=    12.0000
       N       E                     dE             d eps       ncg     rms          ort
SDA:   1    -0.357980613108E+03    0.37269E+00    0.00000E+00 10962   0.137E+01 0.000E+00
CGA:   2    -0.358189900575E+03   -0.20929E+00   -0.20972E+00 10962   0.588E+00 0.568E-02
CGA:   3    -0.358303710166E+03   -0.11381E+00   -0.11375E+00 10962   0.243E+00 0.100E-02
CGA:   4    -0.358344600788E+03   -0.40891E-01   -0.40852E-01 10962   0.589E-01 0.164E-03
CGA:   5    -0.358353922201E+03   -0.93214E-02   -0.93540E-02 10962   0.134E-01 0.526E-04
CGA:   6    -0.358356304866E+03   -0.23827E-02   -0.24055E-02 10962   0.349E-02 0.461E-04
CGA:   7    -0.358357012642E+03   -0.70778E-03   -0.71351E-03 10962   0.103E-02 0.135E-04
CGA:   8    -0.358357249493E+03   -0.23685E-03   -0.23973E-03 10962   0.366E-03 0.809E-05
CGA:   9    -0.358357344544E+03   -0.95051E-04   -0.96811E-04 10962   0.143E-03 0.571E-05
CGA:  10    -0.358357382220E+03   -0.37676E-04   -0.40387E-04 10962   0.607E-04 0.101E-04
CGA:  11    -0.358357396760E+03   -0.14540E-04   -0.17999E-04 10962   0.266E-04 0.135E-04
CGA:  12    -0.358357405501E+03   -0.87412E-05   -0.10181E-04 10962   0.165E-04 0.692E-05
  40 F= -.35835741E+03 E0= -.35835741E+03  d E =-.411028E-02  mag=    12.0000
       N       E                     dE             d eps       ncg     rms          ort
SDA:   1    -0.358276793045E+03    0.80604E-01    0.00000E+00 10962   0.254E+00 0.000E+00
CGA:   2    -0.358324846981E+03   -0.48054E-01   -0.47978E-01 10962   0.145E+00-0.358E-03
CGA:   3    -0.358350367247E+03   -0.25520E-01   -0.25447E-01 10962   0.495E-01-0.250E-03
CGA:   4    -0.358358296476E+03   -0.79292E-02   -0.79455E-02 10962   0.113E-01 0.422E-04
CGA:   5    -0.358360076336E+03   -0.17799E-02   -0.18062E-02 10962   0.271E-02 0.859E-04
CGA:   6    -0.358360580793E+03   -0.50446E-03   -0.51136E-03 10962   0.808E-03 0.262E-04
CGA:   7    -0.358360768893E+03   -0.18810E-03   -0.18492E-03 10962   0.311E-03-0.156E-04
CGA:   8    -0.358360855528E+03   -0.86635E-04   -0.82835E-04 10962   0.153E-03-0.254E-04
CGA:   9    -0.358360901081E+03   -0.45553E-04   -0.43786E-04 10962   0.862E-04-0.172E-04
CGA:  10    -0.358360926274E+03   -0.25193E-04   -0.24888E-04 10962   0.497E-04-0.367E-05
CGA:  11    -0.358360944802E+03   -0.18527E-04   -0.18528E-04 10962   0.384E-04-0.141E-08
CGA:  12    -0.358360966890E+03   -0.22088E-04   -0.23240E-04 10962   0.647E-04-0.586E-05
CGA:  13    -0.358361000702E+03   -0.33812E-04   -0.46141E-04 10962   0.159E-03-0.302E-04
CGA:  14    -0.358361039155E+03   -0.38453E-04   -0.42171E-04 10962   0.180E-03-0.779E-04
CGA:  15    -0.358361079430E+03   -0.40276E-04   -0.41549E-04 10962   0.167E-03-0.123E-03
CGA:  16    -0.358361136771E+03   -0.57341E-04   -0.57909E-04 10962   0.698E-04 0.608E-05
CGA:  17    -0.358361177268E+03   -0.40497E-04   -0.40383E-04 10962   0.396E-04 0.831E-06
CGA:  18    -0.358361199115E+03   -0.21847E-04   -0.23243E-04 10962   0.286E-04-0.101E-04
CGA:  19    -0.358361201528E+03   -0.24129E-05   -0.42745E-05 10962   0.124E-04 0.751E-05
  41 F= -.35836120E+03 E0= -.35836120E+03  d E =-.379603E-02  mag=    12.0000
       N       E                     dE             d eps       ncg     rms          ort
SDA:   1    -0.358335609717E+03    0.25589E-01    0.00000E+00 10962   0.883E-01 0.000E+00
CGA:   2    -0.358350577280E+03   -0.14968E-01   -0.14978E-01 10962   0.448E-01-0.652E-05
CGA:   3    -0.358358754468E+03   -0.81772E-02   -0.81901E-02 10962   0.162E-01 0.371E-04
CGA:   4    -0.358361416484E+03   -0.26620E-02   -0.26673E-02 10962   0.390E-02 0.195E-04
CGA:   5    -0.358362051833E+03   -0.63535E-03   -0.63893E-03 10962   0.962E-03 0.151E-04
CGA:   6    -0.358362226202E+03   -0.17437E-03   -0.17691E-03 10962   0.271E-03 0.128E-04
CGA:   7    -0.358362282844E+03   -0.56642E-04   -0.57873E-04 10962   0.915E-04 0.780E-05
CGA:   8    -0.358362302414E+03   -0.19570E-04   -0.21024E-04 10962   0.331E-04 0.106E-04
CGA:   9    -0.358362309274E+03   -0.68605E-05   -0.80851E-05 10962   0.125E-04 0.914E-05
  42 F= -.35836231E+03 E0= -.35836231E+03  d E =-.110775E-02  mag=    12.0000
       N       E                     dE             d eps       ncg     rms          ort
SDA:   1    -0.358357777952E+03    0.45245E-02    0.00000E+00 10962   0.187E-01 0.000E+00
CGA:   2    -0.358361673844E+03   -0.38959E-02   -0.38598E-02 10962   0.103E-01-0.278E-03
CGA:   3    -0.358363379403E+03   -0.17056E-02   -0.16885E-02 10962   0.361E-02-0.105E-03
CGA:   4    -0.358363932087E+03   -0.55268E-03   -0.56398E-03 10962   0.776E-03 0.671E-04
CGA:   5    -0.358364043498E+03   -0.11141E-03   -0.12028E-03 10962   0.171E-03 0.539E-04
CGA:   6    -0.358364075236E+03   -0.31738E-04   -0.33519E-04 10962   0.516E-04 0.142E-04
CGA:   7    -0.358364089720E+03   -0.14484E-04   -0.14203E-04 10962   0.259E-04-0.586E-05
CGA:   8    -0.358364097248E+03   -0.75283E-05   -0.79272E-05 10962   0.221E-04-0.877E-05
  43 F= -.35836410E+03 E0= -.35836410E+03  d E =-.178797E-02  mag=    12.0000
       N       E                     dE             d eps       ncg     rms          ort
SDA:   1    -0.358204550526E+03    0.15954E+00    0.00000E+00 10962   0.574E+00 0.000E+00
CGA:   2    -0.358300830986E+03   -0.96280E-01   -0.96183E-01 10962   0.261E+00-0.124E-02
CGA:   3    -0.358348084328E+03   -0.47253E-01   -0.47165E-01 10962   0.110E+00-0.897E-03
CGA:   4    -0.358366340487E+03   -0.18256E-01   -0.18276E-01 10962   0.254E-01 0.148E-03
CGA:   5    -0.358370224419E+03   -0.38839E-02   -0.39312E-02 10962   0.552E-02 0.364E-03
CGA:   6    -0.358371218312E+03   -0.99389E-03   -0.10086E-02 10962   0.155E-02 0.152E-03
CGA:   7    -0.358371563507E+03   -0.34520E-03   -0.34522E-03 10962   0.541E-03-0.773E-07
CGA:   8    -0.358371708728E+03   -0.14522E-03   -0.14521E-03 10962   0.269E-03-0.296E-04
CGA:   9    -0.358371785230E+03   -0.76502E-04   -0.77337E-04 10962   0.141E-03-0.240E-04
[...]
CGA:  11    -0.358395882351E+03   -0.72063E-05   -0.73990E-05 10962   0.106E-04 0.100E-04
  47 F= -.35839588E+03 E0= -.35839588E+03  d E =-.965962E-02  mag=    12.0000
       N       E                     dE             d eps       ncg     rms          ort
SDA:   1    -0.352263188508E+03    0.61327E+01    0.00000E+00 10962   0.177E+02 0.000E+00
CGA:   2    -0.356682918815E+03   -0.44197E+01   -0.44177E+01 10962   0.635E+01 0.706E-01
CGA:   3    -0.357972829121E+03   -0.12899E+01   -0.12900E+01 10962   0.256E+01 0.209E-03
CGA:   4    -0.358316200659E+03   -0.34337E+00   -0.34350E+00 10962   0.443E+00 0.707E-04
CGA:   5    -0.358399199189E+03   -0.82999E-01   -0.83013E-01 10962   0.137E+00 0.369E-03
CGA:   6    -0.358424435074E+03   -0.25236E-01   -0.25251E-01 10962   0.416E-01 0.329E-03
CGA:   7    -0.358434820883E+03   -0.10386E-01   -0.10391E-01 10962   0.204E-01-0.239E-03
CGA:   8    -0.358440511220E+03   -0.56903E-02   -0.57208E-02 10962   0.110E-01-0.547E-03
CGA:   9    -0.358443866670E+03   -0.33554E-02   -0.33903E-02 10962   0.544E-02-0.389E-03
CGA:  10    -0.358445321694E+03   -0.14550E-02   -0.14582E-02 10962   0.185E-02-0.713E-04
CGA:  11    -0.358445841318E+03   -0.51962E-03   -0.51753E-03 10962   0.633E-03 0.431E-04
CGA:  12    -0.358446043557E+03   -0.20224E-03   -0.19899E-03 10962   0.266E-03 0.467E-04
CGA:  13    -0.358446143735E+03   -0.10018E-03   -0.97506E-04 10962   0.125E-03 0.265E-04
CGA:  14    -0.358446191666E+03   -0.47931E-04   -0.46222E-04 10962   0.499E-04 0.187E-04
CGA:  15    -0.358446209959E+03   -0.18293E-04   -0.17716E-04 10962   0.177E-04 0.987E-05
CGA:  16    -0.358446217111E+03   -0.71519E-05   -0.68397E-05 10962   0.809E-05 0.449E-05
  48 F= -.35844622E+03 E0= -.35844622E+03  d E =-.503348E-01  mag=    12.0000
       N       E                     dE             d eps       ncg     rms          ort
SDA:   1    -0.353683267279E+03    0.47629E+01    0.00000E+00 10962   0.131E+02 0.000E+00
CGA:   2    -0.357126245089E+03   -0.34430E+01   -0.34433E+01 10962   0.472E+01 0.334E-01
CGA:   3    -0.358105849435E+03   -0.97960E+00   -0.97972E+00 10962   0.178E+01-0.315E-03
CGA:   4    -0.358344023856E+03   -0.23817E+00   -0.23816E+00 10962   0.332E+00-0.426E-03
CGA:   5    -0.358408268674E+03   -0.64245E-01   -0.64248E-01 10962   0.104E+00 0.677E-04
CGA:   6    -0.358427558483E+03   -0.19290E-01   -0.19293E-01 10962   0.341E-01 0.161E-04
CGA:   7    -0.358436299653E+03   -0.87412E-02   -0.87432E-02 10962   0.167E-01-0.431E-03
CGA:   8    -0.358440801894E+03   -0.45022E-02   -0.45136E-02 10962   0.850E-02-0.524E-03
CGA:   9    -0.358443315111E+03   -0.25132E-02   -0.25312E-02 10962   0.392E-02-0.329E-03
CGA:  10    -0.358444368690E+03   -0.10536E-02   -0.10556E-02 10962   0.141E-02-0.826E-04
CGA:  11    -0.358444784493E+03   -0.41580E-03   -0.41521E-03 10962   0.565E-03 0.139E-04
CGA:  12    -0.358444980865E+03   -0.19637E-03   -0.19394E-03 10962   0.294E-03 0.300E-04
CGA:  13    -0.358445101892E+03   -0.12103E-03   -0.11814E-03 10962   0.170E-03 0.241E-04
CGA:  14    -0.358445179160E+03   -0.77268E-04   -0.75432E-04 10962   0.102E-03 0.127E-04
CGA:  15    -0.358445235968E+03   -0.56808E-04   -0.60770E-04 10962   0.111E-03-0.147E-04
CGA:  16    -0.358445295426E+03   -0.59458E-04   -0.74227E-04 10962   0.207E-03-0.311E-04
CGA:  17    -0.358445317328E+03   -0.21902E-04   -0.16344E-03 10962   0.716E-03-0.172E-03
CGA:  18    -0.358445509856E+03   -0.19253E-03   -0.19860E-03 10962   0.222E-03 0.795E-04
CGA:  19    -0.358445603351E+03   -0.93495E-04   -0.94397E-04 10962   0.195E-03-0.281E-04
CGA:  20    -0.358445655804E+03   -0.52453E-04   -0.53825E-04 10962   0.817E-04 0.379E-04
CGA:  21    -0.358445696079E+03   -0.40274E-04   -0.39794E-04 10962   0.826E-04 0.813E-05
CGA:  22    -0.358445682853E+03    0.13226E-04   -0.84844E-04 10962   0.649E-03-0.169E-03
CGA:  23    -0.358445766324E+03   -0.83471E-04   -0.10397E-03 10962   0.105E-03 0.921E-04
CGA:  24    -0.358445801551E+03   -0.35227E-04   -0.36646E-04 10962   0.332E-04 0.222E-04
CGA:  25    -0.358445781703E+03    0.19848E-04   -0.42072E-04 10962   0.534E-03-0.915E-04
CGA:  26    -0.358445836600E+03   -0.54897E-04   -0.74094E-04 10962   0.416E-04 0.727E-04
CGA:  27    -0.358445848688E+03   -0.12088E-04   -0.13241E-04 10962   0.277E-04 0.107E-04
CGA:  28    -0.358445433934E+03    0.41475E-03   -0.22399E-03 10962   0.222E-02-0.240E-03
CGA:  29    -0.358445790389E+03   -0.35645E-03   -0.42168E-03 10962   0.418E-03 0.126E-03
CGA:  30    -0.358445938074E+03   -0.14768E-03   -0.14976E-03 10962   0.199E-04 0.621E-05
CGA:  31    -0.358445973649E+03   -0.35575E-04    0.19419E-04 10962   0.351E-04-0.306E-05
CGA:  32    -0.358445974232E+03   -0.58325E-06   -0.64499E-05 10962   0.220E-04 0.135E-04
  49 F= -.35844597E+03 E0= -.35844597E+03  d E =0.242879E-03  mag=    12.0000
       N       E                     dE             d eps       ncg     rms          ort
SDA:   1    -0.353390952178E+03    0.50550E+01    0.00000E+00 10962   0.140E+02 0.000E+00
CGA:   2    -0.357031866415E+03   -0.36409E+01   -0.36592E+01 10962   0.519E+01 0.266E-01
CGA:   3    -0.358054585986E+03   -0.10227E+01   -0.10233E+01 10962   0.205E+01 0.198E-01
CGA:   4    -0.358338431611E+03   -0.28385E+00   -0.28317E+00 10962   0.355E+00 0.806E-02
CGA:   5    -0.358406342693E+03   -0.67911E-01   -0.67582E-01 10962   0.115E+00-0.834E-03
CGA:   6    -0.358428058237E+03   -0.21716E-01   -0.21683E-01 10962   0.363E-01-0.129E-03
CGA:   7    -0.358437132944E+03   -0.90747E-02   -0.90772E-02 10962   0.179E-01-0.859E-05
CGA:   8    -0.358442079952E+03   -0.49470E-02   -0.49246E-02 10962   0.898E-02-0.997E-04
CGA:   9    -0.358444848093E+03   -0.27681E-02   -0.27481E-02 10962   0.428E-02-0.108E-03
CGA:  10    -0.358446080513E+03   -0.12324E-02   -0.12172E-02 10962   0.158E-02-0.779E-04
CGA:  11    -0.358446562934E+03   -0.48242E-03   -0.47722E-03 10962   0.648E-03-0.311E-04
CGA:  12    -0.358446779528E+03   -0.21659E-03   -0.21781E-03 10962   0.314E-03 0.102E-04
CGA:  13    -0.358446889859E+03   -0.11033E-03   -0.11299E-03 10962   0.148E-03 0.255E-04
CGA:  14    -0.358446938818E+03   -0.48959E-04   -0.52572E-04 10962   0.611E-04 0.288E-04
CGA:  15    -0.358446962563E+03   -0.23744E-04   -0.25204E-04 10962   0.320E-04 0.144E-04
CGA:  16    -0.358446979049E+03   -0.16487E-04   -0.16705E-04 10962   0.267E-04 0.109E-04
CGA:  17    -0.358446998137E+03   -0.19088E-04   -0.18255E-04 10962   0.301E-04 0.126E-04
CGA:  18    -0.358447021691E+03   -0.23554E-04   -0.22399E-04 10962   0.299E-04 0.199E-04
CGA:  19    -0.358447032445E+03   -0.10753E-04   -0.11274E-04 10962   0.113E-04 0.742E-05
CGA:  20    -0.358447043376E+03   -0.10932E-04   -0.95688E-05 10962   0.115E-04 0.587E-05
CGA:  21    -0.358447043554E+03   -0.17779E-06   -0.22767E-05 10962   0.729E-05 0.814E-05
CGA:  22    -0.358447050797E+03   -0.72425E-05    0.13212E-04 10962   0.642E-05 0.553E-05
  50 F= -.35844705E+03 E0= -.35844705E+03  d E =-.107656E-02  mag=    12.0000
       N       E                     dE             d eps       ncg     rms          ort
SDA:   1    -0.356356508418E+03    0.20905E+01    0.00000E+00 10962   0.519E+01 0.000E+00
CGA:   2    -0.357851075459E+03   -0.14946E+01   -0.14963E+01 10962   0.208E+01 0.429E-02
CGA:   3    -0.358215346467E+03   -0.36427E+00   -0.36397E+00 10962   0.844E+00 0.887E-03
CGA:   4    -0.358345347311E+03   -0.13000E+00   -0.12980E+00 10962   0.173E+00-0.884E-03
CGA:   5    -0.358377004353E+03   -0.31657E-01   -0.31626E-01 10962   0.567E-01-0.212E-03
CGA:   6    -0.358387992303E+03   -0.10988E-01   -0.11011E-01 10962   0.196E-01 0.100E-03
CGA:   7    -0.358392853193E+03   -0.48609E-02   -0.48723E-02 10962   0.902E-02 0.883E-04
CGA:   8    -0.358395145753E+03   -0.22926E-02   -0.22883E-02 10962   0.366E-02-0.349E-04
CGA:   9    -0.358396194552E+03   -0.10488E-02   -0.10441E-02 10962   0.149E-02-0.617E-04
CGA:  10    -0.358396587904E+03   -0.39335E-03   -0.39091E-03 10962   0.486E-03-0.271E-04
CGA:  11    -0.358396744617E+03   -0.15671E-03   -0.15565E-03 10962   0.220E-03-0.384E-04
CGA:  12    -0.358396825896E+03   -0.81279E-04   -0.83190E-04 10962   0.162E-03-0.333E-04
CGA:  13    -0.358396891063E+03   -0.65167E-04   -0.68772E-04 10962   0.143E-03-0.248E-04
CGA:  14    -0.358396945300E+03   -0.54237E-04   -0.54436E-04 10962   0.974E-04-0.272E-05
CGA:  15    -0.358396982097E+03   -0.36797E-04   -0.36510E-04 10962   0.591E-04 0.188E-04
CGA:  16    -0.358397014299E+03   -0.32202E-04   -0.30916E-04 10962   0.500E-04 0.178E-04
CGA:  17    -0.358397046862E+03   -0.32563E-04   -0.30025E-04 10962   0.467E-04 0.273E-04
CGA:  18    -0.358397065746E+03   -0.18884E-04   -0.18631E-04 10962   0.216E-04 0.107E-04
CGA:  19    -0.358397086647E+03   -0.20901E-04   -0.17107E-04 10962   0.220E-04 0.140E-04
CGA:  20    -0.358397099081E+03   -0.12434E-04   -0.11469E-04 10962   0.168E-04 0.734E-05
CGA:  21    -0.358397116350E+03   -0.17269E-04   -0.13986E-04 10962   0.232E-04 0.143E-04
CGA:  22    -0.358397121932E+03   -0.55826E-05   -0.65774E-05 10962   0.161E-04 0.793E-05
  51 F= -.35839712E+03 E0= -.35839712E+03  d E =0.499289E-01  mag=    12.0000
       N       E                     dE             d eps       ncg     rms          ort
SDA:   1    -0.356286587916E+03    0.21105E+01    0.00000E+00 10962   0.590E+01 0.000E+00
CGA:   2    -0.357870858447E+03   -0.15843E+01   -0.15856E+01 10962   0.212E+01 0.168E-03
CGA:   3    -0.358308502294E+03   -0.43764E+00   -0.43781E+00 10962   0.823E+00 0.350E-03
CGA:   4    -0.358419291396E+03   -0.11079E+00   -0.11083E+00 10962   0.157E+00 0.610E-03
CGA:   5    -0.358449893583E+03   -0.30602E-01   -0.30626E-01 10962   0.500E-01 0.173E-03
CGA:   6    -0.358459228867E+03   -0.93353E-02   -0.93357E-02 10962   0.170E-01-0.774E-05
CGA:   7    -0.358463662916E+03   -0.44340E-02   -0.44138E-02 10962   0.828E-02-0.211E-03
CGA:   8    -0.358465841088E+03   -0.21782E-02   -0.21616E-02 10962   0.394E-02-0.188E-03
CGA:   9    -0.358466994608E+03   -0.11535E-02   -0.11496E-02 10962   0.169E-02-0.780E-04
CGA:  10    -0.358467446214E+03   -0.45161E-03   -0.45138E-03 10962   0.589E-03-0.322E-05
CGA:  11    -0.358467614748E+03   -0.16853E-03   -0.17017E-03 10962   0.223E-03 0.311E-04
CGA:  12    -0.358467685434E+03   -0.70686E-04   -0.71747E-04 10962   0.102E-03 0.317E-04
CGA:  13    -0.358467721885E+03   -0.36451E-04   -0.36934E-04 10962   0.482E-04 0.241E-04
CGA:  14    -0.358467738423E+03   -0.16538E-04   -0.17320E-04 10962   0.200E-04 0.171E-04
CGA:  15    -0.358467745705E+03   -0.72822E-05   -0.77111E-05 10962   0.884E-05 0.855E-05
  52 F= -.35846775E+03 E0= -.35846775E+03  d E =-.706238E-01  mag=    12.0000
       N       E                     dE             d eps       ncg     rms          ort
SDA:   1    -0.358194721669E+03    0.27302E+00    0.00000E+00 10962   0.776E+00 0.000E+00
CGA:   2    -0.358377559488E+03   -0.18284E+00   -0.18317E+00 10962   0.289E+00 0.309E-02
CGA:   3    -0.358432376775E+03   -0.54817E-01   -0.54784E-01 10962   0.124E+00-0.225E-03
CGA:   4    -0.358450460693E+03   -0.18084E-01   -0.17987E-01 10962   0.214E-01-0.580E-03
CGA:   5    -0.358454356104E+03   -0.38954E-02   -0.38599E-02 10962   0.685E-02-0.279E-03
CGA:   6    -0.358455623309E+03   -0.12672E-02   -0.12577E-02 10962   0.207E-02-0.833E-04
CGA:   7    -0.358456116376E+03   -0.49307E-03   -0.49384E-03 10962   0.101E-02 0.132E-04
CGA:   8    -0.358456393280E+03   -0.27690E-03   -0.27721E-03 10962   0.513E-03 0.146E-04
CGA:   9    -0.358456557593E+03   -0.16431E-03   -0.16434E-03 10962   0.268E-03-0.120E-05
CGA:  10    -0.358456636319E+03   -0.78726E-04   -0.78736E-04 10962   0.104E-03-0.632E-05
CGA:  11    -0.358456669625E+03   -0.33306E-04   -0.33751E-04 10962   0.472E-04-0.118E-04
CGA:  12    -0.358456684139E+03   -0.14514E-04   -0.14757E-04 10962   0.236E-04-0.430E-05
CGA:  13    -0.358456690741E+03   -0.66026E-05   -0.65770E-05 10962   0.968E-05 0.306E-05
  53 F= -.35845669E+03 E0= -.35845669E+03  d E =0.110550E-01  mag=    12.0000
       N       E                     dE             d eps       ncg     rms          ort
SDA:   1    -0.357116829718E+03    0.13399E+01    0.00000E+00 10962   0.381E+01 0.000E+00
CGA:   2    -0.358005480758E+03   -0.88865E+00   -0.88954E+00 10962   0.159E+01 0.103E-01
CGA:   3    -0.358288571160E+03   -0.28309E+00   -0.28305E+00 10962   0.651E+00-0.439E-03
CGA:   4    -0.358388167305E+03   -0.99596E-01   -0.99305E-01 10962   0.116E+00-0.220E-02
CGA:   5    -0.358408370040E+03   -0.20203E-01   -0.20107E-01 10962   0.361E-01-0.886E-03
CGA:   6    -0.358415197630E+03   -0.68276E-02   -0.68114E-02 10962   0.109E-01-0.195E-03
CGA:   7    -0.358417751248E+03   -0.25536E-02   -0.25541E-02 10962   0.511E-02 0.798E-05
CGA:   8    -0.358419176521E+03   -0.14253E-02   -0.14258E-02 10962   0.260E-02-0.568E-04
CGA:   9    -0.358419972493E+03   -0.79597E-03   -0.79956E-03 10962   0.135E-02-0.843E-04
CGA:  10    -0.358420352184E+03   -0.37969E-03   -0.38033E-03 10962   0.512E-03-0.312E-04
CGA:  11    -0.358420503596E+03   -0.15141E-03   -0.15180E-03 10962   0.198E-03-0.122E-04
CGA:  12    -0.358420566767E+03   -0.63171E-04   -0.63236E-04 10962   0.881E-04-0.122E-05
CGA:  13    -0.358420593898E+03   -0.27131E-04   -0.26760E-04 10962   0.343E-04 0.126E-04
CGA:  14    -0.358420603236E+03   -0.93380E-05   -0.97170E-05 10962   0.126E-04 0.127E-04
  54 F= -.35842060E+03 E0= -.35842060E+03  d E =0.360875E-01  mag=    12.0000
       N       E                     dE             d eps       ncg     rms          ort
SDA:   1    -0.357463427444E+03    0.95717E+00    0.00000E+00 10962   0.283E+01 0.000E+00
CGA:   2    -0.358167274278E+03   -0.70385E+00   -0.70391E+00 10962   0.104E+01-0.575E-03
CGA:   3    -0.358375645644E+03   -0.20837E+00   -0.20840E+00 10962   0.423E+00 0.228E-03
CGA:   4    -0.358433129825E+03   -0.57484E-01   -0.57560E-01 10962   0.724E-01 0.510E-03
CGA:   5    -0.358446790747E+03   -0.13661E-01   -0.13684E-01 10962   0.232E-01 0.328E-03
CGA:   6    -0.358451039971E+03   -0.42492E-02   -0.42568E-02 10962   0.715E-02 0.971E-04
CGA:   7    -0.358452891675E+03   -0.18517E-02   -0.18523E-02 10962   0.373E-02-0.142E-03
CGA:   8    -0.358453916376E+03   -0.10247E-02   -0.10299E-02 10962   0.202E-02-0.185E-03
CGA:   9    -0.358454509750E+03   -0.59337E-03   -0.59838E-03 10962   0.983E-03-0.891E-04
CGA:  10    -0.358454766904E+03   -0.25715E-03   -0.25717E-03 10962   0.333E-03-0.840E-06
CGA:  11    -0.358454858000E+03   -0.91096E-04   -0.90773E-04 10962   0.114E-03 0.235E-04
CGA:  12    -0.358454893078E+03   -0.35079E-04   -0.34647E-04 10962   0.468E-04 0.171E-04
CGA:  13    -0.358454910290E+03   -0.17212E-04   -0.16775E-04 10962   0.211E-04 0.859E-05
CGA:  14    -0.358454918921E+03   -0.86310E-05   -0.84035E-05 10962   0.902E-05 0.313E-05
  55 F= -.35845492E+03 E0= -.35845492E+03  d E =-.343157E-01  mag=    12.0000
       N       E                     dE             d eps       ncg     rms          ort
SDA:   1    -0.356702273006E+03    0.17526E+01    0.00000E+00 10962   0.501E+01 0.000E+00
CGA:   2    -0.357930874580E+03   -0.12286E+01   -0.12290E+01 10962   0.197E+01 0.558E-02
CGA:   3    -0.358293346872E+03   -0.36247E+00   -0.36256E+00 10962   0.822E+00 0.534E-03
CGA:   4    -0.358413956341E+03   -0.12061E+00   -0.12065E+00 10962   0.146E+00 0.252E-03
CGA:   5    -0.358440305651E+03   -0.26349E-01   -0.26366E-01 10962   0.476E-01 0.180E-03
CGA:   6    -0.358449189108E+03   -0.88835E-02   -0.89037E-02 10962   0.146E-01 0.261E-03
CGA:   7    -0.358452727452E+03   -0.35383E-02   -0.35426E-02 10962   0.698E-02 0.237E-03
CGA:   8    -0.358454602498E+03   -0.18750E-02   -0.18736E-02 10962   0.325E-02 0.198E-03
CGA:   9    -0.358455607759E+03   -0.10053E-02   -0.10020E-02 10962   0.156E-02 0.775E-04
CGA:  10    -0.358456067683E+03   -0.45992E-03   -0.45977E-03 10962   0.605E-03 0.493E-05
CGA:  11    -0.358456249606E+03   -0.18192E-03   -0.18129E-03 10962   0.246E-03 0.166E-04
CGA:  12    -0.358456334415E+03   -0.84809E-04   -0.84097E-04 10962   0.124E-03 0.102E-04
CGA:  13    -0.358456382092E+03   -0.47677E-04   -0.46573E-04 10962   0.640E-04 0.114E-04
CGA:  14    -0.358456405031E+03   -0.22939E-04   -0.22189E-04 10962   0.284E-04 0.159E-04
CGA:  15    -0.358456412880E+03   -0.78482E-05   -0.84287E-05 10962   0.139E-04 0.162E-04
  56 F= -.35845641E+03 E0= -.35845641E+03  d E =-.149396E-02  mag=    12.0000
       N       E                     dE             d eps       ncg     rms          ort
SDA:   1    -0.357495789111E+03    0.96062E+00    0.00000E+00 10962   0.277E+01 0.000E+00
CGA:   2    -0.358168434713E+03   -0.67265E+00   -0.67288E+00 10962   0.109E+01 0.764E-02
CGA:   3    -0.358369829934E+03   -0.20140E+00   -0.20132E+00 10962   0.460E+00-0.110E-02
CGA:   4    -0.358438084350E+03   -0.68254E-01   -0.68077E-01 10962   0.825E-01-0.165E-02
CGA:   5    -0.358453059726E+03   -0.14975E-01   -0.14931E-01 10962   0.271E-01-0.601E-03
CGA:   6    -0.358458135209E+03   -0.50755E-02   -0.50639E-02 10962   0.841E-02-0.186E-03
CGA:   7    -0.358460206356E+03   -0.20711E-02   -0.20710E-02 10962   0.419E-02-0.148E-03
CGA:   8    -0.358461339649E+03   -0.11333E-02   -0.11389E-02 10962   0.208E-02-0.205E-03
CGA:   9    -0.358461941982E+03   -0.60233E-03   -0.60979E-03 10962   0.101E-02-0.129E-03
CGA:  10    -0.358462204961E+03   -0.26298E-03   -0.26363E-03 10962   0.356E-03-0.268E-04
CGA:  11    -0.358462309732E+03   -0.10477E-03   -0.10506E-03 10962   0.140E-03-0.592E-05
CGA:  12    -0.358462353985E+03   -0.44253E-04   -0.43898E-04 10962   0.621E-04 0.576E-05
CGA:  13    -0.358462374216E+03   -0.20231E-04   -0.19759E-04 10962   0.249E-04 0.104E-04
CGA:  14    -0.358462382156E+03   -0.79396E-05   -0.78749E-05 10962   0.914E-05 0.787E-05
  57 F= -.35846238E+03 E0= -.35846238E+03  d E =-.596928E-02  mag=    12.0000
       N       E                     dE             d eps       ncg     rms          ort
SDA:   1    -0.358364271651E+03    0.98103E-01    0.00000E+00 10962   0.252E+00 0.000E+00
CGA:   2    -0.358429040743E+03   -0.64769E-01   -0.64779E-01 10962   0.101E+00 0.120E-02
CGA:   3    -0.358447565055E+03   -0.18524E-01   -0.18490E-01 10962   0.423E-01-0.436E-03
CGA:   4    -0.358453877351E+03   -0.63123E-02   -0.62642E-02 10962   0.803E-02-0.436E-03
CGA:   5    -0.358455354996E+03   -0.14776E-02   -0.14697E-02 10962   0.268E-02-0.113E-03
CGA:   6    -0.358455863808E+03   -0.50881E-03   -0.50554E-03 10962   0.884E-03-0.551E-04
CGA:   7    -0.358456100269E+03   -0.23646E-03   -0.24026E-03 10962   0.535E-03-0.131E-03
CGA:   8    -0.358456233526E+03   -0.13326E-03   -0.14424E-03 10962   0.353E-03-0.166E-03
CGA:   9    -0.358456302014E+03   -0.68488E-04   -0.70995E-04 10962   0.161E-03-0.664E-04
CGA:  10    -0.358456330393E+03   -0.28379E-04   -0.28757E-04 10962   0.520E-04 0.109E-04
CGA:  11    -0.358456339945E+03   -0.95514E-05   -0.10625E-04 10962   0.224E-04 0.174E-04
  58 F= -.35845634E+03 E0= -.35845634E+03  d E =0.604221E-02  mag=    12.0000
       N       E                     dE             d eps       ncg     rms          ort
SDA:   1    -0.358424262964E+03    0.32067E-01    0.00000E+00 10962   0.102E+00 0.000E+00
CGA:   2    -0.358451183253E+03   -0.26920E-01   -0.26935E-01 10962   0.373E-01-0.824E-03
CGA:   3    -0.358458620046E+03   -0.74368E-02   -0.74506E-02 10962   0.145E-01 0.301E-03
CGA:   4    -0.358460569081E+03   -0.19490E-02   -0.19712E-02 10962   0.269E-02 0.199E-03
CGA:   5    -0.358461087976E+03   -0.51890E-03   -0.52222E-03 10962   0.889E-03 0.705E-04
CGA:   6    -0.358461249981E+03   -0.16201E-03   -0.16372E-03 10962   0.283E-03 0.298E-04
CGA:   7    -0.358461318751E+03   -0.68769E-04   -0.68718E-04 10962   0.121E-03 0.329E-04
CGA:   8    -0.358461348188E+03   -0.29437E-04   -0.29822E-04 10962   0.491E-04 0.286E-04
CGA:   9    -0.358461363556E+03   -0.15368E-04   -0.15123E-04 10962   0.225E-04 0.154E-04
CGA:  10    -0.358461371690E+03   -0.81341E-05   -0.79641E-05 10962   0.102E-04 0.473E-05
  59 F= -.35846137E+03 E0= -.35846137E+03  d E =-.503175E-02  mag=    12.0000
