       N       E                     dE             d eps       ncg     rms          rms(c)
DAV:   1     0.209805759866E+04    0.20981E+04   -0.12236E+05 39690   0.151E+03
DAV:   2    -0.204725745834E+03   -0.23028E+04   -0.21611E+04 40640   0.413E+02
DAV:   3    -0.448827545256E+03   -0.24410E+03   -0.23378E+03 44740   0.146E+02
DAV:   4    -0.457129046851E+03   -0.83015E+01   -0.82465E+01 49770   0.285E+01
DAV:   5    -0.457604049778E+03   -0.47500E+00   -0.47455E+00 65520   0.511E+00    0.914E+00
DAV:   6    -0.381060744571E+03    0.76543E+02   -0.23620E+01 40960   0.151E+01    0.146E+01
DAV:   7    -0.380705563109E+03    0.35518E+00   -0.63479E+00 53510   0.917E+00    0.819E+00
DAV:   8    -0.380745318996E+03   -0.39756E-01   -0.81015E-01 52170   0.415E+00    0.411E+00
DAV:   9    -0.380809970715E+03   -0.64652E-01   -0.28878E-01 53690   0.146E+00    0.307E+00
DAV:  10    -0.380826096682E+03   -0.16126E-01   -0.51834E-02 52970   0.850E-01    0.252E+00
DAV:  11    -0.380820496001E+03    0.56007E-02   -0.14381E-02 53860   0.482E-01    0.200E+00
DAV:  12    -0.380814979994E+03    0.55160E-02   -0.14389E-02 52680   0.466E-01    0.141E+00
DAV:  13    -0.380813421598E+03    0.15584E-02   -0.11302E-02 45700   0.321E-01    0.980E-01
DAV:  14    -0.380813238173E+03    0.18342E-03   -0.24209E-03 50880   0.159E-01    0.890E-01
DAV:  15    -0.380813689076E+03   -0.45090E-03   -0.85155E-04 50700   0.724E-02    0.943E-01
DAV:  16    -0.380813782655E+03   -0.93579E-04   -0.31403E-04 37940   0.478E-02    0.970E-01
DAV:  17    -0.380813777875E+03    0.47802E-05   -0.17436E-04 45660   0.428E-02    0.943E-01
DAV:  18    -0.380813474422E+03    0.30345E-03   -0.96541E-04 47910   0.109E-01    0.795E-01
DAV:  19    -0.380813350914E+03    0.12351E-03   -0.12612E-03 46640   0.117E-01    0.627E-01
DAV:  20    -0.380813309056E+03    0.41857E-04   -0.31082E-04 51330   0.578E-02    0.554E-01
DAV:  21    -0.380813400669E+03   -0.91612E-04   -0.32602E-04 46930   0.598E-02    0.470E-01
DAV:  22    -0.380813483662E+03   -0.82994E-04   -0.29129E-04 48350   0.553E-02    0.394E-01
DAV:  23    -0.380814026536E+03   -0.54287E-03   -0.88365E-04 45070   0.101E-01    0.247E-01
DAV:  24    -0.380814543398E+03   -0.51686E-03   -0.63148E-04 45280   0.801E-02    0.145E-01
DAV:  25    -0.380814668025E+03   -0.12463E-03   -0.84682E-05 40930   0.288E-02    0.139E-01
DAV:  26    -0.380814705482E+03   -0.37458E-04   -0.11627E-05 25390   0.100E-02    0.144E-01
DAV:  27    -0.380814683794E+03    0.21688E-04   -0.42303E-06 23310   0.690E-03    0.152E-01
DAV:  28    -0.380814683409E+03    0.38535E-06   -0.15599E-06 22690   0.390E-03
   1 F= -.38081468E+03 E0= -.38081468E+03  d E =-.380815E+03  mag=     4.0000
