       N       E                     dE             d eps       ncg     rms          ort
DAV:   1     0.221078563771E+04    0.22108E+04   -0.13303E+05  9828   0.154E+03
DAV:   2    -0.256010493886E+03   -0.24668E+04   -0.23589E+04  9828   0.407E+02
DAV:   3    -0.478586096440E+03   -0.22258E+03   -0.21850E+03  9828   0.141E+02
DAV:   4    -0.486655928322E+03   -0.80698E+01   -0.79740E+01  9828   0.306E+01
DAV:   5    -0.487071733683E+03   -0.41581E+00   -0.41474E+00  9828   0.494E+00
SDA:   6    -0.264924652709E+03    0.22215E+03   -0.41474E+00  9828   0.120E+04 0.000E+00
CGA:   7    -0.317058958868E+03   -0.52134E+02   -0.12697E+03  9828   0.388E+03 0.262E+02
CGA:   8    -0.320992223732E+03   -0.39333E+01   -0.32371E+02  9828   0.326E+03-0.106E+03
CGA:   9    -0.338782894347E+03   -0.17791E+02   -0.17219E+02  9828   0.398E+03-0.712E+02
CGA:  10    -0.331537486887E+03    0.72454E+01   -0.22453E+02  9828   0.320E+03-0.213E+03
CGA:  11    -0.354747021156E+03   -0.23210E+02   -0.21573E+02  9828   0.105E+04-0.105E+04
CGA:  12    -0.354972669463E+03   -0.22565E+00   -0.84913E+02  9828   0.195E+03-0.107E+03
CGA:  13    -0.374536598157E+03   -0.19564E+02   -0.91812E+01  9828   0.659E+02 0.122E+03
CGA:  14    -0.376357958241E+03   -0.18214E+01   -0.21884E+01  9828   0.311E+02-0.106E+02
CGA:  15    -0.377634996382E+03   -0.12770E+01   -0.16370E+01  9828   0.109E+02-0.312E+01
CGA:  16    -0.379496747350E+03   -0.18618E+01   -0.18482E+01  9828   0.624E+01 0.185E-01
CGA:  17    -0.380050469200E+03   -0.55372E+00   -0.66930E+00  9828   0.387E+01 0.871E+00
CGA:  18    -0.380378081772E+03   -0.32761E+00   -0.35131E+00  9828   0.208E+01-0.264E+00
CGA:  19    -0.380680111584E+03   -0.30203E+00   -0.30498E+00  9828   0.102E+01-0.170E+00
CGA:  20    -0.380793434571E+03   -0.11332E+00   -0.11884E+00  9828   0.673E+00 0.699E-01
CGA:  21    -0.380894557312E+03   -0.10112E+00   -0.99472E-01  9828   0.691E+00-0.991E-01
CGA:  22    -0.380966359768E+03   -0.71802E-01   -0.67648E-01  9828   0.315E+00-0.282E-01
CGA:  23    -0.381004556671E+03   -0.38197E-01   -0.37589E-01  9828   0.367E+00-0.221E-01
CGA:  24    -0.381043796687E+03   -0.39240E-01   -0.38887E-01  9828   0.136E+00-0.291E-01
CGA:  25    -0.381072347992E+03   -0.28551E-01   -0.32163E-01  9828   0.179E+00-0.317E-01
CGA:  26    -0.381099635227E+03   -0.27287E-01   -0.30688E-01  9828   0.173E+00-0.410E-01
CGA:  27    -0.381118401314E+03   -0.18766E-01   -0.18638E-01  9828   0.741E-01-0.222E-01
CGA:  28    -0.381134336528E+03   -0.15935E-01   -0.36033E-01  9828   0.159E+00-0.443E-01
CGA:  29    -0.381161960641E+03   -0.27624E-01   -0.27625E-01  9828   0.357E-01 0.264E-02
CGA:  30    -0.381178602870E+03   -0.16642E-01   -0.15075E-01  9828   0.250E-01 0.693E-02
CGA:  31    -0.381188285321E+03   -0.96825E-02   -0.90249E-02  9828   0.127E-01 0.575E-02
CGA:  32    -0.381194720999E+03   -0.64357E-02   -0.57074E-02  9828   0.997E-02 0.420E-02
CGA:  33    -0.381202184604E+03   -0.74636E-02   -0.60153E-02  9828   0.134E-01 0.575E-02
CGA:  34    -0.381208293211E+03   -0.61086E-02   -0.69340E-02  9828   0.286E-01-0.256E-02
CGA:  35    -0.381199532160E+03    0.87611E-02   -0.76159E-02  9828   0.231E+00-0.390E-01
CGA:  36    -0.381251628911E+03   -0.52097E-01   -0.53256E-01  9828   0.739E-01 0.824E-03
CGA:  37    -0.381270405098E+03   -0.18776E-01   -0.19229E-01  9828   0.178E-01 0.208E-02
CGA:  38    -0.381279776234E+03   -0.93711E-02   -0.90712E-02  9828   0.126E-01 0.274E-02
CGA:  39    -0.381286380542E+03   -0.66043E-02   -0.65557E-02  9828   0.957E-02 0.105E-02
CGA:  40    -0.381293154228E+03   -0.67737E-02   -0.73263E-02  9828   0.170E-01-0.157E-02
CGA:  41    -0.381298786302E+03   -0.56321E-02   -0.56121E-02  9828   0.153E-01-0.514E-03
CGA:  42    -0.381305519298E+03   -0.67330E-02   -0.66997E-02  9828   0.103E-01 0.809E-03
CGA:  43    -0.381309476858E+03   -0.39576E-02   -0.39315E-02  9828   0.982E-02-0.215E-03
CGA:  44    -0.381312994875E+03   -0.35180E-02   -0.35209E-02  9828   0.546E-02-0.170E-03
CGA:  45    -0.381314847526E+03   -0.18527E-02   -0.18730E-02  9828   0.373E-02 0.178E-03
CGA:  46    -0.381315933303E+03   -0.10858E-02   -0.11157E-02  9828   0.161E-02 0.209E-03
CGA:  47    -0.381316328610E+03   -0.39531E-03   -0.45480E-03  9828   0.856E-03 0.421E-03
CGA:  48    -0.381316509167E+03   -0.18056E-03   -0.25551E-03  9828   0.479E-03 0.463E-03
CGA:  49    -0.381316618489E+03   -0.10932E-03   -0.12687E-03  9828   0.255E-03 0.142E-03
CGA:  50    -0.381316655535E+03   -0.37046E-04   -0.72237E-04  9828   0.140E-03 0.215E-03
CGA:  51    -0.381316663759E+03   -0.82241E-05   -0.26367E-04  9828   0.918E-04 0.972E-04
CGA:  52    -0.381316668107E+03   -0.43477E-05   -0.18121E-04  9828   0.755E-04 0.816E-04
CGA:  53    -0.381316670070E+03   -0.19634E-05   -0.13929E-04  9828   0.644E-04 0.691E-04
CGA:  54    -0.381316671517E+03   -0.14464E-05   -0.11562E-04  9828   0.559E-04 0.596E-04
   1 F= -.38131667E+03 E0= -.38131667E+03  d E =-.381317E+03  mag=     4.0000
       N       E                     dE             d eps       ncg     rms          ort
SDA:   1    -0.381318080456E+03   -0.14104E-02    0.00000E+00  9828   0.297E-03 0.000E+00
CGA:   2    -0.381318127766E+03   -0.47310E-04   -0.57530E-04  9828   0.100E-03 0.738E-04
CGA:   3    -0.381318153785E+03   -0.26019E-04   -0.29482E-04  9828   0.436E-04 0.386E-04
CGA:   4    -0.381318177139E+03   -0.23354E-04   -0.23117E-04  9828   0.477E-04 0.330E-05
CGA:   5    -0.381318185545E+03   -0.84063E-05   -0.11245E-04  9828   0.451E-04 0.265E-04
   2 F= -.38131819E+03 E0= -.38131819E+03  d E =-.151403E-02  mag=     4.0000
       N       E                     dE             d eps       ncg     rms          ort
SDA:   1    -0.381138428649E+03    0.17975E+00    0.00000E+00  9828   0.731E+00 0.000E+00
CGA:   2    -0.381308352361E+03   -0.16992E+00   -0.17018E+00  9828   0.255E+00 0.325E-02
CGA:   3    -0.381368004617E+03   -0.59652E-01   -0.59609E-01  9828   0.675E-01-0.854E-03
CGA:   4    -0.381381419229E+03   -0.13415E-01   -0.13251E-01  9828   0.139E-01-0.147E-02
CGA:   5    -0.381384230467E+03   -0.28112E-02   -0.27767E-02  9828   0.362E-02-0.363E-03
CGA:   6    -0.381385078733E+03   -0.84827E-03   -0.85291E-03  9828   0.118E-02 0.883E-04
CGA:   7    -0.381385411902E+03   -0.33317E-03   -0.33509E-03  9828   0.440E-03 0.119E-03
CGA:   8    -0.381385583975E+03   -0.17207E-03   -0.17204E-03  9828   0.245E-03 0.173E-06
CGA:   9    -0.381385677249E+03   -0.93274E-04   -0.13635E-03  9828   0.356E-03-0.165E-03
CGA:  10    -0.381385727337E+03   -0.50087E-04   -0.57656E-04  9828   0.553E-04 0.523E-04
CGA:  11    -0.381385745591E+03   -0.18255E-04   -0.18350E-04  9828   0.280E-04 0.853E-05
CGA:  12    -0.381385758286E+03   -0.12695E-04   -0.12299E-04  9828   0.212E-04 0.466E-05
CGA:  13    -0.381385718913E+03    0.39373E-04   -0.24249E-04  9828   0.317E-03-0.555E-04
CGA:  14    -0.381385793379E+03   -0.74466E-04   -0.78841E-04  9828   0.886E-04 0.149E-04
CGA:  15    -0.381385802237E+03   -0.88577E-05   -0.17724E-04  9828   0.287E-04 0.258E-04
CGA:  16    -0.381385813293E+03   -0.11056E-04   -0.12876E-04  9828   0.186E-04 0.103E-04
CGA:  17    -0.381385822527E+03   -0.92336E-05   -0.82857E-05  9828   0.197E-04-0.511E-05
   3 F= -.38138582E+03 E0= -.38138582E+03  d E =-.676370E-01  mag=     4.0000
       N       E                     dE             d eps       ncg     rms          ort
SDA:   1    -0.380754508678E+03    0.63130E+00    0.00000E+00  9828   0.219E+01 0.000E+00
CGA:   2    -0.381257068260E+03   -0.50256E+00   -0.50353E+00  9828   0.677E+00 0.372E-02
CGA:   3    -0.381418502207E+03   -0.16143E+00   -0.16136E+00  9828   0.188E+00-0.992E-03
CGA:   4    -0.381455356949E+03   -0.36855E-01   -0.36544E-01  9828   0.382E-01-0.105E-02
CGA:   5    -0.381463253532E+03   -0.78966E-02   -0.78002E-02  9828   0.102E-01-0.393E-03
CGA:   6    -0.381465875469E+03   -0.26219E-02   -0.26229E-02  9828   0.392E-02 0.794E-05
CGA:   7    -0.381467075525E+03   -0.12001E-02   -0.12136E-02  9828   0.172E-02 0.116E-03
CGA:   8    -0.381467695361E+03   -0.61984E-03   -0.61939E-03  9828   0.799E-03-0.627E-05
CGA:   9    -0.381467986990E+03   -0.29163E-03   -0.28610E-03  9828   0.332E-03-0.947E-04
CGA:  10    -0.381468078963E+03   -0.91974E-04   -0.89684E-04  9828   0.110E-03-0.209E-04
CGA:  11    -0.381468109853E+03   -0.30890E-04   -0.31047E-04  9828   0.433E-04 0.155E-05
CGA:  12    -0.381468120659E+03   -0.10806E-04   -0.11851E-04  9828   0.179E-04 0.781E-05
CGA:  13    -0.381468131622E+03   -0.10962E-04   -0.12065E-04  9828   0.211E-04-0.647E-05
CGA:  14    -0.381468136865E+03   -0.52430E-05   -0.52318E-05  9828   0.183E-04-0.871E-06
   4 F= -.38146814E+03 E0= -.38146814E+03  d E =-.823143E-01  mag=     4.0000
       N       E                     dE             d eps       ncg     rms          ort
SDA:   1    -0.380798393826E+03    0.66974E+00    0.00000E+00  9828   0.218E+01 0.000E+00
CGA:   2    -0.381337786830E+03   -0.53939E+00   -0.53982E+00  9828   0.587E+00 0.132E-02
CGA:   3    -0.381488992260E+03   -0.15121E+00   -0.15110E+00  9828   0.147E+00-0.498E-03
CGA:   4    -0.381518157956E+03   -0.29166E-01   -0.29102E-01  9828   0.324E-01-0.365E-03
CGA:   5    -0.381525028500E+03   -0.68705E-02   -0.68168E-02  9828   0.967E-02-0.323E-03
CGA:   6    -0.381527762572E+03   -0.27341E-02   -0.27290E-02  9828   0.435E-02-0.564E-04
CGA:   7    -0.381529140079E+03   -0.13775E-02   -0.13830E-02  9828   0.208E-02 0.127E-03
CGA:   8    -0.381529857526E+03   -0.71745E-03   -0.71808E-03  9828   0.825E-03 0.247E-04
CGA:   9    -0.381530130234E+03   -0.27271E-03   -0.27145E-03  9828   0.263E-03-0.359E-04
CGA:  10    -0.381530218273E+03   -0.88039E-04   -0.87581E-04  9828   0.105E-03-0.438E-04
CGA:  11    -0.381530238236E+03   -0.19963E-04   -0.21507E-04  9828   0.331E-04 0.139E-04
CGA:  12    -0.381530248864E+03   -0.10629E-04   -0.10815E-04  9828   0.132E-04 0.290E-05
CGA:  13    -0.381530254349E+03   -0.54849E-05   -0.54779E-05  9828   0.672E-05 0.179E-06
   5 F= -.38153025E+03 E0= -.38153025E+03  d E =-.621175E-01  mag=     4.0000
       N       E                     dE             d eps       ncg     rms          ort
SDA:   1    -0.380458176742E+03    0.10721E+01    0.00000E+00  9828   0.335E+01 0.000E+00
CGA:   2    -0.381288766237E+03   -0.83059E+00   -0.83089E+00  9828   0.870E+00-0.580E-03
CGA:   3    -0.381517704501E+03   -0.22894E+00   -0.22889E+00  9828   0.208E+00-0.663E-04
CGA:   4    -0.381559283542E+03   -0.41579E-01   -0.41640E-01  9828   0.474E-01 0.372E-03
CGA:   5    -0.381569295820E+03   -0.10012E-01   -0.99785E-02  9828   0.148E-01-0.278E-03
CGA:   6    -0.381573692520E+03   -0.43967E-02   -0.43919E-02  9828   0.713E-02-0.150E-03
CGA:   7    -0.381576036358E+03   -0.23438E-02   -0.23433E-02  9828   0.367E-02 0.116E-03
CGA:   8    -0.381577252122E+03   -0.12158E-02   -0.12158E-02  9828   0.141E-02 0.102E-04
CGA:   9    -0.381577659323E+03   -0.40720E-03   -0.40838E-03  9828   0.393E-03 0.313E-04
CGA:  10    -0.381577799421E+03   -0.14010E-03   -0.14325E-03  9828   0.199E-03-0.102E-03
CGA:  11    -0.381577828100E+03   -0.28679E-04   -0.31249E-04  9828   0.642E-04 0.227E-04
CGA:  12    -0.381577842274E+03   -0.14174E-04   -0.15598E-04  9828   0.233E-04 0.138E-04
CGA:  13    -0.381577851691E+03   -0.94171E-05   -0.95685E-05  9828   0.189E-04-0.713E-05
   6 F= -.38157785E+03 E0= -.38157785E+03  d E =-.475973E-01  mag=     4.0000
       N       E                     dE             d eps       ncg     rms          ort
SDA:   1    -0.379299882286E+03    0.22780E+01    0.00000E+00  9828   0.648E+01 0.000E+00
CGA:   2    -0.381005039612E+03   -0.17052E+01   -0.17054E+01  9828   0.190E+01-0.442E-03
CGA:   3    -0.381479547685E+03   -0.47451E+00   -0.47443E+00  9828   0.438E+00-0.102E-02
CGA:   4    -0.381563125009E+03   -0.83577E-01   -0.83631E-01  9828   0.931E-01 0.402E-03
CGA:   5    -0.381582748616E+03   -0.19624E-01   -0.19616E-01  9828   0.271E-01-0.119E-03
CGA:   6    -0.381590448364E+03   -0.76997E-02   -0.76973E-02  9828   0.123E-01-0.282E-03
CGA:   7    -0.381594413287E+03   -0.39649E-02   -0.39657E-02  9828   0.643E-02-0.197E-04
CGA:   8    -0.381596559621E+03   -0.21463E-02   -0.21437E-02  9828   0.260E-02 0.644E-04
CGA:   9    -0.381597362594E+03   -0.80297E-03   -0.80309E-03  9828   0.780E-03-0.113E-04
CGA:  10    -0.381597605917E+03   -0.24332E-03   -0.24467E-03  9828   0.271E-03-0.717E-04
CGA:  11    -0.381597679764E+03   -0.73846E-04   -0.73875E-04  9828   0.105E-03-0.100E-04
CGA:  12    -0.381597706481E+03   -0.26717E-04   -0.27018E-04  9828   0.364E-04 0.103E-04
CGA:  13    -0.381597719680E+03   -0.13199E-04   -0.13073E-04  9828   0.125E-04 0.399E-05
CGA:  14    -0.381597725577E+03   -0.58978E-05   -0.10517E-04  9828   0.229E-04-0.101E-04
   7 F= -.38159773E+03 E0= -.38159773E+03  d E =-.198739E-01  mag=     4.0000
       N       E                     dE             d eps       ncg     rms          ort
SDA:   1    -0.381328092727E+03    0.26963E+00    0.00000E+00  9828   0.684E+00 0.000E+00
CGA:   2    -0.381539668715E+03   -0.21158E+00   -0.21157E+00  9828   0.257E+00-0.578E-03
CGA:   3    -0.381591124192E+03   -0.51455E-01   -0.51481E-01  9828   0.495E-01 0.157E-03
CGA:   4    -0.381600293561E+03   -0.91694E-02   -0.92042E-02  9828   0.101E-01 0.275E-03
CGA:   5    -0.381602357864E+03   -0.20643E-02   -0.20682E-02  9828   0.254E-02 0.376E-04
CGA:   6    -0.381602987974E+03   -0.63011E-03   -0.62673E-03  9828   0.794E-03-0.603E-04
CGA:   7    -0.381603210959E+03   -0.22298E-03   -0.22284E-03  9828   0.319E-03-0.127E-04
CGA:   8    -0.381603314195E+03   -0.10324E-03   -0.10279E-03  9828   0.137E-03 0.154E-04
CGA:   9    -0.381603354964E+03   -0.40769E-04   -0.41071E-04  9828   0.438E-04 0.235E-04
CGA:  10    -0.381603375442E+03   -0.20478E-04   -0.21514E-04  9828   0.289E-04-0.868E-05
CGA:  11    -0.381603384078E+03   -0.86367E-05   -0.88410E-05  9828   0.168E-04-0.273E-05
   8 F= -.38160338E+03 E0= -.38160338E+03  d E =-.565850E-02  mag=     4.0000
       N       E                     dE             d eps       ncg     rms          ort
SDA:   1    -0.381432590630E+03    0.17078E+00    0.00000E+00  9828   0.428E+00 0.000E+00
CGA:   2    -0.381573286498E+03   -0.14070E+00   -0.14071E+00  9828   0.146E+00-0.955E-03
CGA:   3    -0.381602016018E+03   -0.28730E-01   -0.28792E-01  9828   0.295E-01 0.529E-03
CGA:   4    -0.381607509648E+03   -0.54936E-02   -0.55330E-02  9828   0.596E-02 0.332E-03
CGA:   5    -0.381608724973E+03   -0.12153E-02   -0.12221E-02  9828   0.144E-02 0.690E-04
CGA:   6    -0.381609080356E+03   -0.35538E-03   -0.35392E-03  9828   0.423E-03-0.276E-04
CGA:   7    -0.381609200219E+03   -0.11986E-03   -0.11976E-03  9828   0.166E-03-0.258E-04
CGA:   8    -0.381609248145E+03   -0.47925E-04   -0.47803E-04  9828   0.611E-04 0.915E-05
CGA:   9    -0.381609265429E+03   -0.17284E-04   -0.17571E-04  9828   0.199E-04 0.137E-04
CGA:  10    -0.381609275215E+03   -0.97865E-05   -0.98196E-05  9828   0.142E-04-0.371E-06
CGA:  11    -0.381609274895E+03    0.31984E-06   -0.16091E-04  9828   0.839E-04-0.195E-04
CGA:  12    -0.381609296062E+03   -0.21167E-04   -0.21439E-04  9828   0.213E-04 0.318E-05
CGA:  13    -0.381609307562E+03   -0.11500E-04   -0.12980E-04  9828   0.244E-04-0.601E-05
CGA:  14    -0.381609263842E+03    0.43720E-04   -0.25435E-04  9828   0.405E-03-0.630E-04
CGA:  15    -0.381609328087E+03   -0.64245E-04   -0.65581E-04  9828   0.648E-04 0.731E-05
CGA:  16    -0.381609357108E+03   -0.29021E-04   -0.28915E-04  9828   0.241E-04 0.232E-05
CGA:  17    -0.381609368028E+03   -0.10920E-04   -0.11480E-04  9828   0.309E-04-0.868E-05
CGA:  18    -0.381609375070E+03   -0.70422E-05   -0.11325E-04  9828   0.630E-04-0.246E-04
CGA:  19    -0.381609388654E+03   -0.13583E-04   -0.14727E-04  9828   0.206E-04 0.675E-05
CGA:  20    -0.381609397864E+03   -0.92101E-05   -0.92277E-05  9828   0.161E-04-0.261E-05
CGA:  21    -0.381609322837E+03    0.75026E-04   -0.40734E-04  9828   0.422E-03-0.525E-04
CGA:  22    -0.381609410482E+03   -0.87645E-04   -0.84220E-04  9828   0.149E-03-0.426E-05
CGA:  23    -0.381609463138E+03   -0.52656E-04   -0.54810E-04  9828   0.286E-04 0.675E-05
CGA:  24    -0.381609481975E+03   -0.18837E-04   -0.17337E-04  9828   0.281E-04-0.146E-04
CGA:  25    -0.381609488418E+03   -0.64430E-05   -0.70164E-05  9828   0.832E-05 0.138E-05
   9 F= -.38160949E+03 E0= -.38160949E+03  d E =-.610434E-02  mag=     4.0000
       N       E                     dE             d eps       ncg     rms          ort
SDA:   1    -0.380719447129E+03    0.89003E+00    0.00000E+00  9828   0.212E+01 0.000E+00
CGA:   2    -0.381448863114E+03   -0.72942E+00   -0.72906E+00  9828   0.669E+00-0.842E-03
CGA:   3    -0.381582428473E+03   -0.13357E+00   -0.13372E+00  9828   0.130E+00 0.850E-03
CGA:   4    -0.381606313107E+03   -0.23885E-01   -0.24007E-01  9828   0.281E-01 0.245E-03
CGA:   5    -0.381612077922E+03   -0.57648E-02   -0.57799E-02  9828   0.682E-02 0.409E-04
CGA:   6    -0.381613740474E+03   -0.16626E-02   -0.16392E-02  9828   0.201E-02-0.683E-04
CGA:   7    -0.381614331353E+03   -0.59088E-03   -0.57665E-03  9828   0.824E-03-0.520E-04
CGA:   8    -0.381614598911E+03   -0.26756E-03   -0.27022E-03  9828   0.354E-03 0.126E-04
CGA:   9    -0.381614724491E+03   -0.12558E-03   -0.12397E-03  9828   0.139E-03-0.844E-05
CGA:  10    -0.381614777829E+03   -0.53338E-04   -0.50634E-04  9828   0.686E-04-0.177E-04
CGA:  11    -0.381614810276E+03   -0.32447E-04   -0.41629E-04  9828   0.163E-03-0.525E-04
CGA:  12    -0.381614832741E+03   -0.22465E-04   -0.28937E-04  9828   0.348E-04 0.188E-04
CGA:  13    -0.381614850200E+03   -0.17459E-04   -0.16869E-04  9828   0.343E-04-0.773E-05
CGA:  14    -0.381614859742E+03   -0.95418E-05   -0.29394E-04  9828   0.134E-03-0.342E-04
CGA:  15    -0.381614908991E+03   -0.49249E-04   -0.45024E-04  9828   0.714E-04-0.207E-04
CGA:  16    -0.381614923344E+03   -0.14353E-04   -0.14525E-04  9828   0.226E-04 0.766E-06
CGA:  17    -0.381614935793E+03   -0.12449E-04   -0.14290E-04  9828   0.444E-04-0.163E-04
CGA:  18    -0.381614950532E+03   -0.14739E-04   -0.13575E-04  9828   0.968E-05-0.551E-05
CGA:  19    -0.381614961048E+03   -0.10516E-04    0.97236E-05  9828   0.615E-05 0.404E-05
CGA:  20    -0.381614975233E+03   -0.14185E-04    0.36606E-05  9828   0.632E-05 0.465E-05
CGA:  21    -0.381614978980E+03   -0.37469E-05   -0.40239E-05  9828   0.189E-04-0.217E-05
  10 F= -.38161498E+03 E0= -.38161498E+03  d E =-.549056E-02  mag=     4.0000
       N       E                     dE             d eps       ncg     rms          ort
SDA:   1    -0.377328051215E+03    0.42869E+01    0.00000E+00  9828   0.104E+02 0.000E+00
CGA:   2    -0.380666999878E+03   -0.33389E+01   -0.33407E+01  9828   0.365E+01 0.669E-04
CGA:   3    -0.381407889713E+03   -0.74089E+00   -0.74103E+00  9828   0.704E+00 0.823E-03
CGA:   4    -0.381544931742E+03   -0.13704E+00   -0.13682E+00  9828   0.143E+00 0.501E-03
CGA:   5    -0.381575147503E+03   -0.30216E-01   -0.30192E-01  9828   0.376E-01-0.830E-04
CGA:   6    -0.381584295049E+03   -0.91475E-02   -0.90853E-02  9828   0.119E-01-0.291E-03
CGA:   7    -0.381587832285E+03   -0.35372E-02   -0.34924E-02  9828   0.493E-02-0.290E-03
CGA:   8    -0.381589484916E+03   -0.16526E-02   -0.16348E-02  9828   0.228E-02-0.172E-03
CGA:   9    -0.381590266202E+03   -0.78129E-03   -0.75913E-03  9828   0.959E-03-0.237E-03
CGA:  10    -0.381590532530E+03   -0.26633E-03   -0.25890E-03  9828   0.354E-03-0.560E-04
CGA:  11    -0.381590674774E+03   -0.14224E-03   -0.14223E-03  9828   0.295E-03-0.101E-03
CGA:  12    -0.381590759730E+03   -0.84956E-04   -0.83408E-04  9828   0.222E-03-0.489E-04
CGA:  13    -0.381590845700E+03   -0.85970E-04   -0.12728E-03  9828   0.377E-03-0.159E-03
CGA:  14    -0.381590919859E+03   -0.74159E-04   -0.80946E-04  9828   0.778E-04 0.312E-04
CGA:  15    -0.381590950571E+03   -0.30712E-04   -0.29254E-04  9828   0.607E-04-0.181E-04
CGA:  16    -0.381590968637E+03   -0.18066E-04   -0.18094E-04  9828   0.340E-04 0.956E-06
CGA:  17    -0.381590987843E+03   -0.19206E-04   -0.25311E-04  9828   0.550E-04-0.197E-04
CGA:  18    -0.381591010934E+03   -0.23091E-04   -0.22529E-04  9828   0.361E-04-0.207E-04
CGA:  19    -0.381591014348E+03   -0.34138E-05   -0.43130E-05  9828   0.156E-04 0.380E-05
  11 F= -.38159101E+03 E0= -.38159101E+03  d E =0.239646E-01  mag=     4.0000
       N       E                     dE             d eps       ncg     rms          ort
SDA:   1    -0.381487283059E+03    0.10373E+00    0.00000E+00  9828   0.320E+00 0.000E+00
CGA:   2    -0.381590322534E+03   -0.10304E+00   -0.10298E+00  9828   0.116E+00-0.419E-03
CGA:   3    -0.381613252595E+03   -0.22930E-01   -0.22978E-01  9828   0.265E-01 0.203E-03
CGA:   4    -0.381618549807E+03   -0.52972E-02   -0.53890E-02  9828   0.543E-02 0.468E-03
CGA:   5    -0.381619676835E+03   -0.11270E-02   -0.11452E-02  9828   0.153E-02 0.965E-04
CGA:   6    -0.381620076528E+03   -0.39969E-03   -0.40002E-03  9828   0.550E-03 0.276E-05
CGA:   7    -0.381620226452E+03   -0.14992E-03   -0.15115E-03  9828   0.200E-03 0.121E-04
CGA:   8    -0.381620298971E+03   -0.72519E-04   -0.71834E-04  9828   0.103E-03-0.296E-04
CGA:   9    -0.381620316265E+03   -0.17294E-04   -0.19463E-04  9828   0.284E-04 0.145E-04
CGA:  10    -0.381620324853E+03   -0.85884E-05   -0.87345E-05  9828   0.110E-04 0.149E-05
CGA:  11    -0.381620323853E+03    0.99991E-06   -0.10552E-04  9828   0.720E-04-0.211E-04
CGA:  12    -0.381620332111E+03   -0.82573E-05   -0.11298E-04  9828   0.110E-04 0.133E-04
  12 F= -.38162033E+03 E0= -.38162033E+03  d E =-.293178E-01  mag=     4.0000
       N       E                     dE             d eps       ncg     rms          ort
SDA:   1    -0.381618028983E+03    0.22949E-02    0.00000E+00  9828   0.145E-01 0.000E+00
CGA:   2    -0.381622610258E+03   -0.45813E-02   -0.45620E-02  9828   0.566E-02-0.268E-03
CGA:   3    -0.381623683140E+03   -0.10729E-02   -0.10899E-02  9828   0.117E-02 0.901E-04
CGA:   4    -0.381623880462E+03   -0.19732E-03   -0.21903E-03  9828   0.231E-03 0.115E-03
CGA:   5    -0.381623920608E+03   -0.40146E-04   -0.46470E-04  9828   0.619E-04 0.351E-04
CGA:   6    -0.381623938464E+03   -0.17856E-04   -0.18317E-04  9828   0.227E-04 0.471E-05
CGA:   7    -0.381623946815E+03   -0.83503E-05   -0.83338E-05  9828   0.111E-04-0.188E-05
  13 F= -.38162395E+03 E0= -.38162395E+03  d E =-.361470E-02  mag=     4.0000
       N       E                     dE             d eps       ncg     rms          ort
SDA:   1    -0.381512047385E+03    0.11189E+00    0.00000E+00  9828   0.304E+00 0.000E+00
CGA:   2    -0.381602214450E+03   -0.90167E-01   -0.90116E-01  9828   0.123E+00-0.884E-03
CGA:   3    -0.381626638433E+03   -0.24424E-01   -0.24456E-01  9828   0.255E-01 0.219E-03
CGA:   4    -0.381631540662E+03   -0.49022E-02   -0.49839E-02  9828   0.551E-02 0.556E-03
CGA:   5    -0.381632640293E+03   -0.10996E-02   -0.11230E-02  9828   0.136E-02 0.173E-03
CGA:   6    -0.381632999592E+03   -0.35930E-03   -0.35913E-03  9828   0.477E-03-0.221E-05
CGA:   7    -0.381633136487E+03   -0.13689E-03   -0.13690E-03  9828   0.181E-03 0.263E-06
CGA:   8    -0.381633196215E+03   -0.59728E-04   -0.59794E-04  9828   0.796E-04-0.913E-05
CGA:   9    -0.381633211031E+03   -0.14816E-04   -0.16843E-04  9828   0.233E-04 0.203E-04
CGA:  10    -0.381633218170E+03   -0.71390E-05   -0.74626E-05  9828   0.903E-05 0.516E-05
  14 F= -.38163322E+03 E0= -.38163322E+03  d E =-.927135E-02  mag=     4.0000
       N       E                     dE             d eps       ncg     rms          ort
SDA:   1    -0.381631435314E+03    0.17757E-02    0.00000E+00  9828   0.771E-02 0.000E+00
CGA:   2    -0.381633456501E+03   -0.20212E-02   -0.20149E-02  9828   0.332E-02-0.113E-03
CGA:   3    -0.381634150241E+03   -0.69374E-03   -0.69280E-03  9828   0.687E-03-0.111E-04
CGA:   4    -0.381634272503E+03   -0.12226E-03   -0.12359E-03  9828   0.136E-03 0.104E-04
CGA:   5    -0.381634297233E+03   -0.24730E-04   -0.26077E-04  9828   0.303E-04 0.118E-04
CGA:   6    -0.381634303764E+03   -0.65318E-05   -0.70900E-05  9828   0.954E-05 0.681E-05
  15 F= -.38163430E+03 E0= -.38163430E+03  d E =-.108559E-02  mag=     4.0000
       N       E                     dE             d eps       ncg     rms          ort
SDA:   1    -0.381614116616E+03    0.20181E-01    0.00000E+00  9828   0.608E-01 0.000E+00
CGA:   2    -0.381630302349E+03   -0.16186E-01   -0.16177E-01  9828   0.253E-01-0.314E-03
CGA:   3    -0.381635671069E+03   -0.53687E-02   -0.53626E-02  9828   0.504E-02-0.855E-04
CGA:   4    -0.381636591105E+03   -0.92004E-03   -0.93102E-03  9828   0.980E-03 0.106E-03
CGA:   5    -0.381636785046E+03   -0.19394E-03   -0.19836E-03  9828   0.239E-03 0.514E-04
CGA:   6    -0.381636846100E+03   -0.61055E-04   -0.61405E-04  9828   0.792E-04 0.981E-05
CGA:   7    -0.381636871938E+03   -0.25838E-04   -0.25873E-04  9828   0.380E-04-0.987E-06
CGA:   8    -0.381636886099E+03   -0.14161E-04   -0.14852E-04  9828   0.241E-04-0.597E-05
CGA:   9    -0.381636890346E+03   -0.42470E-05   -0.45527E-05  9828   0.814E-05 0.497E-05
  16 F= -.38163689E+03 E0= -.38163689E+03  d E =-.258658E-02  mag=     4.0000
       N       E                     dE             d eps       ncg     rms          ort
SDA:   1    -0.381567058560E+03    0.69828E-01    0.00000E+00  9828   0.197E+00 0.000E+00
CGA:   2    -0.381619072289E+03   -0.52014E-01   -0.52008E-01  9828   0.812E-01-0.373E-03
CGA:   3    -0.381636480924E+03   -0.17409E-01   -0.17389E-01  9828   0.167E-01-0.336E-03
CGA:   4    -0.381639518124E+03   -0.30372E-02   -0.30441E-02  9828   0.321E-02 0.762E-04
CGA:   5    -0.381640160801E+03   -0.64268E-03   -0.64719E-03  9828   0.793E-03 0.651E-04
CGA:   6    -0.381640357279E+03   -0.19648E-03   -0.19679E-03  9828   0.254E-03 0.136E-04
CGA:   7    -0.381640436247E+03   -0.78968E-04   -0.79201E-04  9828   0.116E-03-0.556E-05
CGA:   8    -0.381640479473E+03   -0.43226E-04   -0.46181E-04  9828   0.772E-04-0.214E-04
CGA:   9    -0.381640497246E+03   -0.17773E-04   -0.17757E-04  9828   0.255E-04 0.217E-05
CGA:  10    -0.381640503970E+03   -0.67236E-05   -0.67797E-05  9828   0.880E-05 0.342E-05
  17 F= -.38164050E+03 E0= -.38164050E+03  d E =-.361362E-02  mag=     4.0000
       N       E                     dE             d eps       ncg     rms          ort
SDA:   1    -0.381498858842E+03    0.14164E+00    0.00000E+00  9828   0.370E+00 0.000E+00
CGA:   2    -0.381607469188E+03   -0.10861E+00   -0.10863E+00  9828   0.143E+00-0.780E-03
CGA:   3    -0.381637040087E+03   -0.29571E-01   -0.29553E-01  9828   0.285E-01-0.266E-03
CGA:   4    -0.381642237455E+03   -0.51974E-02   -0.52088E-02  9828   0.560E-02 0.135E-03
CGA:   5    -0.381643382291E+03   -0.11448E-02   -0.11494E-02  9828   0.140E-02 0.767E-04
CGA:   6    -0.381643738718E+03   -0.35643E-03   -0.35636E-03  9828   0.469E-03-0.741E-05
CGA:   7    -0.381643885083E+03   -0.14636E-03   -0.14809E-03  9828   0.232E-03-0.297E-04
CGA:   8    -0.381643964660E+03   -0.79577E-04   -0.82873E-04  9828   0.129E-03-0.280E-04
CGA:   9    -0.381643999948E+03   -0.35289E-04   -0.35407E-04  9828   0.418E-04-0.271E-05
CGA:  10    -0.381644010857E+03   -0.10909E-04   -0.10930E-04  9828   0.130E-04 0.555E-05
CGA:  11    -0.381644013903E+03   -0.30461E-05   -0.33011E-05  9828   0.541E-05 0.559E-05
  18 F= -.38164401E+03 E0= -.38164401E+03  d E =-.350993E-02  mag=     4.0000
       N       E                     dE             d eps       ncg     rms          ort
SDA:   1    -0.378189921476E+03    0.34541E+01    0.00000E+00  9828   0.848E+01 0.000E+00
CGA:   2    -0.380870952123E+03   -0.26810E+01   -0.26811E+01  9828   0.314E+01-0.203E-02
CGA:   3    -0.381500426619E+03   -0.62947E+00   -0.62916E+00  9828   0.589E+00-0.202E-02
CGA:   4    -0.381609075087E+03   -0.10865E+00   -0.10883E+00  9828   0.122E+00 0.191E-02
CGA:   5    -0.381634390492E+03   -0.25315E-01   -0.25351E-01  9828   0.302E-01 0.665E-03
CGA:   6    -0.381641847510E+03   -0.74570E-02   -0.74524E-02  9828   0.962E-02-0.346E-03
CGA:   7    -0.381644684167E+03   -0.28367E-02   -0.28513E-02  9828   0.427E-02-0.350E-03
CGA:   8    -0.381646128618E+03   -0.14445E-02   -0.14720E-02  9828   0.210E-02-0.282E-03
CGA:   9    -0.381646743628E+03   -0.61501E-03   -0.61513E-03  9828   0.684E-03-0.188E-05
CGA:  10    -0.381646967900E+03   -0.22427E-03   -0.22895E-03  9828   0.283E-03-0.694E-04
CGA:  11    -0.381647039638E+03   -0.71739E-04   -0.71496E-04  9828   0.114E-03 0.245E-04
CGA:  12    -0.381647090322E+03   -0.50683E-04   -0.65408E-04  9828   0.155E-03-0.579E-04
CGA:  13    -0.381647115268E+03   -0.24946E-04   -0.27966E-04  9828   0.305E-04 0.295E-04
CGA:  14    -0.381647128579E+03   -0.13311E-04   -0.14138E-04  9828   0.281E-04-0.760E-05
CGA:  15    -0.381647134019E+03   -0.54397E-05   -0.56069E-05  9828   0.220E-04 0.879E-05
  19 F= -.38164713E+03 E0= -.38164713E+03  d E =-.312012E-02  mag=     4.0000
       N       E                     dE             d eps       ncg     rms          ort
SDA:   1    -0.380988312814E+03    0.65882E+00    0.00000E+00  9828   0.158E+01 0.000E+00
CGA:   2    -0.381526016274E+03   -0.53770E+00   -0.53786E+00  9828   0.541E+00-0.261E-02
CGA:   3    -0.381630857852E+03   -0.10484E+00   -0.10493E+00  9828   0.956E-01 0.735E-03
CGA:   4    -0.381649161947E+03   -0.18304E-01   -0.18339E-01  9828   0.204E-01 0.400E-03
CGA:   5    -0.381653448385E+03   -0.42864E-02   -0.42900E-02  9828   0.499E-02 0.527E-04
CGA:   6    -0.381654655858E+03   -0.12075E-02   -0.12027E-02  9828   0.149E-02-0.143E-03
CGA:   7    -0.381655088446E+03   -0.43259E-03   -0.43671E-03  9828   0.627E-03-0.134E-03
CGA:   8    -0.381655277573E+03   -0.18913E-03   -0.19219E-03  9828   0.267E-03-0.481E-04
CGA:   9    -0.381655361253E+03   -0.83679E-04   -0.86401E-04  9828   0.101E-03-0.370E-04
CGA:  10    -0.381655385009E+03   -0.23757E-04   -0.23782E-04  9828   0.292E-04 0.441E-05
CGA:  11    -0.381655239173E+03    0.14584E-03   -0.78696E-04  9828   0.829E-03-0.133E-03
CGA:  12    -0.381655386817E+03   -0.14764E-03   -0.16288E-03  9828   0.135E-03 0.507E-04
CGA:  13    -0.381655430962E+03   -0.44146E-04   -0.37833E-04  9828   0.400E-04-0.269E-04
CGA:  14    -0.381655435099E+03   -0.41363E-05   -0.64638E-05  9828   0.921E-05 0.837E-05
  20 F= -.38165544E+03 E0= -.38165544E+03  d E =-.830108E-02  mag=     4.0000
       N       E                     dE             d eps       ncg     rms          ort
SDA:   1    -0.381381042784E+03    0.27439E+00    0.00000E+00  9828   0.717E+00 0.000E+00
CGA:   2    -0.381584840385E+03   -0.20380E+00   -0.20393E+00  9828   0.280E+00 0.827E-03
CGA:   3    -0.381643385541E+03   -0.58545E-01   -0.58517E-01  9828   0.586E-01-0.309E-03
CGA:   4    -0.381654493620E+03   -0.11108E-01   -0.11018E-01  9828   0.122E-01-0.347E-03
CGA:   5    -0.381657008645E+03   -0.25150E-02   -0.24850E-02  9828   0.308E-02-0.136E-03
CGA:   6    -0.381657764094E+03   -0.75545E-03   -0.75576E-03  9828   0.101E-02 0.203E-05
CGA:   7    -0.381658049765E+03   -0.28567E-03   -0.28926E-03  9828   0.408E-03 0.303E-04
CGA:   8    -0.381658194164E+03   -0.14440E-03   -0.14461E-03  9828   0.193E-03 0.377E-05
CGA:   9    -0.381658267029E+03   -0.72865E-04   -0.72343E-04  9828   0.827E-04-0.201E-04
CGA:  10    -0.381658288936E+03   -0.21907E-04   -0.21884E-04  9828   0.246E-04-0.207E-06
CGA:  11    -0.381658296148E+03   -0.72125E-05   -0.73895E-05  9828   0.854E-05 0.198E-05
  21 F= -.38165830E+03 E0= -.38165830E+03  d E =-.286105E-02  mag=     4.0000
       N       E                     dE             d eps       ncg     rms          ort
SDA:   1    -0.381548091208E+03    0.11020E+00    0.00000E+00  9828   0.267E+00 0.000E+00
CGA:   2    -0.381638567382E+03   -0.90476E-01   -0.90445E-01  9828   0.934E-01-0.785E-03
CGA:   3    -0.381656614787E+03   -0.18047E-01   -0.18108E-01  9828   0.170E-01 0.337E-03
CGA:   4    -0.381659699365E+03   -0.30846E-02   -0.31281E-02  9828   0.362E-02 0.236E-03
CGA:   5    -0.381660444922E+03   -0.74556E-03   -0.75610E-03  9828   0.856E-03 0.691E-04
CGA:   6    -0.381660657991E+03   -0.21307E-03   -0.21114E-03  9828   0.258E-03-0.177E-04
CGA:   7    -0.381660737494E+03   -0.79504E-04   -0.78499E-04  9828   0.114E-03-0.281E-04
CGA:   8    -0.381660772093E+03   -0.34599E-04   -0.34559E-04  9828   0.483E-04-0.102E-04
CGA:   9    -0.381660781955E+03   -0.98617E-05   -0.10705E-04  9828   0.124E-04 0.840E-05
  22 F= -.38166078E+03 E0= -.38166078E+03  d E =-.248581E-02  mag=     4.0000
       N       E                     dE             d eps       ncg     rms          ort
SDA:   1    -0.378603111903E+03    0.30577E+01    0.00000E+00  9828   0.731E+01 0.000E+00
CGA:   2    -0.381047527943E+03   -0.24444E+01   -0.24444E+01  9828   0.256E+01-0.512E-02
CGA:   3    -0.381549459740E+03   -0.50193E+00   -0.50215E+00  9828   0.471E+00 0.752E-03
CGA:   4    -0.381636218352E+03   -0.86759E-01   -0.86970E-01  9828   0.101E+00 0.155E-02
CGA:   5    -0.381657249431E+03   -0.21031E-01   -0.21082E-01  9828   0.240E-01 0.466E-03
CGA:   6    -0.381663049732E+03   -0.58003E-02   -0.57742E-02  9828   0.710E-02-0.353E-03
CGA:   7    -0.381665115425E+03   -0.20657E-02   -0.20601E-02  9828   0.287E-02-0.368E-03
CGA:   8    -0.381666044924E+03   -0.92950E-03   -0.93542E-03  9828   0.124E-02-0.167E-03
CGA:   9    -0.381666425353E+03   -0.38043E-03   -0.38133E-03  9828   0.395E-03-0.550E-04
CGA:  10    -0.381666545616E+03   -0.12026E-03   -0.12037E-03  9828   0.122E-03-0.150E-04
CGA:  11    -0.381666593813E+03   -0.48197E-04   -0.67319E-04  9828   0.159E-03-0.731E-04
CGA:  12    -0.381666626038E+03   -0.32225E-04   -0.33513E-04  9828   0.340E-04 0.116E-04
CGA:  13    -0.381666636833E+03   -0.10795E-04   -0.23558E-04  9828   0.130E-03-0.389E-04
CGA:  14    -0.381666652320E+03   -0.15487E-04   -0.18326E-04  9828   0.170E-04 0.152E-04
CGA:  15    -0.381666658276E+03   -0.59558E-05   -0.13174E-04  9828   0.425E-04-0.197E-04
CGA:  16    -0.381666672751E+03   -0.14475E-04   -0.14451E-04  9828   0.903E-05-0.577E-05
CGA:  17    -0.381666675403E+03   -0.26522E-05   -0.26495E-05  9828   0.963E-05-0.564E-06
  23 F= -.38166668E+03 E0= -.38166668E+03  d E =-.589345E-02  mag=     4.0000
       N       E                     dE             d eps       ncg     rms          ort
SDA:   1    -0.378539572054E+03    0.31271E+01    0.00000E+00  9828   0.733E+01 0.000E+00
CGA:   2    -0.380773865351E+03   -0.22343E+01   -0.22345E+01  9828   0.279E+01 0.359E-02
CGA:   3    -0.381352717495E+03   -0.57885E+00   -0.57882E+00  9828   0.655E+00-0.386E-02
CGA:   4    -0.381484084865E+03   -0.13137E+00   -0.13123E+00  9828   0.140E+00-0.622E-03
CGA:   5    -0.381512251676E+03   -0.28167E-01   -0.28202E-01  9828   0.367E-01 0.307E-03
CGA:   6    -0.381521624165E+03   -0.93725E-02   -0.93974E-02  9828   0.125E-01 0.380E-03
CGA:   7    -0.381525100373E+03   -0.34762E-02   -0.34866E-02  9828   0.428E-02 0.247E-03
CGA:   8    -0.381526481014E+03   -0.13806E-02   -0.13806E-02  9828   0.165E-02-0.387E-04
CGA:   9    -0.381526978733E+03   -0.49772E-03   -0.49798E-03  9828   0.525E-03 0.228E-04
CGA:  10    -0.381527125113E+03   -0.14638E-03   -0.14809E-03  9828   0.157E-03 0.446E-04
CGA:  11    -0.381527156280E+03   -0.31166E-04   -0.37394E-04  9828   0.593E-04 0.655E-04
CGA:  12    -0.381527170239E+03   -0.13959E-04   -0.17996E-04  9828   0.339E-04 0.421E-04
CGA:  13    -0.381527185932E+03   -0.15694E-04   -0.14137E-04  9828   0.284E-04 0.137E-04
CGA:  14    -0.381527190798E+03   -0.48655E-05   -0.80786E-05  9828   0.179E-04 0.296E-04
  24 F= -.38152719E+03 E0= -.38152719E+03  d E =0.139485E+00  mag=     4.0000
       N       E                     dE             d eps       ncg     rms          ort
SDA:   1    -0.381270363155E+03    0.25682E+00    0.00000E+00  9828   0.873E+00 0.000E+00
CGA:   2    -0.381545973629E+03   -0.27561E+00   -0.27565E+00  9828   0.314E+00-0.254E-02
CGA:   3    -0.381610763695E+03   -0.64790E-01   -0.64864E-01  9828   0.781E-01 0.651E-03
CGA:   4    -0.381626535554E+03   -0.15772E-01   -0.15793E-01  9828   0.162E-01 0.251E-03
CGA:   5    -0.381629913732E+03   -0.33782E-02   -0.33771E-02  9828   0.455E-02-0.125E-04
CGA:   6    -0.381631138656E+03   -0.12249E-02   -0.12218E-02  9828   0.172E-02-0.157E-03
CGA:   7    -0.381631622351E+03   -0.48370E-03   -0.48441E-03  9828   0.672E-03-0.150E-03
CGA:   8    -0.381631796178E+03   -0.17383E-03   -0.17381E-03  9828   0.213E-03-0.299E-05
CGA:   9    -0.381631869372E+03   -0.73194E-04   -0.77344E-04  9828   0.105E-03-0.535E-04
CGA:  10    -0.381631892444E+03   -0.23072E-04   -0.23151E-04  9828   0.393E-04-0.200E-04
CGA:  11    -0.381631913980E+03   -0.21536E-04    0.28882E-04  9828   0.140E-04-0.393E-05
CGA:  12    -0.381631923172E+03   -0.91912E-05    0.74203E-05  9828   0.574E-05 0.155E-05
  25 F= -.38163192E+03 E0= -.38163192E+03  d E =-.104732E+00  mag=     4.0000
       N       E                     dE             d eps       ncg     rms          ort
SDA:   1    -0.381487382986E+03    0.14453E+00    0.00000E+00  9828   0.437E+00 0.000E+00
CGA:   2    -0.381623251161E+03   -0.13587E+00   -0.13590E+00  9828   0.158E+00-0.171E-02
CGA:   3    -0.381655932437E+03   -0.32681E-01   -0.32733E-01  9828   0.395E-01 0.553E-03
CGA:   4    -0.381663841632E+03   -0.79092E-02   -0.79494E-02  9828   0.813E-02 0.470E-03
CGA:   5    -0.381665536535E+03   -0.16949E-02   -0.16969E-02  9828   0.226E-02 0.252E-04
CGA:   6    -0.381666159248E+03   -0.62271E-03   -0.62201E-03  9828   0.891E-03-0.123E-03
CGA:   7    -0.381666404588E+03   -0.24534E-03   -0.24637E-03  9828   0.345E-03-0.795E-04
CGA:   8    -0.381666494040E+03   -0.89452E-04   -0.89438E-04  9828   0.110E-03 0.359E-05
CGA:   9    -0.381666530770E+03   -0.36730E-04   -0.37207E-04  9828   0.430E-04-0.895E-05
CGA:  10    -0.381666541553E+03   -0.10783E-04   -0.23618E-04  9828   0.872E-04-0.409E-04
CGA:  11    -0.381666560742E+03   -0.19189E-04   -0.18256E-04  9828   0.196E-04-0.102E-04
CGA:  12    -0.381666566770E+03   -0.60284E-05   -0.70380E-05  9828   0.220E-04-0.892E-05
CGA:  13    -0.381666574588E+03   -0.78180E-05    0.20830E-04  9828   0.988E-05-0.739E-06
CGA:  14    -0.381666580813E+03   -0.62247E-05    0.16568E-04  9828   0.777E-05 0.112E-05
  26 F= -.38166658E+03 E0= -.38166658E+03  d E =-.346576E-01  mag=     4.0000
       N       E                     dE             d eps       ncg     rms          ort
SDA:   1    -0.381591973397E+03    0.74601E-01    0.00000E+00  9828   0.207E+00 0.000E+00
CGA:   2    -0.381655200263E+03   -0.63227E-01   -0.63214E-01  9828   0.745E-01-0.119E-02
CGA:   3    -0.381670670797E+03   -0.15471E-01   -0.15523E-01  9828   0.189E-01 0.482E-03
CGA:   4    -0.381674408717E+03   -0.37379E-02   -0.37976E-02  9828   0.371E-02 0.543E-03
CGA:   5    -0.381675186085E+03   -0.77737E-03   -0.78284E-03  9828   0.101E-02 0.550E-04
CGA:   6    -0.381675482892E+03   -0.29681E-03   -0.29576E-03  9828   0.436E-03-0.881E-04
CGA:   7    -0.381675593945E+03   -0.11105E-03   -0.11047E-03  9828   0.157E-03-0.273E-04
CGA:   8    -0.381675633512E+03   -0.39567E-04   -0.39831E-04  9828   0.476E-04 0.976E-05
CGA:   9    -0.381675646281E+03   -0.12768E-04   -0.13136E-04  9828   0.144E-04 0.100E-04
CGA:  10    -0.381675652925E+03   -0.66437E-05   -0.98349E-05  9828   0.230E-04-0.119E-04
  27 F= -.38167565E+03 E0= -.38167565E+03  d E =-.907211E-02  mag=     4.0000
       N       E                     dE             d eps       ncg     rms          ort
SDA:   1    -0.381666439284E+03    0.92070E-02    0.00000E+00  9828   0.267E-01 0.000E+00
CGA:   2    -0.381674746459E+03   -0.83072E-02   -0.83094E-02  9828   0.986E-02-0.552E-03
CGA:   3    -0.381676671581E+03   -0.19251E-02   -0.19543E-02  9828   0.236E-02 0.278E-03
CGA:   4    -0.381677078943E+03   -0.40736E-03   -0.44206E-03  9828   0.395E-03 0.290E-03
CGA:   5    -0.381677167248E+03   -0.88306E-04   -0.92602E-04  9828   0.105E-03 0.493E-04
CGA:   6    -0.381677208951E+03   -0.41702E-04   -0.44717E-04  9828   0.812E-04-0.351E-04
CGA:   7    -0.381677218203E+03   -0.92521E-05   -0.98921E-05  9828   0.334E-04 0.568E-05
  28 F= -.38167722E+03 E0= -.38167722E+03  d E =-.156528E-02  mag=     4.0000
       N       E                     dE             d eps       ncg     rms          ort
SDA:   1    -0.381664700830E+03    0.12508E-01    0.00000E+00  9828   0.341E-01 0.000E+00
CGA:   2    -0.381675332757E+03   -0.10632E-01   -0.10653E-01  9828   0.130E-01-0.723E-03
CGA:   3    -0.381677802262E+03   -0.24695E-02   -0.25029E-02  9828   0.288E-02 0.380E-03
CGA:   4    -0.381678265775E+03   -0.46351E-03   -0.50631E-03  9828   0.522E-03 0.392E-03
CGA:   5    -0.381678370971E+03   -0.10520E-03   -0.11320E-03  9828   0.138E-03 0.952E-04
CGA:   6    -0.381678423204E+03   -0.52233E-04   -0.54337E-04  9828   0.927E-04-0.341E-04
CGA:   7    -0.381678434504E+03   -0.11299E-04   -0.12440E-04  9828   0.368E-04 0.120E-04
CGA:   8    -0.381678439883E+03   -0.53794E-05   -0.65713E-05  9828   0.165E-04 0.108E-04
  29 F= -.38167844E+03 E0= -.38167844E+03  d E =-.122168E-02  mag=     4.0000
       N       E                     dE             d eps       ncg     rms          ort
SDA:   1    -0.381676343629E+03    0.20909E-02    0.00000E+00  9828   0.692E-02 0.000E+00
CGA:   2    -0.381678558412E+03   -0.22148E-02   -0.22344E-02  9828   0.276E-02-0.323E-03
CGA:   3    -0.381679042626E+03   -0.48421E-03   -0.49750E-03  9828   0.445E-03 0.176E-03
CGA:   4    -0.381679109116E+03   -0.66490E-04   -0.74224E-04  9828   0.846E-04 0.742E-04
CGA:   5    -0.381679125072E+03   -0.15956E-04   -0.17743E-04  9828   0.219E-04 0.235E-04
CGA:   6    -0.381679131433E+03   -0.63618E-05   -0.64438E-05  9828   0.822E-05 0.383E-05
  30 F= -.38167913E+03 E0= -.38167913E+03  d E =-.691550E-03  mag=     4.0000
       N       E                     dE             d eps       ncg     rms          ort
SDA:   1    -0.381586772231E+03    0.92353E-01    0.00000E+00  9828   0.245E+00 0.000E+00
CGA:   2    -0.381659834037E+03   -0.73062E-01   -0.73102E-01  9828   0.897E-01-0.112E-02
CGA:   3    -0.381678904594E+03   -0.19071E-01   -0.19086E-01  9828   0.171E-01 0.331E-03
CGA:   4    -0.381682016280E+03   -0.31117E-02   -0.31193E-02  9828   0.335E-02 0.985E-04
CGA:   5    -0.381682726941E+03   -0.71066E-03   -0.71305E-03  9828   0.829E-03 0.549E-04
CGA:   6    -0.381682930026E+03   -0.20308E-03   -0.20320E-03  9828   0.263E-03 0.877E-05
CGA:   7    -0.381683011720E+03   -0.81693E-04   -0.82547E-04  9828   0.126E-03-0.148E-04
CGA:   8    -0.381683051931E+03   -0.40211E-04   -0.40200E-04  9828   0.558E-04 0.153E-06
CGA:   9    -0.381683071284E+03   -0.19354E-04   -0.19634E-04  9828   0.228E-04-0.305E-05
CGA:  10    -0.381683073224E+03   -0.19399E-05   -0.32223E-05  9828   0.904E-05 0.112E-04
  31 F= -.38168307E+03 E0= -.38168307E+03  d E =-.394179E-02  mag=     4.0000
       N       E                     dE             d eps       ncg     rms          ort
SDA:   1    -0.381619555389E+03    0.63516E-01    0.00000E+00  9828   0.162E+00 0.000E+00
CGA:   2    -0.381670656959E+03   -0.51102E-01   -0.51178E-01  9828   0.607E-01-0.123E-02
CGA:   3    -0.381682728243E+03   -0.12071E-01   -0.12109E-01  9828   0.116E-01 0.709E-03
CGA:   4    -0.381684774905E+03   -0.20467E-02   -0.20879E-02  9828   0.221E-02 0.553E-03
CGA:   5    -0.381685259409E+03   -0.48450E-03   -0.48830E-03  9828   0.563E-03 0.102E-03
CGA:   6    -0.381685416090E+03   -0.15668E-03   -0.15753E-03  9828   0.216E-03-0.407E-04
CGA:   7    -0.381685468156E+03   -0.52066E-04   -0.51990E-04  9828   0.765E-04 0.635E-05
CGA:   8    -0.381685494329E+03   -0.26173E-04   -0.26195E-04  9828   0.357E-04-0.239E-06
CGA:   9    -0.381685499161E+03   -0.48329E-05   -0.61608E-05  9828   0.135E-04 0.167E-04
  32 F= -.38168550E+03 E0= -.38168550E+03  d E =-.242594E-02  mag=     4.0000
       N       E                     dE             d eps       ncg     rms          ort
SDA:   1    -0.381674377797E+03    0.11117E-01    0.00000E+00  9828   0.277E-01 0.000E+00
CGA:   2    -0.381684174909E+03   -0.97971E-02   -0.98432E-02  9828   0.971E-02-0.410E-03
CGA:   3    -0.381685894113E+03   -0.17192E-02   -0.17358E-02  9828   0.160E-02 0.246E-03
CGA:   4    -0.381686210992E+03   -0.31688E-03   -0.31773E-03  9828   0.348E-03 0.168E-04
CGA:   5    -0.381686290182E+03   -0.79189E-04   -0.78961E-04  9828   0.956E-04-0.125E-04
CGA:   6    -0.381686313651E+03   -0.23469E-04   -0.23650E-04  9828   0.352E-04-0.125E-04
CGA:   7    -0.381686323173E+03   -0.95223E-05   -0.12670E-04  9828   0.355E-04-0.183E-04
  33 F= -.38168632E+03 E0= -.38168632E+03  d E =-.824012E-03  mag=     4.0000
       N       E                     dE             d eps       ncg     rms          ort
SDA:   1    -0.381571243254E+03    0.11507E+00    0.00000E+00  9828   0.271E+00 0.000E+00
CGA:   2    -0.381667722044E+03   -0.96479E-01   -0.96552E-01  9828   0.872E-01-0.668E-03
CGA:   3    -0.381684212771E+03   -0.16491E-01   -0.16513E-01  9828   0.153E-01 0.351E-03
CGA:   4    -0.381687178016E+03   -0.29652E-02   -0.29636E-02  9828   0.334E-02-0.284E-04
CGA:   5    -0.381687893607E+03   -0.71559E-03   -0.71470E-03  9828   0.792E-03-0.276E-04
CGA:   6    -0.381688077926E+03   -0.18432E-03   -0.18424E-03  9828   0.223E-03-0.797E-05
CGA:   7    -0.381688142848E+03   -0.64921E-04   -0.65667E-04  9828   0.923E-04-0.138E-04
CGA:   8    -0.381688173896E+03   -0.31048E-04   -0.33080E-04  9828   0.496E-04-0.150E-04
CGA:   9    -0.381688188363E+03   -0.14466E-04   -0.17629E-04  9828   0.293E-04-0.185E-04
CGA:  10    -0.381688190510E+03   -0.21478E-05   -0.28565E-05  9828   0.120E-04 0.663E-05
  34 F= -.38168819E+03 E0= -.38168819E+03  d E =-.186734E-02  mag=     4.0000
       N       E                     dE             d eps       ncg     rms          ort
SDA:   1    -0.379782418161E+03    0.19058E+01    0.00000E+00  9828   0.445E+01 0.000E+00
CGA:   2    -0.381326076106E+03   -0.15437E+01   -0.15438E+01  9828   0.157E+01-0.142E-02
CGA:   3    -0.381618188373E+03   -0.29211E+00   -0.29213E+00  9828   0.273E+00-0.265E-03
CGA:   4    -0.381669826366E+03   -0.51638E-01   -0.51631E-01  9828   0.587E-01-0.507E-04
CGA:   5    -0.381682200720E+03   -0.12374E-01   -0.12369E-01  9828   0.138E-01-0.133E-03
CGA:   6    -0.381685399437E+03   -0.31987E-02   -0.31963E-02  9828   0.383E-02-0.156E-03
CGA:   7    -0.381686473147E+03   -0.10737E-02   -0.10784E-02  9828   0.143E-02-0.120E-03
CGA:   8    -0.381686965810E+03   -0.49266E-03   -0.51300E-03  9828   0.718E-03-0.167E-03
CGA:   9    -0.381687177906E+03   -0.21210E-03   -0.22215E-03  9828   0.261E-03-0.105E-03
CGA:  10    -0.381687245394E+03   -0.67488E-04   -0.68554E-04  9828   0.729E-04-0.220E-04
CGA:  11    -0.381687268296E+03   -0.22902E-04   -0.23136E-04  9828   0.280E-04-0.282E-05
CGA:  12    -0.381687277092E+03   -0.87966E-05   -0.20200E-04  9828   0.686E-04-0.236E-04
CGA:  13    -0.381687287264E+03   -0.10172E-04   -0.11537E-04  9828   0.120E-04 0.114E-04
CGA:  14    -0.381687291257E+03   -0.39932E-05   -0.39934E-05  9828   0.407E-05-0.302E-07
  35 F= -.38168729E+03 E0= -.38168729E+03  d E =0.899253E-03  mag=     4.0000
       N       E                     dE             d eps       ncg     rms          ort
SDA:   1    -0.371747226983E+03    0.99401E+01    0.00000E+00  9828   0.232E+02 0.000E+00
CGA:   2    -0.379826719803E+03   -0.80795E+01   -0.80798E+01  9828   0.752E+01-0.108E-02
CGA:   3    -0.381311847512E+03   -0.14851E+01   -0.14857E+01  9828   0.133E+01-0.498E-02
CGA:   4    -0.381564559127E+03   -0.25271E+00   -0.25256E+00  9828   0.295E+00-0.885E-03
CGA:   5    -0.381627425136E+03   -0.62866E-01   -0.62864E-01  9828   0.733E-01-0.313E-04
CGA:   6    -0.381644977861E+03   -0.17553E-01   -0.17528E-01  9828   0.224E-01-0.692E-03
CGA:   7    -0.381651604964E+03   -0.66271E-02   -0.66469E-02  9828   0.945E-02-0.785E-03
CGA:   8    -0.381654826787E+03   -0.32218E-02   -0.32833E-02  9828   0.442E-02-0.721E-03
CGA:   9    -0.381656198391E+03   -0.13716E-02   -0.14093E-02  9828   0.167E-02-0.569E-03
CGA:  10    -0.381656649119E+03   -0.45073E-03   -0.45592E-03  9828   0.557E-03-0.165E-03
CGA:  11    -0.381656840001E+03   -0.19088E-03   -0.20994E-03  9828   0.399E-03-0.142E-03
CGA:  12    -0.381656939778E+03   -0.99778E-04   -0.10141E-03  9828   0.244E-03-0.329E-04
CGA:  13    -0.381657030412E+03   -0.90633E-04   -0.11132E-03  9828   0.216E-03-0.102E-03
CGA:  14    -0.381657064588E+03   -0.34176E-04   -0.34322E-04  9828   0.985E-04 0.400E-05
CGA:  15    -0.381657088019E+03   -0.23431E-04   -0.24296E-04  9828   0.425E-04 0.141E-04
CGA:  16    -0.381657104783E+03   -0.16763E-04   -0.17054E-04  9828   0.374E-04-0.579E-05
CGA:  17    -0.381657113462E+03   -0.86794E-05   -0.88861E-05  9828   0.285E-04 0.746E-05
CGA:  18    -0.381657123639E+03   -0.10178E-04   -0.10191E-04  9828   0.226E-04 0.692E-05
CGA:  19    -0.381657124827E+03   -0.11875E-05   -0.24686E-04  9828   0.126E-03-0.416E-04
CGA:  20    -0.381657146407E+03   -0.21580E-04   -0.24114E-04  9828   0.300E-04 0.188E-04
CGA:  21    -0.381657159596E+03   -0.13188E-04   -0.14763E-04  9828   0.163E-04-0.149E-04
CGA:  22    -0.381657166890E+03   -0.72948E-05    0.38102E-05  9828   0.105E-04 0.231E-05
  36 F= -.38165717E+03 E0= -.38165717E+03  d E =0.301244E-01  mag=     4.0000
       N       E                     dE             d eps       ncg     rms          ort
SDA:   1    -0.379129470442E+03    0.25277E+01    0.00000E+00  9828   0.601E+01 0.000E+00
CGA:   2    -0.381133729742E+03   -0.20043E+01   -0.20043E+01  9828   0.231E+01 0.989E-03
CGA:   3    -0.381566117905E+03   -0.43239E+00   -0.43208E+00  9828   0.405E+00-0.454E-02
CGA:   4    -0.381642049248E+03   -0.75931E-01   -0.75902E-01  9828   0.858E-01 0.168E-03
CGA:   5    -0.381660178851E+03   -0.18130E-01   -0.18146E-01  9828   0.209E-01 0.165E-03
CGA:   6    -0.381665084074E+03   -0.49052E-02   -0.48938E-02  9828   0.606E-02-0.152E-03
CGA:   7    -0.381666774272E+03   -0.16902E-02   -0.16886E-02  9828   0.224E-02-0.618E-04
CGA:   8    -0.381667561903E+03   -0.78763E-03   -0.79826E-03  9828   0.111E-02-0.189E-03
CGA:   9    -0.381667879063E+03   -0.31716E-03   -0.31739E-03  9828   0.372E-03-0.448E-04
CGA:  10    -0.381668007026E+03   -0.12796E-03   -0.13926E-03  9828   0.231E-03-0.136E-03
CGA:  11    -0.381668030375E+03   -0.23349E-04   -0.26982E-04  9828   0.924E-04 0.290E-04
CGA:  12    -0.381668047308E+03   -0.16933E-04   -0.19574E-04  9828   0.429E-04 0.226E-04
CGA:  13    -0.381668065240E+03   -0.17932E-04   -0.18920E-04  9828   0.484E-04-0.180E-04
CGA:  14    -0.381668067475E+03   -0.22349E-05   -0.38175E-05  9828   0.415E-04 0.952E-05
  37 F= -.38166807E+03 E0= -.38166807E+03  d E =-.109006E-01  mag=     4.0000
       N       E                     dE             d eps       ncg     rms          ort
SDA:   1    -0.380873658987E+03    0.79441E+00    0.00000E+00  9828   0.191E+01 0.000E+00
CGA:   2    -0.381498290174E+03   -0.62463E+00   -0.62479E+00  9828   0.703E+00-0.407E-02
CGA:   3    -0.381636362065E+03   -0.13807E+00   -0.13812E+00  9828   0.140E+00 0.517E-03
CGA:   4    -0.381663056897E+03   -0.26695E-01   -0.26749E-01  9828   0.281E-01 0.611E-03
CGA:   5    -0.381669076154E+03   -0.60193E-02   -0.60349E-02  9828   0.736E-02 0.244E-03
CGA:   6    -0.381670904271E+03   -0.18281E-02   -0.18238E-02  9828   0.251E-02-0.151E-03
CGA:   7    -0.381671640266E+03   -0.73599E-03   -0.74294E-03  9828   0.113E-02-0.239E-03
CGA:   8    -0.381671947746E+03   -0.30748E-03   -0.30750E-03  9828   0.420E-03-0.439E-06
CGA:   9    -0.381672095901E+03   -0.14815E-03   -0.15574E-03  9828   0.203E-03-0.797E-04
CGA:  10    -0.381672147653E+03   -0.51752E-04   -0.52785E-04  9828   0.801E-04-0.257E-04
CGA:  11    -0.381672142454E+03    0.51990E-05   -0.58635E-04  9828   0.332E-03-0.115E-03
CGA:  12    -0.381672195448E+03   -0.52994E-04   -0.58775E-04  9828   0.480E-04 0.439E-04
CGA:  13    -0.381672208722E+03   -0.13274E-04   -0.13507E-04  9828   0.129E-04 0.426E-05
CGA:  14    -0.381672210042E+03   -0.13202E-05   -0.24714E-05  9828   0.759E-05 0.914E-05
  38 F= -.38167221E+03 E0= -.38167221E+03  d E =-.414257E-02  mag=     4.0000
       N       E                     dE             d eps       ncg     rms          ort
SDA:   1    -0.380980348249E+03    0.69186E+00    0.00000E+00  9828   0.164E+01 0.000E+00
CGA:   2    -0.381533171828E+03   -0.55282E+00   -0.55269E+00  9828   0.575E+00 0.290E-02
CGA:   3    -0.381646221982E+03   -0.11305E+00   -0.11295E+00  9828   0.107E+00-0.117E-02
CGA:   4    -0.381666255223E+03   -0.20033E-01   -0.20008E-01  9828   0.219E-01-0.148E-03
CGA:   5    -0.381671007982E+03   -0.47528E-02   -0.47449E-02  9828   0.547E-02-0.121E-03
CGA:   6    -0.381672273795E+03   -0.12658E-02   -0.12659E-02  9828   0.165E-02 0.122E-05
CGA:   7    -0.381672707093E+03   -0.43330E-03   -0.43423E-03  9828   0.592E-03 0.778E-04
CGA:   8    -0.381672937268E+03   -0.23018E-03   -0.23914E-03  9828   0.364E-03-0.812E-04
CGA:   9    -0.381673015092E+03   -0.77823E-04   -0.78846E-04  9828   0.113E-03 0.350E-04
CGA:  10    -0.381673049766E+03   -0.34675E-04   -0.34673E-04  9828   0.376E-04 0.189E-05
CGA:  11    -0.381673062959E+03   -0.13193E-04   -0.13422E-04  9828   0.196E-04-0.322E-05
CGA:  12    -0.381673064638E+03   -0.16793E-05   -0.28286E-05  9828   0.975E-05 0.921E-05
  39 F= -.38167306E+03 E0= -.38167306E+03  d E =-.854596E-03  mag=     4.0000
       N       E                     dE             d eps       ncg     rms          ort
SDA:   1    -0.381406558293E+03    0.26650E+00    0.00000E+00  9828   0.615E+00 0.000E+00
CGA:   2    -0.381624747835E+03   -0.21819E+00   -0.21822E+00  9828   0.201E+00-0.283E-03
CGA:   3    -0.381662543492E+03   -0.37796E-01   -0.37812E-01  9828   0.359E-01 0.186E-03
CGA:   4    -0.381669307134E+03   -0.67636E-02   -0.67737E-02  9828   0.765E-02 0.127E-03
CGA:   5    -0.381670924567E+03   -0.16174E-02   -0.16174E-02  9828   0.179E-02 0.163E-06
CGA:   6    -0.381671339242E+03   -0.41468E-03   -0.41395E-03  9828   0.488E-03-0.224E-04
CGA:   7    -0.381671473780E+03   -0.13454E-03   -0.13474E-03  9828   0.178E-03-0.115E-04
CGA:   8    -0.381671536848E+03   -0.63068E-04   -0.66501E-04  9828   0.963E-04-0.287E-04
CGA:   9    -0.381671557778E+03   -0.20930E-04   -0.21000E-04  9828   0.261E-04 0.813E-05
CGA:  10    -0.381671566181E+03   -0.84023E-05   -0.84484E-05  9828   0.834E-05-0.153E-05
  40 F= -.38167157E+03 E0= -.38167157E+03  d E =0.149846E-02  mag=     4.0000
       N       E                     dE             d eps       ncg     rms          ort
SDA:   1    -0.363901041291E+03    0.17771E+02    0.00000E+00  9828   0.421E+02 0.000E+00
CGA:   2    -0.377981308110E+03   -0.14080E+02   -0.14076E+02  9828   0.147E+02 0.457E-01
CGA:   3    -0.380808079075E+03   -0.28268E+01   -0.28268E+01  9828   0.280E+01-0.724E-02
CGA:   4    -0.381340281211E+03   -0.53220E+00   -0.53275E+00  9828   0.605E+00 0.522E-02
CGA:   5    -0.381466061176E+03   -0.12578E+00   -0.12591E+00  9828   0.159E+00 0.241E-02
CGA:   6    -0.381504567228E+03   -0.38506E-01   -0.38477E-01  9828   0.497E-01-0.128E-02
CGA:   7    -0.381519040127E+03   -0.14473E-01   -0.14521E-01  9828   0.209E-01-0.151E-02
CGA:   8    -0.381525688749E+03   -0.66486E-02   -0.66997E-02  9828   0.890E-02-0.760E-03
CGA:   9    -0.381528391212E+03   -0.27025E-02   -0.27258E-02  9828   0.301E-02-0.461E-03
CGA:  10    -0.381529300710E+03   -0.90950E-03   -0.92505E-03  9828   0.106E-02-0.292E-03
CGA:  11    -0.381529672220E+03   -0.37151E-03   -0.41002E-03  9828   0.794E-03-0.252E-03
CGA:  12    -0.381529920087E+03   -0.24787E-03   -0.32882E-03  9828   0.116E-02-0.312E-03
CGA:  13    -0.381530182624E+03   -0.26254E-03   -0.32308E-03  9828   0.110E-02-0.371E-03
CGA:  14    -0.381530474779E+03   -0.29215E-03   -0.30740E-03  9828   0.582E-03-0.147E-03
CGA:  15    -0.381530665625E+03   -0.19085E-03   -0.18719E-03  9828   0.339E-03 0.537E-04
CGA:  16    -0.381530774124E+03   -0.10850E-03   -0.10972E-03  9828   0.208E-03 0.824E-04
CGA:  17    -0.381530849614E+03   -0.75489E-04   -0.76847E-04  9828   0.105E-03 0.989E-04
CGA:  18    -0.381530884141E+03   -0.34527E-04   -0.38981E-04  9828   0.622E-04 0.757E-04
CGA:  19    -0.381530898773E+03   -0.14632E-04   -0.15922E-04  9828   0.357E-04 0.256E-04
CGA:  20    -0.381530907764E+03   -0.89911E-05   -0.11389E-04  9828   0.205E-04 0.306E-04
  41 F= -.38153091E+03 E0= -.38153091E+03  d E =0.140658E+00  mag=     4.0000
       N       E                     dE             d eps       ncg     rms          ort
SDA:   1    -0.380226081389E+03    0.13048E+01    0.00000E+00  9828   0.357E+01 0.000E+00
CGA:   2    -0.381282087226E+03   -0.10560E+01   -0.10560E+01  9828   0.143E+01 0.111E-03
CGA:   3    -0.381571745940E+03   -0.28966E+00   -0.28967E+00  9828   0.342E+00-0.123E-02
CGA:   4    -0.381640171557E+03   -0.68426E-01   -0.68373E-01  9828   0.702E-01 0.423E-03
CGA:   5    -0.381654589665E+03   -0.14418E-01   -0.14424E-01  9828   0.191E-01 0.840E-04
CGA:   6    -0.381659339634E+03   -0.47500E-02   -0.47484E-02  9828   0.689E-02-0.430E-04
CGA:   7    -0.381661167795E+03   -0.18282E-02   -0.18314E-02  9828   0.230E-02 0.217E-03
CGA:   8    -0.381661923039E+03   -0.75524E-03   -0.75808E-03  9828   0.939E-03-0.742E-04
CGA:   9    -0.381662166744E+03   -0.24370E-03   -0.24480E-03  9828   0.263E-03 0.805E-04
CGA:  10    -0.381662248303E+03   -0.81559E-04   -0.81479E-04  9828   0.743E-04 0.256E-04
CGA:  11    -0.381662273730E+03   -0.25428E-04   -0.25059E-04  9828   0.297E-04 0.149E-04
CGA:  12    -0.381662278189E+03   -0.44588E-05   -0.65618E-05  9828   0.162E-04 0.211E-04
  42 F= -.38166228E+03 E0= -.38166228E+03  d E =-.131370E+00  mag=     4.0000
       N       E                     dE             d eps       ncg     rms          ort
SDA:   1    -0.381656708882E+03    0.55648E-02    0.00000E+00  9828   0.236E-01 0.000E+00
CGA:   2    -0.381663545434E+03   -0.68366E-02   -0.68485E-02  9828   0.104E-01-0.775E-03
CGA:   3    -0.381665467211E+03   -0.19218E-02   -0.19476E-02  9828   0.218E-02 0.312E-03
CGA:   4    -0.381665879229E+03   -0.41202E-03   -0.42126E-03  9828   0.453E-03 0.111E-03
CGA:   5    -0.381665984114E+03   -0.10488E-03   -0.10454E-03  9828   0.137E-03-0.705E-05
CGA:   6    -0.381666024658E+03   -0.40544E-04   -0.41867E-04  9828   0.807E-04-0.294E-04
CGA:   7    -0.381666030997E+03   -0.63395E-05   -0.39389E-04  9828   0.228E-03-0.935E-04
CGA:   8    -0.381666058473E+03   -0.27475E-04   -0.32460E-04  9828   0.309E-04 0.350E-04
CGA:   9    -0.381666065550E+03   -0.70772E-05   -0.77041E-05  9828   0.112E-04 0.101E-04
  43 F= -.38166607E+03 E0= -.38166607E+03  d E =-.378736E-02  mag=     4.0000
       N       E                     dE             d eps       ncg     rms          ort
SDA:   1    -0.381590742914E+03    0.75316E-01    0.00000E+00  9828   0.219E+00 0.000E+00
CGA:   2    -0.381648457037E+03   -0.57714E-01   -0.57695E-01  9828   0.905E-01-0.143E-02
CGA:   3    -0.381667247911E+03   -0.18791E-01   -0.18837E-01  9828   0.210E-01 0.677E-03
CGA:   4    -0.381671089882E+03   -0.38420E-02   -0.38668E-02  9828   0.438E-02 0.280E-03
CGA:   5    -0.381671994837E+03   -0.90495E-03   -0.90543E-03  9828   0.110E-02 0.745E-05
CGA:   6    -0.381672283985E+03   -0.28915E-03   -0.28902E-03  9828   0.415E-03-0.673E-04
CGA:   7    -0.381672408079E+03   -0.12409E-03   -0.12981E-03  9828   0.212E-03-0.832E-04
CGA:   8    -0.381672459216E+03   -0.51137E-04   -0.51535E-04  9828   0.789E-04-0.111E-04
CGA:   9    -0.381672484193E+03   -0.24977E-04   -0.25527E-04  9828   0.318E-04-0.774E-05
CGA:  10    -0.381672494991E+03   -0.10798E-04   -0.12369E-04  9828   0.212E-04-0.100E-04
CGA:  11    -0.381672503515E+03   -0.85247E-05    0.48204E-04  9828   0.904E-05 0.120E-05
  44 F= -.38167250E+03 E0= -.38167250E+03  d E =-.643797E-02  mag=     4.0000
       N       E                     dE             d eps       ncg     rms          ort
SDA:   1    -0.381671220026E+03    0.12750E-02    0.00000E+00  9828   0.511E-02 0.000E+00
CGA:   2    -0.381672697329E+03   -0.14773E-02   -0.14777E-02  9828   0.179E-02 0.204E-03
CGA:   3    -0.381673122200E+03   -0.42487E-03   -0.41858E-03  9828   0.505E-03-0.951E-04
CGA:   4    -0.381673204872E+03   -0.82672E-04   -0.83665E-04  9828   0.792E-04 0.962E-05
CGA:   5    -0.381673224215E+03   -0.19343E-04   -0.19199E-04  9828   0.267E-04-0.322E-05
CGA:   6    -0.381673230852E+03   -0.66370E-05   -0.65622E-05  9828   0.122E-04-0.313E-05
  45 F= -.38167323E+03 E0= -.38167323E+03  d E =-.727337E-03  mag=     4.0000
       N       E                     dE             d eps       ncg     rms          ort
SDA:   1    -0.381668802641E+03    0.44216E-02    0.00000E+00  9828   0.157E-01 0.000E+00
CGA:   2    -0.381673061175E+03   -0.42585E-02   -0.42587E-02  9828   0.594E-02-0.101E-03
CGA:   3    -0.381674296265E+03   -0.12351E-02   -0.12421E-02  9828   0.128E-02 0.116E-03
CGA:   4    -0.381674539368E+03   -0.24310E-03   -0.24311E-03  9828   0.258E-03 0.738E-07
CGA:   5    -0.381674596899E+03   -0.57530E-04   -0.56837E-04  9828   0.770E-04-0.161E-04
CGA:   6    -0.381674615110E+03   -0.18212E-04   -0.18189E-04  9828   0.270E-04-0.244E-05
CGA:   7    -0.381674621834E+03   -0.67234E-05   -0.67344E-05  9828   0.997E-05 0.402E-05
  46 F= -.38167462E+03 E0= -.38167462E+03  d E =-.139098E-02  mag=     4.0000
       N       E                     dE             d eps       ncg     rms          ort
SDA:   1    -0.381465106734E+03    0.20951E+00    0.00000E+00  9828   0.575E+00 0.000E+00
CGA:   2    -0.381625350084E+03   -0.16024E+00   -0.16025E+00  9828   0.207E+00-0.592E-03
CGA:   3    -0.381670329915E+03   -0.44980E-01   -0.45011E-01  9828   0.459E-01 0.556E-03
CGA:   4    -0.381678651702E+03   -0.83218E-02   -0.83148E-02  9828   0.911E-02-0.851E-04
CGA:   5    -0.381680545534E+03   -0.18938E-02   -0.18877E-02  9828   0.241E-02-0.111E-03
CGA:   6    -0.381681156017E+03   -0.61048E-03   -0.61033E-03  9828   0.855E-03-0.459E-04
CGA:   7    -0.381681415775E+03   -0.25976E-03   -0.26039E-03  9828   0.414E-03-0.124E-04
CGA:   8    -0.381681569312E+03   -0.15354E-03   -0.15693E-03  9828   0.219E-03-0.278E-04
CGA:   9    -0.381681642700E+03   -0.73388E-04   -0.78180E-04  9828   0.980E-04-0.422E-04
CGA:  10    -0.381681665624E+03   -0.22924E-04   -0.22954E-04  9828   0.270E-04-0.188E-05
CGA:  11    -0.381681671545E+03   -0.59211E-05   -0.62297E-05  9828   0.940E-05 0.774E-05
  47 F= -.38168167E+03 E0= -.38168167E+03  d E =-.704971E-02  mag=     4.0000
       N       E                     dE             d eps       ncg     rms          ort
SDA:   1    -0.381544914436E+03    0.13675E+00    0.00000E+00  9828   0.351E+00 0.000E+00
CGA:   2    -0.381652099921E+03   -0.10719E+00   -0.10717E+00  9828   0.119E+00 0.325E-03
CGA:   3    -0.381678021373E+03   -0.25921E-01   -0.25939E-01  9828   0.249E-01 0.329E-03
CGA:   4    -0.381682545101E+03   -0.45237E-02   -0.45222E-02  9828   0.504E-02-0.123E-04
CGA:   5    -0.381683638566E+03   -0.10935E-02   -0.10870E-02  9828   0.143E-02-0.136E-03
CGA:   6    -0.381683992916E+03   -0.35435E-03   -0.35417E-03  9828   0.512E-03-0.328E-04
CGA:   7    -0.381684129659E+03   -0.13674E-03   -0.13621E-03  9828   0.212E-03 0.452E-04
CGA:   8    -0.381684220949E+03   -0.91291E-04   -0.94775E-04  9828   0.140E-03-0.233E-04
CGA:   9    -0.381684256202E+03   -0.35252E-04   -0.35145E-04  9828   0.469E-04 0.756E-05
CGA:  10    -0.381684272938E+03   -0.16736E-04   -0.17741E-04  9828   0.237E-04-0.113E-04
CGA:  11    -0.381684274755E+03   -0.18170E-05   -0.28418E-05  9828   0.116E-04 0.884E-05
  48 F= -.38168427E+03 E0= -.38168427E+03  d E =-.260321E-02  mag=     4.0000
       N       E                     dE             d eps       ncg     rms          ort
SDA:   1    -0.381624758567E+03    0.59514E-01    0.00000E+00  9828   0.150E+00 0.000E+00
CGA:   2    -0.381671354432E+03   -0.46596E-01   -0.46590E-01  9828   0.513E-01 0.118E-03
CGA:   3    -0.381682170500E+03   -0.10816E-01   -0.10835E-01  9828   0.103E-01 0.360E-03
CGA:   4    -0.381684172237E+03   -0.20017E-02   -0.19810E-02  9828   0.220E-02-0.296E-03
CGA:   5    -0.381684642560E+03   -0.47032E-03   -0.46584E-03  9828   0.622E-03-0.116E-03
CGA:   6    -0.381684790772E+03   -0.14821E-03   -0.14810E-03  9828   0.210E-03-0.310E-04
CGA:   7    -0.381684854247E+03   -0.63475E-04   -0.65265E-04  9828   0.116E-03-0.248E-04
CGA:   8    -0.381684888403E+03   -0.34156E-04   -0.34721E-04  9828   0.520E-04-0.694E-05
CGA:   9    -0.381684657954E+03    0.23045E-03   -0.12435E-03  9828   0.139E-02-0.225E-03
CGA:  10    -0.381684865305E+03   -0.20735E-03   -0.23571E-03  9828   0.161E-03 0.956E-04
CGA:  11    -0.381684910035E+03   -0.44730E-04   -0.44588E-04  9828   0.469E-04-0.462E-06
CGA:  12    -0.381684917287E+03   -0.72521E-05   -0.10943E-04  9828   0.172E-04 0.169E-04
  49 F= -.38168492E+03 E0= -.38168492E+03  d E =-.642532E-03  mag=     4.0000
       N       E                     dE             d eps       ncg     rms          ort
SDA:   1    -0.381672465028E+03    0.12445E-01    0.00000E+00  9828   0.319E-01 0.000E+00
CGA:   2    -0.381680538171E+03   -0.80731E-02   -0.81374E-02  9828   0.110E-01 0.342E-03
CGA:   3    -0.381683157275E+03   -0.26191E-02   -0.26122E-02  9828   0.252E-02-0.380E-04
CGA:   4    -0.381683627344E+03   -0.47007E-03   -0.45351E-03  9828   0.494E-03-0.704E-04
CGA:   5    -0.381683740047E+03   -0.11270E-03   -0.10531E-03  9828   0.142E-03-0.400E-04
CGA:   6    -0.381683775850E+03   -0.35803E-04   -0.33688E-04  9828   0.519E-04-0.156E-04
CGA:   7    -0.381683789441E+03   -0.13591E-04   -0.13396E-04  9828   0.213E-04-0.202E-05
CGA:   8    -0.381683796774E+03   -0.73327E-05   -0.73168E-05  9828   0.102E-04-0.626E-06
CGA:   9    -0.381683748853E+03    0.47921E-04   -0.18647E-04  9828   0.284E-03-0.445E-04
CGA:  10    -0.381683800708E+03   -0.51855E-04   -0.54377E-04  9828   0.280E-04 0.956E-05
CGA:  11    -0.381683809531E+03   -0.88232E-05   -0.90123E-05  9828   0.808E-05 0.144E-05
  50 F= -.38168381E+03 E0= -.38168381E+03  d E =0.110776E-02  mag=     4.0000
       N       E                     dE             d eps       ncg     rms          ort
SDA:   1    -0.381671929788E+03    0.11871E-01    0.00000E+00  9828   0.300E-01 0.000E+00
CGA:   2    -0.381679715824E+03   -0.77860E-02   -0.78584E-02  9828   0.104E-01 0.431E-03
CGA:   3    -0.381682184357E+03   -0.24685E-02   -0.24624E-02  9828   0.221E-02-0.350E-04
CGA:   4    -0.381682599691E+03   -0.41533E-03   -0.40102E-03  9828   0.436E-03-0.636E-04
CGA:   5    -0.381682701364E+03   -0.10167E-03   -0.94146E-04  9828   0.127E-03-0.433E-04
CGA:   6    -0.381682729723E+03   -0.28359E-04   -0.27031E-04  9828   0.387E-04-0.881E-05
CGA:   7    -0.381682737168E+03   -0.74449E-05   -0.82882E-05  9828   0.119E-04 0.564E-05
  51 F= -.38168274E+03 E0= -.38168274E+03  d E =0.107236E-02  mag=     4.0000
       N       E                     dE             d eps       ncg     rms          ort
SDA:   1    -0.381150048100E+03    0.53268E+00    0.00000E+00  9828   0.135E+01 0.000E+00
CGA:   2    -0.381550301946E+03   -0.40025E+00   -0.40062E+00  9828   0.450E+00 0.415E-02
CGA:   3    -0.381654331795E+03   -0.10403E+00   -0.10388E+00  9828   0.795E-01-0.115E-02
CGA:   4    -0.381669021101E+03   -0.14689E-01   -0.14576E-01  9828   0.173E-01-0.632E-03
CGA:   5    -0.381672653786E+03   -0.36327E-02   -0.35966E-02  9828   0.434E-02-0.255E-03
CGA:   6    -0.381673721531E+03   -0.10677E-02   -0.10616E-02  9828   0.141E-02-0.662E-04
CGA:   7    -0.381674139948E+03   -0.41842E-03   -0.41832E-03  9828   0.658E-03-0.281E-05
CGA:   8    -0.381674392743E+03   -0.25280E-03   -0.25498E-03  9828   0.365E-03-0.428E-04
CGA:   9    -0.381674532163E+03   -0.13942E-03   -0.15165E-03  9828   0.230E-03-0.117E-03
CGA:  10    -0.381674584319E+03   -0.52155E-04   -0.51534E-04  9828   0.870E-04-0.404E-04
CGA:  11    -0.381674607109E+03   -0.22790E-04   -0.22815E-04  9828   0.382E-04 0.939E-06
CGA:  12    -0.381674613811E+03   -0.67019E-05   -0.86353E-05  9828   0.185E-04 0.162E-04
  52 F= -.38167461E+03 E0= -.38167461E+03  d E =0.812336E-02  mag=     4.0000
       N       E                     dE             d eps       ncg     rms          ort
SDA:   1    -0.381197483032E+03    0.47712E+00    0.00000E+00  9828   0.120E+01 0.000E+00
CGA:   2    -0.381553441267E+03   -0.35596E+00   -0.35615E+00  9828   0.406E+00 0.507E-02
CGA:   3    -0.381645895122E+03   -0.92454E-01   -0.92306E-01  9828   0.753E-01-0.141E-02
CGA:   4    -0.381659612938E+03   -0.13718E-01   -0.13653E-01  9828   0.155E-01-0.433E-03
CGA:   5    -0.381662953414E+03   -0.33405E-02   -0.33104E-02  9828   0.391E-02-0.293E-03
CGA:   6    -0.381663887473E+03   -0.93406E-03   -0.93123E-03  9828   0.127E-02-0.421E-04
CGA:   7    -0.381664229804E+03   -0.34233E-03   -0.34432E-03  9828   0.531E-03 0.592E-04
CGA:   8    -0.381664446894E+03   -0.21709E-03   -0.22175E-03  9828   0.346E-03-0.506E-04
CGA:   9    -0.381664548538E+03   -0.10164E-03   -0.10187E-03  9828   0.144E-03-0.162E-04
CGA:  10    -0.381664593528E+03   -0.44990E-04   -0.76837E-04  9828   0.256E-03-0.129E-03
CGA:  11    -0.381664622062E+03   -0.28534E-04   -0.38147E-04  9828   0.393E-04 0.554E-04
CGA:  12    -0.381664630418E+03   -0.83554E-05   -0.98541E-05  9828   0.156E-04 0.137E-04
  53 F= -.38166463E+03 E0= -.38166463E+03  d E =0.998339E-02  mag=     4.0000
       N       E                     dE             d eps       ncg     rms          ort
SDA:   1    -0.381391042796E+03    0.27358E+00    0.00000E+00  9828   0.713E+00 0.000E+00
CGA:   2    -0.381609062615E+03   -0.21802E+00   -0.21801E+00  9828   0.238E+00-0.293E-02
CGA:   3    -0.381662135319E+03   -0.53073E-01   -0.53121E-01  9828   0.414E-01 0.611E-03
CGA:   4    -0.381669748707E+03   -0.76134E-02   -0.76470E-02  9828   0.865E-02 0.287E-03
CGA:   5    -0.381671518490E+03   -0.17698E-02   -0.17945E-02  9828   0.202E-02 0.266E-03
CGA:   6    -0.381672038786E+03   -0.52030E-03   -0.52109E-03  9828   0.678E-03 0.170E-04
CGA:   7    -0.381672261729E+03   -0.22294E-03   -0.22627E-03  9828   0.407E-03-0.859E-04
CGA:   8    -0.381672361862E+03   -0.10013E-03   -0.10051E-03  9828   0.159E-03 0.334E-04
CGA:   9    -0.381672412987E+03   -0.51125E-04   -0.51082E-04  9828   0.602E-04 0.121E-04
CGA:  10    -0.381672427903E+03   -0.14916E-04   -0.15681E-04  9828   0.185E-04 0.148E-04
CGA:  11    -0.381672435125E+03   -0.72227E-05   -0.71839E-05  9828   0.940E-05 0.183E-05
  54 F= -.38167244E+03 E0= -.38167244E+03  d E =-.780471E-02  mag=     4.0000
       N       E                     dE             d eps       ncg     rms          ort
SDA:   1    -0.381659457828E+03    0.12970E-01    0.00000E+00  9828   0.300E-01 0.000E+00
CGA:   2    -0.381668784043E+03   -0.93262E-02   -0.93201E-02  9828   0.996E-02 0.339E-03
CGA:   3    -0.381671015554E+03   -0.22315E-02   -0.22255E-02  9828   0.203E-02-0.777E-04
CGA:   4    -0.381671440774E+03   -0.42522E-03   -0.40671E-03  9828   0.489E-03-0.209E-03
CGA:   5    -0.381671530508E+03   -0.89733E-04   -0.89474E-04  9828   0.106E-03-0.302E-05
CGA:   6    -0.381671553292E+03   -0.22784E-04   -0.23357E-04  9828   0.306E-04 0.959E-05
CGA:   7    -0.381671564867E+03   -0.11576E-04   -0.13461E-04  9828   0.356E-04-0.151E-04
CGA:   8    -0.381671567401E+03   -0.25337E-05   -0.27706E-05  9828   0.198E-04 0.182E-05
  55 F= -.38167157E+03 E0= -.38167157E+03  d E =0.867724E-03  mag=     4.0000
       N       E                     dE             d eps       ncg     rms          ort
SDA:   1    -0.381658986673E+03    0.12578E-01    0.00000E+00  9828   0.292E-01 0.000E+00
CGA:   2    -0.381667549378E+03   -0.85627E-02   -0.85458E-02  9828   0.971E-02 0.827E-03
CGA:   3    -0.381669843058E+03   -0.22937E-02   -0.22826E-02  9828   0.203E-02-0.244E-03
CGA:   4    -0.381670201472E+03   -0.35841E-03   -0.35475E-03  9828   0.384E-03-0.379E-04
CGA:   5    -0.381670300364E+03   -0.98893E-04   -0.98563E-04  9828   0.136E-03-0.698E-04
CGA:   6    -0.381670326377E+03   -0.26013E-04   -0.25741E-04  9828   0.419E-04-0.768E-05
CGA:   7    -0.381670332479E+03   -0.61017E-05   -0.71611E-05  9828   0.135E-04 0.127E-04
  56 F= -.38167033E+03 E0= -.38167033E+03  d E =0.123492E-02  mag=     4.0000
       N       E                     dE             d eps       ncg     rms          ort
SDA:   1    -0.381411548926E+03    0.25878E+00    0.00000E+00  9828   0.627E+00 0.000E+00
CGA:   2    -0.381610139961E+03   -0.19859E+00   -0.19835E+00  9828   0.199E+00 0.386E-02
CGA:   3    -0.381655895058E+03   -0.45755E-01   -0.45711E-01  9828   0.327E-01-0.132E-02
CGA:   4    -0.381662077912E+03   -0.61829E-02   -0.61512E-02  9828   0.764E-02-0.452E-03
CGA:   5    -0.381663660888E+03   -0.15830E-02   -0.15741E-02  9828   0.191E-02-0.190E-03
CGA:   6    -0.381664119921E+03   -0.45903E-03   -0.45885E-03  9828   0.597E-03-0.280E-04
CGA:   7    -0.381664289584E+03   -0.16966E-03   -0.16904E-03  9828   0.265E-03 0.183E-04
CGA:   8    -0.381664396790E+03   -0.10721E-03   -0.11364E-03  9828   0.181E-03-0.398E-04
CGA:   9    -0.381664451135E+03   -0.54345E-04   -0.71449E-04  9828   0.147E-03-0.844E-04
CGA:  10    -0.381664472176E+03   -0.21041E-04   -0.30848E-04  9828   0.112E-03-0.813E-04
CGA:  11    -0.381664488545E+03   -0.16369E-04   -0.19115E-04  9828   0.316E-04 0.257E-04
CGA:  12    -0.381664496653E+03   -0.81074E-05   -0.88421E-05  9828   0.146E-04 0.160E-04
  57 F= -.38166450E+03 E0= -.38166450E+03  d E =0.583583E-02  mag=     4.0000
       N       E                     dE             d eps       ncg     rms          ort
SDA:   1    -0.380088589541E+03    0.15759E+01    0.00000E+00  9828   0.400E+01 0.000E+00
CGA:   2    -0.381270197052E+03   -0.11816E+01   -0.11814E+01  9828   0.142E+01 0.988E-02
CGA:   3    -0.381582094843E+03   -0.31190E+00   -0.31168E+00  9828   0.271E+00-0.348E-02
CGA:   4    -0.381630651280E+03   -0.48556E-01   -0.48409E-01  9828   0.544E-01-0.150E-02
CGA:   5    -0.381642003282E+03   -0.11352E-01   -0.11330E-01  9828   0.135E-01-0.330E-03
CGA:   6    -0.381645247673E+03   -0.32444E-02   -0.32433E-02  9828   0.412E-02-0.418E-04
CGA:   7    -0.381646458203E+03   -0.12105E-02   -0.12117E-02  9828   0.183E-02-0.449E-04
CGA:   8    -0.381647132758E+03   -0.67456E-03   -0.68477E-03  9828   0.984E-03-0.951E-04
CGA:   9    -0.381647482051E+03   -0.34929E-03   -0.37519E-03  9828   0.515E-03-0.205E-03
CGA:  10    -0.381647619771E+03   -0.13772E-03   -0.14729E-03  9828   0.235E-03-0.121E-03
CGA:  11    -0.381647684061E+03   -0.64289E-04   -0.71659E-04  9828   0.165E-03-0.655E-04
CGA:  12    -0.381647713057E+03   -0.28996E-04   -0.29475E-04  9828   0.715E-04 0.109E-04
CGA:  13    -0.381647739082E+03   -0.26025E-04   -0.25917E-04  9828   0.365E-04 0.196E-05
CGA:  14    -0.381647750867E+03   -0.11785E-04   -0.23012E-04  9828   0.113E-03-0.350E-04
CGA:  15    -0.381647764430E+03   -0.13563E-04   -0.15795E-04  9828   0.157E-04 0.139E-04
CGA:  16    -0.381647771897E+03   -0.74676E-05   -0.11368E-04  9828   0.281E-04-0.113E-04
CGA:  17    -0.381647777429E+03   -0.55320E-05   -0.17395E-04  9828   0.104E-03-0.390E-04
CGA:  18    -0.381647788755E+03   -0.11326E-04   -0.13949E-04  9828   0.934E-05 0.138E-04
CGA:  19    -0.381647792021E+03   -0.32657E-05   -0.32611E-05  9828   0.489E-05-0.335E-06
  58 F= -.38164779E+03 E0= -.38164779E+03  d E =0.167046E-01  mag=     4.0000
       N       E                     dE             d eps       ncg     rms          ort
SDA:   1    -0.381461316557E+03    0.18647E+00    0.00000E+00  9828   0.468E+00 0.000E+00
CGA:   2    -0.381616546141E+03   -0.15523E+00   -0.15525E+00  9828   0.144E+00-0.238E-02
CGA:   3    -0.381648314918E+03   -0.31769E-01   -0.31832E-01  9828   0.225E-01 0.646E-03
CGA:   4    -0.381652610796E+03   -0.42959E-02   -0.43344E-02  9828   0.507E-02 0.312E-03
CGA:   5    -0.381653647998E+03   -0.10372E-02   -0.10529E-02  9828   0.118E-02 0.149E-03
CGA:   6    -0.381653963501E+03   -0.31550E-03   -0.31479E-03  9828   0.391E-03-0.154E-04
CGA:   7    -0.381654088109E+03   -0.12461E-03   -0.12560E-03  9828   0.218E-03-0.450E-04
CGA:   8    -0.381654144621E+03   -0.56512E-04   -0.56639E-04  9828   0.814E-04 0.115E-04
CGA:   9    -0.381654167394E+03   -0.22773E-04   -0.23240E-04  9828   0.261E-04 0.144E-04
CGA:  10    -0.381654172445E+03   -0.50516E-05   -0.62178E-05  9828   0.894E-05 0.117E-04
  59 F= -.38165417E+03 E0= -.38165417E+03  d E =-.638042E-02  mag=     4.0000
       N       E                     dE             d eps       ncg     rms          ort
SDA:   1    -0.381604612353E+03    0.49555E-01    0.00000E+00  9828   0.115E+00 0.000E+00
CGA:   2    -0.381642558846E+03   -0.37946E-01   -0.37903E-01  9828   0.343E-01 0.118E-02
CGA:   3    -0.381650728058E+03   -0.81692E-02   -0.81401E-02  9828   0.481E-02-0.485E-03
CGA:   4    -0.381651758269E+03   -0.10302E-02   -0.10153E-02  9828   0.120E-02-0.190E-03
CGA:   5    -0.381651999508E+03   -0.24124E-03   -0.23760E-03  9828   0.295E-03-0.440E-04
CGA:   6    -0.381652072290E+03   -0.72782E-04   -0.72393E-04  9828   0.891E-04-0.130E-04
CGA:   7    -0.381652098132E+03   -0.25843E-04   -0.25917E-04  9828   0.427E-04-0.350E-05
CGA:   8    -0.381652107456E+03   -0.93242E-05   -0.27929E-04  9828   0.125E-03-0.469E-04
CGA:   9    -0.381652133113E+03   -0.25656E-04   -0.23856E-04  9828   0.193E-04-0.158E-04
CGA:  10    -0.381652136745E+03   -0.36324E-05   -0.37008E-05  9828   0.336E-05 0.902E-06
  60 F= -.38165214E+03 E0= -.38165214E+03  d E =0.203570E-02  mag=     4.0000
       N       E                     dE             d eps       ncg     rms          ort
SDA:   1    -0.381430700102E+03    0.22143E+00    0.00000E+00  9828   0.517E+00 0.000E+00
CGA:   2    -0.381607318749E+03   -0.17662E+00   -0.17649E+00  9828   0.149E+00 0.260E-02
CGA:   3    -0.381641643476E+03   -0.34325E-01   -0.34224E-01  9828   0.215E-01-0.149E-02
CGA:   4    -0.381646043147E+03   -0.43997E-02   -0.43889E-02  9828   0.517E-02-0.122E-03
CGA:   5    -0.381647112662E+03   -0.10695E-02   -0.10612E-02  9828   0.129E-02-0.101E-03
CGA:   6    -0.381647425657E+03   -0.31300E-03   -0.31280E-03  9828   0.383E-03-0.555E-05
CGA:   7    -0.381647539814E+03   -0.11416E-03   -0.11411E-03  9828   0.180E-03 0.304E-05
CGA:   8    -0.381647613084E+03   -0.73270E-04   -0.90522E-04  9828   0.196E-03-0.801E-04
CGA:   9    -0.381647647390E+03   -0.34305E-04   -0.38397E-04  9828   0.103E-03-0.691E-04
CGA:  10    -0.381647668626E+03   -0.21236E-04   -0.23534E-04  9828   0.682E-04-0.406E-04
CGA:  11    -0.381647682533E+03   -0.13907E-04   -0.14605E-04  9828   0.465E-04-0.131E-04
CGA:  12    -0.381647697010E+03   -0.14477E-04   -0.15053E-04  9828   0.324E-04-0.597E-05
CGA:  13    -0.381647706733E+03   -0.97226E-05   -0.97278E-05  9828   0.168E-04-0.181E-06
  61 F= -.38164771E+03 E0= -.38164771E+03  d E =0.443001E-02  mag=     4.0000
       N       E                     dE             d eps       ncg     rms          ort
SDA:   1    -0.371513469004E+03    0.10134E+02    0.00000E+00  9828   0.239E+02 0.000E+00
CGA:   2    -0.379062300194E+03   -0.75488E+01   -0.75488E+01  9828   0.873E+01-0.541E-02
CGA:   3    -0.380866933549E+03   -0.18046E+01   -0.18067E+01  9828   0.184E+01 0.130E-02
CGA:   4    -0.381203400466E+03   -0.33647E+00   -0.33433E+00  9828   0.359E+00 0.157E-01
CGA:   5    -0.381281558087E+03   -0.78158E-01   -0.78375E-01  9828   0.972E-01 0.268E-02
CGA:   6    -0.381306214415E+03   -0.24656E-01   -0.24646E-01  9828   0.332E-01-0.293E-03
CGA:   7    -0.381315469242E+03   -0.92548E-02   -0.92534E-02  9828   0.144E-01-0.106E-03
CGA:   8    -0.381320003866E+03   -0.45346E-02   -0.45462E-02  9828   0.744E-02-0.399E-03
CGA:   9    -0.381321835419E+03   -0.18316E-02   -0.18506E-02  9828   0.302E-02 0.605E-03
CGA:  10    -0.381322925096E+03   -0.10897E-02   -0.10916E-02  9828   0.175E-02-0.471E-04
CGA:  11    -0.381323651749E+03   -0.72665E-03   -0.70921E-03  9828   0.147E-02 0.138E-03
CGA:  12    -0.381324624984E+03   -0.97324E-03   -0.10807E-02  9828   0.296E-02-0.314E-03
CGA:  13    -0.381325648440E+03   -0.10235E-02   -0.10901E-02  9828   0.356E-02-0.556E-03
CGA:  14    -0.381326823702E+03   -0.11753E-02   -0.13463E-02  9828   0.305E-02-0.142E-02
[...]
CGA:   2    -0.381542122001E+03   -0.17877E+00   -0.17893E+00  9828   0.207E+00 0.446E-02
CGA:   3    -0.381593326969E+03   -0.51205E-01   -0.51128E-01  9828   0.366E-01-0.120E-02
CGA:   4    -0.381600293371E+03   -0.69664E-02   -0.68958E-02  9828   0.820E-02-0.603E-03
CGA:   5    -0.381602005409E+03   -0.17120E-02   -0.16923E-02  9828   0.208E-02-0.216E-03
CGA:   6    -0.381602507199E+03   -0.50179E-03   -0.50243E-03  9828   0.697E-03 0.126E-04
CGA:   7    -0.381602714193E+03   -0.20699E-03   -0.20695E-03  9828   0.322E-03 0.336E-04
CGA:   8    -0.381602849369E+03   -0.13518E-03   -0.13916E-03  9828   0.209E-03-0.338E-04
CGA:   9    -0.381602919207E+03   -0.69838E-04   -0.75230E-04  9828   0.108E-03-0.522E-04
CGA:  10    -0.381602947429E+03   -0.28223E-04   -0.33453E-04  9828   0.709E-04-0.479E-04
CGA:  11    -0.381602955659E+03   -0.82292E-05   -0.84948E-05  9828   0.300E-04 0.285E-05
  95 F= -.38160296E+03 E0= -.38160296E+03  d E =0.114540E-01  mag=     4.0000
       N       E                     dE             d eps       ncg     rms          ort
SDA:   1    -0.379797812936E+03    0.18051E+01    0.00000E+00  9828   0.460E+01 0.000E+00
CGA:   2    -0.381142779870E+03   -0.13450E+01   -0.13451E+01  9828   0.155E+01 0.135E-01
CGA:   3    -0.381502376757E+03   -0.35960E+00   -0.35931E+00  9828   0.272E+00-0.443E-02
CGA:   4    -0.381552649995E+03   -0.50273E-01   -0.50093E-01  9828   0.587E-01-0.156E-02
CGA:   5    -0.381564938156E+03   -0.12288E-01   -0.12250E-01  9828   0.145E-01-0.461E-03
CGA:   6    -0.381568464192E+03   -0.35260E-02   -0.35259E-02  9828   0.472E-02-0.524E-05
CGA:   7    -0.381569886029E+03   -0.14218E-02   -0.14216E-02  9828   0.221E-02 0.115E-04
CGA:   8    -0.381570730161E+03   -0.84413E-03   -0.86276E-03  9828   0.126E-02-0.179E-03
CGA:   9    -0.381571139939E+03   -0.40978E-03   -0.42022E-03  9828   0.507E-03-0.147E-03
CGA:  10    -0.381571298811E+03   -0.15887E-03   -0.17007E-03  9828   0.254E-03-0.132E-03
CGA:  11    -0.381571346585E+03   -0.47774E-04   -0.48562E-04  9828   0.974E-04 0.197E-04
CGA:  12    -0.381571380759E+03   -0.34174E-04   -0.34218E-04  9828   0.512E-04-0.163E-05
CGA:  13    -0.381571398261E+03   -0.17502E-04   -0.17219E-04  9828   0.238E-04 0.636E-05
CGA:  14    -0.381571404161E+03   -0.59000E-05   -0.64360E-05  9828   0.107E-04 0.883E-05
  96 F= -.38157140E+03 E0= -.38157140E+03  d E =0.315515E-01  mag=     4.0000
       N       E                     dE             d eps       ncg     rms          ort
SDA:   1    -0.381501193236E+03    0.70205E-01    0.00000E+00  9828   0.190E+00 0.000E+00
CGA:   2    -0.381555700427E+03   -0.54507E-01   -0.54487E-01  9828   0.742E-01-0.882E-03
CGA:   3    -0.381571239092E+03   -0.15539E-01   -0.15548E-01  9828   0.176E-01 0.869E-04
CGA:   4    -0.381574449861E+03   -0.32108E-02   -0.32597E-02  9828   0.295E-02 0.485E-03
CGA:   5    -0.381575106798E+03   -0.65694E-03   -0.66631E-03  9828   0.858E-03 0.123E-03
CGA:   6    -0.381575335112E+03   -0.22831E-03   -0.22702E-03  9828   0.367E-03-0.339E-04
CGA:   7    -0.381575431039E+03   -0.95927E-04   -0.95938E-04  9828   0.134E-03 0.108E-05
CGA:   8    -0.381575473791E+03   -0.42752E-04   -0.42597E-04  9828   0.551E-04 0.571E-05
CGA:   9    -0.381575486708E+03   -0.12918E-04   -0.13692E-04  9828   0.180E-04 0.147E-04
CGA:  10    -0.381575492533E+03   -0.58253E-05   -0.59922E-05  9828   0.809E-05 0.656E-05
  97 F= -.38157549E+03 E0= -.38157549E+03  d E =-.408837E-02  mag=     4.0000
       N       E                     dE             d eps       ncg     rms          ort
SDA:   1    -0.381421897096E+03    0.15359E+00    0.00000E+00  9828   0.423E+00 0.000E+00
CGA:   2    -0.381547991877E+03   -0.12609E+00   -0.12610E+00  9828   0.144E+00-0.321E-02
CGA:   3    -0.381580254728E+03   -0.32263E-01   -0.32321E-01  9828   0.252E-01 0.864E-03
CGA:   4    -0.381584840137E+03   -0.45854E-02   -0.46275E-02  9828   0.527E-02 0.398E-03
CGA:   5    -0.381585954667E+03   -0.11145E-02   -0.11264E-02  9828   0.124E-02 0.156E-03
CGA:   6    -0.381586295911E+03   -0.34124E-03   -0.34057E-03  9828   0.486E-03-0.399E-04
CGA:   7    -0.381586443847E+03   -0.14794E-03   -0.15014E-03  9828   0.287E-03-0.596E-04
CGA:   8    -0.381586518159E+03   -0.74312E-04   -0.74195E-04  9828   0.115E-03 0.110E-04
CGA:   9    -0.381586554785E+03   -0.36626E-04   -0.36522E-04  9828   0.415E-04 0.491E-05
CGA:  10    -0.381586565559E+03   -0.10773E-04   -0.11009E-04  9828   0.123E-04 0.758E-05
CGA:  11    -0.381586570574E+03   -0.50154E-05   -0.49902E-05  9828   0.644E-05 0.424E-06
CGA:  12    -0.381586574724E+03   -0.41503E-05    0.11092E-04  9828   0.317E-05 0.146E-05
  98 F= -.38158657E+03 E0= -.38158657E+03  d E =-.110822E-01  mag=     4.0000
       N       E                     dE             d eps       ncg     rms          ort
SDA:   1    -0.381571363304E+03    0.15207E-01    0.00000E+00  9828   0.383E-01 0.000E+00
CGA:   2    -0.381584248427E+03   -0.12885E-01   -0.12893E-01  9828   0.125E-01-0.396E-03
CGA:   3    -0.381586803808E+03   -0.25554E-02   -0.25658E-02  9828   0.219E-02 0.954E-04
CGA:   4    -0.381587182167E+03   -0.37836E-03   -0.39101E-03  9828   0.440E-03 0.941E-04
CGA:   5    -0.381587278647E+03   -0.96480E-04   -0.97420E-04  9828   0.109E-03 0.101E-04
CGA:   6    -0.381587312170E+03   -0.33522E-04   -0.33548E-04  9828   0.541E-04-0.270E-04
CGA:   7    -0.381587323667E+03   -0.11497E-04   -0.11328E-04  9828   0.230E-04-0.757E-05
CGA:   8    -0.381587329389E+03   -0.57217E-05   -0.57275E-05  9828   0.854E-05 0.537E-06
  99 F= -.38158733E+03 E0= -.38158733E+03  d E =-.754665E-03  mag=     4.0000
       N       E                     dE             d eps       ncg     rms          ort
SDA:   1    -0.381458883137E+03    0.12844E+00    0.00000E+00  9828   0.292E+00 0.000E+00
CGA:   2    -0.381567880217E+03   -0.10900E+00   -0.10902E+00  9828   0.733E-01-0.417E-03
CGA:   3    -0.381583525171E+03   -0.15645E-01   -0.15660E-01  9828   0.122E-01 0.152E-03
CGA:   4    -0.381585928960E+03   -0.24038E-02   -0.24094E-02  9828   0.282E-02 0.534E-04
CGA:   5    -0.381586529984E+03   -0.60102E-03   -0.60021E-03  9828   0.662E-03-0.893E-05
CGA:   6    -0.381586699401E+03   -0.16942E-03   -0.16753E-03  9828   0.216E-03-0.439E-04
CGA:   7    -0.381586760675E+03   -0.61274E-04   -0.61548E-04  9828   0.102E-03-0.269E-04
CGA:   8    -0.381586790289E+03   -0.29614E-04   -0.30094E-04  9828   0.432E-04-0.115E-04
CGA:   9    -0.381586797568E+03   -0.72790E-05   -0.26288E-04  9828   0.103E-03-0.489E-04
CGA:  10    -0.381586813986E+03   -0.16418E-04   -0.17877E-04  9828   0.117E-04 0.103E-04
CGA:  11    -0.381586802393E+03    0.11593E-04   -0.13694E-04  9828   0.128E-03-0.333E-04
CGA:  12    -0.381586819093E+03   -0.16700E-04   -0.20659E-04  9828   0.175E-04 0.217E-04
CGA:  13    -0.381586825971E+03   -0.68775E-05   -0.68417E-05  9828   0.573E-05-0.789E-05
 100 F= -.38158683E+03 E0= -.38158683E+03  d E =0.503418E-03  mag=     4.0000
       N       E                     dE             d eps       ncg     rms          ort
SDA:   1    -0.380800658659E+03    0.78616E+00    0.00000E+00  9828   0.179E+01 0.000E+00
CGA:   2    -0.381471026172E+03   -0.67037E+00   -0.67041E+00  9828   0.441E+00-0.131E-02
CGA:   3    -0.381566299939E+03   -0.95274E-01   -0.95273E-01  9828   0.719E-01 0.183E-04
CGA:   4    -0.381580535410E+03   -0.14235E-01   -0.14291E-01  9828   0.173E-01 0.397E-03
CGA:   5    -0.381584145342E+03   -0.36099E-02   -0.35986E-02  9828   0.409E-02-0.900E-04
CGA:   6    -0.381585152048E+03   -0.10067E-02   -0.99659E-03  9828   0.123E-02-0.128E-03
CGA:   7    -0.381585497765E+03   -0.34572E-03   -0.34430E-03  9828   0.512E-03-0.472E-04
CGA:   8    -0.381585677811E+03   -0.18005E-03   -0.18472E-03  9828   0.269E-03-0.824E-04
CGA:   9    -0.381585757088E+03   -0.79277E-04   -0.81280E-04  9828   0.108E-03-0.520E-04
CGA:  10    -0.381585786210E+03   -0.29122E-04   -0.45800E-04  9828   0.149E-03-0.819E-04
CGA:  11    -0.381585807724E+03   -0.21514E-04   -0.25048E-04  9828   0.253E-04 0.217E-04
CGA:  12    -0.381585817898E+03   -0.10173E-04   -0.19821E-04  9828   0.776E-04-0.269E-04
CGA:  13    -0.381585829885E+03   -0.11988E-04   -0.14104E-04  9828   0.120E-04 0.132E-04
CGA:  14    -0.381585839405E+03   -0.95196E-05    0.26526E-03  9828   0.860E-05-0.245E-05
 101 F= -.38158584E+03 E0= -.38158584E+03  d E =0.986566E-03  mag=     4.0000
       N       E                     dE             d eps       ncg     rms          ort
SDA:   1    -0.381122865010E+03    0.46296E+00    0.00000E+00  9828   0.109E+01 0.000E+00
CGA:   2    -0.381505723463E+03   -0.38286E+00   -0.38289E+00  9828   0.324E+00-0.179E-02
CGA:   3    -0.381572951855E+03   -0.67228E-01   -0.67254E-01  9828   0.575E-01 0.229E-03
CGA:   4    -0.381583651082E+03   -0.10699E-01   -0.10738E-01  9828   0.125E-01 0.297E-03
CGA:   5    -0.381586315550E+03   -0.26645E-02   -0.26700E-02  9828   0.301E-02 0.513E-04
CGA:   6    -0.381587065718E+03   -0.75017E-03   -0.74268E-03  9828   0.940E-03-0.106E-03
CGA:   7    -0.381587338692E+03   -0.27297E-03   -0.27180E-03  9828   0.443E-03-0.870E-04
CGA:   8    -0.381587474797E+03   -0.13611E-03   -0.13716E-03  9828   0.211E-03-0.366E-04
CGA:   9    -0.381587549302E+03   -0.74505E-04   -0.91164E-04  9828   0.211E-03-0.105E-03
CGA:  10    -0.381587576942E+03   -0.27640E-04   -0.25560E-04  9828   0.977E-04-0.260E-04
CGA:  11    -0.381587605707E+03   -0.28765E-04   -0.29728E-04  9828   0.889E-04-0.331E-04
CGA:  12    -0.381587506972E+03    0.98736E-04   -0.65187E-04  9828   0.996E-03-0.208E-03
CGA:  13    -0.381587660549E+03   -0.15358E-03   -0.16399E-03  9828   0.158E-03 0.584E-04
CGA:  14    -0.381587711188E+03   -0.50639E-04   -0.49918E-04  9828   0.242E-04-0.141E-04
CGA:  15    -0.381587716388E+03   -0.51997E-05   -0.58214E-05  9828   0.747E-05 0.757E-05
CGA:  16    -0.381587713652E+03    0.27361E-05   -0.12175E-04  9828   0.641E-04-0.167E-04
CGA:  17    -0.381587728749E+03   -0.15097E-04   -0.15792E-04  9828   0.103E-04 0.502E-05
CGA:  18    -0.381587514213E+03    0.21454E-03   -0.11734E-03  9828   0.148E-02-0.115E-03
CGA:  19    -0.381587708073E+03   -0.19386E-03   -0.21502E-03  9828   0.111E-03 0.581E-04
CGA:  20    -0.381587746111E+03   -0.38038E-04   -0.37215E-04  9828   0.853E-05-0.236E-05
CGA:  21    -0.381587751213E+03   -0.51024E-05   -0.60650E-05  9828   0.443E-04-0.124E-04
 102 F= -.38158775E+03 E0= -.38158775E+03  d E =-.191181E-02  mag=     4.0000
       N       E                     dE             d eps       ncg     rms          ort
SDA:   1    -0.381347840210E+03    0.23991E+00    0.00000E+00  9828   0.555E+00 0.000E+00
CGA:   2    -0.381554286411E+03   -0.20645E+00   -0.20643E+00  9828   0.139E+00-0.714E-04
CGA:   3    -0.381584146421E+03   -0.29860E-01   -0.29794E-01  9828   0.247E-01-0.148E-03
CGA:   4    -0.381588889396E+03   -0.47430E-02   -0.47563E-02  9828   0.561E-02 0.477E-04
CGA:   5    -0.381590090738E+03   -0.12013E-02   -0.11983E-02  9828   0.133E-02-0.731E-05
CGA:   6    -0.381590408322E+03   -0.31758E-03   -0.31582E-03  9828   0.391E-03-0.552E-05
CGA:   7    -0.381590512143E+03   -0.10382E-03   -0.10585E-03  9828   0.150E-03 0.772E-05
CGA:   8    -0.381590563232E+03   -0.51088E-04   -0.50860E-04  9828   0.644E-04-0.108E-05
CGA:   9    -0.381590580339E+03   -0.17107E-04   -0.18267E-04  9828   0.200E-04 0.508E-05
CGA:  10    -0.381590585776E+03   -0.54377E-05   -0.59150E-05  9828   0.597E-05 0.206E-05
 103 F= -.38159059E+03 E0= -.38159059E+03  d E =-.283456E-02  mag=     4.0000
       N       E                     dE             d eps       ncg     rms          ort
SDA:   1    -0.381579241572E+03    0.11339E-01    0.00000E+00  9828   0.273E-01 0.000E+00
CGA:   2    -0.381588516651E+03   -0.92751E-02   -0.92954E-02  9828   0.972E-02 0.149E-03
CGA:   3    -0.381590459627E+03   -0.19430E-02   -0.19027E-02  9828   0.180E-02-0.146E-03
CGA:   4    -0.381590798869E+03   -0.33924E-03   -0.33467E-03  9828   0.381E-03-0.164E-04
CGA:   5    -0.381590878710E+03   -0.79841E-04   -0.79139E-04  9828   0.933E-04-0.297E-05
CGA:   6    -0.381590896938E+03   -0.18228E-04   -0.19800E-04  9828   0.236E-04 0.720E-05
CGA:   7    -0.381590900932E+03   -0.39932E-05   -0.53677E-05  9828   0.731E-05 0.655E-05
 104 F= -.38159090E+03 E0= -.38159090E+03  d E =-.315155E-03  mag=     4.0000
       N       E                     dE             d eps       ncg     rms          ort
SDA:   1    -0.381559744687E+03    0.31152E-01    0.00000E+00  9828   0.704E-01 0.000E+00
CGA:   2    -0.381586094808E+03   -0.26350E-01   -0.26343E-01  9828   0.184E-01-0.153E-03
CGA:   3    -0.381589835387E+03   -0.37406E-02   -0.37520E-02  9828   0.329E-02 0.555E-04
CGA:   4    -0.381590441138E+03   -0.60575E-03   -0.60679E-03  9828   0.795E-03 0.538E-05
CGA:   5    -0.381590602773E+03   -0.16164E-03   -0.16313E-03  9828   0.175E-03 0.783E-05
CGA:   6    -0.381590646922E+03   -0.44150E-04   -0.43392E-04  9828   0.510E-04-0.530E-05
CGA:   7    -0.381590666008E+03   -0.19086E-04   -0.19287E-04  9828   0.453E-04-0.218E-04
CGA:   8    -0.381590671004E+03   -0.49963E-05   -0.52804E-05  9828   0.186E-04 0.163E-05
 105 F= -.38159067E+03 E0= -.38159067E+03  d E =0.229927E-03  mag=     4.0000
       N       E                     dE             d eps       ncg     rms          ort
SDA:   1    -0.372146414861E+03    0.94443E+01    0.00000E+00  9828   0.217E+02 0.000E+00
CGA:   2    -0.380047923789E+03   -0.79015E+01   -0.79015E+01  9828   0.626E+01-0.367E-02
CGA:   3    -0.381294276539E+03   -0.12464E+01   -0.12467E+01  9828   0.111E+01-0.445E-02
CGA:   4    -0.381507884087E+03   -0.21361E+00   -0.21394E+00  9828   0.247E+00 0.300E-02
CGA:   5    -0.381560290252E+03   -0.52406E-01   -0.52425E-01  9828   0.627E-01 0.179E-03
CGA:   6    -0.381575337060E+03   -0.15047E-01   -0.14944E-01  9828   0.181E-01-0.100E-02
CGA:   7    -0.381580670541E+03   -0.53335E-02   -0.53104E-02  9828   0.749E-02-0.618E-03
CGA:   8    -0.381583187121E+03   -0.25166E-02   -0.25253E-02  9828   0.333E-02-0.559E-03
CGA:   9    -0.381584226434E+03   -0.10393E-02   -0.10410E-02  9828   0.114E-02-0.407E-03
CGA:  10    -0.381584577343E+03   -0.35091E-03   -0.35705E-03  9828   0.456E-03-0.283E-03
CGA:  11    -0.381584708386E+03   -0.13104E-03   -0.13882E-03  9828   0.273E-03-0.113E-03
CGA:  12    -0.381583087405E+03    0.16210E-02   -0.87560E-03  9828   0.107E-01-0.111E-02
CGA:  13    -0.381584710440E+03   -0.16230E-02   -0.16939E-02  9828   0.122E-02 0.391E-03
CGA:  14    -0.381585059257E+03   -0.34882E-03   -0.34658E-03  9828   0.213E-03-0.512E-05
CGA:  15    -0.381585119770E+03   -0.60513E-04   -0.67805E-04  9828   0.648E-04 0.282E-04
CGA:  16    -0.381585132967E+03   -0.13197E-04   -0.19576E-04  9828   0.241E-04 0.213E-04
CGA:  17    -0.381585138808E+03   -0.58402E-05   -0.91402E-05  9828   0.120E-04 0.124E-04
 106 F= -.38158514E+03 E0= -.38158514E+03  d E =0.553220E-02  mag=     4.0000
       N       E                     dE             d eps       ncg     rms          ort
SDA:   1    -0.381308870907E+03    0.27626E+00    0.00000E+00  9828   0.722E+00 0.000E+00
CGA:   2    -0.381522832878E+03   -0.21396E+00   -0.21383E+00  9828   0.260E+00-0.423E-03
CGA:   3    -0.381579326144E+03   -0.56493E-01   -0.56369E-01  9828   0.554E-01-0.378E-03
CGA:   4    -0.381589405569E+03   -0.10079E-01   -0.10126E-01  9828   0.107E-01 0.293E-03
CGA:   5    -0.381591753589E+03   -0.23480E-02   -0.23569E-02  9828   0.278E-02 0.348E-04
CGA:   6    -0.381592455550E+03   -0.70196E-03   -0.69684E-03  9828   0.103E-02-0.236E-04
CGA:   7    -0.381592736748E+03   -0.28120E-03   -0.28160E-03  9828   0.423E-03 0.298E-05
CGA:   8    -0.381592903267E+03   -0.16652E-03   -0.16200E-03  9828   0.258E-03-0.633E-04
CGA:   9    -0.381592973320E+03   -0.70052E-04   -0.67168E-04  9828   0.102E-03-0.196E-04
CGA:  10    -0.381593010080E+03   -0.36761E-04   -0.35002E-04  9828   0.557E-04-0.243E-04
CGA:  11    -0.381593024531E+03   -0.14451E-04   -0.14446E-04  9828   0.270E-04-0.252E-07
CGA:  12    -0.381592720283E+03    0.30425E-03   -0.16392E-03  9828   0.141E-02-0.164E-03
CGA:  13    -0.381593029356E+03   -0.30907E-03   -0.32527E-03  9828   0.214E-03 0.312E-04
CGA:  14    -0.381593097095E+03   -0.67739E-04   -0.52603E-04  9828   0.728E-04-0.282E-04
CGA:  15    -0.381593110420E+03   -0.13326E-04   -0.17582E-04  9828   0.193E-04 0.951E-05
CGA:  16    -0.381593123430E+03   -0.13009E-04   -0.12289E-04  9828   0.151E-04-0.482E-05
CGA:  17    -0.381593129348E+03   -0.59179E-05   -0.45487E-05  9828   0.149E-04-0.443E-05
 107 F= -.38159313E+03 E0= -.38159313E+03  d E =-.799054E-02  mag=     4.0000
       N       E                     dE             d eps       ncg     rms          ort
SDA:   1    -0.378260859688E+03    0.33323E+01    0.00000E+00  9828   0.768E+01 0.000E+00
CGA:   2    -0.381063642770E+03   -0.28028E+01   -0.28041E+01  9828   0.216E+01 0.250E-02
CGA:   3    -0.381499467445E+03   -0.43582E+00   -0.43564E+00  9828   0.381E+00 0.413E-03
CGA:   4    -0.381572481775E+03   -0.73014E-01   -0.72963E-01  9828   0.858E-01 0.229E-03
CGA:   5    -0.381590565011E+03   -0.18083E-01   -0.18040E-01  9828   0.206E-01-0.738E-04
CGA:   6    -0.381595407908E+03   -0.48429E-02   -0.48176E-02  9828   0.570E-02-0.720E-04
CGA:   7    -0.381597015413E+03   -0.16075E-02   -0.16076E-02  9828   0.221E-02 0.565E-06
CGA:   8    -0.381597786149E+03   -0.77074E-03   -0.75597E-03  9828   0.982E-03-0.677E-04
CGA:   9    -0.381598090636E+03   -0.30449E-03   -0.30036E-03  9828   0.323E-03-0.174E-04
CGA:  10    -0.381598197612E+03   -0.10698E-03   -0.99940E-04  9828   0.113E-03-0.317E-04
CGA:  11    -0.381598217181E+03   -0.19568E-04   -0.24726E-04  9828   0.393E-04 0.184E-04
CGA:  12    -0.381598231581E+03   -0.14400E-04   -0.15438E-04  9828   0.245E-04 0.595E-05
CGA:  13    -0.381598239402E+03   -0.78210E-05   -0.96326E-05  9828   0.175E-04 0.112E-04
 108 F= -.38159824E+03 E0= -.38159824E+03  d E =-.511005E-02  mag=     4.0000
       N       E                     dE             d eps       ncg     rms          ort
SDA:   1    -0.381487828775E+03    0.11040E+00    0.00000E+00  9828   0.268E+00 0.000E+00
CGA:   2    -0.381566046836E+03   -0.78218E-01   -0.78417E-01  9828   0.111E+00 0.111E-02
CGA:   3    -0.381588776107E+03   -0.22729E-01   -0.22631E-01  9828   0.216E-01-0.390E-03
CGA:   4    -0.381592793754E+03   -0.40176E-02   -0.39841E-02  9828   0.433E-02-0.940E-04
CGA:   5    -0.381593704694E+03   -0.91094E-03   -0.90801E-03  9828   0.107E-02-0.125E-04
CGA:   6    -0.381593941895E+03   -0.23720E-03   -0.24418E-03  9828   0.306E-03 0.342E-04
CGA:   7    -0.381594005150E+03   -0.63256E-04   -0.73404E-04  9828   0.953E-04 0.538E-04
CGA:   8    -0.381594032402E+03   -0.27251E-04   -0.30778E-04  9828   0.417E-04 0.257E-04
CGA:   9    -0.381594039423E+03   -0.70213E-05   -0.11332E-04  9828   0.172E-04 0.225E-04
 109 F= -.38159404E+03 E0= -.38159404E+03  d E =0.419998E-02  mag=     4.0000
       N       E                     dE             d eps       ncg     rms          ort
SDA:   1    -0.381424321917E+03    0.16971E+00    0.00000E+00  9828   0.402E+00 0.000E+00
CGA:   2    -0.381562839566E+03   -0.13852E+00   -0.13847E+00  9828   0.141E+00-0.106E-02
CGA:   3    -0.381589505250E+03   -0.26666E-01   -0.26741E-01  9828   0.255E-01 0.419E-03
CGA:   4    -0.381594352363E+03   -0.48471E-02   -0.48597E-02  9828   0.537E-02 0.712E-04
CGA:   5    -0.381595489865E+03   -0.11375E-02   -0.11391E-02  9828   0.128E-02 0.110E-04
CGA:   6    -0.381595800901E+03   -0.31104E-03   -0.30690E-03  9828   0.382E-03-0.348E-04
CGA:   7    -0.381595918465E+03   -0.11756E-03   -0.11492E-03  9828   0.180E-03-0.628E-04
CGA:   8    -0.381595963370E+03   -0.44905E-04   -0.44565E-04  9828   0.645E-04-0.628E-05
CGA:   9    -0.381595987814E+03   -0.24445E-04   -0.30657E-04  9828   0.697E-04-0.424E-04
CGA:  10    -0.381595994884E+03   -0.70694E-05   -0.10236E-04  9828   0.883E-05 0.154E-04
 110 F= -.38159599E+03 E0= -.38159599E+03  d E =-.195546E-02  mag=     4.0000
