       N       E                     dE             d eps       ncg     rms          ort
DAV:   1     0.264926674143E+04    0.26493E+04   -0.14807E+05  6336   0.155E+03
DAV:   2    -0.267994344755E+03   -0.29173E+04   -0.28195E+04  6336   0.430E+02
DAV:   3    -0.512472548676E+03   -0.24448E+03   -0.24019E+03  6336   0.140E+02
DAV:   4    -0.523166193245E+03   -0.10694E+02   -0.10587E+02  6336   0.307E+01
DAV:   5    -0.523800905084E+03   -0.63471E+00   -0.63271E+00  6336   0.453E+00
SDA:   6    -0.347222150588E+03    0.17658E+03   -0.63271E+00  6336   0.661E+03 0.000E+00
CGA:   7    -0.390075770896E+03   -0.42854E+02   -0.52402E+02  6336   0.348E+03 0.101E+03
CGA:   8    -0.409948250109E+03   -0.19872E+02   -0.26179E+02  6336   0.224E+03-0.260E+03
CGA:   9    -0.403473674263E+03    0.64746E+01   -0.13096E+02  6336   0.509E+03 0.302E+01
CGA:  10    -0.399957762382E+03    0.35159E+01   -0.30657E+02  6336   0.478E+03-0.314E+02
CGA:  11    -0.411761885620E+03   -0.11804E+02   -0.26233E+02  6336   0.718E+02-0.548E+02
CGA:  12    -0.417712093829E+03   -0.59502E+01   -0.24820E+01  6336   0.721E+02 0.987E+02
CGA:  13    -0.422423470322E+03   -0.47114E+01   -0.28971E+01  6336   0.100E+02 0.212E+02
CGA:  14    -0.423294851319E+03   -0.87138E+00   -0.86160E+00  6336   0.127E+02-0.814E-01
CGA:  15    -0.423971725897E+03   -0.67687E+00   -0.81125E+00  6336   0.177E+02-0.518E+01
CGA:  16    -0.424170707355E+03   -0.19898E+00   -0.20706E+00  6336   0.138E+02 0.661E+00
CGA:  17    -0.424502839274E+03   -0.33213E+00   -0.34399E+00  6336   0.448E+01-0.848E+01
CGA:  18    -0.425019344490E+03   -0.51651E+00   -0.53879E+00  6336   0.290E+01 0.616E+00
CGA:  19    -0.425223064637E+03   -0.20372E+00   -0.23490E+00  6336   0.401E+01-0.225E+00
CGA:  20    -0.425363004107E+03   -0.13994E+00   -0.14500E+00  6336   0.109E+01-0.357E+00
CGA:  21    -0.425498623939E+03   -0.13562E+00   -0.13483E+00  6336   0.131E+01 0.337E-01
CGA:  22    -0.425670409934E+03   -0.17179E+00   -0.11970E+00  6336   0.401E+00 0.317E+00
CGA:  23    -0.425704534995E+03   -0.34125E-01   -0.34359E-01  6336   0.117E+01-0.111E-02
CGA:  24    -0.425764981619E+03   -0.60447E-01   -0.62288E-01  6336   0.871E+00-0.199E-01
CGA:  25    -0.425779855443E+03   -0.14874E-01   -0.17486E-01  6336   0.265E+00-0.136E+00
CGA:  26    -0.425801965053E+03   -0.22110E-01   -0.21908E-01  6336   0.539E+00-0.753E-02
CGA:  27    -0.425825679077E+03   -0.23714E-01   -0.25136E-01  6336   0.353E+00-0.373E-01
CGA:  28    -0.425837753317E+03   -0.12074E-01   -0.14562E-01  6336   0.120E+00-0.487E-01
CGA:  29    -0.425857925401E+03   -0.20172E-01   -0.25720E-01  6336   0.313E+00-0.486E-01
CGA:  30    -0.425862490460E+03   -0.45651E-02   -0.41573E-02  6336   0.206E+00 0.201E-01
CGA:  31    -0.425868945887E+03   -0.64554E-02   -0.81522E-02  6336   0.152E+00-0.403E-01
CGA:  32    -0.425879297395E+03   -0.10352E-01   -0.10421E-01  6336   0.193E+00-0.627E-02
CGA:  33    -0.425887730003E+03   -0.84326E-02   -0.79435E-02  6336   0.500E-01 0.213E-02
CGA:  34    -0.425890228675E+03   -0.24987E-02   -0.24471E-02  6336   0.477E-01 0.211E-02
CGA:  35    -0.425896389633E+03   -0.61610E-02   -0.61417E-02  6336   0.996E-01 0.167E-02
CGA:  36    -0.425900803008E+03   -0.44134E-02   -0.44307E-02  6336   0.316E-01-0.159E-02
CGA:  37    -0.425902798456E+03   -0.19954E-02   -0.18338E-02  6336   0.332E-01-0.519E-02
CGA:  38    -0.425905384718E+03   -0.25863E-02   -0.25670E-02  6336   0.396E-01-0.649E-02
CGA:  39    -0.425906659808E+03   -0.12751E-02   -0.12105E-02  6336   0.245E-01 0.251E-02
CGA:  40    -0.425907663643E+03   -0.10038E-02   -0.11547E-02  6336   0.255E-01 0.488E-02
CGA:  41    -0.425908647631E+03   -0.98399E-03   -0.12137E-02  6336   0.144E-01 0.640E-02
CGA:  42    -0.425909142929E+03   -0.49530E-03   -0.59545E-03  6336   0.837E-02 0.193E-02
CGA:  43    -0.425909842401E+03   -0.69947E-03   -0.70070E-03  6336   0.197E-01 0.128E-03
CGA:  44    -0.425910856288E+03   -0.10139E-02   -0.10472E-02  6336   0.178E-01 0.123E-02
CGA:  45    -0.425911215257E+03   -0.35897E-03   -0.40883E-03  6336   0.551E-02 0.313E-02
CGA:  46    -0.425911312258E+03   -0.97001E-04   -0.15013E-03  6336   0.395E-02 0.133E-02
CGA:  47    -0.425911440907E+03   -0.12865E-03   -0.18342E-03  6336   0.681E-02 0.150E-02
SDA:  48    -0.425911774363E+03   -0.33346E-03   -0.40431E-03  6336   0.719E-02 0.234E-02
CGA:  49    -0.425912167851E+03   -0.39349E-03   -0.35074E-03  6336   0.328E-02-0.188E-02
CGA:  50    -0.425909613265E+03    0.25546E-02   -0.13525E-02  6336   0.166E+00-0.963E-02
CGA:  51    -0.425912727378E+03   -0.31141E-02   -0.31715E-02  6336   0.102E-01 0.114E-01
CGA:  52    -0.425913090972E+03   -0.36359E-03   -0.46926E-03  6336   0.375E-02 0.202E-02
CGA:  53    -0.425913157514E+03   -0.66542E-04   -0.12493E-03  6336   0.902E-03 0.606E-03
CGA:  54    -0.425913155764E+03    0.17504E-05   -0.32674E-04  6336   0.429E-03 0.417E-03
CGA:  55    -0.425913180891E+03   -0.25127E-04   -0.37022E-04  6336   0.887E-03 0.223E-03
CGA:  56    -0.425913274214E+03   -0.93323E-04   -0.53405E-04  6336   0.227E-02-0.810E-03
CGA:  57    -0.425913293377E+03   -0.19163E-04   -0.42527E-04  6336   0.228E-03 0.257E-03
CGA:  58    -0.425913305710E+03   -0.12333E-04   -0.15758E-04  6336   0.431E-03 0.843E-04
CGA:  59    -0.425912484844E+03    0.82087E-03   -0.43610E-03  6336   0.544E-01-0.231E-02
CGA:  60    -0.425913505077E+03   -0.10202E-02   -0.10176E-02  6336   0.263E-02 0.455E-02
CGA:  61    -0.425913625307E+03   -0.12023E-03   -0.11644E-03  6336   0.163E-02-0.113E-03
CGA:  62    -0.425913746850E+03   -0.12154E-03   -0.12393E-03  6336   0.285E-02 0.195E-04
CGA:  63    -0.425913809902E+03   -0.63053E-04   -0.98248E-04  6336   0.402E-03 0.290E-03
CGA:  64    -0.425913878901E+03   -0.68999E-04   -0.45751E-04  6336   0.226E-02-0.423E-03
CGA:  65    -0.425913948702E+03   -0.69801E-04   -0.47186E-04  6336   0.148E-03-0.193E-03
CGA:  66    -0.425913946821E+03    0.18812E-05   -0.57170E-05  6336   0.759E-04 0.719E-04
   1 F= -.42591395E+03 E0= -.42590547E+03  d E =-.425914E+03  mag=    10.0000
       N       E                     dE             d eps       ncg     rms          ort
SDA:   1    -0.425914321059E+03   -0.37236E-03    0.00000E+00  6336   0.430E-01 0.000E+00
CGA:   2    -0.425914994511E+03   -0.67345E-03   -0.82276E-03  6336   0.397E-02 0.141E-02
CGA:   3    -0.425915207465E+03   -0.21295E-03   -0.29421E-03  6336   0.224E-02 0.139E-02
CGA:   4    -0.425915406880E+03   -0.19942E-03   -0.20259E-03  6336   0.539E-02 0.243E-04
CGA:   5    -0.425915670950E+03   -0.26407E-03   -0.29206E-03  6336   0.284E-02 0.375E-03
CGA:   6    -0.425915726690E+03   -0.55740E-04   -0.61303E-04  6336   0.864E-03 0.578E-04
CGA:   7    -0.425915699702E+03    0.26988E-04   -0.18804E-03  6336   0.871E-02-0.226E-02
CGA:   8    -0.425915936252E+03   -0.23655E-03   -0.26468E-03  6336   0.305E-02 0.293E-03
CGA:   9    -0.425915948232E+03   -0.11979E-04   -0.86943E-04  6336   0.401E-03 0.915E-03
CGA:  10    -0.425915935485E+03    0.12747E-04   -0.98753E-05  6336   0.178E-03 0.239E-03
CGA:  11    -0.425915941366E+03   -0.58810E-05   -0.10189E-04  6336   0.173E-03 0.816E-04
CGA:  12    -0.425915946259E+03   -0.48936E-05   -0.12615E-04  6336   0.101E-03 0.135E-03
   2 F= -.42591595E+03 E0= -.42590747E+03  d E =-.199944E-02  mag=    10.0000
       N       E                     dE             d eps       ncg     rms          ort
SDA:   1    -0.425886362480E+03    0.29579E-01    0.00000E+00  6336   0.102E+01 0.000E+00
CGA:   2    -0.425906412293E+03   -0.20050E-01   -0.21087E-01  6336   0.586E-01-0.905E-01
CGA:   3    -0.425909585701E+03   -0.31734E-02   -0.31253E-02  6336   0.651E-01-0.171E-03
CGA:   4    -0.425917081678E+03   -0.74960E-02   -0.75702E-02  6336   0.717E-01-0.435E-02
CGA:   5    -0.425918807377E+03   -0.17257E-02   -0.18809E-02  6336   0.909E-02 0.210E-02
CGA:   6    -0.425919657915E+03   -0.85054E-03   -0.85598E-03  6336   0.493E-02 0.147E-02
CGA:   7    -0.425920024701E+03   -0.36679E-03   -0.38641E-03  6336   0.426E-02 0.715E-03
CGA:   8    -0.425920457479E+03   -0.43278E-03   -0.40711E-03  6336   0.849E-02-0.251E-02
CGA:   9    -0.425920561285E+03   -0.10381E-03   -0.15067E-03  6336   0.510E-03 0.662E-03
CGA:  10    -0.425920579544E+03   -0.18259E-04   -0.27941E-04  6336   0.547E-03 0.251E-03
CGA:  11    -0.425920630367E+03   -0.50822E-04   -0.51827E-04  6336   0.585E-03 0.378E-04
CGA:  12    -0.425920645097E+03   -0.14730E-04   -0.22676E-04  6336   0.198E-03 0.158E-03
CGA:  13    -0.425920696244E+03   -0.51147E-04    0.49436E-04  6336   0.501E-03-0.204E-04
CGA:  14    -0.425920798596E+03   -0.10235E-03    0.52922E-04  6336   0.133E-02-0.818E-03
CGA:  15    -0.425920790480E+03    0.81153E-05   -0.29268E-04  6336   0.497E-03 0.613E-03
CGA:  16    -0.425920778138E+03    0.12342E-04   -0.13785E-04  6336   0.240E-03 0.431E-03
CGA:  17    -0.425920778854E+03   -0.71573E-06   -0.64756E-05  6336   0.117E-03 0.113E-03
   3 F= -.42592078E+03 E0= -.42591235E+03  d E =-.483259E-02  mag=    10.0000
       N       E                     dE             d eps       ncg     rms          ort
SDA:   1    -0.425883300928E+03    0.37477E-01    0.00000E+00  6336   0.191E+00 0.000E+00
CGA:   2    -0.425890315632E+03   -0.70147E-02   -0.70631E-02  6336   0.171E+00 0.384E-02
CGA:   3    -0.425910388692E+03   -0.20073E-01   -0.20569E-01  6336   0.628E-01-0.105E-01
CGA:   4    -0.425916598260E+03   -0.62096E-02   -0.59888E-02  6336   0.444E-01 0.840E-02
CGA:   5    -0.425918719804E+03   -0.21215E-02   -0.20903E-02  6336   0.344E-01-0.190E-02
CGA:   6    -0.425921021928E+03   -0.23021E-02   -0.23014E-02  6336   0.518E-02-0.279E-03
CGA:   7    -0.425921343448E+03   -0.32152E-03   -0.71105E-03  6336   0.389E-01-0.594E-02
CGA:   8    -0.425921898873E+03   -0.55543E-03   -0.70764E-03  6336   0.220E-02 0.256E-02
CGA:   9    -0.425921929069E+03   -0.30196E-04   -0.72913E-04  6336   0.109E-02 0.104E-02
CGA:  10    -0.425921966582E+03   -0.37513E-04   -0.58090E-04  6336   0.743E-03 0.593E-03
CGA:  11    -0.425922020734E+03   -0.54152E-04   -0.55354E-04  6336   0.165E-02-0.224E-03
CGA:  12    -0.425919994776E+03    0.20260E-02   -0.10971E-02  6336   0.679E-01-0.672E-02
CGA:  13    -0.425921243083E+03   -0.12483E-02   -0.14639E-02  6336   0.819E-02 0.454E-02
CGA:  14    -0.425921518239E+03   -0.27516E-03   -0.35342E-03  6336   0.446E-02 0.110E-02
CGA:  15    -0.425921911493E+03   -0.39325E-03   -0.41922E-03  6336   0.390E-02 0.765E-03
CGA:  16    -0.425922035449E+03   -0.12396E-03   -0.14595E-03  6336   0.159E-02 0.290E-03
CGA:  17    -0.425922142322E+03   -0.10687E-03   -0.32016E-03  6336   0.498E-02-0.276E-02
CGA:  18    -0.425922205479E+03   -0.63157E-04   -0.16041E-03  6336   0.196E-02 0.130E-02
CGA:  19    -0.425922234834E+03   -0.29355E-04   -0.80082E-04  6336   0.292E-03 0.687E-03
CGA:  20    -0.425922240421E+03   -0.55872E-05   -0.17523E-04  6336   0.258E-03 0.191E-03
CGA:  21    -0.425922252599E+03   -0.12178E-04   -0.13244E-04  6336   0.352E-03 0.193E-04
CGA:  22    -0.425922349981E+03   -0.97382E-04    0.70967E-04  6336   0.177E-03-0.499E-04
CGA:  23    -0.425922343958E+03    0.60227E-05   -0.23533E-05  6336   0.881E-04 0.977E-04
   4 F= -.42592234E+03 E0= -.42591400E+03  d E =-.156510E-02  mag=    10.0000
       N       E                     dE             d eps       ncg     rms          ort
SDA:   1    -0.425917943997E+03    0.44060E-02    0.00000E+00  6336   0.253E-01 0.000E+00
CGA:   2    -0.425919984501E+03   -0.20405E-02   -0.19374E-02  6336   0.283E-01-0.724E-02
CGA:   3    -0.425920577085E+03   -0.59258E-03   -0.56916E-03  6336   0.111E-01-0.255E-03
CGA:   4    -0.425920973856E+03   -0.39677E-03   -0.48471E-03  6336   0.108E-01 0.215E-02
CGA:   5    -0.425921381059E+03   -0.40720E-03   -0.46574E-03  6336   0.482E-02 0.108E-02
CGA:   6    -0.425921577128E+03   -0.19607E-03   -0.20860E-03  6336   0.193E-02 0.245E-03
CGA:   7    -0.425921726141E+03   -0.14901E-03   -0.14625E-03  6336   0.470E-02-0.281E-03
CGA:   8    -0.425922009757E+03   -0.28362E-03   -0.23462E-03  6336   0.152E-02-0.216E-02
CGA:   9    -0.425922025566E+03   -0.15810E-04   -0.19653E-04  6336   0.102E-02 0.619E-04
CGA:  10    -0.425922018340E+03    0.72263E-05   -0.21892E-04  6336   0.547E-03 0.527E-03
CGA:  11    -0.425922011895E+03    0.64454E-05   -0.10019E-04  6336   0.245E-03 0.294E-03
   5 F= -.42592201E+03 E0= -.42591367E+03  d E =0.332064E-03  mag=    10.0000
       N       E                     dE             d eps       ncg     rms          ort
SDA:   1    -0.423815446114E+03    0.21066E+01    0.00000E+00  6336   0.547E+01 0.000E+00
CGA:   2    -0.424696926080E+03   -0.88148E+00   -0.86776E+00  6336   0.176E+02 0.266E+00
CGA:   3    -0.425534312179E+03   -0.83739E+00   -0.80241E+00  6336   0.277E+01-0.442E+00
CGA:   4    -0.425652462029E+03   -0.11815E+00   -0.11027E+00  6336   0.157E+01 0.797E-01
CGA:   5    -0.425793408690E+03   -0.14095E+00   -0.14083E+00  6336   0.112E+01 0.711E-02
CGA:   6    -0.425848689750E+03   -0.55281E-01   -0.54948E-01  6336   0.592E+00 0.322E-02
CGA:   7    -0.425879105130E+03   -0.30415E-01   -0.30767E-01  6336   0.168E+00-0.251E-01
CGA:   8    -0.425885278600E+03   -0.61735E-02   -0.61027E-02  6336   0.953E-01 0.365E-02
CGA:   9    -0.425896739908E+03   -0.11461E-01   -0.11331E-01  6336   0.533E-01 0.267E-02
CGA:  10    -0.425898210706E+03   -0.14708E-02   -0.16238E-02  6336   0.158E-01 0.370E-02
CGA:  11    -0.425900255900E+03   -0.20452E-02   -0.28367E-02  6336   0.519E-01-0.777E-02
CGA:  12    -0.425900941739E+03   -0.68584E-03   -0.65053E-03  6336   0.276E-01-0.411E-03
CGA:  13    -0.425901468796E+03   -0.52706E-03   -0.60905E-03  6336   0.162E-01 0.227E-02
CGA:  14    -0.425901868320E+03   -0.39952E-03   -0.48278E-03  6336   0.986E-02 0.282E-02
CGA:  15    -0.425902062095E+03   -0.19377E-03   -0.26206E-03  6336   0.509E-02 0.155E-02
CGA:  16    -0.425902165590E+03   -0.10349E-03   -0.15672E-03  6336   0.415E-02 0.147E-02
CGA:  17    -0.425902315883E+03   -0.15029E-03   -0.18180E-03  6336   0.563E-02 0.112E-02
CGA:  18    -0.425902842432E+03   -0.52655E-03   -0.56315E-03  6336   0.136E-01-0.204E-02
CGA:  19    -0.425903070401E+03   -0.22797E-03   -0.12390E-03  6336   0.605E-02-0.233E-02
CGA:  20    -0.425903197956E+03   -0.12755E-03   -0.62448E-04  6336   0.205E-02-0.151E-02
CGA:  21    -0.425903252868E+03   -0.54912E-04   -0.36001E-04  6336   0.287E-02-0.585E-03
CGA:  22    -0.425903281126E+03   -0.28258E-04   -0.41177E-04  6336   0.390E-02 0.374E-03
CGA:  23    -0.425903306888E+03   -0.25762E-04   -0.78615E-04  6336   0.289E-02 0.151E-02
CGA:  24    -0.425903333329E+03   -0.26441E-04   -0.73590E-04  6336   0.217E-02 0.142E-02
CGA:  25    -0.425903399591E+03   -0.66262E-04   -0.79746E-04  6336   0.161E-02 0.550E-03
CGA:  26    -0.425903493506E+03   -0.93915E-04   -0.12333E-03  6336   0.653E-02-0.241E-02
CGA:  27    -0.425903616342E+03   -0.12284E-03   -0.13934E-03  6336   0.595E-03 0.616E-03
CGA:  28    -0.425902652609E+03    0.96373E-03   -0.54148E-03  6336   0.426E-01-0.438E-02
CGA:  29    -0.425903695675E+03   -0.10431E-02   -0.11060E-02  6336   0.198E-02 0.521E-02
CGA:  30    -0.425903749136E+03   -0.53462E-04   -0.52732E-04  6336   0.823E-04-0.117E-04
CGA:  31    -0.425903747027E+03    0.21095E-05   -0.17101E-05  6336   0.621E-04 0.628E-04
CGA:  32    -0.425903765463E+03   -0.18436E-04   -0.13631E-04  6336   0.113E-03 0.341E-04
CGA:  33    -0.425903773391E+03   -0.79282E-05   -0.62991E-05  6336   0.193E-03-0.555E-04
   6 F= -.42590377E+03 E0= -.42589558E+03  d E =0.182385E-01  mag=    10.0000
       N       E                     dE             d eps       ncg     rms          ort
SDA:   1    -0.425424750359E+03    0.47902E+00    0.00000E+00  6336   0.330E+01 0.000E+00
CGA:   2    -0.425510310807E+03   -0.85560E-01   -0.98361E-01  6336   0.189E+01-0.438E+00
CGA:   3    -0.425779809690E+03   -0.26950E+00   -0.27236E+00  6336   0.165E+01-0.339E-01
CGA:   4    -0.425838807486E+03   -0.58998E-01   -0.61299E-01  6336   0.470E+00-0.472E-01
CGA:   5    -0.425858368657E+03   -0.19561E-01   -0.19697E-01  6336   0.363E+00 0.707E-02
CGA:   6    -0.425891346738E+03   -0.32978E-01   -0.32966E-01  6336   0.138E+00-0.441E-02
CGA:   7    -0.425898823043E+03   -0.74763E-02   -0.74596E-02  6336   0.451E-01 0.815E-02
CGA:   8    -0.425901838168E+03   -0.30151E-02   -0.30795E-02  6336   0.385E-01 0.546E-02
CGA:   9    -0.425903884717E+03   -0.20465E-02   -0.19980E-02  6336   0.305E-01-0.196E-02
CGA:  10    -0.425906200973E+03   -0.23163E-02   -0.23163E-02  6336   0.609E-02-0.355E-04
CGA:  11    -0.425906703030E+03   -0.50206E-03   -0.85106E-03  6336   0.307E-01-0.546E-02
CGA:  12    -0.425907247103E+03   -0.54407E-03   -0.68607E-03  6336   0.375E-02 0.341E-02
CGA:  13    -0.425907334377E+03   -0.87274E-04   -0.13162E-03  6336   0.179E-02 0.101E-02
CGA:  14    -0.425907443323E+03   -0.10895E-03   -0.12555E-03  6336   0.190E-02 0.893E-03
CGA:  15    -0.425907547635E+03   -0.10431E-03   -0.12339E-03  6336   0.137E-02 0.640E-03
CGA:  16    -0.425906229041E+03    0.13186E-02   -0.73372E-03  6336   0.142E-01-0.541E-02
CGA:  17    -0.425906814047E+03   -0.58501E-03   -0.74045E-03  6336   0.923E-02 0.246E-02
CGA:  18    -0.425907447335E+03   -0.63329E-03   -0.66846E-03  6336   0.738E-02 0.541E-03
CGA:  19    -0.425907765130E+03   -0.31779E-03   -0.33794E-03  6336   0.330E-02 0.290E-03
CGA:  20    -0.425908152609E+03   -0.38748E-03   -0.35786E-03  6336   0.174E-02-0.196E-02
CGA:  21    -0.425908165050E+03   -0.12441E-04   -0.42546E-04  6336   0.482E-03 0.335E-03
CGA:  22    -0.425908168172E+03   -0.31223E-05   -0.21159E-04  6336   0.251E-03 0.240E-03
CGA:  23    -0.425908168293E+03   -0.12119E-06   -0.12651E-04  6336   0.168E-03 0.164E-03
   7 F= -.42590817E+03 E0= -.42589967E+03  d E =-.439490E-02  mag=    10.0000
       N       E                     dE             d eps       ncg     rms          ort
SDA:   1    -0.425823969870E+03    0.84198E-01    0.00000E+00  6336   0.111E+01 0.000E+00
CGA:   2    -0.425847250614E+03   -0.23281E-01   -0.24927E-01  6336   0.226E+00-0.370E-01
CGA:   3    -0.425879631348E+03   -0.32381E-01   -0.32495E-01  6336   0.519E+00-0.196E-02
CGA:   4    -0.425906805280E+03   -0.27174E-01   -0.28014E-01  6336   0.376E-01-0.105E-01
CGA:   5    -0.425913008231E+03   -0.62030E-02   -0.60415E-02  6336   0.387E-01 0.254E-02
CGA:   6    -0.425915104839E+03   -0.20966E-02   -0.20769E-02  6336   0.797E-02-0.275E-02
CGA:   7    -0.425915811901E+03   -0.70706E-03   -0.70634E-03  6336   0.524E-02-0.120E-03
CGA:   8    -0.425916286831E+03   -0.47493E-03   -0.46796E-03  6336   0.373E-02-0.823E-03
CGA:   9    -0.425916372058E+03   -0.85227E-04   -0.13430E-03  6336   0.924E-03 0.891E-03
CGA:  10    -0.425916410547E+03   -0.38490E-04   -0.46555E-04  6336   0.742E-03 0.141E-03
CGA:  11    -0.425916484844E+03   -0.74296E-04   -0.75865E-04  6336   0.459E-03 0.320E-03
CGA:  12    -0.425916499006E+03   -0.14162E-04   -0.11029E-03  6336   0.582E-02-0.129E-02
CGA:  13    -0.425916624494E+03   -0.12549E-03   -0.15390E-03  6336   0.238E-03 0.561E-03
CGA:  14    -0.425916618790E+03    0.57038E-05   -0.50868E-05  6336   0.123E-03 0.146E-03
   8 F= -.42591662E+03 E0= -.42590823E+03  d E =-.845050E-02  mag=    10.0000
       N       E                     dE             d eps       ncg     rms          ort
SDA:   1    -0.425891055123E+03    0.25569E-01    0.00000E+00  6336   0.687E-01 0.000E+00
CGA:   2    -0.425910097527E+03   -0.19042E-01   -0.18546E-01  6336   0.135E+00 0.267E-02
CGA:   3    -0.425913874156E+03   -0.37766E-02   -0.36118E-02  6336   0.237E-01-0.640E-02
CGA:   4    -0.425916206309E+03   -0.23322E-02   -0.23236E-02  6336   0.297E-01 0.983E-03
CGA:   5    -0.425917635759E+03   -0.14295E-02   -0.14022E-02  6336   0.910E-02-0.114E-02
CGA:   6    -0.425917867398E+03   -0.23164E-03   -0.29086E-03  6336   0.275E-02 0.982E-03
CGA:   7    -0.425918290133E+03   -0.42274E-03   -0.60609E-03  6336   0.856E-02-0.167E-02
CGA:   8    -0.425918392972E+03   -0.10284E-03   -0.18241E-03  6336   0.947E-03 0.125E-02
CGA:   9    -0.425918400328E+03   -0.73563E-05   -0.28234E-04  6336   0.355E-03 0.329E-03
CGA:  10    -0.425918411544E+03   -0.11216E-04   -0.20141E-04  6336   0.395E-03 0.196E-03
CGA:  11    -0.425918426508E+03   -0.14964E-04   -0.14948E-04  6336   0.258E-03-0.711E-06
CGA:  12    -0.425918483309E+03   -0.56801E-04    0.32323E-04  6336   0.386E-03 0.273E-04
CGA:  13    -0.425918494946E+03   -0.11636E-04   -0.17635E-04  6336   0.499E-04 0.144E-03
CGA:  14    -0.425918492324E+03    0.26215E-05   -0.10102E-05  6336   0.385E-04 0.549E-04
   9 F= -.42591849E+03 E0= -.42591011E+03  d E =-.187353E-02  mag=    10.0000
       N       E                     dE             d eps       ncg     rms          ort
SDA:   1    -0.423556469266E+03    0.23620E+01    0.00000E+00  6336   0.579E+01 0.000E+00
CGA:   2    -0.425400728546E+03   -0.18443E+01   -0.18487E+01  6336   0.329E+01-0.197E-01
CGA:   3    -0.425520058688E+03   -0.11933E+00   -0.14450E+00  6336   0.353E+01-0.327E+00
CGA:   4    -0.425755321910E+03   -0.23526E+00   -0.23454E+00  6336   0.185E+01-0.708E-02
CGA:   5    -0.425821833749E+03   -0.66512E-01   -0.79439E-01  6336   0.402E+00-0.143E+00
CGA:   6    -0.425851962065E+03   -0.30128E-01   -0.30139E-01  6336   0.538E+00 0.140E-02
CGA:   7    -0.425870410038E+03   -0.18448E-01   -0.18761E-01  6336   0.152E+00 0.129E-01
CGA:   8    -0.425878693268E+03   -0.82832E-02   -0.84631E-02  6336   0.580E-01-0.229E-02
CGA:   9    -0.425883187346E+03   -0.44941E-02   -0.44943E-02  6336   0.605E-01 0.235E-02
CGA:  10    -0.425885176207E+03   -0.19889E-02   -0.21578E-02  6336   0.263E-01 0.383E-02
CGA:  11    -0.425887379456E+03   -0.22032E-02   -0.22138E-02  6336   0.214E-01-0.435E-02
CGA:  12    -0.425888575459E+03   -0.11960E-02   -0.11883E-02  6336   0.106E-01-0.696E-03
CGA:  13    -0.425888767674E+03   -0.19221E-03   -0.27117E-03  6336   0.427E-02 0.156E-02
CGA:  14    -0.425889190472E+03   -0.42280E-03   -0.41061E-03  6336   0.543E-02 0.121E-02
CGA:  15    -0.425889558646E+03   -0.36817E-03   -0.34957E-03  6336   0.753E-02-0.854E-03
CGA:  16    -0.425889862839E+03   -0.30419E-03   -0.31145E-03  6336   0.383E-02 0.317E-03
CGA:  17    -0.425889956742E+03   -0.93903E-04   -0.95292E-04  6336   0.176E-02 0.478E-04
CGA:  18    -0.425886133614E+03    0.38231E-02   -0.21579E-02  6336   0.123E+00-0.120E-01
CGA:  19    -0.425889859077E+03   -0.37255E-02   -0.35158E-02  6336   0.115E-01 0.207E-01
CGA:  20    -0.425890106733E+03   -0.24766E-03   -0.43965E-03  6336   0.408E-02 0.304E-02
CGA:  21    -0.425890200004E+03   -0.93271E-04   -0.17025E-03  6336   0.862E-03 0.115E-02
CGA:  22    -0.425890262973E+03   -0.62969E-04   -0.66369E-04  6336   0.138E-02 0.632E-04
CGA:  23    -0.425890356888E+03   -0.93914E-04   -0.10472E-03  6336   0.197E-02 0.274E-03
CGA:  24    -0.425890457918E+03   -0.10103E-03   -0.94622E-04  6336   0.352E-03-0.815E-04
CGA:  25    -0.425890574656E+03   -0.11674E-03    0.27400E-04  6336   0.132E-02-0.376E-03
CGA:  26    -0.425890570623E+03    0.40334E-05   -0.23115E-04  6336   0.230E-03 0.315E-03
  10 F= -.42589057E+03 E0= -.42588221E+03  d E =0.279217E-01  mag=    10.0000
       N       E                     dE             d eps       ncg     rms          ort
SDA:   1    -0.424480284365E+03    0.14103E+01    0.00000E+00  6336   0.361E+01 0.000E+00
CGA:   2    -0.425462973772E+03   -0.98269E+00   -0.98013E+00  6336   0.816E+01 0.258E-01
CGA:   3    -0.425656972429E+03   -0.19400E+00   -0.25911E+00  6336   0.258E+01-0.229E+01
CGA:   4    -0.425764326151E+03   -0.10735E+00   -0.10202E+00  6336   0.104E+01 0.629E-01
CGA:   5    -0.425840034644E+03   -0.75708E-01   -0.77823E-01  6336   0.871E+00 0.119E-01
CGA:   6    -0.425882671278E+03   -0.42637E-01   -0.41122E-01  6336   0.344E+00 0.247E-01
CGA:   7    -0.425899122233E+03   -0.16451E-01   -0.16372E-01  6336   0.141E+00-0.216E-01
CGA:   8    -0.425907550501E+03   -0.84283E-02   -0.84495E-02  6336   0.862E-01 0.132E-02
CGA:   9    -0.425911912273E+03   -0.43618E-02   -0.43167E-02  6336   0.618E-01-0.359E-02
CGA:  10    -0.425915105834E+03   -0.31936E-02   -0.32800E-02  6336   0.134E-01 0.359E-02
CGA:  11    -0.425916160953E+03   -0.10551E-02   -0.10405E-02  6336   0.246E-01-0.122E-02
CGA:  12    -0.425917434896E+03   -0.12739E-02   -0.13137E-02  6336   0.599E-02 0.137E-02
CGA:  13    -0.425917851319E+03   -0.41642E-03   -0.38175E-03  6336   0.493E-02-0.152E-02
CGA:  14    -0.425918356579E+03   -0.50526E-03   -0.57144E-03  6336   0.684E-02-0.932E-03
CGA:  15    -0.425918412087E+03   -0.55508E-04   -0.10902E-03  6336   0.151E-02 0.774E-03
CGA:  16    -0.425918430028E+03   -0.17942E-04   -0.49292E-04  6336   0.158E-02 0.576E-03
CGA:  17    -0.425918521661E+03   -0.91633E-04   -0.10906E-03  6336   0.134E-02 0.565E-03
CGA:  18    -0.425918630754E+03   -0.10909E-03   -0.10642E-03  6336   0.257E-02-0.136E-03
CGA:  19    -0.425918701923E+03   -0.71169E-04   -0.72224E-04  6336   0.169E-02 0.229E-04
CGA:  20    -0.425918750094E+03   -0.48171E-04   -0.37182E-04  6336   0.784E-03-0.194E-03
CGA:  21    -0.425918858813E+03   -0.10872E-03    0.43648E-03  6336   0.202E-02-0.121E-02
CGA:  22    -0.425918893064E+03   -0.34251E-04   -0.52262E-04  6336   0.400E-03 0.373E-03
CGA:  23    -0.425918884557E+03    0.85074E-05   -0.85979E-05  6336   0.253E-03 0.322E-03
  11 F= -.42591888E+03 E0= -.42591050E+03  d E =-.283139E-01  mag=    10.0000
       N       E                     dE             d eps       ncg     rms          ort
SDA:   1    -0.425850443305E+03    0.68450E-01    0.00000E+00  6336   0.166E+00 0.000E+00
CGA:   2    -0.425892938348E+03   -0.42495E-01   -0.44664E-01  6336   0.573E+00-0.115E-01
CGA:   3    -0.425907297582E+03   -0.14359E-01   -0.14974E-01  6336   0.110E+00-0.248E-01
CGA:   4    -0.425911437311E+03   -0.41397E-02   -0.42841E-02  6336   0.452E-01 0.112E-01
CGA:   5    -0.425914702893E+03   -0.32656E-02   -0.32944E-02  6336   0.279E-01 0.550E-02
CGA:   6    -0.425916467657E+03   -0.17648E-02   -0.16917E-02  6336   0.386E-01-0.419E-02
CGA:   7    -0.425918085054E+03   -0.16174E-02   -0.15554E-02  6336   0.719E-02-0.265E-02
CGA:   8    -0.425918199529E+03   -0.11448E-03   -0.14518E-03  6336   0.305E-02 0.631E-03
CGA:   9    -0.425918421576E+03   -0.22205E-03   -0.22229E-03  6336   0.565E-02 0.300E-03
CGA:  10    -0.425918772337E+03   -0.35076E-03   -0.33209E-03  6336   0.484E-02-0.132E-02
CGA:  11    -0.425918837526E+03   -0.65190E-04   -0.73033E-04  6336   0.127E-02 0.163E-03
CGA:  12    -0.425918837837E+03   -0.31102E-06   -0.18274E-04  6336   0.593E-03 0.357E-03
CGA:  13    -0.425918833754E+03    0.40828E-05   -0.13664E-04  6336   0.651E-03 0.403E-03
CGA:  14    -0.425918869489E+03   -0.35735E-04   -0.35287E-04  6336   0.103E-02-0.819E-04
CGA:  15    -0.425918886033E+03   -0.16544E-04   -0.29867E-04  6336   0.518E-03 0.502E-03
CGA:  16    -0.425918893606E+03   -0.75732E-05   -0.15867E-04  6336   0.155E-03 0.218E-03
CGA:  17    -0.425918930895E+03   -0.37289E-04    0.12604E-04  6336   0.189E-03 0.345E-04
CGA:  18    -0.425918969992E+03   -0.39097E-04    0.13207E-04  6336   0.269E-03 0.400E-05
CGA:  19    -0.425918971447E+03   -0.14549E-05   -0.53673E-05  6336   0.119E-03 0.106E-03
  12 F= -.42591897E+03 E0= -.42591055E+03  d E =-.868900E-04  mag=    10.0000
       N       E                     dE             d eps       ncg     rms          ort
SDA:   1    -0.425390843551E+03    0.52813E+00    0.00000E+00  6336   0.129E+01 0.000E+00
CGA:   2    -0.425712052936E+03   -0.32121E+00   -0.32240E+00  6336   0.424E+01 0.105E-01
CGA:   3    -0.425830091636E+03   -0.11804E+00   -0.11021E+00  6336   0.450E+00 0.203E+00
CGA:   4    -0.425872171140E+03   -0.42080E-01   -0.44809E-01  6336   0.473E+00-0.668E-01
CGA:   5    -0.425887144212E+03   -0.14973E-01   -0.15461E-01  6336   0.323E+00 0.108E-02
CGA:   6    -0.425902500380E+03   -0.15356E-01   -0.15336E-01  6336   0.196E+00-0.409E-02
CGA:   7    -0.425910165018E+03   -0.76646E-02   -0.74052E-02  6336   0.592E-01-0.113E-01
CGA:   8    -0.425912038035E+03   -0.18730E-02   -0.17261E-02  6336   0.289E-01-0.646E-02
CGA:   9    -0.425914927427E+03   -0.28894E-02   -0.26190E-02  6336   0.116E-01 0.623E-02
CGA:  10    -0.425915217381E+03   -0.28995E-03   -0.36205E-03  6336   0.434E-02 0.206E-02
CGA:  11    -0.425915680895E+03   -0.46351E-03   -0.14013E-02  6336   0.212E-01-0.428E-02
CGA:  12    -0.425916299698E+03   -0.61880E-03   -0.65975E-03  6336   0.304E-02 0.101E-02
CGA:  13    -0.425916404970E+03   -0.10527E-03   -0.12890E-03  6336   0.157E-02 0.895E-03
CGA:  14    -0.425916426267E+03   -0.21297E-04   -0.59017E-04  6336   0.649E-03 0.104E-02
CGA:  15    -0.425916514178E+03   -0.87911E-04    0.34763E-03  6336   0.491E-03 0.421E-03
CGA:  16    -0.425916578369E+03   -0.64190E-04    0.69765E-03  6336   0.973E-03 0.608E-04
CGA:  17    -0.425916678823E+03   -0.10045E-03   -0.92558E-04  6336   0.143E-03 0.381E-03
CGA:  18    -0.425916711243E+03   -0.32421E-04   -0.52079E-04  6336   0.171E-02-0.100E-03
CGA:  19    -0.425916759253E+03   -0.48010E-04   -0.47747E-04  6336   0.146E-03-0.142E-04
CGA:  20    -0.425916716695E+03    0.42558E-04   -0.31869E-04  6336   0.588E-02-0.508E-03
CGA:  21    -0.425916771837E+03   -0.55141E-04   -0.98572E-04  6336   0.210E-03 0.673E-03
CGA:  22    -0.425916774168E+03   -0.23310E-05   -0.53453E-05  6336   0.874E-04 0.559E-04
  13 F= -.42591677E+03 E0= -.42590837E+03  d E =0.219728E-02  mag=    10.0000
       N       E                     dE             d eps       ncg     rms          ort
SDA:   1    -0.424265959323E+03    0.16508E+01    0.00000E+00  6336   0.476E+01 0.000E+00
CGA:   2    -0.424806130496E+03   -0.54017E+00   -0.51157E+00  6336   0.891E+01 0.698E+00
CGA:   3    -0.425492351733E+03   -0.68622E+00   -0.65730E+00  6336   0.579E+01-0.893E+00
CGA:   4    -0.425690696180E+03   -0.19834E+00   -0.20119E+00  6336   0.136E+01-0.162E+00
CGA:   5    -0.425791915738E+03   -0.10122E+00   -0.10177E+00  6336   0.124E+01-0.682E-01
CGA:   6    -0.425861140727E+03   -0.69225E-01   -0.69392E-01  6336   0.565E+00-0.605E-02
CGA:   7    -0.425880880764E+03   -0.19740E-01   -0.18859E-01  6336   0.146E+00 0.219E-01
CGA:   8    -0.425893724268E+03   -0.12844E-01   -0.12876E-01  6336   0.122E+00-0.487E-02
CGA:   9    -0.425899740436E+03   -0.60162E-02   -0.60760E-02  6336   0.759E-01 0.444E-02
CGA:  10    -0.425903466429E+03   -0.37260E-02   -0.37784E-02  6336   0.280E-01 0.226E-02
CGA:  11    -0.425904523376E+03   -0.10569E-02   -0.11918E-02  6336   0.938E-02 0.522E-02
CGA:  12    -0.425906314926E+03   -0.17915E-02   -0.29552E-02  6336   0.652E-01-0.583E-02
CGA:  13    -0.425907452453E+03   -0.11375E-02   -0.12205E-02  6336   0.358E-02 0.391E-02
CGA:  14    -0.425907663097E+03   -0.21064E-03   -0.21398E-03  6336   0.412E-02 0.167E-03
CGA:  15    -0.425908048030E+03   -0.38493E-03   -0.37745E-03  6336   0.632E-02 0.544E-03
CGA:  16    -0.425908237126E+03   -0.18910E-03   -0.23152E-03  6336   0.158E-02 0.102E-02
CGA:  17    -0.425908515681E+03   -0.27856E-03    0.14664E-02  6336   0.150E-02 0.504E-03
CGA:  18    -0.425906434567E+03    0.20811E-02   -0.68160E-03  6336   0.154E+00-0.101E-01
CGA:  19    -0.425908981693E+03   -0.25471E-02   -0.29030E-02  6336   0.772E-02 0.548E-02
CGA:  20    -0.425909125716E+03   -0.14402E-03   -0.25424E-03  6336   0.177E-02 0.236E-02
CGA:  21    -0.425909147805E+03   -0.22089E-04   -0.61782E-04  6336   0.605E-03 0.768E-03
CGA:  22    -0.425909146586E+03    0.12186E-05   -0.21838E-04  6336   0.347E-03 0.448E-03
CGA:  23    -0.425909201743E+03   -0.55157E-04   -0.51877E-04  6336   0.125E-02 0.430E-04
CGA:  24    -0.425909314718E+03   -0.11297E-03   -0.11757E-03  6336   0.235E-02-0.939E-03
CGA:  25    -0.425909317184E+03   -0.24661E-05   -0.37416E-04  6336   0.292E-03 0.553E-03
  14 F= -.42590932E+03 E0= -.42590079E+03  d E =0.745698E-02  mag=    10.0000
       N       E                     dE             d eps       ncg     rms          ort
SDA:   1    -0.425041796595E+03    0.86752E+00    0.00000E+00  6336   0.297E+01 0.000E+00
CGA:   2    -0.425348588123E+03   -0.30679E+00   -0.28737E+00  6336   0.314E+01 0.570E+00
CGA:   3    -0.425668820509E+03   -0.32023E+00   -0.34873E+00  6336   0.320E+01-0.109E+01
CGA:   4    -0.425777561546E+03   -0.10874E+00   -0.10999E+00  6336   0.954E+00-0.856E-02
CGA:   5    -0.425814658167E+03   -0.37097E-01   -0.36340E-01  6336   0.659E+00 0.191E-01
CGA:   6    -0.425880330262E+03   -0.65672E-01   -0.65233E-01  6336   0.243E+00 0.163E-01
CGA:   7    -0.425888871974E+03   -0.85417E-02   -0.83164E-02  6336   0.841E-01 0.123E-01
CGA:   8    -0.425899020374E+03   -0.10148E-01   -0.10550E-01  6336   0.107E+00-0.845E-02
CGA:   9    -0.425902044595E+03   -0.30242E-02   -0.30424E-02  6336   0.394E-01 0.228E-02
CGA:  10    -0.425904213927E+03   -0.21693E-02   -0.22313E-02  6336   0.193E-01 0.558E-02
CGA:  11    -0.425904929700E+03   -0.71577E-03   -0.79882E-03  6336   0.109E-01 0.237E-02
CGA:  12    -0.425905889639E+03   -0.95994E-03   -0.94910E-03  6336   0.202E-01 0.130E-02
CGA:  13    -0.425907396929E+03   -0.15073E-02   -0.14893E-02  6336   0.343E-02-0.542E-02
CGA:  14    -0.425904555979E+03    0.28410E-02   -0.15735E-02  6336   0.192E+00-0.101E-01
CGA:  15    -0.425907906512E+03   -0.33505E-02   -0.34090E-02  6336   0.861E-02 0.148E-01
CGA:  16    -0.425908183155E+03   -0.27664E-03   -0.37942E-03  6336   0.540E-02 0.171E-02
CGA:  17    -0.425908340299E+03   -0.15714E-03   -0.22787E-03  6336   0.253E-02 0.912E-03
CGA:  18    -0.425908446145E+03   -0.10585E-03   -0.15306E-03  6336   0.238E-02 0.797E-03
CGA:  19    -0.425908751202E+03   -0.30506E-03   -0.30130E-03  6336   0.435E-02-0.272E-03
CGA:  20    -0.425908926032E+03   -0.17483E-03   -0.10195E-03  6336   0.539E-03-0.917E-03
CGA:  21    -0.425908956268E+03   -0.30236E-04   -0.25101E-04  6336   0.138E-02-0.116E-03
CGA:  22    -0.425908982942E+03   -0.26674E-04   -0.51586E-04  6336   0.111E-02 0.458E-03
CGA:  23    -0.425908994247E+03   -0.11305E-04   -0.32689E-04  6336   0.384E-03 0.274E-03
CGA:  24    -0.425909117287E+03   -0.12304E-03    0.67902E-04  6336   0.572E-03 0.154E-03
CGA:  25    -0.425909126662E+03   -0.93750E-05   -0.11331E-03  6336   0.138E-01-0.230E-02
CGA:  26    -0.425909282757E+03   -0.15609E-03   -0.24099E-03  6336   0.634E-03 0.111E-02
CGA:  27    -0.425909271573E+03    0.11184E-04   -0.16811E-04  6336   0.399E-03 0.407E-03
CGA:  28    -0.425909277907E+03   -0.63345E-05   -0.14878E-04  6336   0.256E-03 0.160E-03
  15 F= -.42590928E+03 E0= -.42590065E+03  d E =0.392766E-04  mag=    10.0000
       N       E                     dE             d eps       ncg     rms          ort
SDA:   1    -0.425168892485E+03    0.74038E+00    0.00000E+00  6336   0.230E+01 0.000E+00
CGA:   2    -0.425354767119E+03   -0.18587E+00   -0.18501E+00  6336   0.513E+01-0.769E-01
CGA:   3    -0.425722164021E+03   -0.36740E+00   -0.36788E+00  6336   0.262E+01-0.286E-02
CGA:   4    -0.425804028446E+03   -0.81864E-01   -0.89495E-01  6336   0.573E+00-0.137E+00
CGA:   5    -0.425888842138E+03   -0.84814E-01   -0.84294E-01  6336   0.365E+00 0.740E-02
CGA:   6    -0.425899759524E+03   -0.10917E-01   -0.10665E-01  6336   0.128E+00-0.177E-01
CGA:   7    -0.425909390285E+03   -0.96308E-02   -0.96011E-02  6336   0.106E+00-0.641E-02
CGA:   8    -0.425915000066E+03   -0.56098E-02   -0.56106E-02  6336   0.377E-01-0.361E-03
CGA:   9    -0.425916647734E+03   -0.16477E-02   -0.18001E-02  6336   0.198E-01 0.547E-02
CGA:  10    -0.425917680577E+03   -0.10328E-02   -0.10458E-02  6336   0.116E-01 0.383E-03
CGA:  11    -0.425918941591E+03   -0.12610E-02   -0.12122E-02  6336   0.824E-02 0.191E-02
CGA:  12    -0.425919626362E+03   -0.68477E-03   -0.63375E-03  6336   0.148E-01-0.404E-02
CGA:  13    -0.425919925495E+03   -0.29913E-03   -0.23971E-03  6336   0.796E-02-0.126E-02
CGA:  14    -0.425919991112E+03   -0.65617E-04   -0.12074E-03  6336   0.383E-02 0.931E-03
CGA:  15    -0.425920026992E+03   -0.35880E-04   -0.11125E-03  6336   0.439E-02 0.167E-02
CGA:  16    -0.425920123568E+03   -0.96576E-04   -0.16974E-03  6336   0.180E-02 0.179E-02
CGA:  17    -0.425920228898E+03   -0.10533E-03   -0.10129E-03  6336   0.334E-02-0.164E-03
CGA:  18    -0.425920374235E+03   -0.14534E-03   -0.14236E-03  6336   0.699E-02-0.153E-03
CGA:  19    -0.425920464373E+03   -0.90138E-04   -0.10858E-03  6336   0.251E-02 0.396E-03
CGA:  20    -0.425920490855E+03   -0.26483E-04   -0.36968E-04  6336   0.111E-02 0.206E-03
CGA:  21    -0.425920535259E+03   -0.44403E-04   -0.36363E-04  6336   0.152E-02-0.264E-03
CGA:  22    -0.425920610735E+03   -0.75477E-04   -0.57346E-04  6336   0.392E-02-0.181E-02
CGA:  23    -0.425920715747E+03   -0.10501E-03   -0.12300E-03  6336   0.632E-03 0.670E-03
CGA:  24    -0.425920714512E+03    0.12348E-05   -0.16625E-04  6336   0.386E-03 0.513E-03
  16 F= -.42592071E+03 E0= -.42591226E+03  d E =-.114366E-01  mag=    10.0000
       N       E                     dE             d eps       ncg     rms          ort
SDA:   1    -0.425457906831E+03    0.46281E+00    0.00000E+00  6336   0.130E+01 0.000E+00
CGA:   2    -0.425635947288E+03   -0.17804E+00   -0.17776E+00  6336   0.429E+01 0.100E-01
CGA:   3    -0.425819273938E+03   -0.18333E+00   -0.18025E+00  6336   0.921E+00-0.114E-01
CGA:   4    -0.425862517845E+03   -0.43244E-01   -0.42597E-01  6336   0.443E+00 0.594E-03
CGA:   5    -0.425902698960E+03   -0.40181E-01   -0.40691E-01  6336   0.214E+00-0.102E-01
CGA:   6    -0.425920903205E+03   -0.18204E-01   -0.18227E-01  6336   0.344E-01-0.372E-02
CGA:   7    -0.425923931985E+03   -0.30288E-02   -0.28733E-02  6336   0.547E-01 0.620E-02
CGA:   8    -0.425926755295E+03   -0.28233E-02   -0.28383E-02  6336   0.123E-01 0.123E-03
CGA:   9    -0.425927233728E+03   -0.47843E-03   -0.51147E-03  6336   0.599E-02 0.169E-02
CGA:  10    -0.425927291837E+03   -0.58109E-04   -0.15661E-02  6336   0.678E-01-0.880E-02
CGA:  11    -0.425928331492E+03   -0.10397E-02   -0.12418E-02  6336   0.450E-02 0.474E-02
CGA:  12    -0.425928428985E+03   -0.97494E-04   -0.16234E-03  6336   0.200E-02 0.213E-02
CGA:  13    -0.425928491266E+03   -0.62280E-04   -0.89681E-04  6336   0.885E-03 0.828E-03
CGA:  14    -0.425928563933E+03   -0.72667E-04   -0.74471E-04  6336   0.881E-03 0.641E-03
CGA:  15    -0.425928686587E+03   -0.12265E-03    0.23030E-03  6336   0.673E-03 0.906E-04
CGA:  16    -0.425928810488E+03   -0.12390E-03    0.67513E-04  6336   0.125E-02-0.183E-03
CGA:  17    -0.425928811229E+03   -0.74127E-06   -0.20066E-03  6336   0.241E-02-0.127E-02
CGA:  18    -0.425928849406E+03   -0.38177E-04   -0.82788E-04  6336   0.792E-03 0.128E-02
CGA:  19    -0.425928862724E+03   -0.13318E-04   -0.30156E-04  6336   0.436E-03 0.561E-03
CGA:  20    -0.425928890823E+03   -0.28098E-04   -0.28552E-04  6336   0.258E-03 0.327E-03
CGA:  21    -0.425928974928E+03   -0.84105E-04   -0.78787E-04  6336   0.778E-04 0.222E-04
CGA:  22    -0.425928976533E+03   -0.16056E-05   -0.24672E-05  6336   0.384E-04 0.170E-04
  17 F= -.42592898E+03 E0= -.42592044E+03  d E =-.826202E-02  mag=    10.0000
       N       E                     dE             d eps       ncg     rms          ort
SDA:   1    -0.425626341901E+03    0.30263E+00    0.00000E+00  6336   0.166E+01 0.000E+00
CGA:   2    -0.425678449320E+03   -0.52107E-01   -0.54198E-01  6336   0.120E+01-0.891E-01
CGA:   3    -0.425860047733E+03   -0.18160E+00   -0.18181E+00  6336   0.505E+00-0.371E-02
CGA:   4    -0.425883069054E+03   -0.23021E-01   -0.22182E-01  6336   0.257E+00 0.778E-02
CGA:   5    -0.425912018098E+03   -0.28949E-01   -0.28922E-01  6336   0.299E+00 0.664E-03
CGA:   6    -0.425920346366E+03   -0.83283E-02   -0.80823E-02  6336   0.301E-01-0.100E-01
CGA:   7    -0.425924576516E+03   -0.42301E-02   -0.39496E-02  6336   0.279E-01 0.442E-02
CGA:   8    -0.425925885730E+03   -0.13092E-02   -0.12050E-02  6336   0.126E-01-0.296E-02
CGA:   9    -0.425926478833E+03   -0.59310E-03   -0.60188E-03  6336   0.591E-02 0.439E-03
CGA:  10    -0.425926897015E+03   -0.41818E-03   -0.41673E-03  6336   0.502E-02-0.296E-03
CGA:  11    -0.425927169271E+03   -0.27226E-03   -0.28365E-03  6336   0.200E-02 0.838E-03
CGA:  12    -0.425927322422E+03   -0.15315E-03   -0.14399E-03  6336   0.394E-02-0.883E-03
CGA:  13    -0.425927425397E+03   -0.10297E-03   -0.11043E-03  6336   0.349E-02 0.345E-03
CGA:  14    -0.425927460827E+03   -0.35430E-04   -0.67091E-04  6336   0.645E-03 0.581E-03
CGA:  15    -0.425927488409E+03   -0.27583E-04   -0.29269E-04  6336   0.817E-03 0.584E-04
CGA:  16    -0.425925874618E+03    0.16138E-02   -0.88929E-03  6336   0.659E-01-0.548E-02
CGA:  17    -0.425927249510E+03   -0.13749E-02   -0.14591E-02  6336   0.762E-02 0.525E-02
CGA:  18    -0.425927479260E+03   -0.22975E-03   -0.29262E-03  6336   0.225E-02 0.110E-02
CGA:  19    -0.425927509397E+03   -0.30136E-04   -0.90107E-04  6336   0.888E-03 0.803E-03
CGA:  20    -0.425927531808E+03   -0.22412E-04   -0.49714E-04  6336   0.893E-03 0.407E-03
CGA:  21    -0.425927698641E+03   -0.16683E-03   -0.21267E-03  6336   0.489E-03-0.789E-03
CGA:  22    -0.425927727662E+03   -0.29021E-04   -0.27584E-04  6336   0.657E-03-0.299E-04
CGA:  23    -0.425927726837E+03    0.82584E-06   -0.20666E-04  6336   0.273E-03 0.299E-03
CGA:  24    -0.425927727060E+03   -0.22289E-06   -0.10064E-04  6336   0.127E-03 0.128E-03
CGA:  25    -0.425927763767E+03   -0.36707E-04    0.13827E-01  6336   0.504E-03-0.134E-03
CGA:  26    -0.425927773429E+03   -0.96618E-05   -0.12576E-04  6336   0.304E-04 0.381E-04
  18 F= -.42592777E+03 E0= -.42591915E+03  d E =0.120310E-02  mag=    10.0000
       N       E                     dE             d eps       ncg     rms          ort
SDA:   1    -0.425340768027E+03    0.58700E+00    0.00000E+00  6336   0.152E+01 0.000E+00
CGA:   2    -0.425687399496E+03   -0.34663E+00   -0.34092E+00  6336   0.342E+01 0.466E-01
CGA:   3    -0.425797759916E+03   -0.11036E+00   -0.10942E+00  6336   0.921E+00 0.886E-02
CGA:   4    -0.425837268621E+03   -0.39509E-01   -0.38611E-01  6336   0.617E+00 0.167E-01
CGA:   5    -0.425894527352E+03   -0.57259E-01   -0.57263E-01  6336   0.539E+00 0.227E-02
CGA:   6    -0.425906968004E+03   -0.12441E-01   -0.12249E-01  6336   0.755E-01 0.285E-01
CGA:   7    -0.425912197013E+03   -0.52290E-02   -0.52107E-02  6336   0.996E-01 0.664E-03
CGA:   8    -0.425917659531E+03   -0.54625E-02   -0.53150E-02  6336   0.827E-01-0.502E-02
CGA:   9    -0.425920094689E+03   -0.24352E-02   -0.25136E-02  6336   0.155E-01 0.180E-02
CGA:  10    -0.425920529693E+03   -0.43500E-03   -0.58675E-03  6336   0.115E-01 0.364E-02
CGA:  11    -0.425921017986E+03   -0.48829E-03   -0.57315E-03  6336   0.632E-02 0.212E-02
CGA:  12    -0.425921938991E+03   -0.92100E-03   -0.10452E-02  6336   0.201E-01-0.204E-02
CGA:  13    -0.425922172409E+03   -0.23342E-03   -0.23335E-03  6336   0.745E-02 0.678E-04
CGA:  14    -0.425922258180E+03   -0.85771E-04   -0.10449E-03  6336   0.276E-02 0.290E-03
CGA:  15    -0.425922342636E+03   -0.84456E-04   -0.79769E-04  6336   0.367E-02-0.932E-04
CGA:  16    -0.425922543984E+03   -0.20135E-03   -0.16272E-03  6336   0.812E-02-0.146E-02
CGA:  17    -0.425922728301E+03   -0.18432E-03   -0.11176E-03  6336   0.108E-01-0.153E-02
CGA:  18    -0.425922917538E+03   -0.18924E-03   -0.15782E-03  6336   0.708E-02-0.744E-03
CGA:  19    -0.425922962836E+03   -0.45298E-04   -0.84206E-04  6336   0.373E-02 0.827E-03
CGA:  20    -0.425922953041E+03    0.97945E-05   -0.49845E-04  6336   0.257E-02 0.128E-02
CGA:  21    -0.425922932022E+03    0.21019E-04   -0.41973E-04  6336   0.186E-02 0.140E-02
CGA:  22    -0.425922991041E+03   -0.59019E-04   -0.64287E-04  6336   0.108E-02 0.208E-03
CGA:  23    -0.425923018711E+03   -0.27670E-04   -0.43872E-04  6336   0.673E-03 0.776E-03
CGA:  24    -0.425923041677E+03   -0.22966E-04   -0.98580E-04  6336   0.571E-02-0.840E-03
CGA:  25    -0.425923176251E+03   -0.13457E-03   -0.13859E-03  6336   0.398E-03 0.989E-04
CGA:  26    -0.425923171868E+03    0.43829E-05   -0.62877E-05  6336   0.205E-03 0.245E-03
  19 F= -.42592317E+03 E0= -.42591457E+03  d E =0.460156E-02  mag=    10.0000
       N       E                     dE             d eps       ncg     rms          ort
SDA:   1    -0.424656577089E+03    0.12666E+01    0.00000E+00  6336   0.332E+01 0.000E+00
CGA:   2    -0.425548798832E+03   -0.89222E+00   -0.89516E+00  6336   0.221E+01-0.137E-01
CGA:   3    -0.425675024237E+03   -0.12623E+00   -0.12737E+00  6336   0.239E+01 0.430E-01
CGA:   4    -0.425838938932E+03   -0.16391E+00   -0.16396E+00  6336   0.134E+01-0.497E-02
CGA:   5    -0.425878789414E+03   -0.39850E-01   -0.42500E-01  6336   0.210E+00-0.695E-01
CGA:   6    -0.425904420302E+03   -0.25631E-01   -0.25488E-01  6336   0.197E+00 0.203E-02
CGA:   7    -0.425913220467E+03   -0.88002E-02   -0.88461E-02  6336   0.608E-01-0.516E-02
CGA:   8    -0.425915447105E+03   -0.22266E-02   -0.23772E-02  6336   0.365E-01 0.601E-02
CGA:   9    -0.425918192044E+03   -0.27449E-02   -0.27355E-02  6336   0.250E-01 0.288E-02
CGA:  10    -0.425920570342E+03   -0.23783E-02   -0.24758E-02  6336   0.163E-01-0.376E-02
CGA:  11    -0.425921310427E+03   -0.74009E-03   -0.72836E-03  6336   0.466E-02-0.774E-03
CGA:  12    -0.425921876710E+03   -0.56628E-03   -0.50252E-03  6336   0.617E-02 0.134E-02
CGA:  13    -0.425922313006E+03   -0.43630E-03   -0.41847E-03  6336   0.743E-02-0.123E-02
CGA:  14    -0.425922650010E+03   -0.33700E-03   -0.34408E-03  6336   0.159E-02 0.727E-03
CGA:  15    -0.425922757691E+03   -0.10768E-03   -0.10670E-03  6336   0.381E-02-0.182E-03
CGA:  16    -0.425921143761E+03    0.16139E-02   -0.10574E-02  6336   0.431E-01-0.107E-01
CGA:  17    -0.425922440049E+03   -0.12963E-02   -0.14925E-02  6336   0.796E-02 0.716E-02
CGA:  18    -0.425922732206E+03   -0.29216E-03   -0.37488E-03  6336   0.250E-02 0.259E-02
CGA:  19    -0.425922924007E+03   -0.19180E-03   -0.20336E-03  6336   0.330E-02 0.872E-03
CGA:  20    -0.425923393245E+03   -0.46924E-03   -0.48586E-03  6336   0.118E-02-0.474E-03
CGA:  21    -0.425923457818E+03   -0.64573E-04   -0.54321E-04  6336   0.120E-02-0.464E-03
CGA:  22    -0.425923599504E+03   -0.14169E-03    0.89310E-04  6336   0.175E-02-0.648E-03
CGA:  23    -0.425923598883E+03    0.62088E-06   -0.39343E-04  6336   0.644E-03 0.780E-03
CGA:  24    -0.425923590707E+03    0.81762E-05   -0.19491E-04  6336   0.355E-03 0.551E-03
CGA:  25    -0.425923604466E+03   -0.13759E-04   -0.16565E-04  6336   0.345E-03 0.121E-03
CGA:  26    -0.425923607089E+03   -0.26231E-05   -0.14619E-04  6336   0.162E-03 0.325E-03
CGA:  27    -0.425923629469E+03   -0.22380E-04    0.16039E-03  6336   0.221E-03 0.615E-04
CGA:  28    -0.425923685665E+03   -0.56196E-04    0.26680E-04  6336   0.165E-03 0.102E-03
CGA:  29    -0.425923684460E+03    0.12049E-05   -0.59200E-05  6336   0.626E-04 0.169E-03
  20 F= -.42592368E+03 E0= -.42591494E+03  d E =-.512592E-03  mag=    10.0000
       N       E                     dE             d eps       ncg     rms          ort
SDA:   1    -0.422737524411E+03    0.31862E+01    0.00000E+00  6336   0.836E+01 0.000E+00
CGA:   2    -0.424571101690E+03   -0.18336E+01   -0.17938E+01  6336   0.166E+02 0.361E+00
CGA:   3    -0.425112228103E+03   -0.54113E+00   -0.50418E+00  6336   0.353E+01-0.386E+00
CGA:   4    -0.425602260318E+03   -0.49003E+00   -0.49791E+00  6336   0.337E+01-0.120E+00
CGA:   5    -0.425726764110E+03   -0.12450E+00   -0.11780E+00  6336   0.675E+00 0.982E-01
CGA:   6    -0.425779601468E+03   -0.52837E-01   -0.52620E-01  6336   0.678E+00 0.551E-02
CGA:   7    -0.425809277517E+03   -0.29676E-01   -0.29192E-01  6336   0.364E+00 0.619E-02
CGA:   8    -0.425832920205E+03   -0.23643E-01   -0.23686E-01  6336   0.619E-01 0.148E-01
CGA:   9    -0.425836716611E+03   -0.37964E-02   -0.38211E-02  6336   0.878E-01 0.314E-02
CGA:  10    -0.425845611760E+03   -0.88951E-02   -0.90986E-02  6336   0.561E-01-0.677E-02
CGA:  11    -0.425846955495E+03   -0.13437E-02   -0.14295E-02  6336   0.105E-01 0.230E-02
CGA:  12    -0.425849667475E+03   -0.27120E-02   -0.23614E-02  6336   0.156E-01 0.234E-02
CGA:  13    -0.425850443602E+03   -0.77613E-03   -0.76124E-03  6336   0.613E-02-0.900E-03
CGA:  14    -0.425850823819E+03   -0.38022E-03   -0.38958E-03  6336   0.570E-02 0.166E-02
CGA:  15    -0.425851286556E+03   -0.46274E-03   -0.45973E-03  6336   0.815E-02-0.379E-03
CGA:  16    -0.425851972072E+03   -0.68552E-03   -0.68481E-03  6336   0.127E-02 0.292E-04
CGA:  17    -0.425852373193E+03   -0.40112E-03   -0.34380E-03  6336   0.137E-02 0.289E-03
CGA:  18    -0.425852461501E+03   -0.88308E-04   -0.82862E-04  6336   0.159E-02-0.163E-03
CGA:  19    -0.425849691045E+03    0.27705E-02   -0.14970E-02  6336   0.860E-01-0.793E-02
CGA:  20    -0.425851259645E+03   -0.15686E-02   -0.19009E-02  6336   0.126E-01 0.327E-02
CGA:  21    -0.425851668705E+03   -0.40906E-03   -0.57806E-03  6336   0.410E-02 0.244E-02
CGA:  22    -0.425851960930E+03   -0.29223E-03   -0.31966E-03  6336   0.647E-02 0.378E-03
CGA:  23    -0.425852436863E+03   -0.47593E-03   -0.50543E-03  6336   0.523E-02 0.469E-03
CGA:  24    -0.425852667343E+03   -0.23048E-03   -0.18433E-03  6336   0.656E-03-0.551E-03
CGA:  25    -0.425852821004E+03   -0.15366E-03    0.85777E-03  6336   0.219E-02-0.493E-03
CGA:  26    -0.425852819721E+03    0.12829E-05   -0.51531E-04  6336   0.437E-03 0.556E-03
CGA:  27    -0.425852807212E+03    0.12510E-04   -0.13886E-04  6336   0.257E-03 0.282E-03
CGA:  28    -0.425852825103E+03   -0.17891E-04   -0.19273E-04  6336   0.412E-03 0.334E-04
CGA:  29    -0.425852840157E+03   -0.15054E-04   -0.27667E-04  6336   0.194E-03 0.232E-03
CGA:  30    -0.425852899375E+03   -0.59218E-04    0.28429E-04  6336   0.118E-02-0.235E-03
CGA:  31    -0.425852904512E+03   -0.51368E-05   -0.22187E-04  6336   0.123E-03 0.190E-03
  21 F= -.42585290E+03 E0= -.42584392E+03  d E =0.707799E-01  mag=    10.0000
       N       E                     dE             d eps       ncg     rms          ort
SDA:   1    -0.424090466337E+03    0.17624E+01    0.00000E+00  6336   0.792E+01 0.000E+00
CGA:   2    -0.424412045054E+03   -0.32158E+00   -0.36607E+00  6336   0.110E+02-0.858E+00
CGA:   3    -0.425366579658E+03   -0.95453E+00   -0.95480E+00  6336   0.573E+01 0.810E-01
CGA:   4    -0.425523660412E+03   -0.15708E+00   -0.23591E+00  6336   0.423E+01-0.125E+01
CGA:   5    -0.425698068373E+03   -0.17441E+00   -0.16068E+00  6336   0.262E+01 0.111E+00
CGA:   6    -0.425824403687E+03   -0.12634E+00   -0.10946E+00  6336   0.591E+00 0.274E+00
CGA:   7    -0.425876796238E+03   -0.52393E-01   -0.52135E-01  6336   0.500E+00-0.317E-02
CGA:   8    -0.425893370742E+03   -0.16575E-01   -0.17040E-01  6336   0.246E+00 0.783E-02
CGA:   9    -0.425907801241E+03   -0.14430E-01   -0.14584E-01  6336   0.138E+00-0.873E-02
CGA:  10    -0.425914175754E+03   -0.63745E-02   -0.63597E-02  6336   0.829E-01-0.101E-01
CGA:  11    -0.425917498722E+03   -0.33230E-02   -0.34771E-02  6336   0.691E-01 0.447E-02
CGA:  12    -0.425920879635E+03   -0.33809E-02   -0.35250E-02  6336   0.196E-01 0.502E-02
CGA:  13    -0.425922550423E+03   -0.16708E-02   -0.16659E-02  6336   0.431E-01-0.354E-02
CGA:  14    -0.425924109914E+03   -0.15595E-02   -0.15242E-02  6336   0.220E-01-0.751E-03
CGA:  15    -0.425924669643E+03   -0.55973E-03   -0.60030E-03  6336   0.784E-02 0.142E-02
CGA:  16    -0.425924965984E+03   -0.29634E-03   -0.30279E-03  6336   0.836E-02 0.646E-04
CGA:  17    -0.425925713680E+03   -0.74770E-03   -0.74015E-03  6336   0.147E-01 0.573E-03
CGA:  18    -0.425926086292E+03   -0.37261E-03   -0.40298E-03  6336   0.435E-02 0.695E-03
CGA:  19    -0.425926449155E+03   -0.36286E-03   -0.41337E-03  6336   0.109E-01-0.280E-02
CGA:  20    -0.425926722484E+03   -0.27333E-03   -0.25418E-03  6336   0.213E-02-0.550E-03
CGA:  21    -0.425926760156E+03   -0.37672E-04   -0.74919E-04  6336   0.884E-03 0.112E-02
CGA:  22    -0.425926814719E+03   -0.54563E-04   -0.56879E-04  6336   0.103E-02 0.473E-03
CGA:  23    -0.425926884024E+03   -0.69305E-04   -0.92999E-04  6336   0.651E-02-0.113E-02
CGA:  24    -0.425926950304E+03   -0.66280E-04   -0.11285E-03  6336   0.504E-03 0.852E-03
CGA:  25    -0.425926957994E+03   -0.76905E-05   -0.17927E-04  6336   0.570E-03 0.284E-03
CGA:  26    -0.425925970528E+03    0.98747E-03   -0.53448E-03  6336   0.793E-01-0.343E-02
CGA:  27    -0.425927204285E+03   -0.12338E-02   -0.14318E-02  6336   0.625E-03 0.176E-02
CGA:  28    -0.425927209958E+03   -0.56730E-05   -0.16749E-04  6336   0.185E-03 0.131E-03
CGA:  29    -0.425927236904E+03   -0.26945E-04   -0.26870E-04  6336   0.973E-03 0.695E-05
CGA:  30    -0.425927312846E+03   -0.75943E-04   -0.76436E-04  6336   0.128E-02 0.104E-04
CGA:  31    -0.425927345473E+03   -0.32627E-04   -0.30709E-04  6336   0.411E-03-0.297E-04
CGA:  32    -0.425927380725E+03   -0.35252E-04   -0.29647E-04  6336   0.116E-02-0.185E-03
CGA:  33    -0.425927399664E+03   -0.18938E-04   -0.15848E-04  6336   0.116E-02-0.404E-04
CGA:  34    -0.425927408518E+03   -0.88539E-05   -0.17512E-04  6336   0.296E-03 0.109E-03
  22 F= -.42592741E+03 E0= -.42591861E+03  d E =-.745040E-01  mag=    10.0000
       N       E                     dE             d eps       ncg     rms          ort
SDA:   1    -0.425779409662E+03    0.14799E+00    0.00000E+00  6336   0.439E+00 0.000E+00
CGA:   2    -0.425815033752E+03   -0.35624E-01   -0.35554E-01  6336   0.114E+01 0.123E-02
CGA:   3    -0.425895349832E+03   -0.80316E-01   -0.80381E-01  6336   0.256E+00-0.352E-02
CGA:   4    -0.425905980250E+03   -0.10630E-01   -0.10139E-01  6336   0.104E+00 0.853E-02
CGA:   5    -0.425921216457E+03   -0.15236E-01   -0.15893E-01  6336   0.688E-01-0.107E-01
CGA:   6    -0.425924642685E+03   -0.34262E-02   -0.35639E-02  6336   0.207E-01 0.556E-02
CGA:   7    -0.425925179821E+03   -0.53714E-03   -0.68672E-03  6336   0.891E-02 0.323E-02
CGA:   8    -0.425926102280E+03   -0.92246E-03   -0.92003E-03  6336   0.967E-02 0.658E-03
CGA:   9    -0.425926796890E+03   -0.69461E-03   -0.66896E-03  6336   0.333E-02-0.122E-02
CGA:  10    -0.425927041283E+03   -0.24439E-03   -0.23933E-03  6336   0.595E-02-0.217E-02
CGA:  11    -0.425927186592E+03   -0.14531E-03   -0.16227E-03  6336   0.189E-02 0.182E-03
CGA:  12    -0.425927210737E+03   -0.24145E-04   -0.67503E-04  6336   0.826E-03 0.937E-03
CGA:  13    -0.425927252923E+03   -0.42186E-04   -0.55956E-04  6336   0.873E-03 0.407E-03
CGA:  14    -0.425927365615E+03   -0.11269E-03   -0.14510E-03  6336   0.303E-02-0.963E-03
CGA:  15    -0.425927400136E+03   -0.34521E-04   -0.59444E-04  6336   0.341E-03 0.413E-03
CGA:  16    -0.425927431453E+03   -0.31317E-04   -0.34795E-04  6336   0.126E-02-0.257E-03
CGA:  17    -0.425927488851E+03   -0.57398E-04   -0.44724E-04  6336   0.294E-03-0.324E-03
CGA:  18    -0.425927486295E+03    0.25556E-05   -0.51832E-05  6336   0.153E-03 0.151E-03
  23 F= -.42592749E+03 E0= -.42591873E+03  d E =-.777776E-04  mag=    10.0000
       N       E                     dE             d eps       ncg     rms          ort
SDA:   1    -0.425901791978E+03    0.25697E-01    0.00000E+00  6336   0.892E-01 0.000E+00
CGA:   2    -0.425907999845E+03   -0.62079E-02   -0.62064E-02  6336   0.196E+00-0.361E-02
CGA:   3    -0.425921805194E+03   -0.13805E-01   -0.13793E-01  6336   0.515E-01 0.377E-02
CGA:   4    -0.425924076241E+03   -0.22710E-02   -0.22871E-02  6336   0.304E-01-0.942E-03
CGA:   5    -0.425926832327E+03   -0.27561E-02   -0.27389E-02  6336   0.338E-01 0.670E-03
CGA:   6    -0.425927600034E+03   -0.76771E-03   -0.87428E-03  6336   0.337E-02 0.235E-02
CGA:   7    -0.425927645580E+03   -0.45546E-04   -0.84843E-03  6336   0.311E-01-0.476E-02
CGA:   8    -0.425928323159E+03   -0.67758E-03   -0.74755E-03  6336   0.532E-02 0.674E-04
CGA:   9    -0.425928364797E+03   -0.41638E-04   -0.13179E-03  6336   0.981E-03 0.196E-02
CGA:  10    -0.425928355715E+03    0.90818E-05   -0.23738E-04  6336   0.392E-03 0.626E-03
CGA:  11    -0.425928373462E+03   -0.17747E-04   -0.20470E-04  6336   0.287E-03 0.166E-03
CGA:  12    -0.425928376003E+03   -0.25410E-05   -0.12640E-04  6336   0.155E-03 0.275E-03
CGA:  13    -0.425928402879E+03   -0.26876E-04    0.16471E-04  6336   0.126E-03 0.837E-04
CGA:  14    -0.425928411921E+03   -0.90422E-05   -0.89621E-05  6336   0.186E-03 0.145E-04
CGA:  15    -0.425928433036E+03   -0.21115E-04   -0.19269E-04  6336   0.103E-03 0.690E-04
CGA:  16    -0.425928431990E+03    0.10462E-05   -0.26062E-05  6336   0.260E-04 0.740E-04
  24 F= -.42592843E+03 E0= -.42591966E+03  d E =-.945694E-03  mag=    10.0000
       N       E                     dE             d eps       ncg     rms          ort
SDA:   1    -0.425800750799E+03    0.12768E+00    0.00000E+00  6336   0.318E+00 0.000E+00
CGA:   2    -0.425873945269E+03   -0.73194E-01   -0.73864E-01  6336   0.102E+01-0.311E-02
CGA:   3    -0.425906019151E+03   -0.32074E-01   -0.30602E-01  6336   0.124E+00 0.395E-01
CGA:   4    -0.425913004788E+03   -0.69856E-02   -0.70319E-02  6336   0.125E+00-0.147E-02
CGA:   5    -0.425923927645E+03   -0.10923E-01   -0.10798E-01  6336   0.232E-01 0.769E-02
CGA:   6    -0.425925757343E+03   -0.18297E-02   -0.18421E-02  6336   0.226E-01-0.385E-02
CGA:   7    -0.425926721292E+03   -0.96395E-03   -0.86092E-03  6336   0.157E-01-0.422E-02
CGA:   8    -0.425927261409E+03   -0.54012E-03   -0.59982E-03  6336   0.673E-02 0.274E-02
CGA:   9    -0.425927385269E+03   -0.12386E-03   -0.21653E-03  6336   0.154E-02 0.238E-02
CGA:  10    -0.425927434727E+03   -0.49458E-04   -0.69940E-04  6336   0.130E-02 0.611E-03
CGA:  11    -0.425927587486E+03   -0.15276E-03   -0.14431E-03  6336   0.149E-02 0.595E-03
CGA:  12    -0.425927702927E+03   -0.11544E-03   -0.10845E-03  6336   0.141E-02-0.432E-03
CGA:  13    -0.425927412148E+03    0.29078E-03   -0.15937E-03  6336   0.116E-01-0.474E-02
CGA:  14    -0.425927555665E+03   -0.14352E-03   -0.25278E-03  6336   0.284E-02 0.234E-02
CGA:  15    -0.425927601256E+03   -0.45591E-04   -0.10398E-03  6336   0.139E-02 0.163E-02
CGA:  16    -0.425927694558E+03   -0.93302E-04   -0.94623E-04  6336   0.389E-02-0.511E-03
CGA:  17    -0.425927787253E+03   -0.92695E-04   -0.10687E-03  6336   0.388E-02 0.639E-03
CGA:  18    -0.425927827518E+03   -0.40265E-04   -0.74248E-04  6336   0.324E-03 0.690E-03
CGA:  19    -0.425927848069E+03   -0.20551E-04   -0.17468E-04  6336   0.540E-03-0.188E-03
CGA:  20    -0.425927879138E+03   -0.31069E-04   -0.35018E-04  6336   0.306E-02-0.115E-02
CGA:  21    -0.425927897545E+03   -0.18407E-04   -0.45982E-04  6336   0.142E-03 0.579E-03
CGA:  22    -0.425927894560E+03    0.29850E-05   -0.15681E-05  6336   0.561E-04 0.905E-04
  25 F= -.42592789E+03 E0= -.42591911E+03  d E =0.537430E-03  mag=    10.0000
       N       E                     dE             d eps       ncg     rms          ort
SDA:   1    -0.425486777274E+03    0.44112E+00    0.00000E+00  6336   0.121E+01 0.000E+00
CGA:   2    -0.425783658327E+03   -0.29688E+00   -0.29276E+00  6336   0.693E+00 0.213E-01
CGA:   3    -0.425833064175E+03   -0.49406E-01   -0.49467E-01  6336   0.124E+01-0.196E-01
CGA:   4    -0.425899928493E+03   -0.66864E-01   -0.66650E-01  6336   0.267E+00-0.981E-02
CGA:   5    -0.425909998912E+03   -0.10070E-01   -0.99489E-02  6336   0.885E-01 0.926E-02
CGA:   6    -0.425918907806E+03   -0.89089E-02   -0.87650E-02  6336   0.472E-01 0.513E-02
CGA:   7    -0.425924056436E+03   -0.51486E-02   -0.58295E-02  6336   0.198E-01-0.128E-01
CGA:   8    -0.425924642145E+03   -0.58571E-03   -0.64634E-03  6336   0.117E-01 0.294E-02
CGA:   9    -0.425925364563E+03   -0.72242E-03   -0.75111E-03  6336   0.568E-02 0.313E-02
CGA:  10    -0.425925805584E+03   -0.44102E-03   -0.44272E-03  6336   0.632E-02 0.437E-03
CGA:  11    -0.425926327316E+03   -0.52173E-03   -0.56786E-03  6336   0.278E-02-0.250E-02
CGA:  12    -0.425926344085E+03   -0.16770E-04   -0.35755E-04  6336   0.151E-02 0.420E-03
CGA:  13    -0.425926386485E+03   -0.42399E-04   -0.63605E-04  6336   0.207E-02 0.783E-03
CGA:  14    -0.425926501898E+03   -0.11541E-03   -0.10221E-03  6336   0.372E-02-0.105E-02
CGA:  15    -0.425926538921E+03   -0.37022E-04   -0.66102E-04  6336   0.546E-03 0.647E-03
CGA:  16    -0.425926567327E+03   -0.28406E-04   -0.31451E-04  6336   0.932E-03 0.291E-03
CGA:  17    -0.425926617826E+03   -0.50500E-04   -0.66307E-04  6336   0.498E-02-0.131E-02
CGA:  18    -0.425926664898E+03   -0.47072E-04   -0.80528E-04  6336   0.309E-03 0.752E-03
CGA:  19    -0.425926666320E+03   -0.14216E-05   -0.77977E-05  6336   0.277E-03 0.179E-03
CGA:  20    -0.425926705302E+03   -0.38982E-04    0.29328E-04  6336   0.397E-03 0.117E-03
CGA:  21    -0.425926791903E+03   -0.86601E-04   -0.76462E-04  6336   0.507E-03 0.125E-03
CGA:  22    -0.425926546542E+03    0.24536E-03   -0.14113E-03  6336   0.231E-01-0.256E-02
CGA:  23    -0.425926864881E+03   -0.31834E-03   -0.39233E-03  6336   0.383E-03 0.156E-02
CGA:  24    -0.425926870143E+03   -0.52623E-05   -0.12125E-04  6336   0.337E-03 0.194E-03
CGA:  25    -0.425926342849E+03    0.52729E-03   -0.28512E-03  6336   0.413E-01-0.197E-02
CGA:  26    -0.425926949422E+03   -0.60657E-03   -0.71272E-03  6336   0.133E-03 0.176E-02
CGA:  27    -0.425926947552E+03    0.18693E-05   -0.26221E-05  6336   0.531E-04 0.489E-04
  26 F= -.42592695E+03 E0= -.42591818E+03  d E =0.947008E-03  mag=    10.0000
       N       E                     dE             d eps       ncg     rms          ort
SDA:   1    -0.425619531390E+03    0.30742E+00    0.00000E+00  6336   0.211E+01 0.000E+00
CGA:   2    -0.425675325757E+03   -0.55794E-01   -0.50541E-01  6336   0.742E+00 0.189E+00
CGA:   3    -0.425829261647E+03   -0.15394E+00   -0.15310E+00  6336   0.192E+01 0.849E-02
CGA:   4    -0.425878619844E+03   -0.49358E-01   -0.57676E-01  6336   0.469E+00-0.252E+00
CGA:   5    -0.425890617575E+03   -0.11998E-01   -0.11049E-01  6336   0.165E+00 0.420E-01
CGA:   6    -0.425904804842E+03   -0.14187E-01   -0.14150E-01  6336   0.423E+00-0.700E-03
CGA:   7    -0.425919680204E+03   -0.14875E-01   -0.14520E-01  6336   0.679E-01-0.889E-02
CGA:   8    -0.425921217600E+03   -0.15374E-02   -0.16105E-02  6336   0.347E-01-0.345E-02
CGA:   9    -0.425922664617E+03   -0.14470E-02   -0.16077E-02  6336   0.256E-01 0.520E-02
CGA:  10    -0.425923540620E+03   -0.87600E-03   -0.98692E-03  6336   0.200E-01 0.242E-02
CGA:  11    -0.425925089165E+03   -0.15485E-02   -0.14948E-02  6336   0.203E-01-0.352E-02
CGA:  12    -0.425925699863E+03   -0.61070E-03   -0.51955E-03  6336   0.756E-02-0.197E-02
CGA:  13    -0.425925821359E+03   -0.12150E-03   -0.14863E-03  6336   0.295E-02 0.583E-03
CGA:  14    -0.425925910228E+03   -0.88869E-04   -0.12433E-03  6336   0.485E-02 0.898E-03
CGA:  15    -0.425926330907E+03   -0.42068E-03   -0.42833E-03  6336   0.226E-02 0.907E-03
CGA:  16    -0.425926473582E+03   -0.14268E-03   -0.96880E-04  6336   0.215E-02-0.117E-02
CGA:  17    -0.425926503502E+03   -0.29919E-04   -0.44240E-04  6336   0.432E-03 0.261E-03
CGA:  18    -0.425926589641E+03   -0.86140E-04    0.69632E-04  6336   0.552E-03 0.189E-03
CGA:  19    -0.425926718453E+03   -0.12881E-03    0.20613E-03  6336   0.134E-02-0.163E-03
CGA:  20    -0.425926769053E+03   -0.50600E-04   -0.40588E-04  6336   0.124E-02-0.355E-03
CGA:  21    -0.425926762175E+03    0.68782E-05   -0.90665E-05  6336   0.630E-03 0.265E-03
  27 F= -.42592676E+03 E0= -.42591809E+03  d E =0.185377E-03  mag=    10.0000
       N       E                     dE             d eps       ncg     rms          ort
SDA:   1    -0.425718225543E+03    0.20854E+00    0.00000E+00  6336   0.758E+00 0.000E+00
CGA:   2    -0.425788114466E+03   -0.69889E-01   -0.68263E-01  6336   0.117E+01 0.391E-01
CGA:   3    -0.425856749232E+03   -0.68635E-01   -0.68586E-01  6336   0.868E+00 0.194E-02
CGA:   4    -0.425888076487E+03   -0.31327E-01   -0.32309E-01  6336   0.332E+00-0.763E-03
CGA:   5    -0.425908808851E+03   -0.20732E-01   -0.20718E-01  6336   0.147E+00 0.196E-02
CGA:   6    -0.425917507550E+03   -0.86987E-02   -0.87361E-02  6336   0.178E+00 0.850E-02
CGA:   7    -0.425926050394E+03   -0.85428E-02   -0.84879E-02  6336   0.447E-01-0.688E-02
CGA:   8    -0.425927890639E+03   -0.18402E-02   -0.18242E-02  6336   0.139E-01-0.182E-02
CGA:   9    -0.425929143697E+03   -0.12531E-02   -0.11444E-02  6336   0.533E-02 0.440E-02
CGA:  10    -0.425929617246E+03   -0.47355E-03   -0.48269E-03  6336   0.137E-01-0.153E-02
CGA:  11    -0.425929980895E+03   -0.36365E-03   -0.36925E-03  6336   0.116E-01 0.217E-03
CGA:  12    -0.425930100416E+03   -0.11952E-03   -0.16957E-03  6336   0.211E-02 0.103E-02
CGA:  13    -0.425930121363E+03   -0.20948E-04   -0.41139E-04  6336   0.141E-02 0.487E-03
CGA:  14    -0.425930187970E+03   -0.66607E-04   -0.70019E-04  6336   0.259E-02 0.207E-03
CGA:  15    -0.425930345868E+03   -0.15790E-03   -0.15367E-03  6336   0.510E-02-0.950E-03
CGA:  16    -0.425930407203E+03   -0.61334E-04   -0.48664E-04  6336   0.356E-02-0.325E-03
CGA:  17    -0.425930434037E+03   -0.26834E-04   -0.35310E-04  6336   0.118E-02 0.181E-03
CGA:  18    -0.425930431546E+03    0.24908E-05   -0.11077E-04  6336   0.614E-03 0.319E-03
  28 F= -.42593043E+03 E0= -.42592170E+03  d E =-.366937E-02  mag=    10.0000
       N       E                     dE             d eps       ncg     rms          ort
SDA:   1    -0.425841427405E+03    0.89007E-01    0.00000E+00  6336   0.507E+00 0.000E+00
CGA:   2    -0.425859757807E+03   -0.18330E-01   -0.18355E-01  6336   0.349E+00 0.547E-02
CGA:   3    -0.425894899409E+03   -0.35142E-01   -0.35856E-01  6336   0.406E+00-0.124E-01
CGA:   4    -0.425911750626E+03   -0.16851E-01   -0.16872E-01  6336   0.138E+00 0.209E-02
CGA:   5    -0.425921446277E+03   -0.96957E-02   -0.95094E-02  6336   0.528E-01 0.124E-01
CGA:   6    -0.425926056386E+03   -0.46101E-02   -0.45284E-02  6336   0.643E-01 0.289E-02
CGA:   7    -0.425929553965E+03   -0.34976E-02   -0.34937E-02  6336   0.139E-01-0.111E-01
CGA:   8    -0.425929837609E+03   -0.28364E-03   -0.31348E-03  6336   0.569E-02 0.123E-02
CGA:   9    -0.425930328778E+03   -0.49117E-03   -0.43576E-03  6336   0.442E-02 0.281E-02
CGA:  10    -0.425930628904E+03   -0.30013E-03   -0.29472E-03  6336   0.502E-02-0.826E-03
CGA:  11    -0.425930822167E+03   -0.19326E-03   -0.19411E-03  6336   0.185E-02 0.228E-03
CGA:  12    -0.425930848663E+03   -0.26496E-04   -0.34783E-04  6336   0.587E-03 0.246E-03
CGA:  13    -0.425930516745E+03    0.33192E-03   -0.18400E-03  6336   0.267E-01-0.208E-02
CGA:  14    -0.425931079881E+03   -0.56314E-03   -0.54940E-03  6336   0.200E-02-0.124E-02
CGA:  15    -0.425931074494E+03    0.53871E-05   -0.48716E-04  6336   0.459E-03 0.919E-03
CGA:  16    -0.425931059761E+03    0.14733E-04   -0.10865E-04  6336   0.209E-03 0.387E-03
CGA:  17    -0.425931057526E+03    0.22346E-05   -0.58601E-05  6336   0.128E-03 0.156E-03
  29 F= -.42593106E+03 E0= -.42592237E+03  d E =-.625981E-03  mag=    10.0000
       N       E                     dE             d eps       ncg     rms          ort
SDA:   1    -0.425820523063E+03    0.11054E+00    0.00000E+00  6336   0.308E+00 0.000E+00
CGA:   2    -0.425875238039E+03   -0.54715E-01   -0.55326E-01  6336   0.951E+00-0.690E-02
CGA:   3    -0.425902741512E+03   -0.27503E-01   -0.28035E-01  6336   0.160E+00-0.339E-01
CGA:   4    -0.425921603252E+03   -0.18862E-01   -0.18491E-01  6336   0.924E-01 0.100E-01
CGA:   5    -0.425927706315E+03   -0.61031E-02   -0.59826E-02  6336   0.660E-01-0.911E-02
CGA:   6    -0.425929900566E+03   -0.21943E-02   -0.21752E-02  6336   0.177E-01-0.483E-03
CGA:   7    -0.425930658608E+03   -0.75804E-03   -0.77570E-03  6336   0.114E-01 0.618E-03
CGA:   8    -0.425931614312E+03   -0.95570E-03   -0.94546E-03  6336   0.287E-02 0.206E-02
CGA:   9    -0.425931787013E+03   -0.17270E-03   -0.17173E-03  6336   0.391E-02-0.374E-04
CGA:  10    -0.425932068229E+03   -0.28122E-03   -0.48292E-03  6336   0.661E-02-0.394E-02
CGA:  11    -0.425932151117E+03   -0.82887E-04   -0.18127E-03  6336   0.203E-02 0.212E-02
CGA:  12    -0.425932174431E+03   -0.23314E-04   -0.71948E-04  6336   0.544E-03 0.107E-02
CGA:  13    -0.425932233988E+03   -0.59557E-04   -0.78504E-04  6336   0.312E-02-0.265E-03
CGA:  14    -0.425932247234E+03   -0.13246E-04   -0.28193E-04  6336   0.241E-02 0.261E-03
CGA:  15    -0.425932258859E+03   -0.11625E-04   -0.32346E-04  6336   0.497E-03 0.335E-03
CGA:  16    -0.425932268862E+03   -0.10003E-04   -0.10125E-04  6336   0.298E-03 0.625E-06
CGA:  17    -0.425932328632E+03   -0.59770E-04    0.20239E-04  6336   0.958E-03-0.416E-03
CGA:  18    -0.425932360168E+03   -0.31536E-04   -0.29299E-04  6336   0.209E-03-0.653E-04
CGA:  19    -0.425932354406E+03    0.57624E-05   -0.21356E-05  6336   0.123E-03 0.146E-03
  30 F= -.42593235E+03 E0= -.42592369E+03  d E =-.129688E-02  mag=    10.0000
       N       E                     dE             d eps       ncg     rms          ort
SDA:   1    -0.425750709230E+03    0.18165E+00    0.00000E+00  6336   0.104E+01 0.000E+00
CGA:   2    -0.425792358076E+03   -0.41649E-01   -0.43890E-01  6336   0.680E+00-0.104E-01
CGA:   3    -0.425864077556E+03   -0.71719E-01   -0.71928E-01  6336   0.116E+01-0.552E-02
CGA:   4    -0.425900169992E+03   -0.36092E-01   -0.37227E-01  6336   0.166E+00-0.263E-01
CGA:   5    -0.425918949254E+03   -0.18779E-01   -0.18345E-01  6336   0.147E+00 0.850E-02
CGA:   6    -0.425927004369E+03   -0.80551E-02   -0.80494E-02  6336   0.509E-01 0.545E-03
CGA:   7    -0.425929623619E+03   -0.26192E-02   -0.25922E-02  6336   0.307E-01-0.187E-02
CGA:   8    -0.425931108205E+03   -0.14846E-02   -0.14260E-02  6336   0.218E-01-0.459E-02
CGA:   9    -0.425932160230E+03   -0.10520E-02   -0.10670E-02  6336   0.336E-02 0.460E-02
CGA:  10    -0.425932373139E+03   -0.21291E-03   -0.22342E-03  6336   0.163E-02 0.184E-02
CGA:  11    -0.425931593496E+03    0.77964E-03   -0.44881E-03  6336   0.781E-01-0.434E-02
CGA:  12    -0.425932942395E+03   -0.13489E-02   -0.14201E-02  6336   0.235E-02 0.554E-02
CGA:  13    -0.425932989996E+03   -0.47600E-04   -0.71997E-04  6336   0.700E-03 0.331E-03
CGA:  14    -0.425932997986E+03   -0.79900E-05   -0.27740E-04  6336   0.478E-03 0.298E-03
CGA:  15    -0.425932996799E+03    0.11870E-05   -0.22134E-04  6336   0.317E-03 0.356E-03
CGA:  16    -0.425932603458E+03    0.39334E-03   -0.14171E-03  6336   0.273E-01-0.152E-02
CGA:  17    -0.425933176829E+03   -0.57337E-03   -0.58355E-03  6336   0.251E-02-0.138E-02
CGA:  18    -0.425933170022E+03    0.68068E-05   -0.64250E-04  6336   0.393E-03 0.941E-03
  31 F= -.42593317E+03 E0= -.42592447E+03  d E =-.815616E-03  mag=    10.0000
       N       E                     dE             d eps       ncg     rms          ort
SDA:   1    -0.425887276055E+03    0.45901E-01    0.00000E+00  6336   0.259E+00 0.000E+00
CGA:   2    -0.425899877054E+03   -0.12601E-01   -0.12560E-01  6336   0.185E+00-0.122E-02
CGA:   3    -0.425916173596E+03   -0.16297E-01   -0.16239E-01  6336   0.200E+00-0.950E-02
CGA:   4    -0.425923737392E+03   -0.75638E-02   -0.77517E-02  6336   0.103E+00 0.789E-02
CGA:   5    -0.425928903843E+03   -0.51665E-02   -0.53820E-02  6336   0.223E-01 0.902E-02
CGA:   6    -0.425932588951E+03   -0.36851E-02   -0.38425E-02  6336   0.367E-01-0.238E-02
CGA:   7    -0.425933313360E+03   -0.72441E-03   -0.77323E-03  6336   0.564E-02 0.715E-03
CGA:   8    -0.425933582525E+03   -0.26917E-03   -0.25462E-03  6336   0.547E-02-0.280E-03
CGA:   9    -0.425934046320E+03   -0.46379E-03   -0.46413E-03  6336   0.124E-01-0.266E-02
CGA:  10    -0.425934167658E+03   -0.12134E-03   -0.11144E-03  6336   0.660E-02-0.146E-03
CGA:  11    -0.425934201857E+03   -0.34199E-04   -0.84601E-04  6336   0.243E-02 0.808E-03
CGA:  12    -0.425934187442E+03    0.14415E-04   -0.40456E-04  6336   0.181E-02 0.890E-03
CGA:  13    -0.425934171109E+03    0.16334E-04   -0.39168E-04  6336   0.116E-02 0.961E-03
CGA:  14    -0.425934227228E+03   -0.56120E-04   -0.49420E-04  6336   0.129E-02-0.217E-03
CGA:  15    -0.425934269835E+03   -0.42606E-04   -0.53769E-04  6336   0.605E-03 0.492E-03
CGA:  16    -0.425934284981E+03   -0.15146E-04   -0.21694E-04  6336   0.191E-03 0.139E-03
CGA:  17    -0.425934328947E+03   -0.43966E-04    0.24865E-04  6336   0.347E-03-0.389E-04
CGA:  18    -0.425934343613E+03   -0.14666E-04   -0.14897E-04  6336   0.209E-03 0.144E-04
CGA:  19    -0.425934338123E+03    0.54906E-05   -0.21000E-05  6336   0.978E-04 0.127E-03
  32 F= -.42593434E+03 E0= -.42592568E+03  d E =-.116810E-02  mag=    10.0000
       N       E                     dE             d eps       ncg     rms          ort
SDA:   1    -0.425923083771E+03    0.11260E-01    0.00000E+00  6336   0.616E-01 0.000E+00
CGA:   2    -0.425925926903E+03   -0.28431E-02   -0.26828E-02  6336   0.653E-01-0.868E-02
CGA:   3    -0.425930411521E+03   -0.44846E-02   -0.45948E-02  6336   0.444E-01-0.563E-02
CGA:   4    -0.425932293662E+03   -0.18821E-02   -0.19459E-02  6336   0.174E-01 0.471E-02
CGA:   5    -0.425933199200E+03   -0.90554E-03   -0.94230E-03  6336   0.664E-02 0.304E-02
CGA:   6    -0.425933642670E+03   -0.44347E-03   -0.44744E-03  6336   0.888E-02 0.833E-03
CGA:   7    -0.425934394472E+03   -0.75180E-03   -0.84431E-03  6336   0.286E-02-0.410E-02
CGA:   8    -0.425934419791E+03   -0.25319E-04   -0.40554E-04  6336   0.165E-02 0.411E-03
CGA:   9    -0.425934511389E+03   -0.91598E-04   -0.98846E-04  6336   0.171E-02 0.811E-03
CGA:  10    -0.425934634589E+03   -0.12320E-03   -0.11999E-03  6336   0.101E-02-0.247E-03
CGA:  11    -0.425934655422E+03   -0.20833E-04   -0.25795E-04  6336   0.195E-03 0.162E-03
CGA:  12    -0.425934579071E+03    0.76352E-04   -0.46018E-04  6336   0.689E-02-0.847E-03
CGA:  13    -0.425934744270E+03   -0.16520E-03   -0.14596E-03  6336   0.523E-03-0.541E-03
CGA:  14    -0.425934735149E+03    0.91211E-05   -0.70050E-05  6336   0.235E-03 0.331E-03
  33 F= -.42593474E+03 E0= -.42592607E+03  d E =-.397027E-03  mag=    10.0000
       N       E                     dE             d eps       ncg     rms          ort
SDA:   1    -0.425921816740E+03    0.12928E-01    0.00000E+00  6336   0.136E+00 0.000E+00
CGA:   2    -0.425926167686E+03   -0.43509E-02   -0.40979E-02  6336   0.559E-01-0.137E-01
CGA:   3    -0.425929496855E+03   -0.33292E-02   -0.34146E-02  6336   0.374E-01-0.797E-02
CGA:   4    -0.425932761305E+03   -0.32645E-02   -0.33607E-02  6336   0.484E-01-0.216E-02
CGA:   5    -0.425933843030E+03   -0.10817E-02   -0.12361E-02  6336   0.363E-02 0.491E-02
CGA:   6    -0.425934228288E+03   -0.38526E-03   -0.33975E-03  6336   0.353E-02 0.171E-02
CGA:   7    -0.425934577456E+03   -0.34917E-03   -0.37078E-03  6336   0.754E-02-0.188E-02
CGA:   8    -0.425934660981E+03   -0.83525E-04   -0.12643E-03  6336   0.434E-03 0.959E-03
CGA:   9    -0.425934670101E+03   -0.91203E-05   -0.14873E-04  6336   0.431E-03 0.206E-03
CGA:  10    -0.425934479758E+03    0.19034E-03   -0.11643E-03  6336   0.805E-02-0.133E-02
CGA:  11    -0.425934689468E+03   -0.20971E-03   -0.23352E-03  6336   0.123E-02 0.279E-03
CGA:  12    -0.425934741011E+03   -0.51543E-04   -0.66683E-04  6336   0.791E-03 0.320E-03
CGA:  13    -0.425934754024E+03   -0.13013E-04   -0.34382E-04  6336   0.246E-03 0.340E-03
CGA:  14    -0.425934837434E+03   -0.83410E-04    0.63878E-04  6336   0.105E-03 0.746E-05
CGA:  15    -0.425934858755E+03   -0.21320E-04    0.12194E-03  6336   0.857E-03-0.229E-03
CGA:  16    -0.425934853110E+03    0.56443E-05   -0.12384E-04  6336   0.762E-04 0.222E-03
  34 F= -.42593485E+03 E0= -.42592618E+03  d E =-.117961E-03  mag=    10.0000
       N       E                     dE             d eps       ncg     rms          ort
SDA:   1    -0.425321286184E+03    0.61357E+00    0.00000E+00  6336   0.317E+01 0.000E+00
CGA:   2    -0.425444104011E+03   -0.12282E+00   -0.14440E+00  6336   0.289E+01-0.250E+00
CGA:   3    -0.425694155465E+03   -0.25005E+00   -0.25122E+00  6336   0.390E+01-0.708E-01
CGA:   4    -0.425826185239E+03   -0.13203E+00   -0.13722E+00  6336   0.545E+00-0.112E+00
CGA:   5    -0.425885683359E+03   -0.59498E-01   -0.59539E-01  6336   0.785E+00 0.228E-02
CGA:   6    -0.425913632836E+03   -0.27949E-01   -0.29006E-01  6336   0.172E+00-0.262E-01
CGA:   7    -0.425920291166E+03   -0.66583E-02   -0.67283E-02  6336   0.656E-01 0.165E-02
CGA:   8    -0.425926245144E+03   -0.59540E-02   -0.60311E-02  6336   0.699E-01-0.730E-02
CGA:   9    -0.425929160335E+03   -0.29152E-02   -0.30777E-02  6336   0.233E-01 0.544E-02
CGA:  10    -0.425930016699E+03   -0.85636E-03   -0.95785E-03  6336   0.837E-02 0.223E-02
CGA:  11    -0.425930411122E+03   -0.39442E-03   -0.44828E-03  6336   0.437E-02 0.209E-02
CGA:  12    -0.425931322224E+03   -0.91110E-03   -0.16488E-02  6336   0.388E-02-0.324E-02
CGA:  13    -0.425931502925E+03   -0.18070E-03   -0.22258E-03  6336   0.272E-02 0.147E-02
CGA:  14    -0.425931732765E+03   -0.22984E-03   -0.23686E-03  6336   0.286E-02 0.307E-03
CGA:  15    -0.425931875604E+03   -0.14284E-03   -0.15247E-03  6336   0.681E-03 0.259E-03
CGA:  16    -0.425932035243E+03   -0.15964E-03    0.98511E-04  6336   0.903E-03-0.336E-03
CGA:  17    -0.425932069590E+03   -0.34347E-04   -0.30374E-04  6336   0.111E-02-0.254E-03
CGA:  18    -0.425932078214E+03   -0.86239E-05   -0.27132E-04  6336   0.732E-03 0.393E-03
CGA:  19    -0.425932080698E+03   -0.24847E-05   -0.24658E-04  6336   0.265E-03 0.421E-03
  35 F= -.42593208E+03 E0= -.42592332E+03  d E =0.277241E-02  mag=    10.0000
       N       E                     dE             d eps       ncg     rms          ort
SDA:   1    -0.425273532698E+03    0.65855E+00    0.00000E+00  6336   0.295E+01 0.000E+00
CGA:   2    -0.425387644602E+03   -0.11411E+00   -0.11134E+00  6336   0.237E+01 0.370E-01
CGA:   3    -0.425689224934E+03   -0.30158E+00   -0.29712E+00  6336   0.420E+01 0.792E-01
CGA:   4    -0.425827755903E+03   -0.13853E+00   -0.16130E+00  6336   0.605E+00-0.298E+00
CGA:   5    -0.425849117253E+03   -0.21361E-01   -0.21719E-01  6336   0.559E+00 0.112E-01
CGA:   6    -0.425890334484E+03   -0.41217E-01   -0.41216E-01  6336   0.373E+00-0.362E-03
CGA:   7    -0.425905146659E+03   -0.14812E-01   -0.15288E-01  6336   0.118E+00-0.230E-01
CGA:   8    -0.425908711040E+03   -0.35644E-02   -0.34661E-02  6336   0.538E-01 0.130E-02
CGA:   9    -0.425913054029E+03   -0.43430E-02   -0.43997E-02  6336   0.536E-01-0.443E-02
CGA:  10    -0.425915996503E+03   -0.29425E-02   -0.29101E-02  6336   0.359E-01-0.402E-02
CGA:  11    -0.425916688318E+03   -0.69182E-03   -0.81747E-03  6336   0.774E-02 0.346E-02
CGA:  12    -0.425916922693E+03   -0.23437E-03   -0.31451E-03  6336   0.641E-02 0.286E-02
CGA:  13    -0.425917342358E+03   -0.41966E-03   -0.43854E-03  6336   0.752E-02 0.126E-02
CGA:  14    -0.425918043786E+03   -0.70143E-03   -0.70204E-03  6336   0.473E-02-0.502E-04
CGA:  15    -0.425918156687E+03   -0.11290E-03   -0.11603E-03  6336   0.165E-02 0.101E-03
CGA:  16    -0.425915909178E+03    0.22475E-02   -0.12945E-02  6336   0.691E-01-0.819E-02
CGA:  17    -0.425918353470E+03   -0.24443E-02   -0.24078E-02  6336   0.137E-01 0.516E-02
CGA:  18    -0.425918548318E+03   -0.19485E-03   -0.37051E-03  6336   0.207E-02 0.305E-02
CGA:  19    -0.425918556933E+03   -0.86152E-05   -0.67099E-04  6336   0.682E-03 0.790E-03
CGA:  20    -0.425918595574E+03   -0.38641E-04   -0.47691E-04  6336   0.116E-02 0.175E-03
CGA:  21    -0.425918726832E+03   -0.13126E-03   -0.13060E-03  6336   0.142E-02-0.639E-04
CGA:  22    -0.425918814282E+03   -0.87451E-04   -0.50384E-04  6336   0.783E-03-0.601E-03
CGA:  23    -0.425918937626E+03   -0.12334E-03    0.50732E-04  6336   0.212E-02-0.159E-02
CGA:  24    -0.425918922972E+03    0.14653E-04   -0.47036E-04  6336   0.703E-03 0.856E-03
CGA:  25    -0.425918905730E+03    0.17243E-04   -0.21427E-04  6336   0.400E-03 0.562E-03
CGA:  26    -0.425918930118E+03   -0.24388E-04   -0.25340E-04  6336   0.638E-03 0.358E-04
CGA:  27    -0.425918928146E+03    0.19721E-05   -0.21686E-04  6336   0.247E-03 0.424E-03
  36 F= -.42591893E+03 E0= -.42591049E+03  d E =0.131526E-01  mag=    10.0000
       N       E                     dE             d eps       ncg     rms          ort
SDA:   1    -0.425159788724E+03    0.75914E+00    0.00000E+00  6336   0.208E+01 0.000E+00
CGA:   2    -0.425546981700E+03   -0.38719E+00   -0.36248E+00  6336   0.335E+01 0.255E+00
[...]
CGA:  10    -0.425918080367E+03   -0.33905E-04   -0.27986E-04  6336   0.214E-03 0.233E-03
CGA:  11    -0.425918116157E+03   -0.35790E-04    0.13469E-04  6336   0.216E-03 0.106E-03
CGA:  12    -0.425918138780E+03   -0.22623E-04   -0.21324E-04  6336   0.135E-03 0.148E-03
CGA:  13    -0.425918137598E+03    0.11815E-05   -0.14489E-04  6336   0.184E-02-0.322E-03
CGA:  14    -0.425918151378E+03   -0.13780E-04   -0.28001E-04  6336   0.852E-04 0.313E-03
CGA:  15    -0.425918151666E+03   -0.28852E-06   -0.16260E-05  6336   0.374E-04 0.318E-04
  88 F= -.42591815E+03 E0= -.42590923E+03  d E =-.858483E-03  mag=    10.0000
       N       E                     dE             d eps       ncg     rms          ort
SDA:   1    -0.425892819366E+03    0.25332E-01    0.00000E+00  6336   0.406E+00 0.000E+00
CGA:   2    -0.425901826299E+03   -0.90069E-02   -0.87325E-02  6336   0.587E-01 0.181E-01
CGA:   3    -0.425907352224E+03   -0.55259E-02   -0.56064E-02  6336   0.104E+00-0.241E-02
CGA:   4    -0.425913007418E+03   -0.56552E-02   -0.56535E-02  6336   0.222E-01 0.424E-02
CGA:   5    -0.425914285350E+03   -0.12779E-02   -0.12790E-02  6336   0.324E-01 0.139E-02
CGA:   6    -0.425917132465E+03   -0.28471E-02   -0.31541E-02  6336   0.176E-01-0.862E-02
CGA:   7    -0.425917410194E+03   -0.27773E-03   -0.29925E-03  6336   0.483E-02 0.682E-03
CGA:   8    -0.425917527596E+03   -0.11740E-03   -0.15575E-03  6336   0.372E-02 0.160E-02
CGA:   9    -0.425917657941E+03   -0.13034E-03   -0.16199E-03  6336   0.182E-02 0.145E-02
CGA:  10    -0.425917786202E+03   -0.12826E-03   -0.12903E-03  6336   0.193E-02 0.285E-03
CGA:  11    -0.425917915604E+03   -0.12940E-03   -0.14260E-03  6336   0.168E-02-0.130E-02
CGA:  12    -0.425918004527E+03   -0.88924E-04   -0.80620E-04  6336   0.297E-02-0.139E-02
CGA:  13    -0.425918023420E+03   -0.18892E-04   -0.45437E-04  6336   0.306E-03 0.677E-03
CGA:  14    -0.425918021334E+03    0.20855E-05   -0.55507E-05  6336   0.195E-03 0.205E-03
CGA:  15    -0.425918011448E+03    0.98860E-05   -0.13636E-04  6336   0.377E-02-0.264E-03
CGA:  16    -0.425918056144E+03   -0.44695E-04   -0.65071E-04  6336   0.106E-03 0.301E-03
CGA:  17    -0.425918066300E+03   -0.10156E-04   -0.77516E-05  6336   0.320E-03-0.120E-03
CGA:  18    -0.425918072923E+03   -0.66226E-05   -0.75406E-05  6336   0.326E-04 0.136E-04
  89 F= -.42591807E+03 E0= -.42590915E+03  d E =0.787437E-04  mag=    10.0000
       N       E                     dE             d eps       ncg     rms          ort
SDA:   1    -0.425671502157E+03    0.24656E+00    0.00000E+00  6336   0.742E+00 0.000E+00
CGA:   2    -0.425802511382E+03   -0.13101E+00   -0.13014E+00  6336   0.918E+00 0.854E-02
CGA:   3    -0.425846192231E+03   -0.43681E-01   -0.40184E-01  6336   0.338E+00 0.533E-01
CGA:   4    -0.425883640859E+03   -0.37449E-01   -0.37626E-01  6336   0.625E+00-0.115E-01
CGA:   5    -0.425902803759E+03   -0.19163E-01   -0.18306E-01  6336   0.931E-01 0.220E-01
CGA:   6    -0.425908769026E+03   -0.59653E-02   -0.60018E-02  6336   0.445E-01 0.951E-02
CGA:   7    -0.425910285784E+03   -0.15168E-02   -0.15821E-02  6336   0.264E-01-0.354E-03
CGA:   8    -0.425913142770E+03   -0.28570E-02   -0.29062E-02  6336   0.176E-01-0.149E-02
CGA:   9    -0.425913925787E+03   -0.78302E-03   -0.67543E-03  6336   0.492E-02-0.337E-02
CGA:  10    -0.425914374181E+03   -0.44839E-03   -0.65395E-03  6336   0.225E-01-0.237E-02
CGA:  11    -0.425914564645E+03   -0.19046E-03   -0.21822E-03  6336   0.969E-02 0.426E-03
CGA:  12    -0.425914638706E+03   -0.74061E-04   -0.12938E-03  6336   0.286E-02 0.932E-03
CGA:  13    -0.425914655973E+03   -0.17267E-04   -0.58093E-04  6336   0.231E-02 0.765E-03
CGA:  14    -0.425914680892E+03   -0.24919E-04   -0.61875E-04  6336   0.163E-02 0.780E-03
CGA:  15    -0.425914703678E+03   -0.22787E-04   -0.46313E-04  6336   0.136E-02 0.480E-03
CGA:  16    -0.425914729623E+03   -0.25945E-04   -0.47739E-04  6336   0.167E-02 0.541E-03
CGA:  17    -0.425914772991E+03   -0.43368E-04   -0.61689E-04  6336   0.135E-02 0.470E-03
CGA:  18    -0.425914859385E+03   -0.86394E-04   -0.72558E-04  6336   0.171E-02-0.640E-03
CGA:  19    -0.425914923533E+03   -0.64147E-04   -0.19555E-04  6336   0.778E-03-0.110E-02
CGA:  20    -0.425914944863E+03   -0.21330E-04   -0.23232E-04  6336   0.412E-03 0.563E-04
CGA:  21    -0.425914942857E+03    0.20063E-05   -0.10016E-04  6336   0.246E-03 0.333E-03
  90 F= -.42591494E+03 E0= -.42590599E+03  d E =0.313007E-02  mag=    10.0000
       N       E                     dE             d eps       ncg     rms          ort
SDA:   1    -0.425801759350E+03    0.11319E+00    0.00000E+00  6336   0.330E+00 0.000E+00
CGA:   2    -0.425856618258E+03   -0.54859E-01   -0.55067E-01  6336   0.939E+00-0.292E-02
CGA:   3    -0.425883672928E+03   -0.27055E-01   -0.27167E-01  6336   0.158E+00-0.219E-01
CGA:   4    -0.425906815550E+03   -0.23143E-01   -0.21822E-01  6336   0.735E-01 0.160E-01
CGA:   5    -0.425911270943E+03   -0.44554E-02   -0.44292E-02  6336   0.618E-01-0.437E-02
CGA:   6    -0.425913528736E+03   -0.22578E-02   -0.22382E-02  6336   0.173E-01-0.255E-03
CGA:   7    -0.425914528785E+03   -0.10000E-02   -0.10006E-02  6336   0.129E-01 0.238E-04
CGA:   8    -0.425915089257E+03   -0.56047E-03   -0.61662E-03  6336   0.247E-02 0.418E-02
CGA:   9    -0.425915229395E+03   -0.14014E-03   -0.15264E-03  6336   0.257E-02 0.876E-03
CGA:  10    -0.425915319323E+03   -0.89928E-04   -0.76174E-03  6336   0.121E-01-0.422E-02
CGA:  11    -0.425915494013E+03   -0.17469E-03   -0.25662E-03  6336   0.276E-02 0.183E-02
CGA:  12    -0.425915577859E+03   -0.83846E-04   -0.12192E-03  6336   0.145E-02 0.143E-02
CGA:  13    -0.425915665936E+03   -0.88077E-04   -0.85553E-04  6336   0.313E-02-0.466E-03
CGA:  14    -0.425915772719E+03   -0.10678E-03   -0.11129E-03  6336   0.233E-02 0.379E-03
CGA:  15    -0.425915807031E+03   -0.34312E-04   -0.46285E-04  6336   0.247E-03 0.264E-03
CGA:  16    -0.425915805925E+03    0.11060E-05   -0.27999E-04  6336   0.241E-02-0.721E-03
CGA:  17    -0.425915845031E+03   -0.39105E-04   -0.53362E-04  6336   0.100E-03 0.368E-03
CGA:  18    -0.425915842726E+03    0.23052E-05   -0.13216E-05  6336   0.488E-04 0.729E-04
  91 F= -.42591584E+03 E0= -.42590687E+03  d E =-.899869E-03  mag=    10.0000
       N       E                     dE             d eps       ncg     rms          ort
SDA:   1    -0.425600203816E+03    0.31564E+00    0.00000E+00  6336   0.154E+01 0.000E+00
CGA:   2    -0.425670469551E+03   -0.70266E-01   -0.70228E-01  6336   0.164E+01 0.155E-01
CGA:   3    -0.425794124292E+03   -0.12365E+00   -0.12308E+00  6336   0.106E+01 0.199E-01
CGA:   4    -0.425835949002E+03   -0.41825E-01   -0.43039E-01  6336   0.361E+00-0.185E-02
CGA:   5    -0.425893981918E+03   -0.58033E-01   -0.57599E-01  6336   0.394E+00 0.395E-02
CGA:   6    -0.425903991879E+03   -0.10010E-01   -0.98772E-02  6336   0.666E-01-0.116E-01
CGA:   7    -0.425908275154E+03   -0.42833E-02   -0.42698E-02  6336   0.580E-01 0.190E-02
CGA:   8    -0.425912453017E+03   -0.41779E-02   -0.41475E-02  6336   0.111E-01 0.326E-02
CGA:   9    -0.425913321480E+03   -0.86846E-03   -0.91100E-03  6336   0.195E-01-0.245E-02
CGA:  10    -0.425914172408E+03   -0.85093E-03   -0.82021E-03  6336   0.132E-01-0.440E-02
CGA:  11    -0.425914425465E+03   -0.25306E-03   -0.31655E-03  6336   0.445E-02 0.227E-02
CGA:  12    -0.425914478059E+03   -0.52594E-04   -0.12399E-03  6336   0.251E-02 0.206E-02
CGA:  13    -0.425914544482E+03   -0.66422E-04   -0.10868E-03  6336   0.144E-02 0.157E-02
CGA:  14    -0.425912668219E+03    0.18763E-02   -0.10144E-02  6336   0.146E+00-0.804E-02
CGA:  15    -0.425914974081E+03   -0.23059E-02   -0.26095E-02  6336   0.228E-02 0.280E-02
CGA:  16    -0.425914978150E+03   -0.40694E-05   -0.56586E-04  6336   0.490E-03 0.751E-03
CGA:  17    -0.425914968095E+03    0.10055E-04   -0.14051E-04  6336   0.262E-03 0.335E-03
CGA:  18    -0.425914972113E+03   -0.40178E-05   -0.10964E-04  6336   0.159E-03 0.143E-03
  92 F= -.42591497E+03 E0= -.42590603E+03  d E =0.870613E-03  mag=    10.0000
       N       E                     dE             d eps       ncg     rms          ort
SDA:   1    -0.425857074183E+03    0.57894E-01    0.00000E+00  6336   0.182E+00 0.000E+00
CGA:   2    -0.425873627934E+03   -0.16554E-01   -0.16546E-01  6336   0.411E+00 0.919E-03
CGA:   3    -0.425900309890E+03   -0.26682E-01   -0.26726E-01  6336   0.209E+00 0.466E-02
CGA:   4    -0.425907452331E+03   -0.71424E-02   -0.72517E-02  6336   0.572E-01-0.137E-01
CGA:   5    -0.425914371152E+03   -0.69188E-02   -0.67839E-02  6336   0.274E-01 0.313E-02
CGA:   6    -0.425915558134E+03   -0.11870E-02   -0.10301E-02  6336   0.150E-01-0.340E-02
CGA:   7    -0.425916518695E+03   -0.96056E-03   -0.94382E-03  6336   0.114E-01-0.141E-02
CGA:   8    -0.425917026144E+03   -0.50745E-03   -0.50446E-03  6336   0.300E-02-0.111E-03
CGA:   9    -0.425917124151E+03   -0.98007E-04   -0.13358E-03  6336   0.129E-02 0.100E-02
CGA:  10    -0.425917244149E+03   -0.12000E-03   -0.12052E-03  6336   0.190E-02 0.540E-04
CGA:  11    -0.425917311460E+03   -0.67311E-04   -0.87211E-04  6336   0.630E-03 0.573E-03
CGA:  12    -0.425917370328E+03   -0.58868E-04   -0.56038E-04  6336   0.114E-02-0.331E-03
CGA:  13    -0.425917437976E+03   -0.67648E-04   -0.43838E-04  6336   0.861E-03-0.642E-03
CGA:  14    -0.425917434793E+03    0.31835E-05   -0.12763E-04  6336   0.147E-03 0.264E-03
  93 F= -.42591743E+03 E0= -.42590854E+03  d E =-.246268E-02  mag=    10.0000
       N       E                     dE             d eps       ncg     rms          ort
SDA:   1    -0.425882564680E+03    0.34873E-01    0.00000E+00  6336   0.175E+00 0.000E+00
CGA:   2    -0.425892068433E+03   -0.95038E-02   -0.95612E-02  6336   0.164E+00-0.375E-02
CGA:   3    -0.425904115976E+03   -0.12048E-01   -0.11991E-01  6336   0.136E+00 0.821E-02
CGA:   4    -0.425908865154E+03   -0.47492E-02   -0.47629E-02  6336   0.424E-01-0.305E-02
CGA:   5    -0.425915021508E+03   -0.61564E-02   -0.70171E-02  6336   0.552E-01-0.833E-02
CGA:   6    -0.425916358316E+03   -0.13368E-02   -0.13725E-02  6336   0.165E-01-0.179E-03
CGA:   7    -0.425916759819E+03   -0.40150E-03   -0.54172E-03  6336   0.507E-02 0.424E-02
CGA:   8    -0.425916934177E+03   -0.17436E-03   -0.23279E-03  6336   0.319E-02 0.196E-02
CGA:   9    -0.425917195883E+03   -0.26171E-03   -0.26209E-03  6336   0.431E-02 0.506E-04
CGA:  10    -0.425917414163E+03   -0.21828E-03   -0.21748E-03  6336   0.168E-02-0.501E-04
CGA:  11    -0.425917484637E+03   -0.70474E-04   -0.58647E-04  6336   0.105E-02-0.399E-03
CGA:  12    -0.425917620686E+03   -0.13605E-03    0.74458E-04  6336   0.124E-02-0.506E-03
CGA:  13    -0.425917636482E+03   -0.15796E-04   -0.71481E-04  6336   0.323E-02-0.117E-02
CGA:  14    -0.425917659845E+03   -0.23363E-04   -0.75182E-04  6336   0.723E-03 0.125E-02
CGA:  15    -0.425917649161E+03    0.10684E-04   -0.16893E-04  6336   0.374E-03 0.594E-03
CGA:  16    -0.425917649606E+03   -0.44524E-06   -0.98399E-05  6336   0.213E-03 0.268E-03
  94 F= -.42591765E+03 E0= -.42590870E+03  d E =-.214814E-03  mag=    10.0000
       N       E                     dE             d eps       ncg     rms          ort
SDA:   1    -0.425913384454E+03    0.42647E-02    0.00000E+00  6336   0.325E-01 0.000E+00
CGA:   2    -0.425914332846E+03   -0.94839E-03   -0.96617E-03  6336   0.157E-01 0.611E-03
CGA:   3    -0.425915723390E+03   -0.13905E-02   -0.21617E-02  6336   0.435E-01-0.959E-02
CGA:   4    -0.425916766864E+03   -0.10435E-02   -0.11617E-02  6336   0.107E-01 0.491E-02
CGA:   5    -0.425917078244E+03   -0.31138E-03   -0.37540E-03  6336   0.253E-02 0.260E-02
CGA:   6    -0.425917146441E+03   -0.68197E-04   -0.10180E-03  6336   0.175E-02 0.135E-02
CGA:   7    -0.425917309365E+03   -0.16292E-03   -0.17918E-03  6336   0.697E-02-0.358E-03
CGA:   8    -0.425917674561E+03   -0.36520E-03   -0.53263E-03  6336   0.700E-02-0.444E-02
CGA:   9    -0.425917837025E+03   -0.16246E-03   -0.23447E-03  6336   0.120E-02 0.283E-02
CGA:  10    -0.425917836219E+03    0.80566E-06   -0.33789E-04  6336   0.392E-03 0.907E-03
  95 F= -.42591784E+03 E0= -.42590890E+03  d E =-.186613E-03  mag=    10.0000
       N       E                     dE             d eps       ncg     rms          ort
SDA:   1    -0.425887757787E+03    0.30079E-01    0.00000E+00  6336   0.102E+00 0.000E+00
CGA:   2    -0.425900383023E+03   -0.12625E-01   -0.13288E-01  6336   0.147E+00-0.786E-02
CGA:   3    -0.425906813834E+03   -0.64308E-02   -0.63552E-02  6336   0.123E+00-0.699E-02
CGA:   4    -0.425912298140E+03   -0.54843E-02   -0.55585E-02  6336   0.327E-01 0.108E-01
CGA:   5    -0.425913775562E+03   -0.14774E-02   -0.15492E-02  6336   0.161E-01 0.562E-02
CGA:   6    -0.425915912053E+03   -0.21365E-02   -0.24116E-02  6336   0.316E-01-0.391E-02
CGA:   7    -0.425916332593E+03   -0.42054E-03   -0.42582E-03  6336   0.588E-02 0.375E-03
CGA:   8    -0.425916419782E+03   -0.87189E-04   -0.10224E-03  6336   0.317E-02 0.378E-03
CGA:   9    -0.425916659369E+03   -0.23959E-03   -0.24561E-03  6336   0.110E-01-0.380E-03
CGA:  10    -0.425916938948E+03   -0.27958E-03   -0.23161E-03  6336   0.422E-02-0.144E-02
CGA:  11    -0.425916998501E+03   -0.59552E-04   -0.47480E-04  6336   0.115E-02-0.337E-03
CGA:  12    -0.425917002563E+03   -0.40621E-05   -0.16197E-04  6336   0.978E-03 0.312E-03
CGA:  13    -0.425916994629E+03    0.79341E-05   -0.18256E-04  6336   0.813E-03 0.716E-03
CGA:  14    -0.425917000587E+03   -0.59584E-05   -0.16560E-04  6336   0.362E-03 0.358E-03
CGA:  15    -0.425917014781E+03   -0.14194E-04   -0.18467E-04  6336   0.410E-03 0.329E-03
CGA:  16    -0.425916937281E+03    0.77500E-04   -0.62272E-04  6336   0.110E-01-0.135E-02
CGA:  17    -0.425917072921E+03   -0.13564E-03   -0.17624E-03  6336   0.183E-03 0.113E-02
CGA:  18    -0.425917072806E+03    0.11523E-06   -0.28381E-05  6336   0.611E-04 0.792E-04
  96 F= -.42591707E+03 E0= -.42590815E+03  d E =0.763414E-03  mag=    10.0000
       N       E                     dE             d eps       ncg     rms          ort
SDA:   1    -0.425906453096E+03    0.10620E-01    0.00000E+00  6336   0.137E+00 0.000E+00
CGA:   2    -0.425909221126E+03   -0.27680E-02   -0.28649E-02  6336   0.271E-01 0.592E-02
CGA:   3    -0.425913931641E+03   -0.47105E-02   -0.49998E-02  6336   0.336E-01-0.220E-02
CGA:   4    -0.425914961565E+03   -0.10299E-02   -0.10356E-02  6336   0.138E-01 0.296E-03
CGA:   5    -0.425915728143E+03   -0.76658E-03   -0.76018E-03  6336   0.160E-01 0.249E-02
CGA:   6    -0.425917087321E+03   -0.13592E-02   -0.13936E-02  6336   0.284E-02-0.163E-02
CGA:   7    -0.425917165221E+03   -0.77901E-04   -0.86822E-04  6336   0.129E-02 0.454E-03
CGA:   8    -0.425917193923E+03   -0.28701E-04   -0.45956E-04  6336   0.745E-03 0.801E-03
CGA:   9    -0.425916691425E+03    0.50250E-03   -0.27797E-03  6336   0.283E-01-0.263E-02
CGA:  10    -0.425917338051E+03   -0.64663E-03   -0.68560E-03  6336   0.476E-03 0.268E-02
CGA:  11    -0.425917335236E+03    0.28155E-05   -0.11256E-04  6336   0.173E-03 0.208E-03
  97 F= -.42591734E+03 E0= -.42590841E+03  d E =-.262430E-03  mag=    10.0000
       N       E                     dE             d eps       ncg     rms          ort
SDA:   1    -0.425860596815E+03    0.56741E-01    0.00000E+00  6336   0.290E+00 0.000E+00
CGA:   2    -0.425874452112E+03   -0.13855E-01   -0.13094E-01  6336   0.187E+00 0.166E-01
CGA:   3    -0.425898499268E+03   -0.24047E-01   -0.24269E-01  6336   0.199E+00-0.574E-02
CGA:   4    -0.425903642795E+03   -0.51435E-02   -0.50741E-02  6336   0.564E-01 0.764E-02
CGA:   5    -0.425913751873E+03   -0.10109E-01   -0.10064E-01  6336   0.527E-01 0.500E-03
CGA:   6    -0.425914949238E+03   -0.11974E-02   -0.12185E-02  6336   0.914E-02-0.198E-02
CGA:   7    -0.425915393456E+03   -0.44422E-03   -0.50422E-03  6336   0.665E-02 0.244E-02
CGA:   8    -0.425916011744E+03   -0.61829E-03   -0.62204E-03  6336   0.361E-02 0.489E-03
CGA:   9    -0.425916243917E+03   -0.23217E-03   -0.21101E-03  6336   0.367E-02-0.827E-03
CGA:  10    -0.425916323166E+03   -0.79249E-04   -0.86415E-04  6336   0.112E-02 0.140E-03
CGA:  11    -0.425916361388E+03   -0.38221E-04   -0.42209E-04  6336   0.114E-02 0.959E-04
CGA:  12    -0.425916446148E+03   -0.84760E-04   -0.82414E-04  6336   0.176E-02-0.275E-03
CGA:  13    -0.425916470062E+03   -0.23914E-04   -0.37524E-04  6336   0.945E-03 0.293E-03
CGA:  14    -0.425916472462E+03   -0.24003E-05   -0.17128E-04  6336   0.200E-03 0.265E-03
  98 F= -.42591647E+03 E0= -.42590753E+03  d E =0.862773E-03  mag=    10.0000
       N       E                     dE             d eps       ncg     rms          ort
SDA:   1    -0.425874199630E+03    0.42270E-01    0.00000E+00  6336   0.426E+00 0.000E+00
CGA:   2    -0.425883942007E+03   -0.97424E-02   -0.10129E-01  6336   0.114E+00 0.146E-01
CGA:   3    -0.425893788230E+03   -0.98462E-02   -0.97277E-02  6336   0.186E+00 0.731E-02
CGA:   4    -0.425907071654E+03   -0.13283E-01   -0.13281E-01  6336   0.758E-01 0.746E-03
CGA:   5    -0.425910291512E+03   -0.32199E-02   -0.31647E-02  6336   0.625E-01-0.139E-02
CGA:   6    -0.425913917345E+03   -0.36258E-02   -0.35886E-02  6336   0.274E-01-0.744E-02
CGA:   7    -0.425915766157E+03   -0.18488E-02   -0.18295E-02  6336   0.830E-02 0.179E-02
CGA:   8    -0.425916007786E+03   -0.24163E-03   -0.31382E-03  6336   0.189E-02 0.256E-02
CGA:   9    -0.425916192392E+03   -0.18461E-03   -0.17665E-03  6336   0.215E-02 0.100E-02
CGA:  10    -0.425916300567E+03   -0.10818E-03   -0.23531E-03  6336   0.119E-01-0.278E-02
CGA:  11    -0.425916551903E+03   -0.25134E-03   -0.27370E-03  6336   0.105E-02 0.445E-03
CGA:  12    -0.425916547922E+03    0.39812E-05   -0.20172E-04  6336   0.432E-03 0.533E-03
CGA:  13    -0.425916558373E+03   -0.10451E-04   -0.17307E-04  6336   0.343E-03 0.315E-03
CGA:  14    -0.425916468903E+03    0.89470E-04   -0.58866E-04  6336   0.160E-01-0.701E-03
CGA:  15    -0.425916691009E+03   -0.22211E-03   -0.27037E-03  6336   0.161E-03 0.775E-03
CGA:  16    -0.425915268140E+03    0.14229E-02   -0.77414E-03  6336   0.771E-01-0.268E-02
CGA:  17    -0.425916730388E+03   -0.14622E-02   -0.18346E-02  6336   0.101E-01-0.137E-01
CGA:  18    -0.425916800455E+03   -0.70067E-04   -0.21488E-03  6336   0.737E-03 0.115E-02
CGA:  19    -0.425916789072E+03    0.11383E-04   -0.21205E-04  6336   0.177E-03 0.240E-03
CGA:  20    -0.425916783754E+03    0.53181E-05   -0.49958E-05  6336   0.368E-04 0.721E-04
  99 F= -.42591678E+03 E0= -.42590783E+03  d E =-.311292E-03  mag=    10.0000
       N       E                     dE             d eps       ncg     rms          ort
SDA:   1    -0.425897761604E+03    0.19027E-01    0.00000E+00  6336   0.910E-01 0.000E+00
CGA:   2    -0.425903098815E+03   -0.53372E-02   -0.54818E-02  6336   0.109E+00-0.932E-02
CGA:   3    -0.425910173935E+03   -0.70751E-02   -0.71245E-02  6336   0.921E-01 0.920E-03
CGA:   4    -0.425913063816E+03   -0.28899E-02   -0.29893E-02  6336   0.227E-01-0.311E-03
CGA:   5    -0.425915874034E+03   -0.28102E-02   -0.28378E-02  6336   0.105E-01 0.227E-02
CGA:   6    -0.425917342555E+03   -0.14685E-02   -0.14197E-02  6336   0.461E-02-0.313E-02
CGA:   7    -0.425917476170E+03   -0.13362E-03   -0.20104E-03  6336   0.219E-02 0.941E-03
CGA:   8    -0.425917532074E+03   -0.55904E-04   -0.96767E-04  6336   0.956E-03 0.410E-03
CGA:   9    -0.425917546952E+03   -0.14878E-04   -0.51543E-04  6336   0.509E-03 0.435E-03
CGA:  10    -0.425917613246E+03   -0.66294E-04   -0.18429E-03  6336   0.164E-02-0.955E-03
CGA:  11    -0.425917624191E+03   -0.10946E-04   -0.60835E-04  6336   0.567E-03 0.545E-03
CGA:  12    -0.425917635217E+03   -0.11026E-04   -0.36992E-04  6336   0.263E-03 0.337E-03
CGA:  13    -0.425917732618E+03   -0.97401E-04    0.32247E-04  6336   0.685E-03-0.114E-03
CGA:  14    -0.425917750528E+03   -0.17910E-04   -0.14210E-04  6336   0.380E-03-0.429E-04
CGA:  15    -0.425917741061E+03    0.94673E-05   -0.52970E-05  6336   0.166E-03 0.144E-03
 100 F= -.42591774E+03 E0= -.42590879E+03  d E =-.957307E-03  mag=    10.0000
