       N       E                     dE             d eps       ncg     rms          ort
DAV:   1     0.238739309148E+04    0.23874E+04   -0.14007E+05 10332   0.161E+03
DAV:   2    -0.158271422034E+03   -0.25457E+04   -0.23658E+04 10332   0.422E+02
DAV:   3    -0.424063846388E+03   -0.26579E+03   -0.26079E+03 10332   0.150E+02
DAV:   4    -0.432282553345E+03   -0.82187E+01   -0.81281E+01 10332   0.262E+01
DAV:   5    -0.432693198337E+03   -0.41064E+00   -0.40971E+00 10332   0.437E+00
SDA:   6    -0.350919693806E+03    0.81774E+02   -0.40971E+00 10332   0.226E+02 0.000E+00
CGA:   7    -0.353500595912E+03   -0.25809E+01   -0.30351E+01 10332   0.319E+01 0.115E+01
CGA:   8    -0.354075276034E+03   -0.57468E+00   -0.57536E+00 10332   0.836E+00 0.290E-01
CGA:   9    -0.354265921671E+03   -0.19065E+00   -0.19009E+00 10332   0.384E+00 0.174E-01
CGA:  10    -0.354341037153E+03   -0.75115E-01   -0.75109E-01 10332   0.136E+00-0.221E-02
CGA:  11    -0.354376903081E+03   -0.35866E-01   -0.37050E-01 10332   0.787E-01-0.155E-01
CGA:  12    -0.354395961173E+03   -0.19058E-01   -0.20384E-01 10332   0.413E-01-0.147E-01
CGA:  13    -0.354404152653E+03   -0.81915E-02   -0.82560E-02 10332   0.136E-01-0.170E-02
CGA:  14    -0.354407001558E+03   -0.28489E-02   -0.28269E-02 10332   0.412E-02 0.232E-02
CGA:  15    -0.354408202668E+03   -0.12011E-02   -0.11698E-02 10332   0.177E-02 0.885E-03
CGA:  16    -0.354408951928E+03   -0.74926E-03   -0.80281E-03 10332   0.118E-02-0.329E-03
CGA:  17    -0.354409033729E+03   -0.81801E-04   -0.60551E-03 10332   0.198E-02-0.127E-02
CGA:  18    -0.354409633840E+03   -0.60011E-03   -0.77086E-03 10332   0.183E-02-0.113E-02
CGA:  19    -0.354409894788E+03   -0.26095E-03   -0.28349E-03 10332   0.120E-03 0.250E-03
CGA:  20    -0.354409935259E+03   -0.40471E-04   -0.81220E-04 10332   0.275E-03-0.115E-03
CGA:  21    -0.354410010530E+03   -0.75272E-04   -0.76886E-04 10332   0.378E-04-0.795E-04
CGA:  22    -0.354410007560E+03    0.29698E-05   -0.14855E-05 10332   0.244E-04 0.218E-04
   1 F= -.35441001E+03 E0= -.35441001E+03  d E =-.354410E+03  mag=    18.0000
