 vasp.6.1.2 22Jul20 (build Apr 14 2021 21:39:43) complex                        
  
 executed on             LinuxIFC date 2022.05.17  10:12:40
 running on   64 total cores
 distrk:  each k-point on   64 cores,    1 groups
 distr:  one band on NCORE=  16 cores,    4 groups


--------------------------------------------------------------------------------------------------------


 INCAR:
 POTCAR:    PAW_PBE Ca_sv 06Sep2000               
 POTCAR:    PAW_PBE Mn_pv 02Aug2007               
 POTCAR:    PAW_PBE S 06Sep2000                   
 POTCAR:    PAW_PBE O 08Apr2002                   
 POTCAR:    PAW_PBE Ca_sv 06Sep2000               
   VRHFIN =Ca: 3s3p4s                                                                               
   LEXCH  = PE                                                                                      
   EATOM  =  1006.0909 eV,   73.9456 Ry                                                             
                                                                                                    
   TITEL  = PAW_PBE Ca_sv 06Sep2000                                                                 
   LULTRA =        F    use ultrasoft PP ?                                                          
   IUNSCR =        1    unscreen: 0-lin 1-nonlin 2-no                                               
   RPACOR =    2.000    partial core radius                                                         
   POMASS =   40.078; ZVAL   =   10.000    mass and valenz                                          
   RCORE  =    2.300    outmost cutoff radius                                                       
   RWIGS  =    2.500; RWIGS  =    1.323    wigner-seitz radius (au A)                               
   ENMAX  =  266.622; ENMIN  =  199.967 eV                                                          
   RCLOC  =    1.808    cutoff for local pot                                                        
   LCOR   =        T    correct aug charges                                                         
   LPAW   =        T    paw PP                                                                      
   EAUG   =  420.852                                                                                
   RMAX   =    2.359    core radius for proj-oper                                                   
   RAUG   =    1.300    factor for augmentation sphere                                              
   RDEP   =    2.392    radius for radial grids                                                     
   RDEPT  =    1.987    core radius for aug-charge                                                  
                                                                                                    
   Atomic configuration                                                                             
    7 entries                                                                                       
     n  l   j            E        occ.                                                              
     1  0  0.50     -3949.1705   2.0000                                                             
     2  0  0.50      -414.3434   2.0000                                                             
     2  1  1.50      -334.7047   6.0000                                                             
     3  0  0.50       -47.0896   2.0000                                                             
     4  0  0.50        -3.7663   2.0000                                                             
     3  1  1.50       -28.0061   6.0000                                                             
     3  2  1.50        -4.0817   0.0000                                                             
   Description                                                                                      
     l       E           TYP  RCUT    TYP  RCUT                                                     
     0    -47.0896403     23  2.300                                                                 
     0     -3.7663320     23  2.300                                                                 
     1    -28.0060855     23  2.300                                                                 
     1      6.8029130     23  2.300                                                                 
     2     -4.0817478     23  2.300                                                                 
     2      0.4464412     23  2.300                                                                 
  local pseudopotential read in
  partial core-charges read in
  partial kinetic energy density read in
  atomic valenz-charges read in
  non local Contribution for L=           0  read in
    real space projection operators read in
  non local Contribution for L=           0  read in
    real space projection operators read in
  non local Contribution for L=           1  read in
    real space projection operators read in
  non local Contribution for L=           1  read in
    real space projection operators read in
  non local Contribution for L=           2  read in
    real space projection operators read in
  non local Contribution for L=           2  read in
    real space projection operators read in
    PAW grid and wavefunctions read in
 
   number of l-projection  operators is LMAX  =           6
   number of lm-projection operators is LMMAX =          18
 
 POTCAR:    PAW_PBE Mn_pv 02Aug2007               
   VRHFIN =Mn: 3p4s3d                                                                               
   LEXCH  = PE                                                                                      
   EATOM  =  2025.2664 eV,  148.8529 Ry                                                             
                                                                                                    
   TITEL  = PAW_PBE Mn_pv 02Aug2007                                                                 
   LULTRA =        F    use ultrasoft PP ?                                                          
   IUNSCR =        1    unscreen: 0-lin 1-nonlin 2-no                                               
   RPACOR =    2.080    partial core radius                                                         
   POMASS =   54.938; ZVAL   =   13.000    mass and valenz                                          
   RCORE  =    2.300    outmost cutoff radius                                                       
   RWIGS  =    2.500; RWIGS  =    1.323    wigner-seitz radius (au A)                               
   ENMAX  =  269.864; ENMIN  =  202.398 eV                                                          
   ICORE  =        3    local potential                                                             
   LCOR   =        T    correct aug charges                                                         
   LPAW   =        T    paw PP                                                                      
   EAUG   =  569.085                                                                                
   DEXC   =    0.000                                                                                
   RMAX   =    2.343    core radius for proj-oper                                                   
   RAUG   =    1.300    factor for augmentation sphere                                              
   RDEP   =    2.338    radius for radial grids                                                     
   RDEPT  =    1.798    core radius for aug-charge                                                  
                                                                                                    
   Atomic configuration                                                                             
    8 entries                                                                                       
     n  l   j            E        occ.                                                              
     1  0  0.50     -6424.8287   2.0000                                                             
     2  0  0.50      -739.1154   2.0000                                                             
     2  1  1.50      -625.3949   6.0000                                                             
     3  0  0.50       -81.6100   2.0000                                                             
     3  1  1.50       -50.4667   6.0000                                                             
     3  2  2.50        -3.3745   6.0000                                                             
     4  0  0.50        -4.1331   1.0000                                                             
     4  3  2.50        -1.3606   0.0000                                                             
   Description                                                                                      
     l       E           TYP  RCUT    TYP  RCUT                                                     
     1    -50.4666628     23  2.000                                                                 
     1     -1.3605826     23  2.000                                                                 
     2     -3.3744729     23  2.300                                                                 
     2     -4.7350555     23  2.300                                                                 
     0     -4.1331431     23  2.300                                                                 
     0      7.6656591     23  2.300                                                                 
     3      9.5240782     23  2.300                                                                 
  local pseudopotential read in
  partial core-charges read in
  partial kinetic energy density read in
  atomic valenz-charges read in
  non local Contribution for L=           1  read in
    real space projection operators read in
  non local Contribution for L=           1  read in
    real space projection operators read in
  non local Contribution for L=           2  read in
    real space projection operators read in
  non local Contribution for L=           2  read in
    real space projection operators read in
  non local Contribution for L=           0  read in
    real space projection operators read in
  non local Contribution for L=           0  read in
    real space projection operators read in
    PAW grid and wavefunctions read in
 
   number of l-projection  operators is LMAX  =           6
   number of lm-projection operators is LMMAX =          18
 
 POTCAR:    PAW_PBE S 06Sep2000                   
   VRHFIN =S : s2p4                                                                                 
   LEXCH  = PE                                                                                      
   EATOM  =   276.8230 eV,   20.3459 Ry                                                             
                                                                                                    
   TITEL  = PAW_PBE S 06Sep2000                                                                     
   LULTRA =        F    use ultrasoft PP ?                                                          
   IUNSCR =        1    unscreen: 0-lin 1-nonlin 2-no                                               
   RPACOR =    1.500    partial core radius                                                         
   POMASS =   32.066; ZVAL   =    6.000    mass and valenz                                          
   RCORE  =    1.900    outmost cutoff radius                                                       
   RWIGS  =    2.200; RWIGS  =    1.164    wigner-seitz radius (au A)                               
   ENMAX  =  258.689; ENMIN  =  194.016 eV                                                          
   ICORE  =        2    local potential                                                             
   LCOR   =        T    correct aug charges                                                         
   LPAW   =        T    paw PP                                                                      
   EAUG   =  335.092                                                                                
   DEXC   =    0.000                                                                                
   RMAX   =    1.942    core radius for proj-oper                                                   
   RAUG   =    1.300    factor for augmentation sphere                                              
   RDEP   =    1.954    radius for radial grids                                                     
   RDEPT  =    1.744    core radius for aug-charge                                                  
                                                                                                    
   Atomic configuration                                                                             
    6 entries                                                                                       
     n  l   j            E        occ.                                                              
     1  0  0.50     -2405.8406   2.0000                                                             
     2  0  0.50      -211.7007   2.0000                                                             
     2  1  1.50      -156.4958   6.0000                                                             
     3  0  0.50       -17.2562   2.0000                                                             
     3  1  0.50        -7.0085   4.0000                                                             
     3  2  1.50        -6.8029   0.0000                                                             
   Description                                                                                      
     l       E           TYP  RCUT    TYP  RCUT                                                     
     0    -17.2561641     23  1.900                                                                 
     0    -15.8743224     23  1.900                                                                 
     1     -7.0085400     23  1.900                                                                 
     1     -2.7779785     23  1.900                                                                 
     2     -6.8029130     23  1.900                                                                 
  local pseudopotential read in
  partial core-charges read in
  partial kinetic energy density read in
  atomic valenz-charges read in
  non local Contribution for L=           0  read in
    real space projection operators read in
  non local Contribution for L=           0  read in
    real space projection operators read in
  non local Contribution for L=           1  read in
    real space projection operators read in
  non local Contribution for L=           1  read in
    real space projection operators read in
    PAW grid and wavefunctions read in
 
   number of l-projection  operators is LMAX  =           4
   number of lm-projection operators is LMMAX =           8
 
 POTCAR:    PAW_PBE O 08Apr2002                   
   VRHFIN =O: s2p4                                                                                  
   LEXCH  = PE                                                                                      
   EATOM  =   432.3788 eV,   31.7789 Ry                                                             
                                                                                                    
   TITEL  = PAW_PBE O 08Apr2002                                                                     
   LULTRA =        F    use ultrasoft PP ?                                                          
   IUNSCR =        1    unscreen: 0-lin 1-nonlin 2-no                                               
   RPACOR =    1.200    partial core radius                                                         
   POMASS =   16.000; ZVAL   =    6.000    mass and valenz                                          
   RCORE  =    1.520    outmost cutoff radius                                                       
   RWIGS  =    1.550; RWIGS  =    0.820    wigner-seitz radius (au A)                               
   ENMAX  =  400.000; ENMIN  =  300.000 eV                                                          
   ICORE  =        2    local potential                                                             
   LCOR   =        T    correct aug charges                                                         
   LPAW   =        T    paw PP                                                                      
   EAUG   =  605.392                                                                                
   DEXC   =    0.000                                                                                
   RMAX   =    1.553    core radius for proj-oper                                                   
   RAUG   =    1.300    factor for augmentation sphere                                              
   RDEP   =    1.550    radius for radial grids                                                     
   RDEPT  =    1.329    core radius for aug-charge                                                  
                                                                                                    
   Atomic configuration                                                                             
    4 entries                                                                                       
     n  l   j            E        occ.                                                              
     1  0  0.50      -514.6923   2.0000                                                             
     2  0  0.50       -23.9615   2.0000                                                             
     2  1  0.50        -9.0305   4.0000                                                             
     3  2  1.50        -9.5241   0.0000                                                             
   Description                                                                                      
     l       E           TYP  RCUT    TYP  RCUT                                                     
     0    -23.9615318     23  1.200                                                                 
     0     -9.5240782     23  1.200                                                                 
     1     -9.0304911     23  1.520                                                                 
     1      8.1634956     23  1.520                                                                 
     2     -9.5240782      7  1.500                                                                 
  local pseudopotential read in
  partial core-charges read in
  partial kinetic energy density read in
  kinetic energy density of atom read in
  atomic valenz-charges read in
  non local Contribution for L=           0  read in
    real space projection operators read in
  non local Contribution for L=           0  read in
    real space projection operators read in
  non local Contribution for L=           1  read in
    real space projection operators read in
  non local Contribution for L=           1  read in
    real space projection operators read in
    PAW grid and wavefunctions read in
 
   number of l-projection  operators is LMAX  =           4
   number of lm-projection operators is LMMAX =           8
 
 Optimization of the real space projectors (new method)

 maximal supplied QI-value         = 16.25
 optimisation between [QCUT,QGAM] = [ 11.54, 23.24] = [ 37.28,151.24] Ry 
 Optimized for a Real-space Cutoff    1.58 Angstroem

   l    n(q)    QCUT    max X(q) W(low)/X(q) W(high)/X(q)  e(spline) 
   0     11    11.539    11.817    0.25E-04    0.22E-05    0.26E-07
   0     11    11.539     8.461    0.39E-04    0.49E-05    0.55E-07
   1     11    11.539     3.957    0.21E-05    0.44E-05    0.32E-07
   1     11    11.539     4.314    0.56E-04    0.44E-04    0.19E-06
   2     10    11.539    14.565    0.25E-03    0.21E-04    0.75E-06
   2     10    11.539    14.552    0.23E-03    0.22E-04    0.72E-06
 Optimization of the real space projectors (new method)

 maximal supplied QI-value         = 16.25
 optimisation between [QCUT,QGAM] = [ 11.54, 23.24] = [ 37.28,151.24] Ry 
 Optimized for a Real-space Cutoff    1.45 Angstroem

   l    n(q)    QCUT    max X(q) W(low)/X(q) W(high)/X(q)  e(spline) 
   1     10    11.539     3.658    0.56E-04    0.12E-03    0.13E-06
   1     10    11.539     5.612    0.11E-03    0.23E-03    0.24E-06
   2      9    11.539    55.373    0.45E-04    0.92E-04    0.22E-06
   2      9    11.539    50.863    0.47E-04    0.95E-04    0.22E-06
   0     10    11.539    79.536    0.46E-04    0.27E-04    0.11E-06
   0     10    11.539    38.668    0.38E-04    0.25E-04    0.10E-06
 Optimization of the real space projectors (new method)

 maximal supplied QI-value         = 19.84
 optimisation between [QCUT,QGAM] = [ 11.51, 23.22] = [ 37.09,150.92] Ry 
 Optimized for a Real-space Cutoff    1.21 Angstroem

   l    n(q)    QCUT    max X(q) W(low)/X(q) W(high)/X(q)  e(spline) 
   0      8    11.508   187.594    0.96E-04    0.18E-03    0.54E-07
   0      8    11.508   164.243    0.96E-04    0.18E-03    0.54E-07
   1      8    11.508    67.533    0.18E-03    0.65E-04    0.94E-07
   1      8    11.508    50.729    0.18E-03    0.63E-04    0.92E-07
 Optimization of the real space projectors (new method)

 maximal supplied QI-value         = 24.76
 optimisation between [QCUT,QGAM] = [ 11.64, 23.27] = [ 37.91,151.63] Ry 
 Optimized for a Real-space Cutoff    1.14 Angstroem

   l    n(q)    QCUT    max X(q) W(low)/X(q) W(high)/X(q)  e(spline) 
   0      8    11.635    20.381    0.10E-03    0.33E-03    0.24E-06
   0      8    11.635    15.268    0.11E-03    0.35E-03    0.26E-06
   1      7    11.635     5.964    0.24E-03    0.31E-03    0.30E-06
   1      7    11.635     5.382    0.22E-03    0.25E-03    0.26E-06
  PAW_PBE Ca_sv 06Sep2000               :
 energy of atom  1       EATOM=-1006.0909
 kinetic energy error for atom=    0.0022 (will be added to EATOM!!)
  PAW_PBE Mn_pv 02Aug2007               :
 energy of atom  2       EATOM=-2025.2664
 kinetic energy error for atom=    0.0058 (will be added to EATOM!!)
  PAW_PBE S 06Sep2000                   :
 energy of atom  3       EATOM= -276.8230
 kinetic energy error for atom=    0.0016 (will be added to EATOM!!)
  PAW_PBE O 08Apr2002                   :
 energy of atom  4       EATOM= -432.3788
 kinetic energy error for atom=    0.0208 (will be added to EATOM!!)
 
 
 POSCAR: Mn4 S6 O24
  positions in direct lattice
  velocities in cartesian coordinates

 METAGGA = SCAN     LMAXTAU =  6    LMIXTAU =  F

 exchange correlation table for  LEXCH =        8
   RHO(1)=    0.500       N(1)  =     2000
   RHO(2)=  100.500       N(2)  =     4000
 


--------------------------------------------------------------------------------------------------------


 ion  position               nearest neighbor table
   1  0.499  0.494  0.499-  23 2.41  12 2.41  21 2.45  16 2.46  14 2.51  19 2.53
   2  0.647  0.647  0.646-  25 2.08  27 2.09  29 2.11  16 2.20  12 2.21  14 2.22
   3  0.156  0.148  0.149-  28 1.91  17 1.92  15 1.93  24 1.93  13 2.14  26 2.16
   4  0.838  0.848  0.846-  18 1.91  33 1.92  35 1.93  22 1.93  20 2.14  31 2.17
   5  0.348  0.348  0.348-  32 2.08  34 2.09  30 2.10  21 2.20  23 2.21  19 2.23
   6  0.952  0.240  0.539-  30 1.44  14 1.47  22 1.47  24 1.49
   7  0.446  0.057  0.751-  25 1.45  31 1.47  21 1.48  17 1.48
   8  0.549  0.938  0.244-  32 1.45  26 1.47  16 1.48  18 1.49
   9  0.751  0.462  0.043-  13 1.44  27 1.45  23 1.48  33 1.52
  10  0.244  0.533  0.951-  20 1.44  34 1.45  12 1.48  28 1.52
  11  0.043  0.755  0.456-  29 1.44  19 1.47  15 1.47  35 1.49
  12  0.374  0.619  0.743-  10 1.48   2 2.21   1 2.41
  13  0.953  0.344  0.010-   9 1.44   3 2.14
  14  0.749  0.364  0.622-   6 1.47   2 2.22   1 2.51
  15  0.015  0.966  0.331-  11 1.47   3 1.93
  16  0.641  0.736  0.365-   8 1.48   2 2.20   1 2.46
  17  0.312  0.016  0.965-   7 1.48   3 1.92
  18  0.683  0.979  0.030-   8 1.49   4 1.91
  19  0.246  0.630  0.375-  11 1.47   5 2.23   1 2.53
  20  0.042  0.652  0.985-  10 1.44   4 2.14
  21  0.353  0.258  0.630-   7 1.48   5 2.20   1 2.45
  22  0.980  0.029  0.663-   6 1.47   4 1.93
  23  0.621  0.376  0.251-   9 1.48   5 2.21   1 2.41
  24  0.986  0.280  0.337-   6 1.49   3 1.93
  25  0.480  0.908  0.701-   7 1.45   2 2.08
  26  0.367  0.942  0.282-   8 1.47   3 2.16
  27  0.701  0.486  0.904-   9 1.45   2 2.09
  28  0.291  0.333  0.965-  10 1.52   3 1.91
  29  0.908  0.707  0.469-  11 1.44   2 2.11
  30  0.086  0.289  0.526-   6 1.44   5 2.10
  31  0.627  0.056  0.712-   7 1.47   4 2.17
  32  0.516  0.085  0.295-   8 1.45   5 2.08
  33  0.703  0.662  0.029-   9 1.52   4 1.92
  34  0.295  0.509  0.090-  10 1.45   5 2.09
  35  0.008  0.716  0.658-  11 1.49   4 1.93
 

IMPORTANT INFORMATION: All symmetrisations will be switched off!
NOSYMM: (Re-)initialisation of all symmetry stuff for point group C_1.


----------------------------------------------------------------------------------------

                                     Primitive cell                                     

  volume of cell :     445.9038

  direct lattice vectors                    reciprocal lattice vectors
     7.664592626  0.146116988  5.006710384     0.136816362 -0.049765892 -0.008262917
     2.795938970  6.872814971  4.901226137    -0.000888987  0.147971540 -0.002957517
     0.610825759  0.183704486  9.007562111    -0.075563484 -0.052853210  0.117219896

  length of vectors
     9.156117036  8.892405636  9.030117975     0.145820563  0.148003763  0.149143575

  position of ions in fractional coordinates (direct lattice)
     0.498922178  0.493920424  0.499183788
     0.646999432  0.646930252  0.646294866
     0.156064731  0.147867232  0.148906600
     0.838162474  0.847629834  0.846220107
     0.348078765  0.347562738  0.347764571
     0.952069113  0.240117489  0.539161183
     0.445646192  0.056744025  0.750944108
     0.549031393  0.937665662  0.244186160
     0.750786819  0.461783777  0.042769908
     0.244063195  0.533466204  0.951414253
     0.042764250  0.755155045  0.455921747
     0.373974110  0.619374559  0.743399619
     0.953109319  0.343633335  0.009647592
     0.748852813  0.364240617  0.621651606
     0.014972692  0.966234313  0.331414209
     0.641108298  0.735559898  0.364874872
     0.312305645  0.015508244  0.965101495
     0.682549406  0.979257232  0.029772864
     0.245800334  0.630325086  0.374745164
     0.041621403  0.651824975  0.985436480
     0.352892036  0.257929998  0.629820876
     0.980412757  0.029055012  0.663208524
     0.620552047  0.375811582  0.250633336
     0.985926316  0.279848511  0.337424086
     0.480341836  0.908104591  0.701148478
     0.367178490  0.941525289  0.281629914
     0.701242618  0.485732127  0.903607570
     0.291160974  0.333124146  0.964572000
     0.908331037  0.707495177  0.468801993
     0.086271679  0.288625102  0.525578849
     0.626692459  0.055861481  0.712499412
     0.516331627  0.084683343  0.294850536
     0.703046126  0.662363810  0.029331067
     0.295006553  0.508602120  0.090000239
     0.007579668  0.716284841  0.657930543

  ion indices of the primitive-cell ions
   primitive index   ion index
                 1           1
                 2           2
                 3           3
                 4           4
                 5           5
                 6           6
                 7           7
                 8           8
                 9           9
                10          10
                11          11
                12          12
                13          13
                14          14
                15          15
                16          16
                17          17
                18          18
                19          19
                20          20
                21          21
                22          22
                23          23
                24          24
                25          25
                26          26
                27          27
                28          28
                29          29
                30          30
                31          31
                32          32
                33          33
                34          34
                35          35

----------------------------------------------------------------------------------------

 
 
 KPOINTS: Fully automatic kpoint scheme           

Automatic generation of k-mesh.
 generate k-points for:    5    5    5
Space group operators:
 irot       det(A)        alpha          n_x          n_y          n_z        tau_x        tau_y        tau_z
    1     1.000000     0.000000     1.000000     0.000000     0.000000     0.000000     0.000000     0.000000
 
 Subroutine IBZKPT returns following result:
 ===========================================
 
 Found     63 irreducible k-points:
 
 Following reciprocal coordinates:
            Coordinates               Weight
  0.000000  0.000000  0.000000      1.000000
  0.200000 -0.000000  0.000000      2.000000
  0.400000 -0.000000 -0.000000      2.000000
  0.000000  0.200000 -0.000000      2.000000
  0.200000  0.200000 -0.000000      2.000000
  0.400000  0.200000 -0.000000      2.000000
 -0.400000  0.200000  0.000000      2.000000
 -0.200000  0.200000 -0.000000      2.000000
  0.000000  0.400000  0.000000      2.000000
  0.200000  0.400000  0.000000      2.000000
  0.400000  0.400000 -0.000000      2.000000
 -0.400000  0.400000 -0.000000      2.000000
 -0.200000  0.400000  0.000000      2.000000
  0.000000 -0.000000  0.200000      2.000000
  0.200000 -0.000000  0.200000      2.000000
  0.400000  0.000000  0.200000      2.000000
 -0.400000  0.000000  0.200000      2.000000
 -0.200000  0.000000  0.200000      2.000000
  0.000000  0.200000  0.200000      2.000000
  0.200000  0.200000  0.200000      2.000000
  0.400000  0.200000  0.200000      2.000000
 -0.400000  0.200000  0.200000      2.000000
 -0.200000  0.200000  0.200000      2.000000
  0.000000  0.400000  0.200000      2.000000
  0.200000  0.400000  0.200000      2.000000
  0.400000  0.400000  0.200000      2.000000
 -0.400000  0.400000  0.200000      2.000000
 -0.200000  0.400000  0.200000      2.000000
  0.000000 -0.400000  0.200000      2.000000
  0.200000 -0.400000  0.200000      2.000000
  0.400000 -0.400000  0.200000      2.000000
 -0.400000 -0.400000  0.200000      2.000000
 -0.200000 -0.400000  0.200000      2.000000
 -0.000000 -0.200000  0.200000      2.000000
  0.200000 -0.200000  0.200000      2.000000
  0.400000 -0.200000  0.200000      2.000000
 -0.400000 -0.200000  0.200000      2.000000
 -0.200000 -0.200000  0.200000      2.000000
  0.000000  0.000000  0.400000      2.000000
  0.200000 -0.000000  0.400000      2.000000
  0.400000  0.000000  0.400000      2.000000
 -0.400000 -0.000000  0.400000      2.000000
 -0.200000 -0.000000  0.400000      2.000000
 -0.000000  0.200000  0.400000      2.000000
  0.200000  0.200000  0.400000      2.000000
  0.400000  0.200000  0.400000      2.000000
 -0.400000  0.200000  0.400000      2.000000
 -0.200000  0.200000  0.400000      2.000000
  0.000000  0.400000  0.400000      2.000000
  0.200000  0.400000  0.400000      2.000000
  0.400000  0.400000  0.400000      2.000000
 -0.400000  0.400000  0.400000      2.000000
 -0.200000  0.400000  0.400000      2.000000
  0.000000 -0.400000  0.400000      2.000000
  0.200000 -0.400000  0.400000      2.000000
  0.400000 -0.400000  0.400000      2.000000
 -0.400000 -0.400000  0.400000      2.000000
 -0.200000 -0.400000  0.400000      2.000000
 -0.000000 -0.200000  0.400000      2.000000
  0.200000 -0.200000  0.400000      2.000000
  0.400000 -0.200000  0.400000      2.000000
 -0.400000 -0.200000  0.400000      2.000000
 -0.200000 -0.200000  0.400000      2.000000
 
 Following cartesian coordinates:
            Coordinates               Weight
  0.000000  0.000000  0.000000      1.000000
  0.027363 -0.009953 -0.001653      2.000000
  0.054727 -0.019906 -0.003305      2.000000
 -0.000178  0.029594 -0.000592      2.000000
  0.027185  0.019641 -0.002244      2.000000
  0.054549  0.009688 -0.003897      2.000000
 -0.054904  0.049501  0.002714      2.000000
 -0.027541  0.039547  0.001061      2.000000
 -0.000356  0.059189 -0.001183      2.000000
  0.027008  0.049235 -0.002836      2.000000
  0.054371  0.039282 -0.004488      2.000000
 -0.055082  0.079095  0.002122      2.000000
 -0.027719  0.069142  0.000470      2.000000
 -0.015113 -0.010571  0.023444      2.000000
  0.012251 -0.020524  0.021791      2.000000
  0.039614 -0.030477  0.020139      2.000000
 -0.069839  0.009336  0.026749      2.000000
 -0.042476 -0.000617  0.025097      2.000000
 -0.015290  0.019024  0.022852      2.000000
  0.012073  0.009070  0.021200      2.000000
  0.039436 -0.000883  0.019547      2.000000
 -0.070017  0.038930  0.026158      2.000000
 -0.042654  0.028977  0.024505      2.000000
 -0.015468  0.048618  0.022261      2.000000
  0.011895  0.038665  0.020608      2.000000
  0.039258  0.028712  0.018956      2.000000
 -0.070195  0.068524  0.025566      2.000000
 -0.042832  0.058571  0.023914      2.000000
 -0.014757 -0.069759  0.024627      2.000000
  0.012606 -0.079712  0.022974      2.000000
  0.039969 -0.089666  0.021322      2.000000
 -0.069484 -0.049853  0.027932      2.000000
 -0.042120 -0.059806  0.026280      2.000000
 -0.014935 -0.040165  0.024035      2.000000
  0.012428 -0.050118  0.022383      2.000000
  0.039792 -0.060071  0.020730      2.000000
 -0.069661 -0.020259  0.027341      2.000000
 -0.042298 -0.030212  0.025688      2.000000
 -0.030225 -0.021141  0.046888      2.000000
 -0.002862 -0.031094  0.045235      2.000000
  0.024501 -0.041048  0.043583      2.000000
 -0.084952 -0.001235  0.050193      2.000000
 -0.057589 -0.011188  0.048541      2.000000
 -0.030403  0.008453  0.046296      2.000000
 -0.003040 -0.001500  0.044644      2.000000
  0.024323 -0.011453  0.042991      2.000000
 -0.085130  0.028359  0.049602      2.000000
 -0.057766  0.018406  0.047949      2.000000
 -0.030581  0.038047  0.045705      2.000000
 -0.003218  0.028094  0.044052      2.000000
  0.024146  0.018141  0.042400      2.000000
 -0.085308  0.057954  0.049010      2.000000
 -0.057944  0.048001  0.047358      2.000000
 -0.029870 -0.080330  0.048071      2.000000
 -0.002507 -0.090283  0.046418      2.000000
  0.024857 -0.100236  0.044766      2.000000
 -0.084596 -0.060424  0.051376      2.000000
 -0.057233 -0.070377  0.049724      2.000000
 -0.030048 -0.050736  0.047479      2.000000
 -0.002684 -0.060689  0.045827      2.000000
  0.024679 -0.070642  0.044174      2.000000
 -0.084774 -0.030829  0.050785      2.000000
 -0.057411 -0.040782  0.049132      2.000000
 


--------------------------------------------------------------------------------------------------------




 Dimension of arrays:
   k-points           NKPTS =     63   k-points in BZ     NKDIM =     63   number of bands    NBANDS=    164
   number of dos      NEDOS =    301   number of ions     NIONS =     35
   non local maximal  LDIM  =      6   non local SUM 2l+1 LMDIM =     18
   total plane-waves  NPLWV = 343000
   max r-space proj   IRMAX =  12754   max aug-charges    IRDMAX=  36896
   dimension x,y,z NGX =    70 NGY =   70 NGZ =   70
   dimension x,y,z NGXF=   140 NGYF=  140 NGZF=  140
   support grid    NGXF=   140 NGYF=  140 NGZF=  140
   ions per type =               1   4   6  24
   NGX,Y,Z   is equivalent  to a cutoff of  12.71, 13.09, 12.89 a.u.
   NGXF,Y,Z  is equivalent  to a cutoff of  25.42, 26.17, 25.77 a.u.

 SYSTEM =  unknown system                          
 POSCAR =  Mn4 S6 O24                              

 Startparameter for this run:
   NWRITE =      2    write-flag & timer
   PREC   = accura    normal or accurate (medium, high low for compatibility)
   ISTART =      0    job   : 0-new  1-cont  2-samecut
   ICHARG =      1    charge: 1-file 2-atom 10-const
   ISPIN  =      2    spin polarized calculation?
   LNONCOLLINEAR =      F non collinear calculations
   LSORBIT =      F    spin-orbit coupling
   INIWAV =      1    electr: 0-lowe 1-rand  2-diag
   LASPH  =      T    aspherical Exc in radial PAW
   METAGGA=      F    non-selfconsistent MetaGGA calc.

 Electronic Relaxation 1
   ENCUT  =  520.0 eV  38.22 Ry    6.18 a.u.  17.02 16.53 16.79*2*pi/ulx,y,z
   ENINI  =  520.0     initial cutoff
   ENAUG  =  605.4 eV  augmentation charge cutoff
   NELM   =    150;   NELMIN=  6; NELMDL= -5     # of ELM steps 
   EDIFF  = 0.1E-04   stopping-criterion for ELM
   LREAL  =      T    real-space projection
   NLSPLINE    = F    spline interpolate recip. space projectors
   LCOMPAT=      F    compatible to vasp.4.4
   GGA_COMPAT  = T    GGA compatible to vasp.4.4-vasp.4.6
   LMAXPAW     = -100 max onsite density
   LMAXMIX     =    2 max onsite mixed and CHGCAR
   VOSKOWN=      0    Vosko Wilk Nusair interpolation
   ROPT   =   -0.00025  -0.00025  -0.00025  -0.00025
 Ionic relaxation
   EDIFFG = -.3E-01   stopping-criterion for IOM
   NSW    =    199    number of steps for IOM
   NBLOCK =      1;   KBLOCK =    199    inner block; outer block 
   IBRION =      2    ionic relax: 0-MD 1-quasi-New 2-CG
   NFREE  =      1    steps in history (QN), initial steepest desc. (CG)
   ISIF   =      3    stress and relaxation
   IWAVPR =     11    prediction:  0-non 1-charg 2-wave 3-comb
   ISYM   =      0    0-nonsym 1-usesym 2-fastsym
   LCORR  =      T    Harris-Foulkes like correction to forces

   POTIM  = 0.5000    time-step for ionic-motion
   TEIN   =    0.0    initial temperature
   TEBEG  =    0.0;   TEEND  =   0.0 temperature during run
   SMASS  =  -3.00    Nose mass-parameter (am)
   estimated Nose-frequenzy (Omega)   =  0.10E-29 period in steps = 0.13E+47 mass=  -0.192E-26a.u.
   SCALEE = 1.0000    scale energy and forces
   NPACO  =    256;   APACO  = 16.0  distance and # of slots for P.C.
   PSTRESS=    0.0 pullay stress

  Mass of Ions in am
   POMASS =  40.08 54.94 32.07 16.00
  Ionic Valenz
   ZVAL   =  10.00 13.00  6.00  6.00
  Atomic Wigner-Seitz radii
   RWIGS  =  -1.00 -1.00 -1.00 -1.00
  virtual crystal weights 
   VCA    =   1.00  1.00  1.00  1.00
   NELECT =     242.0000    total number of electrons
   NUPDOWN=      -1.0000    fix difference up-down

 DOS related values:
   EMIN   =  10.00;   EMAX   =-10.00  energy-range for DOS
   EFERMI =   0.00
   ISMEAR =     0;   SIGMA  =   0.05  broadening in eV -4-tet -1-fermi 0-gaus

 Electronic relaxation 2 (details)
   IALGO  =     58    algorithm
   LDIAG  =      T    sub-space diagonalisation (order eigenvalues)
   LSUBROT=      F    optimize rotation matrix (better conditioning)
   TURBO    =      0    0=normal 1=particle mesh
   IRESTART =      0    0=no restart 2=restart with 2 vectors
   NREBOOT  =      0    no. of reboots
   NMIN     =      0    reboot dimension
   EREF     =   0.00    reference energy to select bands
   IMIX   =      4    mixing-type and parameters
     AMIX     =   0.40;   BMIX     =  1.00
     AMIX_MAG =   1.60;   BMIX_MAG =  1.00
     AMIN     =   0.10
     WC   =   100.;   INIMIX=   1;  MIXPRE=   1;  MAXMIX= -45

 Intra band minimization:
   WEIMIN = 0.0010     energy-eigenvalue tresh-hold
   EBREAK =  0.15E-07  absolut break condition
   DEPER  =   0.30     relativ break condition  

   TIME   =   0.40     timestep for ELM

  volume/ion in A,a.u.               =      12.74        85.97
  Fermi-wavevector in a.u.,A,eV,Ry     =   1.335364  2.523472 24.261858  1.783196
  Thomas-Fermi vector in A             =   2.464074
 
 Write flags
   LWAVE        =      F    write WAVECAR
   LDOWNSAMPLE  =      F    k-point downsampling of WAVECAR
   LCHARG       =      T    write CHGCAR
   LVTOT        =      F    write LOCPOT, total local potential
   LVHAR        =      F    write LOCPOT, Hartree potential only
   LELF         =      F    write electronic localiz. function (ELF)
   LORBIT       =     11    0 simple, 1 ext, 2 COOP (PROOUT), +10 PAW based schemes


 Dipole corrections
   LMONO  =      F    monopole corrections only (constant potential shift)
   LDIPOL =      F    correct potential (dipole corrections)
   IDIPOL =      0    1-x, 2-y, 3-z, 4-all directions 
   EPSILON=  1.0000000 bulk dielectric constant

 Exchange correlation treatment:
   GGA     =    --    GGA type
   LEXCH   =     8    internal setting for exchange type
   VOSKOWN=      0    Vosko Wilk Nusair interpolation
   LHFCALC =     F    Hartree Fock is set to
   LHFONE  =     F    Hartree Fock one center treatment
   AEXX    =    0.0000 exact exchange contribution

 Linear response parameters
   LEPSILON=     F    determine dielectric tensor
   LRPA    =     F    only Hartree local field effects (RPA)
   LNABLA  =     F    use nabla operator in PAW spheres
   LVEL    =     F    velocity operator in full k-point grid
   LINTERFAST=   F  fast interpolation
   KINTER  =     0    interpolate to denser k-point grid
   CSHIFT  =0.1000    complex shift for real part using Kramers Kronig
   OMEGAMAX=  -1.0    maximum frequency
   DEG_THRESHOLD= 0.2000000E-02 threshold for treating states as degnerate
   RTIME   =   -0.100 relaxation time in fs
  (WPLASMAI=    0.000 imaginary part of plasma frequency in eV, 0.658/RTIME)
   DFIELD  = 0.0000000 0.0000000 0.0000000 field for delta impulse in time
 
 Orbital magnetization related:
   ORBITALMAG=     F  switch on orbital magnetization
   LCHIMAG   =     F  perturbation theory with respect to B field
   DQ        =  0.001000  dq finite difference perturbation B field
   LLRAUG    =     F  two centre corrections for induced B field



--------------------------------------------------------------------------------------------------------


 conjugate gradient relaxation of ions
 charge density and potential will be updated during run
 spin polarized calculation
 Conjugate gradient for all bands (Freysoldt, et al. PRB 79, 241103 (2009))
 preconditioned conjugated gradient                                        
 perform sub-space diagonalisation
    before iterative eigenvector-optimisation
 modified Broyden-mixing scheme, WC =      100.0
 initial mixing is a Kerker type mixing with AMIX =  0.4000 and BMIX =      1.0000
 Hartree-type preconditioning will be used
 using additional bands           43
 real space projection scheme for non local part
 use partial core corrections
 no Harris-corrections to forces 
 use gradient corrections 
 use of overlap-Matrix (Vanderbilt PP)
 Gauss-broadening in eV      SIGMA  =   0.05


--------------------------------------------------------------------------------------------------------


  energy-cutoff  :      520.00
  volume of cell :      445.90
      direct lattice vectors                 reciprocal lattice vectors
     7.664592626  0.146116988  5.006710384     0.136816362 -0.049765892 -0.008262917
     2.795938970  6.872814971  4.901226137    -0.000888987  0.147971540 -0.002957517
     0.610825759  0.183704486  9.007562111    -0.075563484 -0.052853210  0.117219896

  length of vectors
     9.156117036  8.892405636  9.030117975     0.145820563  0.148003763  0.149143575


 
 k-points in units of 2pi/SCALE and weight: Fully automatic kpoint scheme           
   0.00000000  0.00000000  0.00000000       0.008
   0.02736327 -0.00995318 -0.00165258       0.016
   0.05472654 -0.01990636 -0.00330517       0.016
  -0.00017780  0.02959431 -0.00059150       0.016
   0.02718547  0.01964113 -0.00224409       0.016
   0.05454875  0.00968795 -0.00389667       0.016
  -0.05490434  0.04950066  0.00271366       0.016
  -0.02754107  0.03954749  0.00106108       0.016
  -0.00035559  0.05918862 -0.00118301       0.016
   0.02700768  0.04923544 -0.00283559       0.016
   0.05437095  0.03928226 -0.00448817       0.016
  -0.05508214  0.07909497  0.00212216       0.016
  -0.02771887  0.06914179  0.00046958       0.016
  -0.01511270 -0.01057064  0.02344398       0.016
   0.01225058 -0.02052382  0.02179140       0.016
   0.03961385 -0.03047700  0.02013881       0.016
  -0.06983924  0.00933572  0.02674915       0.016
  -0.04247597 -0.00061746  0.02509656       0.016
  -0.01529049  0.01902367  0.02285248       0.016
   0.01207278  0.00907049  0.02119989       0.016
   0.03943605 -0.00088269  0.01954731       0.016
  -0.07001704  0.03893002  0.02615764       0.016
  -0.04265377  0.02897684  0.02450506       0.016
  -0.01546829  0.04861797  0.02226097       0.016
   0.01189498  0.03866480  0.02060839       0.016
   0.03925825  0.02871162  0.01895581       0.016
  -0.07019484  0.06852433  0.02556614       0.016
  -0.04283156  0.05857115  0.02391356       0.016
  -0.01475710 -0.06975926  0.02462699       0.016
   0.01260617 -0.07971244  0.02297440       0.016
   0.03996944 -0.08966561  0.02132182       0.016
  -0.06948365 -0.04985290  0.02793215       0.016
  -0.04212037 -0.05980608  0.02627957       0.016
  -0.01493490 -0.04016495  0.02403548       0.016
   0.01242837 -0.05011813  0.02238290       0.016
   0.03979165 -0.06007131  0.02073032       0.016
  -0.06966144 -0.02025859  0.02734065       0.016
  -0.04229817 -0.03021177  0.02568807       0.016
  -0.03022539 -0.02114128  0.04688796       0.016
  -0.00286212 -0.03109446  0.04523537       0.016
   0.02450115 -0.04104764  0.04358279       0.016
  -0.08495194 -0.00123493  0.05019313       0.016
  -0.05758867 -0.01118811  0.04854054       0.016
  -0.03040319  0.00845302  0.04629645       0.016
  -0.00303992 -0.00150015  0.04464387       0.016
   0.02432335 -0.01145333  0.04299129       0.016
  -0.08512974  0.02835938  0.04960162       0.016
  -0.05776646  0.01840620  0.04794904       0.016
  -0.03058099  0.03804733  0.04570495       0.016
  -0.00321772  0.02809415  0.04405237       0.016
   0.02414556  0.01814098  0.04239978       0.016
  -0.08530753  0.05795369  0.04901012       0.016
  -0.05794426  0.04800051  0.04735753       0.016
  -0.02986980 -0.08032990  0.04807097       0.016
  -0.00250653 -0.09028308  0.04641838       0.016
   0.02485675 -0.10023626  0.04476580       0.016
  -0.08459634 -0.06042354  0.05137613       0.016
  -0.05723307 -0.07037672  0.04972355       0.016
  -0.03004760 -0.05073559  0.04747946       0.016
  -0.00268432 -0.06068877  0.04582688       0.016
   0.02467895 -0.07064195  0.04417429       0.016
  -0.08477414 -0.03082923  0.05078463       0.016
  -0.05741087 -0.04078241  0.04913205       0.016
 
 k-points in reciprocal lattice and weights: Fully automatic kpoint scheme           
   0.00000000  0.00000000  0.00000000       0.008
   0.20000000 -0.00000000  0.00000000       0.016
   0.40000000 -0.00000000 -0.00000000       0.016
   0.00000000  0.20000000 -0.00000000       0.016
   0.20000000  0.20000000 -0.00000000       0.016
   0.40000000  0.20000000 -0.00000000       0.016
  -0.40000000  0.20000000  0.00000000       0.016
  -0.20000000  0.20000000 -0.00000000       0.016
   0.00000000  0.40000000  0.00000000       0.016
   0.20000000  0.40000000  0.00000000       0.016
   0.40000000  0.40000000 -0.00000000       0.016
  -0.40000000  0.40000000 -0.00000000       0.016
  -0.20000000  0.40000000  0.00000000       0.016
   0.00000000 -0.00000000  0.20000000       0.016
   0.20000000 -0.00000000  0.20000000       0.016
   0.40000000  0.00000000  0.20000000       0.016
  -0.40000000  0.00000000  0.20000000       0.016
  -0.20000000  0.00000000  0.20000000       0.016
   0.00000000  0.20000000  0.20000000       0.016
   0.20000000  0.20000000  0.20000000       0.016
   0.40000000  0.20000000  0.20000000       0.016
  -0.40000000  0.20000000  0.20000000       0.016
  -0.20000000  0.20000000  0.20000000       0.016
   0.00000000  0.40000000  0.20000000       0.016
   0.20000000  0.40000000  0.20000000       0.016
   0.40000000  0.40000000  0.20000000       0.016
  -0.40000000  0.40000000  0.20000000       0.016
  -0.20000000  0.40000000  0.20000000       0.016
   0.00000000 -0.40000000  0.20000000       0.016
   0.20000000 -0.40000000  0.20000000       0.016
   0.40000000 -0.40000000  0.20000000       0.016
  -0.40000000 -0.40000000  0.20000000       0.016
  -0.20000000 -0.40000000  0.20000000       0.016
  -0.00000000 -0.20000000  0.20000000       0.016
   0.20000000 -0.20000000  0.20000000       0.016
   0.40000000 -0.20000000  0.20000000       0.016
  -0.40000000 -0.20000000  0.20000000       0.016
  -0.20000000 -0.20000000  0.20000000       0.016
   0.00000000  0.00000000  0.40000000       0.016
   0.20000000 -0.00000000  0.40000000       0.016
   0.40000000  0.00000000  0.40000000       0.016
  -0.40000000 -0.00000000  0.40000000       0.016
  -0.20000000 -0.00000000  0.40000000       0.016
  -0.00000000  0.20000000  0.40000000       0.016
   0.20000000  0.20000000  0.40000000       0.016
   0.40000000  0.20000000  0.40000000       0.016
  -0.40000000  0.20000000  0.40000000       0.016
  -0.20000000  0.20000000  0.40000000       0.016
   0.00000000  0.40000000  0.40000000       0.016
   0.20000000  0.40000000  0.40000000       0.016
   0.40000000  0.40000000  0.40000000       0.016
  -0.40000000  0.40000000  0.40000000       0.016
  -0.20000000  0.40000000  0.40000000       0.016
   0.00000000 -0.40000000  0.40000000       0.016
   0.20000000 -0.40000000  0.40000000       0.016
   0.40000000 -0.40000000  0.40000000       0.016
  -0.40000000 -0.40000000  0.40000000       0.016
  -0.20000000 -0.40000000  0.40000000       0.016
  -0.00000000 -0.20000000  0.40000000       0.016
   0.20000000 -0.20000000  0.40000000       0.016
   0.40000000 -0.20000000  0.40000000       0.016
  -0.40000000 -0.20000000  0.40000000       0.016
  -0.20000000 -0.20000000  0.40000000       0.016
 
 position of ions in fractional coordinates (direct lattice) 
   0.49892218  0.49392042  0.49918379
   0.64699943  0.64693025  0.64629487
   0.15606473  0.14786723  0.14890660
   0.83816247  0.84762983  0.84622011
   0.34807876  0.34756274  0.34776457
   0.95206911  0.24011749  0.53916118
   0.44564619  0.05674403  0.75094411
   0.54903139  0.93766566  0.24418616
   0.75078682  0.46178378  0.04276991
   0.24406320  0.53346620  0.95141425
   0.04276425  0.75515504  0.45592175
   0.37397411  0.61937456  0.74339962
   0.95310932  0.34363333  0.00964759
   0.74885281  0.36424062  0.62165161
   0.01497269  0.96623431  0.33141421
   0.64110830  0.73555990  0.36487487
   0.31230565  0.01550824  0.96510149
   0.68254941  0.97925723  0.02977286
   0.24580033  0.63032509  0.37474516
   0.04162140  0.65182497  0.98543648
   0.35289204  0.25793000  0.62982088
   0.98041276  0.02905501  0.66320852
   0.62055205  0.37581158  0.25063334
   0.98592632  0.27984851  0.33742409
   0.48034184  0.90810459  0.70114848
   0.36717849  0.94152529  0.28162991
   0.70124262  0.48573213  0.90360757
   0.29116097  0.33312415  0.96457200
   0.90833104  0.70749518  0.46880199
   0.08627168  0.28862510  0.52557885
   0.62669246  0.05586148  0.71249941
   0.51633163  0.08468334  0.29485054
   0.70304613  0.66236381  0.02933107
   0.29500655  0.50860212  0.09000024
   0.00757967  0.71628484  0.65793054
 
 position of ions in cartesian coordinates  (Angst):
   5.50992092  3.55922699  9.41520351
   7.16253813  4.65949679 12.23163139
   1.70055633  1.06642265  2.84738710
   9.31098824  6.10352722 15.97324243
   3.85206970  2.50348052  6.57872411
   8.29790929  1.88844288 10.80013228
   4.03304536  0.59305947  9.27351242
   6.97891312  6.56948351  9.54407463
   7.07171934  3.29131419  6.40753148
   3.94333225  3.87685536 12.40651521
   2.71762672  5.28004435  8.02203731
   5.05218031  4.44805656 11.60429307
   8.27186548  2.50276610  6.54306829
   7.13776710  2.72697868 11.13408024
   3.01872809  6.70381969  7.79593087
   7.19328948  5.21607304 10.10162204
   3.02656450  0.32951193 10.33284499
   7.98759264  6.83545524  8.48506926
   3.87521390  4.43686566  7.69555721
   2.74340393  4.66698314 12.27950821
   3.81064104  1.93996960  8.70415213
   8.00080528  0.46477906 11.02493988
   5.96011819  2.71959913  7.20645726
   8.54527025  2.12939394  9.34721677
   6.64890906  6.44022505 13.17139688
   5.61874760  6.57631680  8.98978366
   7.28476316  3.60680725 14.03090300
   3.75221046  2.50924039 11.77891765
   9.22645704  5.08132707 12.23810736
   1.78925254  2.09282387  6.58073833
   5.39474068  0.60638538  9.82934010
   4.37434334  0.71162313  5.65605964
   7.25840711  4.66041914  7.03054456
   3.73810000  3.55516718  4.78046912
   2.46266470  5.04486549  9.47497342
 


--------------------------------------------------------------------------------------------------------


 k-point   1 :   0.0000 0.0000 0.0000  plane waves:   11995
 k-point   2 :   0.2000-0.0000 0.0000  plane waves:   12001
 k-point   3 :   0.4000-0.0000-0.0000  plane waves:   12015
 k-point   4 :   0.0000 0.2000-0.0000  plane waves:   11997
 k-point   5 :   0.2000 0.2000-0.0000  plane waves:   12031
 k-point   6 :   0.4000 0.2000-0.0000  plane waves:   12022
 k-point   7 :  -0.4000 0.2000 0.0000  plane waves:   12017
 k-point   8 :  -0.2000 0.2000-0.0000  plane waves:   11985
 k-point   9 :   0.0000 0.4000 0.0000  plane waves:   11971
 k-point  10 :   0.2000 0.4000 0.0000  plane waves:   11999
 k-point  11 :   0.4000 0.4000-0.0000  plane waves:   12023
 k-point  12 :  -0.4000 0.4000-0.0000  plane waves:   12020
 k-point  13 :  -0.2000 0.4000 0.0000  plane waves:   11992
 k-point  14 :   0.0000-0.0000 0.2000  plane waves:   11997
 k-point  15 :   0.2000-0.0000 0.2000  plane waves:   12005
 k-point  16 :   0.4000 0.0000 0.2000  plane waves:   12006
 k-point  17 :  -0.4000 0.0000 0.2000  plane waves:   12017
 k-point  18 :  -0.2000 0.0000 0.2000  plane waves:   12017
 k-point  19 :   0.0000 0.2000 0.2000  plane waves:   11996
 k-point  20 :   0.2000 0.2000 0.2000  plane waves:   12013
 k-point  21 :   0.4000 0.2000 0.2000  plane waves:   12002
 k-point  22 :  -0.4000 0.2000 0.2000  plane waves:   12006
 k-point  23 :  -0.2000 0.2000 0.2000  plane waves:   12000
 k-point  24 :   0.0000 0.4000 0.2000  plane waves:   11984
 k-point  25 :   0.2000 0.4000 0.2000  plane waves:   11977
 k-point  26 :   0.4000 0.4000 0.2000  plane waves:   11997
 k-point  27 :  -0.4000 0.4000 0.2000  plane waves:   12019
 k-point  28 :  -0.2000 0.4000 0.2000  plane waves:   12010
 k-point  29 :   0.0000-0.4000 0.2000  plane waves:   11997
 k-point  30 :   0.2000-0.4000 0.2000  plane waves:   11975
 k-point  31 :   0.4000-0.4000 0.2000  plane waves:   11999
 k-point  32 :  -0.4000-0.4000 0.2000  plane waves:   12032
 k-point  33 :  -0.2000-0.4000 0.2000  plane waves:   12005
 k-point  34 :  -0.0000-0.2000 0.2000  plane waves:   12009
 k-point  35 :   0.2000-0.2000 0.2000  plane waves:   12004
 k-point  36 :   0.4000-0.2000 0.2000  plane waves:   11995
 k-point  37 :  -0.4000-0.2000 0.2000  plane waves:   12025
 k-point  38 :  -0.2000-0.2000 0.2000  plane waves:   12018
 k-point  39 :   0.0000 0.0000 0.4000  plane waves:   11997
 k-point  40 :   0.2000-0.0000 0.4000  plane waves:   12032
 k-point  41 :   0.4000 0.0000 0.4000  plane waves:   12018
 k-point  42 :  -0.4000-0.0000 0.4000  plane waves:   12027
 k-point  43 :  -0.2000-0.0000 0.4000  plane waves:   12011
 k-point  44 :  -0.0000 0.2000 0.4000  plane waves:   12004
 k-point  45 :   0.2000 0.2000 0.4000  plane waves:   12010
 k-point  46 :   0.4000 0.2000 0.4000  plane waves:   11997
 k-point  47 :  -0.4000 0.2000 0.4000  plane waves:   11979
 k-point  48 :  -0.2000 0.2000 0.4000  plane waves:   12009
 k-point  49 :   0.0000 0.4000 0.4000  plane waves:   11995
 k-point  50 :   0.2000 0.4000 0.4000  plane waves:   11996
 k-point  51 :   0.4000 0.4000 0.4000  plane waves:   11993
 k-point  52 :  -0.4000 0.4000 0.4000  plane waves:   12007
 k-point  53 :  -0.2000 0.4000 0.4000  plane waves:   11990
 k-point  54 :   0.0000-0.4000 0.4000  plane waves:   11978
 k-point  55 :   0.2000-0.4000 0.4000  plane waves:   11994
 k-point  56 :   0.4000-0.4000 0.4000  plane waves:   11988
 k-point  57 :  -0.4000-0.4000 0.4000  plane waves:   12026
 k-point  58 :  -0.2000-0.4000 0.4000  plane waves:   12010
 k-point  59 :  -0.0000-0.2000 0.4000  plane waves:   12010
 k-point  60 :   0.2000-0.2000 0.4000  plane waves:   12025
 k-point  61 :   0.4000-0.2000 0.4000  plane waves:   12004
 k-point  62 :  -0.4000-0.2000 0.4000  plane waves:   12030
 k-point  63 :  -0.2000-0.2000 0.4000  plane waves:   12008

 maximum and minimum number of plane-waves per node :       791      705

 maximum number of plane-waves:     12032
 maximum index in each direction: 
   IXMAX=   17   IYMAX=   16   IZMAX=   16
   IXMIN=  -17   IYMIN=  -16   IZMIN=  -17


 real space projection operators:
  total allocation   :      16103.14 KBytes
  max/ min on nodes  :       1176.98        888.66


 parallel 3D FFT for wavefunctions:
    minimum data exchange during FFTs selected (reduces bandwidth)
 parallel 3D FFT for charge:
    minimum data exchange during FFTs selected (reduces bandwidth)


 total amount of memory used by VASP MPI-rank0   257254. kBytes
=======================================================================

   base      :      30000. kBytes
   nonlr-proj:       9027. kBytes
   fftplans  :       2612. kBytes
   grid      :      10205. kBytes
   one-center:         93. kBytes
   wavefun   :     205317. kBytes
 
     INWAV:  cpu time    0.0000: real time    0.0000
 Broyden mixing: mesh for mixing (old mesh)
   NGX = 35   NGY = 33   NGZ = 33
  (NGX  =140   NGY  =140   NGZ  =140)
  gives a total of  38115 points

 initial charge density was supplied:
 number of electron     242.0000006 magnetization      18.0000002
 keeping initial charge density in first step


--------------------------------------------------------------------------------------------------------


 Maximum index for non-local projection operator          841
 Maximum index for augmentation-charges         1613 (set IRDMAX)


--------------------------------------------------------------------------------------------------------


 First call to EWALD:  gamma=   0.232
 Maximum number of real-space cells 3x 3x 3
 Maximum number of reciprocal cells 3x 3x 3

    FEWALD:  cpu time    0.0019: real time    0.0021


--------------------------------------- Iteration      1(   1)  ---------------------------------------


    POTLOK:  cpu time    0.1498: real time    0.1499
    SETDIJ:  cpu time    0.9437: real time    0.9438
    TRIAL :  cpu time   62.8730: real time   62.8870
    CORREC:  cpu time    0.0134: real time    0.0134
    --------------------------------------------
      LOOP:  cpu time   64.0722: real time   64.0875

 eigenvalue-minimisations  : 43856
 total energy-change (2. order) : 0.2387393E+04  (-0.1400732E+05)
 number of electron     242.0000006 magnetization      18.0000002
 augmentation part      242.0000006 magnetization      18.0000002

 Free energy of the ion-electron system (eV)
  ---------------------------------------------------
  alpha Z        PSCENC =       653.83955535
  Ewald energy   TEWEN  =    -12151.90619666
  -Hartree energ DENC   =     -8199.61748281
  -exchange      EXHF   =         0.00000000
  -V(xc)+E(xc)   XCENC  =      1290.71243891
  PAW double counting   =     45751.85777853   -46108.40892676
  entropy T*S    EENTRO =        -0.00934162
  eigenvalues    EBANDS =         6.27392773
  atomic energy  EATOM  =     21144.65133882
  ---------------------------------------------------
  free energy    TOTEN  =      2387.39309148 eV

  energy without entropy =     2387.40243311  energy(sigma->0) =     2387.39776230


--------------------------------------------------------------------------------------------------------




--------------------------------------- Iteration      1(   2)  ---------------------------------------


    TRIAL :  cpu time   62.5356: real time   62.5989
    CORREC:  cpu time    0.0132: real time    0.0132
    --------------------------------------------
      LOOP:  cpu time   62.5546: real time   62.6599

 eigenvalue-minimisations  : 45288
 total energy-change (2. order) :-0.2545665E+04  (-0.2365781E+04)
 number of electron     242.0000006 magnetization      18.0000002
 augmentation part      242.0000006 magnetization      18.0000002

 Free energy of the ion-electron system (eV)
  ---------------------------------------------------
  alpha Z        PSCENC =       653.83955535
  Ewald energy   TEWEN  =    -12151.90619666
  -Hartree energ DENC   =     -8199.61748281
  -exchange      EXHF   =         0.00000000
  -V(xc)+E(xc)   XCENC  =      1290.71243891
  PAW double counting   =     45751.85777853   -46108.40892676
  entropy T*S    EENTRO =        -0.00789768
  eigenvalues    EBANDS =     -2539.39202974
  atomic energy  EATOM  =     21144.65133882
  ---------------------------------------------------
  free energy    TOTEN  =      -158.27142203 eV

  energy without entropy =     -158.26352436  energy(sigma->0) =     -158.26747319


--------------------------------------------------------------------------------------------------------




--------------------------------------- Iteration      1(   3)  ---------------------------------------


    TRIAL :  cpu time   64.8943: real time   64.9075
    CORREC:  cpu time    0.0131: real time    0.0131
    --------------------------------------------
      LOOP:  cpu time   64.9101: real time   64.9585

 eigenvalue-minimisations  : 48016
 total energy-change (2. order) :-0.2657924E+03  (-0.2607888E+03)
 number of electron     242.0000006 magnetization      18.0000002
 augmentation part      242.0000006 magnetization      18.0000002

 Free energy of the ion-electron system (eV)
  ---------------------------------------------------
  alpha Z        PSCENC =       653.83955535
  Ewald energy   TEWEN  =    -12151.90619666
  -Hartree energ DENC   =     -8199.61748281
  -exchange      EXHF   =         0.00000000
  -V(xc)+E(xc)   XCENC  =      1290.71243891
  PAW double counting   =     45751.85777853   -46108.40892676
  entropy T*S    EENTRO =        -0.00117024
  eigenvalues    EBANDS =     -2805.19118153
  atomic energy  EATOM  =     21144.65133882
  ---------------------------------------------------
  free energy    TOTEN  =      -424.06384639 eV

  energy without entropy =     -424.06267615  energy(sigma->0) =     -424.06326127


--------------------------------------------------------------------------------------------------------




--------------------------------------- Iteration      1(   4)  ---------------------------------------


    TRIAL :  cpu time   69.1566: real time   69.1688
    CORREC:  cpu time    0.0130: real time    0.0130
    --------------------------------------------
      LOOP:  cpu time   69.1709: real time   69.2230

 eigenvalue-minimisations  : 52976
 total energy-change (2. order) :-0.8218707E+01  (-0.8128097E+01)
 number of electron     242.0000006 magnetization      18.0000002
 augmentation part      242.0000006 magnetization      18.0000002

 Free energy of the ion-electron system (eV)
  ---------------------------------------------------
  alpha Z        PSCENC =       653.83955535
  Ewald energy   TEWEN  =    -12151.90619666
  -Hartree energ DENC   =     -8199.61748281
  -exchange      EXHF   =         0.00000000
  -V(xc)+E(xc)   XCENC  =      1290.71243891
  PAW double counting   =     45751.85777853   -46108.40892676
  entropy T*S    EENTRO =        -0.00111714
  eigenvalues    EBANDS =     -2813.40994159
  atomic energy  EATOM  =     21144.65133882
  ---------------------------------------------------
  free energy    TOTEN  =      -432.28255335 eV

  energy without entropy =     -432.28143620  energy(sigma->0) =     -432.28199477


--------------------------------------------------------------------------------------------------------




--------------------------------------- Iteration      1(   5)  ---------------------------------------


    TRIAL :  cpu time   79.7776: real time   79.7961
    CORREC:  cpu time    0.0127: real time    0.0127
    CHARGE:  cpu time    9.0405: real time    9.0424
    --------------------------------------------
      LOOP:  cpu time   88.8316: real time   88.8706

 eigenvalue-minimisations  : 65440
 total energy-change (2. order) :-0.4106450E+00  (-0.4097101E+00)
 number of electron     242.0000006 magnetization      18.0000002
 augmentation part       42.2229272 magnetization      11.8541274

 Free energy of the ion-electron system (eV)
  ---------------------------------------------------
  alpha Z        PSCENC =       653.83955535
  Ewald energy   TEWEN  =    -12151.90619666
  -Hartree energ DENC   =     -8199.61748281
  -exchange      EXHF   =         0.00000000
  -V(xc)+E(xc)   XCENC  =      1290.71243891
  PAW double counting   =     45751.85777853   -46108.40892676
  entropy T*S    EENTRO =        -0.00112136
  eigenvalues    EBANDS =     -2813.82058236
  atomic energy  EATOM  =     21144.65133882
  ---------------------------------------------------
  free energy    TOTEN  =      -432.69319834 eV

  energy without entropy =     -432.69207697  energy(sigma->0) =     -432.69263766


--------------------------------------------------------------------------------------------------------




--------------------------------------- Iteration      1(   6)  ---------------------------------------


    POTLOK:  cpu time    0.1529: real time    0.1532
    SETDIJ:  cpu time    0.9440: real time    0.9442
    TRIAL :  cpu time   49.8978: real time   49.9093
    CORREC:  cpu time   23.8260: real time   23.8728
    CHARGE:  cpu time    8.9891: real time    8.9910
    --------------------------------------------
      LOOP:  cpu time   83.8124: real time   83.8948

 eigenvalue-minimisations  :     0
 total energy-change (2. order) : 0.8177350E+02  (-0.3035094E+01)
 number of electron     242.0000006 magnetization      18.0000002
 augmentation part       42.9810216 magnetization      12.0096979

 Free energy of the ion-electron system (eV)
  ---------------------------------------------------
  alpha Z        PSCENC =       653.83955535
  Ewald energy   TEWEN  =    -12151.90619666
  -Hartree energ DENC   =     -8053.13098470
  -exchange      EXHF   =         0.00000000
  -V(xc)+E(xc)   XCENC  =      1312.20688139
  PAW double counting   =     44809.24695458   -45157.75088101
  entropy T*S    EENTRO =        -0.00000000
  eigenvalues    EBANDS =     -2908.07524021
  atomic energy  EATOM  =     21144.65133882
  ---------------------------------------------------
  free energy    TOTEN  =      -350.91969381 eV

  energy without entropy =     -350.91969381  energy(sigma->0) =     -350.91969381


--------------------------------------------------------------------------------------------------------




--------------------------------------- Iteration      1(   7)  ---------------------------------------


    POTLOK:  cpu time    0.1514: real time    0.1514
    SETDIJ:  cpu time    0.9467: real time    0.9471
    TRIAL :  cpu time   49.7129: real time   49.7242
    CORREC:  cpu time   23.9043: real time   23.9087
    CHARGE:  cpu time    8.9881: real time    8.9893
    --------------------------------------------
      LOOP:  cpu time   83.7087: real time   83.7496

 eigenvalue-minimisations  :     0
 total energy-change (2. order) :-0.2580902E+01  (-0.5753593E+00)
 number of electron     242.0000006 magnetization      18.0000002
 augmentation part       43.3178999 magnetization      12.0874516

 Free energy of the ion-electron system (eV)
  ---------------------------------------------------
  alpha Z        PSCENC =       653.83955535
  Ewald energy   TEWEN  =    -12151.90619666
  -Hartree energ DENC   =     -8158.86202389
  -exchange      EXHF   =         0.00000000
  -V(xc)+E(xc)   XCENC  =      1320.91822615
  PAW double counting   =     45088.66826105   -45443.21688138
  entropy T*S    EENTRO =        -0.00000000
  eigenvalues    EBANDS =     -2807.59287536
  atomic energy  EATOM  =     21144.65133882
  ---------------------------------------------------
  free energy    TOTEN  =      -353.50059591 eV

  energy without entropy =     -353.50059591  energy(sigma->0) =     -353.50059591


--------------------------------------------------------------------------------------------------------




--------------------------------------- Iteration      1(   8)  ---------------------------------------


    POTLOK:  cpu time    0.1486: real time    0.1486
    SETDIJ:  cpu time    0.9417: real time    0.9418
    TRIAL :  cpu time   49.4808: real time   49.4896
    CORREC:  cpu time   24.0312: real time   24.0350
    CHARGE:  cpu time    8.9810: real time    8.9819
    --------------------------------------------
      LOOP:  cpu time   83.5858: real time   83.6174

 eigenvalue-minimisations  :     0
 total energy-change (2. order) :-0.5746801E+00  (-0.1900932E+00)
 number of electron     242.0000006 magnetization      18.0000002
 augmentation part       43.4557276 magnetization      12.1429001

 Free energy of the ion-electron system (eV)
  ---------------------------------------------------
  alpha Z        PSCENC =       653.83955535
  Ewald energy   TEWEN  =    -12151.90619666
  -Hartree energ DENC   =     -8203.78720696
  -exchange      EXHF   =         0.00000000
  -V(xc)+E(xc)   XCENC  =      1324.50750173
  PAW double counting   =     45492.93843895   -45848.56476086
  entropy T*S    EENTRO =        -0.00000000
  eigenvalues    EBANDS =     -2765.75394641
  atomic energy  EATOM  =     21144.65133882
  ---------------------------------------------------
  free energy    TOTEN  =      -354.07527603 eV

  energy without entropy =     -354.07527603  energy(sigma->0) =     -354.07527603


--------------------------------------------------------------------------------------------------------




--------------------------------------- Iteration      1(   9)  ---------------------------------------


    POTLOK:  cpu time    0.1523: real time    0.1524
    SETDIJ:  cpu time    0.9463: real time    0.9464
    TRIAL :  cpu time   46.7781: real time   46.7873
    CORREC:  cpu time   23.1004: real time   23.1088
    CHARGE:  cpu time    9.0458: real time    9.0471
    --------------------------------------------
      LOOP:  cpu time   80.0286: real time   80.0660

 eigenvalue-minimisations  :     0
 total energy-change (2. order) :-0.1906456E+00  (-0.7510899E-01)
 number of electron     242.0000006 magnetization      18.0000002
 augmentation part       43.4818060 magnetization      12.1571000

 Free energy of the ion-electron system (eV)
  ---------------------------------------------------
  alpha Z        PSCENC =       653.83955535
  Ewald energy   TEWEN  =    -12151.90619666
  -Hartree energ DENC   =     -8205.04015012
  -exchange      EXHF   =         0.00000000
  -V(xc)+E(xc)   XCENC  =      1324.75850168
  PAW double counting   =     45880.42678229   -46236.80910292
  entropy T*S    EENTRO =        -0.00000000
  eigenvalues    EBANDS =     -2764.18665012
  atomic energy  EATOM  =     21144.65133882
  ---------------------------------------------------
  free energy    TOTEN  =      -354.26592167 eV

  energy without entropy =     -354.26592167  energy(sigma->0) =     -354.26592167


--------------------------------------------------------------------------------------------------------




--------------------------------------- Iteration      1(  10)  ---------------------------------------


    POTLOK:  cpu time    0.1495: real time    0.1495
    SETDIJ:  cpu time    0.9493: real time    0.9494
    TRIAL :  cpu time   51.5483: real time   51.5534
    CORREC:  cpu time   23.9602: real time   23.9667
    CHARGE:  cpu time    9.0106: real time    9.0114
    --------------------------------------------
      LOOP:  cpu time   85.6207: real time   85.6476

 eigenvalue-minimisations  :     0
 total energy-change (2. order) :-0.7511548E-01  (-0.3705001E-01)
 number of electron     242.0000006 magnetization      18.0000002
 augmentation part       43.4854780 magnetization      12.1492182

 Free energy of the ion-electron system (eV)
  ---------------------------------------------------
  alpha Z        PSCENC =       653.83955535
  Ewald energy   TEWEN  =    -12151.90619666
  -Hartree energ DENC   =     -8197.29963116
  -exchange      EXHF   =         0.00000000
  -V(xc)+E(xc)   XCENC  =      1324.22119737
  PAW double counting   =     46016.10103185   -46372.85999488
  entropy T*S    EENTRO =        -0.00000000
  eigenvalues    EBANDS =     -2771.08833785
  atomic energy  EATOM  =     21144.65133882
  ---------------------------------------------------
  free energy    TOTEN  =      -354.34103715 eV

  energy without entropy =     -354.34103715  energy(sigma->0) =     -354.34103715


--------------------------------------------------------------------------------------------------------




--------------------------------------- Iteration      1(  11)  ---------------------------------------


    POTLOK:  cpu time    0.1504: real time    0.1504
    SETDIJ:  cpu time    0.9600: real time    0.9601
    TRIAL :  cpu time   51.2735: real time   51.2784
    CORREC:  cpu time   23.9211: real time   23.9237
    CHARGE:  cpu time    8.9970: real time    8.9978
    --------------------------------------------
      LOOP:  cpu time   85.3093: real time   85.3309

 eigenvalue-minimisations  :     0
 total energy-change (2. order) :-0.3586593E-01  (-0.2038426E-01)
 number of electron     242.0000006 magnetization      18.0000002
 augmentation part       43.4919561 magnetization      12.1339937

 Free energy of the ion-electron system (eV)
  ---------------------------------------------------
  alpha Z        PSCENC =       653.83955535
  Ewald energy   TEWEN  =    -12151.90619666
  -Hartree energ DENC   =     -8195.65325626
  -exchange      EXHF   =         0.00000000
  -V(xc)+E(xc)   XCENC  =      1324.06133665
  PAW double counting   =     45968.32199663   -46325.36992665
  entropy T*S    EENTRO =        -0.00000000
  eigenvalues    EBANDS =     -2772.32175097
  atomic energy  EATOM  =     21144.65133882
  ---------------------------------------------------
  free energy    TOTEN  =      -354.37690308 eV

  energy without entropy =     -354.37690308  energy(sigma->0) =     -354.37690308


--------------------------------------------------------------------------------------------------------




--------------------------------------- Iteration      1(  12)  ---------------------------------------


    POTLOK:  cpu time    0.1491: real time    0.1491
    SETDIJ:  cpu time    0.9462: real time    0.9463
    TRIAL :  cpu time   51.2885: real time   51.2936
    CORREC:  cpu time   23.8859: real time   23.8881
    CHARGE:  cpu time    8.9954: real time    8.9962
    --------------------------------------------
      LOOP:  cpu time   85.2678: real time   85.2909

 eigenvalue-minimisations  :     0
 total energy-change (2. order) :-0.1905809E-01  (-0.8256044E-02)
 number of electron     242.0000006 magnetization      18.0000002
 augmentation part       43.5022892 magnetization      12.1302924

 Free energy of the ion-electron system (eV)
  ---------------------------------------------------
  alpha Z        PSCENC =       653.83955535
  Ewald energy   TEWEN  =    -12151.90619666
  -Hartree energ DENC   =     -8198.54235337
  -exchange      EXHF   =         0.00000000
  -V(xc)+E(xc)   XCENC  =      1324.27105226
  PAW double counting   =     45877.71935817   -46234.79942328
  entropy T*S    EENTRO =        -0.00000000
  eigenvalues    EBANDS =     -2769.62929248
  atomic energy  EATOM  =     21144.65133882
  ---------------------------------------------------
  free energy    TOTEN  =      -354.39596117 eV

  energy without entropy =     -354.39596117  energy(sigma->0) =     -354.39596117


--------------------------------------------------------------------------------------------------------




--------------------------------------- Iteration      1(  13)  ---------------------------------------


    POTLOK:  cpu time    0.1519: real time    0.1519
    SETDIJ:  cpu time    0.9458: real time    0.9459
    TRIAL :  cpu time   51.3703: real time   51.3765
    CORREC:  cpu time   23.9400: real time   23.9494
    CHARGE:  cpu time    9.1120: real time    9.1239
    --------------------------------------------
      LOOP:  cpu time   85.5219: real time   85.5676

 eigenvalue-minimisations  :     0
 total energy-change (2. order) :-0.8191480E-02  (-0.2826903E-02)
 number of electron     242.0000006 magnetization      18.0000002
 augmentation part       43.5065254 magnetization      12.1306839

 Free energy of the ion-electron system (eV)
  ---------------------------------------------------
  alpha Z        PSCENC =       653.83955535
  Ewald energy   TEWEN  =    -12151.90619666
  -Hartree energ DENC   =     -8200.11321197
  -exchange      EXHF   =         0.00000000
  -V(xc)+E(xc)   XCENC  =      1324.37987323
  PAW double counting   =     45830.93745781   -46188.03449503
  entropy T*S    EENTRO =        -0.00000000
  eigenvalues    EBANDS =     -2768.15847421
  atomic energy  EATOM  =     21144.65133882
  ---------------------------------------------------
  free energy    TOTEN  =      -354.40415265 eV

  energy without entropy =     -354.40415265  energy(sigma->0) =     -354.40415265


--------------------------------------------------------------------------------------------------------




--------------------------------------- Iteration      1(  14)  ---------------------------------------


    POTLOK:  cpu time    0.1490: real time    0.1542
    SETDIJ:  cpu time    0.9459: real time    0.9460
    TRIAL :  cpu time   50.2752: real time   50.2823
    CORREC:  cpu time   23.9807: real time   23.9836
    CHARGE:  cpu time    8.9675: real time    8.9684
    --------------------------------------------
      LOOP:  cpu time   84.3215: real time   84.3800

 eigenvalue-minimisations  :     0
 total energy-change (2. order) :-0.2848905E-02  (-0.1169817E-02)
 number of electron     242.0000006 magnetization      18.0000002
 augmentation part       43.5052185 magnetization      12.1292576

 Free energy of the ion-electron system (eV)
  ---------------------------------------------------
  alpha Z        PSCENC =       653.83955535
  Ewald energy   TEWEN  =    -12151.90619666
  -Hartree energ DENC   =     -8200.02594349
  -exchange      EXHF   =         0.00000000
  -V(xc)+E(xc)   XCENC  =      1324.36392130
  PAW double counting   =     45804.25586028   -46161.35768568
  entropy T*S    EENTRO =        -0.00000000
  eigenvalues    EBANDS =     -2768.22785148
  atomic energy  EATOM  =     21144.65133882
  ---------------------------------------------------
  free energy    TOTEN  =      -354.40700156 eV

  energy without entropy =     -354.40700156  energy(sigma->0) =     -354.40700156


--------------------------------------------------------------------------------------------------------




--------------------------------------- Iteration      1(  15)  ---------------------------------------


    POTLOK:  cpu time    0.1472: real time    0.1473
    SETDIJ:  cpu time    0.9421: real time    0.9422
    TRIAL :  cpu time   50.2219: real time   50.2277
    CORREC:  cpu time   23.8047: real time   23.8070
    CHARGE:  cpu time    8.9145: real time    8.9155
    --------------------------------------------
      LOOP:  cpu time   84.0363: real time   84.0754

 eigenvalue-minimisations  :     0
 total energy-change (2. order) :-0.1201110E-02  (-0.8028066E-03)
 number of electron     242.0000006 magnetization      18.0000002
 augmentation part       43.5017464 magnetization      12.1258787

 Free energy of the ion-electron system (eV)
  ---------------------------------------------------
  alpha Z        PSCENC =       653.83955535
[...]
 -0.000  -0.000   0.000  -0.000   0.000   0.000   0.000   0.000   0.000   0.000   0.000   0.000   0.000  -0.000  -0.000   0.000
 -0.000  -0.000   0.000   0.000  -0.000   0.000   0.000  -0.000   0.000   0.000   0.000   0.000   0.000  -0.000  -0.000  -0.000
  0.000  -0.000  -0.000   0.000   0.000   0.000  -0.000  -0.000   0.000   0.000  -0.000   0.000   0.000  -0.000  -0.000   0.000
 -0.000   0.000   0.000   0.000   0.000  -0.000   0.000  -0.000  -0.000  -0.000  -0.000  -0.000  -0.000   0.000   0.000  -0.000
 -0.000   0.000   0.000   0.000  -0.000  -0.000  -0.000   0.000   0.000   0.000  -0.000   0.000  -0.000  -0.000  -0.000   0.000
  0.000  -0.000  -0.000   0.000   0.000   0.000  -0.000   0.000   0.001  -0.000  -0.000  -0.000   0.000  -0.000   0.000   0.000
  0.000  -0.000  -0.000   0.000   0.000   0.000  -0.000   0.000  -0.000   0.001  -0.000  -0.000   0.000   0.000  -0.000   0.000
  0.000  -0.000  -0.000   0.000   0.000  -0.000  -0.000  -0.000  -0.000  -0.000   0.000  -0.000  -0.000   0.000   0.000   0.000
  0.000  -0.001  -0.000   0.000   0.000   0.000  -0.000   0.000  -0.000  -0.000  -0.000   0.000  -0.000   0.000   0.000   0.000
 -0.000   0.000  -0.000   0.000   0.000   0.000  -0.000  -0.000   0.000   0.000  -0.000  -0.000   0.001  -0.000  -0.000   0.000
 -0.000   0.000   0.000  -0.000  -0.000  -0.000   0.000  -0.000  -0.000   0.000   0.000   0.000  -0.000   0.000  -0.000  -0.000
 -0.000   0.000   0.000  -0.000  -0.000  -0.000   0.000  -0.000   0.000  -0.000   0.000   0.000  -0.000  -0.000   0.000  -0.000
 -0.000   0.000   0.000   0.000  -0.000   0.000  -0.000   0.000   0.000   0.000   0.000   0.000   0.000  -0.000  -0.000  -0.000
 -0.000   0.000  -0.000  -0.000   0.000  -0.000   0.000  -0.000   0.000   0.000   0.000  -0.000   0.000  -0.000  -0.000  -0.000
  0.000  -0.000   0.000  -0.000  -0.000  -0.000   0.000   0.000  -0.000  -0.000   0.000   0.000  -0.000   0.000  -0.000  -0.000


------------------------ aborting loop because EDIFF is reached ----------------------------------------


 


 total charge     
 
# of ion       s       p       d       tot
------------------------------------------
    1        2.010   5.855   0.158   8.023
    2        0.170   6.149   4.922  11.241
    3        0.281   6.300   4.778  11.359
    4        0.281   6.300   4.778  11.360
    5        0.170   6.149   4.922  11.241
    6        1.221   2.297   0.000   3.518
    7        1.223   2.298   0.000   3.521
    8        1.222   2.298   0.000   3.520
    9        1.222   2.297   0.000   3.519
   10        1.222   2.296   0.000   3.519
   11        1.221   2.296   0.000   3.517
   12        1.588   3.631   0.000   5.218
   13        1.592   3.641   0.000   5.233
   14        1.589   3.631   0.000   5.220
   15        1.586   3.645   0.000   5.231
   16        1.588   3.630   0.000   5.219
   17        1.587   3.631   0.000   5.217
   18        1.587   3.630   0.000   5.217
   19        1.589   3.629   0.000   5.218
   20        1.593   3.640   0.000   5.233
   21        1.589   3.631   0.000   5.220
   22        1.586   3.645   0.000   5.231
   23        1.587   3.631   0.000   5.218
   24        1.585   3.630   0.000   5.215
   25        1.588   3.651   0.000   5.239
   26        1.590   3.622   0.000   5.212
   27        1.587   3.651   0.000   5.238
   28        1.585   3.611   0.000   5.196
   29        1.590   3.645   0.000   5.235
   30        1.591   3.646   0.000   5.236
   31        1.590   3.620   0.000   5.210
   32        1.588   3.649   0.000   5.237
   33        1.585   3.612   0.000   5.197
   34        1.587   3.651   0.000   5.238
   35        1.585   3.631   0.000   5.215
--------------------------------------------------
tot         48.353 131.770  19.559 199.681
 


 magnetization (x)
 
# of ion       s       p       d       tot
------------------------------------------
    1        0.000   0.000   0.001   0.002
    2        0.013   0.017   4.531   4.561
    3        0.016   0.021   3.699   3.736
    4        0.016   0.021   3.697   3.735
    5        0.013   0.017   4.532   4.562
    6        0.005   0.012   0.000   0.018
    7        0.005   0.014   0.000   0.019
    8        0.005   0.014   0.000   0.019
    9        0.006   0.014   0.000   0.019
   10        0.006   0.014   0.000   0.019
   11        0.005   0.012   0.000   0.018
   12        0.005   0.008   0.000   0.013
   13        0.009   0.037   0.000   0.046
   14        0.005   0.011   0.000   0.015
   15        0.002   0.012   0.000   0.014
   16        0.005   0.025   0.000   0.030
   17        0.003   0.008   0.000   0.011
   18        0.003   0.007   0.000   0.010
   19        0.005   0.010   0.000   0.015
   20        0.009   0.037   0.000   0.046
   21        0.005   0.025   0.000   0.030
   22        0.002   0.012   0.000   0.015
   23        0.005   0.008   0.000   0.013
   24        0.002   0.007   0.000   0.009
   25        0.006   0.007   0.000   0.013
   26        0.008   0.041   0.000   0.049
   27        0.006   0.024   0.000   0.030
   28        0.002   0.004   0.000   0.006
   29        0.006   0.011   0.000   0.017
   30        0.006   0.011   0.000   0.017
   31        0.008   0.040   0.000   0.049
   32        0.006   0.007   0.000   0.013
   33        0.002   0.006   0.000   0.008
   34        0.006   0.024   0.000   0.030
   35        0.002   0.007   0.000   0.009
--------------------------------------------------
tot          0.210   0.547  16.460  17.217
 
    FORLOC:  cpu time    0.0134: real time    0.0134
    FORNL :  cpu time    5.3900: real time    5.3910
    STRESS:  cpu time  168.0059: real time  168.0245
    FORCOR:  cpu time    0.1462: real time    0.1504
    OFIELD:  cpu time    0.0003: real time    0.0003

  FORCE on cell =-STRESS in cart. coord.  units (eV):
  Direction    XX          YY          ZZ          XY          YZ          ZX
  --------------------------------------------------------------------------------------
  Alpha Z   653.83956   653.83956   653.83956
  Ewald   -4083.02747 -4015.12278 -4053.81250   191.53283   159.99828  -289.94526
  Hartree  2704.94272  2810.43087  2684.19853    79.66347    27.60288  -270.04196
  E(xc)   -1293.58467 -1293.46146 -1293.33283    -0.07845    -0.22640     0.06451
  Local   -2534.63481 -2709.20891 -2544.30107  -258.21506  -170.97912   550.96538
  n-local  -380.49021  -386.33768  -385.06117     0.14977     3.13903     1.45287
  augment   534.07901   533.71727   535.63339    -6.06393    -6.28122     6.52173
  Kinetic  4398.85305  4406.09848  4402.78837    -6.97488   -13.29971     0.98719
  Fock        0.00000     0.00000     0.00000     0.00000     0.00000     0.00000
  -------------------------------------------------------------------------------------
  Total      -0.02284    -0.04465    -0.04773     0.01374    -0.04626     0.00446
  in kB      -0.08207    -0.16043    -0.17149     0.04937    -0.16620     0.01602
  external pressure =       -0.14 kB  Pullay stress =        0.00 kB


 VOLUME and BASIS-vectors are now :
 -----------------------------------------------------------------------------
  energy-cutoff  :      520.00
  volume of cell :      445.90
      direct lattice vectors                 reciprocal lattice vectors
     7.664592626  0.146116988  5.006710384     0.136816362 -0.049765892 -0.008262917
     2.795938970  6.872814971  4.901226137    -0.000888987  0.147971540 -0.002957517
     0.610825759  0.183704486  9.007562111    -0.075563484 -0.052853210  0.117219896

  length of vectors
     9.156117036  8.892405636  9.030117975     0.145820563  0.148003763  0.149143575


 FORCES acting on ions:
    Electron-Ion                     Ewald-Force                    Non-Local-Force
 -----------------------------------------------------------------------------------------------
   0.672E+00 -.409E+01 0.320E+01   -.661E+00 0.406E+01 -.318E+01   -.103E-01 0.338E-01 -.221E-01
   -.131E+02 -.177E+02 -.360E+02   0.139E+02 0.186E+02 0.373E+02   -.746E+00 -.883E+00 -.126E+01
   0.878E+02 0.528E+02 0.110E+03   -.872E+02 -.528E+02 -.110E+03   -.619E+00 -.597E-02 0.666E+00
   -.883E+02 -.522E+02 -.110E+03   0.876E+02 0.521E+02 0.111E+03   0.683E+00 0.992E-01 -.627E+00
   0.118E+02 0.135E+02 0.370E+02   -.125E+02 -.145E+02 -.382E+02   0.733E+00 0.921E+00 0.118E+01
   -.124E+02 0.313E+01 -.931E+02   0.136E+02 -.195E+01 0.956E+02   -.126E+01 -.118E+01 -.257E+01
   0.749E+02 0.225E+02 0.548E+02   -.732E+02 -.232E+02 -.564E+02   -.171E+01 0.726E+00 0.166E+01
   -.737E+02 -.208E+02 -.544E+02   0.718E+02 0.215E+02 0.560E+02   0.190E+01 -.751E+00 -.170E+01
   0.224E+02 0.860E+02 0.552E+02   -.207E+02 -.890E+02 -.576E+02   -.173E+01 0.315E+01 0.239E+01
   -.214E+02 -.866E+02 -.560E+02   0.197E+02 0.897E+02 0.583E+02   0.169E+01 -.321E+01 -.236E+01
   0.102E+02 -.196E+01 0.931E+02   -.113E+02 0.640E+00 -.957E+02   0.119E+01 0.133E+01 0.263E+01
   -.123E+02 -.148E+03 0.447E+02   0.412E+02 0.169E+03 -.683E+02   -.289E+02 -.212E+02 0.236E+02
   -.461E+02 0.126E+03 0.169E+03   0.873E+02 -.151E+03 -.171E+03   -.412E+02 0.245E+02 0.212E+01
   0.109E+03 0.131E+02 -.826E+02   -.147E+03 0.819E+01 0.944E+02   0.378E+02 -.213E+02 -.119E+02
   0.158E+03 -.573E+02 0.163E+03   -.163E+03 0.979E+02 -.172E+03   0.435E+01 -.406E+02 0.897E+01
   -.125E+03 0.871E+02 -.102E+01   0.137E+03 -.128E+03 0.139E+02   -.116E+02 0.406E+02 -.129E+02
   0.165E+03 0.171E+03 0.115E+03   -.195E+03 -.190E+03 -.934E+02   0.294E+02 0.197E+02 -.217E+02
   -.164E+03 -.170E+03 -.117E+03   0.193E+03 0.190E+03 0.961E+02   -.293E+02 -.198E+02 0.213E+02
   -.112E+03 -.108E+02 0.797E+02   0.149E+03 -.109E+02 -.913E+02   -.379E+02 0.217E+02 0.115E+02
   0.462E+02 -.127E+03 -.170E+03   -.874E+02 0.152E+03 0.172E+03   0.413E+02 -.247E+02 -.239E+01
   0.129E+03 -.863E+02 0.387E+01   -.141E+03 0.127E+03 -.172E+02   0.121E+02 -.404E+02 0.133E+02
   -.159E+03 0.608E+02 -.164E+03   0.163E+03 -.102E+03 0.173E+03   -.432E+01 0.410E+02 -.892E+01
   0.132E+02 0.145E+03 -.434E+02   -.421E+02 -.166E+03 0.667E+02   0.289E+02 0.210E+02 -.233E+02
   0.671E+02 -.141E+03 0.132E+02   -.666E+02 0.158E+03 -.490E+02   -.493E+00 -.173E+02 0.359E+02
   0.148E+03 0.271E+02 0.972E+02   -.159E+03 -.565E+02 -.130E+03   0.103E+02 0.294E+02 0.331E+02
   0.107E+03 0.901E+02 -.408E+02   -.150E+03 -.950E+02 0.265E+02   0.426E+02 0.485E+01 0.143E+02
   0.455E+02 0.145E+03 0.111E+03   -.599E+02 -.146E+03 -.154E+03   0.144E+02 0.118E+01 0.433E+02
   -.146E+03 0.133E+02 0.702E+02   0.154E+03 -.446E+02 -.905E+02   -.802E+01 0.314E+02 0.203E+02
   0.194E+02 -.214E+02 0.205E+03   -.535E+02 0.106E+02 -.236E+03   0.341E+02 0.108E+02 0.311E+02
   -.204E+02 0.201E+02 -.204E+03   0.544E+02 -.898E+01 0.235E+03   -.341E+02 -.111E+02 -.311E+02
   -.108E+03 -.882E+02 0.394E+02   0.150E+03 0.933E+02 -.251E+02   -.424E+02 -.518E+01 -.143E+02
   -.149E+03 -.264E+02 -.991E+02   0.160E+03 0.553E+02 0.133E+03   -.108E+02 -.289E+02 -.335E+02
   0.148E+03 -.140E+02 -.700E+02   -.156E+03 0.455E+02 0.901E+02   0.817E+01 -.316E+02 -.201E+02
   -.468E+02 -.144E+03 -.112E+03   0.615E+02 0.145E+03 0.155E+03   -.147E+02 -.975E+00 -.431E+02
   -.687E+02 0.140E+03 -.110E+02   0.681E+02 -.158E+03 0.467E+02   0.571E+00 0.173E+02 -.357E+02
 -----------------------------------------------------------------------------------------------
   -.281E+00 -.564E+00 0.318E+00   -.568E-13 -.284E-13 -.682E-12   0.264E+00 0.552E+00 -.290E+00
 
 
 POSITION                                       TOTAL-FORCE (eV/Angst)
 -----------------------------------------------------------------------------------
      5.50992      3.55923      9.41520         0.000498     -0.004188     -0.003262
      7.16254      4.65950     12.23163         0.007711      0.002084     -0.000444
      1.70056      1.06642      2.84739         0.016550      0.014576      0.013725
      9.31099      6.10353     15.97324         0.006671     -0.005563     -0.012823
      3.85207      2.50348      6.57872         0.003714     -0.010424     -0.000879
      8.29791      1.88844     10.80013        -0.001026      0.017996     -0.001659
      4.03305      0.59306      9.27351        -0.000705      0.001991     -0.010186
      6.97891      6.56948      9.54407        -0.001936     -0.009561      0.011760
      7.07172      3.29131      6.40753         0.003417      0.002543     -0.004915
      3.94333      3.87686     12.40652        -0.016211      0.009873     -0.001483
      2.71763      5.28004      8.02204        -0.009380     -0.022175      0.007826
      5.05218      4.44806     11.60429        -0.000121     -0.000065      0.001106
      8.27187      2.50277      6.54307        -0.001851      0.003077     -0.002785
      7.13777      2.72698     11.13408        -0.000308      0.000379     -0.002563
      3.01873      6.70382      7.79593        -0.002194      0.017120     -0.008392
      7.19329      5.21607     10.10162         0.001939      0.011312      0.000689
      3.02656      0.32951     10.33284        -0.000150      0.000421      0.014237
      7.98759      6.83546      8.48507         0.001538      0.002571     -0.005241
      3.87521      4.43687      7.69556         0.000036     -0.005374     -0.005817
      2.74340      4.66698     12.27951         0.007289     -0.009743      0.004514
      3.81064      1.93997      8.70415        -0.003413     -0.002691     -0.003387
      8.00081      0.46478     11.02494        -0.004487     -0.014401      0.006538
      5.96012      2.71960      7.20646        -0.002126     -0.004680     -0.001932
      8.54527      2.12939      9.34722        -0.011836      0.002638      0.005173
      6.64891      6.44023     13.17140        -0.004618     -0.003092     -0.011147
      5.61875      6.57632      8.98978        -0.003701      0.004978      0.008423
      7.28476      3.60681     14.03090        -0.002773     -0.004663      0.001590
      3.75221      2.50924     11.77892         0.004103      0.016008      0.008611
      9.22646      5.08133     12.23811         0.002883     -0.005457      0.002322
      1.78925      2.09282      6.58074         0.004511      0.000092     -0.002419
      5.39474      0.60639      9.82934         0.001782      0.001600     -0.005493
      4.37434      0.71162      5.65606         0.009511      0.008667      0.003917
      7.25841      4.66042      7.03054        -0.007314     -0.012543     -0.001314
      3.73810      3.55517      4.78047        -0.003750      0.002426     -0.001783
      2.46266      5.04487      9.47497         0.005746     -0.005733     -0.002507
 -----------------------------------------------------------------------------------
    total drift:                               -0.016695     -0.011443      0.027996


--------------------------------------------------------------------------------------------------------



  FREE ENERGIE OF THE ION-ELECTRON SYSTEM (eV)
  ---------------------------------------------------
  free  energy   TOTEN  =      -354.41000756 eV

  energy  without entropy=     -354.41000756  energy(sigma->0) =     -354.41000756
 


--------------------------------------------------------------------------------------------------------


    POTLOK:  cpu time    1.0912: real time    1.0913


--------------------------------------------------------------------------------------------------------




--------------------------------------------------------------------------------------------------------


  
 reached required accuracy - stopping structural energy minimisation
     LOOP+:  cpu time 1972.2114: real time 1973.4132
    4ORBIT:  cpu time    0.0000: real time    0.0000
 


 total charge     
 
# of ion       s       p       d       tot
------------------------------------------
    1        2.010   5.855   0.158   8.023
    2        0.170   6.149   4.922  11.241
    3        0.281   6.300   4.778  11.359
    4        0.281   6.300   4.778  11.360
    5        0.170   6.149   4.922  11.241
    6        1.221   2.297   0.000   3.518
    7        1.223   2.298   0.000   3.521
    8        1.222   2.298   0.000   3.520
    9        1.222   2.297   0.000   3.519
   10        1.222   2.296   0.000   3.519
   11        1.221   2.296   0.000   3.517
   12        1.588   3.631   0.000   5.218
   13        1.592   3.641   0.000   5.233
   14        1.589   3.631   0.000   5.220
   15        1.586   3.645   0.000   5.231
   16        1.588   3.630   0.000   5.219
   17        1.587   3.631   0.000   5.217
   18        1.587   3.630   0.000   5.217
   19        1.589   3.629   0.000   5.218
   20        1.593   3.640   0.000   5.233
   21        1.589   3.631   0.000   5.220
   22        1.586   3.645   0.000   5.231
   23        1.587   3.631   0.000   5.218
   24        1.585   3.630   0.000   5.215
   25        1.588   3.651   0.000   5.239
   26        1.590   3.622   0.000   5.212
   27        1.587   3.651   0.000   5.238
   28        1.585   3.611   0.000   5.196
   29        1.590   3.645   0.000   5.235
   30        1.591   3.646   0.000   5.236
   31        1.590   3.620   0.000   5.210
   32        1.588   3.649   0.000   5.237
   33        1.585   3.612   0.000   5.197
   34        1.587   3.651   0.000   5.238
   35        1.585   3.631   0.000   5.215
--------------------------------------------------
tot         48.353 131.770  19.559 199.681
 


 magnetization (x)
 
# of ion       s       p       d       tot
------------------------------------------
    1        0.000   0.000   0.001   0.002
    2        0.013   0.017   4.531   4.561
    3        0.016   0.021   3.699   3.736
    4        0.016   0.021   3.697   3.735
    5        0.013   0.017   4.532   4.562
    6        0.005   0.012   0.000   0.018
    7        0.005   0.014   0.000   0.019
    8        0.005   0.014   0.000   0.019
    9        0.006   0.014   0.000   0.019
   10        0.006   0.014   0.000   0.019
   11        0.005   0.012   0.000   0.018
   12        0.005   0.008   0.000   0.013
   13        0.009   0.037   0.000   0.046
   14        0.005   0.011   0.000   0.015
   15        0.002   0.012   0.000   0.014
   16        0.005   0.025   0.000   0.030
   17        0.003   0.008   0.000   0.011
   18        0.003   0.007   0.000   0.010
   19        0.005   0.010   0.000   0.015
   20        0.009   0.037   0.000   0.046
   21        0.005   0.025   0.000   0.030
   22        0.002   0.012   0.000   0.015
   23        0.005   0.008   0.000   0.013
   24        0.002   0.007   0.000   0.009
   25        0.006   0.007   0.000   0.013
   26        0.008   0.041   0.000   0.049
   27        0.006   0.024   0.000   0.030
   28        0.002   0.004   0.000   0.006
   29        0.006   0.011   0.000   0.017
   30        0.006   0.011   0.000   0.017
   31        0.008   0.040   0.000   0.049
   32        0.006   0.007   0.000   0.013
   33        0.002   0.006   0.000   0.008
   34        0.006   0.024   0.000   0.030
   35        0.002   0.007   0.000   0.009
--------------------------------------------------
tot          0.210   0.547  16.460  17.217
 

 total amount of memory used by VASP MPI-rank0   257254. kBytes
=======================================================================

   base      :      30000. kBytes
   nonlr-proj:       9027. kBytes
   fftplans  :       2612. kBytes
   grid      :      10205. kBytes
   one-center:         93. kBytes
   wavefun   :     205317. kBytes
 
  
  
 General timing and accounting informations for this job:
 ========================================================
  
                  Total CPU time used (sec):     2012.439
                            User time (sec):     1994.870
                          System time (sec):       17.569
                         Elapsed time (sec):     2014.631
  
                   Maximum memory used (kb):      490748.
                   Average memory used (kb):           0.
  
                          Minor page faults:       249740
                          Major page faults:            0
                 Voluntary context switches:         2510
