       N       E                     dE             d eps       ncg     rms          rms(c)
DAV:   1     0.282147868511E+04    0.28215E+04   -0.13332E+05 24216   0.152E+03
DAV:   2    -0.241133434371E+02   -0.28456E+04   -0.27607E+04 27112   0.437E+02
DAV:   3    -0.306362071895E+03   -0.28225E+03   -0.27633E+03 28112   0.150E+02
DAV:   4    -0.321987457068E+03   -0.15625E+02   -0.15159E+02 38992   0.364E+01
DAV:   5    -0.322986899012E+03   -0.99944E+00   -0.98869E+00 42448   0.621E+00    0.726E+01
DAV:   6    -0.297703970473E+03    0.25283E+02   -0.33127E+02 33336   0.536E+01    0.654E+01
DAV:   7    -0.314540897118E+03   -0.16837E+02   -0.16232E+02 34256   0.101E+02    0.534E+01
DAV:   8    -0.288351947916E+03    0.26189E+02   -0.71224E+01 33952   0.469E+01    0.364E+01
DAV:   9    -0.291264388294E+03   -0.29124E+01   -0.69305E+01 34600   0.163E+01    0.402E+01
DAV:  10    -0.282456259173E+03    0.88081E+01   -0.14175E+01 34496   0.123E+01    0.295E+01
DAV:  11    -0.282395929520E+03    0.60330E-01   -0.13538E+01 34480   0.830E+00    0.313E+01
DAV:  12    -0.284156996881E+03   -0.17611E+01   -0.26272E+01 34104   0.756E+00    0.306E+01
DAV:  13    -0.280828342560E+03    0.33287E+01   -0.21152E+00 33640   0.445E+00    0.291E+01
DAV:  14    -0.280356672854E+03    0.47167E+00   -0.38221E-01 34712   0.143E+00    0.254E+01
DAV:  15    -0.280307317267E+03    0.49356E-01   -0.27056E-01 27872   0.716E-01    0.281E+01
DAV:  16    -0.280313252106E+03   -0.59348E-02   -0.91680E-03 28264   0.363E-01    0.285E+01
DAV:  17    -0.280754423232E+03   -0.44117E+00   -0.67902E-02 32744   0.682E-01    0.298E+01
DAV:  18    -0.279940414428E+03    0.81401E+00   -0.17491E+00 33224   0.193E+00    0.197E+01
DAV:  19    -0.279514351159E+03    0.42606E+00   -0.89847E-01 31816   0.175E+00    0.193E+01
DAV:  20    -0.279613670871E+03   -0.99320E-01   -0.21833E-01 28056   0.858E-01    0.191E+01
DAV:  21    -0.279600244298E+03    0.13427E-01   -0.93766E-02 32544   0.284E-01    0.193E+01
DAV:  22    -0.279635040453E+03   -0.34796E-01   -0.69061E-02 26032   0.297E-01    0.194E+01
DAV:  23    -0.279610991422E+03    0.24049E-01   -0.60561E-01 29656   0.738E-01    0.195E+01
DAV:  24    -0.279413779401E+03    0.19721E+00   -0.28286E-01 28776   0.106E+00    0.200E+01
DAV:  25    -0.279502732144E+03   -0.88953E-01   -0.77810E-02 25824   0.453E-01    0.198E+01
DAV:  26    -0.279530950238E+03   -0.28218E-01   -0.11801E-01 33504   0.600E-01    0.193E+01
DAV:  27    -0.279596020752E+03   -0.65071E-01   -0.73763E-02 29312   0.592E-01    0.198E+01
DAV:  28    -0.279630131776E+03   -0.34111E-01   -0.47314E-02 30392   0.361E-01    0.195E+01
DAV:  29    -0.280042493383E+03   -0.41236E+00   -0.44705E-01 32576   0.108E+00    0.176E+01
DAV:  30    -0.280134417421E+03   -0.91924E-01   -0.20519E-01 29808   0.845E-01    0.171E+01
DAV:  31    -0.280131897932E+03    0.25195E-02   -0.25713E-01 33824   0.893E-01    0.180E+01
DAV:  32    -0.280997985082E+03   -0.86609E+00   -0.17217E+00 33256   0.257E+00    0.177E+01
DAV:  33    -0.281945837801E+03   -0.94785E+00   -0.11861E+00 33768   0.305E+00    0.187E+01
DAV:  34    -0.281498419696E+03    0.44742E+00   -0.12271E+00 31472   0.309E+00    0.205E+01
DAV:  35    -0.280211028887E+03    0.12874E+01   -0.21222E+00 28408   0.256E+00    0.184E+01
DAV:  36    -0.278702726560E+03    0.15083E+01   -0.97971E-01 30120   0.215E+00    0.192E+01
DAV:  37    -0.279288971993E+03   -0.58625E+00   -0.14466E-01 25720   0.130E+00    0.188E+01
DAV:  38    -0.279873502242E+03   -0.58453E+00   -0.10008E-01 27432   0.643E-01    0.176E+01
DAV:  39    -0.280105866763E+03   -0.23236E+00   -0.20671E-02 26288   0.487E-01    0.175E+01
DAV:  40    -0.280789753739E+03   -0.68389E+00   -0.40798E-01 28376   0.133E+00    0.143E+01
DAV:  41    -0.280613930817E+03    0.17582E+00   -0.32515E+00 30968   0.224E+00    0.184E+01
DAV:  42    -0.280076595637E+03    0.53734E+00   -0.19270E-01 30272   0.196E+00    0.180E+01
DAV:  43    -0.280152958421E+03   -0.76363E-01   -0.30025E-01 33256   0.203E+00    0.171E+01
DAV:  44    -0.280143248098E+03    0.97103E-02   -0.33664E-02 28608   0.672E-01    0.172E+01
DAV:  45    -0.280124352088E+03    0.18896E-01   -0.87477E-03 29864   0.257E-01    0.172E+01
DAV:  46    -0.280195583452E+03   -0.71231E-01   -0.12782E-02 28536   0.258E-01    0.158E+01
DAV:  47    -0.279808208248E+03    0.38738E+00   -0.13320E-01 27272   0.902E-01    0.175E+01
DAV:  48    -0.278414842137E+03    0.13934E+01   -0.46606E-01 28096   0.147E+00    0.183E+01
DAV:  49    -0.279135956958E+03   -0.72111E+00   -0.12806E-01 27472   0.822E-01    0.178E+01
DAV:  50    -0.280719018753E+03   -0.15831E+01   -0.22319E+00 29232   0.271E+00    0.130E+01
DAV:  51    -0.281409922555E+03   -0.69090E+00   -0.12326E+00 29064   0.373E+00    0.102E+01
DAV:  52    -0.281248773878E+03    0.16115E+00   -0.60711E+00 30792   0.273E+00    0.117E+01
DAV:  53    -0.281130551013E+03    0.11822E+00   -0.19867E-01 28368   0.137E+00    0.121E+01
DAV:  54    -0.280415971123E+03    0.71458E+00   -0.19444E-01 29544   0.129E+00    0.130E+01
DAV:  55    -0.280272323033E+03    0.14365E+00   -0.16913E-02 28304   0.400E-01    0.131E+01
DAV:  56    -0.273770948540E+03    0.65014E+01   -0.40215E+00 26520   0.483E+00    0.180E+01
DAV:  57    -0.273947275467E+03   -0.17633E+00   -0.13400E-01 28624   0.970E-01    0.179E+01
DAV:  58    -0.273736212518E+03    0.21106E+00   -0.11949E-02 29248   0.301E-01    0.181E+01
DAV:  59    -0.272473424431E+03    0.12628E+01   -0.10151E-01 25384   0.743E-01    0.187E+01
DAV:  60    -0.272567581968E+03   -0.94158E-01   -0.29888E-03 29256   0.164E-01    0.186E+01
DAV:  61    -0.272972204099E+03   -0.40462E+00   -0.28005E-01 27568   0.167E+00    0.186E+01
DAV:  62    -0.269551834955E+03    0.34204E+01   -0.55255E-01 26120   0.176E+00    0.196E+01
DAV:  63    -0.267564233946E+03    0.19876E+01   -0.17741E-01 27656   0.102E+00    0.195E+01
DAV:  64    -0.268102923915E+03   -0.53869E+00   -0.24454E-02 27328   0.523E-01    0.194E+01
DAV:  65    -0.268992694662E+03   -0.88977E+00   -0.60587E-02 26608   0.705E-01    0.191E+01
DAV:  66    -0.281665925231E+03   -0.12673E+02   -0.18155E+01 28952   0.839E+00    0.894E+00
DAV:  67    -0.282056708388E+03   -0.39078E+00   -0.61673E-01 30400   0.260E+00    0.908E+00
DAV:  68    -0.281972973140E+03    0.83735E-01   -0.73149E-02 31256   0.739E-01    0.963E+00
DAV:  69    -0.282035724272E+03   -0.62751E-01   -0.69508E-02 33176   0.761E-01    0.101E+01
DAV:  70    -0.282067569057E+03   -0.31845E-01   -0.24190E-02 32440   0.382E-01    0.104E+01
DAV:  71    -0.282041778696E+03    0.25790E-01   -0.97837E-02 32608   0.765E-01    0.114E+01
DAV:  72    -0.281992968774E+03    0.48810E-01   -0.62582E-02 31064   0.603E-01    0.113E+01
DAV:  73    -0.281990391460E+03    0.25773E-02   -0.67447E-03 31720   0.246E-01    0.112E+01
DAV:  74    -0.281970272501E+03    0.20119E-01   -0.17621E-02 32488   0.413E-01    0.113E+01
DAV:  75    -0.281864138158E+03    0.10613E+00   -0.11744E-01 32200   0.905E-01    0.114E+01
DAV:  76    -0.281504624142E+03    0.35951E+00   -0.19391E+00 33088   0.265E+00    0.750E+00
DAV:  77    -0.281706616005E+03   -0.20199E+00   -0.20916E+00 30008   0.162E+00    0.102E+01
DAV:  78    -0.281656974227E+03    0.49642E-01   -0.15736E-01 28184   0.883E-01    0.971E+00
DAV:  79    -0.281681558980E+03   -0.24585E-01   -0.30506E-02 32776   0.401E-01    0.103E+01
DAV:  80    -0.281679935610E+03    0.16234E-02   -0.13520E-01 33152   0.687E-01    0.102E+01
DAV:  81    -0.282115189831E+03   -0.43525E+00   -0.96352E+00 33376   0.364E+00    0.937E+00
DAV:  82    -0.282514912942E+03   -0.39972E+00   -0.19523E+00 29776   0.196E+00    0.173E+01
DAV:  83    -0.282513437359E+03    0.14756E-02   -0.33613E-01 30296   0.131E+00    0.121E+01
DAV:  84    -0.282706032811E+03   -0.19260E+00   -0.89905E-02 29576   0.120E+00    0.112E+01
DAV:  85    -0.282786078630E+03   -0.80046E-01   -0.61841E-02 33600   0.745E-01    0.111E+01
DAV:  86    -0.282751321049E+03    0.34758E-01   -0.52034E-01 33824   0.138E+00    0.857E+00
DAV:  87    -0.282727565531E+03    0.23756E-01   -0.11218E-01 31360   0.985E-01    0.878E+00
DAV:  88    -0.282709007505E+03    0.18558E-01   -0.30501E-02 34456   0.519E-01    0.863E+00
DAV:  89    -0.282689794443E+03    0.19213E-01   -0.38525E-02 34608   0.850E-01    0.778E+00
DAV:  90    -0.282686445780E+03    0.33487E-02   -0.99381E-01 35992   0.173E+00    0.887E+00
DAV:  91    -0.282587186197E+03    0.99260E-01   -0.51306E-01 30568   0.123E+00    0.634E+00
DAV:  92    -0.282586343879E+03    0.84232E-03   -0.83219E-02 30952   0.630E-01    0.688E+00
DAV:  93    -0.282614225481E+03   -0.27882E-01   -0.14440E-01 33232   0.729E-01    0.786E+00
DAV:  94    -0.282734048663E+03   -0.11982E+00   -0.23722E-01 33016   0.646E-01    0.940E+00
DAV:  95    -0.282570064151E+03    0.16398E+00   -0.14491E-01 28640   0.771E-01    0.936E+00
DAV:  96    -0.282663727704E+03   -0.93664E-01   -0.19231E-01 32320   0.101E+00    0.736E+00
DAV:  97    -0.282786688816E+03   -0.12296E+00   -0.11184E-01 31672   0.682E-01    0.728E+00
DAV:  98    -0.282789162126E+03   -0.24733E-02   -0.17806E-02 27888   0.319E-01    0.815E+00
DAV:  99    -0.282744934947E+03    0.44227E-01   -0.23895E-01 32232   0.775E-01    0.869E+00
DAV: 100    -0.282734392774E+03    0.10542E-01   -0.74903E-02 32568   0.627E-01    0.981E+00
DAV: 101    -0.282707398073E+03    0.26995E-01   -0.68126E-03 32968   0.378E-01    0.977E+00
DAV: 102    -0.282725572630E+03   -0.18175E-01   -0.97065E-03 30120   0.206E-01    0.976E+00
DAV: 103    -0.282694590517E+03    0.30982E-01   -0.97215E-03 30960   0.267E-01    0.996E+00
DAV: 104    -0.282708431070E+03   -0.13841E-01   -0.21106E-03 29192   0.138E-01    0.983E+00
DAV: 105    -0.282655011731E+03    0.53419E-01   -0.18694E-02 32336   0.397E-01    0.103E+01
DAV: 106    -0.282796741628E+03   -0.14173E+00   -0.65797E-01 32968   0.162E+00    0.751E+00
DAV: 107    -0.282894752631E+03   -0.98011E-01   -0.12206E-01 29208   0.636E-01    0.833E+00
DAV: 108    -0.282891530032E+03    0.32226E-02   -0.11789E-02 29576   0.329E-01    0.835E+00
DAV: 109    -0.282878422296E+03    0.13108E-01   -0.50510E-03 32368   0.169E-01    0.825E+00
DAV: 110    -0.282871346871E+03    0.70754E-02   -0.15220E-02 34248   0.268E-01    0.826E+00
DAV: 111    -0.282776746929E+03    0.94600E-01   -0.31165E-01 32856   0.146E+00    0.697E+00
DAV: 112    -0.282916734803E+03   -0.13999E+00   -0.37904E-01 32856   0.105E+00    0.918E+00
DAV: 113    -0.282875274233E+03    0.41461E-01   -0.39198E-02 29896   0.711E-01    0.101E+01
DAV: 114    -0.282845474427E+03    0.29800E-01   -0.14158E-02 33944   0.337E-01    0.104E+01
DAV: 115    -0.282847565133E+03   -0.20907E-02   -0.14806E-03 29736   0.134E-01    0.104E+01
DAV: 116    -0.282963614146E+03   -0.11605E+00   -0.16408E-01 33824   0.132E+00    0.105E+01
DAV: 117    -0.282946422720E+03    0.17191E-01   -0.39995E-02 32928   0.689E-01    0.104E+01
DAV: 118    -0.282892911667E+03    0.53511E-01   -0.10593E-02 32472   0.304E-01    0.106E+01
DAV: 119    -0.282909689796E+03   -0.16778E-01   -0.26306E-03 31064   0.221E-01    0.105E+01
DAV: 120    -0.282876439793E+03    0.33250E-01   -0.35361E-03 31536   0.231E-01    0.107E+01
DAV: 121    -0.282808010210E+03    0.68430E-01   -0.54105E-02 33312   0.969E-01    0.119E+01
DAV: 122    -0.282989584733E+03   -0.18157E+00   -0.30772E-02 32312   0.664E-01    0.113E+01
DAV: 123    -0.283050667161E+03   -0.61082E-01   -0.80211E-03 31688   0.323E-01    0.113E+01
DAV: 124    -0.283130359697E+03   -0.79693E-01   -0.27263E-02 32856   0.432E-01    0.110E+01
DAV: 125    -0.283229573831E+03   -0.99214E-01   -0.15787E-01 34080   0.711E-01    0.107E+01
DAV: 126    -0.283008837875E+03    0.22074E+00   -0.17559E+00 31880   0.302E+00    0.977E+00
DAV: 127    -0.283054515866E+03   -0.45678E-01   -0.77180E-02 27864   0.923E-01    0.939E+00
DAV: 128    -0.283065453307E+03   -0.10937E-01   -0.70160E-03 30664   0.345E-01    0.956E+00
DAV: 129    -0.283034219230E+03    0.31234E-01   -0.11428E-02 34944   0.444E-01    0.922E+00
DAV: 130    -0.283001084953E+03    0.33134E-01   -0.39304E-02 35304   0.621E-01    0.838E+00
DAV: 131    -0.283110021342E+03   -0.10894E+00   -0.58641E-01 34456   0.196E+00    0.881E+00
DAV: 132    -0.283142748305E+03   -0.32727E-01   -0.83706E-01 33048   0.127E+00    0.918E+00
DAV: 133    -0.283099005784E+03    0.43743E-01   -0.77527E-02 31784   0.899E-01    0.787E+00
DAV: 134    -0.283013267609E+03    0.85738E-01   -0.47117E-01 34000   0.128E+00    0.781E+00
DAV: 135    -0.282977108149E+03    0.36159E-01   -0.11363E-01 31448   0.745E-01    0.596E+00
DAV: 136    -0.282998818699E+03   -0.21711E-01   -0.12631E-01 32928   0.614E-01    0.621E+00
DAV: 137    -0.282968821911E+03    0.29997E-01   -0.84046E-02 33448   0.555E-01    0.501E+00
DAV: 138    -0.282971246299E+03   -0.24244E-02   -0.78878E-03 30280   0.212E-01    0.483E+00
DAV: 139    -0.282973735309E+03   -0.24890E-02   -0.11475E-03 28424   0.936E-02    0.495E+00
DAV: 140    -0.282970560947E+03    0.31744E-02   -0.82277E-04 31400   0.782E-02    0.474E+00
DAV: 141    -0.282966653056E+03    0.39079E-02   -0.31486E-02 34304   0.346E-01    0.431E+00
DAV: 142    -0.282967402771E+03   -0.74972E-03   -0.33395E-02 33000   0.344E-01    0.323E+00
DAV: 143    -0.282974891003E+03   -0.74882E-02   -0.14709E-02 29248   0.271E-01    0.284E+00
DAV: 144    -0.282978317767E+03   -0.34268E-02   -0.67285E-03 29400   0.199E-01    0.271E+00
DAV: 145    -0.282974346202E+03    0.39716E-02   -0.10757E-02 31504   0.199E-01    0.206E+00
DAV: 146    -0.282973912680E+03    0.43352E-03   -0.13694E-02 33328   0.171E-01    0.115E+00
DAV: 147    -0.282976489925E+03   -0.25772E-02   -0.81747E-04 25040   0.945E-02    0.108E+00
DAV: 148    -0.282976816208E+03   -0.32628E-03   -0.34057E-03 32640   0.972E-02    0.114E+00
DAV: 149    -0.282976431896E+03    0.38431E-03   -0.11480E-03 31464   0.767E-02    0.890E-01
DAV: 150    -0.282977534057E+03   -0.11022E-02   -0.83893E-03 33400   0.140E-01    0.146E+00
DAV: 151    -0.282977157393E+03    0.37666E-03   -0.50276E-03 31056   0.143E-01    0.136E+00
DAV: 152    -0.282977417090E+03   -0.25970E-03   -0.17007E-03 32656   0.101E-01    0.135E+00
DAV: 153    -0.282977998331E+03   -0.58124E-03   -0.77833E-04 31544   0.719E-02    0.147E+00
DAV: 154    -0.282976659702E+03    0.13386E-02   -0.24910E-03 31968   0.801E-02    0.112E+00
DAV: 155    -0.282977364221E+03   -0.70452E-03   -0.27826E-04 29168   0.528E-02    0.117E+00
DAV: 156    -0.282978399418E+03   -0.10352E-02   -0.71879E-04 27304   0.487E-02    0.137E+00
DAV: 157    -0.282977560183E+03    0.83923E-03   -0.34704E-04 24976   0.433E-02    0.120E+00
DAV: 158    -0.282977590740E+03   -0.30557E-04   -0.18408E-04 24560   0.266E-02    0.109E+00
DAV: 159    -0.282977818691E+03   -0.22795E-03   -0.18324E-04 20920   0.256E-02    0.971E-01
DAV: 160    -0.282978093537E+03   -0.27485E-03   -0.12887E-04 21936   0.260E-02    0.902E-01
DAV: 161    -0.282978316209E+03   -0.22267E-03   -0.12811E-04 20376   0.245E-02    0.938E-01
DAV: 162    -0.282978168291E+03    0.14792E-03   -0.81974E-05 19736   0.218E-02    0.875E-01
DAV: 163    -0.282978201098E+03   -0.32807E-04   -0.96274E-05 20480   0.192E-02    0.791E-01
DAV: 164    -0.282978263358E+03   -0.62260E-04   -0.22407E-04 23776   0.289E-02    0.658E-01
DAV: 165    -0.282978413576E+03   -0.15022E-03   -0.18457E-04 22064   0.255E-02    0.553E-01
DAV: 166    -0.282978568202E+03   -0.15463E-03   -0.70847E-05 19568   0.259E-02    0.601E-01
DAV: 167    -0.282978573232E+03   -0.50298E-05   -0.49596E-06 12936   0.797E-03
   1 F= -.28297857E+03 E0= -.28296815E+03  d E =-.282979E+03  mag=    10.0000
       N       E                     dE             d eps       ncg     rms          rms(c)
DAV:   1    -0.283027900088E+03   -0.49332E-01   -0.25424E-02 24768   0.495E-01    0.673E-01
DAV:   2    -0.283070639831E+03   -0.42740E-01   -0.43075E-01 34144   0.850E-01    0.671E+00
DAV:   3    -0.283012282086E+03    0.58358E-01   -0.38090E-01 32280   0.791E-01    0.207E+00
DAV:   4    -0.283025079268E+03   -0.12797E-01   -0.32748E-02 30048   0.361E-01    0.570E-01
DAV:   5    -0.283028063998E+03   -0.29847E-02   -0.12793E-03 25312   0.125E-01    0.597E-01
DAV:   6    -0.283028157814E+03   -0.93815E-04   -0.17323E-03 32360   0.102E-01    0.748E-01
DAV:   7    -0.283027916675E+03    0.24114E-03   -0.14378E-03 32816   0.684E-02    0.804E-01
DAV:   8    -0.283027933896E+03   -0.17221E-04   -0.19461E-03 31848   0.822E-02    0.104E+00
DAV:   9    -0.283027901676E+03    0.32220E-04   -0.23662E-03 31192   0.903E-02    0.138E+00
DAV:  10    -0.283027521158E+03    0.38052E-03   -0.12692E-03 32584   0.793E-02    0.161E+00
DAV:  11    -0.283027337637E+03    0.18352E-03   -0.11180E-03 30952   0.666E-02    0.191E+00
DAV:  12    -0.283027448260E+03   -0.11062E-03   -0.19784E-03 31824   0.858E-02    0.233E+00
DAV:  13    -0.283026286694E+03    0.11616E-02   -0.13009E-04 26584   0.390E-02    0.237E+00
DAV:  14    -0.283025223518E+03    0.10632E-02   -0.30944E-04 28904   0.461E-02    0.220E+00
DAV:  15    -0.283024308754E+03    0.91476E-03   -0.54872E-03 33920   0.155E-01    0.146E+00
DAV:  16    -0.283025672450E+03   -0.13637E-02   -0.24829E-03 32096   0.101E-01    0.993E-01
DAV:  17    -0.283026850548E+03   -0.11781E-02   -0.34153E-04 26952   0.429E-02    0.845E-01
DAV:  18    -0.283027290805E+03   -0.44026E-03   -0.15122E-04 24608   0.315E-02    0.732E-01
DAV:  19    -0.283027483018E+03   -0.19221E-03   -0.23205E-04 25832   0.340E-02    0.594E-01
DAV:  20    -0.283027666004E+03   -0.18299E-03   -0.55632E-05 19560   0.194E-02    0.547E-01
DAV:  21    -0.283027764235E+03   -0.98230E-04   -0.18611E-05 15072   0.136E-02    0.525E-01
DAV:  22    -0.283027816055E+03   -0.51820E-04   -0.53889E-06 14112   0.831E-03    0.518E-01
DAV:  23    -0.283027832889E+03   -0.16834E-04   -0.27484E-06 13672   0.574E-03    0.509E-01
DAV:  24    -0.283027852186E+03   -0.19296E-04   -0.89307E-07 13488   0.392E-03    0.509E-01
DAV:  25    -0.283027849017E+03    0.31688E-05   -0.10145E-06 13160   0.353E-03
   2 F= -.28302785E+03 E0= -.28301724E+03  d E =-.492758E-01  mag=    10.0000
       N       E                     dE             d eps       ncg     rms          rms(c)
DAV:   1    -0.284883695652E+03   -0.18558E+01   -0.98314E+01 24768   0.308E+01    0.479E+00
DAV:   2    -0.285768653392E+03   -0.88496E+00   -0.11557E+01 30488   0.849E+00    0.120E+01
DAV:   3    -0.285541242775E+03    0.22741E+00   -0.44397E+00 35448   0.413E+00    0.132E+01
DAV:   4    -0.285290875746E+03    0.25037E+00   -0.16339E+00 36904   0.172E+00    0.801E+00
DAV:   5    -0.285275817468E+03    0.15058E-01   -0.81155E-01 33552   0.106E+00    0.289E+00
DAV:   6    -0.285312276294E+03   -0.36459E-01   -0.45098E-01 33592   0.135E+00    0.473E+00
DAV:   7    -0.285277329319E+03    0.34947E-01   -0.76576E-01 34896   0.139E+00    0.327E+00
DAV:   8    -0.285277004044E+03    0.32528E-03   -0.99410E-02 35960   0.675E-01    0.205E+00
DAV:   9    -0.285278170965E+03   -0.11669E-02   -0.92879E-03 29872   0.244E-01    0.176E+00
DAV:  10    -0.285279170825E+03   -0.99986E-03   -0.74403E-03 34400   0.208E-01    0.193E+00
DAV:  11    -0.285276386960E+03    0.27839E-02   -0.16484E-02 34352   0.221E-01    0.134E+00
DAV:  12    -0.285278731776E+03   -0.23448E-02   -0.39926E-03 31992   0.150E-01    0.148E+00
DAV:  13    -0.285277067555E+03    0.16642E-02   -0.63651E-03 33184   0.137E-01    0.853E-01
DAV:  14    -0.285278067407E+03   -0.99985E-03   -0.87837E-03 31968   0.109E-01    0.616E-01
DAV:  15    -0.285279126743E+03   -0.10593E-02   -0.17409E-03 30440   0.109E-01    0.713E-01
DAV:  16    -0.285278515963E+03    0.61078E-03   -0.10495E-03 32832   0.770E-02    0.458E-01
DAV:  17    -0.285278644032E+03   -0.12807E-03   -0.24584E-03 32032   0.833E-02    0.324E-01
DAV:  18    -0.285278825771E+03   -0.18174E-03   -0.77564E-04 30000   0.662E-02    0.268E-01
DAV:  19    -0.285278896004E+03   -0.70233E-04   -0.59746E-04 28048   0.463E-02    0.246E-01
DAV:  20    -0.285278892490E+03    0.35144E-05   -0.58543E-05 20408   0.264E-02
   3 F= -.28527889E+03 E0= -.28526819E+03  d E =-.225104E+01  mag=    10.0000
       N       E                     dE             d eps       ncg     rms          rms(c)
DAV:   1    -0.285872892894E+03   -0.59400E+00   -0.10222E+02 24768   0.343E+01    0.419E+00
DAV:   2    -0.286865663636E+03   -0.99277E+00   -0.11753E+01 29264   0.844E+00    0.143E+01
DAV:   3    -0.286674984077E+03    0.19068E+00   -0.59623E+00 36880   0.347E+00    0.118E+01
DAV:   4    -0.286400538245E+03    0.27445E+00   -0.12038E+00 35728   0.204E+00    0.373E+00
DAV:   5    -0.286464069227E+03   -0.63531E-01   -0.73507E-01 34656   0.114E+00    0.540E+00
DAV:   6    -0.286412365955E+03    0.51703E-01   -0.17717E-01 35392   0.112E+00    0.213E+00
DAV:   7    -0.286419020266E+03   -0.66543E-02   -0.19669E-01 35240   0.924E-01    0.254E+00
DAV:   8    -0.286417945652E+03    0.10746E-02   -0.73981E-02 33144   0.532E-01    0.122E+00
DAV:   9    -0.286420560244E+03   -0.26146E-02   -0.12853E-02 35976   0.249E-01    0.110E+00
DAV:  10    -0.286420714254E+03   -0.15401E-03   -0.12065E-02 33856   0.237E-01    0.123E+00
DAV:  11    -0.286421746102E+03   -0.10318E-02   -0.11746E-02 33688   0.193E-01    0.153E+00
DAV:  12    -0.286421279868E+03    0.46623E-03   -0.56481E-03 31984   0.162E-01    0.157E+00
DAV:  13    -0.286419088859E+03    0.21910E-02   -0.51881E-03 33600   0.144E-01    0.951E-01
DAV:  14    -0.286419098997E+03   -0.10138E-04   -0.55435E-03 34800   0.127E-01    0.513E-01
DAV:  15    -0.286419711500E+03   -0.61250E-03   -0.27291E-03 32472   0.110E-01    0.360E-01
DAV:  16    -0.286419893871E+03   -0.18237E-03   -0.28282E-03 31904   0.811E-02    0.318E-01
DAV:  17    -0.286419986222E+03   -0.92351E-04   -0.14240E-04 25776   0.457E-02    0.321E-01
DAV:  18    -0.286419902879E+03    0.83344E-04   -0.98161E-05 21112   0.284E-02    0.230E-01
DAV:  19    -0.286419938273E+03   -0.35395E-04   -0.42745E-04 29848   0.490E-02    0.185E-01
DAV:  20    -0.286419943991E+03   -0.57172E-05   -0.16047E-04 25792   0.318E-02    0.114E-01
DAV:  21    -0.286419957671E+03   -0.13681E-04   -0.45875E-05 18440   0.203E-02    0.556E-02
DAV:  22    -0.286419971056E+03   -0.13385E-04   -0.19958E-05 16088   0.148E-02    0.301E-02
DAV:  23    -0.286419975244E+03   -0.41874E-05   -0.70308E-06 13888   0.942E-03
   4 F= -.28641998E+03 E0= -.28640898E+03  d E =-.114108E+01  mag=    10.0000
       N       E                     dE             d eps       ncg     rms          rms(c)
DAV:   1    -0.286509067335E+03   -0.89096E-01   -0.46832E+01 25056   0.254E+01    0.257E+00
DAV:   2    -0.286940437307E+03   -0.43137E+00   -0.47533E+00 29296   0.566E+00    0.124E+01
DAV:   3    -0.286766208602E+03    0.17423E+00   -0.23770E+00 36792   0.214E+00    0.729E+00
DAV:   4    -0.286745628363E+03    0.20580E-01   -0.66507E-01 35888   0.124E+00    0.248E+00
DAV:   5    -0.286778480888E+03   -0.32853E-01   -0.27625E-01 34360   0.947E-01    0.491E+00
DAV:   6    -0.286741475986E+03    0.37005E-01   -0.21752E-01 34384   0.769E-01    0.995E-01
DAV:   7    -0.286749677318E+03   -0.82013E-02   -0.26733E-02 30128   0.540E-01    0.614E-01
DAV:   8    -0.286754321659E+03   -0.46443E-02   -0.19756E-02 33448   0.246E-01    0.103E+00
DAV:   9    -0.286754109354E+03    0.21231E-03   -0.13092E-03 32864   0.106E-01    0.112E+00
DAV:  10    -0.286753154250E+03    0.95510E-03   -0.40725E-04 28136   0.574E-02    0.128E+00
DAV:  11    -0.286752435948E+03    0.71830E-03   -0.38399E-03 31384   0.149E-01    0.649E-01
DAV:  12    -0.286753059386E+03   -0.62344E-03   -0.77218E-03 33288   0.213E-01    0.594E-01
DAV:  13    -0.286753387677E+03   -0.32829E-03   -0.26798E-03 28048   0.128E-01    0.562E-01
DAV:  14    -0.286753256644E+03    0.13103E-03   -0.12011E-03 34296   0.690E-02    0.378E-01
DAV:  15    -0.286753354823E+03   -0.98179E-04   -0.75174E-05 24624   0.295E-02    0.364E-01
DAV:  16    -0.286753337630E+03    0.17193E-04   -0.99937E-05 22656   0.290E-02    0.335E-01
DAV:  17    -0.286753365400E+03   -0.27770E-04   -0.50430E-05 19160   0.186E-02    0.332E-01
DAV:  18    -0.286753332596E+03    0.32804E-04   -0.14240E-04 26552   0.487E-02    0.263E-01
DAV:  19    -0.286753300640E+03    0.31956E-04   -0.10994E-03 32648   0.918E-02    0.281E-01
DAV:  20    -0.286753372341E+03   -0.71701E-04   -0.31673E-04 28160   0.557E-02    0.158E-01
DAV:  21    -0.286753399559E+03   -0.27218E-04   -0.13692E-04 29424   0.405E-02    0.776E-02
DAV:  22    -0.286753416071E+03   -0.16512E-04   -0.40338E-05 19688   0.216E-02    0.587E-02
DAV:  23    -0.286753415296E+03    0.77532E-06   -0.10643E-05 14464   0.116E-02
   5 F= -.28675342E+03 E0= -.28674210E+03  d E =-.333440E+00  mag=    10.0000
       N       E                     dE             d eps       ncg     rms          rms(c)
DAV:   1    -0.286720908214E+03    0.32508E-01   -0.38159E+01 25344   0.242E+01    0.225E+00
DAV:   2    -0.286989614215E+03   -0.26871E+00   -0.31082E+00 28224   0.502E+00    0.767E+00
DAV:   3    -0.286904510954E+03    0.85103E-01   -0.76644E-01 35936   0.184E+00    0.322E+00
DAV:   4    -0.286934548965E+03   -0.30038E-01   -0.38663E-01 36720   0.100E+00    0.387E+00
DAV:   5    -0.286911502960E+03    0.23046E-01   -0.15884E-01 34456   0.833E-01    0.200E+00
DAV:   6    -0.286911719985E+03   -0.21702E-03   -0.73824E-02 34216   0.405E-01    0.124E+00
DAV:   7    -0.286908884993E+03    0.28350E-02   -0.18229E-02 30368   0.395E-01    0.963E-01
DAV:   8    -0.286910745156E+03   -0.18602E-02   -0.43128E-02 36984   0.326E-01    0.970E-01
DAV:   9    -0.286912906287E+03   -0.21611E-02   -0.12219E-02 31928   0.225E-01    0.780E-01
DAV:  10    -0.286912576203E+03    0.33008E-03   -0.14867E-03 33544   0.129E-01    0.681E-01
DAV:  11    -0.286912261856E+03    0.31435E-03   -0.19509E-03 33312   0.135E-01    0.470E-01
DAV:  12    -0.286912407819E+03   -0.14596E-03   -0.18307E-03 33552   0.171E-01    0.319E-01
DAV:  13    -0.286912458200E+03   -0.50381E-04   -0.65984E-04 29120   0.738E-02    0.316E-01
DAV:  14    -0.286912397428E+03    0.60772E-04   -0.33776E-04 32200   0.730E-02    0.154E-01
DAV:  15    -0.286912467587E+03   -0.70159E-04   -0.30163E-04 33400   0.551E-02    0.532E-02
DAV:  16    -0.286912493849E+03   -0.26262E-04   -0.89804E-05 19808   0.230E-02    0.633E-02
DAV:  17    -0.286912494406E+03   -0.55689E-06   -0.22857E-05 14984   0.133E-02
   6 F= -.28691249E+03 E0= -.28690115E+03  d E =-.159079E+00  mag=    10.0000
       N       E                     dE             d eps       ncg     rms          rms(c)
DAV:   1    -0.286611394233E+03    0.30110E+00   -0.85682E+01 25344   0.355E+01    0.327E+00
DAV:   2    -0.287153218365E+03   -0.54182E+00   -0.60158E+00 26928   0.703E+00    0.116E+01
DAV:   3    -0.286991891703E+03    0.16133E+00   -0.24798E+00 34944   0.249E+00    0.500E+00
DAV:   4    -0.287037596827E+03   -0.45705E-01   -0.93920E-01 36648   0.145E+00    0.459E+00
DAV:   5    -0.287008416530E+03    0.29180E-01   -0.21866E-01 34000   0.109E+00    0.350E+00
DAV:   6    -0.286995425881E+03    0.12991E-01   -0.16175E-01 34248   0.706E-01    0.184E+00
DAV:   7    -0.286998110360E+03   -0.26845E-02   -0.11565E-01 34552   0.652E-01    0.271E+00
DAV:   8    -0.286998848075E+03   -0.73772E-03   -0.22027E-01 33728   0.622E-01    0.234E+00
DAV:   9    -0.286996786520E+03    0.20616E-02   -0.31221E-02 31888   0.356E-01    0.107E+00
DAV:  10    -0.286998750307E+03   -0.19638E-02   -0.88147E-03 35384   0.178E-01    0.110E+00
DAV:  11    -0.286997912463E+03    0.83784E-03   -0.21534E-03 31024   0.116E-01    0.781E-01
DAV:  12    -0.286997780298E+03    0.13217E-03   -0.42970E-03 33424   0.146E-01    0.673E-01
DAV:  13    -0.286997875442E+03   -0.95144E-04   -0.72288E-03 34496   0.144E-01    0.419E-01
DAV:  14    -0.286998210800E+03   -0.33536E-03   -0.12821E-03 31080   0.818E-02    0.364E-01
DAV:  15    -0.286998097524E+03    0.11328E-03   -0.33572E-04 28240   0.459E-02    0.254E-01
DAV:  16    -0.286998133419E+03   -0.35895E-04   -0.33312E-04 28840   0.540E-02    0.157E-01
DAV:  17    -0.286998221052E+03   -0.87633E-04   -0.27424E-04 31320   0.550E-02    0.126E-01
DAV:  18    -0.286998234476E+03   -0.13424E-04   -0.78568E-05 22440   0.258E-02    0.144E-01
DAV:  19    -0.286998211914E+03    0.22562E-04   -0.26317E-04 23648   0.399E-02    0.480E-02
DAV:  20    -0.286998233246E+03   -0.21332E-04   -0.61758E-05 21288   0.227E-02    0.619E-02
DAV:  21    -0.286998231142E+03    0.21032E-05   -0.15596E-05 15088   0.134E-02
   7 F= -.28699823E+03 E0= -.28698675E+03  d E =-.857367E-01  mag=    10.0000
       N       E                     dE             d eps       ncg     rms          rms(c)
DAV:   1    -0.286991896156E+03    0.63371E-02   -0.18468E+01 25056   0.164E+01    0.142E+00
DAV:   2    -0.287064318625E+03   -0.72422E-01   -0.80953E-01 24904   0.291E+00    0.144E+00
DAV:   3    -0.287089681782E+03   -0.25363E-01   -0.29890E-01 36552   0.876E-01    0.570E+00
DAV:   4    -0.287049424605E+03    0.40257E-01   -0.25278E-01 33856   0.699E-01    0.115E+00
DAV:   5    -0.287063029915E+03   -0.13605E-01   -0.29022E-02 31944   0.361E-01    0.104E+00
DAV:   6    -0.287060910678E+03    0.21192E-02   -0.10937E-02 33104   0.294E-01    0.478E-01
DAV:   7    -0.287062866471E+03   -0.19558E-02   -0.20471E-02 35152   0.257E-01    0.111E+00
DAV:   8    -0.287061305347E+03    0.15611E-02   -0.15616E-02 34168   0.232E-01    0.480E-01
DAV:   9    -0.287062194662E+03   -0.88931E-03   -0.13909E-03 29848   0.914E-02    0.458E-01
DAV:  10    -0.287062135437E+03    0.59225E-04   -0.48996E-04 32160   0.749E-02    0.390E-01
DAV:  11    -0.287062035124E+03    0.10031E-03   -0.47074E-04 32768   0.775E-02    0.250E-01
DAV:  12    -0.287062082081E+03   -0.46957E-04   -0.51137E-04 34560   0.723E-02    0.155E-01
DAV:  13    -0.287062109658E+03   -0.27577E-04   -0.13463E-04 27496   0.348E-02    0.991E-02
DAV:  14    -0.287062128564E+03   -0.18907E-04   -0.10945E-04 22712   0.344E-02    0.568E-02
DAV:  15    -0.287062140343E+03   -0.11779E-04   -0.74464E-05 24704   0.255E-02    0.540E-02
DAV:  16    -0.287062139132E+03    0.12107E-05   -0.89216E-06 14656   0.122E-02
   8 F= -.28706214E+03 E0= -.28705070E+03  d E =-.639080E-01  mag=    10.0000
       N       E                     dE             d eps       ncg     rms          rms(c)
DAV:   1    -0.287067959989E+03   -0.58196E-02   -0.97516E+00 25344   0.119E+01    0.106E+00
DAV:   2    -0.287110427159E+03   -0.42467E-01   -0.47936E-01 25752   0.218E+00    0.162E+00
DAV:   3    -0.287112019824E+03   -0.15927E-02   -0.13746E-01 39392   0.723E-01    0.215E+00
DAV:   4    -0.287111379845E+03    0.63998E-03   -0.95180E-02 35384   0.478E-01    0.223E+00
DAV:   5    -0.287104502585E+03    0.68773E-02   -0.37660E-02 34280   0.361E-01    0.333E-01
DAV:   6    -0.287107258861E+03   -0.27563E-02   -0.14032E-02 34144   0.235E-01    0.920E-01
DAV:   7    -0.287106104499E+03    0.11544E-02   -0.13316E-02 34328   0.212E-01    0.458E-01
DAV:   8    -0.287106326910E+03   -0.22241E-03   -0.18480E-03 31568   0.113E-01    0.208E-01
DAV:   9    -0.287106422677E+03   -0.95767E-04   -0.36048E-04 30752   0.401E-02    0.240E-01
DAV:  10    -0.287106387504E+03    0.35173E-04   -0.82840E-05 19896   0.261E-02    0.189E-01
DAV:  11    -0.287106354742E+03    0.32763E-04   -0.17834E-04 23632   0.306E-02    0.989E-02
DAV:  12    -0.287106392640E+03   -0.37898E-04   -0.24814E-04 26784   0.332E-02    0.727E-02
DAV:  13    -0.287106409205E+03   -0.16565E-04   -0.40770E-05 17464   0.184E-02    0.513E-02
DAV:  14    -0.287106411131E+03   -0.19266E-05   -0.75350E-06 14176   0.102E-02
   9 F= -.28710641E+03 E0= -.28709497E+03  d E =-.442720E-01  mag=    10.0000
       N       E                     dE             d eps       ncg     rms          rms(c)
DAV:   1    -0.287070459848E+03    0.35949E-01   -0.14555E+01 25104   0.142E+01    0.111E+00
DAV:   2    -0.287131931951E+03   -0.61472E-01   -0.67642E-01 25208   0.257E+00    0.172E+00
DAV:   3    -0.287132095812E+03   -0.16386E-03   -0.13736E-01 38384   0.754E-01    0.167E+00
DAV:   4    -0.287128060438E+03    0.40354E-02   -0.30282E-02 35776   0.428E-01    0.874E-01
DAV:   5    -0.287128360777E+03   -0.30034E-03   -0.15858E-02 34776   0.214E-01    0.813E-01
DAV:   6    -0.287128273926E+03    0.86851E-04   -0.19730E-02 33608   0.265E-01    0.103E+00
DAV:   7    -0.287126936752E+03    0.13372E-02   -0.98722E-03 33568   0.177E-01    0.462E-01
DAV:   8    -0.287127281536E+03   -0.34478E-03   -0.38932E-03 34576   0.125E-01    0.213E-01
DAV:   9    -0.287127735754E+03   -0.45422E-03   -0.12550E-03 29904   0.697E-02    0.248E-01
DAV:  10    -0.287127734583E+03    0.11712E-05   -0.23399E-04 27784   0.412E-02    0.222E-01
DAV:  11    -0.287127680092E+03    0.54492E-04   -0.20560E-04 22984   0.357E-02    0.137E-01
DAV:  12    -0.287127670953E+03    0.91388E-05   -0.32445E-04 30920   0.502E-02    0.418E-02
DAV:  13    -0.287127708560E+03   -0.37607E-04   -0.54274E-05 22120   0.254E-02    0.515E-02
DAV:  14    -0.287127709941E+03   -0.13807E-05   -0.18825E-05 14248   0.137E-02
  10 F= -.28712771E+03 E0= -.28711616E+03  d E =-.212988E-01  mag=    10.0000
       N       E                     dE             d eps       ncg     rms          rms(c)
DAV:   1    -0.286986490059E+03    0.14122E+00   -0.34026E+01 25344   0.224E+01    0.192E+00
DAV:   2    -0.287150306095E+03   -0.16382E+00   -0.17296E+00 24944   0.403E+00    0.467E+00
DAV:   3    -0.287139938942E+03    0.10367E-01   -0.59721E-01 35208   0.115E+00    0.354E+00
DAV:   4    -0.287155249839E+03   -0.15311E-01   -0.30342E-01 35240   0.903E-01    0.543E+00
DAV:   5    -0.287120359431E+03    0.34890E-01   -0.30952E-01 33496   0.726E-01    0.143E+00
DAV:   6    -0.287132858719E+03   -0.12499E-01   -0.37383E-02 33216   0.422E-01    0.137E+00
DAV:   7    -0.287129110757E+03    0.37480E-02   -0.25364E-02 34024   0.343E-01    0.851E-01
DAV:   8    -0.287129158251E+03   -0.47494E-04   -0.22802E-02 33296   0.270E-01    0.104E+00
DAV:   9    -0.287130479464E+03   -0.13212E-02   -0.24041E-02 31528   0.221E-01    0.600E-01
DAV:  10    -0.287131742312E+03   -0.12628E-02   -0.42044E-03 32112   0.157E-01    0.620E-01
DAV:  11    -0.287131713737E+03    0.28575E-04   -0.11556E-03 32776   0.935E-02    0.537E-01
DAV:  12    -0.287131584699E+03    0.12904E-03   -0.65157E-04 32904   0.693E-02    0.405E-01
DAV:  13    -0.287131592001E+03   -0.73022E-05   -0.18820E-03 31808   0.107E-01    0.246E-01
DAV:  14    -0.287131711156E+03   -0.11915E-03   -0.44435E-04 32088   0.626E-02    0.213E-01
DAV:  15    -0.287131688892E+03    0.22264E-04   -0.98535E-05 22160   0.279E-02    0.159E-01
DAV:  16    -0.287131673138E+03    0.15754E-04   -0.14393E-04 26144   0.372E-02    0.866E-02
DAV:  17    -0.287131718402E+03   -0.45264E-04   -0.30321E-04 24720   0.328E-02    0.861E-02
DAV:  18    -0.287131733212E+03   -0.14810E-04   -0.75808E-05 20192   0.296E-02    0.825E-02
DAV:  19    -0.287131726666E+03    0.65465E-05   -0.11338E-05 15656   0.129E-02
  11 F= -.28713173E+03 E0= -.28711954E+03  d E =-.401672E-02  mag=    10.0000
       N       E                     dE             d eps       ncg     rms          rms(c)
DAV:   1    -0.287059086363E+03    0.72647E-01   -0.24064E+01 25344   0.186E+01    0.194E+00
DAV:   2    -0.287172911488E+03   -0.11383E+00   -0.12106E+00 25208   0.337E+00    0.340E+00
DAV:   3    -0.287172785893E+03    0.12560E-03   -0.46506E-01 35664   0.122E+00    0.341E+00
DAV:   4    -0.287163802668E+03    0.89832E-02   -0.16093E-01 34048   0.778E-01    0.291E+00
DAV:   5    -0.287155186631E+03    0.86160E-02   -0.82820E-02 33848   0.495E-01    0.838E-01
DAV:   6    -0.287163062447E+03   -0.78758E-02   -0.55241E-02 33528   0.418E-01    0.219E+00
DAV:   7    -0.287155479335E+03    0.75831E-02   -0.41052E-02 34048   0.338E-01    0.585E-01
DAV:   8    -0.287157702083E+03   -0.22227E-02   -0.52687E-03 31992   0.155E-01    0.369E-01
DAV:   9    -0.287158264278E+03   -0.56220E-03   -0.12106E-03 29288   0.847E-02    0.360E-01
DAV:  10    -0.287158257357E+03    0.69213E-05   -0.95383E-04 31536   0.756E-02    0.280E-01
DAV:  11    -0.287158239405E+03    0.17952E-04   -0.87806E-04 32440   0.681E-02    0.237E-01
DAV:  12    -0.287158262056E+03   -0.22651E-04   -0.53613E-04 28352   0.468E-02    0.141E-01
DAV:  13    -0.287158331442E+03   -0.69386E-04   -0.39541E-04 22400   0.347E-02    0.115E-01
DAV:  14    -0.287158346098E+03   -0.14656E-04   -0.95513E-05 23080   0.323E-02    0.690E-02
DAV:  15    -0.287158350313E+03   -0.42148E-05   -0.46770E-05 21280   0.234E-02
  12 F= -.28715835E+03 E0= -.28714616E+03  d E =-.266236E-01  mag=    10.0000
       N       E                     dE             d eps       ncg     rms          rms(c)
DAV:   1    -0.287113179864E+03    0.45166E-01   -0.15862E+01 25344   0.140E+01    0.207E+00
DAV:   2    -0.287175310955E+03   -0.62131E-01   -0.67425E-01 26712   0.255E+00    0.234E+00
DAV:   3    -0.287194018257E+03   -0.18707E-01   -0.45864E-01 36016   0.106E+00    0.446E+00
DAV:   4    -0.287183158960E+03    0.10859E-01   -0.39060E-01 33784   0.860E-01    0.411E+00
DAV:   5    -0.287160266411E+03    0.22893E-01   -0.14609E-01 33672   0.646E-01    0.104E+00
DAV:   6    -0.287167534324E+03   -0.72679E-02   -0.34546E-02 34080   0.336E-01    0.120E+00
DAV:   7    -0.287165451249E+03    0.20831E-02   -0.25767E-02 33736   0.332E-01    0.654E-01
DAV:   8    -0.287166199696E+03   -0.74845E-03   -0.86982E-03 31968   0.208E-01    0.417E-01
DAV:   9    -0.287166774383E+03   -0.57469E-03   -0.27932E-03 32040   0.102E-01    0.333E-01
DAV:  10    -0.287166976706E+03   -0.20232E-03   -0.16362E-03 32464   0.102E-01    0.425E-01
DAV:  11    -0.287166699663E+03    0.27704E-03   -0.10088E-03 33096   0.745E-02    0.187E-01
DAV:  12    -0.287166810010E+03   -0.11035E-03   -0.21906E-04 29720   0.390E-02    0.117E-01
DAV:  13    -0.287166842661E+03   -0.32650E-04   -0.10172E-04 21656   0.264E-02    0.863E-02
DAV:  14    -0.287166865217E+03   -0.22556E-04   -0.10469E-04 21816   0.299E-02    0.869E-02
DAV:  15    -0.287166860490E+03    0.47274E-05   -0.12700E-04 20568   0.269E-02    0.717E-02
DAV:  16    -0.287166859233E+03    0.12571E-05   -0.53462E-05 17848   0.193E-02
  13 F= -.28716686E+03 E0= -.28715462E+03  d E =-.850892E-02  mag=    10.0000
       N       E                     dE             d eps       ncg     rms          rms(c)
DAV:   1    -0.287180243217E+03   -0.13383E-01   -0.18491E+00 24768   0.408E+00    0.982E-01
DAV:   2    -0.287187468592E+03   -0.72254E-02   -0.82180E-02 29576   0.831E-01    0.742E-01
DAV:   3    -0.287198026388E+03   -0.10558E-01   -0.12069E-01 34352   0.473E-01    0.380E+00
DAV:   4    -0.287180684927E+03    0.17341E-01   -0.11526E-01 32328   0.454E-01    0.122E+00
DAV:   5    -0.287184917072E+03   -0.42321E-02   -0.15477E-02 31352   0.257E-01    0.311E-01
DAV:   6    -0.287185540989E+03   -0.62392E-03   -0.17936E-03 29208   0.134E-01    0.277E-01
DAV:   7    -0.287186063528E+03   -0.52254E-03   -0.63793E-03 33624   0.135E-01    0.679E-01
DAV:   8    -0.287185420337E+03    0.64319E-03   -0.55145E-03 32944   0.126E-01    0.239E-01
DAV:   9    -0.287185765976E+03   -0.34564E-03   -0.95293E-04 28256   0.626E-02    0.182E-01
DAV:  10    -0.287185768776E+03   -0.28003E-05   -0.15049E-04 28040   0.433E-02    0.128E-01
DAV:  11    -0.287185747018E+03    0.21758E-04   -0.17474E-04 30600   0.476E-02    0.439E-02
DAV:  12    -0.287185762424E+03   -0.15405E-04   -0.74726E-05 19640   0.197E-02    0.423E-02
DAV:  13    -0.287185766589E+03   -0.41655E-05   -0.22860E-05 15184   0.131E-02
  14 F= -.28718577E+03 E0= -.28717355E+03  d E =-.189074E-01  mag=    10.0000
       N       E                     dE             d eps       ncg     rms          rms(c)
DAV:   1    -0.287180381663E+03    0.53808E-02   -0.38810E+00 25344   0.667E+00    0.433E-01
DAV:   2    -0.287191966133E+03   -0.11584E-01   -0.12328E-01 25088   0.112E+00    0.526E-01
DAV:   3    -0.287193386613E+03   -0.14205E-02   -0.23815E-02 34704   0.294E-01    0.119E+00
DAV:   4    -0.287191168958E+03    0.22177E-02   -0.11083E-02 34520   0.206E-01    0.402E-01
DAV:   5    -0.287191730839E+03   -0.56188E-03   -0.33543E-03 32448   0.993E-02    0.284E-01
DAV:   6    -0.287191782447E+03   -0.51608E-04   -0.28790E-03 33728   0.106E-01    0.401E-01
DAV:   7    -0.287191452348E+03    0.33010E-03   -0.20592E-03 34488   0.951E-02    0.125E-01
DAV:   8    -0.287191527393E+03   -0.75046E-04   -0.23245E-04 30080   0.484E-02    0.928E-02
DAV:   9    -0.287191572496E+03   -0.45103E-04   -0.35318E-04 24848   0.306E-02    0.100E-01
DAV:  10    -0.287191592438E+03   -0.19942E-04   -0.17693E-04 27384   0.407E-02    0.779E-02
DAV:  11    -0.287191595587E+03   -0.31486E-05   -0.45531E-05 20808   0.240E-02
  15 F= -.28719160E+03 E0= -.28717925E+03  d E =-.582900E-02  mag=    10.0000
       N       E                     dE             d eps       ncg     rms          rms(c)
DAV:   1    -0.286955130351E+03    0.23646E+00   -0.88229E+01 25344   0.315E+01    0.205E+00
DAV:   2    -0.287221295902E+03   -0.26617E+00   -0.28199E+00 25744   0.526E+00    0.295E+00
DAV:   3    -0.287248343750E+03   -0.27048E-01   -0.55666E-01 34912   0.142E+00    0.642E+00
DAV:   4    -0.287210118079E+03    0.38226E-01   -0.52875E-01 33392   0.986E-01    0.352E+00
DAV:   5    -0.287208395043E+03    0.17230E-02   -0.13512E-01 33208   0.585E-01    0.148E+00
DAV:   6    -0.287213521709E+03   -0.51267E-02   -0.45960E-02 34208   0.371E-01    0.176E+00
DAV:   7    -0.287206549937E+03    0.69718E-02   -0.36247E-02 33744   0.465E-01    0.968E-01
DAV:   8    -0.287206942674E+03   -0.39274E-03   -0.11390E-02 31936   0.274E-01    0.776E-01
DAV:   9    -0.287208114372E+03   -0.11717E-02   -0.82002E-03 31288   0.168E-01    0.744E-01
DAV:  10    -0.287208800374E+03   -0.68600E-03   -0.44805E-03 33480   0.182E-01    0.690E-01
DAV:  11    -0.287208878304E+03   -0.77931E-04   -0.13362E-03 32144   0.100E-01    0.682E-01
DAV:  12    -0.287208692536E+03    0.18577E-03   -0.81176E-04 33072   0.740E-02    0.546E-01
DAV:  13    -0.287208614828E+03    0.77709E-04   -0.17463E-03 31920   0.594E-02    0.152E-01
DAV:  14    -0.287208983007E+03   -0.36818E-03   -0.74290E-04 28480   0.645E-02    0.140E-01
DAV:  15    -0.287209043139E+03   -0.60131E-04   -0.22570E-04 30048   0.442E-02    0.135E-01
DAV:  16    -0.287209030340E+03    0.12798E-04   -0.10872E-04 20512   0.299E-02    0.622E-02
DAV:  17    -0.287209045054E+03   -0.14714E-04   -0.29332E-05 18584   0.196E-02    0.648E-02
DAV:  18    -0.287209044588E+03    0.46637E-06   -0.18158E-05 15464   0.136E-02
  16 F= -.28720904E+03 E0= -.28719669E+03  d E =-.174490E-01  mag=    10.0000
       N       E                     dE             d eps       ncg     rms          rms(c)
DAV:   1    -0.280308180443E+03    0.69009E+01   -0.30308E+02 25472   0.461E+01    0.278E+01
DAV:   2    -0.281285633846E+03   -0.97745E+00   -0.16208E+01 29376   0.948E+00    0.108E+01
DAV:   3    -0.283247090380E+03   -0.19615E+01   -0.26081E+01 33736   0.101E+01    0.321E+01
DAV:   4    -0.280785699460E+03    0.24614E+01   -0.10657E+01 34168   0.867E+00    0.100E+01
DAV:   5    -0.281128296393E+03   -0.34260E+00   -0.78368E+00 34128   0.363E+00    0.197E+01
DAV:   6    -0.280609070508E+03    0.51923E+00   -0.32607E+00 33072   0.264E+00    0.958E+00
DAV:   7    -0.280698857738E+03   -0.89787E-01   -0.78597E-02 28848   0.835E-01    0.964E+00
DAV:   8    -0.280785856553E+03   -0.86999E-01   -0.17826E-01 34800   0.764E-01    0.100E+01
DAV:   9    -0.280780104051E+03    0.57525E-02   -0.46226E-03 26984   0.212E-01    0.101E+01
DAV:  10    -0.280755766114E+03    0.24338E-01   -0.41123E-02 33544   0.333E-01    0.942E+00
DAV:  11    -0.280758742252E+03   -0.29761E-02   -0.71223E-02 34056   0.414E-01    0.947E+00
DAV:  12    -0.280749571487E+03    0.91708E-02   -0.15397E-02 29872   0.315E-01    0.891E+00
DAV:  13    -0.280823552272E+03   -0.73981E-01   -0.10484E+00 34152   0.200E+00    0.910E+00
DAV:  14    -0.280852362888E+03   -0.28811E-01   -0.13853E+00 34216   0.225E+00    0.876E+00
DAV:  15    -0.280791961247E+03    0.60402E-01   -0.16359E-01 30744   0.114E+00    0.831E+00
DAV:  16    -0.280769990984E+03    0.21970E-01   -0.14984E-01 32768   0.703E-01    0.735E+00
DAV:  17    -0.280853446039E+03   -0.83455E-01   -0.33696E-01 34384   0.104E+00    0.761E+00
DAV:  18    -0.280872600640E+03   -0.19155E-01   -0.45216E-02 29616   0.514E-01    0.757E+00
DAV:  19    -0.280844802937E+03    0.27798E-01   -0.69272E-02 33680   0.504E-01    0.676E+00
DAV:  20    -0.280818880278E+03    0.25923E-01   -0.58385E-02 33696   0.474E-01    0.636E+00
DAV:  21    -0.280812238456E+03    0.66418E-02   -0.21758E-02 32504   0.378E-01    0.576E+00
DAV:  22    -0.280796324405E+03    0.15914E-01   -0.37803E-02 34424   0.425E-01    0.439E+00
DAV:  23    -0.280804575541E+03   -0.82511E-02   -0.13902E-02 29920   0.254E-01    0.384E+00
DAV:  24    -0.280808780566E+03   -0.42050E-02   -0.68315E-03 31136   0.144E-01    0.352E+00
DAV:  25    -0.280812745935E+03   -0.39654E-02   -0.13430E-03 30960   0.107E-01    0.337E+00
DAV:  26    -0.280814180888E+03   -0.14350E-02   -0.18329E-02 32768   0.239E-01    0.285E+00
DAV:  27    -0.280818291556E+03   -0.41107E-02   -0.41503E-03 30560   0.173E-01    0.257E+00
DAV:  28    -0.280822527065E+03   -0.42355E-02   -0.40486E-03 33480   0.140E-01    0.278E+00
DAV:  29    -0.280822154602E+03    0.37246E-03   -0.92883E-03 32320   0.276E-01    0.204E+00
DAV:  30    -0.280824045105E+03   -0.18905E-02   -0.20524E-02 33976   0.271E-01    0.156E+00
DAV:  31    -0.280826093450E+03   -0.20483E-02   -0.16262E-03 26016   0.137E-01    0.163E+00
DAV:  32    -0.280825565724E+03    0.52773E-03   -0.60515E-04 29136   0.659E-02    0.160E+00
DAV:  33    -0.280828971235E+03   -0.34055E-02   -0.34973E-02 34888   0.306E-01    0.178E+00
DAV:  34    -0.280826129578E+03    0.28417E-02   -0.68430E-03 29392   0.247E-01    0.115E+00
DAV:  35    -0.280826203215E+03   -0.73637E-04   -0.53704E-03 34400   0.137E-01    0.541E-01
DAV:  36    -0.280827553330E+03   -0.13501E-02   -0.42678E-04 27288   0.883E-02    0.488E-01
DAV:  37    -0.280827558158E+03   -0.48284E-05   -0.10804E-03 33536   0.671E-02    0.289E-01
DAV:  38    -0.280827814220E+03   -0.25606E-03   -0.48637E-04 30704   0.529E-02    0.175E-01
DAV:  39    -0.280827909246E+03   -0.95026E-04   -0.66755E-05 21728   0.274E-02    0.187E-01
DAV:  40    -0.280827906716E+03    0.25294E-05   -0.10840E-04 20176   0.264E-02    0.964E-02
DAV:  41    -0.280827925528E+03   -0.18812E-04   -0.25409E-05 17224   0.146E-02    0.834E-02
DAV:  42    -0.280827927794E+03   -0.22665E-05   -0.24526E-05 15448   0.114E-02
  17 F= -.28082793E+03 E0= -.28081459E+03  d E =0.638112E+01  mag=    10.0004
       N       E                     dE             d eps       ncg     rms          rms(c)
DAV:   1    -0.286733093352E+03   -0.59052E+01   -0.27860E+02 25344   0.320E+01    0.137E+01
DAV:   2    -0.287580958678E+03   -0.84787E+00   -0.15202E+01 29736   0.942E+00    0.101E+01
DAV:   3    -0.288221644167E+03   -0.64069E+00   -0.14435E+01 33568   0.647E+00    0.177E+01
DAV:   4    -0.287952874706E+03    0.26877E+00   -0.12355E+01 34680   0.433E+00    0.181E+01
DAV:   5    -0.287433436813E+03    0.51944E+00   -0.60371E+00 33624   0.281E+00    0.143E+01
DAV:   6    -0.287130153227E+03    0.30328E+00   -0.32690E+00 33400   0.266E+00    0.788E+00
DAV:   7    -0.287599301160E+03   -0.46915E+00   -0.53646E+00 34568   0.326E+00    0.159E+01
DAV:   8    -0.287134493294E+03    0.46481E+00   -0.12334E+00 32848   0.203E+00    0.829E+00
DAV:   9    -0.287127103029E+03    0.73903E-02   -0.30537E-01 32328   0.996E-01    0.555E+00
DAV:  10    -0.287136770250E+03   -0.96672E-02   -0.73893E-02 30856   0.712E-01    0.470E+00
DAV:  11    -0.287128781832E+03    0.79884E-02   -0.54279E-02 33656   0.541E-01    0.352E+00
DAV:  12    -0.287126841343E+03    0.19405E-02   -0.95052E-02 33904   0.431E-01    0.246E+00
DAV:  13    -0.287137698979E+03   -0.10858E-01   -0.21577E-01 33440   0.673E-01    0.256E+00
DAV:  14    -0.287138826109E+03   -0.11271E-02   -0.16607E-02 30320   0.348E-01    0.244E+00
DAV:  15    -0.287135783826E+03    0.30423E-02   -0.62128E-03 33600   0.175E-01    0.211E+00
DAV:  16    -0.287134542901E+03    0.12409E-02   -0.15318E-02 34080   0.231E-01    0.118E+00
DAV:  17    -0.287138306692E+03   -0.37638E-02   -0.25155E-02 33440   0.298E-01    0.133E+00
DAV:  18    -0.287138027231E+03    0.27946E-03   -0.67657E-03 28928   0.208E-01    0.721E-01
DAV:  19    -0.287138557975E+03   -0.53074E-03   -0.43691E-03 33648   0.141E-01    0.726E-01
DAV:  20    -0.287138362110E+03    0.19587E-03   -0.94813E-04 31520   0.110E-01    0.641E-01
DAV:  21    -0.287138209778E+03    0.15233E-03   -0.20328E-03 33984   0.103E-01    0.486E-01
DAV:  22    -0.287138112702E+03    0.97076E-04   -0.20248E-03 32032   0.935E-02    0.248E-01
DAV:  23    -0.287138378785E+03   -0.26608E-03   -0.54344E-04 31536   0.804E-02    0.125E-01
DAV:  24    -0.287138451046E+03   -0.72261E-04   -0.36467E-04 31112   0.502E-02    0.107E-01
DAV:  25    -0.287138471546E+03   -0.20500E-04   -0.10951E-04 20120   0.248E-02    0.140E-01
DAV:  26    -0.287138457744E+03    0.13802E-04   -0.18514E-05 16368   0.154E-02    0.121E-01
DAV:  27    -0.287138455177E+03    0.25669E-05   -0.50697E-05 19968   0.199E-02
  18 F= -.28713846E+03 E0= -.28712617E+03  d E =-.631053E+01  mag=    10.0000
       N       E                     dE             d eps       ncg     rms          rms(c)
DAV:   1    -0.287132428191E+03    0.60296E-02   -0.10542E+00 25360   0.288E+00    0.837E-01
DAV:   2    -0.287137459327E+03   -0.50311E-02   -0.55567E-02 30856   0.666E-01    0.112E+00
DAV:   3    -0.287140081814E+03   -0.26225E-02   -0.71889E-02 34688   0.375E-01    0.202E+00
DAV:   4    -0.287135115016E+03    0.49668E-02   -0.34140E-02 33376   0.331E-01    0.950E-01
DAV:   5    -0.287135061748E+03    0.53268E-04   -0.10644E-02 32848   0.203E-01    0.359E-01
DAV:   6    -0.287135189128E+03   -0.12738E-03   -0.11707E-03 30776   0.106E-01    0.318E-01
DAV:   7    -0.287135932777E+03   -0.74365E-03   -0.95472E-03 34008   0.138E-01    0.878E-01
DAV:   8    -0.287135047000E+03    0.88578E-03   -0.89592E-03 33032   0.149E-01    0.325E-01
DAV:   9    -0.287135491615E+03   -0.44461E-03   -0.15530E-03 30328   0.894E-02    0.221E-01
DAV:  10    -0.287135500786E+03   -0.91705E-05   -0.66701E-04 31744   0.773E-02    0.162E-01
DAV:  11    -0.287135489659E+03    0.11127E-04   -0.31454E-04 28120   0.407E-02    0.530E-02
DAV:  12    -0.287135516807E+03   -0.27148E-04   -0.11314E-04 19816   0.226E-02    0.605E-02
DAV:  13    -0.287135524905E+03   -0.80979E-05   -0.55092E-05 17136   0.172E-02
  19 F= -.28713552E+03 E0= -.28712327E+03  d E =0.293027E-02  mag=    10.0000
       N       E                     dE             d eps       ncg     rms          rms(c)
DAV:   1    -0.287069098315E+03    0.66418E-01   -0.78369E+00 25344   0.882E+00    0.218E+00
DAV:   2    -0.287115614211E+03   -0.46516E-01   -0.50983E-01 30760   0.200E+00    0.465E+00
DAV:   3    -0.287105481457E+03    0.10133E-01   -0.64584E-01 33992   0.104E+00    0.358E+00
DAV:   4    -0.287099472542E+03    0.60089E-02   -0.10512E-01 33672   0.709E-01    0.314E+00
DAV:   5    -0.287088961426E+03    0.10511E-01   -0.88771E-02 33248   0.407E-01    0.162E+00
DAV:   6    -0.287090712863E+03   -0.17514E-02   -0.24198E-02 34008   0.329E-01    0.128E+00
DAV:   7    -0.287089235697E+03    0.14772E-02   -0.26293E-02 34456   0.306E-01    0.954E-01
DAV:   8    -0.287090658531E+03   -0.14228E-02   -0.33975E-02 33216   0.307E-01    0.751E-01
DAV:   9    -0.287093005515E+03   -0.23470E-02   -0.20336E-02 32560   0.243E-01    0.929E-01
DAV:  10    -0.287092916978E+03    0.88538E-04   -0.33752E-03 31528   0.163E-01    0.104E+00
DAV:  11    -0.287092144290E+03    0.77269E-03   -0.15082E-03 33680   0.962E-02    0.793E-01
DAV:  12    -0.287092033601E+03    0.11069E-03   -0.17423E-03 32608   0.730E-02    0.494E-01
DAV:  13    -0.287092339474E+03   -0.30587E-03   -0.19227E-03 28792   0.612E-02    0.255E-01
DAV:  14    -0.287092608460E+03   -0.26899E-03   -0.35978E-04 25128   0.528E-02    0.169E-01
DAV:  15    -0.287092652169E+03   -0.43709E-04   -0.10590E-04 21288   0.291E-02    0.138E-01
DAV:  16    -0.287092681847E+03   -0.29678E-04   -0.18988E-04 25600   0.343E-02    0.159E-01
DAV:  17    -0.287092655521E+03    0.26325E-04   -0.10386E-04 20056   0.234E-02    0.835E-02
DAV:  18    -0.287092666024E+03   -0.10502E-04   -0.56342E-05 15632   0.158E-02    0.602E-02
DAV:  19    -0.287092669993E+03   -0.39690E-05   -0.24125E-05 16088   0.125E-02
  20 F= -.28709267E+03 E0= -.28708024E+03  d E =0.428549E-01  mag=    10.0000
       N       E                     dE             d eps       ncg     rms          rms(c)
DAV:   1    -0.287176126543E+03   -0.83461E-01   -0.13271E+00 25368   0.311E+00    0.918E-01
DAV:   2    -0.287181214378E+03   -0.50878E-02   -0.58205E-02 30296   0.679E-01    0.679E-01
DAV:   3    -0.287188524242E+03   -0.73099E-02   -0.84692E-02 34752   0.441E-01    0.268E+00
DAV:   4    -0.287177277352E+03    0.11247E-01   -0.49642E-02 33520   0.376E-01    0.829E-01
DAV:   5    -0.287179416687E+03   -0.21393E-02   -0.75991E-03 31728   0.182E-01    0.402E-01
DAV:   6    -0.287179454024E+03   -0.37336E-04   -0.15250E-03 31536   0.105E-01    0.397E-01
DAV:   7    -0.287179731176E+03   -0.27715E-03   -0.90068E-03 34424   0.144E-01    0.711E-01
DAV:   8    -0.287179497565E+03    0.23361E-03   -0.11214E-02 33936   0.161E-01    0.343E-01
DAV:   9    -0.287179916616E+03   -0.41905E-03   -0.91430E-04 30352   0.931E-02    0.270E-01
DAV:  10    -0.287179832531E+03    0.84085E-04   -0.31722E-04 31856   0.669E-02    0.142E-01
DAV:  11    -0.287179829389E+03    0.31426E-05   -0.16206E-04 30688   0.506E-02    0.406E-02
DAV:  12    -0.287179855719E+03   -0.26330E-04   -0.14277E-04 21496   0.215E-02    0.546E-02
DAV:  13    -0.287179858502E+03   -0.27832E-05   -0.11211E-05 14856   0.102E-02
  21 F= -.28717986E+03 E0= -.28716735E+03  d E =-.871885E-01  mag=    10.0000
       N       E                     dE             d eps       ncg     rms          rms(c)
DAV:   1    -0.287233292143E+03   -0.53436E-01   -0.12161E+01 24808   0.874E+00    0.340E+00
DAV:   2    -0.287272309572E+03   -0.39017E-01   -0.47734E-01 30296   0.182E+00    0.137E+00
DAV:   3    -0.287300123363E+03   -0.27814E-01   -0.37743E-01 34384   0.111E+00    0.533E+00
DAV:   4    -0.287250207970E+03    0.49915E-01   -0.27670E-01 33744   0.946E-01    0.102E+00
DAV:   5    -0.287260179142E+03   -0.99712E-02   -0.28108E-02 29568   0.415E-01    0.155E+00
DAV:   6    -0.287258190336E+03    0.19888E-02   -0.63375E-02 34144   0.375E-01    0.125E+00
DAV:   7    -0.287269869941E+03   -0.11680E-01   -0.11466E-01 34216   0.462E-01    0.328E+00
DAV:   8    -0.287256005071E+03    0.13865E-01   -0.67910E-02 33208   0.446E-01    0.911E-01
DAV:   9    -0.287261782039E+03   -0.57770E-02   -0.70709E-03 29360   0.220E-01    0.704E-01
DAV:  10    -0.287261785992E+03   -0.39534E-05   -0.18317E-03 33448   0.167E-01    0.469E-01
DAV:  11    -0.287261635793E+03    0.15020E-03   -0.12214E-03 33824   0.109E-01    0.291E-01
DAV:  12    -0.287261749381E+03   -0.11359E-03   -0.18442E-03 32664   0.726E-02    0.202E-01
DAV:  13    -0.287261912249E+03   -0.16287E-03   -0.62698E-04 27008   0.485E-02    0.199E-01
DAV:  14    -0.287261897570E+03    0.14679E-04   -0.10560E-04 21944   0.312E-02    0.166E-01
DAV:  15    -0.287261870677E+03    0.26893E-04   -0.87949E-05 23352   0.293E-02    0.123E-01
DAV:  16    -0.287261862529E+03    0.81481E-05   -0.18122E-04 26552   0.408E-02    0.681E-02
DAV:  17    -0.287261890636E+03   -0.28107E-04   -0.11469E-04 20376   0.243E-02    0.797E-02
DAV:  18    -0.287261889526E+03    0.11098E-05   -0.20999E-05 17672   0.174E-02
  22 F= -.28726189E+03 E0= -.28724927E+03  d E =-.820310E-01  mag=    10.0000
       N       E                     dE             d eps       ncg     rms          rms(c)
DAV:   1    -0.287268574903E+03   -0.66843E-02   -0.42174E-01 25352   0.174E+00    0.613E-01
DAV:   2    -0.287270228291E+03   -0.16534E-02   -0.20250E-02 29840   0.381E-01    0.250E-01
DAV:   3    -0.287270524179E+03   -0.29589E-03   -0.73701E-03 33656   0.174E-01    0.704E-01
DAV:   4    -0.287269682388E+03    0.84179E-03   -0.72126E-03 34552   0.145E-01    0.341E-01
DAV:   5    -0.287269907100E+03   -0.22471E-03   -0.30127E-03 33760   0.823E-02    0.424E-01
DAV:   6    -0.287269567088E+03    0.34001E-03   -0.17780E-03 32112   0.855E-02    0.154E-01
DAV:   7    -0.287269885239E+03   -0.31815E-03   -0.27919E-03 33424   0.809E-02    0.468E-01
DAV:   8    -0.287269640571E+03    0.24467E-03   -0.29329E-03 31888   0.844E-02    0.154E-01
DAV:   9    -0.287269790795E+03   -0.15022E-03   -0.16998E-04 24256   0.388E-02    0.125E-01
DAV:  10    -0.287269775865E+03    0.14930E-04   -0.48233E-05 22200   0.279E-02    0.816E-02
DAV:  11    -0.287269768533E+03    0.73323E-05   -0.47476E-05 24024   0.289E-02
  23 F= -.28726977E+03 E0= -.28725721E+03  d E =-.787901E-02  mag=    10.0000
       N       E                     dE             d eps       ncg     rms          rms(c)
DAV:   1    -0.287269160058E+03    0.61581E-03   -0.91197E-02 25344   0.116E+00    0.166E-01
DAV:   2    -0.287269743995E+03   -0.58394E-03   -0.62081E-03 29032   0.228E-01    0.474E-01
DAV:   3    -0.287269462937E+03    0.28106E-03   -0.31268E-03 33552   0.939E-02    0.235E-01
DAV:   4    -0.287269582922E+03   -0.11999E-03   -0.94260E-04 30752   0.647E-02    0.251E-01
DAV:   5    -0.287269484077E+03    0.98846E-04   -0.66041E-04 25024   0.416E-02    0.101E-01
DAV:   6    -0.287269489282E+03   -0.52057E-05   -0.56980E-05 24640   0.277E-02
  24 F= -.28726949E+03 E0= -.28725697E+03  d E =0.279250E-03  mag=    10.0000
       N       E                     dE             d eps       ncg     rms          rms(c)
DAV:   1    -0.287251126695E+03    0.18357E-01   -0.27488E+00 25344   0.647E+00    0.650E-01
DAV:   2    -0.287266396016E+03   -0.15269E-01   -0.16133E-01 28488   0.119E+00    0.207E+00
DAV:   3    -0.287260824820E+03    0.55712E-02   -0.61349E-02 33968   0.441E-01    0.957E-01
DAV:   4    -0.287263922164E+03   -0.30973E-02   -0.29515E-02 35424   0.309E-01    0.122E+00
DAV:   5    -0.287261172391E+03    0.27498E-02   -0.16574E-02 34504   0.248E-01    0.249E-01
DAV:   6    -0.287262332706E+03   -0.11603E-02   -0.72056E-03 33928   0.133E-01    0.707E-01
DAV:   7    -0.287261427334E+03    0.90537E-03   -0.62421E-03 34880   0.135E-01    0.124E-01
DAV:   8    -0.287261712348E+03   -0.28501E-03   -0.64080E-04 30984   0.628E-02    0.103E-01
DAV:   9    -0.287261801728E+03   -0.89381E-04   -0.33288E-04 25024   0.290E-02    0.134E-01
DAV:  10    -0.287261786778E+03    0.14950E-04   -0.34857E-05 18040   0.195E-02    0.127E-01
DAV:  11    -0.287261775675E+03    0.11104E-04   -0.29654E-05 18456   0.185E-02    0.103E-01
DAV:  12    -0.287261774178E+03    0.14965E-05   -0.76337E-05 23032   0.285E-02
  25 F= -.28726177E+03 E0= -.28724929E+03  d E =0.771510E-02  mag=    10.0000
       N       E                     dE             d eps       ncg     rms          rms(c)
DAV:   1    -0.287245399251E+03    0.16376E-01   -0.37327E+00 25344   0.718E+00    0.599E-01
DAV:   2    -0.287259021394E+03   -0.13622E-01   -0.14857E-01 25912   0.125E+00    0.645E-01
DAV:   3    -0.287261205041E+03   -0.21836E-02   -0.37037E-02 34896   0.371E-01    0.150E+00
DAV:   4    -0.287258585676E+03    0.26194E-02   -0.25868E-02 35024   0.256E-01    0.958E-01
DAV:   5    -0.287258195426E+03    0.39025E-03   -0.40178E-03 32576   0.134E-01    0.431E-01
DAV:   6    -0.287258393213E+03   -0.19779E-03   -0.43188E-04 30912   0.583E-02    0.406E-01
DAV:   7    -0.287258428937E+03   -0.35723E-04   -0.23914E-03 32928   0.741E-02    0.501E-01
DAV:   8    -0.287258155998E+03    0.27294E-03   -0.47184E-03 32968   0.145E-01    0.283E-01
DAV:   9    -0.287258663044E+03   -0.50705E-03   -0.14467E-03 30328   0.811E-02    0.361E-01
DAV:  10    -0.287258518804E+03    0.14424E-03   -0.34519E-04 33016   0.740E-02    0.235E-01
DAV:  11    -0.287258513160E+03    0.56441E-05   -0.27099E-04 33464   0.625E-02    0.798E-02
DAV:  12    -0.287258566894E+03   -0.53735E-04   -0.12156E-04 27352   0.322E-02    0.702E-02
DAV:  13    -0.287258574395E+03   -0.75002E-05   -0.61408E-05 17896   0.172E-02
  26 F= -.28725857E+03 E0= -.28724600E+03  d E =0.319978E-02  mag=    10.0000
       N       E                     dE             d eps       ncg     rms          rms(c)
DAV:   1    -0.287168473988E+03    0.90093E-01   -0.29324E+01 25056   0.184E+01    0.128E+00
DAV:   2    -0.287264938197E+03   -0.96464E-01   -0.10166E+00 26184   0.309E+00    0.332E+00
DAV:   3    -0.287256134588E+03    0.88036E-02   -0.23085E-01 34424   0.899E-01    0.238E+00
DAV:   4    -0.287256722063E+03   -0.58747E-03   -0.83136E-02 34840   0.537E-01    0.196E+00
DAV:   5    -0.287252444250E+03    0.42778E-02   -0.44345E-02 33672   0.308E-01    0.466E-01
DAV:   6    -0.287255817554E+03   -0.33733E-02   -0.23737E-02 34368   0.296E-01    0.131E+00
DAV:   7    -0.287252385117E+03    0.34324E-02   -0.30475E-02 34464   0.328E-01    0.626E-01
DAV:   8    -0.287253232253E+03   -0.84714E-03   -0.33479E-03 29568   0.149E-01    0.290E-01
DAV:   9    -0.287253404998E+03   -0.17275E-03   -0.38773E-04 30720   0.439E-02    0.303E-01
DAV:  10    -0.287253403395E+03    0.16036E-05   -0.14057E-04 22904   0.307E-02    0.303E-01
DAV:  11    -0.287253314731E+03    0.88664E-04   -0.25816E-04 23368   0.366E-02    0.178E-01
DAV:  12    -0.287253335982E+03   -0.21251E-04   -0.49761E-04 29680   0.425E-02    0.733E-02
DAV:  13    -0.287253390550E+03   -0.54568E-04   -0.11165E-04 21480   0.301E-02    0.808E-02
DAV:  14    -0.287253391798E+03   -0.12478E-05   -0.21283E-05 16416   0.163E-02
  27 F= -.28725339E+03 E0= -.28724090E+03  d E =0.518260E-02  mag=    10.0000
       N       E                     dE             d eps       ncg     rms          rms(c)
DAV:   1    -0.286535534719E+03    0.71786E+00   -0.26306E+02 25344   0.482E+01    0.446E+00
DAV:   2    -0.287226340466E+03   -0.69081E+00   -0.75195E+00 27808   0.821E+00    0.436E+00
DAV:   3    -0.287380816360E+03   -0.15448E+00   -0.26393E+00 34296   0.274E+00    0.122E+01
DAV:   4    -0.287296482309E+03    0.84334E-01   -0.32457E+00 33624   0.190E+00    0.117E+01
DAV:   5    -0.287144767662E+03    0.15171E+00   -0.11613E+00 33032   0.137E+00    0.460E+00
DAV:   6    -0.287167185290E+03   -0.22418E-01   -0.22711E-01 32704   0.841E-01    0.166E+00
DAV:   7    -0.287165624184E+03    0.15611E-02   -0.79606E-02 29944   0.794E-01    0.138E+00
DAV:   8    -0.287168421754E+03   -0.27976E-02   -0.57631E-02 32024   0.491E-01    0.914E-01
DAV:   9    -0.287172791683E+03   -0.43699E-02   -0.18902E-02 31264   0.255E-01    0.122E+00
DAV:  10    -0.287171956023E+03    0.83566E-03   -0.12406E-03 29872   0.108E-01    0.124E+00
DAV:  11    -0.287171162000E+03    0.79402E-03   -0.18302E-04 27640   0.387E-02    0.122E+00
DAV:  12    -0.287170776029E+03    0.38597E-03   -0.60743E-04 30088   0.571E-02    0.106E+00
DAV:  13    -0.287170470214E+03    0.30581E-03   -0.48586E-03 32352   0.231E-01    0.588E-01
DAV:  14    -0.287170522797E+03   -0.52583E-04   -0.49318E-03 32776   0.252E-01    0.559E-01
DAV:  15    -0.287170706759E+03   -0.18396E-03   -0.17247E-03 31208   0.106E-01    0.656E-01
DAV:  16    -0.287170722858E+03   -0.16099E-04   -0.30649E-04 31424   0.608E-02    0.605E-01
DAV:  17    -0.287171089829E+03   -0.36697E-03   -0.20250E-03 31736   0.159E-01    0.236E-01
DAV:  18    -0.287171234901E+03   -0.14507E-03   -0.69628E-04 33256   0.805E-02    0.128E-01
DAV:  19    -0.287171297706E+03   -0.62805E-04   -0.25323E-04 27608   0.399E-02    0.131E-01
DAV:  20    -0.287171304093E+03   -0.63866E-05   -0.11482E-04 20232   0.268E-02    0.112E-01
DAV:  21    -0.287171301459E+03    0.26343E-05   -0.62433E-05 19456   0.219E-02
  28 F= -.28717130E+03 E0= -.28715870E+03  d E =0.820903E-01  mag=    10.0000
       N       E                     dE             d eps       ncg     rms          rms(c)
DAV:   1    -0.287176682029E+03   -0.53779E-02   -0.26841E+01 25344   0.189E+01    0.213E+00
DAV:   2    -0.287302449907E+03   -0.12577E+00   -0.13763E+00 26352   0.346E+00    0.507E+00
DAV:   3    -0.287289491435E+03    0.12958E-01   -0.76381E-01 34176   0.118E+00    0.380E+00
DAV:   4    -0.287309809924E+03   -0.20318E-01   -0.42008E-01 34352   0.972E-01    0.569E+00
DAV:   5    -0.287267404898E+03    0.42405E-01   -0.31828E-01 33560   0.792E-01    0.227E+00
DAV:   6    -0.287274374777E+03   -0.69699E-02   -0.41970E-02 31712   0.399E-01    0.150E+00
DAV:   7    -0.287272896106E+03    0.14787E-02   -0.37002E-02 34472   0.360E-01    0.103E+00
DAV:   8    -0.287274135128E+03   -0.12390E-02   -0.32460E-02 32640   0.294E-01    0.103E+00
DAV:   9    -0.287275329800E+03   -0.11947E-02   -0.32483E-02 31656   0.238E-01    0.801E-01
DAV:  10    -0.287276148546E+03   -0.81875E-03   -0.76713E-03 30888   0.175E-01    0.667E-01
DAV:  11    -0.287276220719E+03   -0.72174E-04   -0.63863E-04 31856   0.757E-02    0.638E-01
DAV:  12    -0.287276119378E+03    0.10134E-03   -0.14395E-04 27672   0.422E-02    0.585E-01
DAV:  13    -0.287276041636E+03    0.77742E-04   -0.99175E-04 31736   0.132E-01    0.296E-01
DAV:  14    -0.287276087846E+03   -0.46210E-04   -0.10860E-03 33312   0.848E-02    0.197E-01
DAV:  15    -0.287276132279E+03   -0.44433E-04   -0.23914E-04 27480   0.456E-02    0.185E-01
DAV:  16    -0.287276142006E+03   -0.97263E-05   -0.23695E-04 24272   0.309E-02    0.181E-01
DAV:  17    -0.287276145973E+03   -0.39670E-05   -0.18897E-04 20416   0.273E-02    0.129E-01
DAV:  18    -0.287276156318E+03   -0.10346E-04   -0.74166E-05 21816   0.270E-02    0.128E-01
DAV:  19    -0.287276147362E+03    0.89564E-05   -0.12410E-04 24928   0.317E-02    0.904E-02
DAV:  20    -0.287276162678E+03   -0.15316E-04   -0.87664E-05 19728   0.245E-02    0.881E-02
DAV:  21    -0.287276177574E+03   -0.14897E-04   -0.44012E-05 19192   0.261E-02    0.631E-02
DAV:  22    -0.287276180292E+03   -0.27179E-05   -0.31204E-05 18312   0.185E-02
  29 F= -.28727618E+03 E0= -.28726342E+03  d E =-.104879E+00  mag=    10.0000
       N       E                     dE             d eps       ncg     rms          rms(c)
DAV:   1    -0.287268575840E+03    0.76017E-02   -0.24522E+01 25344   0.148E+01    0.206E+00
DAV:   2    -0.287337343914E+03   -0.68768E-01   -0.79435E-01 29696   0.270E+00    0.355E+00
DAV:   3    -0.287346497754E+03   -0.91538E-02   -0.58556E-01 34376   0.115E+00    0.440E+00
DAV:   4    -0.287318286250E+03    0.28212E-01   -0.11528E-01 34160   0.775E-01    0.181E+00
DAV:   5    -0.287318849605E+03   -0.56336E-03   -0.48304E-02 33664   0.402E-01    0.114E+00
DAV:   6    -0.287319287392E+03   -0.43779E-03   -0.33561E-02 32576   0.354E-01    0.129E+00
DAV:   7    -0.287317995097E+03    0.12923E-02   -0.13054E-02 31992   0.221E-01    0.637E-01
DAV:   8    -0.287319467927E+03   -0.14728E-02   -0.11097E-02 34064   0.169E-01    0.509E-01
DAV:   9    -0.287320510346E+03   -0.10424E-02   -0.67420E-03 31256   0.131E-01    0.735E-01
DAV:  10    -0.287320105966E+03    0.40438E-03   -0.28990E-04 25832   0.569E-02    0.827E-01
DAV:  11    -0.287319527522E+03    0.57844E-03   -0.50390E-04 31656   0.540E-02    0.837E-01
DAV:  12    -0.287319450561E+03    0.76960E-04   -0.33355E-04 31032   0.518E-02    0.786E-01
DAV:  13    -0.287319371986E+03    0.78575E-04   -0.77815E-04 32552   0.682E-02    0.686E-01
DAV:  14    -0.287319293671E+03    0.78316E-04   -0.68996E-04 29472   0.495E-02    0.640E-01
DAV:  15    -0.287319533361E+03   -0.23969E-03   -0.14979E-04 21552   0.281E-02    0.689E-01
DAV:  16    -0.287319527007E+03    0.63532E-05   -0.12146E-05 16384   0.158E-02
  30 F= -.28731953E+03 E0= -.28730641E+03  d E =-.433467E-01  mag=    10.0000
       N       E                     dE             d eps       ncg     rms          rms(c)
DAV:   1    -0.287310678374E+03    0.88550E-02   -0.67443E+00 25056   0.837E+00    0.102E+00
DAV:   2    -0.287373443947E+03   -0.62766E-01   -0.67835E-01 32368   0.177E+00    0.469E+00
DAV:   3    -0.287322074004E+03    0.51370E-01   -0.15087E-01 33064   0.100E+00    0.861E-01
DAV:   4    -0.287331092580E+03   -0.90186E-02   -0.26106E-02 32000   0.320E-01    0.125E+00
DAV:   5    -0.287329611444E+03    0.14811E-02   -0.87765E-03 33640   0.214E-01    0.106E+00
DAV:   6    -0.287329201963E+03    0.40948E-03   -0.35191E-04 26584   0.666E-02    0.111E+00
DAV:   7    -0.287328904048E+03    0.29792E-03   -0.12847E-02 32984   0.211E-01    0.181E+00
DAV:   8    -0.287325933232E+03    0.29708E-02   -0.24393E-02 34128   0.201E-01    0.797E-01
DAV:   9    -0.287328668940E+03   -0.27357E-02   -0.86999E-03 31432   0.148E-01    0.132E+00
DAV:  10    -0.287327826897E+03    0.84204E-03   -0.96892E-04 30144   0.690E-02    0.121E+00
DAV:  11    -0.287327928994E+03   -0.10210E-03   -0.96710E-05 23408   0.358E-02    0.124E+00
DAV:  12    -0.287327284579E+03    0.64441E-03   -0.39547E-04 29664   0.777E-02    0.128E+00
DAV:  13    -0.287325611363E+03    0.16732E-02   -0.12951E-02 32808   0.295E-01    0.226E+00
DAV:  14    -0.287325428192E+03    0.18317E-03   -0.15748E-03 28320   0.110E-01    0.241E+00
DAV:  15    -0.287324875358E+03    0.55283E-03   -0.98510E-05 26480   0.315E-02    0.241E+00
DAV:  16    -0.287324882426E+03   -0.70686E-05   -0.53476E-04 30216   0.684E-02    0.217E+00
DAV:  17    -0.287324925406E+03   -0.42980E-04   -0.28119E-02 34168   0.435E-01    0.465E-01
DAV:  18    -0.287328194658E+03   -0.32693E-02   -0.37094E-03 25776   0.185E-01    0.427E-01
DAV:  19    -0.287327462236E+03    0.73242E-03   -0.11492E-03 32104   0.145E-01    0.531E-01
DAV:  20    -0.287327485615E+03   -0.23379E-04   -0.48667E-04 31616   0.642E-02    0.504E-01
DAV:  21    -0.287326874356E+03    0.61126E-03   -0.72940E-04 31200   0.636E-02    0.644E-01
DAV:  22    -0.287327766203E+03   -0.89185E-03   -0.33458E-04 28536   0.689E-02    0.596E-01
DAV:  23    -0.287328028662E+03   -0.26246E-03   -0.33905E-04 30328   0.504E-02    0.488E-01
DAV:  24    -0.287328447888E+03   -0.41923E-03   -0.52018E-04 29480   0.573E-02    0.409E-01
DAV:  25    -0.287328673710E+03   -0.22582E-03   -0.17319E-03 31336   0.114E-01    0.169E-01
DAV:  26    -0.287328893858E+03   -0.22015E-03   -0.32492E-04 29160   0.418E-02    0.175E-01
DAV:  27    -0.287328902300E+03   -0.84424E-05   -0.31309E-05 18200   0.168E-02
  31 F= -.28732890E+03 E0= -.28731591E+03  d E =-.937529E-02  mag=    10.0000
       N       E                     dE             d eps       ncg     rms          rms(c)
DAV:   1    -0.286419778459E+03    0.90912E+00   -0.11518E+02 25056   0.358E+01    0.767E+00
DAV:   2    -0.287240508553E+03   -0.82073E+00   -0.86807E+00 29552   0.769E+00    0.173E+01
DAV:   3    -0.286816281460E+03    0.42423E+00   -0.75359E+00 33152   0.364E+00    0.744E+00
DAV:   4    -0.287185016410E+03   -0.36873E+00   -0.53752E+00 33656   0.308E+00    0.158E+01
DAV:   5    -0.286984693726E+03    0.20032E+00   -0.53423E+00 33472   0.237E+00    0.141E+01
DAV:   6    -0.286681670330E+03    0.30302E+00   -0.92656E-01 33072   0.184E+00    0.410E+00
DAV:   7    -0.286736236696E+03   -0.54566E-01   -0.46875E-01 34448   0.109E+00    0.384E+00
DAV:   8    -0.286771109326E+03   -0.34873E-01   -0.62219E-01 33472   0.998E-01    0.698E+00
DAV:   9    -0.286731528876E+03    0.39580E-01   -0.21512E-01 30064   0.711E-01    0.290E+00
DAV:  10    -0.286743305609E+03   -0.11777E-01   -0.29207E-03 27016   0.203E-01    0.284E+00
DAV:  11    -0.286739750084E+03    0.35555E-02   -0.40789E-03 34488   0.162E-01    0.246E+00
DAV:  12    -0.286732858991E+03    0.68911E-02   -0.64491E-02 34432   0.391E-01    0.154E+00
DAV:  13    -0.286742547385E+03   -0.96884E-02   -0.35542E-02 30160   0.283E-01    0.245E+00
DAV:  14    -0.286740553479E+03    0.19939E-02   -0.19624E-03 26312   0.152E-01    0.249E+00
DAV:  15    -0.286738833501E+03    0.17200E-02   -0.27902E-04 27440   0.568E-02    0.249E+00
DAV:  16    -0.286738645450E+03    0.18805E-03   -0.12396E-04 23864   0.350E-02    0.253E+00
DAV:  17    -0.286736179304E+03    0.24661E-02   -0.10727E-03 31856   0.129E-01    0.250E+00
DAV:  18    -0.286734970357E+03    0.12089E-02   -0.88324E-04 32472   0.100E-01    0.261E+00
DAV:  19    -0.286731781354E+03    0.31890E-02   -0.84419E-03 32960   0.225E-01    0.324E+00
DAV:  20    -0.286733244329E+03   -0.14630E-02   -0.15153E-03 29536   0.985E-02    0.341E+00
DAV:  21    -0.286733676704E+03   -0.43238E-03   -0.24261E-04 28328   0.520E-02    0.341E+00
DAV:  22    -0.286733664424E+03    0.12280E-04   -0.14173E-04 29648   0.366E-02    0.336E+00
DAV:  23    -0.286733476699E+03    0.18772E-03   -0.23949E-05 17944   0.151E-02    0.335E+00
DAV:  24    -0.286734929856E+03   -0.14532E-02   -0.10431E-02 30784   0.302E-01    0.272E+00
DAV:  25    -0.286733664675E+03    0.12652E-02   -0.56434E-02 31360   0.600E-01    0.163E+00
DAV:  26    -0.286741638602E+03   -0.79739E-02   -0.28476E-02 32880   0.389E-01    0.154E+00
DAV:  27    -0.286746426799E+03   -0.47882E-02   -0.24733E-03 25624   0.178E-01    0.154E+00
DAV:  28    -0.286746590612E+03   -0.16381E-03   -0.38251E-04 30840   0.741E-02    0.153E+00
DAV:  29    -0.286746482378E+03    0.10823E-03   -0.34497E-05 24528   0.219E-02    0.151E+00
DAV:  30    -0.286745874578E+03    0.60780E-03   -0.18621E-03 32120   0.133E-01    0.118E+00
DAV:  31    -0.286745291515E+03    0.58306E-03   -0.32277E-03 32712   0.151E-01    0.697E-01
DAV:  32    -0.286746702232E+03   -0.14107E-02   -0.28899E-03 29760   0.168E-01    0.439E-01
DAV:  33    -0.286747172563E+03   -0.47033E-03   -0.15013E-03 30232   0.983E-02    0.286E-01
DAV:  34    -0.286747306550E+03   -0.13399E-03   -0.43446E-04 32784   0.650E-02    0.240E-01
DAV:  35    -0.286747226141E+03    0.80408E-04   -0.82464E-04 32256   0.674E-02    0.143E-01
DAV:  36    -0.286747386114E+03   -0.15997E-03   -0.18309E-04 26576   0.443E-02    0.174E-01
DAV:  37    -0.286747384233E+03    0.18808E-05   -0.65086E-05 19984   0.280E-02
  32 F= -.28674738E+03 E0= -.28673554E+03  d E =0.581518E+00  mag=    10.0000
       N       E                     dE             d eps       ncg     rms          rms(c)
DAV:   1    -0.287234679892E+03   -0.48729E+00   -0.32869E+01 25344   0.162E+01    0.473E+00
DAV:   2    -0.287412490718E+03   -0.17781E+00   -0.22220E+00 30832   0.400E+00    0.650E+00
DAV:   3    -0.287413138583E+03   -0.64786E-03   -0.20593E+00 33792   0.237E+00    0.719E+00
DAV:   4    -0.287482107029E+03   -0.68968E-01   -0.24165E+00 33864   0.176E+00    0.894E+00
DAV:   5    -0.287319307510E+03    0.16280E+00   -0.31190E-01 33400   0.129E+00    0.548E+00
DAV:   6    -0.287306464251E+03    0.12843E-01   -0.96742E-02 33984   0.616E-01    0.500E+00
DAV:   7    -0.287284972536E+03    0.21492E-01   -0.13434E-01 34304   0.665E-01    0.191E+00
DAV:   8    -0.287307705819E+03   -0.22733E-01   -0.18864E-01 33560   0.697E-01    0.208E+00
DAV:   9    -0.287320454725E+03   -0.12749E-01   -0.90764E-02 32016   0.576E-01    0.237E+00
DAV:  10    -0.287315903807E+03    0.45509E-02   -0.79868E-03 28608   0.249E-01    0.213E+00
DAV:  11    -0.287313905412E+03    0.19984E-02   -0.37659E-04 27624   0.737E-02    0.216E+00
DAV:  12    -0.287312631911E+03    0.12735E-02   -0.15961E-03 33424   0.111E-01    0.185E+00
DAV:  13    -0.287312797638E+03   -0.16573E-03   -0.23934E-02 32816   0.291E-01    0.741E-01
DAV:  14    -0.287316107939E+03   -0.33103E-02   -0.10342E-02 31264   0.207E-01    0.103E+00
DAV:  15    -0.287315680428E+03    0.42751E-03   -0.64738E-03 31784   0.130E-01    0.105E+00
DAV:  16    -0.287315635608E+03    0.44820E-04   -0.92517E-03 33856   0.157E-01    0.789E-01
DAV:  17    -0.287315677131E+03   -0.41524E-04   -0.13151E-03 29264   0.824E-02    0.656E-01
DAV:  18    -0.287315796379E+03   -0.11925E-03   -0.56954E-05 22096   0.296E-02    0.648E-01
DAV:  19    -0.287315750369E+03    0.46010E-04   -0.11330E-03 32880   0.876E-02    0.596E-01
DAV:  20    -0.287316149892E+03   -0.39952E-03   -0.10384E-03 31352   0.721E-02    0.726E-01
DAV:  21    -0.287316131262E+03    0.18630E-04   -0.36896E-04 32176   0.692E-02    0.708E-01
DAV:  22    -0.287316047121E+03    0.84142E-04   -0.15930E-04 28240   0.439E-02    0.668E-01
DAV:  23    -0.287315944579E+03    0.10254E-03   -0.13246E-04 22112   0.338E-02    0.607E-01
DAV:  24    -0.287315954175E+03   -0.95955E-05   -0.63950E-05 24088   0.272E-02
  33 F= -.28731595E+03 E0= -.28730314E+03  d E =-.568570E+00  mag=    10.0000
       N       E                     dE             d eps       ncg     rms          rms(c)
DAV:   1    -0.287339445966E+03   -0.23501E-01   -0.38799E-01 25344   0.196E+00    0.856E-01
DAV:   2    -0.287387158681E+03   -0.47713E-01   -0.45485E-01 33568   0.903E-01    0.689E+00
DAV:   3    -0.287320130995E+03    0.67028E-01   -0.46269E-01 32280   0.835E-01    0.948E-01
DAV:   4    -0.287342666603E+03   -0.22536E-01   -0.19389E-02 27360   0.314E-01    0.140E+00
DAV:   5    -0.287342456228E+03    0.21038E-03   -0.87513E-04 26736   0.123E-01    0.151E+00
DAV:   6    -0.287340445937E+03    0.20103E-02   -0.11679E-02 33432   0.182E-01    0.157E+00
DAV:   7    -0.287340279302E+03    0.16663E-03   -0.10022E-02 33688   0.186E-01    0.161E+00
DAV:   8    -0.287338744828E+03    0.15345E-02   -0.25354E-03 29040   0.116E-01    0.128E+00
DAV:   9    -0.287339262007E+03   -0.51718E-03   -0.16516E-03 32504   0.109E-01    0.149E+00
DAV:  10    -0.287340247702E+03   -0.98569E-03   -0.72244E-03 32624   0.130E-01    0.223E+00
DAV:  11    -0.287338339085E+03    0.19086E-02   -0.13726E-03 28192   0.844E-02    0.206E+00
DAV:  12    -0.287338429438E+03   -0.90353E-04   -0.34287E-04 25800   0.494E-02    0.201E+00
DAV:  13    -0.287338799225E+03   -0.36979E-03   -0.12829E-04 21048   0.289E-02    0.201E+00
DAV:  14    -0.287338858124E+03   -0.58899E-04   -0.22416E-05 16160   0.137E-02    0.200E+00
DAV:  15    -0.287338974135E+03   -0.11601E-03   -0.23950E-05 16864   0.136E-02    0.200E+00
DAV:  16    -0.287338968977E+03    0.51580E-05   -0.33163E-04 28568   0.464E-02    0.185E+00
DAV:  17    -0.287339215287E+03   -0.24631E-03   -0.25293E-05 17520   0.171E-02    0.184E+00
DAV:  18    -0.287339805419E+03   -0.59013E-03   -0.32552E-04 23880   0.401E-02    0.195E+00
DAV:  19    -0.287340196929E+03   -0.39151E-03   -0.12901E-03 31928   0.863E-02    0.226E+00
DAV:  20    -0.287339396712E+03    0.80022E-03   -0.11246E-04 25128   0.370E-02    0.230E+00
DAV:  21    -0.287338861648E+03    0.53506E-03   -0.63895E-05 18824   0.219E-02    0.221E+00
DAV:  22    -0.287337889263E+03    0.97238E-03   -0.45569E-03 33512   0.145E-01    0.141E+00
DAV:  23    -0.287339183975E+03   -0.12947E-02   -0.17159E-03 30040   0.928E-02    0.976E-01
DAV:  24    -0.287340101827E+03   -0.91785E-03   -0.98212E-04 30512   0.718E-02    0.620E-01
DAV:  25    -0.287340725289E+03   -0.62346E-03   -0.19241E-03 33400   0.907E-02    0.234E-01
DAV:  26    -0.287341150472E+03   -0.42518E-03   -0.68024E-04 27624   0.550E-02    0.302E-01
DAV:  27    -0.287341278293E+03   -0.12782E-03   -0.31175E-04 25408   0.419E-02    0.420E-01
DAV:  28    -0.287341209442E+03    0.68850E-04   -0.49762E-05 20304   0.234E-02    0.421E-01
DAV:  29    -0.287341157473E+03    0.51969E-04   -0.11109E-05 15072   0.115E-02    0.403E-01
DAV:  30    -0.287341125180E+03    0.32293E-04   -0.24436E-05 13544   0.132E-02    0.358E-01
DAV:  31    -0.287341162871E+03   -0.37691E-04   -0.17701E-05 16320   0.135E-02    0.336E-01
DAV:  32    -0.287341177951E+03   -0.15080E-04   -0.12889E-04 23944   0.270E-02    0.243E-01
DAV:  33    -0.287341226026E+03   -0.48074E-04   -0.30465E-05 16232   0.137E-02    0.204E-01
DAV:  34    -0.287341246315E+03   -0.20290E-04   -0.55768E-06 13240   0.920E-03    0.196E-01
DAV:  35    -0.287341246395E+03   -0.79988E-07   -0.14824E-05 12576   0.968E-03
  34 F= -.28734125E+03 E0= -.28732862E+03  d E =-.252922E-01  mag=    10.0000
       N       E                     dE             d eps       ncg     rms          rms(c)
[...]
DAV:   4    -0.287531682198E+03   -0.78046E-02   -0.31442E-02 32632   0.417E-01    0.141E+00
DAV:   5    -0.287528438201E+03    0.32440E-02   -0.16853E-02 33128   0.276E-01    0.637E-01
DAV:   6    -0.287529307799E+03   -0.86960E-03   -0.46324E-03 31632   0.121E-01    0.864E-01
DAV:   7    -0.287528598943E+03    0.70886E-03   -0.21363E-03 32544   0.896E-02    0.563E-01
DAV:   8    -0.287528131816E+03    0.46713E-03   -0.11554E-03 31976   0.111E-01    0.402E-01
DAV:   9    -0.287528503557E+03   -0.37174E-03   -0.80346E-03 32576   0.146E-01    0.468E-01
DAV:  10    -0.287528825368E+03   -0.32181E-03   -0.20665E-03 30528   0.125E-01    0.370E-01
DAV:  11    -0.287528803933E+03    0.21435E-04   -0.72019E-04 33328   0.712E-02    0.242E-01
DAV:  12    -0.287528854242E+03   -0.50309E-04   -0.20542E-04 27928   0.428E-02    0.187E-01
DAV:  13    -0.287528841811E+03    0.12431E-04   -0.10734E-04 23752   0.367E-02    0.111E-01
DAV:  14    -0.287528838404E+03    0.34074E-05   -0.13072E-04 25688   0.332E-02    0.723E-02
DAV:  15    -0.287528849905E+03   -0.11501E-04   -0.84353E-05 18240   0.206E-02    0.606E-02
DAV:  16    -0.287528852370E+03   -0.24650E-05   -0.14034E-05 14224   0.117E-02
  70 F= -.28752885E+03 E0= -.28751626E+03  d E =0.108980E-02  mag=    10.0000
       N       E                     dE             d eps       ncg     rms          rms(c)
DAV:   1    -0.287493919516E+03    0.34930E-01   -0.90608E+00 25344   0.963E+00    0.977E-01
DAV:   2    -0.287525685608E+03   -0.31766E-01   -0.34779E-01 27032   0.174E+00    0.213E+00
DAV:   3    -0.287521698935E+03    0.39867E-02   -0.12061E-01 34640   0.645E-01    0.184E+00
DAV:   4    -0.287524555672E+03   -0.28567E-02   -0.85399E-02 34496   0.442E-01    0.250E+00
DAV:   5    -0.287516495905E+03    0.80598E-02   -0.62848E-02 32968   0.348E-01    0.714E-01
DAV:   6    -0.287518766322E+03   -0.22704E-02   -0.95240E-03 33000   0.207E-01    0.449E-01
DAV:   7    -0.287518162370E+03    0.60395E-03   -0.39724E-03 32912   0.186E-01    0.260E-01
DAV:   8    -0.287518512118E+03   -0.34975E-03   -0.31380E-03 32504   0.963E-02    0.234E-01
DAV:   9    -0.287518679973E+03   -0.16786E-03   -0.45151E-04 27424   0.504E-02    0.229E-01
DAV:  10    -0.287518640628E+03    0.39345E-04   -0.16085E-04 29856   0.435E-02    0.168E-01
DAV:  11    -0.287518614126E+03    0.26502E-04   -0.15819E-04 27120   0.463E-02    0.720E-02
DAV:  12    -0.287518625731E+03   -0.11604E-04   -0.93526E-05 26800   0.304E-02    0.457E-02
DAV:  13    -0.287518630947E+03   -0.52163E-05   -0.35412E-05 17584   0.178E-02
  71 F= -.28751863E+03 E0= -.28750587E+03  d E =0.102214E-01  mag=    10.0000
       N       E                     dE             d eps       ncg     rms          rms(c)
DAV:   1    -0.287516209359E+03    0.24164E-02   -0.23883E+00 25344   0.468E+00    0.774E-01
DAV:   2    -0.287529576925E+03   -0.13368E-01   -0.13778E-01 27816   0.922E-01    0.304E+00
DAV:   3    -0.287519792381E+03    0.97845E-02   -0.13114E-01 32832   0.488E-01    0.129E+00
DAV:   4    -0.287524585123E+03   -0.47927E-02   -0.30464E-02 32352   0.348E-01    0.124E+00
DAV:   5    -0.287521839863E+03    0.27453E-02   -0.17930E-02 34136   0.250E-01    0.651E-01
DAV:   6    -0.287522068246E+03   -0.22838E-03   -0.33869E-03 32744   0.104E-01    0.476E-01
DAV:   7    -0.287521797302E+03    0.27094E-03   -0.13516E-03 31864   0.937E-02    0.247E-01
DAV:   8    -0.287521915218E+03   -0.11792E-03   -0.28593E-03 33688   0.966E-02    0.213E-01
DAV:   9    -0.287522202404E+03   -0.28719E-03   -0.17060E-03 31264   0.740E-02    0.261E-01
DAV:  10    -0.287522200026E+03    0.23778E-05   -0.42208E-04 29624   0.544E-02    0.248E-01
DAV:  11    -0.287522172778E+03    0.27248E-04   -0.85599E-05 21104   0.236E-02    0.215E-01
DAV:  12    -0.287522158955E+03    0.13823E-04   -0.59317E-05 19568   0.214E-02    0.177E-01
DAV:  13    -0.287522170855E+03   -0.11900E-04   -0.25852E-04 25832   0.379E-02    0.791E-02
DAV:  14    -0.287522207478E+03   -0.36622E-04   -0.68301E-05 22976   0.300E-02    0.694E-02
DAV:  15    -0.287522207208E+03    0.26981E-06   -0.15919E-05 17048   0.150E-02
  72 F= -.28752221E+03 E0= -.28750953E+03  d E =-.357626E-02  mag=    10.0000
       N       E                     dE             d eps       ncg     rms          rms(c)
DAV:   1    -0.287525525804E+03   -0.33183E-02   -0.90069E-01 25040   0.301E+00    0.503E-01
DAV:   2    -0.287529634343E+03   -0.41085E-02   -0.44590E-02 27920   0.589E-01    0.115E+00
DAV:   3    -0.287528809972E+03    0.82437E-03   -0.34215E-02 33976   0.259E-01    0.998E-01
DAV:   4    -0.287529384734E+03   -0.57476E-03   -0.19829E-02 33392   0.209E-01    0.119E+00
DAV:   5    -0.287527401207E+03    0.19835E-02   -0.75785E-03 31840   0.163E-01    0.307E-01
DAV:   6    -0.287528152099E+03   -0.75089E-03   -0.26757E-03 32416   0.947E-02    0.389E-01
DAV:   7    -0.287527988524E+03    0.16357E-03   -0.11826E-03 33248   0.869E-02    0.212E-01
DAV:   8    -0.287528115283E+03   -0.12676E-03   -0.10941E-03 31528   0.599E-02    0.168E-01
DAV:   9    -0.287528185652E+03   -0.70369E-04   -0.22196E-04 22568   0.342E-02    0.210E-01
DAV:  10    -0.287528138396E+03    0.47256E-04   -0.47430E-05 21824   0.250E-02    0.158E-01
DAV:  11    -0.287528142002E+03   -0.36059E-05   -0.86532E-05 25024   0.318E-02
  73 F= -.28752814E+03 E0= -.28751543E+03  d E =-.593479E-02  mag=    10.0000
       N       E                     dE             d eps       ncg     rms          rms(c)
DAV:   1    -0.287527722857E+03    0.41554E-03   -0.81837E-02 25056   0.945E-01    0.193E-01
DAV:   2    -0.287528540374E+03   -0.81752E-03   -0.80588E-03 31200   0.214E-01    0.747E-01
DAV:   3    -0.287527725233E+03    0.81514E-03   -0.52214E-03 32912   0.124E-01    0.202E-01
DAV:   4    -0.287528279132E+03   -0.55390E-03   -0.34064E-03 30312   0.871E-02    0.486E-01
DAV:   5    -0.287527962466E+03    0.31667E-03   -0.26159E-03 31136   0.729E-02    0.228E-01
DAV:   6    -0.287527962967E+03   -0.50165E-06   -0.42700E-04 23200   0.439E-02    0.881E-02
DAV:   7    -0.287527987740E+03   -0.24773E-04   -0.28034E-05 17928   0.181E-02    0.827E-02
DAV:   8    -0.287527976317E+03    0.11423E-04   -0.10755E-04 20000   0.214E-02    0.678E-02
DAV:   9    -0.287527991455E+03   -0.15137E-04   -0.16101E-04 18888   0.214E-02    0.576E-02
DAV:  10    -0.287527997721E+03   -0.62660E-05   -0.25772E-05 16512   0.163E-02
  74 F= -.28752800E+03 E0= -.28751528E+03  d E =0.144282E-03  mag=    10.0000
       N       E                     dE             d eps       ncg     rms          rms(c)
DAV:   1    -0.287528382188E+03   -0.39073E-03   -0.86733E-03 25312   0.321E-01    0.580E-02
DAV:   2    -0.287528450630E+03   -0.68443E-04   -0.69728E-04 30504   0.738E-02    0.162E-01
DAV:   3    -0.287528407347E+03    0.43284E-04   -0.39692E-04 23072   0.422E-02    0.711E-02
DAV:   4    -0.287528430070E+03   -0.22723E-04   -0.19608E-04 19176   0.235E-02    0.113E-01
DAV:   5    -0.287528413190E+03    0.16880E-04   -0.11617E-04 17544   0.213E-02    0.600E-02
DAV:   6    -0.287528416577E+03   -0.33869E-05   -0.52857E-06 13384   0.744E-03
  75 F= -.28752842E+03 E0= -.28751569E+03  d E =-.418856E-03  mag=    10.0000
       N       E                     dE             d eps       ncg     rms          rms(c)
DAV:   1    -0.287529770164E+03   -0.13570E-02   -0.23949E-01 24768   0.156E+00    0.144E-01
DAV:   2    -0.287530565446E+03   -0.79528E-03   -0.87440E-03 27176   0.278E-01    0.316E-01
DAV:   3    -0.287530487001E+03    0.78445E-04   -0.23977E-03 34232   0.915E-02    0.305E-01
DAV:   4    -0.287530487030E+03   -0.29522E-07   -0.17101E-03 29296   0.620E-02    0.263E-01
DAV:   5    -0.287530398873E+03    0.88158E-04   -0.59333E-04 27392   0.505E-02    0.107E-01
DAV:   6    -0.287530415473E+03   -0.16600E-04   -0.19211E-04 20688   0.235E-02    0.106E-01
DAV:   7    -0.287530372766E+03    0.42707E-04   -0.94934E-05 25576   0.335E-02    0.444E-02
DAV:   8    -0.287530412702E+03   -0.39936E-04   -0.32281E-04 19576   0.224E-02    0.761E-02
DAV:   9    -0.287530423731E+03   -0.11029E-04   -0.36286E-05 17576   0.178E-02    0.763E-02
DAV:  10    -0.287530420523E+03    0.32077E-05   -0.16404E-05 17368   0.157E-02
  76 F= -.28753042E+03 E0= -.28751769E+03  d E =-.200395E-02  mag=    10.0000
       N       E                     dE             d eps       ncg     rms          rms(c)
DAV:   1    -0.287529037803E+03    0.13859E-02   -0.33755E+00 24768   0.581E+00    0.387E-01
DAV:   2    -0.287539706471E+03   -0.10669E-01   -0.11671E-01 26816   0.100E+00    0.116E+00
DAV:   3    -0.287538569156E+03    0.11373E-02   -0.26583E-02 34536   0.269E-01    0.764E-01
DAV:   4    -0.287539017462E+03   -0.44831E-03   -0.10867E-02 33824   0.200E-01    0.675E-01
DAV:   5    -0.287538169846E+03    0.84762E-03   -0.46274E-03 34088   0.150E-01    0.153E-01
DAV:   6    -0.287538300906E+03   -0.13106E-03   -0.18794E-03 30104   0.994E-02    0.339E-01
DAV:   7    -0.287538194914E+03    0.10599E-03   -0.13653E-03 33096   0.668E-02    0.243E-01
DAV:   8    -0.287538196444E+03   -0.15304E-05   -0.25614E-04 24696   0.404E-02    0.124E-01
DAV:   9    -0.287538225656E+03   -0.29212E-04   -0.16602E-04 21072   0.231E-02    0.816E-02
DAV:  10    -0.287538253199E+03   -0.27543E-04   -0.15108E-04 19256   0.277E-02    0.893E-02
DAV:  11    -0.287538257830E+03   -0.46309E-05   -0.53675E-05 17688   0.187E-02
  77 F= -.28753826E+03 E0= -.28752552E+03  d E =-.783731E-02  mag=    10.0000
       N       E                     dE             d eps       ncg     rms          rms(c)
DAV:   1    -0.287494918869E+03    0.43334E-01   -0.20502E+01 24768   0.150E+01    0.107E+00
DAV:   2    -0.287565610847E+03   -0.70692E-01   -0.78561E-01 25976   0.264E+00    0.194E+00
DAV:   3    -0.287566293529E+03   -0.68268E-03   -0.14630E-01 35192   0.722E-01    0.225E+00
DAV:   4    -0.287566387753E+03   -0.94224E-04   -0.10620E-01 34296   0.520E-01    0.253E+00
DAV:   5    -0.287559324827E+03    0.70629E-02   -0.67707E-02 33920   0.416E-01    0.126E+00
DAV:   6    -0.287559947276E+03   -0.62245E-03   -0.22534E-02 33464   0.243E-01    0.518E-01
DAV:   7    -0.287559683993E+03    0.26328E-03   -0.46773E-03 29264   0.224E-01    0.288E-01
DAV:   8    -0.287559911047E+03   -0.22705E-03   -0.17711E-03 31080   0.106E-01    0.158E-01
DAV:   9    -0.287560105822E+03   -0.19477E-03   -0.90210E-04 30920   0.506E-02    0.199E-01
DAV:  10    -0.287560140186E+03   -0.34365E-04   -0.25446E-04 25296   0.410E-02    0.189E-01
DAV:  11    -0.287560120475E+03    0.19712E-04   -0.82525E-05 22440   0.288E-02    0.150E-01
DAV:  12    -0.287560112786E+03    0.76882E-05   -0.99396E-05 25096   0.319E-02
  78 F= -.28756011E+03 E0= -.28754742E+03  d E =-.218550E-01  mag=    10.0000
       N       E                     dE             d eps       ncg     rms          rms(c)
DAV:   1    -0.287501997834E+03    0.58123E-01   -0.16480E+01 24768   0.125E+01    0.867E-01
DAV:   2    -0.287549725125E+03   -0.47727E-01   -0.52479E-01 26616   0.215E+00    0.131E+00
DAV:   3    -0.287550051406E+03   -0.32628E-03   -0.86173E-02 34584   0.608E-01    0.172E+00
DAV:   4    -0.287549171677E+03    0.87973E-03   -0.62332E-02 34920   0.399E-01    0.203E+00
DAV:   5    -0.287544078292E+03    0.50934E-02   -0.30595E-02 33208   0.308E-01    0.408E-01
DAV:   6    -0.287548206949E+03   -0.41287E-02   -0.29940E-02 33264   0.231E-01    0.165E+00
DAV:   7    -0.287544103900E+03    0.41030E-02   -0.20445E-02 32896   0.254E-01    0.454E-01
DAV:   8    -0.287545181013E+03   -0.10771E-02   -0.22648E-03 28376   0.108E-01    0.166E-01
DAV:   9    -0.287545423637E+03   -0.24262E-03   -0.36026E-04 29456   0.509E-02    0.178E-01
DAV:  10    -0.287545428614E+03   -0.49767E-05   -0.34902E-04 28248   0.409E-02    0.165E-01
DAV:  11    -0.287545432188E+03   -0.35743E-05   -0.34379E-04 22864   0.348E-02    0.101E-01
DAV:  12    -0.287545466378E+03   -0.34190E-04   -0.20143E-04 25560   0.320E-02    0.904E-02
DAV:  13    -0.287545480527E+03   -0.14149E-04   -0.80272E-05 17952   0.214E-02    0.103E-01
DAV:  14    -0.287545481646E+03   -0.11193E-05   -0.70467E-05 17896   0.160E-02
  79 F= -.28754548E+03 E0= -.28753273E+03  d E =0.146311E-01  mag=    10.0000
       N       E                     dE             d eps       ncg     rms          rms(c)
DAV:   1    -0.287382811967E+03    0.16267E+00   -0.39455E+01 24768   0.208E+01    0.165E+00
DAV:   2    -0.287538404977E+03   -0.15559E+00   -0.17032E+00 27296   0.379E+00    0.453E+00
DAV:   3    -0.287510898550E+03    0.27506E-01   -0.33095E-01 34648   0.122E+00    0.284E+00
DAV:   4    -0.287518457855E+03   -0.75593E-02   -0.18919E-01 34344   0.756E-01    0.312E+00
DAV:   5    -0.287505459828E+03    0.12998E-01   -0.98723E-02 33752   0.539E-01    0.139E+00
DAV:   6    -0.287508787654E+03   -0.33278E-02   -0.45602E-02 33872   0.337E-01    0.156E+00
DAV:   7    -0.287505206857E+03    0.35808E-02   -0.50193E-02 33952   0.412E-01    0.939E-01
DAV:   8    -0.287505867687E+03   -0.66083E-03   -0.13215E-02 32040   0.233E-01    0.350E-01
DAV:   9    -0.287507020026E+03   -0.11523E-02   -0.55232E-03 33632   0.117E-01    0.658E-01
DAV:  10    -0.287507004298E+03    0.15728E-04   -0.16371E-03 32240   0.106E-01    0.688E-01
DAV:  11    -0.287506661874E+03    0.34242E-03   -0.22538E-03 32640   0.900E-02    0.370E-01
DAV:  12    -0.287506874120E+03   -0.21225E-03   -0.52628E-04 28176   0.480E-02    0.328E-01
DAV:  13    -0.287506895303E+03   -0.21184E-04   -0.18304E-04 22880   0.355E-02    0.281E-01
DAV:  14    -0.287506917511E+03   -0.22207E-04   -0.22132E-04 26032   0.362E-02    0.230E-01
DAV:  15    -0.287506946466E+03   -0.28955E-04   -0.22004E-04 29872   0.573E-02    0.157E-01
DAV:  16    -0.287506974097E+03   -0.27631E-04   -0.12992E-04 26720   0.450E-02    0.129E-01
DAV:  17    -0.287506990417E+03   -0.16320E-04   -0.11814E-04 23584   0.356E-02    0.918E-02
DAV:  18    -0.287506996852E+03   -0.64349E-05   -0.75868E-05 25232   0.316E-02
  80 F= -.28750700E+03 E0= -.28749432E+03  d E =0.384848E-01  mag=    10.0000
       N       E                     dE             d eps       ncg     rms          rms(c)
DAV:   1    -0.287473047507E+03    0.33943E-01   -0.21685E+01 24768   0.151E+01    0.126E+00
DAV:   2    -0.287557173107E+03   -0.84126E-01   -0.91153E-01 27288   0.273E+00    0.488E+00
DAV:   3    -0.287533028879E+03    0.24144E-01   -0.35315E-01 34712   0.893E-01    0.214E+00
DAV:   4    -0.287546523151E+03   -0.13494E-01   -0.14486E-01 33232   0.628E-01    0.224E+00
DAV:   5    -0.287536004130E+03    0.10519E-01   -0.55372E-02 33992   0.473E-01    0.102E+00
DAV:   6    -0.287537425514E+03   -0.14214E-02   -0.19146E-02 33824   0.258E-01    0.117E+00
DAV:   7    -0.287535324307E+03    0.21012E-02   -0.20373E-02 33640   0.282E-01    0.536E-01
DAV:   8    -0.287536477314E+03   -0.11530E-02   -0.33832E-03 28424   0.147E-01    0.526E-01
DAV:   9    -0.287536513741E+03   -0.36428E-04   -0.67272E-04 31504   0.536E-02    0.579E-01
DAV:  10    -0.287536391369E+03    0.12237E-03   -0.35585E-04 26216   0.407E-02    0.555E-01
DAV:  11    -0.287536290422E+03    0.10095E-03   -0.30152E-04 25360   0.392E-02    0.441E-01
DAV:  12    -0.287536287793E+03    0.26288E-05   -0.41547E-04 30792   0.514E-02    0.260E-01
DAV:  13    -0.287536387702E+03   -0.99909E-04   -0.46309E-04 30136   0.574E-02    0.136E-01
DAV:  14    -0.287536444823E+03   -0.57121E-04   -0.19285E-04 24976   0.394E-02    0.124E-01
DAV:  15    -0.287536473171E+03   -0.28348E-04   -0.16130E-04 28624   0.409E-02    0.127E-01
DAV:  16    -0.287536471207E+03    0.19640E-05   -0.38047E-05 18560   0.197E-02
  81 F= -.28753647E+03 E0= -.28752380E+03  d E =-.294744E-01  mag=    10.0000
       N       E                     dE             d eps       ncg     rms          rms(c)
DAV:   1    -0.287529848164E+03    0.66250E-02   -0.52853E+00 25056   0.745E+00    0.731E-01
DAV:   2    -0.287557486155E+03   -0.27638E-01   -0.28822E-01 27656   0.140E+00    0.384E+00
DAV:   3    -0.287539480266E+03    0.18006E-01   -0.14603E-01 34088   0.543E-01    0.979E-01
DAV:   4    -0.287548793576E+03   -0.93133E-02   -0.48217E-02 32856   0.360E-01    0.185E+00
DAV:   5    -0.287544034661E+03    0.47589E-02   -0.32358E-02 32952   0.290E-01    0.707E-01
DAV:   6    -0.287544652553E+03   -0.61789E-03   -0.51108E-03 32320   0.156E-01    0.324E-01
DAV:   7    -0.287544685760E+03   -0.33206E-04   -0.14745E-03 30648   0.919E-02    0.293E-01
DAV:   8    -0.287544461840E+03    0.22392E-03   -0.10428E-03 33248   0.819E-02    0.159E-01
DAV:   9    -0.287544748617E+03   -0.28678E-03   -0.22329E-03 30456   0.635E-02    0.209E-01
DAV:  10    -0.287544863937E+03   -0.11532E-03   -0.77626E-04 30352   0.659E-02    0.222E-01
DAV:  11    -0.287544857796E+03    0.61409E-05   -0.17173E-04 28536   0.374E-02    0.205E-01
DAV:  12    -0.287544852062E+03    0.57340E-05   -0.41448E-05 18768   0.176E-02
  82 F= -.28754485E+03 E0= -.28753211E+03  d E =-.838085E-02  mag=    10.0000
       N       E                     dE             d eps       ncg     rms          rms(c)
DAV:   1    -0.287530404147E+03    0.14454E-01   -0.30233E+00 24768   0.560E+00    0.571E-01
DAV:   2    -0.287548503329E+03   -0.18099E-01   -0.19310E-01 28328   0.110E+00    0.283E+00
DAV:   3    -0.287535974342E+03    0.12529E-01   -0.73445E-02 33800   0.483E-01    0.589E-01
DAV:   4    -0.287540169992E+03   -0.41957E-02   -0.16844E-02 32352   0.250E-01    0.870E-01
DAV:   5    -0.287539001928E+03    0.11681E-02   -0.68752E-03 32632   0.169E-01    0.494E-01
DAV:   6    -0.287538967354E+03    0.34574E-04   -0.59668E-04 29512   0.595E-02    0.380E-01
DAV:   7    -0.287539008684E+03   -0.41329E-04   -0.25778E-05 19848   0.180E-02    0.377E-01
DAV:   8    -0.287538739160E+03    0.26952E-03   -0.11342E-03 29160   0.964E-02    0.252E-01
DAV:   9    -0.287538977806E+03   -0.23865E-03   -0.27221E-03 31632   0.918E-02    0.397E-01
DAV:  10    -0.287538974192E+03    0.36143E-05   -0.54415E-04 31616   0.678E-02    0.334E-01
DAV:  11    -0.287538926229E+03    0.47963E-04   -0.26509E-04 28680   0.412E-02    0.208E-01
DAV:  12    -0.287538957959E+03   -0.31730E-04   -0.15631E-04 22040   0.345E-02    0.132E-01
DAV:  13    -0.287538965482E+03   -0.75230E-05   -0.13638E-04 26176   0.358E-02    0.665E-02
DAV:  14    -0.287538999289E+03   -0.33807E-04   -0.19959E-04 19984   0.239E-02    0.144E-01
DAV:  15    -0.287538986123E+03    0.13166E-04   -0.22178E-05 16968   0.167E-02    0.148E-01
DAV:  16    -0.287538974148E+03    0.11975E-04   -0.44453E-06 13024   0.919E-03    0.143E-01
DAV:  17    -0.287538972491E+03    0.16575E-05   -0.38258E-06 13112   0.808E-03
  83 F= -.28753897E+03 E0= -.28752631E+03  d E =0.587957E-02  mag=    10.0000
       N       E                     dE             d eps       ncg     rms          rms(c)
DAV:   1    -0.287538800817E+03    0.17333E-03   -0.81018E-03 25344   0.280E-01    0.160E-01
DAV:   2    -0.287540920242E+03   -0.21194E-02   -0.18851E-02 33936   0.188E-01    0.147E+00
DAV:   3    -0.287537588623E+03    0.33316E-02   -0.14421E-02 31616   0.196E-01    0.262E-01
DAV:   4    -0.287538741638E+03   -0.11530E-02   -0.13435E-03 24648   0.725E-02    0.137E-01
DAV:   5    -0.287538857027E+03   -0.11539E-03   -0.31540E-04 23088   0.415E-02    0.131E-01
DAV:   6    -0.287538826027E+03    0.31000E-04   -0.11714E-04 20680   0.258E-02    0.639E-02
DAV:   7    -0.287538829418E+03   -0.33909E-05   -0.73396E-06 14016   0.953E-03
  84 F= -.28753883E+03 E0= -.28752616E+03  d E =0.143073E-03  mag=    10.0000
       N       E                     dE             d eps       ncg     rms          rms(c)
DAV:   1    -0.287539387228E+03   -0.56120E-03   -0.16796E-02 24768   0.405E-01    0.443E-02
DAV:   2    -0.287539468822E+03   -0.81594E-04   -0.80520E-04 27008   0.764E-02    0.138E-01
DAV:   3    -0.287539446387E+03    0.22435E-04   -0.25746E-04 22392   0.263E-02    0.738E-02
DAV:   4    -0.287539453622E+03   -0.72358E-05   -0.44818E-05 15544   0.146E-02
  85 F= -.28753945E+03 E0= -.28752671E+03  d E =-.624204E-03  mag=    10.0000
