       N       E                     dE             d eps       ncg     rms          ort
DAV:   1     0.246047235659E+04    0.24605E+04   -0.13865E+05 10080   0.163E+03
DAV:   2    -0.200476216518E+03   -0.26609E+04   -0.24573E+04 10080   0.437E+02
DAV:   3    -0.488891158669E+03   -0.28841E+03   -0.28362E+03 10080   0.162E+02
DAV:   4    -0.497545009843E+03   -0.86539E+01   -0.85601E+01 10080   0.278E+01
DAV:   5    -0.497892515553E+03   -0.34751E+00   -0.34657E+00 10080   0.438E+00
SDA:   6    -0.240846489158E+03    0.25705E+03   -0.34657E+00 10080   0.771E+03 0.000E+00
CGA:   7    -0.348072774184E+03   -0.10723E+03   -0.10840E+03 10080   0.883E+02 0.657E+01
CGA:   8    -0.365714337768E+03   -0.17642E+02   -0.17646E+02 10080   0.322E+02-0.170E+01
CGA:   9    -0.372457971894E+03   -0.67436E+01   -0.67471E+01 10080   0.152E+02-0.357E-02
CGA:  10    -0.375456633983E+03   -0.29987E+01   -0.29987E+01 10080   0.453E+01 0.141E+00
CGA:  11    -0.376403143254E+03   -0.94651E+00   -0.94645E+00 10080   0.127E+01-0.153E-02
CGA:  12    -0.376687095772E+03   -0.28395E+00   -0.28456E+00 10080   0.425E+00-0.228E-01
CGA:  13    -0.376793603820E+03   -0.10651E+00   -0.10791E+00 10080   0.165E+00-0.241E-01
CGA:  14    -0.376835342324E+03   -0.41739E-01   -0.42379E-01 10080   0.622E-01-0.933E-02
CGA:  15    -0.376850735427E+03   -0.15393E-01   -0.15435E-01 10080   0.219E-01-0.834E-03
CGA:  16    -0.376856759081E+03   -0.60237E-02   -0.61097E-02 10080   0.773E-02-0.119E-02
CGA:  17    -0.376858833574E+03   -0.20745E-02   -0.20629E-02 10080   0.264E-02 0.179E-03
CGA:  18    -0.376859649320E+03   -0.81575E-03   -0.82582E-03 10080   0.911E-03-0.104E-03
CGA:  19    -0.376857388051E+03    0.22613E-02   -0.12434E-02 10080   0.105E-01-0.303E-02
CGA:  20    -0.376859820797E+03   -0.24327E-02   -0.25892E-02 10080   0.162E-02 0.100E-02
CGA:  21    -0.376860601947E+03   -0.78115E-03   -0.92835E-03 10080   0.167E-02-0.115E-02
CGA:  22    -0.376860625409E+03   -0.23462E-04   -0.20158E-03 10080   0.314E-03 0.638E-03
CGA:  23    -0.376860599866E+03    0.25542E-04   -0.40191E-04 10080   0.124E-03 0.223E-03
CGA:  24    -0.376860635270E+03   -0.35403E-04   -0.37647E-04 10080   0.189E-04 0.331E-04
CGA:  25    -0.376860630443E+03    0.48264E-05   -0.14827E-05 10080   0.148E-04 0.206E-04
   1 F= -.37686063E+03 E0= -.37686063E+03  d E =-.376861E+03  mag=    12.0000
       N       E                     dE             d eps       ncg     rms          ort
SDA:   1    -0.376869979001E+03   -0.93437E-02    0.00000E+00 10080   0.216E-02 0.000E+00
CGA:   2    -0.376870599664E+03   -0.62066E-03   -0.61090E-03 10080   0.744E-03-0.177E-03
CGA:   3    -0.376870732737E+03   -0.13307E-03   -0.13923E-03 10080   0.194E-03 0.464E-04
CGA:   4    -0.376870797333E+03   -0.64596E-04   -0.60239E-04 10080   0.170E-03-0.120E-03
CGA:   5    -0.376870805013E+03   -0.76795E-05   -0.16089E-04 10080   0.197E-04 0.360E-04
   2 F= -.37687081E+03 E0= -.37687081E+03  d E =-.101746E-01  mag=    12.0000
       N       E                     dE             d eps       ncg     rms          ort
SDA:   1    -0.375166857299E+03    0.17039E+01    0.00000E+00 10080   0.598E+01 0.000E+00
CGA:   2    -0.376749638255E+03   -0.15828E+01   -0.15827E+01 10080   0.170E+01-0.574E-02
CGA:   3    -0.377157856411E+03   -0.40822E+00   -0.40802E+00 10080   0.528E+00-0.480E-02
CGA:   4    -0.377252132701E+03   -0.94276E-01   -0.93484E-01 10080   0.125E+00-0.566E-02
CGA:   5    -0.377275470431E+03   -0.23338E-01   -0.23337E-01 10080   0.343E-01-0.440E-04
CGA:   6    -0.377282656285E+03   -0.71859E-02   -0.72660E-02 10080   0.122E-01 0.103E-02
CGA:   7    -0.377286572048E+03   -0.39158E-02   -0.39510E-02 10080   0.647E-02-0.116E-02
CGA:   8    -0.377288322856E+03   -0.17508E-02   -0.17618E-02 10080   0.308E-02-0.704E-03
CGA:   9    -0.377288994713E+03   -0.67186E-03   -0.67646E-03 10080   0.882E-03 0.116E-03
CGA:  10    -0.377289272793E+03   -0.27808E-03   -0.27954E-03 10080   0.339E-03-0.697E-04
CGA:  11    -0.377289345938E+03   -0.73145E-04   -0.75060E-04 10080   0.104E-03 0.428E-04
CGA:  12    -0.377289373525E+03   -0.27587E-04   -0.28569E-04 10080   0.404E-04 0.244E-04
CGA:  13    -0.377289369976E+03    0.35485E-05   -0.43637E-04 10080   0.188E-03-0.794E-04
CGA:  14    -0.377289390425E+03   -0.20449E-04   -0.30172E-04 10080   0.310E-04 0.647E-04
CGA:  15    -0.377289396932E+03   -0.65072E-05   -0.77186E-05 10080   0.742E-05 0.103E-04
CGA:  16    -0.377289325490E+03    0.71442E-04   -0.38480E-04 10080   0.254E-03-0.565E-04
CGA:  17    -0.377289357579E+03   -0.32089E-04   -0.55959E-04 10080   0.493E-04 0.741E-04
CGA:  18    -0.377288973426E+03    0.38415E-03   -0.12325E-03 10080   0.182E-02-0.360E-03
CGA:  19    -0.377289194689E+03   -0.22126E-03   -0.37008E-03 10080   0.394E-03 0.382E-03
CGA:  20    -0.377289383238E+03   -0.18855E-03   -0.16504E-03 10080   0.514E-04-0.102E-03
CGA:  21    -0.377289387488E+03   -0.42504E-05   -0.87240E-05 10080   0.142E-04 0.133E-04
   3 F= -.37728939E+03 E0= -.37728939E+03  d E =-.418582E+00  mag=    12.0000
       N       E                     dE             d eps       ncg     rms          ort
SDA:   1    -0.374723985129E+03    0.25654E+01    0.00000E+00 10080   0.859E+01 0.000E+00
CGA:   2    -0.376877734787E+03   -0.21537E+01   -0.21597E+01 10080   0.216E+01 0.763E-02
CGA:   3    -0.377436577975E+03   -0.55884E+00   -0.55750E+00 10080   0.621E+00 0.719E-03
CGA:   4    -0.377549669649E+03   -0.11309E+00   -0.11186E+00 10080   0.160E+00-0.229E-02
CGA:   5    -0.377579804801E+03   -0.30135E-01   -0.30202E-01 10080   0.426E-01 0.132E-03
CGA:   6    -0.377589481526E+03   -0.96767E-02   -0.98817E-02 10080   0.181E-01 0.795E-03
CGA:   7    -0.377595068903E+03   -0.55874E-02   -0.54707E-02 10080   0.901E-02-0.674E-03
CGA:   8    -0.377597733254E+03   -0.26644E-02   -0.26276E-02 10080   0.400E-02-0.228E-03
CGA:   9    -0.377598721813E+03   -0.98856E-03   -0.10186E-02 10080   0.120E-02 0.156E-03
CGA:  10    -0.377599138287E+03   -0.41647E-03   -0.40049E-03 10080   0.442E-03-0.130E-03
CGA:  11    -0.377599198727E+03   -0.60440E-04   -0.84234E-04 10080   0.130E-03 0.106E-03
CGA:  12    -0.377599226592E+03   -0.27866E-04   -0.35824E-04 10080   0.510E-04 0.388E-04
CGA:  13    -0.377599219344E+03    0.72479E-05   -0.65622E-04 10080   0.324E-03-0.127E-03
CGA:  14    -0.377599233288E+03   -0.13944E-04   -0.50025E-04 10080   0.653E-04 0.124E-03
CGA:  15    -0.377599245456E+03   -0.12167E-04   -0.17091E-04 10080   0.155E-04 0.204E-04
CGA:  16    -0.377599279279E+03   -0.33823E-04    0.43110E-05 10080   0.137E-04-0.114E-04
CGA:  17    -0.377599275409E+03    0.38693E-05   -0.51283E-06 10080   0.946E-05 0.115E-04
   4 F= -.37759928E+03 E0= -.37759928E+03  d E =-.309888E+00  mag=    12.0000
       N       E                     dE             d eps       ncg     rms          ort
SDA:   1    -0.375141569338E+03    0.24577E+01    0.00000E+00 10080   0.783E+01 0.000E+00
CGA:   2    -0.377119356077E+03   -0.19778E+01   -0.19800E+01 10080   0.197E+01-0.185E-02
CGA:   3    -0.377636501798E+03   -0.51715E+00   -0.51720E+00 10080   0.516E+00 0.308E-02
CGA:   4    -0.377731253579E+03   -0.94752E-01   -0.94406E-01 10080   0.139E+00-0.197E-02
CGA:   5    -0.377756636974E+03   -0.25383E-01   -0.25432E-01 10080   0.360E-01 0.204E-03
CGA:   6    -0.377765105752E+03   -0.84688E-02   -0.85787E-02 10080   0.160E-01 0.982E-03
CGA:   7    -0.377769747115E+03   -0.46414E-02   -0.46406E-02 10080   0.789E-02-0.883E-05
CGA:   8    -0.377772079730E+03   -0.23326E-02   -0.23474E-02 10080   0.334E-02 0.329E-03
CGA:   9    -0.377772977351E+03   -0.89762E-03   -0.91934E-03 10080   0.103E-02 0.285E-03
CGA:  10    -0.377773365143E+03   -0.38779E-03   -0.39026E-03 10080   0.463E-03-0.200E-03
CGA:  11    -0.377773424852E+03   -0.59709E-04   -0.73740E-04 10080   0.143E-03 0.101E-03
CGA:  12    -0.377773449085E+03   -0.24233E-04   -0.31505E-04 10080   0.525E-04 0.487E-04
CGA:  13    -0.377773474819E+03   -0.25734E-04   -0.36587E-04 10080   0.881E-04-0.550E-04
CGA:  14    -0.377773481215E+03   -0.63959E-05   -0.13202E-04 10080   0.188E-04 0.373E-04
   5 F= -.37777348E+03 E0= -.37777348E+03  d E =-.174206E+00  mag=    12.0000
       N       E                     dE             d eps       ncg     rms          ort
SDA:   1    -0.374339505714E+03    0.34340E+01    0.00000E+00 10080   0.998E+01 0.000E+00
CGA:   2    -0.376997003019E+03   -0.26575E+01   -0.26581E+01 10080   0.273E+01-0.752E-02
CGA:   3    -0.377674371217E+03   -0.67737E+00   -0.67794E+00 10080   0.718E+00 0.922E-02
CGA:   4    -0.377799948658E+03   -0.12558E+00   -0.12537E+00 10080   0.177E+00-0.148E-02
CGA:   5    -0.377833040699E+03   -0.33092E-01   -0.33113E-01 10080   0.465E-01 0.811E-04
CGA:   6    -0.377843601809E+03   -0.10561E-01   -0.10645E-01 10080   0.193E-01 0.120E-02
CGA:   7    -0.377849254553E+03   -0.56527E-02   -0.56517E-02 10080   0.968E-02-0.111E-03
CGA:   8    -0.377852153479E+03   -0.28989E-02   -0.28967E-02 10080   0.444E-02 0.354E-03
CGA:   9    -0.377853333109E+03   -0.11796E-02   -0.11967E-02 10080   0.135E-02 0.490E-03
CGA:  10    -0.377853846779E+03   -0.51367E-03   -0.52968E-03 10080   0.628E-03-0.265E-03
CGA:  11    -0.377853951520E+03   -0.10474E-03   -0.11137E-03 10080   0.188E-03 0.877E-04
CGA:  12    -0.377853995686E+03   -0.44166E-04   -0.46889E-04 10080   0.689E-04 0.371E-04
CGA:  13    -0.377853896495E+03    0.99191E-04   -0.92841E-04 10080   0.710E-03-0.230E-03
CGA:  14    -0.377853995603E+03   -0.99107E-04   -0.12767E-03 10080   0.108E-03 0.189E-03
CGA:  15    -0.377854044917E+03   -0.49314E-04   -0.65168E-04 10080   0.100E-03-0.103E-03
CGA:  16    -0.377854053889E+03   -0.89729E-05   -0.15917E-04 10080   0.187E-04 0.404E-04
   6 F= -.37785405E+03 E0= -.37785405E+03  d E =-.805727E-01  mag=    12.0000
       N       E                     dE             d eps       ncg     rms          ort
SDA:   1    -0.367861473168E+03    0.99926E+01    0.00000E+00 10080   0.248E+02 0.000E+00
CGA:   2    -0.375529401396E+03   -0.76679E+01   -0.76680E+01 10080   0.885E+01-0.104E-01
CGA:   3    -0.377271703461E+03   -0.17423E+01   -0.17469E+01 10080   0.228E+01 0.222E-01
CGA:   4    -0.377668124324E+03   -0.39642E+00   -0.39672E+00 10080   0.487E+00 0.128E-02
CGA:   5    -0.377757535248E+03   -0.89411E-01   -0.89288E-01 10080   0.141E+00-0.105E-02
CGA:   6    -0.377787242268E+03   -0.29707E-01   -0.29845E-01 10080   0.431E-01 0.163E-02
CGA:   7    -0.377798844527E+03   -0.11602E-01   -0.11614E-01 10080   0.189E-01 0.487E-03
CGA:   8    -0.377804310143E+03   -0.54656E-02   -0.54644E-02 10080   0.908E-02-0.257E-03
CGA:   9    -0.377806768067E+03   -0.24579E-02   -0.24673E-02 10080   0.297E-02 0.645E-03
CGA:  10    -0.377807731877E+03   -0.96381E-03   -0.96313E-03 10080   0.105E-02 0.470E-04
CGA:  11    -0.377808100175E+03   -0.36830E-03   -0.38194E-03 10080   0.532E-03-0.204E-03
CGA:  12    -0.377808181739E+03   -0.81564E-04   -0.91505E-04 10080   0.191E-03 0.124E-03
CGA:  13    -0.377808230540E+03   -0.48801E-04   -0.52083E-04 10080   0.807E-04 0.476E-04
CGA:  14    -0.377808102729E+03    0.12781E-03   -0.12014E-03 10080   0.878E-03-0.274E-03
CGA:  15    -0.377808214535E+03   -0.11181E-03   -0.15123E-03 10080   0.151E-03 0.248E-03
CGA:  16    -0.377808280663E+03   -0.66128E-04   -0.67482E-04 10080   0.538E-04-0.521E-04
CGA:  17    -0.377808308536E+03   -0.27873E-04    0.25818E-04 10080   0.249E-04-0.773E-05
CGA:  18    -0.377808306906E+03    0.16299E-05   -0.18448E-05 10080   0.154E-04 0.146E-04
   7 F= -.37780831E+03 E0= -.37780831E+03  d E =0.457470E-01  mag=    12.0000
       N       E                     dE             d eps       ncg     rms          ort
SDA:   1    -0.374582489292E+03    0.32258E+01    0.00000E+00 10080   0.776E+01 0.000E+00
CGA:   2    -0.377247089110E+03   -0.26646E+01   -0.26648E+01 10080   0.265E+01-0.102E-01
CGA:   3    -0.377736155891E+03   -0.48907E+00   -0.49048E+00 10080   0.679E+00 0.103E-01
CGA:   4    -0.377863477560E+03   -0.12732E+00   -0.12736E+00 10080   0.142E+00 0.908E-03
CGA:   5    -0.377889421884E+03   -0.25944E-01   -0.25876E-01 10080   0.442E-01-0.596E-03
CGA:   6    -0.377898716617E+03   -0.92947E-02   -0.93480E-02 10080   0.127E-01 0.710E-03
CGA:   7    -0.377902017798E+03   -0.33012E-02   -0.33167E-02 10080   0.519E-02 0.622E-03
CGA:   8    -0.377903471296E+03   -0.14535E-02   -0.14542E-02 10080   0.218E-02 0.537E-04
CGA:   9    -0.377904023747E+03   -0.55245E-03   -0.55909E-03 10080   0.631E-03 0.256E-03
CGA:  10    -0.377904199273E+03   -0.17553E-03   -0.17826E-03 10080   0.186E-03 0.104E-03
CGA:  11    -0.377904275191E+03   -0.75918E-04   -0.80418E-04 10080   0.111E-03-0.486E-04
CGA:  12    -0.377904278646E+03   -0.34557E-05   -0.10231E-04 10080   0.566E-04 0.430E-04
   8 F= -.37790428E+03 E0= -.37790428E+03  d E =-.959717E-01  mag=    12.0000
       N       E                     dE             d eps       ncg     rms          ort
SDA:   1    -0.377454009861E+03    0.45027E+00    0.00000E+00 10080   0.136E+01 0.000E+00
CGA:   2    -0.377824302496E+03   -0.37029E+00   -0.37029E+00 10080   0.387E+00-0.319E-04
CGA:   3    -0.377917298883E+03   -0.92996E-01   -0.92962E-01 10080   0.120E+00-0.144E-02
CGA:   4    -0.377937254731E+03   -0.19956E-01   -0.19982E-01 10080   0.280E-01 0.209E-03
CGA:   5    -0.377942615482E+03   -0.53608E-02   -0.53648E-02 10080   0.783E-02 0.513E-04
CGA:   6    -0.377944465559E+03   -0.18501E-02   -0.18440E-02 10080   0.347E-02-0.282E-03
CGA:   7    -0.377945433871E+03   -0.96831E-03   -0.97488E-03 10080   0.173E-02-0.180E-03
CGA:   8    -0.377945938545E+03   -0.50467E-03   -0.51190E-03 10080   0.866E-03-0.133E-03
CGA:   9    -0.377946186642E+03   -0.24810E-03   -0.25895E-03 10080   0.388E-03-0.170E-03
CGA:  10    -0.377946261118E+03   -0.74476E-04   -0.74829E-04 10080   0.102E-03 0.151E-04
CGA:  11    -0.377946285853E+03   -0.24735E-04   -0.25132E-04 10080   0.328E-04 0.168E-04
CGA:  12    -0.377946297170E+03   -0.11318E-04   -0.11267E-04 10080   0.153E-04 0.150E-05
CGA:  13    -0.377946298247E+03   -0.10768E-05   -0.22278E-05 10080   0.791E-05 0.938E-05
   9 F= -.37794630E+03 E0= -.37794630E+03  d E =-.420196E-01  mag=    12.0000
       N       E                     dE             d eps       ncg     rms          ort
SDA:   1    -0.377222547416E+03    0.72375E+00    0.00000E+00 10080   0.178E+01 0.000E+00
CGA:   2    -0.377829943430E+03   -0.60740E+00   -0.60814E+00 10080   0.527E+00-0.832E-02
CGA:   3    -0.377937286884E+03   -0.10734E+00   -0.10757E+00 10080   0.122E+00 0.428E-02
CGA:   4    -0.377957909513E+03   -0.20623E-01   -0.20638E-01 10080   0.275E-01 0.199E-03
CGA:   5    -0.377963187364E+03   -0.52779E-02   -0.52789E-02 10080   0.768E-02 0.174E-04
CGA:   6    -0.377964675164E+03   -0.14878E-02   -0.15004E-02 10080   0.214E-02 0.250E-03
CGA:   7    -0.377965266640E+03   -0.59148E-03   -0.59179E-03 10080   0.889E-03-0.121E-04
CGA:   8    -0.377965511659E+03   -0.24502E-03   -0.24457E-03 10080   0.406E-03 0.138E-04
CGA:   9    -0.377965596689E+03   -0.85031E-04   -0.88551E-04 10080   0.123E-03 0.114E-03
CGA:  10    -0.377965629230E+03   -0.32541E-04   -0.33839E-04 10080   0.459E-04 0.447E-04
CGA:  11    -0.377965648598E+03   -0.19368E-04   -0.19219E-04 10080   0.232E-04 0.231E-05
CGA:  12    -0.377965650842E+03   -0.22436E-05   -0.35911E-05 10080   0.124E-04 0.137E-04
  10 F= -.37796565E+03 E0= -.37796565E+03  d E =-.193526E-01  mag=    12.0000
       N       E                     dE             d eps       ncg     rms          ort
SDA:   1    -0.371071104399E+03    0.68945E+01    0.00000E+00 10080   0.163E+02 0.000E+00
CGA:   2    -0.376718859797E+03   -0.56478E+01   -0.56522E+01 10080   0.506E+01-0.382E-01
CGA:   3    -0.377709452151E+03   -0.99059E+00   -0.99203E+00 10080   0.117E+01 0.219E-01
CGA:   4    -0.377905932535E+03   -0.19648E+00   -0.19629E+00 10080   0.262E+00-0.207E-02
CGA:   5    -0.377956249290E+03   -0.50317E-01   -0.50258E-01 10080   0.749E-01-0.134E-02
CGA:   6    -0.377970886126E+03   -0.14637E-01   -0.14701E-01 10080   0.204E-01 0.172E-02
CGA:   7    -0.377976422965E+03   -0.55368E-02   -0.55486E-02 10080   0.877E-02-0.354E-03
CGA:   8    -0.377978963849E+03   -0.25409E-02   -0.25874E-02 10080   0.451E-02-0.699E-03
CGA:   9    -0.377979974440E+03   -0.10106E-02   -0.10074E-02 10080   0.135E-02 0.539E-03
CGA:  10    -0.377980409732E+03   -0.43529E-03   -0.43422E-03 10080   0.500E-03 0.210E-04
CGA:  11    -0.377980570607E+03   -0.16087E-03   -0.23872E-03 10080   0.593E-03-0.338E-03
CGA:  12    -0.377980628389E+03   -0.57782E-04   -0.80686E-04 10080   0.107E-03 0.199E-03
CGA:  13    -0.377980647075E+03   -0.18686E-04   -0.22817E-04 10080   0.464E-04 0.484E-04
CGA:  14    -0.377980373581E+03    0.27349E-03   -0.14755E-03 10080   0.115E-02-0.287E-03
CGA:  15    -0.377980598344E+03   -0.22476E-03   -0.27320E-03 10080   0.148E-03 0.239E-03
CGA:  16    -0.377977300329E+03    0.32980E-02   -0.17959E-02 10080   0.144E-01-0.160E-02
CGA:  17    -0.377979511601E+03   -0.22113E-02   -0.28696E-02 10080   0.272E-02 0.122E-02
CGA:  18    -0.377980648791E+03   -0.11372E-02   -0.96296E-03 10080   0.251E-03-0.407E-03
CGA:  19    -0.377980663690E+03   -0.14899E-04   -0.50101E-04 10080   0.503E-04 0.705E-04
CGA:  20    -0.377980685289E+03   -0.21599E-04   -0.20135E-04 10080   0.774E-05-0.371E-05
CGA:  21    -0.377980717489E+03   -0.32200E-04    0.10929E-05 10080   0.130E-04-0.585E-05
CGA:  22    -0.377980711666E+03    0.58231E-05   -0.60127E-06 10080   0.766E-05 0.100E-04
  11 F= -.37798071E+03 E0= -.37798071E+03  d E =-.150608E-01  mag=    12.0000
       N       E                     dE             d eps       ncg     rms          ort
SDA:   1    -0.365592549342E+03    0.12388E+02    0.00000E+00 10080   0.298E+02 0.000E+00
CGA:   2    -0.375493156404E+03   -0.99006E+01   -0.99301E+01 10080   0.973E+01-0.177E-01
CGA:   3    -0.377381560040E+03   -0.18884E+01   -0.19036E+01 10080   0.240E+01 0.149E-01
CGA:   4    -0.377794214793E+03   -0.41265E+00   -0.41156E+00 10080   0.501E+00 0.412E-02
CGA:   5    -0.377890219337E+03   -0.96005E-01   -0.95590E-01 10080   0.152E+00-0.378E-03
CGA:   6    -0.377920783870E+03   -0.30565E-01   -0.30905E-01 10080   0.436E-01 0.864E-03
CGA:   7    -0.377932782710E+03   -0.11999E-01   -0.11891E-01 10080   0.190E-01-0.424E-03
CGA:   8    -0.377938311633E+03   -0.55289E-02   -0.53567E-02 10080   0.908E-02-0.733E-03
CGA:   9    -0.377940710728E+03   -0.23991E-02   -0.24386E-02 10080   0.292E-02 0.174E-03
CGA:  10    -0.377941633950E+03   -0.92322E-03   -0.89924E-03 10080   0.986E-03-0.123E-03
CGA:  11    -0.377941968873E+03   -0.33492E-03   -0.31388E-03 10080   0.404E-03-0.136E-03
CGA:  12    -0.377942054053E+03   -0.85181E-04   -0.96935E-04 10080   0.150E-03 0.582E-04
CGA:  13    -0.377942132455E+03   -0.78401E-04   -0.77807E-04 10080   0.136E-03-0.403E-04
CGA:  14    -0.377942154954E+03   -0.22499E-04   -0.25756E-04 10080   0.696E-04 0.154E-04
CGA:  15    -0.377942161757E+03   -0.68037E-05   -0.13487E-04 10080   0.247E-04 0.235E-04
  12 F= -.37794216E+03 E0= -.37794216E+03  d E =0.385499E-01  mag=    12.0000
       N       E                     dE             d eps       ncg     rms          ort
SDA:   1    -0.374557120508E+03    0.33850E+01    0.00000E+00 10080   0.821E+01 0.000E+00
CGA:   2    -0.377296642841E+03   -0.27395E+01   -0.27400E+01 10080   0.304E+01-0.642E-03
CGA:   3    -0.377847478633E+03   -0.55084E+00   -0.55098E+00 10080   0.767E+00-0.101E-03
CGA:   4    -0.377982169697E+03   -0.13469E+00   -0.13429E+00 10080   0.171E+00-0.220E-02
CGA:   5    -0.378013040712E+03   -0.30871E-01   -0.30762E-01 10080   0.475E-01-0.561E-03
CGA:   6    -0.378022946656E+03   -0.99059E-02   -0.99294E-02 10080   0.138E-01 0.122E-03
CGA:   7    -0.378026554934E+03   -0.36083E-02   -0.35643E-02 10080   0.562E-02-0.356E-03
CGA:   8    -0.378028127627E+03   -0.15727E-02   -0.15338E-02 10080   0.250E-02-0.406E-03
CGA:   9    -0.378028811313E+03   -0.68369E-03   -0.67227E-03 10080   0.841E-03-0.140E-03
CGA:  10    -0.378029089939E+03   -0.27863E-03   -0.27442E-03 10080   0.347E-03-0.195E-03
CGA:  11    -0.378029171949E+03   -0.82010E-04   -0.78804E-04 10080   0.107E-03-0.453E-04
CGA:  12    -0.378029206793E+03   -0.34843E-04   -0.35249E-04 10080   0.526E-04-0.232E-04
CGA:  13    -0.378029224269E+03   -0.17476E-04   -0.19507E-04 10080   0.414E-04-0.184E-04
CGA:  14    -0.378029226089E+03   -0.18196E-05   -0.43150E-05 10080   0.198E-04 0.119E-04
  13 F= -.37802923E+03 E0= -.37802923E+03  d E =-.870643E-01  mag=    12.0000
       N       E                     dE             d eps       ncg     rms          ort
SDA:   1    -0.377662420582E+03    0.36680E+00    0.00000E+00 10080   0.910E+00 0.000E+00
CGA:   2    -0.377962213554E+03   -0.29979E+00   -0.29981E+00 10080   0.277E+00 0.764E-03
CGA:   3    -0.378018896611E+03   -0.56683E-01   -0.56743E-01 10080   0.749E-01 0.327E-03
CGA:   4    -0.378031961353E+03   -0.13065E-01   -0.12985E-01 10080   0.161E-01-0.484E-03
CGA:   5    -0.378035076960E+03   -0.31156E-02   -0.30850E-02 10080   0.487E-02-0.225E-03
CGA:   6    -0.378036040018E+03   -0.96306E-03   -0.97212E-03 10080   0.144E-02 0.742E-04
CGA:   7    -0.378036423029E+03   -0.38301E-03   -0.38366E-03 10080   0.584E-03 0.118E-04
CGA:   8    -0.378036603099E+03   -0.18007E-03   -0.17947E-03 10080   0.314E-03-0.592E-04
CGA:   9    -0.378036677706E+03   -0.74606E-04   -0.74580E-04 10080   0.976E-04-0.510E-06
CGA:  10    -0.378036712841E+03   -0.35135E-04   -0.37999E-04 10080   0.616E-04-0.368E-04
CGA:  11    -0.378036725473E+03   -0.12632E-04   -0.17028E-04 10080   0.517E-04-0.345E-04
CGA:  12    -0.378036731570E+03   -0.60974E-05   -0.86614E-05 10080   0.107E-04 0.166E-04
  14 F= -.37803673E+03 E0= -.37803673E+03  d E =-.750548E-02  mag=    12.0000
       N       E                     dE             d eps       ncg     rms          ort
SDA:   1    -0.377744899189E+03    0.29183E+00    0.00000E+00 10080   0.713E+00 0.000E+00
CGA:   2    -0.377985549042E+03   -0.24065E+00   -0.24070E+00 10080   0.225E+00-0.182E-02
CGA:   3    -0.378030298295E+03   -0.44749E-01   -0.44850E-01 10080   0.540E-01 0.832E-03
CGA:   4    -0.378039072178E+03   -0.87739E-02   -0.88136E-02 10080   0.116E-01 0.266E-03
CGA:   5    -0.378041300578E+03   -0.22284E-02   -0.22391E-02 10080   0.316E-02 0.983E-04
CGA:   6    -0.378041931578E+03   -0.63100E-03   -0.63765E-03 10080   0.903E-03 0.708E-04
CGA:   7    -0.378042158748E+03   -0.22717E-03   -0.22879E-03 10080   0.344E-03 0.400E-04
CGA:   8    -0.378042253429E+03   -0.94681E-04   -0.95449E-04 10080   0.148E-03 0.372E-04
CGA:   9    -0.378042290479E+03   -0.37050E-04   -0.39109E-04 10080   0.509E-04 0.437E-04
CGA:  10    -0.378042302909E+03   -0.12430E-04   -0.14081E-04 10080   0.192E-04 0.239E-04
CGA:  11    -0.378042307907E+03   -0.49978E-05   -0.58304E-05 10080   0.845E-05 0.115E-04
  15 F= -.37804231E+03 E0= -.37804231E+03  d E =-.557634E-02  mag=    12.0000
       N       E                     dE             d eps       ncg     rms          ort
SDA:   1    -0.377146441171E+03    0.89586E+00    0.00000E+00 10080   0.218E+01 0.000E+00
CGA:   2    -0.377868465159E+03   -0.72202E+00   -0.72212E+00 10080   0.735E+00-0.247E-02
CGA:   3    -0.378011738754E+03   -0.14327E+00   -0.14341E+00 10080   0.179E+00 0.124E-02
CGA:   4    -0.378040548294E+03   -0.28810E-01   -0.28852E-01 10080   0.382E-01 0.337E-03
CGA:   5    -0.378047898593E+03   -0.73503E-02   -0.73573E-02 10080   0.104E-01 0.861E-04
CGA:   6    -0.378049993984E+03   -0.20954E-02   -0.21043E-02 10080   0.303E-02 0.140E-03
CGA:   7    -0.378050756900E+03   -0.76292E-03   -0.76362E-03 10080   0.119E-02 0.597E-04
CGA:   8    -0.378051098510E+03   -0.34161E-03   -0.34046E-03 10080   0.542E-03 0.539E-04
CGA:   9    -0.378051250071E+03   -0.15156E-03   -0.15106E-03 10080   0.190E-03 0.927E-04
CGA:  10    -0.378051313985E+03   -0.63915E-04   -0.63219E-04 10080   0.695E-04 0.312E-04
CGA:  11    -0.378051340111E+03   -0.26125E-04   -0.25786E-04 10080   0.304E-04 0.603E-05
CGA:  12    -0.378051346700E+03   -0.65891E-05   -0.72224E-05 10080   0.127E-04 0.136E-04
  16 F= -.37805135E+03 E0= -.37805135E+03  d E =-.903879E-02  mag=    12.0000
       N       E                     dE             d eps       ncg     rms          ort
SDA:   1    -0.361472628266E+03    0.16579E+02    0.00000E+00 10080   0.398E+02 0.000E+00
CGA:   2    -0.374575359839E+03   -0.13103E+02   -0.13104E+02 10080   0.139E+02-0.244E-01
CGA:   3    -0.377209286800E+03   -0.26339E+01   -0.26409E+01 10080   0.338E+01 0.328E-01
CGA:   4    -0.377784867983E+03   -0.57558E+00   -0.57480E+00 10080   0.726E+00-0.670E-02
CGA:   5    -0.377923197292E+03   -0.13833E+00   -0.13807E+00 10080   0.214E+00-0.371E-02
CGA:   6    -0.377966660252E+03   -0.43463E-01   -0.43594E-01 10080   0.611E-01 0.267E-02
CGA:   7    -0.377983452406E+03   -0.16792E-01   -0.16831E-01 10080   0.273E-01-0.175E-02
CGA:   8    -0.377991308421E+03   -0.78560E-02   -0.79822E-02 10080   0.142E-01-0.254E-02
CGA:   9    -0.377994709305E+03   -0.34009E-02   -0.33956E-02 10080   0.437E-02 0.575E-03
CGA:  10    -0.377996110046E+03   -0.14007E-02   -0.14175E-02 10080   0.168E-02-0.290E-03
CGA:  11    -0.377996639658E+03   -0.52961E-03   -0.59166E-03 10080   0.997E-03-0.520E-03
CGA:  12    -0.377996769244E+03   -0.12959E-03   -0.14102E-03 10080   0.422E-03 0.196E-03
CGA:  13    -0.377996862364E+03   -0.93120E-04   -0.10008E-03 10080   0.182E-03 0.112E-03
CGA:  14    -0.377996941784E+03   -0.79420E-04   -0.11953E-03 10080   0.281E-03-0.154E-03
CGA:  15    -0.377996954612E+03   -0.12828E-04   -0.34464E-04 10080   0.827E-04 0.147E-03
CGA:  16    -0.377996966536E+03   -0.11924E-04   -0.15050E-04 10080   0.210E-04 0.388E-04
CGA:  17    -0.377996970323E+03   -0.37877E-05   -0.50780E-05 10080   0.716E-05 0.137E-04
  17 F= -.37799697E+03 E0= -.37799697E+03  d E =0.543764E-01  mag=    12.0000
       N       E                     dE             d eps       ncg     rms          ort
SDA:   1    -0.374876884653E+03    0.31201E+01    0.00000E+00 10080   0.756E+01 0.000E+00
CGA:   2    -0.377407720196E+03   -0.25308E+01   -0.25304E+01 10080   0.269E+01 0.401E-02
CGA:   3    -0.377909905609E+03   -0.50219E+00   -0.50259E+00 10080   0.685E+00 0.228E-02
CGA:   4    -0.378028680697E+03   -0.11878E+00   -0.11866E+00 10080   0.146E+00-0.143E-02
CGA:   5    -0.378055793126E+03   -0.27112E-01   -0.27056E-01 10080   0.424E-01-0.923E-03
CGA:   6    -0.378064450580E+03   -0.86575E-02   -0.86638E-02 10080   0.122E-01 0.145E-03
CGA:   7    -0.378067603935E+03   -0.31534E-02   -0.31523E-02 10080   0.483E-02 0.699E-04
CGA:   8    -0.378068983135E+03   -0.13792E-02   -0.13886E-02 10080   0.229E-02-0.225E-03
CGA:   9    -0.378069630986E+03   -0.64785E-03   -0.65764E-03 10080   0.866E-03-0.179E-03
CGA:  10    -0.378069895054E+03   -0.26407E-03   -0.29862E-03 10080   0.452E-03-0.277E-03
CGA:  11    -0.378069986164E+03   -0.91111E-04   -0.94995E-04 10080   0.164E-03-0.729E-04
CGA:  12    -0.378070030815E+03   -0.44651E-04   -0.44884E-04 10080   0.687E-04-0.351E-05
CGA:  13    -0.378070057297E+03   -0.26482E-04   -0.28658E-04 10080   0.452E-04-0.132E-04
CGA:  14    -0.378070063193E+03   -0.58956E-05   -0.70058E-05 10080   0.195E-04 0.143E-04
  18 F= -.37807006E+03 E0= -.37807006E+03  d E =-.730929E-01  mag=    12.0000
       N       E                     dE             d eps       ncg     rms          ort
SDA:   1    -0.377947850774E+03    0.12221E+00    0.00000E+00 10080   0.315E+00 0.000E+00
CGA:   2    -0.378036300091E+03   -0.88449E-01   -0.88402E-01 10080   0.150E+00 0.224E-02
CGA:   3    -0.378064132421E+03   -0.27832E-01   -0.27885E-01 10080   0.372E-01 0.692E-03
CGA:   4    -0.378070456906E+03   -0.63245E-02   -0.63513E-02 10080   0.844E-02 0.297E-03
CGA:   5    -0.378072044470E+03   -0.15876E-02   -0.15873E-02 10080   0.231E-02-0.560E-05
CGA:   6    -0.378072564512E+03   -0.52004E-03   -0.51556E-03 10080   0.774E-03-0.171E-03
CGA:   7    -0.378072717345E+03   -0.15283E-03   -0.15460E-03 10080   0.237E-03 0.539E-04
CGA:   8    -0.378072763254E+03   -0.45909E-04   -0.49502E-04 10080   0.741E-04 0.695E-04
CGA:   9    -0.378072794611E+03   -0.31356E-04   -0.32234E-04 10080   0.514E-04-0.952E-05
CGA:  10    -0.378072808119E+03   -0.13508E-04   -0.17469E-04 10080   0.466E-04-0.281E-04
CGA:  11    -0.378072816590E+03   -0.84714E-05   -0.88705E-05 10080   0.895E-05 0.606E-05
CGA:  12    -0.378072822299E+03   -0.57086E-05    0.10871E-04 10080   0.163E-05 0.189E-05
  19 F= -.37807282E+03 E0= -.37807282E+03  d E =-.275911E-02  mag=    12.0000
       N       E                     dE             d eps       ncg     rms          ort
SDA:   1    -0.378034652535E+03    0.38164E-01    0.00000E+00 10080   0.942E-01 0.000E+00
CGA:   2    -0.378066653196E+03   -0.32001E-01   -0.32069E-01 10080   0.314E-01-0.806E-03
CGA:   3    -0.378072699256E+03   -0.60461E-02   -0.60511E-02 10080   0.741E-02 0.683E-04
CGA:   4    -0.378073927198E+03   -0.12279E-02   -0.12256E-02 10080   0.163E-02-0.277E-04
CGA:   5    -0.378074233624E+03   -0.30643E-03   -0.30788E-03 10080   0.438E-03 0.241E-04
CGA:   6    -0.378074317872E+03   -0.84248E-04   -0.85716E-04 10080   0.118E-03 0.272E-04
CGA:   7    -0.378074357960E+03   -0.40088E-04   -0.45681E-04 10080   0.103E-03-0.465E-04
CGA:   8    -0.378074372139E+03   -0.14179E-04   -0.13959E-04 10080   0.491E-04-0.809E-05
CGA:   9    -0.378074377819E+03   -0.56798E-05   -0.69640E-05 10080   0.213E-04 0.136E-04
  20 F= -.37807438E+03 E0= -.37807438E+03  d E =-.155552E-02  mag=    12.0000
       N       E                     dE             d eps       ncg     rms          ort
SDA:   1    -0.377986229021E+03    0.88143E-01    0.00000E+00 10080   0.213E+00 0.000E+00
CGA:   2    -0.378059031339E+03   -0.72802E-01   -0.72842E-01 10080   0.699E-01-0.448E-03
CGA:   3    -0.378072586350E+03   -0.13555E-01   -0.13550E-01 10080   0.168E-01-0.120E-03
CGA:   4    -0.378075316612E+03   -0.27303E-02   -0.27285E-02 10080   0.366E-02-0.258E-04
CGA:   5    -0.378076031761E+03   -0.71515E-03   -0.71510E-03 10080   0.995E-03-0.200E-05
CGA:   6    -0.378076238783E+03   -0.20702E-03   -0.20608E-03 10080   0.310E-03-0.340E-04
CGA:   7    -0.378076326256E+03   -0.87472E-04   -0.94305E-04 10080   0.200E-03-0.842E-04
CGA:   8    -0.378076367473E+03   -0.41217E-04   -0.44593E-04 10080   0.110E-03-0.490E-04
CGA:   9    -0.378076390623E+03   -0.23150E-04   -0.23737E-04 10080   0.405E-04-0.129E-04
CGA:  10    -0.378076402103E+03   -0.11480E-04   -0.13576E-04 10080   0.244E-04-0.154E-04
CGA:  11    -0.378076406184E+03   -0.40811E-05   -0.41283E-05 10080   0.996E-05-0.214E-05
  21 F= -.37807641E+03 E0= -.37807641E+03  d E =-.202837E-02  mag=    12.0000
       N       E                     dE             d eps       ncg     rms          ort
SDA:   1    -0.372175084795E+03    0.59013E+01    0.00000E+00 10080   0.141E+02 0.000E+00
CGA:   2    -0.376985287457E+03   -0.48102E+01   -0.48104E+01 10080   0.417E+01-0.788E-02
CGA:   3    -0.377878583237E+03   -0.89330E+00   -0.89396E+00 10080   0.840E+00 0.974E-02
CGA:   4    -0.378022507667E+03   -0.14392E+00   -0.14336E+00 10080   0.208E+00-0.524E-02
CGA:   5    -0.378062969835E+03   -0.40462E-01   -0.40433E-01 10080   0.551E-01-0.524E-03
CGA:   6    -0.378073870204E+03   -0.10900E-01   -0.10957E-01 10080   0.171E-01 0.103E-02
CGA:   7    -0.378078875527E+03   -0.50053E-02   -0.50778E-02 10080   0.856E-02-0.174E-02
CGA:   8    -0.378081195035E+03   -0.23195E-02   -0.23623E-02 10080   0.449E-02-0.774E-03
CGA:   9    -0.378082263218E+03   -0.10682E-02   -0.10673E-02 10080   0.145E-02 0.144E-03
CGA:  10    -0.378082780556E+03   -0.51734E-03   -0.60881E-03 10080   0.103E-02-0.599E-03
CGA:  11    -0.378082899766E+03   -0.11921E-03   -0.12245E-03 10080   0.442E-03 0.542E-04
CGA:  12    -0.378082977210E+03   -0.77444E-04   -0.83847E-04 10080   0.187E-03 0.801E-04
CGA:  13    -0.378083048466E+03   -0.71257E-04   -0.79132E-04 10080   0.156E-03-0.774E-04
CGA:  14    -0.378083060757E+03   -0.12290E-04   -0.14434E-04 10080   0.115E-03 0.206E-04
CGA:  15    -0.378083068561E+03   -0.78042E-05   -0.15321E-04 10080   0.518E-04 0.544E-04
  22 F= -.37808307E+03 E0= -.37808307E+03  d E =-.666238E-02  mag=    12.0000
       N       E                     dE             d eps       ncg     rms          ort
SDA:   1    -0.374516149785E+03    0.35669E+01    0.00000E+00 10080   0.862E+01 0.000E+00
CGA:   2    -0.377323063203E+03   -0.28069E+01   -0.28071E+01 10080   0.292E+01-0.567E-02
CGA:   3    -0.377912331169E+03   -0.58927E+00   -0.58961E+00 10080   0.697E+00 0.386E-02
CGA:   4    -0.378025110559E+03   -0.11278E+00   -0.11265E+00 10080   0.147E+00-0.116E-02
CGA:   5    -0.378053929215E+03   -0.28819E-01   -0.28802E-01 10080   0.420E-01-0.387E-03
CGA:   6    -0.378062258910E+03   -0.83297E-02   -0.83517E-02 10080   0.121E-01 0.563E-03
CGA:   7    -0.378065612681E+03   -0.33538E-02   -0.33728E-02 10080   0.541E-02-0.492E-03
CGA:   8    -0.378067184277E+03   -0.15716E-02   -0.16044E-02 10080   0.294E-02-0.456E-03
CGA:   9    -0.378067902009E+03   -0.71773E-03   -0.71391E-03 10080   0.980E-03 0.159E-03
CGA:  10    -0.378068243904E+03   -0.34190E-03   -0.35795E-03 10080   0.467E-03-0.154E-03
CGA:  11    -0.378068368915E+03   -0.12501E-03   -0.13125E-03 10080   0.210E-03-0.728E-04
CGA:  12    -0.378068410451E+03   -0.41536E-04   -0.42141E-04 10080   0.807E-04 0.441E-04
CGA:  13    -0.378068439143E+03   -0.28692E-04   -0.28431E-04 10080   0.400E-04 0.639E-05
CGA:  14    -0.378068453511E+03   -0.14368E-04   -0.14260E-04 10080   0.180E-04 0.134E-05
CGA:  15    -0.378068453666E+03   -0.15434E-06   -0.19997E-05 10080   0.103E-04 0.124E-04
  23 F= -.37806845E+03 E0= -.37806845E+03  d E =0.146149E-01  mag=    12.0000
       N       E                     dE             d eps       ncg     rms          ort
SDA:   1    -0.373406588439E+03    0.46619E+01    0.00000E+00 10080   0.112E+02 0.000E+00
CGA:   2    -0.377196380766E+03   -0.37898E+01   -0.37897E+01 10080   0.343E+01-0.258E-02
CGA:   3    -0.377906448940E+03   -0.71007E+00   -0.71056E+00 10080   0.763E+00 0.902E-02
CGA:   4    -0.378034273040E+03   -0.12782E+00   -0.12741E+00 10080   0.177E+00-0.528E-02
CGA:   5    -0.378069123313E+03   -0.34850E-01   -0.34781E-01 10080   0.495E-01-0.162E-02
CGA:   6    -0.378078763203E+03   -0.96399E-02   -0.96832E-02 10080   0.149E-01 0.101E-02
CGA:   7    -0.378083001006E+03   -0.42378E-02   -0.42729E-02 10080   0.688E-02-0.793E-03
CGA:   8    -0.378085066052E+03   -0.20650E-02   -0.21620E-02 10080   0.424E-02-0.105E-02
CGA:   9    -0.378085998138E+03   -0.93209E-03   -0.93190E-03 10080   0.136E-02 0.133E-04
CGA:  10    -0.378086437834E+03   -0.43970E-03   -0.46924E-03 10080   0.667E-03-0.297E-03
CGA:  11    -0.378086599982E+03   -0.16215E-03   -0.17635E-03 10080   0.335E-03-0.161E-03
CGA:  12    -0.378086655527E+03   -0.55546E-04   -0.57407E-04 10080   0.139E-03 0.652E-04
CGA:  13    -0.378086692977E+03   -0.37449E-04   -0.38202E-04 10080   0.593E-04 0.320E-04
CGA:  14    -0.378086717681E+03   -0.24704E-04   -0.24942E-04 10080   0.311E-04-0.270E-05
CGA:  15    -0.378086716823E+03    0.85796E-06   -0.26131E-05 10080   0.199E-04 0.206E-04
  24 F= -.37808672E+03 E0= -.37808672E+03  d E =-.182632E-01  mag=    12.0000
       N       E                     dE             d eps       ncg     rms          ort
SDA:   1    -0.374435753916E+03    0.36510E+01    0.00000E+00 10080   0.864E+01 0.000E+00
CGA:   2    -0.377348618024E+03   -0.29129E+01   -0.29126E+01 10080   0.286E+01 0.120E-03
CGA:   3    -0.377912103787E+03   -0.56349E+00   -0.56387E+00 10080   0.677E+00 0.453E-02
CGA:   4    -0.378023106711E+03   -0.11100E+00   -0.11079E+00 10080   0.149E+00-0.258E-02
CGA:   5    -0.378052366899E+03   -0.29260E-01   -0.29199E-01 10080   0.425E-01-0.146E-02
CGA:   6    -0.378060808994E+03   -0.84421E-02   -0.84559E-02 10080   0.125E-01 0.371E-03
CGA:   7    -0.378064153175E+03   -0.33442E-02   -0.33529E-02 10080   0.532E-02-0.283E-03
CGA:   8    -0.378065807488E+03   -0.16543E-02   -0.17285E-02 10080   0.326E-02-0.770E-03
CGA:   9    -0.378066595679E+03   -0.78819E-03   -0.79655E-03 10080   0.120E-02-0.187E-03
CGA:  10    -0.378066965283E+03   -0.36960E-03   -0.40311E-03 10080   0.569E-03-0.293E-03
CGA:  11    -0.378067106088E+03   -0.14081E-03   -0.15886E-03 10080   0.292E-03-0.150E-03
CGA:  12    -0.378067163469E+03   -0.57381E-04   -0.57052E-04 10080   0.115E-03 0.331E-04
CGA:  13    -0.378067201698E+03   -0.38230E-04   -0.37886E-04 10080   0.521E-04 0.821E-05
CGA:  14    -0.378067214045E+03   -0.12347E-04   -0.12825E-04 10080   0.193E-04 0.172E-04
CGA:  15    -0.378067214949E+03   -0.90401E-06   -0.30486E-05 10080   0.935E-05 0.156E-04
  25 F= -.37806721E+03 E0= -.37806721E+03  d E =0.195019E-01  mag=    12.0000
       N       E                     dE             d eps       ncg     rms          ort
SDA:   1    -0.374528248954E+03    0.35390E+01    0.00000E+00 10080   0.857E+01 0.000E+00
CGA:   2    -0.377359425929E+03   -0.28312E+01   -0.28318E+01 10080   0.292E+01-0.959E-02
CGA:   3    -0.377934961507E+03   -0.57554E+00   -0.57585E+00 10080   0.696E+00 0.355E-02
CGA:   4    -0.378047794037E+03   -0.11283E+00   -0.11270E+00 10080   0.150E+00-0.159E-02
CGA:   5    -0.378077202286E+03   -0.29408E-01   -0.29385E-01 10080   0.420E-01-0.559E-03
CGA:   6    -0.378085509423E+03   -0.83071E-02   -0.83349E-02 10080   0.122E-01 0.697E-03
CGA:   7    -0.378088862955E+03   -0.33535E-02   -0.33738E-02 10080   0.542E-02-0.558E-03
CGA:   8    -0.378090450429E+03   -0.15875E-02   -0.16317E-02 10080   0.299E-02-0.569E-03
CGA:   9    -0.378091136397E+03   -0.68597E-03   -0.68284E-03 10080   0.967E-03 0.238E-03
CGA:  10    -0.378091468044E+03   -0.33165E-03   -0.33847E-03 10080   0.425E-03-0.834E-04
CGA:  11    -0.378091597486E+03   -0.12944E-03   -0.14215E-03 10080   0.243E-03-0.107E-03
CGA:  12    -0.378091628113E+03   -0.30627E-04   -0.34660E-04 10080   0.107E-03 0.652E-04
CGA:  13    -0.378091650346E+03   -0.22233E-04   -0.24806E-04 10080   0.445E-04 0.386E-04
CGA:  14    -0.378091671904E+03   -0.21558E-04   -0.28295E-04 10080   0.554E-04-0.306E-04
CGA:  15    -0.378091673704E+03   -0.17996E-05   -0.63701E-05 10080   0.190E-04 0.321E-04
  26 F= -.37809167E+03 E0= -.37809167E+03  d E =-.244588E-01  mag=    12.0000
       N       E                     dE             d eps       ncg     rms          ort
SDA:   1    -0.377742860374E+03    0.34881E+00    0.00000E+00 10080   0.833E+00 0.000E+00
CGA:   2    -0.378012458244E+03   -0.26960E+00   -0.26965E+00 10080   0.317E+00-0.985E-03
CGA:   3    -0.378073182176E+03   -0.60724E-01   -0.60730E-01 10080   0.793E-01-0.718E-05
CGA:   4    -0.378086353284E+03   -0.13171E-01   -0.13175E-01 10080   0.164E-01 0.249E-04
CGA:   5    -0.378089511901E+03   -0.31586E-02   -0.31569E-02 10080   0.478E-02-0.372E-04
CGA:   6    -0.378090492158E+03   -0.98026E-03   -0.98117E-03 10080   0.141E-02 0.254E-04
CGA:   7    -0.378090865625E+03   -0.37347E-03   -0.37421E-03 10080   0.590E-03-0.294E-04
CGA:   8    -0.378091033492E+03   -0.16787E-03   -0.16988E-03 10080   0.282E-03-0.370E-04
CGA:   9    -0.378091102207E+03   -0.68715E-04   -0.68347E-04 10080   0.907E-04 0.223E-04
CGA:  10    -0.378091133505E+03   -0.31298E-04   -0.31764E-04 10080   0.378E-04-0.575E-05
CGA:  11    -0.378091145882E+03   -0.12377E-04   -0.14187E-04 10080   0.242E-04-0.118E-04
CGA:  12    -0.378091147793E+03   -0.19111E-05   -0.26297E-05 10080   0.118E-04 0.741E-05
  27 F= -.37809115E+03 E0= -.37809115E+03  d E =0.525911E-03  mag=    12.0000
       N       E                     dE             d eps       ncg     rms          ort
SDA:   1    -0.377874683102E+03    0.21646E+00    0.00000E+00 10080   0.519E+00 0.000E+00
CGA:   2    -0.378048470880E+03   -0.17379E+00   -0.17371E+00 10080   0.183E+00 0.729E-03
CGA:   3    -0.378083815899E+03   -0.35345E-01   -0.35365E-01 10080   0.444E-01 0.290E-03
CGA:   4    -0.378091220491E+03   -0.74046E-02   -0.73886E-02 10080   0.943E-02-0.209E-03
CGA:   5    -0.378093064619E+03   -0.18441E-02   -0.18393E-02 10080   0.273E-02-0.108E-03
CGA:   6    -0.378093616741E+03   -0.55212E-03   -0.55209E-03 10080   0.796E-03-0.171E-05
CGA:   7    -0.378093823587E+03   -0.20685E-03   -0.20703E-03 10080   0.320E-03-0.814E-05
CGA:   8    -0.378093921909E+03   -0.98322E-04   -0.10231E-03 10080   0.187E-03-0.474E-04
CGA:   9    -0.378093971834E+03   -0.49925E-04   -0.55216E-04 10080   0.999E-04-0.507E-04
CGA:  10    -0.378093993685E+03   -0.21851E-04   -0.23733E-04 10080   0.401E-04-0.241E-04
CGA:  11    -0.378094003737E+03   -0.10052E-04   -0.11213E-04 10080   0.199E-04-0.997E-05
CGA:  12    -0.378094009511E+03   -0.57742E-05   -0.65729E-05 10080   0.123E-04-0.441E-05
  28 F= -.37809401E+03 E0= -.37809401E+03  d E =-.286172E-02  mag=    12.0000
       N       E                     dE             d eps       ncg     rms          ort
SDA:   1    -0.378083689594E+03    0.10314E-01    0.00000E+00 10080   0.281E-01 0.000E+00
CGA:   2    -0.378092508933E+03   -0.88193E-02   -0.88266E-02 10080   0.101E-01-0.181E-03
CGA:   3    -0.378094447523E+03   -0.19386E-02   -0.19433E-02 10080   0.265E-02 0.570E-04
CGA:   4    -0.378094883105E+03   -0.43558E-03   -0.43748E-03 10080   0.548E-03 0.174E-04
CGA:   5    -0.378094986959E+03   -0.10385E-03   -0.10381E-03 10080   0.151E-03-0.657E-06
CGA:   6    -0.378095021991E+03   -0.35032E-04   -0.34571E-04 10080   0.539E-04-0.145E-04
CGA:   7    -0.378095036934E+03   -0.14944E-04   -0.17655E-04 10080   0.511E-04-0.262E-04
CGA:   8    -0.378095043305E+03   -0.63710E-05   -0.10210E-04 10080   0.499E-04-0.307E-04
  29 F= -.37809504E+03 E0= -.37809504E+03  d E =-.103379E-02  mag=    12.0000
       N       E                     dE             d eps       ncg     rms          ort
SDA:   1    -0.371003156298E+03    0.70919E+01    0.00000E+00 10080   0.178E+02 0.000E+00
CGA:   2    -0.376323837903E+03   -0.53207E+01   -0.53198E+01 10080   0.696E+01 0.125E-01
CGA:   3    -0.377669442879E+03   -0.13456E+01   -0.13460E+01 10080   0.188E+01-0.140E-02
CGA:   4    -0.377980336767E+03   -0.31089E+00   -0.31083E+00 10080   0.378E+00-0.107E-02
CGA:   5    -0.378051671248E+03   -0.71334E-01   -0.71315E-01 10080   0.105E+00-0.352E-03
CGA:   6    -0.378073655436E+03   -0.21984E-01   -0.21976E-01 10080   0.316E-01-0.221E-03
CGA:   7    -0.378081701278E+03   -0.80458E-02   -0.80468E-02 10080   0.126E-01-0.554E-03
CGA:   8    -0.378085323507E+03   -0.36222E-02   -0.36477E-02 10080   0.594E-02-0.628E-03
CGA:   9    -0.378087076839E+03   -0.17533E-02   -0.17795E-02 10080   0.249E-02-0.436E-03
CGA:  10    -0.378087827260E+03   -0.75042E-03   -0.78098E-03 10080   0.105E-02-0.384E-03
CGA:  11    -0.378088126911E+03   -0.29965E-03   -0.31887E-03 10080   0.454E-03-0.197E-03
CGA:  12    -0.378088259414E+03   -0.13250E-03   -0.13835E-03 10080   0.202E-03-0.544E-04
CGA:  13    -0.378088325032E+03   -0.65618E-04   -0.65929E-04 10080   0.769E-04-0.323E-05
CGA:  14    -0.378088340056E+03   -0.15024E-04   -0.16722E-04 10080   0.259E-04 0.301E-04
CGA:  15    -0.378088344067E+03   -0.40117E-05   -0.59209E-05 10080   0.100E-04 0.173E-04
  30 F= -.37808834E+03 E0= -.37808834E+03  d E =0.669924E-02  mag=    12.0000
       N       E                     dE             d eps       ncg     rms          ort
SDA:   1    -0.376665303658E+03    0.14230E+01    0.00000E+00 10080   0.347E+01 0.000E+00
CGA:   2    -0.377767497690E+03   -0.11022E+01   -0.11023E+01 10080   0.144E+01-0.303E-02
CGA:   3    -0.378025295902E+03   -0.25780E+00   -0.25788E+00 10080   0.351E+00 0.621E-03
CGA:   4    -0.378087640844E+03   -0.62345E-01   -0.62294E-01 10080   0.778E-01-0.774E-03
CGA:   5    -0.378101806803E+03   -0.14166E-01   -0.14135E-01 10080   0.217E-01-0.435E-03
CGA:   6    -0.378106341833E+03   -0.45350E-02   -0.45433E-02 10080   0.641E-02 0.185E-03
CGA:   7    -0.378107940089E+03   -0.15983E-02   -0.15986E-02 10080   0.245E-02 0.603E-04
CGA:   8    -0.378108631976E+03   -0.69189E-03   -0.69591E-03 10080   0.111E-02-0.138E-03
CGA:   9    -0.378108915246E+03   -0.28327E-03   -0.28305E-03 10080   0.341E-03 0.125E-04
CGA:  10    -0.378109020351E+03   -0.10511E-03   -0.10600E-03 10080   0.118E-03-0.171E-04
CGA:  11    -0.378109058100E+03   -0.37749E-04   -0.42356E-04 10080   0.659E-04-0.383E-04
CGA:  12    -0.378109063870E+03   -0.57705E-05   -0.74179E-05 10080   0.279E-04 0.170E-04
  31 F= -.37810906E+03 E0= -.37810906E+03  d E =-.207198E-01  mag=    12.0000
       N       E                     dE             d eps       ncg     rms          ort
SDA:   1    -0.376633827896E+03    0.14752E+01    0.00000E+00 10080   0.385E+01 0.000E+00
CGA:   2    -0.377702825586E+03   -0.10690E+01   -0.10688E+01 10080   0.163E+01 0.361E-02
CGA:   3    -0.378015106185E+03   -0.31228E+00   -0.31216E+00 10080   0.454E+00-0.142E-02
CGA:   4    -0.378093384587E+03   -0.78278E-01   -0.78228E-01 10080   0.978E-01-0.795E-03
CGA:   5    -0.378111228020E+03   -0.17843E-01   -0.17848E-01 10080   0.261E-01 0.393E-04
CGA:   6    -0.378116735963E+03   -0.55079E-02   -0.55060E-02 10080   0.789E-02-0.662E-04
CGA:   7    -0.378118756611E+03   -0.20206E-02   -0.20240E-02 10080   0.321E-02-0.223E-03
CGA:   8    -0.378119609780E+03   -0.85317E-03   -0.85701E-03 10080   0.135E-02-0.121E-03
CGA:   9    -0.378120008772E+03   -0.39899E-03   -0.40769E-03 10080   0.566E-03-0.124E-03
CGA:  10    -0.378120168306E+03   -0.15953E-03   -0.16346E-03 10080   0.212E-03-0.563E-04
CGA:  11    -0.378120224958E+03   -0.56652E-04   -0.56489E-04 10080   0.675E-04 0.352E-05
CGA:  12    -0.378120251225E+03   -0.26267E-04   -0.36543E-04 10080   0.750E-04-0.369E-04
CGA:  13    -0.378120262653E+03   -0.11428E-04   -0.13192E-04 10080   0.116E-04 0.192E-04
CGA:  14    -0.378120266930E+03   -0.42763E-05   -0.42368E-05 10080   0.551E-05 0.140E-05
  32 F= -.37812027E+03 E0= -.37812027E+03  d E =-.112031E-01  mag=    12.0000
       N       E                     dE             d eps       ncg     rms          ort
SDA:   1    -0.377885893781E+03    0.23437E+00    0.00000E+00 10080   0.588E+00 0.000E+00
CGA:   2    -0.378068327237E+03   -0.18243E+00   -0.18239E+00 10080   0.246E+00 0.803E-03
CGA:   3    -0.378112900374E+03   -0.44573E-01   -0.44601E-01 10080   0.634E-01 0.145E-03
CGA:   4    -0.378124081620E+03   -0.11181E-01   -0.11214E-01 10080   0.149E-01 0.375E-03
CGA:   5    -0.378126761701E+03   -0.26801E-02   -0.26940E-02 10080   0.391E-02 0.176E-03
CGA:   6    -0.378127621153E+03   -0.85945E-03   -0.85778E-03 10080   0.128E-02-0.452E-04
CGA:   7    -0.378127938742E+03   -0.31759E-03   -0.31759E-03 10080   0.492E-03-0.107E-05
CGA:   8    -0.378128051627E+03   -0.11289E-03   -0.11402E-03 10080   0.161E-03 0.542E-04
CGA:   9    -0.378128103109E+03   -0.51482E-04   -0.51250E-04 10080   0.588E-04 0.650E-05
CGA:  10    -0.378128121961E+03   -0.18852E-04   -0.19113E-04 10080   0.233E-04-0.446E-05
CGA:  11    -0.378128127456E+03   -0.54953E-05   -0.54971E-05 10080   0.646E-05 0.170E-05
CGA:  12    -0.378128095692E+03    0.31765E-04   -0.17128E-04 10080   0.164E-03-0.312E-04
CGA:  13    -0.378128125930E+03   -0.30238E-04   -0.33903E-04 10080   0.171E-04 0.140E-04
CGA:  14    -0.378128133399E+03   -0.74687E-05   -0.70112E-05 10080   0.887E-05-0.585E-05
  33 F= -.37812813E+03 E0= -.37812813E+03  d E =-.786647E-02  mag=    12.0000
       N       E                     dE             d eps       ncg     rms          ort
SDA:   1    -0.377985450287E+03    0.14268E+00    0.00000E+00 10080   0.369E+00 0.000E+00
CGA:   2    -0.378095993013E+03   -0.11054E+00   -0.11052E+00 10080   0.159E+00-0.352E-03
CGA:   3    -0.378125308878E+03   -0.29316E-01   -0.29333E-01 10080   0.409E-01 0.482E-04
CGA:   4    -0.378132170888E+03   -0.68620E-02   -0.68678E-02 10080   0.855E-02 0.704E-05
CGA:   5    -0.378133789814E+03   -0.16189E-02   -0.16135E-02 10080   0.236E-02-0.283E-04
CGA:   6    -0.378134279808E+03   -0.48999E-03   -0.49152E-03 10080   0.704E-03 0.783E-05
CGA:   7    -0.378134450635E+03   -0.17083E-03   -0.17265E-03 10080   0.259E-03 0.130E-04
CGA:   8    -0.378134527470E+03   -0.76834E-04   -0.76163E-04 10080   0.119E-03-0.763E-05
CGA:   9    -0.378134562033E+03   -0.34563E-04   -0.34445E-04 10080   0.473E-04-0.157E-05
CGA:  10    -0.378134577667E+03   -0.15634E-04   -0.15466E-04 10080   0.194E-04-0.456E-05
CGA:  11    -0.378134584477E+03   -0.68107E-05   -0.69606E-05 10080   0.107E-04-0.501E-05
  34 F= -.37813458E+03 E0= -.37813458E+03  d E =-.645108E-02  mag=    12.0000
       N       E                     dE             d eps       ncg     rms          ort
SDA:   1    -0.376876947820E+03    0.12576E+01    0.00000E+00 10080   0.296E+01 0.000E+00
CGA:   2    -0.377916359863E+03   -0.10394E+01   -0.10394E+01 10080   0.908E+00-0.193E-02
CGA:   3    -0.378094606917E+03   -0.17825E+00   -0.17864E+00 10080   0.210E+00 0.164E-02
CGA:   4    -0.378129063520E+03   -0.34457E-01   -0.34341E-01 10080   0.455E-01-0.628E-03
CGA:   5    -0.378138005694E+03   -0.89422E-02   -0.88896E-02 10080   0.129E-01-0.365E-03
CGA:   6    -0.378140531888E+03   -0.25262E-02   -0.25510E-02 10080   0.356E-02 0.179E-03
CGA:   7    -0.378141458950E+03   -0.92706E-03   -0.92450E-03 10080   0.143E-02-0.358E-04
CGA:   8    -0.378141906217E+03   -0.44727E-03   -0.44606E-03 10080   0.793E-03-0.133E-03
CGA:   9    -0.378142107565E+03   -0.20135E-03   -0.20144E-03 10080   0.277E-03 0.230E-05
CGA:  10    -0.378142205499E+03   -0.97934E-04   -0.10065E-03 10080   0.136E-03-0.665E-04
CGA:  11    -0.378142237520E+03   -0.32021E-04   -0.31802E-04 10080   0.512E-04-0.142E-04
CGA:  12    -0.378142248232E+03   -0.10712E-04   -0.11429E-04 10080   0.199E-04 0.970E-05
CGA:  13    -0.378142256682E+03   -0.84504E-05   -0.85014E-05 10080   0.127E-04-0.131E-05
  35 F= -.37814226E+03 E0= -.37814226E+03  d E =-.767221E-02  mag=    12.0000
       N       E                     dE             d eps       ncg     rms          ort
SDA:   1    -0.365112564895E+03    0.13030E+02    0.00000E+00 10080   0.298E+02 0.000E+00
CGA:   2    -0.374232216478E+03   -0.91197E+01   -0.91208E+01 10080   0.128E+02 0.259E-01
CGA:   3    -0.376524356463E+03   -0.22921E+01   -0.22928E+01 10080   0.320E+01 0.151E-01
CGA:   4    -0.377119062727E+03   -0.59471E+00   -0.59476E+00 10080   0.821E+00-0.631E-03
CGA:   5    -0.377265707064E+03   -0.14664E+00   -0.14674E+00 10080   0.213E+00 0.499E-04
CGA:   6    -0.377311853526E+03   -0.46146E-01   -0.46241E-01 10080   0.691E-01 0.114E-02
CGA:   7    -0.377329605866E+03   -0.17752E-01   -0.17742E-01 10080   0.274E-01-0.265E-03
CGA:   8    -0.377336819739E+03   -0.72139E-02   -0.71952E-02 10080   0.104E-01-0.647E-03
CGA:   9    -0.377339602698E+03   -0.27830E-02   -0.27871E-02 10080   0.314E-02 0.244E-03
CGA:  10    -0.377340495986E+03   -0.89329E-03   -0.89488E-03 10080   0.930E-03 0.138E-03
CGA:  11    -0.377340801829E+03   -0.30584E-03   -0.30786E-03 10080   0.337E-03-0.730E-04
CGA:  12    -0.377340883564E+03   -0.81735E-04   -0.82649E-04 10080   0.106E-03 0.371E-04
CGA:  13    -0.377340927386E+03   -0.43822E-04   -0.45452E-04 10080   0.638E-04-0.169E-04
CGA:  14    -0.377340945780E+03   -0.18394E-04   -0.18453E-04 10080   0.307E-04-0.124E-05
CGA:  15    -0.377340948692E+03   -0.29125E-05   -0.49786E-05 10080   0.146E-04 0.157E-04
  36 F= -.37734095E+03 E0= -.37734095E+03  d E =0.801308E+00  mag=    12.0000
       N       E                     dE             d eps       ncg     rms          ort
SDA:   1    -0.375587270273E+03    0.17537E+01    0.00000E+00 10080   0.552E+01 0.000E+00
CGA:   2    -0.377464568095E+03   -0.18773E+01   -0.18774E+01 10080   0.192E+01-0.270E-02
CGA:   3    -0.377823836077E+03   -0.35927E+00   -0.35957E+00 10080   0.566E+00 0.757E-03
CGA:   4    -0.377928450300E+03   -0.10461E+00   -0.10460E+00 10080   0.134E+00-0.446E-04
CGA:   5    -0.377952893361E+03   -0.24443E-01   -0.24446E-01 10080   0.393E-01 0.313E-04
CGA:   6    -0.377961731498E+03   -0.88381E-02   -0.88435E-02 10080   0.137E-01 0.990E-04
CGA:   7    -0.377965359113E+03   -0.36276E-02   -0.36278E-02 10080   0.557E-02 0.183E-04
CGA:   8    -0.377966769728E+03   -0.14106E-02   -0.14122E-02 10080   0.205E-02 0.828E-04
CGA:   9    -0.377967349047E+03   -0.57932E-03   -0.57936E-03 10080   0.631E-03-0.575E-05
CGA:  10    -0.377967550758E+03   -0.20171E-03   -0.20841E-03 10080   0.252E-03-0.112E-03
CGA:  11    -0.377967599759E+03   -0.49001E-04   -0.49597E-04 10080   0.647E-04 0.170E-04
CGA:  12    -0.377967619926E+03   -0.20167E-04   -0.20179E-04 10080   0.269E-04-0.602E-06
CGA:  13    -0.377967626526E+03   -0.66001E-05   -0.17429E-04 10080   0.588E-04-0.284E-04
  37 F= -.37796763E+03 E0= -.37796763E+03  d E =-.626678E+00  mag=    12.0000
       N       E                     dE             d eps       ncg     rms          ort
SDA:   1    -0.376924019218E+03    0.10436E+01    0.00000E+00 10080   0.287E+01 0.000E+00
CGA:   2    -0.377855446204E+03   -0.93143E+00   -0.93126E+00 10080   0.112E+01 0.333E-02
CGA:   3    -0.378059322240E+03   -0.20388E+00   -0.20407E+00 10080   0.320E+00 0.778E-03
CGA:   4    -0.378117585117E+03   -0.58263E-01   -0.58349E-01 10080   0.794E-01 0.799E-03
CGA:   5    -0.378132090355E+03   -0.14505E-01   -0.14514E-01 10080   0.217E-01 0.833E-04
CGA:   6    -0.378136917118E+03   -0.48268E-02   -0.48193E-02 10080   0.773E-02-0.151E-03
CGA:   7    -0.378138827294E+03   -0.19102E-02   -0.19154E-02 10080   0.289E-02 0.249E-03
CGA:   8    -0.378139545492E+03   -0.71820E-03   -0.72485E-03 10080   0.999E-03 0.250E-03
CGA:   9    -0.378139865772E+03   -0.32028E-03   -0.32062E-03 10080   0.358E-03-0.128E-04
CGA:  10    -0.378139964815E+03   -0.99043E-04   -0.99021E-04 10080   0.107E-03 0.203E-05
CGA:  11    -0.378139991023E+03   -0.26208E-04   -0.26556E-04 10080   0.272E-04 0.144E-04
CGA:  12    -0.378139999637E+03   -0.86142E-05   -0.85775E-05 10080   0.960E-05 0.393E-05
  38 F= -.37814000E+03 E0= -.37814000E+03  d E =-.172373E+00  mag=    12.0000
       N       E                     dE             d eps       ncg     rms          ort
SDA:   1    -0.378045118358E+03    0.94873E-01    0.00000E+00 10080   0.294E+00 0.000E+00
CGA:   2    -0.378126745856E+03   -0.81627E-01   -0.81600E-01 10080   0.131E+00 0.216E-02
CGA:   3    -0.378151278176E+03   -0.24532E-01   -0.24564E-01 10080   0.380E-01 0.353E-03
CGA:   4    -0.378157948380E+03   -0.66702E-02   -0.67073E-02 10080   0.925E-02 0.424E-03
CGA:   5    -0.378159650429E+03   -0.17020E-02   -0.17097E-02 10080   0.238E-02 0.988E-04
CGA:   6    -0.378160180406E+03   -0.52998E-03   -0.52611E-03 10080   0.857E-03-0.111E-03
CGA:   7    -0.378160350180E+03   -0.16977E-03   -0.17395E-03 10080   0.264E-03 0.106E-03
CGA:   8    -0.378160389557E+03   -0.39378E-04   -0.49259E-04 10080   0.916E-04 0.118E-03
CGA:   9    -0.378160407882E+03   -0.18324E-04   -0.22389E-04 10080   0.403E-04 0.528E-04
CGA:  10    -0.378160368567E+03    0.39315E-04   -0.48727E-04 10080   0.523E-03-0.910E-04
CGA:  11    -0.378160418742E+03   -0.50175E-04   -0.67329E-04 10080   0.377E-04 0.106E-03
CGA:  12    -0.378160420607E+03   -0.18653E-05   -0.51112E-05 10080   0.104E-04 0.191E-04
  39 F= -.37816042E+03 E0= -.37816042E+03  d E =-.204210E-01  mag=    12.0000
       N       E                     dE             d eps       ncg     rms          ort
SDA:   1    -0.378029855653E+03    0.13056E+00    0.00000E+00 10080   0.367E+00 0.000E+00
CGA:   2    -0.378125513235E+03   -0.95658E-01   -0.95691E-01 10080   0.164E+00 0.250E-02
CGA:   3    -0.378157053406E+03   -0.31540E-01   -0.31561E-01 10080   0.494E-01 0.209E-03
CGA:   4    -0.378165756918E+03   -0.87035E-02   -0.87354E-02 10080   0.121E-01 0.340E-03
CGA:   5    -0.378167949880E+03   -0.21930E-02   -0.22022E-02 10080   0.302E-02 0.107E-03
CGA:   6    -0.378168606020E+03   -0.65614E-03   -0.65140E-03 10080   0.102E-02-0.104E-03
CGA:   7    -0.378168816232E+03   -0.21021E-03   -0.21459E-03 10080   0.321E-03 0.110E-03
CGA:   8    -0.378168866713E+03   -0.50481E-04   -0.61365E-04 10080   0.106E-03 0.132E-03
CGA:   9    -0.378168887937E+03   -0.21223E-04   -0.25834E-04 10080   0.458E-04 0.595E-04
CGA:  10    -0.378168905389E+03   -0.17453E-04   -0.26992E-04 10080   0.109E-03-0.279E-04
CGA:  11    -0.378168909928E+03   -0.45387E-05   -0.11122E-04 10080   0.180E-04 0.405E-04
  40 F= -.37816891E+03 E0= -.37816891E+03  d E =-.848932E-02  mag=    12.0000
       N       E                     dE             d eps       ncg     rms          ort
SDA:   1    -0.378159979414E+03    0.89260E-02    0.00000E+00 10080   0.264E-01 0.000E+00
CGA:   2    -0.378166324804E+03   -0.63454E-02   -0.63487E-02 10080   0.115E-01 0.537E-03
CGA:   3    -0.378168675348E+03   -0.23505E-02   -0.23488E-02 10080   0.365E-02-0.455E-04
CGA:   4    -0.378169319592E+03   -0.64424E-03   -0.64263E-03 10080   0.884E-03-0.245E-04
CGA:   5    -0.378169477689E+03   -0.15810E-03   -0.15814E-03 10080   0.228E-03 0.515E-06
CGA:   6    -0.378169526711E+03   -0.49022E-04   -0.48731E-04 10080   0.743E-04-0.123E-04
CGA:   7    -0.378169538748E+03   -0.12037E-04   -0.12890E-04 10080   0.209E-04 0.161E-04
CGA:   8    -0.378169540067E+03   -0.13196E-05   -0.29907E-05 10080   0.948E-05 0.144E-04
  41 F= -.37816954E+03 E0= -.37816954E+03  d E =-.630139E-03  mag=    12.0000
       N       E                     dE             d eps       ncg     rms          ort
SDA:   1    -0.378147438912E+03    0.22100E-01    0.00000E+00 10080   0.591E-01 0.000E+00
CGA:   2    -0.378162410104E+03   -0.14971E-01   -0.14955E-01 10080   0.254E-01 0.513E-03
CGA:   3    -0.378167537807E+03   -0.51277E-02   -0.51190E-02 10080   0.792E-02-0.371E-03
CGA:   4    -0.378168904469E+03   -0.13667E-02   -0.13557E-02 10080   0.181E-02-0.223E-03
CGA:   5    -0.378169230349E+03   -0.32588E-03   -0.32489E-03 10080   0.473E-03-0.277E-04
CGA:   6    -0.378169324670E+03   -0.94321E-04   -0.94362E-04 10080   0.137E-03 0.240E-05
CGA:   7    -0.378169358520E+03   -0.33849E-04   -0.33821E-04 10080   0.507E-04 0.994E-06
CGA:   8    -0.378169370715E+03   -0.12195E-04   -0.12088E-04 10080   0.171E-04 0.623E-05
CGA:   9    -0.378169376258E+03   -0.55435E-05   -0.54171E-05 10080   0.706E-05 0.206E-05
  42 F= -.37816938E+03 E0= -.37816938E+03  d E =0.163809E-03  mag=    12.0000
       N       E                     dE             d eps       ncg     rms          ort
SDA:   1    -0.378161334327E+03    0.80364E-02    0.00000E+00 10080   0.192E-01 0.000E+00
CGA:   2    -0.378166823654E+03   -0.54893E-02   -0.55014E-02 10080   0.714E-02-0.220E-03
CGA:   3    -0.378168329140E+03   -0.15055E-02   -0.15015E-02 10080   0.219E-02-0.210E-03
CGA:   4    -0.378168698379E+03   -0.36924E-03   -0.35725E-03 10080   0.512E-03-0.191E-03
CGA:   5    -0.378168784177E+03   -0.85798E-04   -0.84724E-04 10080   0.144E-03-0.232E-04
CGA:   6    -0.378168805264E+03   -0.21087E-04   -0.22598E-04 10080   0.354E-04 0.248E-04
CGA:   7    -0.378168817940E+03   -0.12676E-04   -0.16637E-04 10080   0.513E-04-0.222E-04
CGA:   8    -0.378168829515E+03   -0.11575E-04   -0.11403E-04 10080   0.210E-04-0.191E-04
CGA:   9    -0.378168832334E+03   -0.28187E-05   -0.28437E-05 10080   0.577E-05 0.164E-05
  43 F= -.37816883E+03 E0= -.37816883E+03  d E =0.543924E-03  mag=    12.0000
       N       E                     dE             d eps       ncg     rms          ort
SDA:   1    -0.378073141936E+03    0.95688E-01    0.00000E+00 10080   0.240E+00 0.000E+00
CGA:   2    -0.378144212371E+03   -0.71070E-01   -0.70988E-01 10080   0.738E-01 0.101E-02
CGA:   3    -0.378161935115E+03   -0.17723E-01   -0.17728E-01 10080   0.158E-01-0.551E-03
CGA:   4    -0.378164552910E+03   -0.26178E-02   -0.25998E-02 10080   0.385E-02-0.285E-03
CGA:   5    -0.378165291837E+03   -0.73893E-03   -0.73733E-03 10080   0.986E-03-0.503E-04
CGA:   6    -0.378165496171E+03   -0.20433E-03   -0.20457E-03 10080   0.352E-03 0.149E-04
CGA:   7    -0.378165596611E+03   -0.10044E-03   -0.10168E-03 10080   0.184E-03-0.210E-04
CGA:   8    -0.378165650680E+03   -0.54069E-04   -0.54337E-04 10080   0.992E-04-0.310E-05
CGA:   9    -0.378165679780E+03   -0.29100E-04   -0.29048E-04 10080   0.385E-04 0.801E-06
CGA:  10    -0.378165693191E+03   -0.13411E-04   -0.16734E-04 10080   0.295E-04-0.170E-04
CGA:  11    -0.378165695253E+03   -0.20623E-05   -0.25475E-05 10080   0.144E-04 0.533E-05
  44 F= -.37816570E+03 E0= -.37816570E+03  d E =0.313708E-02  mag=    12.0000
       N       E                     dE             d eps       ncg     rms          ort
SDA:   1    -0.378036672975E+03    0.12902E+00    0.00000E+00 10080   0.336E+00 0.000E+00
CGA:   2    -0.378130907052E+03   -0.94234E-01   -0.94145E-01 10080   0.103E+00 0.168E-02
CGA:   3    -0.378155594783E+03   -0.24688E-01   -0.24688E-01 10080   0.253E-01-0.146E-03
CGA:   4    -0.378159615710E+03   -0.40209E-02   -0.40065E-02 10080   0.577E-02-0.193E-03
CGA:   5    -0.378160734546E+03   -0.11188E-02   -0.11156E-02 10080   0.153E-02-0.854E-04
CGA:   6    -0.378161044095E+03   -0.30955E-03   -0.31027E-03 10080   0.524E-03 0.271E-04
CGA:   7    -0.378161173785E+03   -0.12969E-03   -0.12898E-03 10080   0.213E-03 0.597E-04
CGA:   8    -0.378161241209E+03   -0.67424E-04   -0.65424E-04 10080   0.108E-03 0.444E-04
CGA:   9    -0.378161281405E+03   -0.40196E-04   -0.38822E-04 10080   0.508E-04 0.214E-04
CGA:  10    -0.378161299886E+03   -0.18481E-04   -0.18040E-04 10080   0.198E-04 0.731E-05
CGA:  11    -0.378161306313E+03   -0.64271E-05   -0.62795E-05 10080   0.677E-05 0.388E-05
  45 F= -.37816131E+03 E0= -.37816131E+03  d E =0.438894E-02  mag=    12.0000
       N       E                     dE             d eps       ncg     rms          ort
SDA:   1    -0.378133840770E+03    0.27459E-01    0.00000E+00 10080   0.699E-01 0.000E+00
CGA:   2    -0.378152070429E+03   -0.18230E-01   -0.18226E-01 10080   0.236E-01 0.104E-03
CGA:   3    -0.378157349219E+03   -0.52788E-02   -0.52788E-02 10080   0.729E-02-0.694E-05
CGA:   4    -0.378158548969E+03   -0.11998E-02   -0.11875E-02 10080   0.149E-02-0.158E-03
CGA:   5    -0.378158833674E+03   -0.28470E-03   -0.28306E-03 10080   0.424E-03-0.379E-04
CGA:   6    -0.378158909224E+03   -0.75549E-04   -0.77487E-04 10080   0.122E-03 0.404E-04
CGA:   7    -0.378158942664E+03   -0.33440E-04   -0.33207E-04 10080   0.556E-04 0.158E-04
CGA:   8    -0.378158962415E+03   -0.19751E-04   -0.19618E-04 10080   0.350E-04 0.166E-05
CGA:   9    -0.378158967984E+03   -0.55697E-05   -0.64707E-05 10080   0.145E-04 0.154E-04
  46 F= -.37815897E+03 E0= -.37815897E+03  d E =0.233833E-02  mag=    12.0000
       N       E                     dE             d eps       ncg     rms          ort
SDA:   1    -0.378117954905E+03    0.41008E-01    0.00000E+00 10080   0.106E+00 0.000E+00
CGA:   2    -0.378145992656E+03   -0.28038E-01   -0.27994E-01 10080   0.330E-01 0.117E-02
CGA:   3    -0.378153904815E+03   -0.79122E-02   -0.79117E-02 10080   0.920E-02 0.816E-04
CGA:   4    -0.378155377494E+03   -0.14727E-02   -0.14720E-02 10080   0.192E-02-0.131E-04
CGA:   5    -0.378155765917E+03   -0.38842E-03   -0.38726E-03 10080   0.574E-03-0.433E-04
CGA:   6    -0.378155880250E+03   -0.11433E-03   -0.11470E-03 10080   0.200E-03 0.156E-04
CGA:   7    -0.378155920229E+03   -0.39979E-04   -0.41384E-04 10080   0.755E-04 0.562E-04
CGA:   8    -0.378155938313E+03   -0.18084E-04   -0.19154E-04 10080   0.391E-04 0.393E-04
CGA:   9    -0.378155952944E+03   -0.14630E-04   -0.15001E-04 10080   0.406E-04-0.232E-05
CGA:  10    -0.378155960599E+03   -0.76558E-05   -0.80297E-05 10080   0.158E-04 0.174E-04
  47 F= -.37815596E+03 E0= -.37815596E+03  d E =0.300739E-02  mag=    12.0000
       N       E                     dE             d eps       ncg     rms          ort
SDA:   1    -0.377720190526E+03    0.43576E+00    0.00000E+00 10080   0.116E+01 0.000E+00
CGA:   2    -0.378038600780E+03   -0.31841E+00   -0.31811E+00 10080   0.345E+00 0.504E-02
CGA:   3    -0.378125427423E+03   -0.86827E-01   -0.86820E-01 10080   0.748E-01 0.246E-03
CGA:   4    -0.378137877811E+03   -0.12450E-01   -0.12413E-01 10080   0.187E-01-0.609E-03
CGA:   5    -0.378141433503E+03   -0.35557E-02   -0.35489E-02 10080   0.494E-02-0.193E-03
CGA:   6    -0.378142473939E+03   -0.10404E-02   -0.10422E-02 10080   0.181E-02 0.153E-03
CGA:   7    -0.378142965882E+03   -0.49194E-03   -0.48712E-03 10080   0.839E-03 0.131E-03
CGA:   8    -0.378143252763E+03   -0.28688E-03   -0.28033E-03 10080   0.463E-03 0.764E-04
CGA:   9    -0.378143405999E+03   -0.15324E-03   -0.15020E-03 10080   0.187E-03 0.454E-04
CGA:  10    -0.378143474088E+03   -0.68089E-04   -0.70091E-04 10080   0.830E-04-0.185E-04
CGA:  11    -0.378143494426E+03   -0.20338E-04   -0.20140E-04 10080   0.255E-04 0.648E-05
CGA:  12    -0.378143501349E+03   -0.69231E-05   -0.68666E-05 10080   0.918E-05 0.613E-05
  48 F= -.37814350E+03 E0= -.37814350E+03  d E =0.124593E-01  mag=    12.0000
       N       E                     dE             d eps       ncg     rms          ort
SDA:   1    -0.369208812815E+03    0.89347E+01    0.00000E+00 10080   0.246E+02 0.000E+00
CGA:   2    -0.375845686601E+03   -0.66369E+01   -0.66330E+01 10080   0.727E+01 0.994E-01
CGA:   3    -0.377671847681E+03   -0.18262E+01   -0.18262E+01 10080   0.163E+01 0.494E-02
CGA:   4    -0.377948862825E+03   -0.27702E+00   -0.27598E+00 10080   0.382E+00-0.110E-01
CGA:   5    -0.378023028870E+03   -0.74166E-01   -0.74136E-01 10080   0.105E+00-0.676E-03
CGA:   6    -0.378045180574E+03   -0.22152E-01   -0.22214E-01 10080   0.390E-01 0.196E-02
CGA:   7    -0.378056620050E+03   -0.11439E-01   -0.11497E-01 10080   0.202E-01-0.121E-02
CGA:   8    -0.378062906154E+03   -0.62861E-02   -0.63030E-02 10080   0.109E-01-0.220E-03
CGA:   9    -0.378066009825E+03   -0.31037E-02   -0.30939E-02 10080   0.407E-02 0.252E-03
CGA:  10    -0.378067408408E+03   -0.13986E-02   -0.14817E-02 10080   0.193E-02-0.786E-03
CGA:  11    -0.378067762094E+03   -0.35369E-03   -0.36016E-03 10080   0.622E-03 0.276E-03
CGA:  12    -0.378067948136E+03   -0.18604E-03   -0.18547E-03 10080   0.271E-03 0.819E-04
CGA:  13    -0.378068050441E+03   -0.10231E-03   -0.17253E-03 10080   0.424E-03-0.229E-03
CGA:  14    -0.378068073493E+03   -0.23052E-04   -0.52225E-04 10080   0.109E-03 0.199E-03
CGA:  15    -0.378068082149E+03   -0.86561E-05   -0.18678E-04 10080   0.338E-04 0.687E-04
  49 F= -.37806808E+03 E0= -.37806808E+03  d E =0.754192E-01  mag=    12.0000
       N       E                     dE             d eps       ncg     rms          ort
SDA:   1    -0.377576524672E+03    0.49155E+00    0.00000E+00 10080   0.123E+01 0.000E+00
CGA:   2    -0.377916226133E+03   -0.33970E+00   -0.33972E+00 10080   0.539E+00-0.120E-02
CGA:   3    -0.378018153135E+03   -0.10193E+00   -0.10184E+00 10080   0.149E+00-0.127E-02
CGA:   4    -0.378044559223E+03   -0.26406E-01   -0.26374E-01 10080   0.353E-01-0.466E-03
CGA:   5    -0.378050939240E+03   -0.63800E-02   -0.63909E-02 10080   0.904E-02 0.150E-03
CGA:   6    -0.378052850249E+03   -0.19110E-02   -0.19141E-02 10080   0.283E-02 0.874E-04
CGA:   7    -0.378053634507E+03   -0.78426E-03   -0.79107E-03 10080   0.130E-02-0.205E-03
CGA:   8    -0.378053981767E+03   -0.34726E-03   -0.35566E-03 10080   0.618E-03-0.175E-03
CGA:   9    -0.378054136915E+03   -0.15515E-03   -0.15780E-03 10080   0.228E-03-0.572E-04
CGA:  10    -0.378054201400E+03   -0.64485E-04   -0.66513E-04 10080   0.883E-04-0.287E-04
CGA:  11    -0.378054223156E+03   -0.21756E-04   -0.21651E-04 10080   0.284E-04 0.396E-05
CGA:  12    -0.378054234410E+03   -0.11254E-04   -0.15025E-04 10080   0.300E-04-0.150E-04
CGA:  13    -0.378054240203E+03   -0.57936E-05   -0.60816E-05 10080   0.423E-05 0.441E-05
  50 F= -.37805424E+03 E0= -.37805424E+03  d E =0.138419E-01  mag=    12.0000
       N       E                     dE             d eps       ncg     rms          ort
SDA:   1    -0.375143402470E+03    0.29108E+01    0.00000E+00 10080   0.836E+01 0.000E+00
CGA:   2    -0.377335922352E+03   -0.21925E+01   -0.21925E+01 10080   0.258E+01 0.154E-01
CGA:   3    -0.377953370376E+03   -0.61745E+00   -0.61746E+00 10080   0.708E+00-0.916E-04
CGA:   4    -0.378066443465E+03   -0.11307E+00   -0.11302E+00 10080   0.152E+00-0.455E-03
CGA:   5    -0.378096217581E+03   -0.29774E-01   -0.29765E-01 10080   0.414E-01-0.177E-03
CGA:   6    -0.378105048025E+03   -0.88304E-02   -0.88276E-02 10080   0.152E-01-0.941E-04
CGA:   7    -0.378109349634E+03   -0.43016E-02   -0.43209E-02 10080   0.778E-02-0.557E-03
CGA:   8    -0.378111742617E+03   -0.23930E-02   -0.24254E-02 10080   0.445E-02-0.450E-03
CGA:   9    -0.378113011945E+03   -0.12693E-02   -0.12771E-02 10080   0.180E-02-0.158E-03
CGA:  10    -0.378113555258E+03   -0.54331E-03   -0.55439E-03 10080   0.672E-03-0.178E-03
CGA:  11    -0.378113734772E+03   -0.17951E-03   -0.17908E-03 10080   0.220E-03 0.123E-04
CGA:  12    -0.378113805357E+03   -0.70585E-04   -0.69528E-04 10080   0.835E-04 0.222E-04
CGA:  13    -0.378113831003E+03   -0.25646E-04   -0.25382E-04 10080   0.293E-04 0.231E-04
CGA:  14    -0.378113835740E+03   -0.47370E-05   -0.65177E-05 10080   0.122E-04 0.196E-04
  51 F= -.37811384E+03 E0= -.37811384E+03  d E =-.595955E-01  mag=    12.0000
       N       E                     dE             d eps       ncg     rms          ort
SDA:   1    -0.377875473015E+03    0.23836E+00    0.00000E+00 10080   0.631E+00 0.000E+00
CGA:   2    -0.378042258336E+03   -0.16679E+00   -0.16675E+00 10080   0.191E+00 0.357E-02
CGA:   3    -0.378089547953E+03   -0.47290E-01   -0.47291E-01 10080   0.491E-01 0.594E-04
CGA:   4    -0.378097451525E+03   -0.79036E-02   -0.78538E-02 10080   0.113E-01-0.532E-03
CGA:   5    -0.378099639399E+03   -0.21879E-02   -0.21767E-02 10080   0.308E-02-0.199E-03
CGA:   6    -0.378100258725E+03   -0.61933E-03   -0.62297E-03 10080   0.105E-02 0.834E-04
CGA:   7    -0.378100539080E+03   -0.28035E-03   -0.27942E-03 10080   0.472E-03 0.808E-04
CGA:   8    -0.378100699669E+03   -0.16059E-03   -0.15869E-03 10080   0.265E-03 0.290E-04
CGA:   9    -0.378100785368E+03   -0.85699E-04   -0.84740E-04 10080   0.112E-03 0.189E-04
CGA:  10    -0.378100825696E+03   -0.40328E-04   -0.41561E-04 10080   0.510E-04-0.133E-04
CGA:  11    -0.378100838993E+03   -0.13297E-04   -0.13329E-04 10080   0.170E-04-0.850E-06
CGA:  12    -0.378100843193E+03   -0.41996E-05   -0.42219E-05 10080   0.577E-05 0.345E-05
  52 F= -.37810084E+03 E0= -.37810084E+03  d E =0.129925E-01  mag=    12.0000
       N       E                     dE             d eps       ncg     rms          ort
SDA:   1    -0.377607785034E+03    0.49305E+00    0.00000E+00 10080   0.133E+01 0.000E+00
CGA:   2    -0.377959884656E+03   -0.35210E+00   -0.35213E+00 10080   0.392E+00 0.559E-02
CGA:   3    -0.378059354781E+03   -0.99470E-01   -0.99467E-01 10080   0.909E-01-0.261E-03
CGA:   4    -0.378074330429E+03   -0.14976E-01   -0.14886E-01 10080   0.220E-01-0.887E-03
CGA:   5    -0.378078593929E+03   -0.42635E-02   -0.42478E-02 10080   0.573E-02-0.234E-03
CGA:   6    -0.378079786434E+03   -0.11925E-02   -0.12001E-02 10080   0.214E-02 0.157E-03
CGA:   7    -0.378080393727E+03   -0.60729E-03   -0.60627E-03 10080   0.105E-02 0.535E-04
CGA:   8    -0.378080759246E+03   -0.36552E-03   -0.36677E-03 10080   0.637E-03-0.153E-04
CGA:   9    -0.378080943336E+03   -0.18409E-03   -0.18356E-03 10080   0.245E-03 0.174E-04
CGA:  10    -0.378081027097E+03   -0.83761E-04   -0.86979E-04 10080   0.106E-03-0.396E-04
CGA:  11    -0.378081050856E+03   -0.23759E-04   -0.23757E-04 10080   0.326E-04 0.517E-05
CGA:  12    -0.378081060958E+03   -0.10102E-04   -0.10044E-04 10080   0.129E-04 0.218E-05
CGA:  13    -0.378081066364E+03   -0.54060E-05   -0.66588E-05 10080   0.108E-04-0.580E-05
  53 F= -.37808107E+03 E0= -.37808107E+03  d E =0.197768E-01  mag=    12.0000
       N       E                     dE             d eps       ncg     rms          ort
SDA:   1    -0.375618336188E+03    0.24627E+01    0.00000E+00 10080   0.675E+01 0.000E+00
CGA:   2    -0.377358386627E+03   -0.17401E+01   -0.17404E+01 10080   0.229E+01 0.177E-01
CGA:   3    -0.377871191783E+03   -0.51281E+00   -0.51264E+00 10080   0.709E+00-0.372E-02
CGA:   4    -0.377984357227E+03   -0.11317E+00   -0.11293E+00 10080   0.145E+00-0.262E-02
CGA:   5    -0.378011507927E+03   -0.27151E-01   -0.27094E-01 10080   0.406E-01-0.780E-03
CGA:   6    -0.378019915207E+03   -0.84073E-02   -0.84092E-02 10080   0.129E-01 0.264E-04
CGA:   7    -0.378023321171E+03   -0.34060E-02   -0.34057E-02 10080   0.603E-02 0.421E-04
CGA:   8    -0.378025140442E+03   -0.18193E-02   -0.18250E-02 10080   0.314E-02-0.131E-03
CGA:   9    -0.378026131138E+03   -0.99070E-03   -0.10021E-02 10080   0.149E-02-0.171E-03
CGA:  10    -0.378026570862E+03   -0.43972E-03   -0.44407E-03 10080   0.550E-03-0.853E-04
CGA:  11    -0.378026732311E+03   -0.16145E-03   -0.16169E-03 10080   0.193E-03-0.535E-05
CGA:  12    -0.378026793625E+03   -0.61313E-04   -0.60708E-04 10080   0.731E-04 0.122E-04
CGA:  13    -0.378026817586E+03   -0.23961E-04   -0.23499E-04 10080   0.257E-04 0.144E-04
CGA:  14    -0.378026825149E+03   -0.75632E-05   -0.77654E-05 10080   0.884E-05 0.102E-04
  54 F= -.37802683E+03 E0= -.37802683E+03  d E =0.542412E-01  mag=    12.0000
       N       E                     dE             d eps       ncg     rms          ort
SDA:   1    -0.377448804360E+03    0.57801E+00    0.00000E+00 10080   0.168E+01 0.000E+00
CGA:   2    -0.377898444053E+03   -0.44964E+00   -0.44964E+00 10080   0.549E+00-0.154E-02
CGA:   3    -0.378025000379E+03   -0.12656E+00   -0.12658E+00 10080   0.156E+00 0.575E-03
CGA:   4    -0.378049806078E+03   -0.24806E-01   -0.24873E-01 10080   0.332E-01 0.523E-03
CGA:   5    -0.378056186188E+03   -0.63801E-02   -0.63923E-02 10080   0.925E-02 0.171E-03
CGA:   6    -0.378058147705E+03   -0.19615E-02   -0.19591E-02 10080   0.324E-02-0.560E-04
CGA:   7    -0.378059065802E+03   -0.91810E-03   -0.92281E-03 10080   0.166E-02-0.148E-03
CGA:   8    -0.378059529724E+03   -0.46392E-03   -0.46560E-03 10080   0.818E-03-0.438E-04
CGA:   9    -0.378059770263E+03   -0.24054E-03   -0.24127E-03 10080   0.338E-03-0.163E-04
CGA:  10    -0.378059877323E+03   -0.10706E-03   -0.11009E-03 10080   0.141E-03-0.419E-04
CGA:  11    -0.378059916417E+03   -0.39094E-04   -0.39493E-04 10080   0.527E-04-0.716E-05
CGA:  12    -0.378059935946E+03   -0.19529E-04   -0.24695E-04 10080   0.451E-04-0.228E-04
CGA:  13    -0.378059940349E+03   -0.44028E-05   -0.49867E-05 10080   0.219E-04 0.700E-05
  55 F= -.37805994E+03 E0= -.37805994E+03  d E =-.331152E-01  mag=    12.0000
       N       E                     dE             d eps       ncg     rms          ort
SDA:   1    -0.378001533201E+03    0.58403E-01    0.00000E+00 10080   0.173E+00 0.000E+00
CGA:   2    -0.378040787400E+03   -0.39254E-01   -0.39244E-01 10080   0.781E-01-0.322E-03
CGA:   3    -0.378056856033E+03   -0.16069E-01   -0.16072E-01 10080   0.256E-01 0.895E-05
CGA:   4    -0.378061184399E+03   -0.43284E-02   -0.43357E-02 10080   0.598E-02 0.761E-04
CGA:   5    -0.378062268707E+03   -0.10843E-02   -0.10880E-02 10080   0.149E-02 0.473E-04
CGA:   6    -0.378062577165E+03   -0.30846E-03   -0.30792E-03 10080   0.414E-03-0.116E-04
CGA:   7    -0.378062681806E+03   -0.10464E-03   -0.10475E-03 10080   0.169E-03-0.343E-04
CGA:   8    -0.378062724201E+03   -0.42395E-04   -0.43116E-04 10080   0.695E-04-0.275E-04
CGA:   9    -0.378062741575E+03   -0.17374E-04   -0.18387E-04 10080   0.315E-04-0.162E-04
CGA:  10    -0.378062748694E+03   -0.71189E-05   -0.73581E-05 10080   0.118E-04-0.495E-05
  56 F= -.37806275E+03 E0= -.37806275E+03  d E =-.280834E-02  mag=    12.0000
       N       E                     dE             d eps       ncg     rms          ort
SDA:   1    -0.378016057417E+03    0.46684E-01    0.00000E+00 10080   0.115E+00 0.000E+00
CGA:   2    -0.378045988367E+03   -0.29931E-01   -0.29962E-01 10080   0.367E-01 0.139E-02
CGA:   3    -0.378054678077E+03   -0.86897E-02   -0.86803E-02 10080   0.112E-01-0.213E-03
CGA:   4    -0.378056433167E+03   -0.17551E-02   -0.17333E-02 10080   0.241E-02-0.184E-03
CGA:   5    -0.378056886530E+03   -0.45336E-03   -0.44820E-03 10080   0.710E-03-0.631E-04
CGA:   6    -0.378057024153E+03   -0.13762E-03   -0.13804E-03 10080   0.211E-03 0.594E-05
CGA:   7    -0.378057075341E+03   -0.51189E-04   -0.51756E-04 10080   0.835E-04 0.286E-04
CGA:   8    -0.378057101247E+03   -0.25906E-04   -0.25777E-04 10080   0.433E-04 0.140E-04
CGA:   9    -0.378057118352E+03   -0.17104E-04   -0.17023E-04 10080   0.245E-04 0.108E-05
CGA:  10    -0.378057126143E+03   -0.77911E-05   -0.77804E-05 10080   0.932E-05 0.240E-06
  57 F= -.37805713E+03 E0= -.37805713E+03  d E =0.562255E-02  mag=    12.0000
       N       E                     dE             d eps       ncg     rms          ort
SDA:   1    -0.378011089140E+03    0.46029E-01    0.00000E+00 10080   0.108E+00 0.000E+00
CGA:   2    -0.378042821270E+03   -0.31732E-01   -0.31710E-01 10080   0.454E-01 0.881E-03
CGA:   3    -0.378051626677E+03   -0.88054E-02   -0.87989E-02 10080   0.119E-01-0.991E-04
CGA:   4    -0.378053625135E+03   -0.19985E-02   -0.19855E-02 10080   0.253E-02-0.133E-03
CGA:   5    -0.378054096075E+03   -0.47094E-03   -0.46677E-03 10080   0.703E-03-0.562E-04
CGA:   6    -0.378054246095E+03   -0.15002E-03   -0.14884E-03 10080   0.218E-03-0.286E-04
CGA:   7    -0.378054296732E+03   -0.50637E-04   -0.50583E-04 10080   0.823E-04-0.391E-05
CGA:   8    -0.378054320990E+03   -0.24258E-04   -0.24722E-04 10080   0.421E-04-0.917E-05
CGA:   9    -0.378054301855E+03    0.19135E-04   -0.33556E-04 10080   0.274E-03-0.823E-04
CGA:  10    -0.378054341882E+03   -0.40027E-04   -0.42678E-04 10080   0.278E-04 0.197E-04
CGA:  11    -0.378054349384E+03   -0.75014E-05   -0.76090E-05 10080   0.680E-05 0.396E-05
  58 F= -.37805435E+03 E0= -.37805435E+03  d E =0.277676E-02  mag=    12.0000
       N       E                     dE             d eps       ncg     rms          ort
SDA:   1    -0.377649880520E+03    0.40446E+00    0.00000E+00 10080   0.979E+00 0.000E+00
CGA:   2    -0.377942137996E+03   -0.29226E+00   -0.29222E+00 10080   0.398E+00 0.196E-02
CGA:   3    -0.378019736754E+03   -0.77599E-01   -0.77540E-01 10080   0.101E+00-0.762E-03
CGA:   4    -0.378036386064E+03   -0.16649E-01   -0.16563E-01 10080   0.205E-01-0.788E-03
CGA:   5    -0.378040270138E+03   -0.38841E-02   -0.38655E-02 10080   0.591E-02-0.229E-03
CGA:   6    -0.378041463285E+03   -0.11931E-02   -0.11923E-02 10080   0.172E-02-0.148E-04
CGA:   7    -0.378041910540E+03   -0.44726E-03   -0.44688E-03 10080   0.750E-03-0.817E-04
CGA:   8    -0.378042138880E+03   -0.22834E-03   -0.23830E-03 10080   0.470E-03-0.146E-03
CGA:   9    -0.378042261177E+03   -0.12230E-03   -0.13074E-03 10080   0.251E-03-0.110E-03
CGA:  10    -0.378042321605E+03   -0.60428E-04   -0.63483E-04 10080   0.104E-03-0.526E-04
CGA:  11    -0.378042347287E+03   -0.25682E-04   -0.26012E-04 10080   0.391E-04-0.825E-05
CGA:  12    -0.378042357458E+03   -0.10171E-04   -0.10143E-04 10080   0.153E-04 0.611E-05
CGA:  13    -0.378042361604E+03   -0.41461E-05   -0.43415E-05 10080   0.628E-05 0.595E-05
  59 F= -.37804236E+03 E0= -.37804236E+03  d E =0.119878E-01  mag=    12.0000
       N       E                     dE             d eps       ncg     rms          ort
SDA:   1    -0.377162471840E+03    0.87989E+00    0.00000E+00 10080   0.225E+01 0.000E+00
CGA:   2    -0.377789991212E+03   -0.62752E+00   -0.62744E+00 10080   0.831E+00 0.750E-02
CGA:   3    -0.377965673579E+03   -0.17568E+00   -0.17557E+00 10080   0.232E+00-0.224E-02
CGA:   4    -0.378002796157E+03   -0.37123E-01   -0.36948E-01 10080   0.458E-01-0.170E-02
CGA:   5    -0.378011562684E+03   -0.87665E-02   -0.87365E-02 10080   0.132E-01-0.438E-03
CGA:   6    -0.378014211279E+03   -0.26486E-02   -0.26539E-02 10080   0.390E-02 0.902E-04
CGA:   7    -0.378015232590E+03   -0.10213E-02   -0.10211E-02 10080   0.169E-02 0.459E-04
CGA:   8    -0.378015753823E+03   -0.52123E-03   -0.52336E-03 10080   0.899E-03-0.426E-04
CGA:   9    -0.378016039255E+03   -0.28543E-03   -0.28923E-03 10080   0.439E-03-0.531E-04
CGA:  10    -0.378016179408E+03   -0.14015E-03   -0.14818E-03 10080   0.210E-03-0.834E-04
CGA:  11    -0.378016229300E+03   -0.49893E-04   -0.49986E-04 10080   0.695E-04-0.347E-05
CGA:  12    -0.378016249127E+03   -0.19826E-04   -0.19666E-04 10080   0.259E-04 0.824E-05
CGA:  13    -0.378016257768E+03   -0.86415E-05   -0.85091E-05 10080   0.104E-04 0.541E-05
  60 F= -.37801626E+03 E0= -.37801626E+03  d E =0.261038E-01  mag=    12.0000
       N       E                     dE             d eps       ncg     rms          ort
SDA:   1    -0.377480866643E+03    0.53538E+00    0.00000E+00 10080   0.136E+01 0.000E+00
CGA:   2    -0.377845057270E+03   -0.36419E+00   -0.36419E+00 10080   0.633E+00 0.304E-02
CGA:   3    -0.377966431643E+03   -0.12137E+00   -0.12139E+00 10080   0.170E+00-0.207E-03
CGA:   4    -0.377996008660E+03   -0.29577E-01   -0.29535E-01 10080   0.402E-01-0.513E-03
CGA:   5    -0.378003261361E+03   -0.72527E-02   -0.72392E-02 10080   0.103E-01-0.179E-03
CGA:   6    -0.378005361412E+03   -0.21001E-02   -0.21011E-02 10080   0.302E-02 0.174E-04
CGA:   7    -0.378006049679E+03   -0.68827E-03   -0.69276E-03 10080   0.102E-02 0.189E-03
CGA:   8    -0.378006302641E+03   -0.25296E-03   -0.25514E-03 10080   0.337E-03 0.139E-03
CGA:   9    -0.378006408943E+03   -0.10630E-03   -0.10529E-03 10080   0.129E-03 0.414E-04
CGA:  10    -0.378006446258E+03   -0.37315E-04   -0.37189E-04 10080   0.448E-04 0.303E-04
CGA:  11    -0.378006459089E+03   -0.12831E-04   -0.13082E-04 10080   0.158E-04 0.163E-04
CGA:  12    -0.378006464218E+03   -0.51289E-05   -0.51946E-05 10080   0.646E-05 0.696E-05
  61 F= -.37800646E+03 E0= -.37800646E+03  d E =0.979355E-02  mag=    12.0000
       N       E                     dE             d eps       ncg     rms          ort
SDA:   1    -0.377502911814E+03    0.50355E+00    0.00000E+00 10080   0.138E+01 0.000E+00
CGA:   2    -0.377910438150E+03   -0.40753E+00   -0.40771E+00 10080   0.437E+00-0.491E-02
CGA:   3    -0.378011275775E+03   -0.10084E+00   -0.10087E+00 10080   0.956E-01 0.181E-02
CGA:   4    -0.378027039321E+03   -0.15764E-01   -0.15792E-01 10080   0.228E-01 0.336E-03
CGA:   5    -0.378031453463E+03   -0.44141E-02   -0.44244E-02 10080   0.591E-02 0.204E-03
CGA:   6    -0.378032701012E+03   -0.12475E-02   -0.12471E-02 10080   0.213E-02-0.184E-04
CGA:   7    -0.378033339031E+03   -0.63802E-03   -0.66205E-03 10080   0.123E-02-0.328E-03
CGA:   8    -0.378033656884E+03   -0.31785E-03   -0.32685E-03 10080   0.654E-03-0.126E-03
CGA:   9    -0.378033818693E+03   -0.16181E-03   -0.16176E-03 10080   0.237E-03 0.169E-05
CGA:  10    -0.378033892667E+03   -0.73974E-04   -0.75732E-04 10080   0.954E-04-0.245E-04
CGA:  11    -0.378033913203E+03   -0.20536E-04   -0.20666E-04 10080   0.312E-04 0.139E-04
CGA:  12    -0.378033926318E+03   -0.13115E-04   -0.14574E-04 10080   0.251E-04-0.930E-05
CGA:  13    -0.378033931949E+03   -0.56310E-05   -0.80961E-05 10080   0.222E-04-0.123E-04
  62 F= -.37803393E+03 E0= -.37803393E+03  d E =-.274677E-01  mag=    12.0000
       N       E                     dE             d eps       ncg     rms          ort
SDA:   1    -0.378000814904E+03    0.33111E-01    0.00000E+00 10080   0.787E-01 0.000E+00
CGA:   2    -0.378021111544E+03   -0.20297E-01   -0.20297E-01 10080   0.303E-01 0.535E-03
CGA:   3    -0.378027471776E+03   -0.63602E-02   -0.63477E-02 10080   0.952E-02-0.259E-03
CGA:   4    -0.378029098577E+03   -0.16268E-02   -0.16015E-02 10080   0.208E-02-0.293E-03
CGA:   5    -0.378029478969E+03   -0.38039E-03   -0.37573E-03 10080   0.569E-03-0.715E-04
CGA:   6    -0.378029583373E+03   -0.10440E-03   -0.10601E-03 10080   0.152E-03 0.285E-04
CGA:   7    -0.378029623001E+03   -0.39628E-04   -0.39602E-04 10080   0.605E-04 0.116E-04
CGA:   8    -0.378029645077E+03   -0.22076E-04   -0.24115E-04 10080   0.495E-04-0.164E-04
CGA:   9    -0.378029653435E+03   -0.83577E-05   -0.83886E-05 10080   0.210E-04 0.158E-05
  63 F= -.37802965E+03 E0= -.37802965E+03  d E =0.427851E-02  mag=    12.0000
       N       E                     dE             d eps       ncg     rms          ort
SDA:   1    -0.378020527143E+03    0.91179E-02    0.00000E+00 10080   0.233E-01 0.000E+00
CGA:   2    -0.378027987504E+03   -0.74604E-02   -0.74506E-02 10080   0.877E-02 0.131E-03
CGA:   3    -0.378029647007E+03   -0.16595E-02   -0.16595E-02 10080   0.234E-02-0.255E-05
CGA:   4    -0.378030027550E+03   -0.38054E-03   -0.38465E-03 10080   0.503E-03 0.473E-04
CGA:   5    -0.378030121785E+03   -0.94235E-04   -0.94569E-04 10080   0.135E-03 0.535E-05
CGA:   6    -0.378030154788E+03   -0.33003E-04   -0.32993E-04 10080   0.511E-04-0.140E-04
CGA:   7    -0.378030162690E+03   -0.79021E-05   -0.84902E-05 10080   0.154E-04 0.103E-04
  64 F= -.37803016E+03 E0= -.37803016E+03  d E =-.509255E-03  mag=    12.0000
       N       E                     dE             d eps       ncg     rms          ort
SDA:   1    -0.378021943006E+03    0.82118E-02    0.00000E+00 10080   0.180E-01 0.000E+00
CGA:   2    -0.378027939392E+03   -0.59964E-02   -0.59778E-02 10080   0.600E-02 0.187E-03
CGA:   3    -0.378029133697E+03   -0.11943E-02   -0.11924E-02 10080   0.152E-02-0.465E-04
CGA:   4    -0.378029386026E+03   -0.25233E-03   -0.24981E-03 10080   0.361E-03-0.358E-04
CGA:   5    -0.378029454428E+03   -0.68401E-04   -0.67783E-04 10080   0.106E-03-0.151E-04
CGA:   6    -0.378029474064E+03   -0.19636E-04   -0.19707E-04 10080   0.297E-04 0.191E-05
CGA:   7    -0.378029480374E+03   -0.63104E-05   -0.64121E-05 10080   0.101E-04 0.585E-05
  65 F= -.37802948E+03 E0= -.37802948E+03  d E =0.682316E-03  mag=    12.0000
