       N       E                     dE             d eps       ncg     rms          ort
DAV:   1     0.265814579399E+04    0.26581E+04   -0.13939E+05  6048   0.160E+03
DAV:   2     0.462463003346E+02   -0.26119E+04   -0.24063E+04  6048   0.412E+02
DAV:   3    -0.257532648322E+03   -0.30378E+03   -0.29925E+03  6048   0.160E+02
DAV:   4    -0.268194519487E+03   -0.10662E+02   -0.10422E+02  6048   0.299E+01
DAV:   5    -0.268642332115E+03   -0.44781E+00   -0.44343E+00  6048   0.478E+00
SDA:   6    -0.128776963556E+03    0.13987E+03   -0.44343E+00  6048   0.719E+03 0.000E+00
CGA:   7    -0.180835868323E+03   -0.52059E+02   -0.80433E+02  6048   0.391E+03 0.258E+02
CGA:   8    -0.200064166541E+03   -0.19228E+02   -0.10082E+02  6048   0.697E+03-0.267E+03
CGA:   9    -0.206767871181E+03   -0.67037E+01   -0.49380E+02  6048   0.701E+03-0.365E+03
CGA:  10    -0.198684010520E+03    0.80839E+01   -0.44979E+02  6048   0.469E+03-0.603E+02
CGA:  11    -0.207376943327E+03   -0.86929E+01   -0.10134E+02  6048   0.749E+03-0.194E+03
CGA:  12    -0.209263318303E+03   -0.18864E+01   -0.20138E+02  6048   0.248E+03-0.736E+02
CGA:  13    -0.222886394425E+03   -0.13623E+02   -0.12681E+02  6048   0.322E+02 0.177E+02
CGA:  14    -0.221809449017E+03    0.10769E+01   -0.20186E+01  6048   0.204E+03-0.510E+02
CGA:  15    -0.217852366827E+03    0.39571E+01   -0.13352E+02  6048   0.961E+02-0.391E+02
CGA:  16    -0.224368257375E+03   -0.65159E+01   -0.30347E+01  6048   0.662E+02 0.479E+02
CGA:  17    -0.211807198181E+03    0.12561E+02   -0.36155E+01  6048   0.447E+03-0.190E+03
CGA:  18    -0.220033476807E+03   -0.82263E+01   -0.23016E+02  6048   0.439E+02-0.463E+02
CGA:  19    -0.221570819904E+03   -0.15373E+01   -0.86132E+00  6048   0.294E+02 0.316E+02
CGA:  20    -0.222568354213E+03   -0.99753E+00   -0.44405E+00  6048   0.388E+02 0.436E+02
CGA:  21    -0.225377659887E+03   -0.28093E+01   -0.65643E+00  6048   0.623E+02 0.112E+03
CGA:  22    -0.226078166166E+03   -0.70051E+00   -0.14229E+01  6048   0.576E+02-0.712E+02
CGA:  23    -0.224243008425E+03    0.18352E+01   -0.22996E+01  6048   0.115E+03-0.512E+02
CGA:  24    -0.223819855493E+03    0.42315E+00   -0.32290E+01  6048   0.189E+03-0.165E+03
CGA:  25    -0.221981554524E+03    0.18383E+01   -0.84343E+01  6048   0.650E+02-0.388E+02
CGA:  26    -0.224507050296E+03   -0.25255E+01   -0.90540E+00  6048   0.985E+02 0.117E+03
CGA:  27    -0.225886563669E+03   -0.13795E+01   -0.21654E+01  6048   0.963E+02-0.139E+03
CGA:  28    -0.223839676380E+03    0.20469E+01   -0.33910E+01  6048   0.115E+03-0.663E+02
CGA:  29    -0.225802406199E+03   -0.19627E+01   -0.25134E+01  6048   0.106E+03-0.161E+03
CGA:  30    -0.224050466808E+03    0.17519E+01   -0.35243E+01  6048   0.110E+03-0.709E+02
CGA:  31    -0.226626157634E+03   -0.25757E+01   -0.21512E+01  6048   0.591E+02-0.127E+03
CGA:  32    -0.226003373698E+03    0.62278E+00   -0.15905E+01  6048   0.936E+02-0.653E+02
CGA:  33    -0.226899449790E+03   -0.89608E+00   -0.16549E+01  6048   0.462E+02-0.750E+02
CGA:  34    -0.226666006694E+03    0.23344E+00   -0.11041E+01  6048   0.612E+02-0.477E+02
CGA:  35    -0.227297392226E+03   -0.63139E+00   -0.94100E+00  6048   0.150E+02-0.319E+02
CGA:  36    -0.227416963979E+03   -0.11957E+00   -0.24056E+00  6048   0.541E+01-0.745E+01
CGA:  37    -0.227526820931E+03   -0.10986E+00   -0.10792E+00  6048   0.172E+01 0.299E-02
CGA:  38    -0.227575276519E+03   -0.48456E-01   -0.51164E-01  6048   0.200E+01-0.596E-01
CGA:  39    -0.227839708413E+03   -0.26443E+00   -0.24873E+00  6048   0.570E+01 0.241E+00
CGA:  40    -0.227990906396E+03   -0.15120E+00   -0.20563E+00  6048   0.273E+01-0.101E+01
CGA:  41    -0.228045984779E+03   -0.55078E-01   -0.58767E-01  6048   0.199E+00-0.972E-01
CGA:  42    -0.228052463440E+03   -0.64787E-02   -0.67251E-02  6048   0.170E+00-0.266E-02
CGA:  43    -0.228066647331E+03   -0.14184E-01   -0.14212E-01  6048   0.302E+00-0.925E-03
CGA:  44    -0.228084685032E+03   -0.18038E-01   -0.18147E-01  6048   0.180E+00 0.194E-01
CGA:  45    -0.228090809422E+03   -0.61244E-02   -0.59379E-02  6048   0.712E-01 0.333E-02
CGA:  46    -0.228096884444E+03   -0.60750E-02   -0.59181E-02  6048   0.996E-01 0.573E-02
CGA:  47    -0.228104396666E+03   -0.75122E-02   -0.77505E-02  6048   0.208E+00-0.158E-01
CGA:  48    -0.228110985144E+03   -0.65885E-02   -0.63589E-02  6048   0.178E+00 0.634E-02
CGA:  49    -0.228115635271E+03   -0.46501E-02   -0.64646E-02  6048   0.654E-01-0.997E-02
CGA:  50    -0.228120593349E+03   -0.49581E-02   -0.62328E-02  6048   0.113E+00-0.306E-01
CGA:  51    -0.228122685273E+03   -0.20919E-02   -0.19385E-02  6048   0.126E+00 0.377E-02
CGA:  52    -0.228126948366E+03   -0.42631E-02   -0.45751E-02  6048   0.243E-01 0.324E-03
CGA:  53    -0.228128212289E+03   -0.12639E-02   -0.12773E-02  6048   0.310E-01 0.646E-03
CGA:  54    -0.228130502439E+03   -0.22901E-02   -0.72587E-02  6048   0.142E+00-0.437E-01
CGA:  55    -0.228134544933E+03   -0.40425E-02   -0.41552E-02  6048   0.173E-01-0.229E-02
CGA:  56    -0.228136592903E+03   -0.20480E-02   -0.20691E-02  6048   0.364E-01-0.373E-03
CGA:  57    -0.228141001677E+03   -0.44088E-02   -0.43488E-02  6048   0.973E-02 0.105E-02
CGA:  58    -0.228143060214E+03   -0.20585E-02   -0.21976E-02  6048   0.475E-01-0.118E-02
CGA:  59    -0.228145414714E+03   -0.23545E-02   -0.24046E-02  6048   0.159E-01 0.454E-03
CGA:  60    -0.228146014166E+03   -0.59945E-03   -0.62173E-03  6048   0.768E-02-0.276E-03
CGA:  61    -0.228146432279E+03   -0.41811E-03   -0.41435E-03  6048   0.625E-02-0.331E-04
CGA:  62    -0.228147060483E+03   -0.62820E-03   -0.63164E-03  6048   0.574E-02-0.112E-03
CGA:  63    -0.228147231709E+03   -0.17123E-03   -0.16935E-03  6048   0.159E-02 0.178E-04
CGA:  64    -0.228147464529E+03   -0.23282E-03   -0.24784E-03  6048   0.807E-02-0.195E-03
CGA:  65    -0.228147791113E+03   -0.32658E-03   -0.29974E-03  6048   0.691E-02 0.255E-03
CGA:  66    -0.228147946630E+03   -0.15552E-03   -0.15787E-03  6048   0.194E-02-0.101E-03
CGA:  67    -0.228148007601E+03   -0.60971E-04   -0.61754E-04  6048   0.196E-02-0.162E-04
CGA:  68    -0.228148124573E+03   -0.11697E-03   -0.11673E-03  6048   0.305E-02-0.350E-05
CGA:  69    -0.228148233047E+03   -0.10847E-03   -0.10151E-03  6048   0.288E-02 0.130E-03
CGA:  70    -0.228148337497E+03   -0.10445E-03   -0.99251E-04  6048   0.200E-02 0.104E-03
CGA:  71    -0.228148375783E+03   -0.38286E-04   -0.37317E-04  6048   0.554E-03 0.559E-04
CGA:  72    -0.228148392415E+03   -0.16632E-04   -0.16553E-04  6048   0.841E-03 0.488E-05
CGA:  73    -0.228148455731E+03   -0.63316E-04   -0.63333E-04  6048   0.317E-02 0.202E-05
CGA:  74    -0.228148525094E+03   -0.69364E-04   -0.61153E-04  6048   0.120E-02 0.401E-03
CGA:  75    -0.228148542911E+03   -0.17817E-04   -0.17180E-04  6048   0.298E-03 0.567E-04
CGA:  76    -0.228148552355E+03   -0.94435E-05   -0.94120E-05  6048   0.586E-03 0.175E-05
CGA:  77    -0.228148585808E+03   -0.33453E-04   -0.33441E-04  6048   0.192E-02-0.871E-05
CGA:  78    -0.228148620479E+03   -0.34671E-04   -0.29595E-04  6048   0.118E-02 0.288E-03
CGA:  79    -0.228148637417E+03   -0.16938E-04   -0.16088E-04  6048   0.412E-03 0.659E-04
CGA:  80    -0.228148644324E+03   -0.69074E-05   -0.68072E-05  6048   0.314E-03 0.333E-05
   1 F= -.22814864E+03 E0= -.22814281E+03  d E =-.228149E+03  mag=    18.0000
