       N       E                     dE             d eps       ncg     rms          ort
DAV:   1     0.312989348600E+04    0.31299E+04   -0.14147E+05 10962   0.177E+03
DAV:   2     0.196560717816E+02   -0.31102E+04   -0.28374E+04 10962   0.462E+02
DAV:   3    -0.435382363945E+03   -0.45504E+03   -0.44353E+03 10962   0.198E+02
DAV:   4    -0.458288448101E+03   -0.22906E+02   -0.22093E+02 10962   0.428E+01
DAV:   5    -0.459755562185E+03   -0.14671E+01   -0.14321E+01 10962   0.765E+00
SDA:   6    -0.195376667398E+03    0.26438E+03   -0.14321E+01 10962   0.200E+04 0.000E+00
CGA:   7    -0.324968574379E+03   -0.12959E+03   -0.20995E+03 10962   0.516E+03-0.209E+03
CGA:   8    -0.286470916507E+03    0.38498E+02   -0.35739E+02 10962   0.472E+03-0.120E+00
CGA:   9    -0.299945766364E+03   -0.13475E+02   -0.18671E+02 10962   0.110E+04-0.282E+03
CGA:  10    -0.286856222307E+03    0.13090E+02   -0.62281E+02 10962   0.108E+04-0.122E+04
CGA:  11    -0.294494397228E+03   -0.76382E+01   -0.58430E+02 10962   0.325E+03-0.202E+02
CGA:  12    -0.298772010185E+03   -0.42776E+01   -0.92458E+01 10962   0.410E+03-0.232E+03
CGA:  13    -0.310492818158E+03   -0.11721E+02   -0.12485E+02 10962   0.170E+04-0.540E+03
CGA:  14    -0.292257244509E+03    0.18236E+02   -0.99422E+02 10962   0.642E+04-0.508E+04
CGA:  15    -0.280406771141E+03    0.11850E+02   -0.43419E+03 10962   0.327E+04-0.231E+04
CGA:  16    -0.298379006844E+03   -0.17972E+02   -0.12362E+03 10962   0.269E+03-0.148E+03
CGA:  17    -0.315142360602E+03   -0.16763E+02   -0.47214E+01 10962   0.160E+04 0.271E+03
CGA:  18    -0.256816096675E+03    0.58326E+02   -0.73135E+02 10962   0.983E+04-0.477E+04
CGA:  19    -0.287870155259E+03   -0.31054E+02   -0.58221E+03 10962   0.442E+03-0.539E+03
CGA:  20    -0.305280273915E+03   -0.17410E+02   -0.10179E+02 10962   0.106E+04 0.132E+04
CGA:  21    -0.298639985173E+03    0.66403E+01   -0.37351E+02 10962   0.335E+03-0.105E+03
CGA:  22    -0.322379367479E+03   -0.23739E+02   -0.53151E+01 10962   0.347E+04-0.223E+04
CGA:  23    -0.303113108214E+03    0.19266E+02   -0.16100E+03 10962   0.237E+03-0.173E+03
CGA:  24    -0.320955128795E+03   -0.17842E+02   -0.26977E+01 10962   0.203E+03-0.123E+03
CGA:  25    -0.324490924064E+03   -0.35358E+01   -0.20467E+01 10962   0.180E+03 0.164E+03
CGA:  26    -0.332349326954E+03   -0.78584E+01   -0.14904E+01 10962   0.166E+04 0.199E+04
CGA:  27    -0.307393463168E+03    0.24956E+02   -0.50632E+02 10962   0.762E+03-0.336E+02
CGA:  28    -0.343262451647E+03   -0.35869E+02   -0.17293E+02 10962   0.330E+03-0.558E+03
CGA:  29    -0.335629657067E+03    0.76328E+01   -0.73182E+01 10962   0.670E+03-0.727E+03
CGA:  30    -0.310312712220E+03    0.25317E+02   -0.21179E+02 10962   0.294E+03-0.168E+03
CGA:  31    -0.331359472860E+03   -0.21047E+02   -0.17304E+01 10962   0.217E+04 0.309E+04
CGA:  32    -0.332225875402E+03   -0.86640E+00   -0.57465E+02 10962   0.868E+03-0.522E+03
CGA:  33    -0.327367691614E+03    0.48582E+01   -0.19776E+02 10962   0.110E+04-0.933E+03
CGA:  34    -0.326155167245E+03    0.12125E+01   -0.20270E+02 10962   0.132E+04-0.134E+04
CGA:  35    -0.310075477134E+03    0.16080E+02   -0.40584E+02 10962   0.537E+03-0.301E+03
CGA:  36    -0.333870697884E+03   -0.23795E+02   -0.44413E+01 10962   0.152E+04 0.154E+04
CGA:  37    -0.312222629433E+03    0.21648E+02   -0.41476E+02 10962   0.764E+03 0.623E+02
CGA:  38    -0.323740551348E+03   -0.11518E+02   -0.23389E+02 10962   0.683E+03-0.393E+03
CGA:  39    -0.333525531629E+03   -0.97850E+01   -0.12331E+02 10962   0.151E+04-0.761E+03
CGA:  40    -0.328851159914E+03    0.46744E+01   -0.38908E+02 10962   0.171E+04-0.973E+03
CGA:  41    -0.319456278340E+03    0.93949E+01   -0.45585E+02 10962   0.502E+03-0.269E+03
CGA:  42    -0.324440951019E+03   -0.49847E+01   -0.10261E+02 10962   0.320E+03-0.546E+02
CGA:  43    -0.343164604197E+03   -0.18724E+02   -0.66305E+01 10962   0.511E+03-0.650E+02
CGA:  44    -0.310123770765E+03    0.33041E+02   -0.58372E+01 10962   0.147E+04-0.867E+03
CGA:  45    -0.321638461886E+03   -0.11515E+02   -0.38019E+02 10962   0.369E+03-0.279E+03
CGA:  46    -0.331752605980E+03   -0.10114E+02   -0.64690E+01 10962   0.136E+04 0.996E+03
CGA:  47    -0.313366148492E+03    0.18386E+02   -0.27341E+02 10962   0.140E+04-0.221E+03
CGA:  48    -0.341709482859E+03   -0.28343E+02   -0.34635E+02 10962   0.296E+03-0.166E+03
CGA:  49    -0.346500610133E+03   -0.47911E+01   -0.30174E+01 10962   0.111E+03-0.135E+03
CGA:  50    -0.346761103330E+03   -0.26049E+00   -0.13287E+00 10962   0.115E+03 0.594E+02
CGA:  51    -0.347524715315E+03   -0.76361E+00   -0.45130E+00 10962   0.622E+02 0.800E+02
CGA:  52    -0.347797284537E+03   -0.27257E+00   -0.12634E+00 10962   0.751E+02 0.791E+02
CGA:  53    -0.348367130362E+03   -0.56985E+00   -0.16261E+00 10962   0.224E+03 0.233E+03
CGA:  54    -0.354332969232E+03   -0.59658E+01   -0.10840E+01 10962   0.368E+03 0.734E+03
CGA:  55    -0.356088525505E+03   -0.17556E+01   -0.23077E+01 10962   0.115E+03-0.180E+03
CGA:  56    -0.356359394205E+03   -0.27087E+00   -0.45432E+00 10962   0.400E+02-0.219E+02
CGA:  57    -0.356508381504E+03   -0.14899E+00   -0.25685E+00 10962   0.139E+02-0.127E+02
CGA:  58    -0.356573452538E+03   -0.65071E-01   -0.67188E-01 10962   0.676E+01-0.414E+00
CGA:  59    -0.356620713914E+03   -0.47261E-01   -0.46993E-01 10962   0.324E+01-0.258E+00
CGA:  60    -0.356692892650E+03   -0.72179E-01   -0.73992E-01 10962   0.130E+02-0.113E+00
CGA:  61    -0.356931392250E+03   -0.23850E+00   -0.16156E+00 10962   0.178E+02 0.141E+01
CGA:  62    -0.357013961778E+03   -0.82570E-01   -0.42141E-01 10962   0.144E+02 0.156E+02
CGA:  63    -0.357143763417E+03   -0.12980E+00   -0.15555E+00 10962   0.751E+01-0.176E+01
CGA:  64    -0.357259197119E+03   -0.11543E+00   -0.12285E+00 10962   0.609E+01-0.212E+00
CGA:  65    -0.357462818360E+03   -0.20362E+00   -0.19466E+00 10962   0.107E+02 0.669E+00
CGA:  66    -0.357757894961E+03   -0.29508E+00   -0.28867E+00 10962   0.307E+01-0.129E+01
CGA:  67    -0.357930292989E+03   -0.17240E+00   -0.26142E+00 10962   0.715E+01-0.109E+01
CGA:  68    -0.358081739365E+03   -0.15145E+00   -0.15672E+00 10962   0.186E+01-0.983E+00
CGA:  69    -0.358153853607E+03   -0.72114E-01   -0.66113E-01 10962   0.222E+01 0.355E+00
CGA:  70    -0.358320336994E+03   -0.16648E+00   -0.15104E+00 10962   0.352E+00 0.581E+00
CGA:  71    -0.358398060399E+03   -0.77723E-01   -0.68846E-01 10962   0.872E-01 0.122E+00
CGA:  72    -0.358406986465E+03   -0.89261E-02    0.31303E+00 10962   0.727E-01 0.103E+00
CGA:  73    -0.358412600066E+03   -0.56136E-02    0.60739E-01 10962   0.632E-01 0.657E-01
CGA:  74    -0.358417549130E+03   -0.49491E-02    0.33302E-01 10962   0.564E-01 0.582E-01
CGA:  75    -0.358422006543E+03   -0.44574E-02    0.23192E-01 10962   0.511E-01 0.525E-01
CGA:  76    -0.358426077654E+03   -0.40711E-02    0.17848E-01 10962   0.468E-01 0.480E-01
CGA:  77    -0.358429832075E+03   -0.37544E-02    0.14493E-01 10962   0.433E-01 0.443E-01
CGA:  78    -0.358433318952E+03   -0.34869E-02    0.12160E-01 10962   0.402E-01 0.411E-01
CGA:  79    -0.358436574729E+03   -0.32558E-02    0.10431E-01 10962   0.375E-01 0.383E-01
CGA:  80    -0.358439627376E+03   -0.30526E-02    0.90872E-02 10962   0.351E-01 0.358E-01
CGA:  81    -0.358442499042E+03   -0.28717E-02    0.80079E-02 10962   0.330E-01 0.336E-01
CGA:  82    -0.358445207643E+03   -0.27086E-02    0.71192E-02 10962   0.310E-01 0.316E-01
CGA:  83    -0.358447767708E+03   -0.25601E-02    0.63735E-02 10962   0.293E-01 0.298E-01
CGA:  84    -0.358450191229E+03   -0.24235E-02    0.57396E-02 10962   0.276E-01 0.282E-01
CGA:  85    -0.358452488478E+03   -0.22972E-02    0.51967E-02 10962   0.261E-01 0.266E-01
CGA:  86    -0.358454668236E+03   -0.21798E-02    0.47262E-02 10962   0.247E-01 0.252E-01
CGA:  87    -0.358456738121E+03   -0.20699E-02    0.43157E-02 10962   0.234E-01 0.239E-01
CGA:  88    -0.358458705425E+03   -0.19673E-02    0.39561E-02 10962   0.222E-01 0.226E-01
CGA:  89    -0.358460576954E+03   -0.18715E-02    0.36402E-02 10962   0.211E-01 0.215E-01
CGA:  90    -0.358462359087E+03   -0.17821E-02    0.33614E-02 10962   0.200E-01 0.204E-01
CGA:  91    -0.358464057626E+03   -0.16985E-02    0.31138E-02 10962   0.191E-01 0.194E-01
CGA:  92    -0.358465677834E+03   -0.16202E-02    0.28923E-02 10962   0.182E-01 0.185E-01
CGA:  93    -0.358467224579E+03   -0.15467E-02    0.26937E-02 10962   0.173E-01 0.176E-01
CGA:  94    -0.358468702374E+03   -0.14778E-02    0.25140E-02 10962   0.165E-01 0.168E-01
CGA:  95    -0.358470115389E+03   -0.14130E-02    0.23510E-02 10962   0.158E-01 0.160E-01
CGA:  96    -0.358471467497E+03   -0.13521E-02    0.22022E-02 10962   0.151E-01 0.153E-01
CGA:  97    -0.358472762165E+03   -0.12947E-02    0.20662E-02 10962   0.144E-01 0.146E-01
CGA:  98    -0.358474002624E+03   -0.12405E-02    0.19410E-02 10962   0.138E-01 0.140E-01
CGA:  99    -0.358475191894E+03   -0.11893E-02    0.18255E-02 10962   0.132E-01 0.134E-01
CGA: 100    -0.358476332716E+03   -0.11408E-02    0.17186E-02 10962   0.126E-01 0.128E-01
CGA: 101    -0.358477427771E+03   -0.10951E-02    0.16192E-02 10962   0.121E-01 0.123E-01
CGA: 102    -0.358478479429E+03   -0.10517E-02    0.15268E-02 10962   0.116E-01 0.118E-01
CGA: 103    -0.358479489956E+03   -0.10105E-02    0.14406E-02 10962   0.111E-01 0.113E-01
CGA: 104    -0.358480461448E+03   -0.97149E-03    0.13601E-02 10962   0.107E-01 0.109E-01
CGA: 105    -0.358481395861E+03   -0.93441E-03    0.12849E-02 10962   0.103E-01 0.104E-01
CGA: 106    -0.358482295049E+03   -0.89919E-03    0.12145E-02 10962   0.986E-02 0.100E-01
CGA: 107    -0.358483160731E+03   -0.86568E-03    0.11487E-02 10962   0.948E-02 0.963E-02
CGA: 108    -0.358483994509E+03   -0.83378E-03    0.10871E-02 10962   0.911E-02 0.925E-02
CGA: 109    -0.358484797875E+03   -0.80337E-03    0.10296E-02 10962   0.876E-02 0.890E-02
CGA: 110    -0.358485572310E+03   -0.77444E-03    0.97549E-03 10962   0.843E-02 0.856E-02
CGA: 111    -0.358486319199E+03   -0.74689E-03    0.92471E-03 10962   0.812E-02 0.824E-02
CGA: 112    -0.358487039792E+03   -0.72059E-03    0.87721E-03 10962   0.782E-02 0.794E-02
CGA: 113    -0.358487735291E+03   -0.69550E-03    0.83268E-03 10962   0.753E-02 0.765E-02
CGA: 114    -0.358488406857E+03   -0.67157E-03    0.79092E-03 10962   0.726E-02 0.737E-02
CGA: 115    -0.358489055558E+03   -0.64870E-03    0.75178E-03 10962   0.700E-02 0.710E-02
CGA: 116    -0.358489682409E+03   -0.62685E-03    0.71500E-03 10962   0.676E-02 0.685E-02
CGA: 117    -0.358490288381E+03   -0.60597E-03    0.68038E-03 10962   0.652E-02 0.661E-02
CGA: 118    -0.358490874383E+03   -0.58600E-03    0.64778E-03 10962   0.629E-02 0.638E-02
CGA: 119    -0.358491441245E+03   -0.56686E-03    0.61714E-03 10962   0.608E-02 0.616E-02
CGA: 120    -0.358491989783E+03   -0.54854E-03    0.58821E-03 10962   0.587E-02 0.595E-02
CGA: 121    -0.358492520727E+03   -0.53094E-03    0.56096E-03 10962   0.567E-02 0.575E-02
CGA: 122    -0.358493034792E+03   -0.51407E-03    0.53525E-03 10962   0.548E-02 0.556E-02
CGA: 123    -0.358493532658E+03   -0.49787E-03    0.51098E-03 10962   0.530E-02 0.537E-02
CGA: 124    -0.358494014978E+03   -0.48232E-03    0.48802E-03 10962   0.512E-02 0.519E-02
CGA: 125    -0.358494482310E+03   -0.46733E-03    0.46643E-03 10962   0.496E-02 0.502E-02
CGA: 126    -0.358494935176E+03   -0.45287E-03    0.44600E-03 10962   0.479E-02 0.486E-02
CGA: 127    -0.358495374053E+03   -0.43888E-03    0.42668E-03 10962   0.464E-02 0.470E-02
CGA: 128    -0.358495799423E+03   -0.42537E-03    0.40856E-03 10962   0.449E-02 0.454E-02
CGA: 129    -0.358496211732E+03   -0.41231E-03    0.39141E-03 10962   0.434E-02 0.439E-02
CGA: 130    -0.358496611323E+03   -0.39959E-03    0.37603E-03 10962   0.421E-02 0.425E-02
CGA: 131    -0.358496998768E+03   -0.38745E-03    0.36141E-03 10962   0.408E-02 0.411E-02
CGA: 132    -0.358497373963E+03   -0.37519E-03    0.35306E-03 10962   0.398E-02 0.396E-02
CGA: 133    -0.358497736586E+03   -0.36262E-03    0.36467E-03 10962   0.400E-02 0.376E-02
CGA: 134    -0.358498082707E+03   -0.34612E-03    0.51932E-03 10962   0.441E-02 0.335E-02
CGA: 135    -0.358497313464E+03    0.76924E-03   -0.49543E-03 10962   0.201E+00-0.931E-02
CGA: 136    -0.358500310637E+03   -0.29972E-02   -0.29843E-02 10962   0.477E-02 0.970E-04
CGA: 137    -0.358500566819E+03   -0.25618E-03   -0.23736E-03 10962   0.116E-01-0.114E-02
CGA: 138    -0.358501817430E+03   -0.12506E-02    0.33345E-02 10962   0.236E-01 0.513E-02
CGA: 139    -0.358504380361E+03   -0.25629E-02   -0.28317E-02 10962   0.966E-01-0.151E-01
CGA: 140    -0.358506242601E+03   -0.18622E-02   -0.18538E-02 10962   0.303E-02-0.153E-03
CGA: 141    -0.358506408737E+03   -0.16614E-03   -0.15877E-03 10962   0.361E-02-0.650E-03
CGA: 142    -0.358506837904E+03   -0.42917E-03    0.46078E-03 10962   0.405E-02 0.217E-02
CGA: 143    -0.358507061480E+03   -0.22358E-03   -0.21728E-03 10962   0.248E-02-0.654E-03
CGA: 144    -0.358507360014E+03   -0.29853E-03    0.46661E-03 10962   0.218E-02 0.152E-02
CGA: 145    -0.358507550460E+03   -0.19045E-03   -0.30721E-03 10962   0.677E-02-0.150E-02
CGA: 146    -0.358507925382E+03   -0.37492E-03   -0.36806E-03 10962   0.167E-02-0.557E-03
CGA: 147    -0.358508140472E+03   -0.21509E-03    0.83978E-03 10962   0.146E-02 0.949E-03
CGA: 148    -0.358507465137E+03    0.67533E-03   -0.39315E-03 10962   0.417E-01-0.365E-02
CGA: 149    -0.358509118337E+03   -0.16532E-02   -0.16441E-02 10962   0.498E-02-0.762E-04
CGA: 150    -0.358509321465E+03   -0.20313E-03   -0.18853E-03 10962   0.268E-02-0.187E-03
CGA: 151    -0.358509503572E+03   -0.18211E-03   -0.15953E-03 10962   0.200E-02-0.445E-03
CGA: 152    -0.358509911621E+03   -0.40805E-03    0.80913E-03 10962   0.300E-02 0.980E-03
CGA: 153    -0.358504698986E+03    0.52126E-02   -0.28694E-02 10962   0.254E+00-0.137E-01
CGA: 154    -0.358513198990E+03   -0.85000E-02   -0.85642E-02 10962   0.203E-01 0.471E-02
CGA: 155    -0.358514477525E+03   -0.12785E-02   -0.12876E-02 10962   0.284E-02 0.772E-04
CGA: 156    -0.358514656167E+03   -0.17864E-03   -0.18426E-03 10962   0.110E-02 0.453E-04
CGA: 157    -0.358514767739E+03   -0.11157E-03   -0.11786E-03 10962   0.839E-03 0.827E-04
CGA: 158    -0.358515213745E+03   -0.44601E-03   -0.36541E-03 10962   0.414E-02 0.345E-03
CGA: 159    -0.358517653185E+03   -0.24394E-02   -0.22060E-02 10962   0.105E-01 0.111E-02
CGA: 160    -0.358521378119E+03   -0.37249E-02   -0.36721E-02 10962   0.252E-01-0.147E-03
CGA: 161    -0.358524501118E+03   -0.31230E-02   -0.10260E-01 10962   0.795E-01-0.325E-01
CGA: 162    -0.358531745923E+03   -0.72448E-02   -0.73481E-02 10962   0.297E-01 0.864E-03
CGA: 163    -0.358542202629E+03   -0.10457E-01   -0.10683E-01 10962   0.483E-01-0.143E-02
CGA: 164    -0.358556877074E+03   -0.14674E-01   -0.17446E-01 10962   0.781E-01-0.163E-01
CGA: 165    -0.358566629196E+03   -0.97521E-02   -0.91862E-02 10962   0.368E-01-0.125E-01
CGA: 166    -0.358572849592E+03   -0.62204E-02   -0.61180E-02 10962   0.344E-01-0.484E-02
CGA: 167    -0.358580056769E+03   -0.72072E-02   -0.73543E-02 10962   0.330E-01-0.486E-02
CGA: 168    -0.358586877169E+03   -0.68204E-02   -0.69357E-02 10962   0.389E-01-0.442E-02
CGA: 169    -0.358595484584E+03   -0.86074E-02   -0.87564E-02 10962   0.412E-01-0.381E-02
CGA: 170    -0.358604927053E+03   -0.94425E-02   -0.94309E-02 10962   0.424E-01 0.206E-03
CGA: 171    -0.358616788907E+03   -0.11862E-01   -0.11700E-01 10962   0.414E-01 0.339E-02
CGA: 172    -0.358627859310E+03   -0.11070E-01   -0.10989E-01 10962   0.364E-01 0.401E-02
CGA: 173    -0.358639016766E+03   -0.11157E-01   -0.10952E-01 10962   0.335E-01 0.434E-02
CGA: 174    -0.358648833702E+03   -0.98169E-02   -0.96693E-02 10962   0.285E-01 0.433E-02
CGA: 175    -0.358658496639E+03   -0.96629E-02   -0.94527E-02 10962   0.312E-01 0.286E-02
CGA: 176    -0.358669260775E+03   -0.10764E-01   -0.10528E-01 10962   0.332E-01 0.350E-02
CGA: 177    -0.358681261626E+03   -0.12001E-01   -0.11844E-01 10962   0.348E-01 0.952E-03
CGA: 178    -0.358693786962E+03   -0.12525E-01   -0.13139E-01 10962   0.451E-01-0.473E-02
CGA: 179    -0.358705461708E+03   -0.11675E-01   -0.11782E-01 10962   0.493E-01-0.362E-02
CGA: 180    -0.358717032136E+03   -0.11570E-01   -0.11604E-01 10962   0.405E-01-0.645E-02
CGA: 181    -0.358724302217E+03   -0.72701E-02   -0.72049E-02 10962   0.296E-01-0.229E-02
CGA: 182    -0.358730016590E+03   -0.57144E-02   -0.56951E-02 10962   0.229E-01-0.683E-03
CGA: 183    -0.358734635551E+03   -0.46190E-02   -0.46549E-02 10962   0.184E-01 0.225E-04
CGA: 184    -0.358738498682E+03   -0.38631E-02   -0.38732E-02 10962   0.148E-01 0.565E-04
CGA: 185    -0.358741631801E+03   -0.31331E-02   -0.31541E-02 10962   0.137E-01 0.787E-03
CGA: 186    -0.358744694209E+03   -0.30624E-02   -0.31080E-02 10962   0.131E-01 0.177E-02
CGA: 187    -0.358747634287E+03   -0.29401E-02   -0.30271E-02 10962   0.115E-01 0.250E-02
CGA: 188    -0.358750321249E+03   -0.26870E-02   -0.27871E-02 10962   0.102E-01 0.281E-02
CGA: 189    -0.358753072984E+03   -0.27517E-02   -0.28005E-02 10962   0.953E-02 0.279E-02
CGA: 190    -0.358755825129E+03   -0.27521E-02   -0.27683E-02 10962   0.807E-02 0.208E-02
CGA: 191    -0.358758139492E+03   -0.23144E-02   -0.23146E-02 10962   0.691E-02 0.806E-03
SDA: 192    -0.358760109138E+03   -0.19696E-02   -0.19742E-02 10962   0.655E-02-0.340E-03
CGA: 193    -0.358763069626E+03   -0.29605E-02   -0.35465E-02 10962   0.782E-02-0.192E-02
CGA: 194    -0.358764740092E+03   -0.16705E-02   -0.18282E-02 10962   0.112E-01-0.199E-02
CGA: 195    -0.358766778102E+03   -0.20380E-02   -0.20024E-02 10962   0.579E-02-0.227E-02
CGA: 196    -0.358768049924E+03   -0.12718E-02   -0.13112E-02 10962   0.509E-02-0.134E-02
CGA: 197    -0.358769212562E+03   -0.11626E-02   -0.12183E-02 10962   0.392E-02-0.101E-02
CGA: 198    -0.358770071510E+03   -0.85895E-03   -0.86522E-03 10962   0.258E-02-0.409E-03
CGA: 199    -0.358770832636E+03   -0.76113E-03   -0.76178E-03 10962   0.202E-02-0.749E-05
CGA: 200    -0.358771446730E+03   -0.61409E-03   -0.60535E-03 10962   0.133E-02 0.242E-03
   1 F= -.35877145E+03 E0= -.35877145E+03  d E =-.358771E+03  mag=    12.0000
       N       E                     dE             d eps       ncg     rms          ort
SDA:   1    -0.358772327556E+03   -0.14949E-02    0.00000E+00 10962   0.500E-02 0.000E+00
CGA:   2    -0.358773321694E+03   -0.99414E-03   -0.10030E-02 10962   0.424E-02 0.132E-03
CGA:   3    -0.358773898414E+03   -0.57672E-03   -0.59026E-03 10962   0.112E-02 0.105E-03
CGA:   4    -0.358774137387E+03   -0.23897E-03   -0.24107E-03 10962   0.510E-03 0.432E-04
CGA:   5    -0.358774255064E+03   -0.11768E-03   -0.11897E-03 10962   0.355E-03 0.417E-04
CGA:   6    -0.358774392686E+03   -0.13762E-03   -0.13103E-03 10962   0.419E-03 0.756E-04
CGA:   7    -0.358774616472E+03   -0.22379E-03   -0.20474E-03 10962   0.623E-03 0.132E-03
CGA:   8    -0.358775010746E+03   -0.39427E-03   -0.35627E-03 10962   0.710E-03 0.224E-03
CGA:   9    -0.358775481196E+03   -0.47045E-03   -0.42914E-03 10962   0.890E-03 0.215E-03
CGA:  10    -0.358776113192E+03   -0.63200E-03   -0.59381E-03 10962   0.129E-02 0.600E-04
CGA:  11    -0.358776714004E+03   -0.60081E-03   -0.13289E-02 10962   0.475E-02-0.124E-02
CGA:  12    -0.358777872925E+03   -0.11589E-02   -0.11596E-02 10962   0.128E-02 0.702E-05
CGA:  13    -0.358778410085E+03   -0.53716E-03   -0.53551E-03 10962   0.842E-03 0.179E-04
CGA:  14    -0.358778931905E+03   -0.52182E-03   -0.58594E-03 10962   0.119E-02-0.177E-03
CGA:  15    -0.358779418947E+03   -0.48704E-03   -0.51192E-03 10962   0.143E-02-0.120E-03
CGA:  16    -0.358779978738E+03   -0.55979E-03   -0.60533E-03 10962   0.150E-02-0.384E-03
CGA:  17    -0.358780385088E+03   -0.40635E-03   -0.40709E-03 10962   0.101E-02-0.864E-04
CGA:  18    -0.358780884828E+03   -0.49974E-03   -0.54026E-03 10962   0.105E-02-0.190E-03
CGA:  19    -0.358781308467E+03   -0.42364E-03   -0.46705E-03 10962   0.150E-02-0.257E-03
CGA:  20    -0.358781602818E+03   -0.29435E-03   -0.30445E-03 10962   0.905E-03 0.562E-04
CGA:  21    -0.358781919274E+03   -0.31646E-03   -0.31997E-03 10962   0.667E-03 0.791E-04
CGA:  22    -0.358782166081E+03   -0.24681E-03   -0.24444E-03 10962   0.647E-03-0.789E-04
CGA:  23    -0.358782334933E+03   -0.16885E-03   -0.17532E-03 10962   0.433E-03 0.895E-04
CGA:  24    -0.358782456117E+03   -0.12118E-03   -0.13276E-03 10962   0.396E-03 0.113E-03
CGA:  25    -0.358782679163E+03   -0.22305E-03   -0.22490E-03 10962   0.429E-03-0.232E-04
CGA:  26    -0.358782869823E+03   -0.19066E-03   -0.19685E-03 10962   0.609E-03-0.470E-04
CGA:  27    -0.358782992548E+03   -0.12273E-03   -0.13190E-03 10962   0.410E-03 0.809E-04
CGA:  28    -0.358783146038E+03   -0.15349E-03   -0.15397E-03 10962   0.388E-03 0.215E-04
CGA:  29    -0.358783308152E+03   -0.16211E-03   -0.18093E-03 10962   0.573E-03-0.230E-03
CGA:  30    -0.358783428933E+03   -0.12078E-03   -0.13553E-03 10962   0.218E-03 0.110E-03
CGA:  31    -0.358783556066E+03   -0.12713E-03   -0.15354E-03 10962   0.290E-03-0.115E-03
CGA:  32    -0.358783604838E+03   -0.48772E-04   -0.60743E-04 10962   0.927E-04 0.725E-04
CGA:  33    -0.358783663744E+03   -0.58905E-04   -0.70563E-04 10962   0.139E-03-0.478E-04
CGA:  34    -0.358783706467E+03   -0.42723E-04   -0.44110E-04 10962   0.463E-04 0.229E-04
CGA:  35    -0.358783747914E+03   -0.41448E-04    0.43881E-03 10962   0.448E-04 0.164E-04
CGA:  36    -0.358783834672E+03   -0.86757E-04   -0.85702E-04 10962   0.176E-03 0.195E-05
CGA:  37    -0.358783954195E+03   -0.11952E-03   -0.13550E-03 10962   0.191E-03-0.446E-04
CGA:  38    -0.358783986754E+03   -0.32560E-04   -0.33999E-04 10962   0.107E-03 0.824E-05
CGA:  39    -0.358784008748E+03   -0.21994E-04   -0.26456E-04 10962   0.798E-04 0.218E-04
CGA:  40    -0.358784032403E+03   -0.23655E-04   -0.27757E-04 10962   0.941E-04 0.297E-04
CGA:  41    -0.358784074668E+03   -0.42265E-04   -0.45351E-04 10962   0.130E-03 0.455E-04
CGA:  42    -0.358784123653E+03   -0.48985E-04   -0.57388E-04 10962   0.108E-03 0.753E-04
CGA:  43    -0.358784162944E+03   -0.39291E-04   -0.39925E-04 10962   0.500E-04 0.248E-04
CGA:  44    -0.358784197085E+03   -0.34142E-04   -0.33085E-04 10962   0.574E-04 0.193E-05
CGA:  45    -0.358784209934E+03   -0.12849E-04   -0.16722E-04 10962   0.451E-04 0.289E-04
CGA:  46    -0.358784234610E+03   -0.24676E-04   -0.23853E-04 10962   0.136E-04 0.656E-05
CGA:  47    -0.358784242659E+03   -0.80482E-05   -0.74185E-05 10962   0.122E-04 0.948E-05
CGA:  48    -0.357102715860E+03    0.16815E+01    0.16567E+01 10962   0.690E+01-0.346E+01
CGA:  49    -0.357415195030E+03   -0.31248E+00   -0.29211E+01 10962   0.172E+01 0.137E+00
CGA:  50    -0.358500256923E+03   -0.10851E+01   -0.75005E+00 10962   0.118E+01-0.711E+00
CGA:  51    -0.358652007769E+03   -0.15175E+00   -0.15826E+00 10962   0.977E-01 0.304E-02
CGA:  52    -0.358645273438E+03    0.67343E-02   -0.25171E-01 10962   0.160E+00 0.230E-01
CGA:  53    -0.357993019891E+03    0.65225E+00   -0.18654E-01 10962   0.298E+01 0.368E+00
CGA:  54    -0.357533291873E+03    0.45973E+00   -0.84505E+00 10962   0.393E+01 0.858E+00
CGA:  55    -0.355817995985E+03    0.17153E+01   -0.10106E+01 10962   0.652E+01 0.209E+01
CGA:  56    -0.356862396062E+03   -0.10444E+01   -0.20816E+01 10962   0.550E+01 0.362E+01
CGA:  57    -0.357814862295E+03   -0.95247E+00   -0.18096E+01 10962   0.217E+01 0.129E+01
CGA:  58    -0.358310660091E+03   -0.49580E+00   -0.83276E+00 10962   0.782E+00 0.744E+00
CGA:  59    -0.358528162154E+03   -0.21750E+00   -0.29281E+00 10962   0.484E+00 0.421E+00
CGA:  60    -0.358675883126E+03   -0.14772E+00   -0.17496E+00 10962   0.242E+00 0.102E+00
CGA:  61    -0.358719606183E+03   -0.43723E-01   -0.86148E-01 10962   0.146E+00 0.894E-01
CGA:  62    -0.358724299793E+03   -0.46936E-02   -0.46859E-01 10962   0.156E+00 0.545E-01
CGA:  63    -0.358641081507E+03    0.83218E-01   -0.28882E-01 10962   0.328E+00 0.108E+00
CGA:  64    -0.358709804683E+03   -0.68723E-01   -0.10425E+00 10962   0.118E+00 0.805E-01
CGA:  65    -0.358760466812E+03   -0.50662E-01   -0.56043E-01 10962   0.206E-01 0.178E-01
CGA:  66    -0.358777144975E+03   -0.16678E-01   -0.15368E-01 10962   0.147E-01 0.640E-02
CGA:  67    -0.358781818309E+03   -0.46733E-02   -0.62627E-02 10962   0.131E-02 0.237E-02
CGA:  68    -0.358783542832E+03   -0.17245E-02   -0.14988E-02 10962   0.604E-03 0.365E-03
CGA:  69    -0.358783963808E+03   -0.42098E-03   -0.55822E-03 10962   0.600E-03-0.620E-03
CGA:  70    -0.358784023663E+03   -0.59854E-04   -0.12678E-03 10962   0.222E-03 0.219E-03
CGA:  71    -0.358784162364E+03   -0.13870E-03   -0.14153E-03 10962   0.191E-03 0.842E-04
CGA:  72    -0.358784200243E+03   -0.37880E-04   -0.22923E-03 10962   0.100E-02-0.523E-03
CGA:  73    -0.358784243298E+03   -0.43054E-04   -0.14934E-03 10962   0.145E-03 0.286E-03
CGA:  74    -0.358784237606E+03    0.56917E-05   -0.27095E-04 10962   0.861E-04 0.923E-04
CGA:  75    -0.358784333265E+03   -0.95659E-04    0.13846E-03 10962   0.419E-04 0.292E-04
CGA:  76    -0.358784330732E+03    0.25329E-05   -0.91040E-05 10962   0.168E-04 0.364E-04
   2 F= -.35878433E+03 E0= -.35878433E+03  d E =-.128840E-01  mag=    12.0000
       N       E                     dE             d eps       ncg     rms          ort
SDA:   1    -0.358763128427E+03    0.21205E-01    0.00000E+00 10962   0.627E-01 0.000E+00
CGA:   2    -0.358780305506E+03   -0.17177E-01   -0.17197E-01 10962   0.346E-01 0.989E-04
CGA:   3    -0.358785461424E+03   -0.51559E-02   -0.51612E-02 10962   0.108E-01 0.889E-05
CGA:   4    -0.358787253314E+03   -0.17919E-02   -0.17874E-02 10962   0.258E-02-0.193E-04
CGA:   5    -0.358787706639E+03   -0.45332E-03   -0.45051E-03 10962   0.761E-03-0.122E-04
CGA:   6    -0.358787856412E+03   -0.14977E-03   -0.15065E-03 10962   0.264E-03 0.429E-05
CGA:   7    -0.358787912345E+03   -0.55933E-04   -0.58831E-04 10962   0.105E-03 0.170E-04
CGA:   8    -0.358787935411E+03   -0.23066E-04   -0.25795E-04 10962   0.404E-04 0.179E-04
CGA:   9    -0.358787944995E+03   -0.95846E-05   -0.11201E-04 10962   0.178E-04 0.117E-04
   3 F= -.35878794E+03 E0= -.35878794E+03  d E =-.361426E-02  mag=    12.0000
       N       E                     dE             d eps       ncg     rms          ort
SDA:   1    -0.358704090263E+03    0.83845E-01    0.00000E+00 10962   0.243E+00 0.000E+00
CGA:   2    -0.358756982862E+03   -0.52893E-01   -0.52937E-01 10962   0.149E+00 0.236E-03
CGA:   3    -0.358780471429E+03   -0.23489E-01   -0.23504E-01 10962   0.442E-01 0.476E-04
CGA:   4    -0.358787635713E+03   -0.71643E-02   -0.71503E-02 10962   0.103E-01-0.879E-04
CGA:   5    -0.358789306321E+03   -0.16706E-02   -0.16626E-02 10962   0.243E-02-0.475E-04
CGA:   6    -0.358789766748E+03   -0.46043E-03   -0.46004E-03 10962   0.789E-03-0.325E-05
CGA:   7    -0.358789931958E+03   -0.16521E-03   -0.16759E-03 10962   0.258E-03 0.221E-04
CGA:   8    -0.358789991177E+03   -0.59219E-04   -0.61434E-04 10962   0.101E-03 0.266E-04
CGA:   9    -0.358790018581E+03   -0.27404E-04   -0.28380E-04 10962   0.425E-04 0.178E-04
CGA:  10    -0.358790031947E+03   -0.13366E-04   -0.13657E-04 10962   0.205E-04 0.852E-05
CGA:  11    -0.358790038665E+03   -0.67178E-05   -0.68798E-05 10962   0.112E-04 0.627E-05
   4 F= -.35879004E+03 E0= -.35879004E+03  d E =-.209367E-02  mag=    12.0000
       N       E                     dE             d eps       ncg     rms          ort
SDA:   1    -0.358647029876E+03    0.14300E+00    0.00000E+00 10962   0.410E+00 0.000E+00
CGA:   2    -0.358737541300E+03   -0.90511E-01   -0.90544E-01 10962   0.253E+00 0.271E-03
CGA:   3    -0.358777184177E+03   -0.39643E-01   -0.39648E-01 10962   0.731E-01-0.226E-04
CGA:   4    -0.358788879683E+03   -0.11696E-01   -0.11676E-01 10962   0.164E-01-0.168E-03
CGA:   5    -0.358791504987E+03   -0.26253E-02   -0.26174E-02 10962   0.363E-02-0.654E-04
CGA:   6    -0.358792184702E+03   -0.67972E-03   -0.67890E-03 10962   0.113E-02-0.958E-05
CGA:   7    -0.358792422067E+03   -0.23737E-03   -0.23746E-03 10962   0.339E-03 0.130E-05
CGA:   8    -0.358792504732E+03   -0.82665E-04   -0.82720E-04 10962   0.140E-03 0.198E-05
CGA:   9    -0.358792546855E+03   -0.42123E-04   -0.42293E-04 10962   0.675E-04-0.551E-05
CGA:  10    -0.358792568846E+03   -0.21991E-04   -0.23010E-04 10962   0.405E-04-0.122E-04
CGA:  11    -0.358792580563E+03   -0.11716E-04   -0.12868E-04 10962   0.276E-04-0.102E-04
CGA:  12    -0.358792589194E+03   -0.86311E-05   -0.10432E-04 10962   0.318E-04-0.799E-05
CGA:  13    -0.358792600371E+03   -0.11177E-04   -0.11034E-04 10962   0.315E-04 0.908E-06
CGA:  14    -0.358792615774E+03   -0.15404E-04   -0.14216E-04 10962   0.237E-04 0.883E-05
CGA:  15    -0.358792627612E+03   -0.11838E-04   -0.11173E-04 10962   0.136E-04 0.114E-04
CGA:  16    -0.358792635107E+03   -0.74955E-05   -0.70964E-05 10962   0.892E-05 0.101E-04
   5 F= -.35879264E+03 E0= -.35879264E+03  d E =-.259644E-02  mag=    12.0000
       N       E                     dE             d eps       ncg     rms          ort
SDA:   1    -0.355261931072E+03    0.35307E+01    0.00000E+00 10962   0.987E+01 0.000E+00
CGA:   2    -0.357465386747E+03   -0.22035E+01   -0.22053E+01 10962   0.613E+01 0.461E-02
CGA:   3    -0.358424641851E+03   -0.95926E+00   -0.95953E+00 10962   0.174E+01 0.496E-02
CGA:   4    -0.358700169541E+03   -0.27553E+00   -0.27528E+00 10962   0.386E+00-0.820E-03
CGA:   5    -0.358761844268E+03   -0.61675E-01   -0.61664E-01 10962   0.871E-01-0.195E-03
CGA:   6    -0.358778189528E+03   -0.16345E-01   -0.16361E-01 10962   0.268E-01 0.122E-03
CGA:   7    -0.358783862058E+03   -0.56725E-02   -0.56676E-02 10962   0.813E-02-0.683E-04
CGA:   8    -0.358785849053E+03   -0.19870E-02   -0.19839E-02 10962   0.331E-02-0.816E-04
CGA:   9    -0.358786798020E+03   -0.94897E-03   -0.94985E-03 10962   0.145E-02-0.967E-04
CGA:  10    -0.358787222069E+03   -0.42405E-03   -0.42626E-03 10962   0.590E-03-0.996E-04
CGA:  11    -0.358787387046E+03   -0.16498E-03   -0.16579E-03 10962   0.212E-03-0.411E-04
CGA:  12    -0.358787458932E+03   -0.71885E-04   -0.76890E-04 10962   0.137E-03-0.471E-04
CGA:  13    -0.358787503417E+03   -0.44486E-04   -0.45686E-04 10962   0.105E-03-0.826E-05
CGA:  14    -0.358787546773E+03   -0.43355E-04   -0.40939E-04 10962   0.729E-04 0.204E-04
CGA:  15    -0.358787579847E+03   -0.33074E-04   -0.31333E-04 10962   0.437E-04 0.303E-04
CGA:  16    -0.358787600007E+03   -0.20160E-04   -0.19717E-04 10962   0.279E-04 0.307E-04
CGA:  17    -0.358787612875E+03   -0.12869E-04   -0.11855E-04 10962   0.180E-04 0.848E-05
CGA:  18    -0.358787622158E+03   -0.92831E-05   -0.83942E-05 10962   0.160E-04 0.190E-04
   6 F= -.35878762E+03 E0= -.35878762E+03  d E =0.501295E-02  mag=    12.0000
       N       E                     dE             d eps       ncg     rms          ort
SDA:   1    -0.357638188627E+03    0.11494E+01    0.00000E+00 10962   0.307E+01 0.000E+00
CGA:   2    -0.358391375157E+03   -0.75319E+00   -0.75335E+00 10962   0.196E+01 0.944E-03
CGA:   3    -0.358683520993E+03   -0.29215E+00   -0.29219E+00 10962   0.516E+00 0.942E-04
CGA:   4    -0.358764883829E+03   -0.81363E-01   -0.81275E-01 10962   0.115E+00-0.621E-03
CGA:   5    -0.358783599473E+03   -0.18716E-01   -0.18698E-01 10962   0.276E-01-0.143E-03
CGA:   6    -0.358788818336E+03   -0.52189E-02   -0.52215E-02 10962   0.838E-02 0.201E-04
CGA:   7    -0.358790596807E+03   -0.17785E-02   -0.17758E-02 10962   0.264E-02-0.348E-04
CGA:   8    -0.358791263569E+03   -0.66676E-03   -0.66448E-03 10962   0.113E-02-0.653E-04
CGA:   9    -0.358791599835E+03   -0.33627E-03   -0.33795E-03 10962   0.552E-03-0.855E-04
CGA:  10    -0.358791764352E+03   -0.16452E-03   -0.16827E-03 10962   0.269E-03-0.877E-04
CGA:  11    -0.358791841863E+03   -0.77511E-04   -0.82364E-04 10962   0.150E-03-0.649E-04
CGA:  12    -0.358791882718E+03   -0.40855E-04   -0.68258E-04 10962   0.245E-03-0.894E-04
CGA:  13    -0.358791940842E+03   -0.58124E-04   -0.58418E-04 10962   0.616E-04 0.415E-05
CGA:  14    -0.358791969034E+03   -0.28193E-04   -0.27733E-04 10962   0.411E-04 0.327E-05
CGA:  15    -0.358791993835E+03   -0.24800E-04   -0.22327E-04 10962   0.295E-04 0.120E-04
CGA:  16    -0.358792017386E+03   -0.23551E-04   -0.53118E-04 10962   0.189E-03-0.283E-04
CGA:  17    -0.358792050342E+03   -0.32955E-04   -0.38879E-04 10962   0.347E-04 0.349E-04
CGA:  18    -0.358792059676E+03   -0.93347E-05   -0.36214E-04 10962   0.173E-03-0.524E-04
CGA:  19    -0.358792076994E+03   -0.17317E-04   -0.28134E-04 10962   0.313E-04 0.470E-04
CGA:  20    -0.358792089323E+03   -0.12329E-04   -0.12203E-04 10962   0.128E-04-0.171E-05
CGA:  21    -0.358792103597E+03   -0.14275E-04    0.40907E-05 10962   0.169E-04 0.173E-05
CGA:  22    -0.358792111747E+03   -0.81501E-05   -0.78314E-05 10962   0.173E-04 0.105E-04
   7 F= -.35879211E+03 E0= -.35879211E+03  d E =-.448959E-02  mag=    12.0000
       N       E                     dE             d eps       ncg     rms          ort
SDA:   1    -0.358164854251E+03    0.62725E+00    0.00000E+00 10962   0.184E+01 0.000E+00
CGA:   2    -0.358547047832E+03   -0.38219E+00   -0.38238E+00 10962   0.111E+01-0.390E-03
CGA:   3    -0.358726407653E+03   -0.17936E+00   -0.17944E+00 10962   0.343E+00 0.230E-03
CGA:   4    -0.358781006830E+03   -0.54599E-01   -0.54636E-01 10962   0.768E-01 0.174E-03
CGA:   5    -0.358793243573E+03   -0.12237E-01   -0.12267E-01 10962   0.173E-01 0.151E-03
CGA:   6    -0.358796476227E+03   -0.32327E-02   -0.32378E-02 10962   0.527E-02 0.322E-04
CGA:   7    -0.358797600735E+03   -0.11245E-02   -0.11212E-02 10962   0.163E-02-0.303E-04
CGA:   8    -0.358797988096E+03   -0.38736E-03   -0.38712E-03 10962   0.625E-03-0.329E-05
CGA:   9    -0.358798162143E+03   -0.17405E-03   -0.17409E-03 10962   0.258E-03 0.106E-05
CGA:  10    -0.358798237860E+03   -0.75717E-04   -0.75624E-04 10962   0.103E-03-0.452E-05
CGA:  11    -0.358798267381E+03   -0.29521E-04   -0.29579E-04 10962   0.377E-04 0.288E-05
CGA:  12    -0.358798282280E+03   -0.14899E-04   -0.15738E-04 10962   0.289E-04-0.885E-05
CGA:  13    -0.358798292517E+03   -0.10238E-04   -0.13164E-04 10962   0.409E-04-0.105E-04
CGA:  14    -0.358798304762E+03   -0.12244E-04   -0.18403E-04 10962   0.660E-04-0.165E-04
CGA:  15    -0.358798321770E+03   -0.17008E-04   -0.18139E-04 10962   0.555E-04-0.106E-04
CGA:  16    -0.358798339496E+03   -0.17726E-04   -0.17728E-04 10962   0.382E-04-0.434E-06
CGA:  17    -0.358798355437E+03   -0.15940E-04   -0.15740E-04 10962   0.302E-04 0.312E-05
CGA:  18    -0.358798367977E+03   -0.12541E-04   -0.12360E-04 10962   0.228E-04 0.889E-05
CGA:  19    -0.358798378481E+03   -0.10504E-04   -0.10535E-04 10962   0.148E-04 0.959E-05
CGA:  20    -0.358798385813E+03   -0.73319E-05   -0.73856E-05 10962   0.931E-05 0.758E-05
   8 F= -.35879839E+03 E0= -.35879839E+03  d E =-.627407E-02  mag=    12.0000
       N       E                     dE             d eps       ncg     rms          ort
SDA:   1    -0.358655506706E+03    0.14287E+00    0.00000E+00 10962   0.375E+00 0.000E+00
CGA:   2    -0.358752935840E+03   -0.97429E-01   -0.97436E-01 10962   0.235E+00-0.257E-04
CGA:   3    -0.358787408497E+03   -0.34473E-01   -0.34463E-01 10962   0.615E-01-0.839E-04
CGA:   4    -0.358797149438E+03   -0.97409E-02   -0.97297E-02 10962   0.142E-01-0.691E-04
CGA:   5    -0.358799566888E+03   -0.24174E-02   -0.24171E-02 10962   0.383E-02-0.448E-05
CGA:   6    -0.358800296097E+03   -0.72921E-03   -0.72919E-03 10962   0.117E-02-0.641E-06
CGA:   7    -0.358800555406E+03   -0.25931E-03   -0.25753E-03 10962   0.435E-03-0.177E-04
CGA:   8    -0.358800670738E+03   -0.11533E-03   -0.11413E-03 10962   0.195E-03-0.240E-04
CGA:   9    -0.358800727667E+03   -0.56930E-04   -0.56813E-04 10962   0.963E-04-0.232E-04
CGA:  10    -0.358800755696E+03   -0.28028E-04   -0.28526E-04 10962   0.487E-04-0.219E-04
CGA:  11    -0.358800769343E+03   -0.13648E-04   -0.16566E-04 10962   0.420E-04-0.232E-04
CGA:  12    -0.358800562432E+03    0.20691E-03   -0.11171E-03 10962   0.110E-02-0.144E-03
CGA:  13    -0.358800777259E+03   -0.21483E-03   -0.21852E-03 10962   0.139E-03 0.933E-05
CGA:  14    -0.358800824993E+03   -0.47735E-04   -0.47288E-04 10962   0.350E-04-0.198E-05
CGA:  15    -0.358800835819E+03   -0.10825E-04   -0.11926E-04 10962   0.109E-04 0.524E-05
CGA:  16    -0.358800843537E+03   -0.77185E-05   -0.92778E-05 10962   0.226E-04-0.797E-05
   9 F= -.35880084E+03 E0= -.35880084E+03  d E =-.245772E-02  mag=    12.0000
       N       E                     dE             d eps       ncg     rms          ort
SDA:   1    -0.357934959187E+03    0.86588E+00    0.00000E+00 10962   0.217E+01 0.000E+00
CGA:   2    -0.358553469287E+03   -0.61851E+00   -0.61870E+00 10962   0.130E+01 0.679E-05
CGA:   3    -0.358734988686E+03   -0.18152E+00   -0.18150E+00 10962   0.319E+00 0.204E-02
CGA:   4    -0.358785724011E+03   -0.50735E-01   -0.50651E-01 10962   0.689E-01-0.141E-03
CGA:   5    -0.358797039256E+03   -0.11315E-01   -0.11301E-01 10962   0.171E-01-0.517E-04
CGA:   6    -0.358800317809E+03   -0.32786E-02   -0.32789E-02 10962   0.517E-02-0.200E-05
CGA:   7    -0.358801392437E+03   -0.10746E-02   -0.10701E-02 10962   0.157E-02-0.187E-04
CGA:   8    -0.358801801143E+03   -0.40871E-03   -0.40343E-03 10962   0.701E-03-0.287E-04
CGA:   9    -0.358802009000E+03   -0.20786E-03   -0.20378E-03 10962   0.319E-03-0.296E-04
CGA:  10    -0.358802106136E+03   -0.97136E-04   -0.93923E-04 10962   0.125E-03-0.271E-04
CGA:  11    -0.358802143602E+03   -0.37466E-04   -0.35547E-04 10962   0.457E-04-0.177E-04
CGA:  12    -0.358802159323E+03   -0.15721E-04   -0.15456E-04 10962   0.285E-04-0.125E-04
CGA:  13    -0.358802169261E+03   -0.99373E-05   -0.11057E-04 10962   0.291E-04-0.936E-05
  10 F= -.35880217E+03 E0= -.35880217E+03  d E =-.132572E-02  mag=    12.0000
       N       E                     dE             d eps       ncg     rms          ort
SDA:   1    -0.342329000255E+03    0.16473E+02    0.00000E+00 10962   0.386E+02 0.000E+00
CGA:   2    -0.352536346131E+03   -0.10207E+02   -0.10233E+02 10962   0.227E+02 0.405E-02
CGA:   3    -0.356039159824E+03   -0.35028E+01   -0.35039E+01 10962   0.678E+01 0.239E+00
CGA:   4    -0.357157594894E+03   -0.11184E+01   -0.11183E+01 10962   0.158E+01 0.204E-01
CGA:   5    -0.357437461927E+03   -0.27987E+00   -0.28035E+00 10962   0.492E+00 0.269E-03
CGA:   6    -0.357535980441E+03   -0.98519E-01   -0.98567E-01 10962   0.168E+00 0.974E-04
CGA:   7    -0.357574842811E+03   -0.38862E-01   -0.38830E-01 10962   0.710E-01-0.228E-03
CGA:   8    -0.357592949559E+03   -0.18107E-01   -0.18119E-01 10962   0.282E-01 0.938E-04
CGA:   9    -0.357600673025E+03   -0.77235E-02   -0.77347E-02 10962   0.112E-01 0.124E-03
CGA:  10    -0.357603796427E+03   -0.31234E-02   -0.31192E-02 10962   0.404E-02-0.574E-04
CGA:  11    -0.357605022711E+03   -0.12263E-02   -0.12278E-02 10962   0.176E-02 0.293E-04
CGA:  12    -0.357605672328E+03   -0.64962E-03   -0.64834E-03 10962   0.124E-02 0.762E-04
CGA:  13    -0.357606298952E+03   -0.62662E-03   -0.60416E-03 10962   0.125E-02 0.188E-03
CGA:  14    -0.357607141029E+03   -0.84208E-03   -0.77715E-03 10962   0.137E-02 0.346E-03
CGA:  15    -0.357608111841E+03   -0.97081E-03   -0.90239E-03 10962   0.130E-02 0.439E-03
CGA:  16    -0.357609034095E+03   -0.92225E-03   -0.84808E-03 10962   0.107E-02 0.571E-03
CGA:  17    -0.357610054418E+03   -0.10203E-02   -0.91528E-03 10962   0.122E-02 0.440E-03
CGA:  18    -0.357611261903E+03   -0.12075E-02   -0.10830E-02 10962   0.153E-02 0.508E-03
CGA:  19    -0.357612511597E+03   -0.12497E-02   -0.11776E-02 10962   0.156E-02 0.493E-03
CGA:  20    -0.357613441815E+03   -0.93022E-03   -0.91031E-03 10962   0.108E-02 0.526E-03
CGA:  21    -0.357614161066E+03   -0.71925E-03   -0.70099E-03 10962   0.732E-03 0.248E-03
CGA:  22    -0.357614530136E+03   -0.36907E-03   -0.36993E-03 10962   0.438E-03 0.315E-03
CGA:  23    -0.357614820293E+03   -0.29016E-03   -0.28140E-03 10962   0.321E-03 0.235E-03
CGA:  24    -0.357614999723E+03   -0.17943E-03   -0.18071E-03 10962   0.265E-03-0.905E-05
CGA:  25    -0.357615117999E+03   -0.11828E-03   -0.11579E-03 10962   0.226E-03 0.891E-04
CGA:  26    -0.357615340360E+03   -0.22236E-03   -0.22401E-03 10962   0.442E-03-0.651E-05
CGA:  27    -0.357615540541E+03   -0.20018E-03   -0.19867E-03 10962   0.414E-03 0.657E-04
CGA:  28    -0.357615833395E+03   -0.29285E-03   -0.30914E-03 10962   0.486E-03-0.927E-04
CGA:  29    -0.357616011336E+03   -0.17794E-03   -0.20703E-03 10962   0.895E-03-0.324E-03
CGA:  30    -0.357616175909E+03   -0.16457E-03   -0.18778E-03 10962   0.238E-03 0.823E-04
CGA:  31    -0.357616321699E+03   -0.14579E-03   -0.20461E-03 10962   0.529E-03-0.168E-03
CGA:  32    -0.357616451716E+03   -0.13002E-03   -0.14269E-03 10962   0.124E-03 0.584E-04
CGA:  33    -0.357616519512E+03   -0.67797E-04   -0.89549E-04 10962   0.356E-03-0.109E-03
CGA:  34    -0.357616564233E+03   -0.44720E-04   -0.63563E-04 10962   0.750E-04 0.626E-04
CGA:  35    -0.357616615433E+03   -0.51201E-04   -0.55290E-04 10962   0.114E-03-0.226E-04
CGA:  36    -0.334558920914E+03    0.23058E+02    0.65102E+01 10962   0.610E+02-0.253E+01
CGA:  37    -0.345875442470E+03   -0.11317E+02   -0.25426E+02 10962   0.550E+02-0.933E+01
CGA:  38    -0.346525441972E+03   -0.65000E+00   -0.53596E+01 10962   0.511E+02 0.305E+01
CGA:  39    -0.343789596803E+03    0.27358E+01   -0.77452E+01 10962   0.658E+02 0.661E+01
CGA:  40    -0.338348393709E+03    0.54412E+01   -0.10497E+02 10962   0.479E+02-0.168E+02
CGA:  41    -0.346825778782E+03   -0.84774E+01   -0.37896E+01 10962   0.975E+02-0.249E+01
CGA:  42    -0.340881808661E+03    0.59440E+01   -0.17450E+02 10962   0.838E+02-0.160E+02
CGA:  43    -0.336192653570E+03    0.46892E+01   -0.34600E+01 10962   0.809E+02 0.375E+01
CGA:  44    -0.331131239866E+03    0.50614E+01   -0.60845E+01 10962   0.897E+02 0.938E+01
CGA:  45    -0.330140391313E+03    0.99085E+00   -0.14345E+02 10962   0.227E+03-0.219E+02
CGA:  46    -0.301202763314E+03    0.28938E+02   -0.20823E+02 10962   0.132E+03-0.403E+02
CGA:  47    -0.296740380601E+03    0.44624E+01   -0.65716E+01 10962   0.234E+03 0.123E+03
CGA:  48    -0.333354504853E+03   -0.36614E+02   -0.57360E+02 10962   0.126E+03 0.437E+01
CGA:  49    -0.337245826205E+03   -0.38913E+01   -0.14663E+02 10962   0.634E+02 0.335E+02
CGA:  50    -0.335159847646E+03    0.20860E+01   -0.12696E+02 10962   0.246E+03-0.406E+02
CGA:  51    -0.341227276510E+03   -0.60674E+01   -0.27467E+02 10962   0.876E+02-0.649E+02
CGA:  52    -0.342272954629E+03   -0.10457E+01   -0.28405E+01 10962   0.618E+02 0.484E+02
CGA:  53    -0.348559135540E+03   -0.62862E+01   -0.47048E+01 10962   0.207E+02 0.182E+02
CGA:  54    -0.346729877571E+03    0.18293E+01   -0.20060E+01 10962   0.206E+03-0.848E+02
CGA:  55    -0.349543129718E+03   -0.28133E+01   -0.24595E+02 10962   0.221E+02-0.153E+02
CGA:  56    -0.351055709099E+03   -0.15126E+01   -0.94764E+00 10962   0.111E+02 0.137E+02
CGA:  57    -0.351779582462E+03   -0.72387E+00   -0.41724E+00 10962   0.719E+01 0.870E+01
CGA:  58    -0.352190261849E+03   -0.41068E+00   -0.24401E+00 10962   0.511E+01 0.588E+01
CGA:  59    -0.352479808576E+03   -0.28955E+00   -0.16085E+00 10962   0.435E+01 0.461E+01
CGA:  60    -0.352681289249E+03   -0.20148E+00   -0.12681E+00 10962   0.351E+01 0.378E+01
CGA:  61    -0.352914036694E+03   -0.23275E+00   -0.12922E+00 10962   0.321E+01 0.325E+01
CGA:  62    -0.353751637780E+03   -0.83760E+00   -0.61778E+00 10962   0.513E+01 0.573E+00
CGA:  63    -0.355206537627E+03   -0.14549E+01   -0.15109E+01 10962   0.185E+01 0.358E+00
CGA:  64    -0.355874348864E+03   -0.66781E+00   -0.64391E+00 10962   0.175E+01 0.336E+00
CGA:  65    -0.356154753162E+03   -0.28040E+00   -0.20683E+00 10962   0.855E+00-0.649E-01
CGA:  66    -0.356410791809E+03   -0.25604E+00   -0.26417E+00 10962   0.272E+01-0.104E+00
CGA:  67    -0.356516868343E+03   -0.10608E+00   -0.18760E+00 10962   0.671E+00-0.619E+00
CGA:  68    -0.356680047845E+03   -0.16318E+00   -0.18078E+00 10962   0.744E+00-0.178E+00
CGA:  69    -0.356786927587E+03   -0.10688E+00   -0.10881E+00 10962   0.446E+00 0.240E-03
CGA:  70    -0.356910009375E+03   -0.12308E+00   -0.12326E+00 10962   0.489E+00-0.380E-01
CGA:  71    -0.356975286178E+03   -0.65277E-01   -0.60735E-01 10962   0.593E+00-0.262E-01
CGA:  72    -0.357042296258E+03   -0.67010E-01   -0.66626E-01 10962   0.258E+00-0.194E-02
CGA:  73    -0.357073404214E+03   -0.31108E-01   -0.37486E-01 10962   0.391E+00-0.132E-01
CGA:  74    -0.357112254199E+03   -0.38850E-01   -0.48006E-01 10962   0.225E+00-0.823E-01
CGA:  75    -0.357039556128E+03    0.72698E-01   -0.76762E-01 10962   0.104E+01-0.485E+00
CGA:  76    -0.357194032166E+03   -0.15448E+00   -0.16719E+00 10962   0.130E+01 0.316E+00
CGA:  77    -0.357234568002E+03   -0.40536E-01   -0.19490E+00 10962   0.886E+00-0.195E+00
CGA:  78    -0.357376083838E+03   -0.14152E+00   -0.14561E+00 10962   0.319E+00-0.842E-01
CGA:  79    -0.357383774700E+03   -0.76909E-02   -0.14496E+00 10962   0.109E+01-0.355E+00
CGA:  80    -0.357530614264E+03   -0.14684E+00   -0.14020E+00 10962   0.216E-01 0.552E-01
CGA:  81    -0.357538195307E+03   -0.75810E-02   -0.72132E-02 10962   0.213E-01 0.389E-02
CGA:  82    -0.357553433884E+03   -0.15239E-01    0.15766E-01 10962   0.166E-01 0.184E-01
CGA:  83    -0.357568818569E+03   -0.15385E-01    0.24894E-02 10962   0.945E-01 0.112E+00
CGA:  84    -0.357597334918E+03   -0.28516E-01   -0.27450E-01 10962   0.168E-01 0.180E-01
CGA:  85    -0.357611223383E+03   -0.13888E-01   -0.19883E-01 10962   0.390E-01-0.518E-02
CGA:  86    -0.357616298601E+03   -0.50752E-02   -0.51256E-02 10962   0.271E-02-0.209E-03
CGA:  87    -0.357616645486E+03   -0.34688E-03   -0.39328E-03 10962   0.918E-03 0.328E-03
CGA:  88    -0.357616966040E+03   -0.32055E-03   -0.31415E-03 10962   0.883E-03 0.254E-03
CGA:  89    -0.357617303275E+03   -0.33723E-03   -0.34120E-03 10962   0.581E-03-0.163E-03
CGA:  90    -0.357616899273E+03    0.40400E-03   -0.50991E-03 10962   0.194E-02-0.113E-02
CGA:  91    -0.357617464930E+03   -0.56566E-03   -0.56980E-03 10962   0.606E-03 0.153E-03
CGA:  92    -0.357617837992E+03   -0.37306E-03   -0.39619E-03 10962   0.437E-03-0.673E-04
CGA:  93    -0.357617897314E+03   -0.59322E-04   -0.73899E-04 10962   0.125E-03 0.102E-03
CGA:  94    -0.357617917330E+03   -0.20015E-04   -0.28369E-04 10962   0.731E-04 0.589E-04
CGA:  95    -0.357617935087E+03   -0.17757E-04   -0.22169E-04 10962   0.455E-04 0.435E-04
CGA:  96    -0.357617949347E+03   -0.14260E-04   -0.14269E-04 10962   0.279E-04 0.917E-05
CGA:  97    -0.357617950178E+03   -0.83014E-06   -0.53123E-05 10962   0.228E-04 0.285E-04
  11 F= -.35761795E+03 E0= -.35761795E+03  d E =0.118422E+01  mag=    12.0000
       N       E                     dE             d eps       ncg     rms          ort
SDA:   1    -0.354253956634E+03    0.33640E+01    0.00000E+00 10962   0.103E+02 0.000E+00
CGA:   2    -0.357603160786E+03   -0.33492E+01   -0.33503E+01 10962   0.348E+01-0.293E-01
CGA:   3    -0.358342586018E+03   -0.73943E+00   -0.73941E+00 10962   0.126E+01-0.269E-02
CGA:   4    -0.358516818893E+03   -0.17423E+00   -0.17416E+00 10962   0.316E+00-0.904E-03
CGA:   5    -0.358584623730E+03   -0.67805E-01   -0.67756E-01 10962   0.104E+00-0.563E-03
CGA:   6    -0.358604942414E+03   -0.20319E-01   -0.20265E-01 10962   0.421E-01-0.588E-03
CGA:   7    -0.358615891059E+03   -0.10949E-01   -0.10931E-01 10962   0.185E-01-0.942E-03
CGA:   8    -0.358620392986E+03   -0.45019E-02   -0.44837E-02 10962   0.755E-02-0.600E-03
CGA:   9    -0.358622409877E+03   -0.20169E-02   -0.20165E-02 10962   0.268E-02-0.299E-03
CGA:  10    -0.358623132949E+03   -0.72307E-03   -0.72360E-03 10962   0.964E-03-0.137E-03
CGA:  11    -0.358623427206E+03   -0.29426E-03   -0.30002E-03 10962   0.479E-03-0.115E-03
CGA:  12    -0.358623608320E+03   -0.18111E-03   -0.23190E-03 10962   0.620E-03-0.190E-03
CGA:  13    -0.358623734127E+03   -0.12581E-03   -0.27269E-03 10962   0.117E-02-0.346E-03
CGA:  14    -0.358624104939E+03   -0.37081E-03   -0.37107E-03 10962   0.402E-03-0.100E-03
CGA:  15    -0.358624263968E+03   -0.15903E-03   -0.16727E-03 10962   0.235E-03-0.597E-04
CGA:  16    -0.358624329756E+03   -0.65788E-04   -0.17940E-03 10962   0.762E-03-0.200E-03
CGA:  17    -0.358624453497E+03   -0.12374E-03   -0.13702E-03 10962   0.154E-03 0.772E-04
CGA:  18    -0.358624533757E+03   -0.80260E-04   -0.88048E-04 10962   0.168E-03-0.449E-04
CGA:  19    -0.358624602053E+03   -0.68296E-04   -0.72693E-04 10962   0.179E-03-0.178E-04
CGA:  20    -0.358624697640E+03   -0.95587E-04   -0.10254E-03 10962   0.302E-03-0.260E-04
CGA:  21    -0.358624910558E+03   -0.21292E-03    0.54735E-03 10962   0.305E-03 0.925E-04
CGA:  22    -0.358623219706E+03    0.16909E-02   -0.93173E-03 10962   0.728E-02-0.129E-02
CGA:  23    -0.358625357949E+03   -0.21382E-02   -0.22459E-02 10962   0.847E-03 0.280E-03
CGA:  24    -0.358625701743E+03   -0.34379E-03   -0.30668E-03 10962   0.470E-03-0.115E-03
CGA:  25    -0.358625734041E+03   -0.32298E-04   -0.80797E-04 10962   0.911E-04 0.106E-03
CGA:  26    -0.358625730129E+03    0.39119E-05   -0.16142E-04 10962   0.339E-04 0.411E-04
CGA:  27    -0.358625736526E+03   -0.63971E-05   -0.11496E-04 10962   0.239E-04 0.136E-04
CGA:  28    -0.358625756490E+03   -0.19964E-04   -0.20957E-04 10962   0.957E-04-0.270E-04
CGA:  29    -0.358625751268E+03    0.52220E-05   -0.13687E-04 10962   0.267E-04 0.422E-04
  12 F= -.35862575E+03 E0= -.35862575E+03  d E =-.100780E+01  mag=    12.0000
       N       E                     dE             d eps       ncg     rms          ort
SDA:   1    -0.358461551699E+03    0.16420E+00    0.00000E+00 10962   0.642E+00 0.000E+00
CGA:   2    -0.358667644825E+03   -0.20609E+00   -0.20616E+00 10962   0.237E+00-0.100E-03
CGA:   3    -0.358714086054E+03   -0.46441E-01   -0.46426E-01 10962   0.949E-01-0.954E-04
CGA:   4    -0.358727391380E+03   -0.13305E-01   -0.13305E-01 10962   0.211E-01-0.805E-05
CGA:   5    -0.358731841693E+03   -0.44503E-02   -0.44522E-02 10962   0.736E-02 0.324E-05
CGA:   6    -0.358733249422E+03   -0.14077E-02   -0.14023E-02 10962   0.275E-02-0.194E-04
CGA:   7    -0.358733971252E+03   -0.72183E-03   -0.71455E-03 10962   0.126E-02-0.347E-04
CGA:   8    -0.358734284846E+03   -0.31359E-03   -0.30780E-03 10962   0.502E-03-0.272E-04
CGA:   9    -0.358734427665E+03   -0.14282E-03   -0.13916E-03 10962   0.194E-03-0.220E-04
CGA:  10    -0.358734483029E+03   -0.55364E-04   -0.53503E-04 10962   0.768E-04-0.122E-04
CGA:  11    -0.358734510305E+03   -0.27276E-04   -0.26349E-04 10962   0.501E-04-0.138E-04
CGA:  12    -0.358734523175E+03   -0.12870E-04   -0.38818E-04 10962   0.209E-03-0.505E-04
CGA:  13    -0.358734568908E+03   -0.45733E-04   -0.47186E-04 10962   0.405E-04 0.626E-05
CGA:  14    -0.358734588331E+03   -0.19423E-04   -0.19525E-04 10962   0.311E-04-0.419E-05
CGA:  15    -0.358734602185E+03   -0.13853E-04   -0.13639E-04 10962   0.250E-04 0.498E-05
CGA:  16    -0.358734616572E+03   -0.14387E-04   -0.41058E-04 10962   0.233E-03-0.274E-04
CGA:  17    -0.358734647089E+03   -0.30518E-04   -0.41441E-04 10962   0.429E-04 0.343E-04
CGA:  18    -0.358734669675E+03   -0.22586E-04   -0.22120E-04 10962   0.371E-04-0.153E-04
CGA:  19    -0.358734680984E+03   -0.11309E-04   -0.11319E-04 10962   0.365E-04 0.310E-05
CGA:  20    -0.358734694399E+03   -0.13415E-04   -0.14547E-04 10962   0.247E-04 0.103E-04
CGA:  21    -0.358734711922E+03   -0.17523E-04   -0.32455E-04 10962   0.142E-03-0.268E-04
CGA:  22    -0.358734731243E+03   -0.19321E-04   -0.28982E-04 10962   0.339E-04 0.326E-04
CGA:  23    -0.358734750284E+03   -0.19040E-04   -0.18525E-04 10962   0.225E-04-0.127E-04
CGA:  24    -0.358734756786E+03   -0.65026E-05   -0.65833E-05 10962   0.245E-04 0.524E-05
CGA:  25    -0.358734771253E+03   -0.14467E-04   -0.14496E-04 10962   0.151E-04 0.116E-04
CGA:  26    -0.358734781871E+03   -0.10618E-04   -0.33004E-04 10962   0.186E-03-0.225E-04
CGA:  27    -0.358734801536E+03   -0.19665E-04   -0.32599E-04 10962   0.333E-04 0.360E-04
CGA:  28    -0.358734817344E+03   -0.15808E-04   -0.15588E-04 10962   0.165E-04-0.182E-05
CGA:  29    -0.358734808611E+03    0.87324E-05   -0.18737E-04 10962   0.212E-03-0.398E-04
CGA:  30    -0.358734826362E+03   -0.17751E-04   -0.34213E-04 10962   0.277E-04 0.429E-04
CGA:  31    -0.358734834451E+03   -0.80887E-05   -0.95175E-05 10962   0.144E-04 0.597E-05
CGA:  32    -0.358734741784E+03    0.92667E-04   -0.34836E-04 10962   0.564E-03-0.866E-04
CGA:  33    -0.358734813504E+03   -0.71720E-04   -0.10606E-03 10962   0.999E-04 0.859E-04
CGA:  34    -0.358734858282E+03   -0.44778E-04   -0.45515E-04 10962   0.179E-04 0.426E-05
CGA:  35    -0.358734882011E+03   -0.23730E-04    0.37003E-04 10962   0.816E-04-0.302E-04
CGA:  36    -0.358734878242E+03    0.37695E-05   -0.92670E-05 10962   0.133E-04 0.293E-04
  13 F= -.35873488E+03 E0= -.35873488E+03  d E =-.109127E+00  mag=    12.0000
       N       E                     dE             d eps       ncg     rms          ort
SDA:   1    -0.358179181426E+03    0.55570E+00    0.00000E+00 10962   0.145E+01 0.000E+00
CGA:   2    -0.358632125041E+03   -0.45294E+00   -0.45350E+00 10962   0.592E+00-0.123E-03
CGA:   3    -0.358737970954E+03   -0.10585E+00   -0.10594E+00 10962   0.240E+00 0.776E-04
CGA:   4    -0.358773558586E+03   -0.35588E-01   -0.35611E-01 10962   0.514E-01 0.148E-03
CGA:   5    -0.358783772521E+03   -0.10214E-01   -0.10223E-01 10962   0.183E-01 0.169E-04
CGA:   6    -0.358787306070E+03   -0.35335E-02   -0.35373E-02 10962   0.636E-02 0.762E-05
CGA:   7    -0.358788908453E+03   -0.16024E-02   -0.16065E-02 10962   0.300E-02 0.212E-04
CGA:   8    -0.358789644221E+03   -0.73577E-03   -0.73743E-03 10962   0.115E-02 0.887E-05
CGA:   9    -0.358789977115E+03   -0.33289E-03   -0.33045E-03 10962   0.472E-03-0.180E-04
CGA:  10    -0.358790114989E+03   -0.13787E-03   -0.13516E-03 10962   0.201E-03-0.217E-04
CGA:  11    -0.358790187344E+03   -0.72355E-04   -0.71350E-04 10962   0.137E-03-0.263E-04
CGA:  12    -0.358790251649E+03   -0.64305E-04   -0.90142E-04 10962   0.355E-03-0.750E-04
CGA:  13    -0.358790339081E+03   -0.87432E-04   -0.87948E-04 10962   0.974E-04 0.276E-05
CGA:  14    -0.358790389031E+03   -0.49950E-04   -0.50032E-04 10962   0.889E-04-0.103E-05
CGA:  15    -0.358790445294E+03   -0.56263E-04   -0.53354E-04 10962   0.963E-04 0.155E-04
CGA:  16    -0.358790543760E+03   -0.98466E-04   -0.13742E-03 10962   0.573E-03-0.518E-04
CGA:  17    -0.358790635683E+03   -0.91923E-04   -0.10487E-03 10962   0.118E-03 0.447E-04
CGA:  18    -0.358790696446E+03   -0.60762E-04   -0.61577E-04 10962   0.112E-03-0.294E-04
CGA:  19    -0.358790742009E+03   -0.45563E-04   -0.45451E-04 10962   0.938E-04 0.892E-06
CGA:  20    -0.358790790680E+03   -0.48671E-04   -0.48331E-04 10962   0.782E-04 0.592E-05
CGA:  21    -0.358790815876E+03   -0.25196E-04   -0.13695E-03 10962   0.881E-03-0.991E-04
CGA:  22    -0.358790962399E+03   -0.14652E-03   -0.17657E-03 10962   0.190E-03 0.925E-04
CGA:  23    -0.358791044273E+03   -0.81874E-04   -0.77453E-04 10962   0.639E-04-0.321E-04
CGA:  24    -0.358791069374E+03   -0.25101E-04   -0.25455E-04 10962   0.435E-04 0.167E-04
CGA:  25    -0.358791114164E+03   -0.44790E-04   -0.43070E-04 10962   0.649E-04 0.519E-05
CGA:  26    -0.358791203442E+03   -0.89278E-04   -0.98991E-04 10962   0.301E-03-0.168E-04
CGA:  27    -0.358791341429E+03   -0.13799E-03   -0.13847E-03 10962   0.769E-03-0.540E-04
CGA:  28    -0.358791106034E+03    0.23539E-03   -0.78394E-03 10962   0.459E-02-0.172E-02
CGA:  29    -0.358792505420E+03   -0.13994E-02   -0.14857E-02 10962   0.293E-02 0.248E-03
CGA:  30    -0.358793444509E+03   -0.93909E-03   -0.10523E-02 10962   0.924E-03 0.459E-03
CGA:  31    -0.358793863615E+03   -0.41911E-03   -0.44004E-03 10962   0.478E-03 0.186E-03
CGA:  32    -0.358793932115E+03   -0.68500E-04   -0.13949E-03 10962   0.386E-03 0.155E-03
CGA:  33    -0.358793421786E+03    0.51033E-03   -0.52562E-04 10962   0.203E-02 0.490E-03
CGA:  34    -0.358792805934E+03    0.61585E-03   -0.39541E-03 10962   0.408E-02 0.890E-03
CGA:  35    -0.358784576387E+03    0.82295E-02   -0.54431E-03 10962   0.287E-01 0.101E-01
CGA:  36    -0.358786514207E+03   -0.19378E-02   -0.71746E-02 10962   0.237E-01 0.898E-02
CGA:  37    -0.358779562182E+03    0.69520E-02   -0.51234E-02 10962   0.308E-01 0.157E-01
CGA:  38    -0.358784142389E+03   -0.45802E-02   -0.79516E-02 10962   0.214E-01 0.109E-01
CGA:  39    -0.358782998170E+03    0.11442E-02   -0.55531E-02 10962   0.209E-01 0.148E-01
CGA:  40    -0.358787880657E+03   -0.48825E-02   -0.61771E-02 10962   0.109E-01 0.699E-02
CGA:  41    -0.358789703166E+03   -0.18225E-02   -0.34478E-02 10962   0.807E-02 0.702E-02
CGA:  42    -0.358791557946E+03   -0.18548E-02   -0.23837E-02 10962   0.460E-02 0.267E-02
CGA:  43    -0.358792818152E+03   -0.12602E-02   -0.16927E-02 10962   0.217E-02 0.210E-02
CGA:  44    -0.358793305605E+03   -0.48745E-03   -0.75745E-03 10962   0.201E-02 0.140E-02
CGA:  45    -0.358793822473E+03   -0.51687E-03   -0.62316E-03 10962   0.435E-03 0.518E-03
CGA:  46    -0.358794067165E+03   -0.24469E-03   -0.23505E-03 10962   0.234E-03 0.149E-03
CGA:  47    -0.358794164563E+03   -0.97398E-04   -0.10477E-03 10962   0.148E-03 0.604E-04
CGA:  48    -0.358794230984E+03   -0.66420E-04   -0.67866E-04 10962   0.107E-03 0.150E-04
CGA:  49    -0.358794252966E+03   -0.21982E-04   -0.29036E-04 10962   0.331E-04 0.197E-04
CGA:  50    -0.358794284577E+03   -0.31611E-04   -0.41194E-04 10962   0.470E-04-0.230E-04
CGA:  51    -0.358794324210E+03   -0.39633E-04    0.74394E-03 10962   0.444E-04 0.245E-04
CGA:  52    -0.358794325653E+03   -0.14432E-05   -0.65301E-05 10962   0.237E-04 0.189E-04
CGA:  53    -0.358794344355E+03   -0.18702E-04   -0.17141E-04 10962   0.526E-04 0.150E-04
CGA:  54    -0.358794365287E+03   -0.20933E-04   -0.22282E-04 10962   0.251E-03-0.875E-04
CGA:  55    -0.358794375728E+03   -0.10441E-04   -0.25939E-04 10962   0.175E-04 0.504E-04
CGA:  56    -0.358794374466E+03    0.12627E-05   -0.19941E-05 10962   0.108E-04 0.109E-04
  14 F= -.35879437E+03 E0= -.35879437E+03  d E =-.594962E-01  mag=    12.0000
       N       E                     dE             d eps       ncg     rms          ort
SDA:   1    -0.358778732727E+03    0.15643E-01    0.00000E+00 10962   0.491E-01 0.000E+00
CGA:   2    -0.358790947975E+03   -0.12215E-01   -0.12231E-01 10962   0.290E-01 0.106E-03
CGA:   3    -0.358795311339E+03   -0.43634E-02   -0.43908E-02 10962   0.879E-02 0.116E-03
CGA:   4    -0.358796761778E+03   -0.14504E-02   -0.14633E-02 10962   0.212E-02 0.636E-04
CGA:   5    -0.358797120574E+03   -0.35880E-03   -0.36068E-03 10962   0.573E-03 0.996E-05
CGA:   6    -0.358797230641E+03   -0.11007E-03   -0.11274E-03 10962   0.202E-03 0.182E-04
CGA:   7    -0.358797265512E+03   -0.34872E-04   -0.40716E-04 10962   0.751E-04 0.417E-04
CGA:   8    -0.358797276726E+03   -0.11214E-04   -0.16626E-04 10962   0.369E-04 0.374E-04
CGA:   9    -0.358797283843E+03   -0.71166E-05   -0.10501E-04 10962   0.241E-04 0.259E-04
CGA:  10    -0.358797295940E+03   -0.12097E-04   -0.14750E-04 10962   0.676E-04-0.891E-05
CGA:  11    -0.358797311267E+03   -0.15327E-04   -0.15176E-04 10962   0.862E-04 0.568E-05
CGA:  12    -0.358797335478E+03   -0.24211E-04   -0.25353E-04 10962   0.667E-04 0.195E-04
CGA:  13    -0.358797367435E+03   -0.31957E-04   -0.31380E-04 10962   0.744E-04 0.104E-04
CGA:  14    -0.358797417876E+03   -0.50441E-04   -0.90408E-04 10962   0.465E-03-0.557E-04
CGA:  15    -0.358797534882E+03   -0.11701E-03   -0.11592E-03 10962   0.704E-04-0.943E-05
CGA:  16    -0.358797568771E+03   -0.33888E-04   -0.38779E-04 10962   0.541E-04-0.244E-04
CGA:  17    -0.358797585851E+03   -0.17080E-04   -0.41462E-04 10962   0.162E-03-0.309E-04
CGA:  18    -0.358797632598E+03   -0.46747E-04   -0.46740E-04 10962   0.380E-04-0.111E-06
CGA:  19    -0.358797653082E+03   -0.20484E-04   -0.31886E-04 10962   0.936E-04-0.264E-04
CGA:  20    -0.358797666553E+03   -0.13471E-04   -0.16977E-04 10962   0.224E-04 0.143E-04
CGA:  21    -0.358797682151E+03   -0.15598E-04   -0.22204E-04 10962   0.550E-04-0.150E-04
CGA:  22    -0.358797705905E+03   -0.23753E-04   -0.23697E-04 10962   0.275E-04-0.994E-05
CGA:  23    -0.358797714565E+03   -0.86600E-05   -0.89477E-05 10962   0.191E-04 0.739E-05
CGA:  24    -0.358797737293E+03   -0.22728E-04    0.67795E-04 10962   0.178E-04 0.133E-04
CGA:  25    -0.358797747752E+03   -0.10459E-04   -0.10720E-04 10962   0.251E-04-0.164E-05
CGA:  26    -0.358797772266E+03   -0.24514E-04    0.23416E-04 10962   0.225E-04 0.170E-04
CGA:  27    -0.358797784044E+03   -0.11778E-04   -0.11979E-04 10962   0.197E-04-0.232E-05
CGA:  28    -0.358797801420E+03   -0.17375E-04    0.40092E-04 10962   0.165E-04 0.135E-04
CGA:  29    -0.358797813160E+03   -0.11740E-04   -0.14971E-04 10962   0.370E-04-0.711E-05
CGA:  30    -0.358797837817E+03   -0.24657E-04    0.19979E-04 10962   0.513E-04 0.132E-04
CGA:  31    -0.358797556485E+03    0.28133E-03   -0.15764E-03 10962   0.193E-02-0.196E-03
CGA:  32    -0.358798119656E+03   -0.56317E-03   -0.58707E-03 10962   0.992E-04 0.172E-04
CGA:  33    -0.358798142709E+03   -0.23053E-04   -0.26988E-04 10962   0.266E-04 0.225E-05
CGA:  34    -0.358798139176E+03    0.35330E-05   -0.73077E-05 10962   0.288E-04 0.125E-04
  15 F= -.35879814E+03 E0= -.35879814E+03  d E =-.376471E-02  mag=    12.0000
       N       E                     dE             d eps       ncg     rms          ort
SDA:   1    -0.358765294038E+03    0.32849E-01    0.00000E+00 10962   0.101E+00 0.000E+00
CGA:   2    -0.358789053110E+03   -0.23759E-01   -0.23826E-01 10962   0.625E-01 0.368E-03
CGA:   3    -0.358798656930E+03   -0.96038E-02   -0.96921E-02 10962   0.188E-01-0.393E-04
CGA:   4    -0.358801684319E+03   -0.30274E-02   -0.30298E-02 10962   0.438E-02-0.267E-04
CGA:   5    -0.358802412883E+03   -0.72856E-03   -0.73353E-03 10962   0.117E-02 0.240E-04
CGA:   6    -0.358802626593E+03   -0.21371E-03   -0.21728E-03 10962   0.422E-03 0.941E-04
CGA:   7    -0.358802694535E+03   -0.67943E-04   -0.91398E-04 10962   0.203E-03 0.998E-05
CGA:   8    -0.358802711696E+03   -0.17161E-04   -0.31085E-04 10962   0.131E-03 0.435E-04
CGA:   9    -0.358802721554E+03   -0.98582E-05   -0.19437E-04 10962   0.501E-04 0.305E-04
CGA:  10    -0.358802727528E+03   -0.59742E-05   -0.10661E-04 10962   0.335E-04 0.237E-04
CGA:  11    -0.358802733572E+03   -0.60436E-05   -0.10231E-04 10962   0.428E-04-0.201E-05
  16 F= -.35880273E+03 E0= -.35880273E+03  d E =-.459440E-02  mag=    12.0000
       N       E                     dE             d eps       ncg     rms          ort
SDA:   1    -0.358784016003E+03    0.18712E-01    0.00000E+00 10962   0.622E-01 0.000E+00
CGA:   2    -0.358796187253E+03   -0.12171E-01   -0.12210E-01 10962   0.367E-01 0.252E-03
CGA:   3    -0.358802302703E+03   -0.61155E-02   -0.61618E-02 10962   0.126E-01 0.103E-03
CGA:   4    -0.358804161669E+03   -0.18590E-02   -0.18426E-02 10962   0.291E-02 0.104E-02
CGA:   5    -0.358804602045E+03   -0.44038E-03   -0.47883E-03 10962   0.123E-02-0.230E-04
CGA:   6    -0.358804736832E+03   -0.13479E-03   -0.14074E-03 10962   0.615E-03 0.296E-03
CGA:   7    -0.358804780174E+03   -0.43341E-04   -0.72306E-04 10962   0.346E-03-0.677E-04
CGA:   8    -0.358804787317E+03   -0.71435E-05   -0.14513E-04 10962   0.197E-03 0.477E-04
CGA:   9    -0.358804823313E+03   -0.35996E-04   -0.28188E-04 10962   0.808E-04 0.295E-04
CGA:  10    -0.358804829912E+03   -0.65983E-05   -0.97166E-05 10962   0.118E-03 0.359E-04
CGA:  11    -0.358804833978E+03   -0.40668E-05   -0.13113E-04 10962   0.790E-04-0.661E-04
CGA:  12    -0.358804843719E+03   -0.97409E-05   -0.10094E-04 10962   0.179E-04 0.158E-04
  17 F= -.35880484E+03 E0= -.35880484E+03  d E =-.211015E-02  mag=    12.0000
       N       E                     dE             d eps       ncg     rms          ort
SDA:   1    -0.358519503270E+03    0.28533E+00    0.00000E+00 10962   0.915E+00 0.000E+00
CGA:   2    -0.358686028262E+03   -0.16652E+00   -0.16670E+00 10962   0.504E+00 0.729E-03
CGA:   3    -0.358773198444E+03   -0.87170E-01   -0.87257E-01 10962   0.175E+00 0.645E-03
CGA:   4    -0.358800881583E+03   -0.27683E-01   -0.27696E-01 10962   0.398E-01 0.102E-02
CGA:   5    -0.358807230468E+03   -0.63489E-02   -0.63894E-02 10962   0.912E-02 0.748E-04
CGA:   6    -0.358808890039E+03   -0.16596E-02   -0.16643E-02 10962   0.264E-02 0.450E-04
CGA:   7    -0.358809445986E+03   -0.55595E-03   -0.55961E-03 10962   0.872E-03 0.464E-04
CGA:   8    -0.358809666078E+03   -0.22009E-03   -0.22124E-03 10962   0.394E-03 0.319E-04
CGA:   9    -0.358809790778E+03   -0.12470E-03   -0.12448E-03 10962   0.213E-03 0.115E-04
CGA:  10    -0.358809863878E+03   -0.73100E-04   -0.72870E-04 10962   0.125E-03 0.588E-05
CGA:  11    -0.358809903194E+03   -0.39316E-04   -0.39056E-04 10962   0.623E-04 0.172E-04
CGA:  12    -0.358809926763E+03   -0.23569E-04   -0.23322E-04 10962   0.375E-04 0.712E-05
CGA:  13    -0.358809942203E+03   -0.15440E-04   -0.15589E-04 10962   0.277E-04-0.109E-05
CGA:  14    -0.358809950911E+03   -0.87074E-05   -0.87617E-05 10962   0.209E-04-0.114E-05
  18 F= -.35880995E+03 E0= -.35880995E+03  d E =-.510719E-02  mag=    12.0000
       N       E                     dE             d eps       ncg     rms          ort
SDA:   1    -0.358607936550E+03    0.20201E+00    0.00000E+00 10962   0.633E+00 0.000E+00
CGA:   2    -0.358724168306E+03   -0.11623E+00   -0.11630E+00 10962   0.355E+00 0.268E-03
CGA:   3    -0.358785437820E+03   -0.61270E-01   -0.61295E-01 10962   0.121E+00 0.829E-04
CGA:   4    -0.358804669461E+03   -0.19232E-01   -0.19222E-01 10962   0.270E-01-0.112E-03
CGA:   5    -0.358809034995E+03   -0.43655E-02   -0.43673E-02 10962   0.630E-02 0.958E-05
CGA:   6    -0.358810176166E+03   -0.11412E-02   -0.11475E-02 10962   0.184E-02 0.683E-04
CGA:   7    -0.358810565318E+03   -0.38915E-03   -0.39057E-03 10962   0.577E-03 0.241E-04
CGA:   8    -0.358810714121E+03   -0.14880E-03   -0.14857E-03 10962   0.250E-03-0.212E-04
CGA:   9    -0.358810787092E+03   -0.72971E-04   -0.74169E-04 10962   0.130E-03-0.277E-04
CGA:  10    -0.358810820657E+03   -0.33565E-04   -0.33607E-04 10962   0.565E-04-0.172E-05
CGA:  11    -0.358810833078E+03   -0.12420E-04   -0.12967E-04 10962   0.227E-04 0.155E-04
CGA:  12    -0.358810839269E+03   -0.61914E-05   -0.66065E-05 10962   0.134E-04 0.111E-04
  19 F= -.35881084E+03 E0= -.35881084E+03  d E =-.888359E-03  mag=    12.0000
       N       E                     dE             d eps       ncg     rms          ort
SDA:   1    -0.358715203241E+03    0.95630E-01    0.00000E+00 10962   0.285E+00 0.000E+00
CGA:   2    -0.358774349933E+03   -0.59147E-01   -0.59172E-01 10962   0.172E+00 0.324E-03
CGA:   3    -0.358802343949E+03   -0.27994E-01   -0.27995E-01 10962   0.532E-01-0.511E-04
CGA:   4    -0.358810830188E+03   -0.84862E-02   -0.84631E-02 10962   0.121E-01-0.247E-03
CGA:   5    -0.358812833704E+03   -0.20035E-02   -0.19970E-02 10962   0.307E-02-0.770E-04
CGA:   6    -0.358813401275E+03   -0.56757E-03   -0.56851E-03 10962   0.917E-03 0.145E-04
CGA:   7    -0.358813605558E+03   -0.20428E-03   -0.20377E-03 10962   0.328E-03-0.210E-04
CGA:   8    -0.358813700497E+03   -0.94939E-04   -0.10041E-03 10962   0.217E-03-0.797E-04
CGA:   9    -0.358813751036E+03   -0.50539E-04   -0.61844E-04 10962   0.179E-03-0.879E-04
CGA:  10    -0.358813781853E+03   -0.30817E-04   -0.33025E-04 10962   0.973E-04-0.391E-04
CGA:  11    -0.358813802949E+03   -0.21097E-04   -0.20975E-04 10962   0.524E-04 0.651E-05
CGA:  12    -0.358813817686E+03   -0.14737E-04   -0.14669E-04 10962   0.339E-04 0.155E-04
CGA:  13    -0.358813833774E+03   -0.16088E-04   -0.15016E-04 10962   0.276E-04 0.128E-04
CGA:  14    -0.358813853257E+03   -0.19483E-04   -0.19008E-04 10962   0.349E-04 0.213E-05
CGA:  15    -0.358813872375E+03   -0.19119E-04   -0.22317E-04 10962   0.581E-04-0.942E-05
CGA:  16    -0.358813890130E+03   -0.17754E-04   -0.22200E-04 10962   0.107E-03-0.172E-04
CGA:  17    -0.358813919118E+03   -0.28988E-04   -0.31137E-04 10962   0.167E-03-0.171E-04
CGA:  18    -0.358813974200E+03   -0.55082E-04   -0.61685E-04 10962   0.232E-03-0.527E-04
CGA:  19    -0.358814008683E+03   -0.34483E-04   -0.32102E-04 10962   0.189E-03-0.313E-04
CGA:  20    -0.358814036745E+03   -0.28062E-04   -0.28946E-04 10962   0.111E-03 0.166E-05
CGA:  21    -0.358814048132E+03   -0.11387E-04   -0.16166E-04 10962   0.673E-04 0.294E-04
CGA:  22    -0.358814052563E+03   -0.44310E-05   -0.10506E-04 10962   0.419E-04 0.352E-04
CGA:  23    -0.358814062697E+03   -0.10134E-04   -0.10833E-04 10962   0.227E-04 0.261E-04
CGA:  24    -0.358814068481E+03   -0.57836E-05   -0.60753E-05 10962   0.161E-04 0.182E-04
  20 F= -.35881407E+03 E0= -.35881407E+03  d E =-.322921E-02  mag=    12.0000
       N       E                     dE             d eps       ncg     rms          ort
SDA:   1    -0.358715423480E+03    0.98639E-01    0.00000E+00 10962   0.265E+00 0.000E+00
CGA:   2    -0.358779582642E+03   -0.64159E-01   -0.64171E-01 10962   0.171E+00 0.240E-03
CGA:   3    -0.358805533913E+03   -0.25951E-01   -0.25947E-01 10962   0.458E-01-0.723E-04
CGA:   4    -0.358812754085E+03   -0.72202E-02   -0.72055E-02 10962   0.103E-01-0.136E-03
CGA:   5    -0.358814455722E+03   -0.17016E-02   -0.16998E-02 10962   0.257E-02-0.201E-04
CGA:   6    -0.358814935121E+03   -0.47940E-03   -0.48163E-03 10962   0.781E-03 0.296E-04
CGA:   7    -0.358815099308E+03   -0.16419E-03   -0.16546E-03 10962   0.251E-03 0.257E-04
CGA:   8    -0.358815163749E+03   -0.64441E-04   -0.64512E-04 10962   0.106E-03 0.899E-05
CGA:   9    -0.358815195127E+03   -0.31377E-04   -0.31341E-04 10962   0.467E-04 0.118E-05
CGA:  10    -0.358815208106E+03   -0.12980E-04   -0.12934E-04 10962   0.175E-04 0.283E-05
CGA:  11    -0.358815212600E+03   -0.44937E-05   -0.45466E-05 10962   0.620E-05 0.384E-05
  21 F= -.35881521E+03 E0= -.35881521E+03  d E =-.114412E-02  mag=    12.0000
       N       E                     dE             d eps       ncg     rms          ort
SDA:   1    -0.358638917034E+03    0.17629E+00    0.00000E+00 10962   0.464E+00 0.000E+00
CGA:   2    -0.358756344110E+03   -0.11743E+00   -0.11743E+00 10962   0.299E+00 0.106E-03
CGA:   3    -0.358800745237E+03   -0.44401E-01   -0.44396E-01 10962   0.761E-01-0.111E-03
CGA:   4    -0.358812663886E+03   -0.11919E-01   -0.11917E-01 10962   0.168E-01-0.380E-04
CGA:   5    -0.358815438548E+03   -0.27747E-02   -0.27795E-02 10962   0.419E-02 0.575E-04
CGA:   6    -0.358816230934E+03   -0.79239E-03   -0.79424E-03 10962   0.126E-02 0.353E-04
CGA:   7    -0.358816501216E+03   -0.27028E-03   -0.27034E-03 10962   0.413E-03 0.211E-05
CGA:   8    -0.358816608198E+03   -0.10698E-03   -0.10715E-03 10962   0.184E-03-0.753E-05
CGA:   9    -0.358816659091E+03   -0.50893E-04   -0.50919E-04 10962   0.780E-04-0.612E-06
CGA:  10    -0.358816679698E+03   -0.20608E-04   -0.20434E-04 10962   0.269E-04 0.766E-05
CGA:  11    -0.358816687688E+03   -0.79899E-05   -0.78828E-05 10962   0.998E-05 0.423E-05
  22 F= -.35881669E+03 E0= -.35881669E+03  d E =-.147509E-02  mag=    12.0000
       N       E                     dE             d eps       ncg     rms          ort
SDA:   1    -0.357642656682E+03    0.11740E+01    0.00000E+00 10962   0.286E+01 0.000E+00
CGA:   2    -0.358503438208E+03   -0.86078E+00   -0.86083E+00 10962   0.161E+01-0.144E-02
CGA:   3    -0.358726966090E+03   -0.22353E+00   -0.22348E+00 10962   0.399E+00-0.634E-03
CGA:   4    -0.358790270543E+03   -0.63304E-01   -0.63294E-01 10962   0.888E-01-0.187E-03
CGA:   5    -0.358805245254E+03   -0.14975E-01   -0.14985E-01 10962   0.236E-01 0.124E-03
CGA:   6    -0.358809790801E+03   -0.45455E-02   -0.45416E-02 10962   0.702E-02-0.935E-04
CGA:   7    -0.358811336768E+03   -0.15460E-02   -0.15421E-02 10962   0.253E-02-0.315E-03
CGA:   8    -0.358812014857E+03   -0.67809E-03   -0.69721E-03 10962   0.134E-02-0.338E-03
CGA:   9    -0.358812352733E+03   -0.33788E-03   -0.35145E-03 10962   0.634E-03-0.199E-03
CGA:  10    -0.358812507516E+03   -0.15478E-03   -0.15863E-03 10962   0.230E-03-0.695E-04
CGA:  11    -0.358812568693E+03   -0.61177E-04   -0.62791E-04 10962   0.875E-04-0.248E-04
CGA:  12    -0.358812596201E+03   -0.27508E-04   -0.28254E-04 10962   0.495E-04-0.642E-05
CGA:  13    -0.358812617345E+03   -0.21143E-04   -0.22593E-04 10962   0.450E-04-0.605E-05
CGA:  14    -0.358812633883E+03   -0.16538E-04   -0.32355E-04 10962   0.915E-04-0.284E-04
CGA:  15    -0.358812663618E+03   -0.29736E-04   -0.30588E-04 10962   0.313E-04-0.195E-04
CGA:  16    -0.358812558848E+03    0.10477E-03   -0.56735E-04 10962   0.626E-03-0.940E-04
CGA:  17    -0.358812700916E+03   -0.14207E-03   -0.13916E-03 10962   0.545E-04-0.943E-05
CGA:  18    -0.358812713326E+03   -0.12409E-04   -0.15205E-04 10962   0.159E-04 0.119E-04
CGA:  19    -0.358812721320E+03   -0.79941E-05   -0.76305E-05 10962   0.113E-04-0.324E-05
  23 F= -.35881272E+03 E0= -.35881272E+03  d E =0.396637E-02  mag=    12.0000
       N       E                     dE             d eps       ncg     rms          ort
SDA:   1    -0.358494548897E+03    0.31816E+00    0.00000E+00 10962   0.898E+00 0.000E+00
CGA:   2    -0.358687582369E+03   -0.19303E+00   -0.19308E+00 10962   0.575E+00-0.293E-03
CGA:   3    -0.358782445222E+03   -0.94863E-01   -0.94936E-01 10962   0.175E+00 0.235E-03
CGA:   4    -0.358809401662E+03   -0.26956E-01   -0.26999E-01 10962   0.371E-01 0.139E-03
CGA:   5    -0.358815561221E+03   -0.61596E-02   -0.61759E-02 10962   0.987E-02 0.506E-04
CGA:   6    -0.358817482445E+03   -0.19212E-02   -0.19218E-02 10962   0.311E-02 0.785E-06
CGA:   7    -0.358818156185E+03   -0.67374E-03   -0.66989E-03 10962   0.109E-02-0.197E-04
CGA:   8    -0.358818427178E+03   -0.27099E-03   -0.27062E-03 10962   0.433E-03-0.245E-05
CGA:   9    -0.358818543404E+03   -0.11623E-03   -0.11658E-03 10962   0.168E-03 0.272E-05
CGA:  10    -0.358818590488E+03   -0.47084E-04   -0.47167E-04 10962   0.593E-04 0.739E-06
CGA:  11    -0.358818605425E+03   -0.14938E-04   -0.15567E-04 10962   0.182E-04 0.505E-05
CGA:  12    -0.358818611878E+03   -0.64532E-05   -0.64055E-05 10962   0.909E-05-0.866E-06
  24 F= -.35881861E+03 E0= -.35881861E+03  d E =-.589056E-02  mag=    12.0000
       N       E                     dE             d eps       ncg     rms          ort
SDA:   1    -0.358692763731E+03    0.12584E+00    0.00000E+00 10962   0.313E+00 0.000E+00
CGA:   2    -0.358785262129E+03   -0.92498E-01   -0.92537E-01 10962   0.180E+00 0.412E-03
CGA:   3    -0.358810639124E+03   -0.25377E-01   -0.25411E-01 10962   0.470E-01 0.104E-03
CGA:   4    -0.358818083654E+03   -0.74445E-02   -0.74414E-02 10962   0.104E-01-0.240E-04
CGA:   5    -0.358819858860E+03   -0.17752E-02   -0.17677E-02 10962   0.289E-02-0.443E-04
CGA:   6    -0.358820412860E+03   -0.55400E-03   -0.55621E-03 10962   0.889E-03 0.148E-04
CGA:   7    -0.358820579950E+03   -0.16709E-03   -0.17686E-03 10962   0.281E-03 0.727E-04
CGA:   8    -0.358820636068E+03   -0.56118E-04   -0.63936E-04 10962   0.104E-03 0.677E-04
CGA:   9    -0.358820661616E+03   -0.25548E-04   -0.28979E-04 10962   0.452E-04 0.360E-04
CGA:  10    -0.358820675777E+03   -0.14161E-04   -0.15088E-04 10962   0.198E-04 0.138E-04
CGA:  11    -0.358820682225E+03   -0.64480E-05   -0.67265E-05 10962   0.777E-05 0.545E-05
  25 F= -.35882068E+03 E0= -.35882068E+03  d E =-.207035E-02  mag=    12.0000
       N       E                     dE             d eps       ncg     rms          ort
SDA:   1    -0.358790824302E+03    0.29851E-01    0.00000E+00 10962   0.797E-01 0.000E+00
CGA:   2    -0.358810476382E+03   -0.19652E-01   -0.19673E-01 10962   0.499E-01 0.320E-03
CGA:   3    -0.358817951545E+03   -0.74752E-02   -0.74911E-02 10962   0.134E-01 0.901E-04
CGA:   4    -0.358820109304E+03   -0.21578E-02   -0.21529E-02 10962   0.316E-02-0.389E-04
CGA:   5    -0.358820649267E+03   -0.53996E-03   -0.53509E-03 10962   0.813E-03-0.412E-04
CGA:   6    -0.358820803417E+03   -0.15415E-03   -0.15349E-03 10962   0.257E-03-0.728E-05
CGA:   7    -0.358820848338E+03   -0.44921E-04   -0.47989E-04 10962   0.756E-04 0.336E-04
CGA:   8    -0.358820858904E+03   -0.10566E-04   -0.14103E-04 10962   0.279E-04 0.322E-04
CGA:   9    -0.358820862589E+03   -0.36847E-05   -0.59401E-05 10962   0.136E-04 0.188E-04
  26 F= -.35882086E+03 E0= -.35882086E+03  d E =-.180364E-03  mag=    12.0000
       N       E                     dE             d eps       ncg     rms          ort
SDA:   1    -0.358775301839E+03    0.45557E-01    0.00000E+00 10962   0.108E+00 0.000E+00
CGA:   2    -0.358811963971E+03   -0.36662E-01   -0.36669E-01 10962   0.490E-01-0.103E-03
CGA:   3    -0.358818739747E+03   -0.67758E-02   -0.67730E-02 10962   0.129E-01-0.331E-04
CGA:   4    -0.358820738132E+03   -0.19984E-02   -0.19984E-02 10962   0.282E-02-0.115E-05
CGA:   5    -0.358821215843E+03   -0.47771E-03   -0.47813E-03 10962   0.816E-03 0.435E-05
CGA:   6    -0.358821372163E+03   -0.15632E-03   -0.15544E-03 10962   0.233E-03-0.139E-04
CGA:   7    -0.358821426486E+03   -0.54323E-04   -0.53924E-04 10962   0.973E-04-0.258E-04
CGA:   8    -0.358821452083E+03   -0.25597E-04   -0.27205E-04 10962   0.617E-04-0.250E-04
CGA:   9    -0.358821465546E+03   -0.13463E-04   -0.14258E-04 10962   0.309E-04-0.137E-04
CGA:  10    -0.358821471983E+03   -0.64361E-05   -0.64653E-05 10962   0.101E-04-0.227E-05
  27 F= -.35882147E+03 E0= -.35882147E+03  d E =-.609393E-03  mag=    12.0000
       N       E                     dE             d eps       ncg     rms          ort
SDA:   1    -0.357306782772E+03    0.15147E+01    0.00000E+00 10962   0.348E+01 0.000E+00
CGA:   2    -0.358537142265E+03   -0.12304E+01   -0.12306E+01 10962   0.123E+01-0.232E-02
CGA:   3    -0.358730064700E+03   -0.19292E+00   -0.19297E+00 10962   0.390E+00 0.601E-04
CGA:   4    -0.358787136684E+03   -0.57072E-01   -0.57074E-01 10962   0.789E-01-0.242E-04
CGA:   5    -0.358801865152E+03   -0.14728E-01   -0.14720E-01 10962   0.241E-01-0.135E-03
CGA:   6    -0.358806371003E+03   -0.45059E-02   -0.44940E-02 10962   0.702E-02-0.192E-03
CGA:   7    -0.358808012489E+03   -0.16415E-02   -0.16382E-02 10962   0.288E-02-0.301E-03
CGA:   8    -0.358808758952E+03   -0.74646E-03   -0.75397E-03 10962   0.139E-02-0.265E-03
CGA:   9    -0.358809132801E+03   -0.37385E-03   -0.38130E-03 10962   0.607E-03-0.135E-03
CGA:  10    -0.358809285423E+03   -0.15262E-03   -0.15431E-03 10962   0.201E-03-0.525E-04
CGA:  11    -0.358809339077E+03   -0.53654E-04   -0.54343E-04 10962   0.691E-04-0.153E-04
CGA:  12    -0.358809359386E+03   -0.20309E-04   -0.20049E-04 10962   0.323E-04 0.431E-05
CGA:  13    -0.358809372576E+03   -0.13191E-04   -0.12367E-04 10962   0.218E-04 0.799E-05
CGA:  14    -0.358809383459E+03   -0.10883E-04   -0.98496E-05 10962   0.156E-04 0.103E-04
CGA:  15    -0.358809397343E+03   -0.13884E-04   -0.12909E-04 10962   0.192E-04 0.345E-05
CGA:  16    -0.358809377019E+03    0.20323E-04   -0.15151E-04 10962   0.207E-03-0.415E-04
CGA:  17    -0.358809440896E+03   -0.63877E-04   -0.63503E-04 10962   0.484E-04-0.184E-05
CGA:  18    -0.358809466968E+03   -0.26072E-04   -0.40265E-04 10962   0.127E-03-0.422E-04
CGA:  19    -0.358809481563E+03   -0.14594E-04   -0.22048E-04 10962   0.186E-04 0.215E-04
CGA:  20    -0.358809492210E+03   -0.10647E-04   -0.10422E-04 10962   0.200E-04-0.982E-05
CGA:  21    -0.358809495711E+03   -0.35016E-05   -0.44563E-05 10962   0.378E-05 0.343E-05
  28 F= -.35880950E+03 E0= -.35880950E+03  d E =0.119763E-01  mag=    12.0000
       N       E                     dE             d eps       ncg     rms          ort
SDA:   1    -0.358516102507E+03    0.29339E+00    0.00000E+00 10962   0.708E+00 0.000E+00
CGA:   2    -0.358752717237E+03   -0.23661E+00   -0.23666E+00 10962   0.281E+00 0.361E-03
CGA:   3    -0.358799078958E+03   -0.46362E-01   -0.46368E-01 10962   0.964E-01-0.697E-04
CGA:   4    -0.358813378255E+03   -0.14299E-01   -0.14253E-01 10962   0.203E-01-0.155E-03
CGA:   5    -0.358817365586E+03   -0.39873E-02   -0.39608E-02 10962   0.696E-02-0.103E-03
CGA:   6    -0.358818685285E+03   -0.13197E-02   -0.13146E-02 10962   0.223E-02-0.210E-04
[...]
SDA:   1    -0.358790801942E+03    0.37482E-01    0.00000E+00 10962   0.117E+00 0.000E+00
CGA:   2    -0.358813364692E+03   -0.22563E-01   -0.22565E-01 10962   0.668E-01-0.353E-04
CGA:   3    -0.358824980814E+03   -0.11616E-01   -0.11606E-01 10962   0.220E-01-0.119E-03
CGA:   4    -0.358828438766E+03   -0.34580E-02   -0.34562E-02 10962   0.480E-02-0.187E-04
CGA:   5    -0.358829215200E+03   -0.77643E-03   -0.78109E-03 10962   0.118E-02 0.427E-04
CGA:   6    -0.358829437892E+03   -0.22269E-03   -0.22391E-03 10962   0.345E-03 0.160E-04
CGA:   7    -0.358829516516E+03   -0.78624E-04   -0.78153E-04 10962   0.126E-03-0.132E-04
CGA:   8    -0.358829550621E+03   -0.34105E-04   -0.34704E-04 10962   0.666E-04-0.210E-04
CGA:   9    -0.358829566070E+03   -0.15449E-04   -0.15633E-04 10962   0.296E-04-0.808E-05
CGA:  10    -0.358829571948E+03   -0.58774E-05   -0.59911E-05 10962   0.957E-05 0.386E-05
  46 F= -.35882957E+03 E0= -.35882957E+03  d E =-.128037E-02  mag=    12.0000
       N       E                     dE             d eps       ncg     rms          ort
SDA:   1    -0.358763428564E+03    0.66138E-01    0.00000E+00 10962   0.161E+00 0.000E+00
CGA:   2    -0.358815205411E+03   -0.51777E-01   -0.51770E-01 10962   0.684E-01 0.580E-04
CGA:   3    -0.358826032013E+03   -0.10827E-01   -0.10827E-01 10962   0.215E-01-0.105E-04
CGA:   4    -0.358829159898E+03   -0.31279E-02   -0.31314E-02 10962   0.407E-02 0.259E-04
CGA:   5    -0.358829912366E+03   -0.75247E-03   -0.75434E-03 10962   0.129E-02 0.285E-04
CGA:   6    -0.358830159024E+03   -0.24666E-03   -0.24713E-03 10962   0.378E-03 0.801E-05
CGA:   7    -0.358830246587E+03   -0.87563E-04   -0.87603E-04 10962   0.159E-03 0.298E-05
CGA:   8    -0.358830290722E+03   -0.44135E-04   -0.44362E-04 10962   0.769E-04-0.657E-05
CGA:   9    -0.358830314421E+03   -0.23699E-04   -0.24919E-04 10962   0.448E-04-0.130E-04
CGA:  10    -0.358830323642E+03   -0.92210E-05   -0.92223E-05 10962   0.144E-04 0.101E-05
  47 F= -.35883032E+03 E0= -.35883032E+03  d E =-.751694E-03  mag=    12.0000
       N       E                     dE             d eps       ncg     rms          ort
SDA:   1    -0.355512154781E+03    0.33182E+01    0.00000E+00 10962   0.790E+01 0.000E+00
CGA:   2    -0.358129485858E+03   -0.26173E+01   -0.26166E+01 10962   0.315E+01 0.452E-02
CGA:   3    -0.358637234596E+03   -0.50775E+00   -0.50787E+00 10962   0.972E+00-0.185E-03
CGA:   4    -0.358774478963E+03   -0.13724E+00   -0.13723E+00 10962   0.179E+00-0.424E-03
CGA:   5    -0.358808257459E+03   -0.33778E-01   -0.33777E-01 10962   0.572E-01-0.586E-04
CGA:   6    -0.358818790607E+03   -0.10533E-01   -0.10535E-01 10962   0.158E-01 0.108E-04
CGA:   7    -0.358822420880E+03   -0.36303E-02   -0.36291E-02 10962   0.659E-02-0.177E-03
CGA:   8    -0.358824230067E+03   -0.18092E-02   -0.18228E-02 10962   0.328E-02-0.317E-03
CGA:   9    -0.358825191430E+03   -0.96136E-03   -0.97870E-03 10962   0.164E-02-0.234E-03
CGA:  10    -0.358825622634E+03   -0.43120E-03   -0.43405E-03 10962   0.571E-03-0.675E-04
CGA:  11    -0.358825778665E+03   -0.15603E-03   -0.15563E-03 10962   0.204E-03 0.999E-05
CGA:  12    -0.358825846362E+03   -0.67696E-04   -0.66343E-04 10962   0.101E-03 0.184E-04
CGA:  13    -0.358825890406E+03   -0.44044E-04   -0.42724E-04 10962   0.632E-04 0.958E-05
CGA:  14    -0.358825913188E+03   -0.22782E-04   -0.21753E-04 10962   0.276E-04 0.180E-04
CGA:  15    -0.358825920861E+03   -0.76730E-05   -0.81286E-05 10962   0.110E-04 0.147E-04
  48 F= -.35882592E+03 E0= -.35882592E+03  d E =0.440278E-02  mag=    12.0000
       N       E                     dE             d eps       ncg     rms          ort
SDA:   1    -0.355403392744E+03    0.34225E+01    0.00000E+00 10962   0.777E+01 0.000E+00
CGA:   2    -0.358094153416E+03   -0.26908E+01   -0.26914E+01 10962   0.266E+01-0.724E-02
CGA:   3    -0.358572621186E+03   -0.47847E+00   -0.47846E+00 10962   0.879E+00-0.715E-03
CGA:   4    -0.358694545871E+03   -0.12192E+00   -0.12196E+00 10962   0.186E+00 0.629E-04
CGA:   5    -0.358732198444E+03   -0.37653E-01   -0.37663E-01 10962   0.603E-01 0.202E-03
CGA:   6    -0.358743572689E+03   -0.11374E-01   -0.11352E-01 10962   0.205E-01-0.355E-03
CGA:   7    -0.358748772150E+03   -0.51995E-02   -0.52056E-02 10962   0.912E-02-0.997E-03
CGA:   8    -0.358751063802E+03   -0.22917E-02   -0.23045E-02 10962   0.425E-02-0.798E-03
CGA:   9    -0.358752158557E+03   -0.10948E-02   -0.11042E-02 10962   0.160E-02-0.272E-03
CGA:  10    -0.358752546751E+03   -0.38819E-03   -0.38820E-03 10962   0.496E-03-0.676E-06
CGA:  11    -0.358752679966E+03   -0.13322E-03   -0.13260E-03 10962   0.174E-03 0.408E-04
CGA:  12    -0.358752730187E+03   -0.50221E-04   -0.49687E-04 10962   0.847E-04 0.530E-04
CGA:  13    -0.358752762009E+03   -0.31821E-04   -0.30729E-04 10962   0.585E-04 0.442E-04
CGA:  14    -0.358752790635E+03   -0.28626E-04   -0.28076E-04 10962   0.565E-04 0.240E-05
CGA:  15    -0.358752834110E+03   -0.43475E-04   -0.36494E-04 10962   0.517E-04 0.199E-04
CGA:  16    -0.358752888105E+03   -0.53995E-04   -0.67259E-04 10962   0.156E-03-0.193E-04
CGA:  17    -0.358752906034E+03   -0.17930E-04   -0.19958E-04 10962   0.138E-03 0.198E-04
CGA:  18    -0.358752938056E+03   -0.32022E-04   -0.33909E-04 10962   0.920E-04 0.210E-04
CGA:  19    -0.358752974921E+03   -0.36865E-04   -0.46858E-04 10962   0.134E-03-0.739E-04
CGA:  20    -0.358753018217E+03   -0.43295E-04   -0.43248E-04 10962   0.338E-04 0.475E-05
CGA:  21    -0.358752933198E+03    0.85019E-04   -0.48635E-04 10962   0.942E-03-0.920E-04
CGA:  22    -0.358753061520E+03   -0.12832E-03   -0.14815E-03 10962   0.633E-04 0.472E-04
CGA:  23    -0.358753085485E+03   -0.23965E-04   -0.23336E-04 10962   0.156E-04-0.312E-05
CGA:  24    -0.358753093159E+03   -0.76745E-05   -0.74508E-05 10962   0.193E-04-0.547E-05
  49 F= -.35875309E+03 E0= -.35875309E+03  d E =0.728277E-01  mag=    12.0000
       N       E                     dE             d eps       ncg     rms          ort
SDA:   1    -0.355425491115E+03    0.33276E+01    0.00000E+00 10962   0.809E+01 0.000E+00
CGA:   2    -0.358100054554E+03   -0.26746E+01   -0.26759E+01 10962   0.301E+01 0.105E-02
CGA:   3    -0.358628973693E+03   -0.52892E+00   -0.52927E+00 10962   0.995E+00 0.116E-02
CGA:   4    -0.358767005296E+03   -0.13803E+00   -0.13788E+00 10962   0.199E+00 0.110E-03
CGA:   5    -0.358806882435E+03   -0.39877E-01   -0.39797E-01 10962   0.657E-01-0.292E-03
CGA:   6    -0.358818978757E+03   -0.12096E-01   -0.12102E-01 10962   0.205E-01-0.417E-05
CGA:   7    -0.358823928790E+03   -0.49500E-02   -0.49685E-02 10962   0.887E-02 0.849E-04
CGA:   8    -0.358826192219E+03   -0.22634E-02   -0.22738E-02 10962   0.379E-02 0.558E-04
CGA:   9    -0.358827304084E+03   -0.11119E-02   -0.11112E-02 10962   0.160E-02-0.462E-05
CGA:  10    -0.358827775285E+03   -0.47120E-03   -0.46249E-03 10962   0.592E-03-0.639E-04
CGA:  11    -0.358827960283E+03   -0.18500E-03   -0.17970E-03 10962   0.260E-03-0.514E-04
CGA:  12    -0.358828049551E+03   -0.89268E-04   -0.88666E-04 10962   0.152E-03-0.149E-04
CGA:  13    -0.358828109904E+03   -0.60353E-04   -0.60351E-04 10962   0.103E-03 0.304E-06
CGA:  14    -0.358828150191E+03   -0.40287E-04   -0.40484E-04 10962   0.551E-04 0.105E-04
CGA:  15    -0.358828174740E+03   -0.24549E-04   -0.24590E-04 10962   0.313E-04 0.628E-05
CGA:  16    -0.358828186717E+03   -0.11977E-04   -0.12579E-04 10962   0.194E-04 0.118E-04
CGA:  17    -0.358828196802E+03   -0.10085E-04   -0.10341E-04 10962   0.164E-04 0.116E-04
CGA:  18    -0.358828205297E+03   -0.84943E-05   -0.82739E-05 10962   0.128E-04 0.224E-05
CGA:  19    -0.358828219787E+03   -0.14490E-04   -0.11606E-04 10962   0.133E-04 0.757E-05
CGA:  20    -0.358828227223E+03   -0.74364E-05   -0.73390E-05 10962   0.118E-04 0.791E-06
  50 F= -.35882823E+03 E0= -.35882823E+03  d E =-.751341E-01  mag=    12.0000
       N       E                     dE             d eps       ncg     rms          ort
SDA:   1    -0.357423602273E+03    0.14046E+01    0.00000E+00 10962   0.333E+01 0.000E+00
CGA:   2    -0.358492911253E+03   -0.10693E+01   -0.10701E+01 10962   0.111E+01 0.291E-02
CGA:   3    -0.358700318839E+03   -0.20741E+00   -0.20763E+00 10962   0.477E+00 0.518E-03
CGA:   4    -0.358770496512E+03   -0.70178E-01   -0.70199E-01 10962   0.955E-01-0.152E-03
CGA:   5    -0.358788997668E+03   -0.18501E-01   -0.18447E-01 10962   0.319E-01-0.280E-03
CGA:   6    -0.358795271223E+03   -0.62736E-02   -0.63098E-02 10962   0.119E-01 0.173E-03
CGA:   7    -0.358798003634E+03   -0.27324E-02   -0.28174E-02 10962   0.470E-02 0.555E-03
CGA:   8    -0.358799132847E+03   -0.11292E-02   -0.11838E-02 10962   0.184E-02 0.389E-03
CGA:   9    -0.358799669908E+03   -0.53706E-03   -0.54764E-03 10962   0.700E-03 0.107E-03
CGA:  10    -0.358799885092E+03   -0.21518E-03   -0.21324E-03 10962   0.275E-03-0.241E-04
CGA:  11    -0.358799981035E+03   -0.95943E-04   -0.95642E-04 10962   0.159E-03-0.610E-04
CGA:  12    -0.358800034607E+03   -0.53572E-04   -0.66789E-04 10962   0.205E-03-0.756E-04
CGA:  13    -0.358800081469E+03   -0.46862E-04   -0.56069E-04 10962   0.219E-03-0.617E-04
CGA:  14    -0.358800139425E+03   -0.57956E-04   -0.57958E-04 10962   0.147E-03 0.731E-06
CGA:  15    -0.358800173627E+03   -0.34202E-04   -0.39825E-04 10962   0.798E-04 0.509E-04
CGA:  16    -0.358800190605E+03   -0.16978E-04   -0.24571E-04 10962   0.447E-04 0.516E-04
CGA:  17    -0.358800204751E+03   -0.14146E-04   -0.14801E-04 10962   0.221E-04 0.177E-04
CGA:  18    -0.358800207724E+03   -0.29730E-05   -0.65841E-05 10962   0.170E-04 0.236E-04
  51 F= -.35880021E+03 E0= -.35880021E+03  d E =0.280195E-01  mag=    12.0000
       N       E                     dE             d eps       ncg     rms          ort
SDA:   1    -0.357547438332E+03    0.12528E+01    0.00000E+00 10962   0.305E+01 0.000E+00
CGA:   2    -0.358586199115E+03   -0.10388E+01   -0.10387E+01 10962   0.928E+00-0.399E-02
CGA:   3    -0.358776933172E+03   -0.19073E+00   -0.19072E+00 10962   0.295E+00-0.547E-03
CGA:   4    -0.358816871636E+03   -0.39938E-01   -0.39961E-01 10962   0.680E-01 0.155E-03
CGA:   5    -0.358830578517E+03   -0.13707E-01   -0.13732E-01 10962   0.201E-01 0.187E-03
CGA:   6    -0.358834625064E+03   -0.40465E-02   -0.40076E-02 10962   0.793E-02-0.307E-03
CGA:   7    -0.358836706063E+03   -0.20810E-02   -0.20374E-02 10962   0.361E-02-0.719E-03
CGA:   8    -0.358837647940E+03   -0.94188E-03   -0.92451E-03 10962   0.188E-02-0.474E-03
CGA:   9    -0.358838088113E+03   -0.44017E-03   -0.43479E-03 10962   0.630E-03-0.108E-03
CGA:  10    -0.358838228912E+03   -0.14080E-03   -0.14363E-03 10962   0.188E-03 0.391E-04
CGA:  11    -0.358838266968E+03   -0.38055E-04   -0.43068E-04 10962   0.659E-04 0.531E-04
CGA:  12    -0.358838276585E+03   -0.96174E-05   -0.14803E-04 10962   0.332E-04 0.397E-04
  52 F= -.35883828E+03 E0= -.35883828E+03  d E =-.380689E-01  mag=    12.0000
       N       E                     dE             d eps       ncg     rms          ort
SDA:   1    -0.358699136554E+03    0.13913E+00    0.00000E+00 10962   0.350E+00 0.000E+00
CGA:   2    -0.358801672791E+03   -0.10254E+00   -0.10254E+00 10962   0.151E+00 0.201E-03
CGA:   3    -0.358827343615E+03   -0.25671E-01   -0.25668E-01 10962   0.521E-01-0.668E-04
CGA:   4    -0.358834759484E+03   -0.74159E-02   -0.74023E-02 10962   0.879E-02-0.115E-03
CGA:   5    -0.358836388233E+03   -0.16287E-02   -0.16240E-02 10962   0.281E-02-0.506E-04
CGA:   6    -0.358836914142E+03   -0.52591E-03   -0.52472E-03 10962   0.813E-03-0.143E-04
CGA:   7    -0.358837105548E+03   -0.19141E-03   -0.19024E-03 10962   0.358E-03-0.317E-04
CGA:   8    -0.358837202452E+03   -0.96904E-04   -0.97223E-04 10962   0.184E-03-0.253E-04
CGA:   9    -0.358837251914E+03   -0.49462E-04   -0.49504E-04 10962   0.819E-04-0.222E-05
CGA:  10    -0.358837277321E+03   -0.25407E-04   -0.25795E-04 10962   0.368E-04-0.829E-05
CGA:  11    -0.358837288953E+03   -0.11632E-04   -0.12586E-04 10962   0.226E-04-0.895E-05
CGA:  12    -0.358837294719E+03   -0.57666E-05   -0.57854E-05 10962   0.120E-04-0.334E-06
  53 F= -.35883729E+03 E0= -.35883729E+03  d E =0.981866E-03  mag=    12.0000
       N       E                     dE             d eps       ncg     rms          ort
SDA:   1    -0.358211992535E+03    0.62530E+00    0.00000E+00 10962   0.160E+01 0.000E+00
CGA:   2    -0.358675949874E+03   -0.46396E+00   -0.46391E+00 10962   0.610E+00 0.309E-02
CGA:   3    -0.358789759593E+03   -0.11381E+00   -0.11379E+00 10962   0.219E+00-0.382E-03
CGA:   4    -0.358819674089E+03   -0.29914E-01   -0.29846E-01 10962   0.385E-01-0.563E-03
CGA:   5    -0.358827111980E+03   -0.74379E-02   -0.74177E-02 10962   0.122E-01-0.270E-03
CGA:   6    -0.358829344315E+03   -0.22323E-02   -0.22321E-02 10962   0.367E-02-0.776E-05
CGA:   7    -0.358830214456E+03   -0.87014E-03   -0.87190E-03 10962   0.161E-02 0.734E-04
CGA:   8    -0.358830650881E+03   -0.43642E-03   -0.43608E-03 10962   0.783E-03 0.792E-04
CGA:   9    -0.358830902753E+03   -0.25187E-03   -0.25025E-03 10962   0.389E-03 0.365E-04
CGA:  10    -0.358831038189E+03   -0.13544E-03   -0.13937E-03 10962   0.209E-03-0.495E-04
CGA:  11    -0.358831100829E+03   -0.62640E-04   -0.69673E-04 10962   0.130E-03-0.611E-04
CGA:  12    -0.358831132279E+03   -0.31451E-04   -0.33981E-04 10962   0.712E-04-0.260E-04
CGA:  13    -0.358831150169E+03   -0.17890E-04   -0.17851E-04 10962   0.298E-04 0.103E-05
CGA:  14    -0.358831160364E+03   -0.10195E-04   -0.10186E-04 10962   0.140E-04 0.120E-06
CGA:  15    -0.358831165240E+03   -0.48766E-05   -0.92498E-05 10962   0.231E-04-0.116E-04
  54 F= -.35883117E+03 E0= -.35883117E+03  d E =0.612948E-02  mag=    12.0000
       N       E                     dE             d eps       ncg     rms          ort
SDA:   1    -0.358338898580E+03    0.49226E+00    0.00000E+00 10962   0.122E+01 0.000E+00
CGA:   2    -0.358723066890E+03   -0.38417E+00   -0.38416E+00 10962   0.502E+00-0.442E-03
CGA:   3    -0.358806173505E+03   -0.83107E-01   -0.83114E-01 10962   0.162E+00-0.506E-04
CGA:   4    -0.358828883733E+03   -0.22710E-01   -0.22739E-01 10962   0.288E-01 0.122E-03
CGA:   5    -0.358834275565E+03   -0.53918E-02   -0.54033E-02 10962   0.915E-02 0.114E-03
CGA:   6    -0.358835977741E+03   -0.17022E-02   -0.17007E-02 10962   0.259E-02-0.187E-04
CGA:   7    -0.358836599296E+03   -0.62155E-03   -0.61823E-03 10962   0.117E-02-0.943E-04
CGA:   8    -0.358836926516E+03   -0.32722E-03   -0.32953E-03 10962   0.640E-03-0.116E-03
CGA:   9    -0.358837106632E+03   -0.18012E-03   -0.18312E-03 10962   0.330E-03-0.683E-04
CGA:  10    -0.358837185051E+03   -0.78419E-04   -0.78467E-04 10962   0.109E-03 0.484E-05
CGA:  11    -0.358837212433E+03   -0.27382E-04   -0.27778E-04 10962   0.382E-04 0.166E-04
CGA:  12    -0.358837223778E+03   -0.11345E-04   -0.11494E-04 10962   0.185E-04 0.111E-04
CGA:  13    -0.358837230585E+03   -0.68068E-05   -0.67438E-05 10962   0.103E-04 0.740E-05
  55 F= -.35883723E+03 E0= -.35883723E+03  d E =-.606534E-02  mag=    12.0000
       N       E                     dE             d eps       ncg     rms          ort
SDA:   1    -0.357877715185E+03    0.95951E+00    0.00000E+00 10962   0.230E+01 0.000E+00
CGA:   2    -0.358614263565E+03   -0.73655E+00   -0.73656E+00 10962   0.892E+00-0.129E-02
CGA:   3    -0.358766003943E+03   -0.15174E+00   -0.15176E+00 10962   0.300E+00 0.157E-05
CGA:   4    -0.358808483029E+03   -0.42479E-01   -0.42527E-01 10962   0.561E-01 0.256E-03
CGA:   5    -0.358819245281E+03   -0.10762E-01   -0.10780E-01 10962   0.180E-01 0.232E-03
CGA:   6    -0.358822652063E+03   -0.34068E-02   -0.34036E-02 10962   0.554E-02-0.487E-04
CGA:   7    -0.358824033338E+03   -0.13813E-02   -0.13793E-02 10962   0.257E-02-0.265E-03
CGA:   8    -0.358824714371E+03   -0.68103E-03   -0.68733E-03 10962   0.130E-02-0.261E-03
CGA:   9    -0.358825056618E+03   -0.34225E-03   -0.34592E-03 10962   0.567E-03-0.972E-04
CGA:  10    -0.358825190324E+03   -0.13371E-03   -0.13382E-03 10962   0.179E-03 0.233E-04
CGA:  11    -0.358825236330E+03   -0.46006E-04   -0.46355E-04 10962   0.662E-04 0.339E-04
CGA:  12    -0.358825255937E+03   -0.19606E-04   -0.19800E-04 10962   0.345E-04 0.244E-04
CGA:  13    -0.358825268132E+03   -0.12196E-04   -0.12204E-04 10962   0.217E-04 0.195E-04
CGA:  14    -0.358825275582E+03   -0.74496E-05   -0.69977E-05 10962   0.115E-04 0.701E-05
  56 F= -.35882528E+03 E0= -.35882528E+03  d E =0.119550E-01  mag=    12.0000
       N       E                     dE             d eps       ncg     rms          ort
SDA:   1    -0.358302434822E+03    0.52283E+00    0.00000E+00 10962   0.134E+01 0.000E+00
CGA:   2    -0.358708645000E+03   -0.40621E+00   -0.40608E+00 10962   0.524E+00 0.257E-02
CGA:   3    -0.358800994795E+03   -0.92350E-01   -0.92342E-01 10962   0.187E+00-0.269E-03
CGA:   4    -0.358827588152E+03   -0.26593E-01   -0.26535E-01 10962   0.348E-01-0.554E-03
CGA:   5    -0.358834332372E+03   -0.67442E-02   -0.67268E-02 10962   0.114E-01-0.285E-03
CGA:   6    -0.358836428136E+03   -0.20958E-02   -0.20972E-02 10962   0.350E-02 0.177E-04
CGA:   7    -0.358837234179E+03   -0.80604E-03   -0.80878E-03 10962   0.142E-02 0.147E-03
CGA:   8    -0.358837596373E+03   -0.36219E-03   -0.36271E-03 10962   0.584E-03 0.127E-03
CGA:   9    -0.358837778741E+03   -0.18237E-03   -0.18059E-03 10962   0.260E-03 0.495E-04
CGA:  10    -0.358837869366E+03   -0.90625E-04   -0.92900E-04 10962   0.133E-03-0.288E-04
CGA:  11    -0.358837908889E+03   -0.39524E-04   -0.43917E-04 10962   0.801E-04-0.376E-04
CGA:  12    -0.358837927498E+03   -0.18608E-04   -0.19544E-04 10962   0.403E-04-0.117E-04
CGA:  13    -0.358837938442E+03   -0.10945E-04   -0.10867E-04 10962   0.186E-04 0.148E-05
CGA:  14    -0.358837945732E+03   -0.72891E-05   -0.75873E-05 10962   0.111E-04-0.235E-05
  57 F= -.35883795E+03 E0= -.35883795E+03  d E =-.126701E-01  mag=    12.0000
       N       E                     dE             d eps       ncg     rms          ort
SDA:   1    -0.358788781999E+03    0.49156E-01    0.00000E+00 10962   0.120E+00 0.000E+00
CGA:   2    -0.358824961954E+03   -0.36180E-01   -0.36177E-01 10962   0.473E-01 0.347E-03
CGA:   3    -0.358833314708E+03   -0.83528E-02   -0.83557E-02 10962   0.182E-01 0.135E-04
CGA:   4    -0.358835900281E+03   -0.25856E-02   -0.25784E-02 10962   0.345E-02-0.550E-04
CGA:   5    -0.358836543240E+03   -0.64296E-03   -0.63930E-03 10962   0.118E-02-0.393E-04
CGA:   6    -0.358836758688E+03   -0.21545E-03   -0.21597E-03 10962   0.379E-03 0.547E-05
CGA:   7    -0.358836841313E+03   -0.82625E-04   -0.84183E-04 10962   0.139E-03 0.314E-04
CGA:   8    -0.358836874325E+03   -0.33012E-04   -0.34174E-04 10962   0.547E-04 0.279E-04
CGA:   9    -0.358836889512E+03   -0.15187E-04   -0.15607E-04 10962   0.236E-04 0.149E-04
CGA:  10    -0.358836899006E+03   -0.94947E-05   -0.94834E-05 10962   0.133E-04 0.218E-06
CGA:  11    -0.358836898806E+03    0.20016E-06   -0.10315E-04 10962   0.494E-04-0.209E-04
  58 F= -.35883690E+03 E0= -.35883690E+03  d E =0.104693E-02  mag=    12.0000
       N       E                     dE             d eps       ncg     rms          ort
SDA:   1    -0.358818237707E+03    0.18661E-01    0.00000E+00 10962   0.463E-01 0.000E+00
CGA:   2    -0.358833919353E+03   -0.15682E-01   -0.15695E-01 10962   0.166E-01-0.258E-03
CGA:   3    -0.358836823097E+03   -0.29037E-02   -0.29028E-02 10962   0.565E-02-0.119E-04
CGA:   4    -0.358837588559E+03   -0.76546E-03   -0.77024E-03 10962   0.108E-02 0.309E-04
CGA:   5    -0.358837803610E+03   -0.21505E-03   -0.21705E-03 10962   0.342E-03 0.262E-04
CGA:   6    -0.358837877007E+03   -0.73397E-04   -0.72153E-04 10962   0.125E-03-0.188E-04
CGA:   7    -0.358837914257E+03   -0.37250E-04   -0.44100E-04 10962   0.137E-03-0.666E-04
CGA:   8    -0.358837934395E+03   -0.20138E-04   -0.20138E-04 10962   0.235E-04-0.250E-07
CGA:   9    -0.358837941128E+03   -0.67332E-05   -0.67832E-05 10962   0.104E-04-0.246E-05
  59 F= -.35883794E+03 E0= -.35883794E+03  d E =-.104232E-02  mag=    12.0000
