       N       E                     dE             d eps       ncg     rms          ort
DAV:   1     0.881465693288E+04    0.88147E+04   -0.53231E+05   624   0.154E+03
DAV:   2    -0.954674729616E+03   -0.97693E+04   -0.93196E+04   624   0.409E+02
DAV:   3    -0.190519313632E+04   -0.95052E+03   -0.92963E+03   624   0.146E+02
DAV:   4    -0.194590556687E+04   -0.40712E+02   -0.40101E+02   624   0.337E+01
DAV:   5    -0.194819016172E+04   -0.22846E+01   -0.22757E+01   624   0.582E+00
SDA:   6    -0.107220249679E+04    0.87599E+03   -0.22757E+01   624   0.345E+04 0.000E+00
CGA:   7    -0.121952056336E+04   -0.14732E+03   -0.35088E+03   624   0.409E+04-0.736E+02
CGA:   8    -0.133700317258E+04   -0.11748E+03   -0.26862E+03   624   0.188E+04-0.717E+03
CGA:   9    -0.134419805945E+04   -0.71949E+01   -0.10833E+03   624   0.184E+04-0.921E+03
CGA:  10    -0.139976508809E+04   -0.55567E+02   -0.81118E+02   624   0.100E+04-0.422E+02
CGA:  11    -0.143995748285E+04   -0.40192E+02   -0.67303E+02   624   0.107E+04-0.354E+03
CGA:  12    -0.146847754259E+04   -0.28520E+02   -0.36163E+02   624   0.650E+03-0.245E+03
CGA:  13    -0.147987195498E+04   -0.11394E+02   -0.25091E+02   624   0.621E+03-0.297E+03
CGA:  14    -0.148578119316E+04   -0.59092E+01   -0.13155E+02   624   0.430E+03-0.231E+03
CGA:  15    -0.148803770438E+04   -0.22565E+01   -0.10433E+02   624   0.598E+03-0.360E+02
CGA:  16    -0.147906994336E+04    0.89678E+01   -0.25904E+02   624   0.551E+03-0.249E+03
CGA:  17    -0.149565853364E+04   -0.16589E+02   -0.15240E+02   624   0.313E+03-0.260E+03
CGA:  18    -0.149826836364E+04   -0.26098E+01   -0.55225E+01   624   0.198E+03-0.134E+03
CGA:  19    -0.150247549590E+04   -0.42071E+01   -0.27479E+01   624   0.188E+03 0.703E+02
CGA:  20    -0.149009241998E+04    0.12383E+02   -0.88721E+01   624   0.652E+03-0.262E+03
CGA:  21    -0.149890656632E+04   -0.88141E+01   -0.30362E+02   624   0.393E+03-0.285E+03
CGA:  22    -0.151021532472E+04   -0.11309E+02   -0.91489E+01   624   0.258E+03 0.209E+03
CGA:  23    -0.151063999308E+04   -0.42467E+00   -0.75230E+01   624   0.234E+03-0.156E+03
CGA:  24    -0.150719805971E+04    0.34419E+01   -0.97950E+01   624   0.920E+02-0.520E+02
CGA:  25    -0.151481288031E+04   -0.76148E+01   -0.13093E+01   624   0.130E+03 0.313E+03
CGA:  26    -0.151306618821E+04    0.17467E+01   -0.38849E+01   624   0.208E+03-0.996E+02
CGA:  27    -0.150864700894E+04    0.44192E+01   -0.86143E+01   624   0.842E+02-0.320E+02
CGA:  28    -0.151488819961E+04   -0.62412E+01   -0.11031E+01   624   0.242E+03 0.410E+03
CGA:  29    -0.151250117767E+04    0.23870E+01   -0.72023E+01   624   0.150E+03-0.859E+02
CGA:  30    -0.151226912629E+04    0.23205E+00   -0.31185E+01   624   0.311E+03-0.178E+03
CGA:  31    -0.151082348203E+04    0.14456E+01   -0.86875E+01   624   0.156E+03-0.126E+03
CGA:  32    -0.151759719338E+04   -0.67737E+01   -0.20634E+01   624   0.127E+03-0.279E+03
CGA:  33    -0.151410820506E+04    0.34890E+01   -0.32953E+01   624   0.325E+03-0.137E+03
CGA:  34    -0.151085268516E+04    0.32555E+01   -0.10859E+02   624   0.983E+02-0.508E+02
CGA:  35    -0.151441687184E+04   -0.35642E+01   -0.10870E+01   624   0.302E+03 0.369E+03
CGA:  36    -0.151248257598E+04    0.19343E+01   -0.71273E+01   624   0.152E+03-0.110E+03
CGA:  37    -0.151689190999E+04   -0.44093E+01   -0.26156E+01   624   0.276E+03-0.272E+03
CGA:  38    -0.151346088620E+04    0.34310E+01   -0.67479E+01   624   0.196E+03-0.120E+03
CGA:  39    -0.151749052123E+04   -0.40296E+01   -0.31850E+01   624   0.243E+03-0.205E+03
CGA:  40    -0.151462355179E+04    0.28670E+01   -0.58594E+01   624   0.200E+03-0.123E+03
CGA:  41    -0.151345177805E+04    0.11718E+01   -0.49418E+01   624   0.138E+03-0.113E+03
CGA:  42    -0.151899636765E+04   -0.55446E+01   -0.22303E+01   624   0.143E+03-0.321E+03
CGA:  43    -0.151772943005E+04    0.12669E+01   -0.29054E+01   624   0.242E+03-0.161E+03
CGA:  44    -0.151627626193E+04    0.14532E+01   -0.51892E+01   624   0.230E+03-0.172E+03
CGA:  45    -0.151525553526E+04    0.10207E+01   -0.51164E+01   624   0.226E+03-0.194E+03
CGA:  46    -0.151709076106E+04   -0.18352E+01   -0.43006E+01   624   0.226E+03-0.265E+03
CGA:  47    -0.151668821990E+04    0.40254E+00   -0.46562E+01   624   0.257E+03-0.234E+03
CGA:  48    -0.151751390947E+04   -0.82569E+00   -0.49746E+01   624   0.211E+03-0.223E+03
CGA:  49    -0.151806749752E+04   -0.55359E+00   -0.40327E+01   624   0.227E+03-0.239E+03
CGA:  50    -0.151884433301E+04   -0.77684E+00   -0.41348E+01   624   0.165E+03-0.183E+03
CGA:  51    -0.151987139864E+04   -0.10271E+01   -0.27591E+01   624   0.110E+03-0.146E+03
CGA:  52    -0.152060319686E+04   -0.73180E+00   -0.16581E+01   624   0.412E+02-0.621E+02
CGA:  53    -0.152101539511E+04   -0.41220E+00   -0.47442E+00   624   0.348E+01-0.690E+01
CGA:  54    -0.152115788405E+04   -0.14249E+00   -0.13985E+00   624   0.693E+01 0.148E+00
CGA:  55    -0.152190568546E+04   -0.74780E+00   -0.63461E+00   624   0.791E+01 0.219E+01
CGA:  56    -0.152248346325E+04   -0.57778E+00   -0.53815E+00   624   0.204E+01 0.271E+01
CGA:  57    -0.152276807119E+04   -0.28461E+00   -0.26926E+00   624   0.386E+01 0.261E+00
CGA:  58    -0.152329142442E+04   -0.52335E+00   -0.54408E+00   624   0.352E+01-0.765E-01
CGA:  59    -0.152349131029E+04   -0.19989E+00   -0.19814E+00   624   0.845E+00 0.184E-01
CGA:  60    -0.152361046127E+04   -0.11915E+00   -0.13132E+00   624   0.121E+01-0.664E-01
CGA:  61    -0.152377494160E+04   -0.16448E+00   -0.21665E+00   624   0.208E+01-0.320E+00
CGA:  62    -0.152387971197E+04   -0.10477E+00   -0.10593E+00   624   0.632E+00-0.220E+00
CGA:  63    -0.152394098722E+04   -0.61275E-01   -0.88822E-01   624   0.915E+00-0.310E+00
CGA:  64    -0.152398662667E+04   -0.45639E-01   -0.59596E-01   624   0.867E+00-0.229E+00
CGA:  65    -0.152405301749E+04   -0.66391E-01   -0.12029E+00   624   0.180E+01-0.607E+00
CGA:  66    -0.152411863337E+04   -0.65616E-01   -0.84491E-01   624   0.473E+00-0.809E-01
CGA:  67    -0.152416354523E+04   -0.44912E-01   -0.49714E-01   624   0.583E+00-0.110E+00
CGA:  68    -0.152424297678E+04   -0.79432E-01   -0.73798E-01   624   0.254E+00 0.653E-01
CGA:  69    -0.152428963025E+04   -0.46653E-01   -0.40828E-01   624   0.170E+00 0.840E-01
CGA:  70    -0.152432291152E+04   -0.33281E-01   -0.31320E-01   624   0.126E+00 0.387E-01
CGA:  71    -0.152435275670E+04   -0.29845E-01   -0.26198E-01   624   0.705E-01 0.435E-01
CGA:  72    -0.152438248634E+04   -0.29730E-01   -0.25549E-01   624   0.782E-01 0.252E-01
CGA:  73    -0.152441802018E+04   -0.35534E-01   -0.30371E-01   624   0.928E-01 0.267E-01
CGA:  74    -0.152445136353E+04   -0.33343E-01   -0.32627E-01   624   0.878E-01 0.530E-02
CGA:  75    -0.152448483252E+04   -0.33469E-01   -0.40807E-01   624   0.138E+00-0.217E-01
CGA:  76    -0.152450477685E+04   -0.19944E-01   -0.27695E-01   624   0.110E+00-0.613E-01
CGA:  77    -0.152450911747E+04   -0.43406E-02   -0.22302E-01   624   0.181E+00-0.824E-01
CGA:  78    -0.152455277826E+04   -0.43661E-01   -0.42984E-01   624   0.898E-01 0.841E-02
CGA:  79    -0.152460780192E+04   -0.55024E-01   -0.47266E-01   624   0.452E-01 0.227E-01
CGA:  80    -0.152462783626E+04   -0.20034E-01   -0.18518E-01   624   0.257E-01 0.100E-01
CGA:  81    -0.152463803823E+04   -0.10202E-01   -0.93125E-02   624   0.130E-01 0.769E-02
CGA:  82    -0.152464604724E+04   -0.80090E-02   -0.65131E-02   624   0.104E-01 0.742E-02
CGA:  83    -0.152464931448E+04   -0.32672E-02   -0.32839E-02   624   0.979E-02-0.111E-03
CGA:  84    -0.152465846807E+04   -0.91536E-02   -0.76683E-02   624   0.114E-01 0.237E-02
CGA:  85    -0.152466479509E+04   -0.63270E-02   -0.70246E-02   624   0.198E-01-0.273E-02
CGA:  86    -0.152466953744E+04   -0.47423E-02   -0.48332E-02   624   0.114E-01-0.168E-02
CGA:  87    -0.152467178600E+04   -0.22486E-02   -0.22442E-02   624   0.726E-02-0.237E-03
CGA:  88    -0.152467406757E+04   -0.22816E-02   -0.23445E-02   624   0.592E-02-0.849E-03
CGA:  89    -0.152467550108E+04   -0.14335E-02   -0.14478E-02   624   0.397E-02-0.620E-03
CGA:  90    -0.152467636008E+04   -0.85901E-03   -0.86011E-03   624   0.216E-02 0.711E-04
CGA:  91    -0.152467681943E+04   -0.45934E-03   -0.46634E-03   624   0.105E-02 0.166E-03
CGA:  92    -0.152467710662E+04   -0.28720E-03   -0.28647E-03   624   0.107E-02 0.267E-03
CGA:  93    -0.152467746081E+04   -0.35419E-03   -0.34784E-03   624   0.952E-03 0.637E-03
CGA:  94    -0.152467766666E+04   -0.20585E-03   -0.21191E-03   624   0.395E-03 0.219E-03
CGA:  95    -0.152467790016E+04   -0.23351E-03   -0.19600E-03   624   0.401E-03 0.241E-03
CGA:  96    -0.152467800735E+04   -0.10719E-03   -0.10606E-03   624   0.232E-03 0.150E-03
CGA:  97    -0.152467845951E+04   -0.45216E-03   -0.35207E-03   624   0.644E-03 0.110E-03
CGA:  98    -0.152467893978E+04   -0.48027E-03   -0.43457E-03   624   0.440E-03 0.265E-03
CGA:  99    -0.152467917238E+04   -0.23259E-03   -0.22279E-03   624   0.186E-03 0.174E-03
CGA: 100    -0.152467923890E+04   -0.66521E-04   -0.71221E-04   624   0.123E-03 0.128E-03
CGA: 101    -0.152467935022E+04   -0.11132E-03    0.41211E-04   624   0.893E-04 0.538E-04
CGA: 102    -0.152467944170E+04   -0.91475E-04    0.12580E-03   624   0.707E-04 0.868E-04
CGA: 103    -0.152467949050E+04   -0.48800E-04   -0.43257E-04   624   0.108E-03 0.173E-04
CGA: 104    -0.152467957982E+04   -0.89322E-04    0.94610E-03   624   0.736E-04 0.102E-03
CGA: 105    -0.152467965455E+04   -0.74731E-04    0.20959E-04   624   0.510E-04 0.291E-04
CGA: 106    -0.152467970627E+04   -0.51725E-04    0.93913E-04   624   0.511E-04 0.511E-04
CGA: 107    -0.152467974666E+04   -0.40383E-04   -0.38457E-04   624   0.115E-03 0.399E-05
CGA: 108    -0.152467984317E+04   -0.96518E-04   -0.87520E-04   624   0.271E-03 0.236E-04
CGA: 109    -0.152468013861E+04   -0.29543E-03    0.24183E-03   624   0.113E-03 0.172E-03
CGA: 110    -0.152468016961E+04   -0.31003E-04   -0.31805E-04   624   0.260E-04 0.971E-05
CGA: 111    -0.152468020143E+04   -0.31823E-04    0.88561E-05   624   0.162E-04 0.102E-04
CGA: 112    -0.152468022120E+04   -0.19760E-04    0.18108E-04   624   0.196E-04 0.186E-04
CGA: 113    -0.152468022040E+04    0.79896E-06   -0.26678E-05   624   0.135E-04 0.155E-04
   1 F= -.15246802E+04 E0= -.15246802E+04  d E =-.152468E+04  mag=    16.0000
       N       E                     dE             d eps       ncg     rms          ort
SDA:   1    -0.152468296731E+04   -0.27461E-02    0.00000E+00   624   0.471E-03 0.000E+00
CGA:   2    -0.152468305032E+04   -0.83014E-04   -0.96053E-04   624   0.123E-03 0.947E-04
CGA:   3    -0.152468310355E+04   -0.53231E-04   -0.54499E-04   624   0.894E-04-0.375E-04
CGA:   4    -0.152468312441E+04   -0.20857E-04   -0.21204E-04   624   0.124E-03-0.705E-04
CGA:   5    -0.152468313935E+04   -0.14936E-04   -0.17984E-04   624   0.373E-04 0.159E-04
CGA:   6    -0.152468315043E+04   -0.11080E-04   -0.11634E-04   624   0.151E-04 0.108E-04
CGA:   7    -0.152468315208E+04   -0.16514E-05   -0.15805E-04   624   0.148E-03-0.294E-04
CGA:   8    -0.152468317202E+04   -0.19943E-04   -0.22091E-04   624   0.185E-04 0.108E-04
CGA:   9    -0.152468313195E+04    0.40074E-04   -0.33038E-04   624   0.353E-03-0.556E-04
CGA:  10    -0.152468318656E+04   -0.54608E-04   -0.59971E-04   624   0.771E-04 0.239E-04
CGA:  11    -0.152468321607E+04   -0.29511E-04   -0.27807E-04   624   0.539E-04-0.306E-04
CGA:  12    -0.152468321872E+04   -0.26518E-05   -0.45588E-05   624   0.217E-04 0.770E-05
   2 F= -.15246832E+04 E0= -.15246832E+04  d E =-.299832E-02  mag=    16.0000
       N       E                     dE             d eps       ncg     rms          ort
SDA:   1    -0.152436289438E+04    0.32032E+00    0.00000E+00   624   0.133E+01 0.000E+00
CGA:   2    -0.152469229282E+04   -0.32940E+00   -0.33001E+00   624   0.402E+00 0.553E-02
CGA:   3    -0.152478750630E+04   -0.95213E-01   -0.94856E-01   624   0.114E+00-0.315E-02
CGA:   4    -0.152480912804E+04   -0.21622E-01   -0.21370E-01   624   0.234E-01-0.147E-02
CGA:   5    -0.152481382268E+04   -0.46946E-02   -0.46954E-02   624   0.589E-02 0.247E-05
CGA:   6    -0.152481534184E+04   -0.15192E-02   -0.15312E-02   624   0.235E-02 0.154E-03
CGA:   7    -0.152481614502E+04   -0.80318E-03   -0.80318E-03   624   0.132E-02-0.108E-03
CGA:   8    -0.152481663679E+04   -0.49176E-03   -0.50538E-03   624   0.836E-03-0.204E-03
CGA:   9    -0.152481688852E+04   -0.25173E-03   -0.25587E-03   624   0.434E-03-0.166E-03
CGA:  10    -0.152481697278E+04   -0.84261E-04   -0.85044E-04   624   0.156E-03 0.878E-05
CGA:  11    -0.152481702366E+04   -0.50880E-04   -0.50752E-04   624   0.822E-04-0.836E-05
CGA:  12    -0.152481704758E+04   -0.23922E-04   -0.24052E-04   624   0.386E-04 0.550E-05
CGA:  13    -0.152481706306E+04   -0.15482E-04   -0.15843E-04   624   0.270E-04-0.691E-05
CGA:  14    -0.152481704172E+04    0.21343E-04   -0.23561E-04   624   0.237E-03-0.619E-04
CGA:  15    -0.152481706918E+04   -0.27467E-04   -0.34928E-04   624   0.436E-04 0.345E-04
CGA:  16    -0.152481708127E+04   -0.12083E-04   -0.13042E-04   624   0.153E-04 0.976E-05
CGA:  17    -0.152481691086E+04    0.17041E-03   -0.91865E-04   624   0.114E-02-0.110E-03
CGA:  18    -0.152481705530E+04   -0.14444E-03   -0.16085E-03   624   0.120E-03 0.419E-04
CGA:  19    -0.152481711323E+04   -0.57932E-04   -0.55157E-04   624   0.420E-04-0.155E-04
CGA:  20    -0.152481712436E+04   -0.11127E-04   -0.95070E-05   624   0.226E-04-0.446E-05
CGA:  21    -0.152481712651E+04   -0.21473E-05   -0.43614E-05   624   0.669E-05 0.589E-05
   3 F= -.15248171E+04 E0= -.15248171E+04  d E =-.133908E+00  mag=    16.0000
       N       E                     dE             d eps       ncg     rms          ort
SDA:   1    -0.152344210028E+04    0.13750E+01    0.00000E+00   624   0.460E+01 0.000E+00
CGA:   2    -0.152458540685E+04   -0.11433E+01   -0.11464E+01   624   0.128E+01 0.113E-01
CGA:   3    -0.152489519803E+04   -0.30979E+00   -0.30873E+00   624   0.360E+00-0.404E-02
CGA:   4    -0.152496375608E+04   -0.68558E-01   -0.68026E-01   624   0.753E-01-0.114E-02
CGA:   5    -0.152497911310E+04   -0.15357E-01   -0.15408E-01   624   0.200E-01 0.164E-03
CGA:   6    -0.152498459709E+04   -0.54840E-02   -0.55315E-02   624   0.886E-02 0.219E-03
CGA:   7    -0.152498763343E+04   -0.30363E-02   -0.30156E-02   624   0.503E-02-0.143E-03
CGA:   8    -0.152498948753E+04   -0.18541E-02   -0.18303E-02   624   0.256E-02-0.227E-03
CGA:   9    -0.152499033374E+04   -0.84620E-03   -0.82698E-03   624   0.104E-02-0.146E-03
CGA:  10    -0.152499060231E+04   -0.26857E-03   -0.27383E-03   624   0.391E-03 0.297E-04
CGA:  11    -0.152499073148E+04   -0.12917E-03   -0.12681E-03   624   0.214E-03-0.163E-04
CGA:  12    -0.152499078061E+04   -0.49136E-04   -0.53214E-04   624   0.823E-04 0.223E-04
CGA:  13    -0.152499081891E+04   -0.38293E-04   -0.37865E-04   624   0.511E-04-0.205E-04
CGA:  14    -0.152499083461E+04   -0.15708E-04   -0.15085E-04   624   0.382E-04-0.143E-04
CGA:  15    -0.152499084058E+04   -0.59637E-05   -0.64121E-05   624   0.191E-04 0.224E-05
   4 F= -.15249908E+04 E0= -.15249908E+04  d E =-.173714E+00  mag=    16.0000
       N       E                     dE             d eps       ncg     rms          ort
SDA:   1    -0.152353095930E+04    0.14599E+01    0.00000E+00   624   0.453E+01 0.000E+00
CGA:   2    -0.152471004530E+04   -0.11791E+01   -0.11804E+01   624   0.120E+01 0.525E-02
CGA:   3    -0.152501857712E+04   -0.30853E+00   -0.30782E+00   624   0.303E+00-0.432E-02
CGA:   4    -0.152507697128E+04   -0.58394E-01   -0.58217E-01   624   0.661E-01-0.798E-03
CGA:   5    -0.152509047206E+04   -0.13501E-01   -0.13571E-01   624   0.188E-01 0.400E-03
CGA:   6    -0.152509599517E+04   -0.55231E-02   -0.55270E-02   624   0.881E-02 0.488E-04
CGA:   7    -0.152509904783E+04   -0.30527E-02   -0.30488E-02   624   0.519E-02-0.115E-03
CGA:   8    -0.152510086230E+04   -0.18145E-02   -0.18116E-02   624   0.242E-02-0.122E-03
CGA:   9    -0.152510167646E+04   -0.81416E-03   -0.80851E-03   624   0.984E-03-0.161E-03
CGA:  10    -0.152510190479E+04   -0.22834E-03   -0.23642E-03   624   0.361E-03 0.705E-04
CGA:  11    -0.152510203512E+04   -0.13032E-03   -0.12872E-03   624   0.223E-03-0.437E-04
CGA:  12    -0.152510207855E+04   -0.43426E-04   -0.47451E-04   624   0.852E-04 0.325E-04
CGA:  13    -0.152510211384E+04   -0.35290E-04   -0.35303E-04   624   0.469E-04-0.134E-04
CGA:  14    -0.152510210147E+04    0.12367E-04   -0.36482E-04   624   0.315E-03-0.870E-04
CGA:  15    -0.152510212686E+04   -0.25394E-04   -0.41075E-04   624   0.529E-04 0.623E-04
CGA:  16    -0.152510214026E+04   -0.13392E-04   -0.15131E-04   624   0.228E-04 0.127E-04
CGA:  17    -0.152510208794E+04    0.52311E-04   -0.32771E-04   624   0.640E-03-0.107E-03
CGA:  18    -0.152510214427E+04   -0.56325E-04   -0.77523E-04   624   0.609E-04 0.789E-04
CGA:  19    -0.152510216527E+04   -0.20996E-04   -0.21137E-04   624   0.316E-04 0.168E-05
CGA:  20    -0.152510216197E+04    0.32996E-05   -0.20759E-04   624   0.305E-03-0.963E-04
CGA:  21    -0.152510217861E+04   -0.16648E-04   -0.33620E-04   624   0.292E-04 0.602E-04
CGA:  22    -0.152510217892E+04   -0.30079E-06   -0.44019E-05   624   0.149E-04 0.157E-04
CGA:  23    -0.152510201796E+04    0.16095E-03   -0.86904E-04   624   0.116E-02-0.959E-04
CGA:  24    -0.152510213551E+04   -0.11755E-03   -0.15282E-03   624   0.114E-03 0.780E-04
CGA:  25    -0.152510218955E+04   -0.54035E-04   -0.49942E-04   624   0.301E-04-0.166E-04
CGA:  26    -0.152510220404E+04   -0.14498E-04   -0.64895E-05   624   0.240E-04-0.202E-04
CGA:  27    -0.152510220200E+04    0.20436E-05   -0.24017E-05   624   0.462E-05 0.860E-05
   5 F= -.15251022E+04 E0= -.15251022E+04  d E =-.111361E+00  mag=    16.0000
       N       E                     dE             d eps       ncg     rms          ort
SDA:   1    -0.152337471463E+04    0.17275E+01    0.00000E+00   624   0.500E+01 0.000E+00
CGA:   2    -0.152472513758E+04   -0.13504E+01   -0.13511E+01   624   0.140E+01 0.236E-02
CGA:   3    -0.152507506014E+04   -0.34992E+00   -0.34951E+00   624   0.335E+00-0.652E-03
CGA:   4    -0.152513843169E+04   -0.63372E-01   -0.63366E-01   624   0.722E-01 0.113E-03
CGA:   5    -0.152515340247E+04   -0.14971E-01   -0.15071E-01   624   0.201E-01 0.398E-03
CGA:   6    -0.152515944232E+04   -0.60398E-02   -0.60230E-02   624   0.942E-02-0.691E-04
CGA:   7    -0.152516273028E+04   -0.32880E-02   -0.32767E-02   624   0.565E-02-0.778E-04
CGA:   8    -0.152516473292E+04   -0.20026E-02   -0.19906E-02   624   0.272E-02-0.919E-04
CGA:   9    -0.152516560489E+04   -0.87197E-03   -0.86028E-03   624   0.103E-02-0.718E-04
CGA:  10    -0.152516585781E+04   -0.25291E-03   -0.26102E-03   624   0.400E-03 0.402E-04
CGA:  11    -0.152516599158E+04   -0.13377E-03   -0.12860E-03   624   0.213E-03-0.322E-04
CGA:  12    -0.152516604132E+04   -0.49748E-04   -0.53735E-04   624   0.777E-04 0.223E-04
CGA:  13    -0.152516607436E+04   -0.33038E-04   -0.32566E-04   624   0.378E-04-0.697E-05
CGA:  14    -0.152516608369E+04   -0.93296E-05   -0.10134E-04   624   0.172E-04 0.533E-05
   6 F= -.15251661E+04 E0= -.15251661E+04  d E =-.638817E-01  mag=    16.0000
       N       E                     dE             d eps       ncg     rms          ort
SDA:   1    -0.152154562315E+04    0.36205E+01    0.00000E+00   624   0.920E+01 0.000E+00
CGA:   2    -0.152435300897E+04   -0.28074E+01   -0.28070E+01   624   0.298E+01-0.653E-02
CGA:   3    -0.152502330310E+04   -0.67029E+00   -0.67030E+00   624   0.621E+00-0.329E-03
CGA:   4    -0.152513764732E+04   -0.11434E+00   -0.11458E+00   624   0.129E+00 0.153E-02
CGA:   5    -0.152516506038E+04   -0.27413E-01   -0.27503E-01   624   0.346E-01 0.529E-03
CGA:   6    -0.152517448332E+04   -0.94229E-02   -0.94247E-02   624   0.136E-01 0.276E-04
CGA:   7    -0.152517885667E+04   -0.43734E-02   -0.43664E-02   624   0.738E-02-0.106E-03
CGA:   8    -0.152518146386E+04   -0.26072E-02   -0.26053E-02   624   0.377E-02-0.777E-04
CGA:   9    -0.152518265097E+04   -0.11871E-02   -0.11864E-02   624   0.155E-02-0.101E-04
CGA:  10    -0.152518307356E+04   -0.42259E-03   -0.42541E-03   624   0.659E-03 0.307E-04
CGA:  11    -0.152518327435E+04   -0.20079E-03   -0.20177E-03   624   0.329E-03 0.149E-04
CGA:  12    -0.152518339246E+04   -0.11810E-03   -0.11823E-03   624   0.177E-03 0.792E-05
CGA:  13    -0.152518345478E+04   -0.62326E-04   -0.62553E-04   624   0.912E-04 0.998E-05
CGA:  14    -0.152518347968E+04   -0.24903E-04   -0.26811E-04   624   0.420E-04 0.216E-04
CGA:  15    -0.152518349419E+04   -0.14504E-04   -0.15776E-04   624   0.256E-04 0.215E-04
CGA:  16    -0.152518350725E+04   -0.13062E-04   -0.12184E-04   624   0.224E-04 0.738E-05
CGA:  17    -0.152518352478E+04   -0.17527E-04   -0.15539E-04   624   0.331E-04 0.112E-04
CGA:  18    -0.152518352787E+04   -0.30942E-05   -0.52440E-05   624   0.127E-04 0.101E-04
   7 F= -.15251835E+04 E0= -.15251835E+04  d E =-.174442E-01  mag=    16.0000
       N       E                     dE             d eps       ncg     rms          ort
SDA:   1    -0.152435416462E+04    0.82936E+00    0.00000E+00   624   0.204E+01 0.000E+00
CGA:   2    -0.152502889593E+04   -0.67473E+00   -0.67460E+00   624   0.723E+00-0.319E-02
CGA:   3    -0.152516905089E+04   -0.14015E+00   -0.14018E+00   624   0.144E+00-0.889E-04
CGA:   4    -0.152519602142E+04   -0.26971E-01   -0.26977E-01   624   0.294E-01 0.168E-03
CGA:   5    -0.152520218107E+04   -0.61596E-02   -0.61916E-02   624   0.706E-02 0.242E-03
CGA:   6    -0.152520395008E+04   -0.17690E-02   -0.17574E-02   624   0.223E-02-0.125E-03
CGA:   7    -0.152520458423E+04   -0.63416E-03   -0.62859E-03   624   0.940E-03-0.115E-03
CGA:   8    -0.152520488269E+04   -0.29846E-03   -0.29858E-03   624   0.461E-03-0.571E-04
CGA:   9    -0.152520502352E+04   -0.14083E-03   -0.14027E-03   624   0.244E-03-0.609E-04
CGA:  10    -0.152520506937E+04   -0.45848E-04   -0.47597E-04   624   0.825E-04 0.167E-04
CGA:  11    -0.152520510691E+04   -0.37544E-04   -0.43019E-04   624   0.957E-04-0.342E-04
CGA:  12    -0.152520512818E+04   -0.21268E-04   -0.22007E-04   624   0.960E-04-0.132E-04
CGA:  13    -0.152520515009E+04   -0.21911E-04   -0.22524E-04   624   0.597E-04 0.886E-05
CGA:  14    -0.152520517019E+04   -0.20102E-04   -0.20303E-04   624   0.345E-04 0.811E-05
CGA:  15    -0.152520517677E+04   -0.65801E-05   -0.84387E-05   624   0.193E-04 0.156E-04
   8 F= -.15252052E+04 E0= -.15252052E+04  d E =-.216489E-01  mag=    16.0000
       N       E                     dE             d eps       ncg     rms          ort
SDA:   1    -0.152453356753E+04    0.67160E+00    0.00000E+00   624   0.169E+01 0.000E+00
CGA:   2    -0.152507742009E+04   -0.54385E+00   -0.54386E+00   624   0.557E+00-0.237E-02
CGA:   3    -0.152519189355E+04   -0.11447E+00   -0.11449E+00   624   0.115E+00 0.694E-04
CGA:   4    -0.152521264588E+04   -0.20752E-01   -0.20869E-01   624   0.226E-01 0.927E-03
CGA:   5    -0.152521740766E+04   -0.47618E-02   -0.47762E-02   624   0.550E-02 0.153E-03
CGA:   6    -0.152521876044E+04   -0.13528E-02   -0.13507E-02   624   0.165E-02-0.339E-04
CGA:   7    -0.152521922183E+04   -0.46138E-03   -0.46140E-03   624   0.681E-03 0.122E-05
CGA:   8    -0.152521945995E+04   -0.23813E-03   -0.24007E-03   624   0.364E-03-0.364E-04
CGA:   9    -0.152521953414E+04   -0.74189E-04   -0.79794E-04   624   0.124E-03 0.800E-04
CGA:  10    -0.152521957515E+04   -0.41008E-04   -0.41422E-04   624   0.516E-04 0.170E-04
CGA:  11    -0.152521959582E+04   -0.20668E-04   -0.20273E-04   624   0.312E-04 0.807E-05
CGA:  12    -0.152521960285E+04   -0.70276E-05   -0.82379E-05   624   0.186E-04 0.170E-04
CGA:  13    -0.152521960951E+04   -0.66620E-05   -0.16788E-04   624   0.808E-04-0.168E-04
CGA:  14    -0.152521961458E+04   -0.50726E-05   -0.10014E-04   624   0.148E-04 0.246E-04
   9 F= -.15252196E+04 E0= -.15252196E+04  d E =-.144378E-01  mag=    16.0000
       N       E                     dE             d eps       ncg     rms          ort
SDA:   1    -0.152394686160E+04    0.12727E+01    0.00000E+00   624   0.308E+01 0.000E+00
CGA:   2    -0.152498460639E+04   -0.10377E+01   -0.10379E+01   624   0.956E+00-0.417E-02
CGA:   3    -0.152518037329E+04   -0.19577E+00   -0.19577E+00   624   0.188E+00 0.240E-04
CGA:   4    -0.152521499418E+04   -0.34621E-01   -0.34720E-01   624   0.381E-01 0.893E-03
CGA:   5    -0.152522308659E+04   -0.80924E-02   -0.81049E-02   624   0.930E-02 0.155E-03
CGA:   6    -0.152522534140E+04   -0.22548E-02   -0.22478E-02   624   0.268E-02-0.132E-03
CGA:   7    -0.152522609140E+04   -0.75000E-03   -0.74975E-03   624   0.108E-02-0.313E-04
CGA:   8    -0.152522645311E+04   -0.36172E-03   -0.36418E-03   624   0.527E-03-0.496E-04
CGA:   9    -0.152522658917E+04   -0.13606E-03   -0.13709E-03   624   0.186E-03 0.501E-04
CGA:  10    -0.152522665198E+04   -0.62807E-04   -0.63001E-04   624   0.928E-04-0.110E-04
CGA:  11    -0.152522668164E+04   -0.29667E-04   -0.29881E-04   624   0.572E-04-0.430E-05
CGA:  12    -0.152522670491E+04   -0.23263E-04   -0.24329E-04   624   0.564E-04-0.711E-05
CGA:  13    -0.152522672731E+04   -0.22401E-04   -0.24321E-04   624   0.631E-04-0.103E-04
CGA:  14    -0.152522673953E+04   -0.12227E-04   -0.12939E-04   624   0.283E-04 0.115E-04
CGA:  15    -0.152522674777E+04   -0.82405E-05   -0.87158E-05   624   0.151E-04 0.957E-05
  10 F= -.15252267E+04 E0= -.15252267E+04  d E =-.713319E-02  mag=    16.0000
       N       E                     dE             d eps       ncg     rms          ort
SDA:   1    -0.151940264777E+04    0.58241E+01    0.00000E+00   624   0.137E+02 0.000E+00
CGA:   2    -0.152420418606E+04   -0.48015E+01   -0.48023E+01   624   0.395E+01-0.119E-01
CGA:   3    -0.152502180010E+04   -0.81761E+00   -0.81765E+00   624   0.776E+00-0.179E-02
CGA:   4    -0.152516437139E+04   -0.14257E+00   -0.14280E+00   624   0.160E+00 0.369E-02
CGA:   5    -0.152519951924E+04   -0.35148E-01   -0.35160E-01   624   0.392E-01 0.205E-03
CGA:   6    -0.152520898650E+04   -0.94673E-02   -0.94639E-02   624   0.115E-01-0.645E-04
CGA:   7    -0.152521224720E+04   -0.32607E-02   -0.32603E-02   624   0.471E-02-0.896E-04
CGA:   8    -0.152521374979E+04   -0.15026E-02   -0.15052E-02   624   0.204E-02-0.761E-04
CGA:   9    -0.152521428266E+04   -0.53288E-03   -0.53695E-03   624   0.691E-03 0.183E-03
CGA:  10    -0.152521451978E+04   -0.23711E-03   -0.24029E-03   624   0.370E-03-0.104E-03
CGA:  11    -0.152521458253E+04   -0.62751E-04   -0.67878E-04   624   0.140E-03 0.695E-04
CGA:  12    -0.152521463916E+04   -0.56638E-04   -0.56029E-04   624   0.117E-03 0.124E-04
CGA:  13    -0.152521466251E+04   -0.23344E-04   -0.10540E-03   624   0.766E-03-0.150E-03
CGA:  14    -0.152521473884E+04   -0.76331E-04   -0.10068E-03   624   0.124E-03 0.136E-03
CGA:  15    -0.152521477143E+04   -0.32586E-04   -0.34815E-04   624   0.491E-04 0.323E-04
CGA:  16    -0.152521479252E+04   -0.21093E-04   -0.24986E-04   624   0.126E-03-0.388E-04
CGA:  17    -0.152521479646E+04   -0.39433E-05   -0.12923E-04   624   0.280E-04 0.443E-04
  11 F= -.15252148E+04 E0= -.15252148E+04  d E =0.119513E-01  mag=    16.0000
       N       E                     dE             d eps       ncg     rms          ort
SDA:   1    -0.152420543461E+04    0.10094E+01    0.00000E+00   624   0.245E+01 0.000E+00
CGA:   2    -0.152501420147E+04   -0.80877E+00   -0.80886E+00   624   0.869E+00-0.163E-02
CGA:   3    -0.152518649368E+04   -0.17229E+00   -0.17220E+00   624   0.174E+00-0.664E-03
CGA:   4    -0.152521947337E+04   -0.32980E-01   -0.33040E-01   624   0.342E-01 0.859E-03
CGA:   5    -0.152522673721E+04   -0.72638E-02   -0.72943E-02   624   0.891E-02 0.444E-03
CGA:   6    -0.152522896634E+04   -0.22291E-02   -0.22241E-02   624   0.293E-02-0.155E-03
CGA:   7    -0.152522977702E+04   -0.81068E-03   -0.81104E-03   624   0.115E-02-0.738E-04
CGA:   8    -0.152523014273E+04   -0.36571E-03   -0.36677E-03   624   0.503E-03-0.199E-04
CGA:   9    -0.152523028893E+04   -0.14620E-03   -0.14605E-03   624   0.198E-03 0.102E-04
CGA:  10    -0.152523034546E+04   -0.56523E-04   -0.56528E-04   624   0.858E-04 0.824E-05
CGA:  11    -0.152523036506E+04   -0.19599E-04   -0.66899E-04   624   0.354E-03-0.101E-03
CGA:  12    -0.152523041003E+04   -0.44974E-04   -0.52167E-04   624   0.619E-04 0.476E-04
CGA:  13    -0.152523043060E+04   -0.20568E-04   -0.20579E-04   624   0.283E-04 0.386E-05
CGA:  14    -0.152523044692E+04   -0.16326E-04   -0.18369E-04   624   0.520E-04-0.652E-05
CGA:  15    -0.152523045296E+04   -0.60321E-05   -0.76358E-05   624   0.393E-04 0.134E-04
CGA:  16    -0.152523046386E+04   -0.10899E-04   -0.11902E-04   624   0.382E-04 0.156E-04
CGA:  17    -0.152523048358E+04   -0.19730E-04   -0.20037E-04   624   0.459E-04-0.397E-05
CGA:  18    -0.152523049224E+04   -0.86513E-05   -0.95985E-05   624   0.457E-04 0.132E-04
CGA:  19    -0.152523050028E+04   -0.80417E-05   -0.10805E-04   624   0.283E-04 0.234E-04
CGA:  20    -0.152523051178E+04   -0.11501E-04   -0.13110E-04   624   0.363E-04-0.960E-05
CGA:  21    -0.152523051409E+04   -0.23117E-05   -0.32759E-05   624   0.140E-04 0.583E-05
  12 F= -.15252305E+04 E0= -.15252305E+04  d E =-.157176E-01  mag=    16.0000
       N       E                     dE             d eps       ncg     rms          ort
SDA:   1    -0.152449621370E+04    0.73430E+00    0.00000E+00   624   0.176E+01 0.000E+00
CGA:   2    -0.152511092111E+04   -0.61471E+00   -0.61458E+00   624   0.505E+00 0.208E-02
CGA:   3    -0.152521600077E+04   -0.10508E+00   -0.10498E+00   624   0.987E-01-0.771E-03
CGA:   4    -0.152523473727E+04   -0.18737E-01   -0.18656E-01   624   0.209E-01-0.773E-03
CGA:   5    -0.152523922349E+04   -0.44862E-02   -0.44735E-02   624   0.510E-02-0.188E-03
CGA:   6    -0.152524041017E+04   -0.11867E-02   -0.11870E-02   624   0.144E-02 0.926E-05
CGA:   7    -0.152524083604E+04   -0.42587E-03   -0.42749E-03   624   0.637E-03-0.773E-04
CGA:   8    -0.152524102955E+04   -0.19351E-03   -0.19507E-03   624   0.277E-03-0.324E-04
CGA:   9    -0.152524111835E+04   -0.88796E-04   -0.13166E-03   624   0.384E-03-0.192E-03
CGA:  10    -0.152524116766E+04   -0.49313E-04   -0.54724E-04   624   0.490E-04 0.381E-04
CGA:  11    -0.152524118010E+04   -0.12436E-04   -0.12776E-04   624   0.150E-04 0.757E-05
CGA:  12    -0.152524118783E+04   -0.77317E-05   -0.96011E-05   624   0.262E-04-0.685E-05
  13 F= -.15252412E+04 E0= -.15252412E+04  d E =-.106737E-01  mag=    16.0000
       N       E                     dE             d eps       ncg     rms          ort
SDA:   1    -0.152512999905E+04    0.11118E+00    0.00000E+00   624   0.268E+00 0.000E+00
CGA:   2    -0.152522163776E+04   -0.91639E-01   -0.91607E-01   624   0.848E-01 0.570E-03
CGA:   3    -0.152523881510E+04   -0.17177E-01   -0.17155E-01   624   0.170E-01-0.224E-03
CGA:   4    -0.152524201793E+04   -0.32028E-02   -0.31789E-02   624   0.364E-02-0.237E-03
CGA:   5    -0.152524276480E+04   -0.74687E-03   -0.74710E-03   624   0.864E-03 0.406E-05
CGA:   6    -0.152524296664E+04   -0.20185E-03   -0.20271E-03   624   0.244E-03 0.211E-04
CGA:   7    -0.152524303183E+04   -0.65186E-04   -0.65451E-04   624   0.901E-04 0.219E-04
CGA:   8    -0.152524305949E+04   -0.27660E-04   -0.27520E-04   624   0.366E-04 0.191E-04
CGA:   9    -0.152524307709E+04   -0.17600E-04   -0.18606E-04   624   0.289E-04-0.686E-05
CGA:  10    -0.152524307926E+04   -0.21638E-05   -0.34717E-05   624   0.132E-04 0.986E-05
  14 F= -.15252431E+04 E0= -.15252431E+04  d E =-.189143E-02  mag=    16.0000
       N       E                     dE             d eps       ncg     rms          ort
SDA:   1    -0.152400204787E+04    0.12410E+01    0.00000E+00   624   0.292E+01 0.000E+00
CGA:   2    -0.152502645686E+04   -0.10244E+01   -0.10244E+01   624   0.883E+00-0.108E-03
CGA:   3    -0.152520514732E+04   -0.17869E+00   -0.17857E+00   624   0.165E+00-0.145E-02
CGA:   4    -0.152523563504E+04   -0.30488E-01   -0.30524E-01   624   0.355E-01 0.490E-03
CGA:   5    -0.152524307388E+04   -0.74388E-02   -0.74438E-02   624   0.849E-02 0.979E-04
CGA:   6    -0.152524507103E+04   -0.19971E-02   -0.19979E-02   624   0.235E-02 0.304E-04
CGA:   7    -0.152524573343E+04   -0.66240E-03   -0.66153E-03   624   0.919E-03 0.421E-04
CGA:   8    -0.152524603788E+04   -0.30445E-03   -0.30212E-03   624   0.406E-03 0.376E-04
CGA:   9    -0.152524615324E+04   -0.11536E-03   -0.11473E-03   624   0.143E-03 0.753E-04
CGA:  10    -0.152524621031E+04   -0.57066E-04   -0.57425E-04   624   0.829E-04-0.456E-05
CGA:  11    -0.152524621905E+04   -0.87378E-05   -0.13117E-04   624   0.414E-04 0.422E-04
  15 F= -.15252462E+04 E0= -.15252462E+04  d E =-.313979E-02  mag=    16.0000
       N       E                     dE             d eps       ncg     rms          ort
SDA:   1    -0.151923247837E+04    0.60137E+01    0.00000E+00   624   0.145E+02 0.000E+00
CGA:   2    -0.152343900240E+04   -0.42065E+01   -0.42073E+01   624   0.598E+01-0.133E-01
CGA:   3    -0.152464636368E+04   -0.12074E+01   -0.12071E+01   624   0.129E+01-0.557E-02
CGA:   4    -0.152489000699E+04   -0.24364E+00   -0.24382E+00   624   0.261E+00 0.820E-02
CGA:   5    -0.152494462324E+04   -0.54616E-01   -0.54692E-01   624   0.673E-01 0.167E-02
CGA:   6    -0.152496183550E+04   -0.17212E-01   -0.17213E-01   624   0.246E-01-0.113E-02
CGA:   7    -0.152496830014E+04   -0.64646E-02   -0.64560E-02   624   0.913E-02 0.676E-03
CGA:   8    -0.152497132306E+04   -0.30229E-02   -0.30288E-02   624   0.465E-02-0.819E-04
CGA:   9    -0.152497249079E+04   -0.11677E-02   -0.11699E-02   624   0.178E-02 0.603E-03
CGA:  10    -0.152497315746E+04   -0.66667E-03   -0.66753E-03   624   0.944E-03-0.120E-04
CGA:  11    -0.152497349504E+04   -0.33759E-03   -0.32491E-03   624   0.561E-03 0.148E-03
CGA:  12    -0.152497374000E+04   -0.24496E-03   -0.22693E-03   624   0.379E-03 0.213E-03
CGA:  13    -0.152497400821E+04   -0.26820E-03   -0.24144E-03   624   0.372E-03 0.136E-03
CGA:  14    -0.152497417722E+04   -0.16901E-03   -0.15985E-03   624   0.251E-03 0.246E-03
CGA:  15    -0.152497429514E+04   -0.11793E-03   -0.15728E-03   624   0.530E-03-0.114E-03
CGA:  16    -0.152497431792E+04   -0.22779E-04   -0.38652E-04   624   0.378E-03 0.972E-04
CGA:  17    -0.152497436538E+04   -0.47460E-04   -0.65628E-04   624   0.285E-03 0.129E-03
CGA:  18    -0.152497450266E+04   -0.13728E-03   -0.14273E-03   624   0.403E-03-0.611E-04
CGA:  19    -0.152497459075E+04   -0.88086E-04   -0.83331E-04   624   0.644E-03-0.192E-03
CGA:  20    -0.152497464507E+04   -0.54325E-04   -0.54215E-04   624   0.817E-03 0.245E-05
CGA:  21    -0.152497472628E+04   -0.81210E-04   -0.10815E-03   624   0.399E-03 0.191E-03
CGA:  22    -0.152497477599E+04   -0.49702E-04   -0.65590E-04   624   0.240E-03 0.116E-03
CGA:  23    -0.152497484728E+04   -0.71295E-04   -0.70273E-04   624   0.164E-03-0.266E-04
CGA:  24    -0.152497487553E+04   -0.28245E-04   -0.24988E-04   624   0.101E-03-0.349E-04
CGA:  25    -0.152497487701E+04   -0.14833E-05   -0.75472E-05   624   0.825E-04 0.369E-04
  16 F= -.15249749E+04 E0= -.15249749E+04  d E =0.271342E+00  mag=    16.0000
       N       E                     dE             d eps       ncg     rms          ort
SDA:   1    -0.152310387573E+04    0.18710E+01    0.00000E+00   624   0.511E+01 0.000E+00
CGA:   2    -0.152470332940E+04   -0.15995E+01   -0.15980E+01   624   0.204E+01 0.164E-01
CGA:   3    -0.152510026344E+04   -0.39693E+00   -0.39663E+00   624   0.486E+00-0.408E-02
CGA:   4    -0.152520111783E+04   -0.10085E+00   -0.10073E+00   624   0.884E-01-0.255E-02
CGA:   5    -0.152522026209E+04   -0.19144E-01   -0.19133E-01   624   0.278E-01-0.441E-03
CGA:   6    -0.152522701783E+04   -0.67557E-02   -0.67531E-02   624   0.920E-02 0.685E-03
CGA:   7    -0.152522976598E+04   -0.27481E-02   -0.27574E-02   624   0.355E-02-0.174E-03
CGA:   8    -0.152523093637E+04   -0.11704E-02   -0.12457E-02   624   0.207E-02-0.659E-03
CGA:   9    -0.152523131726E+04   -0.38089E-03   -0.38063E-03   624   0.640E-03-0.337E-05
CGA:  10    -0.152523152277E+04   -0.20551E-03   -0.23678E-03   624   0.465E-03-0.253E-03
CGA:  11    -0.152523159929E+04   -0.76518E-04   -0.77318E-04   624   0.238E-03-0.366E-04
CGA:  12    -0.152523167489E+04   -0.75595E-04   -0.85736E-04   624   0.239E-03-0.744E-04
CGA:  13    -0.152523162598E+04    0.48910E-04   -0.13357E-03   624   0.104E-02-0.332E-03
CGA:  14    -0.152523177584E+04   -0.14987E-03   -0.17337E-03   624   0.212E-03 0.195E-03
CGA:  15    -0.152523185082E+04   -0.74977E-04   -0.75715E-04   624   0.609E-04-0.406E-04
CGA:  16    -0.152523185574E+04   -0.49183E-05   -0.80874E-05   624   0.294E-04 0.265E-04
  17 F= -.15252319E+04 E0= -.15252319E+04  d E =-.256979E+00  mag=    16.0000
       N       E                     dE             d eps       ncg     rms          ort
SDA:   1    -0.152520394796E+04    0.27903E-01    0.00000E+00   624   0.919E-01 0.000E+00
CGA:   2    -0.152522918056E+04   -0.25233E-01   -0.25232E-01   624   0.388E-01 0.243E-03
CGA:   3    -0.152523725408E+04   -0.80735E-02   -0.80717E-02   624   0.870E-02-0.263E-04
CGA:   4    -0.152523898855E+04   -0.17345E-02   -0.17098E-02   624   0.203E-02-0.344E-03
CGA:   5    -0.152523939875E+04   -0.41020E-03   -0.40504E-03   624   0.517E-03-0.904E-04
CGA:   6    -0.152523950354E+04   -0.10479E-03   -0.10720E-03   624   0.149E-03 0.543E-04
CGA:   7    -0.152523954249E+04   -0.38949E-04   -0.39598E-04   624   0.545E-04 0.356E-04
CGA:   8    -0.152523957003E+04   -0.27540E-04   -0.29556E-04   624   0.587E-04-0.112E-04
CGA:   9    -0.152523958449E+04   -0.14467E-04   -0.15021E-04   624   0.391E-04-0.999E-05
CGA:  10    -0.152523959584E+04   -0.11346E-04   -0.15334E-04   624   0.519E-04-0.197E-04
CGA:  11    -0.152523960764E+04   -0.11805E-04   -0.12260E-04   624   0.156E-04 0.104E-04
CGA:  12    -0.152523961419E+04   -0.65490E-05   -0.61173E-05   624   0.948E-05 0.881E-05
  18 F= -.15252396E+04 E0= -.15252396E+04  d E =-.775845E-02  mag=    16.0000
       N       E                     dE             d eps       ncg     rms          ort
SDA:   1    -0.152510159787E+04    0.13801E+00    0.00000E+00   624   0.391E+00 0.000E+00
CGA:   2    -0.152520575579E+04   -0.10416E+00   -0.10416E+00   624   0.169E+00-0.108E-03
CGA:   3    -0.152524124510E+04   -0.35489E-01   -0.35502E-01   624   0.375E-01 0.191E-03
CGA:   4    -0.152524825122E+04   -0.70061E-02   -0.69615E-02   624   0.788E-02-0.474E-03
CGA:   5    -0.152524985796E+04   -0.16067E-02   -0.16020E-02   624   0.193E-02-0.716E-04
CGA:   6    -0.152525032140E+04   -0.46344E-03   -0.46448E-03   624   0.633E-03 0.397E-04
CGA:   7    -0.152525051128E+04   -0.18989E-03   -0.18993E-03   624   0.256E-03-0.155E-05
CGA:   8    -0.152525060038E+04   -0.89098E-04   -0.89499E-04   624   0.133E-03-0.491E-05
CGA:   9    -0.152525061778E+04   -0.17397E-04   -0.10307E-03   624   0.503E-03-0.165E-03
CGA:  10    -0.152525067764E+04   -0.59858E-04   -0.73799E-04   624   0.765E-04 0.928E-04
CGA:  11    -0.152525070503E+04   -0.27391E-04   -0.27428E-04   624   0.466E-04-0.318E-05
CGA:  12    -0.152525071813E+04   -0.13102E-04   -0.13087E-04   624   0.316E-04 0.128E-04
CGA:  13    -0.152525072653E+04   -0.84001E-05   -0.94212E-05   624   0.204E-04 0.178E-04
CGA:  14    -0.152525073955E+04   -0.13019E-04    0.28336E-04   624   0.114E-04 0.720E-05
CGA:  15    -0.152525074335E+04   -0.38050E-05   -0.40739E-05   624   0.968E-05 0.105E-04
  19 F= -.15252507E+04 E0= -.15252507E+04  d E =-.111292E-01  mag=    16.0000
       N       E                     dE             d eps       ncg     rms          ort
SDA:   1    -0.152523532456E+04    0.15415E-01    0.00000E+00   624   0.495E-01 0.000E+00
CGA:   2    -0.152524697256E+04   -0.11648E-01   -0.11514E-01   624   0.216E-01-0.479E-03
CGA:   3    -0.152525145351E+04   -0.44810E-02   -0.45507E-02   624   0.483E-02 0.278E-03
CGA:   4    -0.152525240045E+04   -0.94694E-03   -0.93862E-03   624   0.901E-03-0.246E-04
CGA:   5    -0.152525256701E+04   -0.16656E-03   -0.17816E-03   624   0.231E-03 0.412E-04
CGA:   6    -0.152525261679E+04   -0.49787E-04   -0.53690E-04   624   0.809E-04 0.160E-04
CGA:   7    -0.152525265358E+04   -0.36784E-04   -0.35736E-04   624   0.785E-04-0.255E-04
CGA:   8    -0.152525265807E+04   -0.44871E-05   -0.94120E-05   624   0.433E-04 0.179E-04
  20 F= -.15252527E+04 E0= -.15252527E+04  d E =-.191471E-02  mag=    16.0000
       N       E                     dE             d eps       ncg     rms          ort
SDA:   1    -0.152518147790E+04    0.71176E-01    0.00000E+00   624   0.200E+00 0.000E+00
CGA:   2    -0.152523209948E+04   -0.50622E-01   -0.50593E-01   624   0.826E-01-0.159E-03
CGA:   3    -0.152524997440E+04   -0.17875E-01   -0.17892E-01   624   0.188E-01 0.919E-04
CGA:   4    -0.152525326490E+04   -0.32905E-02   -0.33238E-02   624   0.359E-02 0.148E-03
CGA:   5    -0.152525398562E+04   -0.72072E-03   -0.73399E-03   624   0.860E-03 0.688E-04
CGA:   6    -0.152525421180E+04   -0.22617E-03   -0.22504E-03   624   0.309E-03-0.860E-05
CGA:   7    -0.152525430657E+04   -0.94777E-04   -0.94050E-04   624   0.145E-03-0.101E-04
CGA:   8    -0.152525435812E+04   -0.51543E-04   -0.51546E-04   624   0.839E-04 0.311E-06
CGA:   9    -0.152525437481E+04   -0.16690E-04   -0.20767E-04   624   0.361E-04 0.319E-04
CGA:  10    -0.152525438815E+04   -0.13348E-04   -0.14543E-04   624   0.238E-04 0.156E-04
CGA:  11    -0.152525440116E+04   -0.13006E-04   -0.12854E-04   624   0.226E-04 0.126E-04
CGA:  12    -0.152525440568E+04   -0.45245E-05   -0.56868E-05   624   0.107E-04 0.102E-04
  21 F= -.15252544E+04 E0= -.15252544E+04  d E =-.174762E-02  mag=    16.0000
       N       E                     dE             d eps       ncg     rms          ort
SDA:   1    -0.152523614521E+04    0.18256E-01    0.00000E+00   624   0.479E-01 0.000E+00
CGA:   2    -0.152525060440E+04   -0.14459E-01   -0.14471E-01   624   0.168E-01 0.177E-03
CGA:   3    -0.152525417788E+04   -0.35735E-02   -0.35628E-02   624   0.360E-02-0.664E-04
CGA:   4    -0.152525482482E+04   -0.64694E-03   -0.65402E-03   624   0.710E-03 0.412E-04
CGA:   5    -0.152525496633E+04   -0.14151E-03   -0.14522E-03   624   0.176E-03 0.251E-04
CGA:   6    -0.152525500674E+04   -0.40408E-04   -0.42708E-04   624   0.582E-04 0.212E-04
CGA:   7    -0.152525502287E+04   -0.16134E-04   -0.17224E-04   624   0.287E-04 0.149E-04
CGA:   8    -0.152525502897E+04   -0.60999E-05   -0.81240E-05   624   0.172E-04 0.186E-04
  22 F= -.15252550E+04 E0= -.15252550E+04  d E =-.623285E-03  mag=    16.0000
       N       E                     dE             d eps       ncg     rms          ort
SDA:   1    -0.152495926762E+04    0.29576E+00    0.00000E+00   624   0.719E+00 0.000E+00
CGA:   2    -0.152519229469E+04   -0.23303E+00   -0.23303E+00   624   0.253E+00-0.114E-02
CGA:   3    -0.152524247023E+04   -0.50176E-01   -0.50204E-01   624   0.497E-01 0.314E-03
CGA:   4    -0.152525173259E+04   -0.92624E-02   -0.92647E-02   624   0.101E-01 0.425E-04
CGA:   5    -0.152525378435E+04   -0.20518E-02   -0.20706E-02   624   0.233E-02 0.185E-03
CGA:   6    -0.152525439531E+04   -0.61096E-03   -0.60749E-03   624   0.762E-03-0.728E-04
CGA:   7    -0.152525461748E+04   -0.22217E-03   -0.22218E-03   624   0.365E-03-0.542E-04
CGA:   8    -0.152525470718E+04   -0.89695E-04   -0.91310E-04   624   0.144E-03 0.518E-04
CGA:   9    -0.152525476579E+04   -0.58618E-04   -0.58989E-04   624   0.913E-04-0.596E-05
CGA:  10    -0.152525478351E+04   -0.17714E-04   -0.19794E-04   624   0.396E-04 0.273E-04
CGA:  11    -0.152525480275E+04   -0.19241E-04   -0.19289E-04   624   0.404E-04-0.694E-06
CGA:  12    -0.152525482008E+04   -0.17335E-04   -0.27322E-04   624   0.126E-03-0.259E-04
CGA:  13    -0.152525482922E+04   -0.91406E-05   -0.17603E-04   624   0.344E-04 0.468E-04
  23 F= -.15252548E+04 E0= -.15252548E+04  d E =0.199745E-03  mag=    16.0000
       N       E                     dE             d eps       ncg     rms          ort
SDA:   1    -0.152510129527E+04    0.15352E+00    0.00000E+00   624   0.366E+00 0.000E+00
CGA:   2    -0.152521773869E+04   -0.11644E+00   -0.11643E+00   624   0.147E+00 0.125E-02
CGA:   3    -0.152524549540E+04   -0.27757E-01   -0.27633E-01   624   0.314E-01-0.102E-02
CGA:   4    -0.152525137519E+04   -0.58798E-02   -0.59383E-02   624   0.554E-02 0.651E-03
CGA:   5    -0.152525264373E+04   -0.12685E-02   -0.12687E-02   624   0.156E-02 0.396E-05
CGA:   6    -0.152525299425E+04   -0.35051E-03   -0.35622E-03   624   0.480E-03 0.899E-04
CGA:   7    -0.152525311079E+04   -0.11655E-03   -0.12090E-03   624   0.160E-03 0.867E-04
CGA:   8    -0.152525316786E+04   -0.57062E-04   -0.56670E-04   624   0.865E-04 0.267E-04
CGA:   9    -0.152525317112E+04   -0.32686E-05   -0.12902E-04   624   0.399E-04 0.608E-04
  24 F= -.15252532E+04 E0= -.15252532E+04  d E =0.165810E-02  mag=    16.0000
       N       E                     dE             d eps       ncg     rms          ort
SDA:   1    -0.152521626996E+04    0.36898E-01    0.00000E+00   624   0.101E+00 0.000E+00
CGA:   2    -0.152524627300E+04   -0.30003E-01   -0.29990E-01   624   0.396E-01 0.557E-03
CGA:   3    -0.152525449529E+04   -0.82223E-02   -0.81914E-02   624   0.890E-02-0.461E-03
CGA:   4    -0.152525624085E+04   -0.17456E-02   -0.17332E-02   624   0.183E-02-0.160E-03
CGA:   5    -0.152525661026E+04   -0.36941E-03   -0.37002E-03   624   0.486E-03 0.108E-04
CGA:   6    -0.152525673182E+04   -0.12156E-03   -0.12158E-03   624   0.175E-03 0.185E-05
CGA:   7    -0.152525677056E+04   -0.38732E-04   -0.40015E-04   624   0.566E-04 0.376E-04
CGA:   8    -0.152525678817E+04   -0.17611E-04   -0.17673E-04   624   0.283E-04 0.206E-04
CGA:   9    -0.152525680421E+04   -0.16043E-04   -0.16692E-04   624   0.309E-04-0.381E-05
CGA:  10    -0.152525680575E+04   -0.15402E-05   -0.35462E-05   624   0.206E-04 0.148E-04
  25 F= -.15252568E+04 E0= -.15252568E+04  d E =-.363463E-02  mag=    16.0000
       N       E                     dE             d eps       ncg     rms          ort
SDA:   1    -0.152514324692E+04    0.11356E+00    0.00000E+00   624   0.271E+00 0.000E+00
CGA:   2    -0.152523532358E+04   -0.92077E-01   -0.92128E-01   624   0.959E-01-0.589E-03
CGA:   3    -0.152525381003E+04   -0.18486E-01   -0.18470E-01   624   0.172E-01-0.238E-03
CGA:   4    -0.152525701503E+04   -0.32050E-02   -0.31969E-02   624   0.380E-02-0.113E-03
CGA:   5    -0.152525777235E+04   -0.75731E-03   -0.76193E-03   624   0.852E-03 0.940E-04
CGA:   6    -0.152525798374E+04   -0.21139E-03   -0.21137E-03   624   0.255E-03-0.411E-05
CGA:   7    -0.152525806026E+04   -0.76514E-04   -0.77472E-04   624   0.123E-03-0.170E-04
CGA:   8    -0.152525808628E+04   -0.26026E-04   -0.26655E-04   624   0.472E-04 0.338E-04
CGA:   9    -0.152525810816E+04   -0.21881E-04   -0.22014E-04   624   0.380E-04-0.119E-05
CGA:  10    -0.152525811452E+04   -0.63531E-05   -0.73141E-05   624   0.217E-04 0.163E-04
  26 F= -.15252581E+04 E0= -.15252581E+04  d E =-.130877E-02  mag=    16.0000
       N       E                     dE             d eps       ncg     rms          ort
SDA:   1    -0.151770667316E+04    0.75514E+01    0.00000E+00   624   0.186E+02 0.000E+00
CGA:   2    -0.152281871326E+04   -0.51120E+01   -0.51119E+01   624   0.830E+01 0.159E-02
CGA:   3    -0.152452125637E+04   -0.17025E+01   -0.17022E+01   624   0.172E+01-0.506E-02
CGA:   4    -0.152483535698E+04   -0.31410E+00   -0.31434E+00   624   0.353E+00 0.374E-02
CGA:   5    -0.152490816245E+04   -0.72805E-01   -0.72874E-01   624   0.875E-01 0.183E-02
CGA:   6    -0.152492958287E+04   -0.21420E-01   -0.21421E-01   624   0.281E-01-0.203E-03
CGA:   7    -0.152493734091E+04   -0.77580E-02   -0.77700E-02   624   0.987E-02-0.330E-03
CGA:   8    -0.152494029433E+04   -0.29534E-02   -0.29331E-02   624   0.377E-02 0.360E-03
CGA:   9    -0.152494144803E+04   -0.11537E-02   -0.11401E-02   624   0.137E-02 0.306E-03
CGA:  10    -0.152494187387E+04   -0.42585E-03   -0.42119E-03   624   0.571E-03 0.134E-03
CGA:  11    -0.152494206322E+04   -0.18934E-03   -0.18434E-03   624   0.306E-03 0.114E-03
CGA:  12    -0.152494217683E+04   -0.11361E-03   -0.10732E-03   624   0.197E-03 0.157E-03
CGA:  13    -0.152494224331E+04   -0.66481E-04   -0.61273E-04   624   0.121E-03 0.922E-04
CGA:  14    -0.152494230825E+04   -0.64937E-04   -0.57076E-04   624   0.111E-03 0.122E-03
CGA:  15    -0.152494234335E+04   -0.35102E-04   -0.32774E-04   624   0.900E-04 0.673E-04
CGA:  16    -0.152494238394E+04   -0.40584E-04   -0.35538E-04   624   0.148E-03 0.377E-04
CGA:  17    -0.152494246105E+04   -0.77113E-04   -0.67981E-04   624   0.615E-04 0.165E-03
CGA:  18    -0.152494248454E+04   -0.23495E-04   -0.20494E-04   624   0.565E-04 0.484E-04
CGA:  19    -0.152494250631E+04   -0.21763E-04   -0.19097E-04   624   0.602E-04 0.417E-04
CGA:  20    -0.152494252275E+04   -0.16442E-04   -0.16542E-04   624   0.632E-04 0.318E-04
CGA:  21    -0.152494253698E+04   -0.14230E-04   -0.15231E-04   624   0.600E-04 0.271E-04
CGA:  22    -0.152494257596E+04   -0.38983E-04   -0.31550E-04   624   0.530E-04 0.792E-04
CGA:  23    -0.152494258982E+04   -0.13855E-04   -0.14131E-04   624   0.554E-04 0.194E-04
CGA:  24    -0.152494262658E+04   -0.36767E-04   -0.29239E-04   624   0.432E-04 0.694E-04
CGA:  25    -0.152494263407E+04   -0.74913E-05   -0.91592E-05   624   0.350E-04 0.226E-04
CGA:  26    -0.152494264945E+04   -0.15377E-04   -0.13453E-04   624   0.493E-04 0.185E-04
CGA:  27    -0.152494265561E+04   -0.61607E-05   -0.84561E-05   624   0.301E-04 0.200E-04
CGA:  28    -0.152494266921E+04   -0.13593E-04   -0.12795E-04   624   0.447E-04 0.373E-04
CGA:  29    -0.152494268111E+04   -0.11900E-04   -0.11944E-04   624   0.485E-04 0.304E-05
CGA:  30    -0.152494270644E+04   -0.25334E-04   -0.20096E-04   624   0.418E-04 0.482E-04
CGA:  31    -0.152494271051E+04   -0.40749E-05   -0.63763E-05   624   0.217E-04 0.172E-04
  27 F= -.15249427E+04 E0= -.15249427E+04  d E =0.315404E+00  mag=    16.0000
       N       E                     dE             d eps       ncg     rms          ort
SDA:   1    -0.152079771747E+04    0.41450E+01    0.00000E+00   624   0.113E+02 0.000E+00
CGA:   2    -0.152397574247E+04   -0.31780E+01   -0.31780E+01   624   0.476E+01 0.904E-02
CGA:   3    -0.152495487049E+04   -0.97913E+00   -0.97874E+00   624   0.108E+01-0.810E-02
CGA:   4    -0.152516423097E+04   -0.20936E+00   -0.20904E+00   624   0.235E+00-0.277E-02
CGA:   5    -0.152521249282E+04   -0.48262E-01   -0.48244E-01   624   0.593E-01-0.236E-03
CGA:   6    -0.152522724409E+04   -0.14751E-01   -0.14758E-01   624   0.203E-01 0.355E-03
CGA:   7    -0.152523281877E+04   -0.55747E-02   -0.55724E-02   624   0.690E-02 0.410E-03
CGA:   8    -0.152523510916E+04   -0.22904E-02   -0.23148E-02   624   0.304E-02-0.395E-03
CGA:   9    -0.152523597269E+04   -0.86354E-03   -0.87305E-03   624   0.122E-02-0.271E-03
CGA:  10    -0.152523627871E+04   -0.30601E-03   -0.30640E-03   624   0.478E-03-0.144E-03
CGA:  11    -0.152523640292E+04   -0.12422E-03   -0.12591E-03   624   0.230E-03-0.636E-04
CGA:  12    -0.152523647266E+04   -0.69735E-04   -0.11554E-03   624   0.435E-03-0.150E-03
CGA:  13    -0.152523655293E+04   -0.80278E-04   -0.78942E-04   624   0.124E-03-0.997E-05
CGA:  14    -0.152523659655E+04   -0.43617E-04   -0.51024E-04   624   0.134E-03-0.541E-04
CGA:  15    -0.152523618475E+04    0.41181E-03   -0.22153E-03   624   0.259E-02-0.354E-03
CGA:  16    -0.152523659286E+04   -0.40812E-03   -0.41269E-03   624   0.573E-03 0.180E-04
CGA:  17    -0.152523676175E+04   -0.16889E-03   -0.17532E-03   624   0.125E-03 0.322E-04
CGA:  18    -0.152523682241E+04   -0.60657E-04   -0.58466E-04   624   0.781E-04-0.382E-04
CGA:  19    -0.152523684672E+04   -0.24307E-04   -0.22698E-04   624   0.487E-04-0.203E-04
CGA:  20    -0.152523686491E+04   -0.18197E-04   -0.19664E-04   624   0.693E-04-0.290E-04
CGA:  21    -0.152523687722E+04   -0.12302E-04   -0.12839E-04   624   0.175E-04 0.213E-05
CGA:  22    -0.152523688671E+04   -0.94943E-05   -0.12664E-04   624   0.485E-04-0.144E-04
  28 F= -.15252369E+04 E0= -.15252369E+04  d E =-.294176E+00  mag=    16.0000
       N       E                     dE             d eps       ncg     rms          ort
SDA:   1    -0.152519410278E+04    0.42774E-01    0.00000E+00   624   0.140E+00 0.000E+00
CGA:   2    -0.152523779343E+04   -0.43691E-01   -0.43660E-01   624   0.561E-01-0.970E-04
CGA:   3    -0.152524872350E+04   -0.10930E-01   -0.10919E-01   624   0.129E-01-0.553E-05
CGA:   4    -0.152525121121E+04   -0.24877E-02   -0.25330E-02   624   0.245E-02 0.196E-03
CGA:   5    -0.152525175710E+04   -0.54589E-03   -0.54433E-03   624   0.722E-03-0.584E-05
CGA:   6    -0.152525193530E+04   -0.17820E-03   -0.17876E-03   624   0.260E-03 0.318E-05
CGA:   7    -0.152525201205E+04   -0.76748E-04   -0.75298E-04   624   0.100E-03-0.109E-04
CGA:   8    -0.152525204706E+04   -0.35013E-04   -0.34089E-04   624   0.558E-04-0.158E-04
CGA:   9    -0.152525204975E+04   -0.26885E-05   -0.71128E-05   624   0.186E-04 0.171E-04
  29 F= -.15252520E+04 E0= -.15252520E+04  d E =-.151630E-01  mag=    16.0000
       N       E                     dE             d eps       ncg     rms          ort
SDA:   1    -0.152513699717E+04    0.11505E+00    0.00000E+00   624   0.320E+00 0.000E+00
CGA:   2    -0.152522100042E+04   -0.84003E-01   -0.84015E-01   624   0.140E+00 0.239E-03
CGA:   3    -0.152525017644E+04   -0.29176E-01   -0.29129E-01   624   0.306E-01-0.263E-03
CGA:   4    -0.152525570118E+04   -0.55247E-02   -0.55794E-02   624   0.603E-02 0.309E-03
CGA:   5    -0.152525694689E+04   -0.12457E-02   -0.12573E-02   624   0.147E-02 0.761E-04
CGA:   6    -0.152525730965E+04   -0.36276E-03   -0.36177E-03   624   0.495E-03-0.879E-05
CGA:   7    -0.152525744274E+04   -0.13310E-03   -0.13369E-03   624   0.171E-03 0.790E-05
CGA:   8    -0.152525750692E+04   -0.64178E-04   -0.65097E-04   624   0.110E-03-0.299E-04
CGA:   9    -0.152525751508E+04   -0.81544E-05   -0.14622E-04   624   0.422E-04 0.352E-04
  30 F= -.15252575E+04 E0= -.15252575E+04  d E =-.546533E-02  mag=    16.0000
       N       E                     dE             d eps       ncg     rms          ort
SDA:   1    -0.152522804916E+04    0.29458E-01    0.00000E+00   624   0.854E-01 0.000E+00
CGA:   2    -0.152525054753E+04   -0.22498E-01   -0.22484E-01   624   0.365E-01-0.206E-03
CGA:   3    -0.152525814837E+04   -0.76008E-02   -0.75941E-02   624   0.801E-02-0.540E-04
CGA:   4    -0.152525955554E+04   -0.14072E-02   -0.14292E-02   624   0.151E-02 0.160E-03
CGA:   5    -0.152525985293E+04   -0.29739E-03   -0.30513E-03   624   0.342E-03 0.680E-04
CGA:   6    -0.152525994929E+04   -0.96356E-04   -0.95319E-04   624   0.136E-03-0.260E-04
CGA:   7    -0.152525999105E+04   -0.41755E-04   -0.42980E-04   624   0.776E-04-0.338E-04
CGA:   8    -0.152526001199E+04   -0.20942E-04   -0.22889E-04   624   0.547E-04-0.228E-04
CGA:   9    -0.152526001784E+04   -0.58504E-05   -0.72739E-05   624   0.225E-04 0.116E-04
  31 F= -.15252600E+04 E0= -.15252600E+04  d E =-.250276E-02  mag=    16.0000
       N       E                     dE             d eps       ncg     rms          ort
SDA:   1    -0.152521205697E+04    0.47955E-01    0.00000E+00   624   0.132E+00 0.000E+00
CGA:   2    -0.152524764110E+04   -0.35584E-01   -0.35576E-01   624   0.554E-01-0.258E-03
CGA:   3    -0.152525901838E+04   -0.11377E-01   -0.11377E-01   624   0.121E-01 0.712E-06
CGA:   4    -0.152526116831E+04   -0.21499E-02   -0.21679E-02   624   0.231E-02 0.160E-03
CGA:   5    -0.152526161986E+04   -0.45155E-03   -0.45978E-03   624   0.519E-03 0.891E-04
CGA:   6    -0.152526175409E+04   -0.13423E-03   -0.13387E-03   624   0.173E-03-0.101E-04
CGA:   7    -0.152526180792E+04   -0.53830E-04   -0.55179E-04   624   0.849E-04-0.315E-04
CGA:   8    -0.152526183101E+04   -0.23096E-04   -0.23923E-04   624   0.428E-04-0.137E-04
CGA:   9    -0.152526183758E+04   -0.65715E-05   -0.73737E-05   624   0.145E-04 0.978E-05
  32 F= -.15252618E+04 E0= -.15252618E+04  d E =-.181975E-02  mag=    16.0000
       N       E                     dE             d eps       ncg     rms          ort
SDA:   1    -0.152524698162E+04    0.14849E-01    0.00000E+00   624   0.391E-01 0.000E+00
CGA:   2    -0.152525871817E+04   -0.11737E-01   -0.11743E-01   624   0.151E-01-0.329E-03
CGA:   3    -0.152526171142E+04   -0.29932E-02   -0.29949E-02   624   0.315E-02 0.243E-04
CGA:   4    -0.152526226783E+04   -0.55641E-03   -0.56393E-03   624   0.589E-03 0.778E-04
CGA:   5    -0.152526237830E+04   -0.11047E-03   -0.11456E-03   624   0.130E-03 0.497E-04
CGA:   6    -0.152526241618E+04   -0.37876E-04   -0.37882E-04   624   0.505E-04-0.829E-05
CGA:   7    -0.152526243039E+04   -0.14217E-04   -0.23532E-04   624   0.847E-04-0.405E-04
CGA:   8    -0.152526244287E+04   -0.12482E-04   -0.13350E-04   624   0.124E-04 0.718E-05
CGA:   9    -0.152526244658E+04   -0.37086E-05   -0.37073E-05   624   0.480E-05 0.125E-05
CGA:  10    -0.152526242139E+04    0.25193E-04   -0.13579E-04   624   0.154E-03-0.227E-04
CGA:  11    -0.152526245271E+04   -0.31324E-04   -0.28630E-04   624   0.317E-04-0.811E-05
CGA:  12    -0.152526245884E+04   -0.61259E-05   -0.65173E-05   624   0.867E-05 0.161E-05
  33 F= -.15252625E+04 E0= -.15252625E+04  d E =-.621256E-03  mag=    16.0000
       N       E                     dE             d eps       ncg     rms          ort
SDA:   1    -0.152520862190E+04    0.53831E-01    0.00000E+00   624   0.139E+00 0.000E+00
CGA:   2    -0.152524938532E+04   -0.40763E-01   -0.40680E-01   624   0.543E-01-0.442E-03
CGA:   3    -0.152526032942E+04   -0.10944E-01   -0.10988E-01   624   0.110E-01 0.185E-03
CGA:   4    -0.152526227438E+04   -0.19450E-02   -0.19836E-02   624   0.218E-02 0.144E-03
CGA:   5    -0.152526269122E+04   -0.41684E-03   -0.43353E-03   624   0.495E-03 0.685E-04
CGA:   6    -0.152526281678E+04   -0.12557E-03   -0.12504E-03   624   0.151E-03-0.287E-05
CGA:   7    -0.152526286794E+04   -0.51153E-04   -0.48787E-04   624   0.788E-04-0.252E-04
CGA:   8    -0.152526288656E+04   -0.18626E-04   -0.18828E-04   624   0.320E-04 0.161E-05
CGA:   9    -0.152526289227E+04   -0.57085E-05   -0.72753E-05   624   0.112E-04 0.846E-05
  34 F= -.15252629E+04 E0= -.15252629E+04  d E =-.433430E-03  mag=    16.0000
       N       E                     dE             d eps       ncg     rms          ort
SDA:   1    -0.152523985427E+04    0.23032E-01    0.00000E+00   624   0.560E-01 0.000E+00
CGA:   2    -0.152525807265E+04   -0.18218E-01   -0.18222E-01   624   0.197E-01 0.609E-04
CGA:   3    -0.152526199555E+04   -0.39229E-02   -0.39223E-02   624   0.402E-02 0.613E-05
CGA:   4    -0.152526268990E+04   -0.69435E-03   -0.72269E-03   624   0.762E-03 0.147E-03
CGA:   5    -0.152526286100E+04   -0.17110E-03   -0.17145E-03   624   0.202E-03 0.250E-05
CGA:   6    -0.152526290883E+04   -0.47829E-04   -0.48383E-04   624   0.618E-04 0.458E-05
CGA:   7    -0.152526292350E+04   -0.14676E-04   -0.15568E-04   624   0.218E-04 0.832E-05
CGA:   8    -0.152526293395E+04   -0.10443E-04   -0.15070E-04   624   0.465E-04-0.177E-04
CGA:   9    -0.152526293507E+04   -0.11235E-05   -0.53472E-05   624   0.924E-05 0.172E-04
  35 F= -.15252629E+04 E0= -.15252629E+04  d E =-.427989E-04  mag=    16.0000
       N       E                     dE             d eps       ncg     rms          ort
SDA:   1    -0.152524468916E+04    0.18245E-01    0.00000E+00   624   0.448E-01 0.000E+00
CGA:   2    -0.152525899306E+04   -0.14304E-01   -0.14299E-01   624   0.176E-01-0.279E-03
CGA:   3    -0.152526239232E+04   -0.33993E-02   -0.34048E-02   624   0.330E-02 0.410E-04
CGA:   4    -0.152526299411E+04   -0.60179E-03   -0.60643E-03   624   0.676E-03 0.326E-04
CGA:   5    -0.152526313743E+04   -0.14332E-03   -0.14361E-03   624   0.170E-03 0.262E-05
CGA:   6    -0.152526318317E+04   -0.45736E-04   -0.44923E-04   624   0.609E-04-0.151E-04
CGA:   7    -0.152526320259E+04   -0.19417E-04   -0.20975E-04   624   0.480E-04-0.245E-04
CGA:   8    -0.152526321131E+04   -0.87221E-05   -0.14191E-04   624   0.563E-04-0.309E-04
CGA:   9    -0.152526322359E+04   -0.12278E-04   -0.11821E-04   624   0.155E-04-0.384E-05
CGA:  10    -0.152526322605E+04   -0.24644E-05   -0.28943E-05   624   0.382E-05 0.361E-05
  36 F= -.15252632E+04 E0= -.15252632E+04  d E =-.290981E-03  mag=    16.0000
       N       E                     dE             d eps       ncg     rms          ort
SDA:   1    -0.152519544788E+04    0.67776E-01    0.00000E+00   624   0.159E+00 0.000E+00
CGA:   2    -0.152525043809E+04   -0.54990E-01   -0.54984E-01   624   0.536E-01-0.592E-03
CGA:   3    -0.152526064924E+04   -0.10211E-01   -0.10253E-01   624   0.103E-01 0.272E-03
CGA:   4    -0.152526250581E+04   -0.18566E-02   -0.18744E-02   624   0.219E-02 0.109E-03
CGA:   5    -0.152526295531E+04   -0.44950E-03   -0.45587E-03   624   0.501E-03 0.486E-04
CGA:   6    -0.152526308001E+04   -0.12470E-03   -0.12412E-03   624   0.155E-03-0.656E-05
CGA:   7    -0.152526312609E+04   -0.46074E-04   -0.45538E-04   624   0.726E-04-0.185E-04
CGA:   8    -0.152526314076E+04   -0.14678E-04   -0.15610E-04   624   0.238E-04 0.115E-04
CGA:   9    -0.152526314787E+04   -0.71018E-05   -0.73519E-05   624   0.955E-05 0.454E-05
  37 F= -.15252631E+04 E0= -.15252631E+04  d E =0.781833E-04  mag=    16.0000
       N       E                     dE             d eps       ncg     rms          ort
SDA:   1    -0.152389862283E+04    0.13645E+01    0.00000E+00   624   0.321E+01 0.000E+00
CGA:   2    -0.152499080557E+04   -0.10922E+01   -0.10922E+01   624   0.113E+01-0.220E-03
CGA:   3    -0.152520833953E+04   -0.21753E+00   -0.21730E+00   624   0.204E+00-0.180E-02
CGA:   4    -0.152524566319E+04   -0.37324E-01   -0.37420E-01   624   0.437E-01 0.832E-03
CGA:   5    -0.152525474510E+04   -0.90819E-02   -0.90971E-02   624   0.103E-01 0.165E-03
CGA:   6    -0.152525717137E+04   -0.24263E-02   -0.24277E-02   624   0.282E-02 0.236E-04
CGA:   7    -0.152525794455E+04   -0.77318E-03   -0.77401E-03   624   0.106E-02 0.415E-04
CGA:   8    -0.152525831493E+04   -0.37038E-03   -0.37299E-03   624   0.538E-03-0.474E-04
CGA:   9    -0.152525843389E+04   -0.11895E-03   -0.12440E-03   624   0.175E-03 0.102E-03
CGA:  10    -0.152525849426E+04   -0.60372E-04   -0.60393E-04   624   0.741E-04 0.622E-05
CGA:  11    -0.152525850486E+04   -0.10600E-04   -0.14417E-04   624   0.335E-04 0.363E-04
CGA:  12    -0.152525851131E+04   -0.64515E-05   -0.90316E-05   624   0.202E-04 0.241E-04
CGA:  13    -0.152525852347E+04   -0.12157E-04    0.42625E-04   624   0.146E-04 0.105E-04
CGA:  14    -0.152525852267E+04    0.80047E-06   -0.14265E-05   624   0.115E-04 0.121E-04
  38 F= -.15252585E+04 E0= -.15252585E+04  d E =0.462520E-02  mag=    16.0000
       N       E                     dE             d eps       ncg     rms          ort
SDA:   1    -0.152442000855E+04    0.83851E+00    0.00000E+00   624   0.202E+01 0.000E+00
CGA:   2    -0.152504568443E+04   -0.62568E+00   -0.62574E+00   624   0.846E+00-0.123E-02
CGA:   3    -0.152520976462E+04   -0.16408E+00   -0.16405E+00   624   0.156E+00-0.441E-03
CGA:   4    -0.152523893518E+04   -0.29171E-01   -0.29101E-01   624   0.326E-01-0.755E-03
CGA:   5    -0.152524572975E+04   -0.67946E-02   -0.67919E-02   624   0.820E-02-0.467E-04
CGA:   6    -0.152524771237E+04   -0.19826E-02   -0.19815E-02   624   0.248E-02-0.606E-04
CGA:   7    -0.152524841345E+04   -0.70107E-03   -0.70384E-03   624   0.100E-02-0.107E-03
CGA:   8    -0.152524874186E+04   -0.32842E-03   -0.33976E-03   624   0.534E-03-0.122E-03
CGA:   9    -0.152524888540E+04   -0.14354E-03   -0.24203E-03   624   0.810E-03-0.392E-03
CGA:  10    -0.152524897533E+04   -0.89923E-04   -0.10919E-03   624   0.119E-03 0.137E-03
CGA:  11    -0.152524901334E+04   -0.38013E-04   -0.37993E-04   624   0.589E-04 0.105E-04
CGA:  12    -0.152524873353E+04    0.27981E-03   -0.15114E-03   624   0.199E-02-0.265E-03
CGA:  13    -0.152524899169E+04   -0.25816E-03   -0.29546E-03   624   0.298E-03 0.122E-03
CGA:  14    -0.152524911388E+04   -0.12220E-03   -0.11607E-03   624   0.119E-03-0.546E-04
CGA:  15    -0.152524913494E+04   -0.21057E-04   -0.23820E-04   624   0.329E-04 0.122E-04
CGA:  16    -0.152524914372E+04   -0.87781E-05   -0.98996E-05   624   0.172E-04 0.593E-05
CGA:  17    -0.152524915372E+04   -0.10001E-04   -0.10142E-04   624   0.182E-04-0.316E-05
CGA:  18    -0.152524915593E+04   -0.22069E-05   -0.34977E-05   624   0.162E-04 0.575E-05
CGA:  19    -0.152524916845E+04   -0.12524E-04   -0.12922E-04   624   0.316E-04-0.318E-05
CGA:  20    -0.152524911953E+04    0.48921E-04   -0.30406E-04   624   0.515E-03-0.112E-03
CGA:  21    -0.152524917178E+04   -0.52254E-04   -0.76052E-04   624   0.989E-04 0.737E-04
CGA:  22    -0.152524920644E+04   -0.34656E-04   -0.35735E-04   624   0.207E-04 0.696E-05
CGA:  23    -0.152524921587E+04   -0.94268E-05   -0.11716E-04   624   0.117E-03-0.356E-04
CGA:  24    -0.152524921882E+04   -0.29560E-05   -0.12064E-04   624   0.914E-05 0.259E-04
  39 F= -.15252492E+04 E0= -.15252492E+04  d E =0.930385E-02  mag=    16.0000
       N       E                     dE             d eps       ncg     rms          ort
SDA:   1    -0.152457718789E+04    0.67203E+00    0.00000E+00   624   0.165E+01 0.000E+00
CGA:   2    -0.152510857987E+04   -0.53139E+00   -0.53148E+00   624   0.627E+00 0.875E-03
CGA:   3    -0.152523049042E+04   -0.12191E+00   -0.12187E+00   624   0.120E+00 0.246E-04
CGA:   4    -0.152525276959E+04   -0.22279E-01   -0.22354E-01   624   0.248E-01 0.408E-03
CGA:   5    -0.152525796714E+04   -0.51976E-02   -0.51936E-02   624   0.628E-02-0.172E-04
CGA:   6    -0.152525947058E+04   -0.15034E-02   -0.15019E-02   624   0.185E-02-0.976E-05
CGA:   7    -0.152525995903E+04   -0.48845E-03   -0.49483E-03   624   0.660E-03 0.551E-04
CGA:   8    -0.152526017221E+04   -0.21318E-03   -0.21505E-03   624   0.281E-03 0.301E-04
CGA:   9    -0.152526023017E+04   -0.57960E-04   -0.68766E-04   624   0.893E-04 0.767E-04
CGA:  10    -0.152526026912E+04   -0.38946E-04   -0.38820E-04   624   0.488E-04-0.459E-05
CGA:  11    -0.152526027562E+04   -0.65013E-05   -0.94894E-05   624   0.226E-04 0.184E-04
  40 F= -.15252603E+04 E0= -.15252603E+04  d E =-.110568E-01  mag=    16.0000
       N       E                     dE             d eps       ncg     rms          ort
SDA:   1    -0.152518268025E+04    0.77589E-01    0.00000E+00   624   0.198E+00 0.000E+00
CGA:   2    -0.152523951609E+04   -0.56836E-01   -0.56803E-01   624   0.848E-01-0.475E-03
CGA:   3    -0.152525664262E+04   -0.17127E-01   -0.17065E-01   624   0.180E-01-0.422E-03
CGA:   4    -0.152525993476E+04   -0.32921E-02   -0.33212E-02   624   0.368E-02 0.203E-03
CGA:   5    -0.152526066585E+04   -0.73109E-03   -0.74882E-03   624   0.881E-03 0.136E-03
CGA:   6    -0.152526090780E+04   -0.24195E-03   -0.24018E-03   624   0.326E-03-0.286E-04
CGA:   7    -0.152526100114E+04   -0.93334E-04   -0.92610E-04   624   0.130E-03-0.257E-04
CGA:   8    -0.152526103156E+04   -0.30424E-04   -0.31333E-04   624   0.423E-04 0.155E-04
CGA:   9    -0.152526104300E+04   -0.11440E-04   -0.12062E-04   624   0.153E-04 0.991E-05
CGA:  10    -0.152526104669E+04   -0.36864E-05   -0.42756E-05   624   0.637E-05 0.669E-05
  41 F= -.15252610E+04 E0= -.15252610E+04  d E =-.771071E-03  mag=    16.0000
       N       E                     dE             d eps       ncg     rms          ort
SDA:   1    -0.152520888672E+04    0.52156E-01    0.00000E+00   624   0.129E+00 0.000E+00
CGA:   2    -0.152524915384E+04   -0.40267E-01   -0.40267E-01   624   0.532E-01 0.201E-03
CGA:   3    -0.152525949996E+04   -0.10346E-01   -0.10331E-01   624   0.992E-02-0.124E-03
CGA:   4    -0.152526135347E+04   -0.18535E-02   -0.18461E-02   624   0.209E-02-0.557E-04
CGA:   5    -0.152526179600E+04   -0.44253E-03   -0.43942E-03   624   0.530E-03-0.348E-04
CGA:   6    -0.152526190808E+04   -0.11209E-03   -0.11488E-03   624   0.137E-03 0.369E-04
CGA:   7    -0.152526194398E+04   -0.35900E-04   -0.36658E-04   624   0.459E-04 0.178E-04
CGA:   8    -0.152526196240E+04   -0.18411E-04   -0.32147E-04   624   0.981E-04-0.417E-04
CGA:   9    -0.152526197265E+04   -0.10253E-04   -0.13930E-04   624   0.130E-04 0.225E-04
CGA:  10    -0.152526197611E+04   -0.34595E-05   -0.35486E-05   624   0.381E-05 0.118E-05
  42 F= -.15252620E+04 E0= -.15252620E+04  d E =-.929421E-03  mag=    16.0000
       N       E                     dE             d eps       ncg     rms          ort
SDA:   1    -0.152522638833E+04    0.35584E-01    0.00000E+00   624   0.853E-01 0.000E+00
CGA:   2    -0.152525431631E+04   -0.27928E-01   -0.27924E-01   624   0.333E-01 0.110E-03
CGA:   3    -0.152526066243E+04   -0.63461E-02   -0.63221E-02   624   0.585E-02-0.227E-03
CGA:   4    -0.152526174833E+04   -0.10859E-02   -0.10826E-02   624   0.126E-02-0.315E-04
CGA:   5    -0.152526200293E+04   -0.25460E-03   -0.25506E-03   624   0.290E-03 0.597E-05
CGA:   6    -0.152526206975E+04   -0.66816E-04   -0.67171E-04   624   0.754E-04 0.737E-05
CGA:   7    -0.152526208980E+04   -0.20054E-04   -0.20148E-04   624   0.261E-04 0.590E-05
CGA:   8    -0.152526210087E+04   -0.11066E-04   -0.12015E-04   624   0.206E-04-0.627E-05
CGA:   9    -0.152526210535E+04   -0.44796E-05   -0.44829E-05   624   0.869E-05-0.884E-06
  43 F= -.15252621E+04 E0= -.15252621E+04  d E =-.129238E-03  mag=    16.0000
       N       E                     dE             d eps       ncg     rms          ort
SDA:   1    -0.151621600684E+04    0.90461E+01    0.00000E+00   624   0.213E+02 0.000E+00
CGA:   2    -0.152243028290E+04   -0.62143E+01   -0.62152E+01   624   0.885E+01-0.334E-01
CGA:   3    -0.152417603077E+04   -0.17457E+01   -0.17484E+01   624   0.210E+01-0.706E-02
CGA:   4    -0.152455083643E+04   -0.37481E+00   -0.35740E+00   624   0.429E+00 0.722E-01
CGA:   5    -0.152463897141E+04   -0.88135E-01   -0.88647E-01   624   0.129E+00 0.193E-03
CGA:   6    -0.152466637023E+04   -0.27399E-01   -0.27425E-01   624   0.460E-01 0.347E-02
CGA:   7    -0.152467852290E+04   -0.12153E-01   -0.12136E-01   624   0.222E-01-0.210E-02
CGA:   8    -0.152468264194E+04   -0.41190E-02   -0.42478E-02   624   0.888E-02 0.231E-02
CGA:   9    -0.152468544409E+04   -0.28022E-02   -0.28023E-02   624   0.394E-02-0.233E-06
CGA:  10    -0.152468623284E+04   -0.78875E-03   -0.83717E-03   624   0.141E-02 0.969E-03
CGA:  11    -0.152468679933E+04   -0.56649E-03   -0.57207E-03   624   0.915E-03-0.867E-04
CGA:  12    -0.152468693464E+04   -0.13531E-03   -0.16125E-03   624   0.520E-03 0.342E-03
CGA:  13    -0.152468709500E+04   -0.16036E-03   -0.16625E-03   624   0.305E-03 0.212E-03
CGA:  14    -0.152468724869E+04   -0.15369E-03   -0.14986E-03   624   0.420E-03 0.393E-04
CGA:  15    -0.152468728419E+04   -0.35500E-04   -0.64985E-04   624   0.279E-03 0.233E-03
CGA:  16    -0.152468737844E+04   -0.94254E-04   -0.94532E-04   624   0.149E-03-0.352E-05
CGA:  17    -0.152468747035E+04   -0.91911E-04    0.96531E-04   624   0.150E-03-0.274E-06
CGA:  18    -0.152468749805E+04   -0.27697E-04   -0.31844E-04   624   0.100E-03 0.870E-04
CGA:  19    -0.152468746769E+04    0.30361E-04   -0.81987E-04   624   0.115E-02-0.200E-03
CGA:  20    -0.152468760079E+04   -0.13310E-03   -0.14275E-03   624   0.523E-04 0.701E-04
CGA:  21    -0.152468762356E+04   -0.22768E-04   -0.22347E-04   624   0.700E-04 0.337E-05
CGA:  22    -0.152468768991E+04   -0.66352E-04    0.18726E-04   624   0.551E-04 0.252E-04
CGA:  23    -0.152468773897E+04   -0.49062E-04    0.71278E-04   624   0.587E-04 0.475E-04
CGA:  24    -0.152468775380E+04   -0.14827E-04   -0.14830E-04   624   0.375E-04 0.390E-06
CGA:  25    -0.152468768104E+04    0.72757E-04   -0.42558E-04   624   0.797E-03-0.941E-04
CGA:  26    -0.152468788001E+04   -0.19897E-03   -0.14993E-03   624   0.362E-03-0.148E-03
CGA:  27    -0.152468789008E+04   -0.10064E-04   -0.40549E-04   624   0.773E-04 0.875E-04
CGA:  28    -0.152468789688E+04   -0.68007E-05   -0.10967E-04   624   0.164E-04 0.119E-04
  44 F= -.15246879E+04 E0= -.15246879E+04  d E =0.574208E+00  mag=    16.0000
       N       E                     dE             d eps       ncg     rms          ort
SDA:   1    -0.151779962052E+04    0.68883E+01    0.00000E+00   624   0.180E+02 0.000E+00
CGA:   2    -0.152332786553E+04   -0.55282E+01   -0.55350E+01   624   0.729E+01 0.419E-01
CGA:   3    -0.152476510179E+04   -0.14372E+01   -0.14347E+01   624   0.171E+01 0.136E-01
CGA:   4    -0.152511037784E+04   -0.34528E+00   -0.34237E+00   624   0.320E+00 0.119E-01
CGA:   5    -0.152518015994E+04   -0.69782E-01   -0.69894E-01   624   0.992E-01 0.119E-02
CGA:   6    -0.152520538088E+04   -0.25221E-01   -0.25076E-01   624   0.367E-01-0.921E-03
CGA:   7    -0.152521547062E+04   -0.10090E-01   -0.10082E-01   624   0.129E-01-0.312E-04
CGA:   8    -0.152521988821E+04   -0.44176E-02   -0.43497E-02   624   0.605E-02-0.101E-02
CGA:   9    -0.152522146884E+04   -0.15806E-02   -0.15282E-02   624   0.214E-02-0.396E-03
CGA:  10    -0.152522209163E+04   -0.62278E-03   -0.59949E-03   624   0.843E-03-0.241E-03
CGA:  11    -0.152522237924E+04   -0.28761E-03   -0.28541E-03   624   0.674E-03-0.254E-03
CGA:  12    -0.152522254611E+04   -0.16686E-03   -0.16159E-03   624   0.442E-03-0.114E-03
CGA:  13    -0.152522269743E+04   -0.15132E-03   -0.22195E-03   624   0.884E-03-0.323E-03
CGA:  14    -0.152522281000E+04   -0.11257E-03   -0.13825E-03   624   0.158E-03 0.110E-03
CGA:  15    -0.152522286169E+04   -0.51695E-04   -0.51347E-04   624   0.686E-04-0.343E-05
CGA:  16    -0.152522286894E+04   -0.72495E-05   -0.13785E-04   624   0.365E-04 0.371E-04
  45 F= -.15252229E+04 E0= -.15252229E+04  d E =-.534972E+00  mag=    16.0000
       N       E                     dE             d eps       ncg     rms          ort
SDA:   1    -0.152506196322E+04    0.16090E+00    0.00000E+00   624   0.479E+00 0.000E+00
CGA:   2    -0.152521466604E+04   -0.15270E+00   -0.15259E+00   624   0.196E+00-0.254E-02
CGA:   3    -0.152525185403E+04   -0.37188E-01   -0.37310E-01   624   0.448E-01 0.877E-03
CGA:   4    -0.152526113443E+04   -0.92804E-02   -0.93065E-02   624   0.796E-02 0.254E-03
CGA:   5    -0.152526292336E+04   -0.17889E-02   -0.17697E-02   624   0.278E-02-0.152E-03
CGA:   6    -0.152526360316E+04   -0.67980E-03   -0.67382E-03   624   0.945E-03-0.653E-04
CGA:   7    -0.152526390141E+04   -0.29825E-03   -0.29660E-03   624   0.427E-03-0.136E-03
CGA:   8    -0.152526401597E+04   -0.11456E-03   -0.11363E-03   624   0.168E-03-0.428E-04
CGA:   9    -0.152526405356E+04   -0.37586E-04   -0.37731E-04   624   0.493E-04 0.217E-05
CGA:  10    -0.152526404405E+04    0.95087E-05   -0.42092E-04   624   0.305E-03-0.999E-04
CGA:  11    -0.152526408009E+04   -0.36041E-04   -0.44715E-04   624   0.400E-04 0.432E-04
CGA:  12    -0.152526409685E+04   -0.16759E-04   -0.20470E-04   624   0.522E-04-0.352E-04
CGA:  13    -0.152526410237E+04   -0.55188E-05   -0.79583E-05   624   0.703E-05 0.126E-04
  46 F= -.15252641E+04 E0= -.15252641E+04  d E =-.412334E-01  mag=    16.0000
       N       E                     dE             d eps       ncg     rms          ort
SDA:   1    -0.152521334743E+04    0.50749E-01    0.00000E+00   624   0.140E+00 0.000E+00
CGA:   2    -0.152525513071E+04   -0.41783E-01   -0.41694E-01   624   0.593E-01-0.164E-02
CGA:   3    -0.152526653814E+04   -0.11407E-01   -0.11524E-01   624   0.130E-01 0.781E-03
CGA:   4    -0.152526910347E+04   -0.25653E-02   -0.25908E-02   624   0.271E-02 0.191E-03
CGA:   5    -0.152526967179E+04   -0.56831E-03   -0.56518E-03   624   0.772E-03-0.235E-04
CGA:   6    -0.152526988186E+04   -0.21007E-03   -0.20666E-03   624   0.303E-03-0.610E-04
CGA:   7    -0.152526997887E+04   -0.97014E-04   -0.10083E-03   624   0.187E-03-0.992E-04
CGA:   8    -0.152527000607E+04   -0.27196E-04   -0.28314E-04   624   0.597E-04 0.112E-04
CGA:   9    -0.152527001887E+04   -0.12804E-04   -0.13724E-04   624   0.219E-04 0.891E-05
CGA:  10    -0.152527002518E+04   -0.63100E-05   -0.63863E-05   624   0.911E-05 0.125E-05
  47 F= -.15252700E+04 E0= -.15252700E+04  d E =-.592282E-02  mag=    16.0000
       N       E                     dE             d eps       ncg     rms          ort
SDA:   1    -0.152523128489E+04    0.38734E-01    0.00000E+00   624   0.106E+00 0.000E+00
CGA:   2    -0.152525957125E+04   -0.28286E-01   -0.28257E-01   624   0.448E-01-0.733E-03
CGA:   3    -0.152526880674E+04   -0.92355E-02   -0.92778E-02   624   0.994E-02 0.441E-03
CGA:   4    -0.152527063868E+04   -0.18319E-02   -0.18489E-02   624   0.200E-02 0.151E-03
CGA:   5    -0.152527106044E+04   -0.42177E-03   -0.42184E-03   624   0.519E-03 0.108E-05
CGA:   6    -0.152527119922E+04   -0.13878E-03   -0.13799E-03   624   0.197E-03-0.341E-04
CGA:   7    -0.152527125902E+04   -0.59799E-04   -0.61972E-04   624   0.106E-03-0.441E-04
CGA:   8    -0.152527127898E+04   -0.19959E-04   -0.20351E-04   624   0.348E-04 0.937E-05
CGA:   9    -0.152527128588E+04   -0.68983E-05   -0.78765E-05   624   0.131E-04 0.122E-04
  48 F= -.15252713E+04 E0= -.15252713E+04  d E =-.126070E-02  mag=    16.0000
       N       E                     dE             d eps       ncg     rms          ort
SDA:   1    -0.152521450857E+04    0.56770E-01    0.00000E+00   624   0.155E+00 0.000E+00
CGA:   2    -0.152525458559E+04   -0.40077E-01   -0.40078E-01   624   0.632E-01 0.492E-04
CGA:   3    -0.152526816406E+04   -0.13578E-01   -0.13593E-01   624   0.136E-01 0.232E-03
CGA:   4    -0.152527058378E+04   -0.24197E-02   -0.24234E-02   624   0.253E-02 0.395E-04
CGA:   5    -0.152527111905E+04   -0.53527E-03   -0.53484E-03   624   0.657E-03-0.750E-05
CGA:   6    -0.152527127717E+04   -0.15812E-03   -0.15823E-03   624   0.210E-03 0.455E-05
CGA:   7    -0.152527133567E+04   -0.58495E-04   -0.58351E-04   624   0.835E-04 0.134E-04
CGA:   8    -0.152527136165E+04   -0.25977E-04   -0.25505E-04   624   0.371E-04 0.220E-04
CGA:   9    -0.152527137143E+04   -0.97841E-05   -0.10632E-04   624   0.173E-04 0.212E-04
  49 F= -.15252714E+04 E0= -.15252714E+04  d E =-.855491E-04  mag=    16.0000
       N       E                     dE             d eps       ncg     rms          ort
SDA:   1    -0.152508707557E+04    0.18429E+00    0.00000E+00   624   0.476E+00 0.000E+00
CGA:   2    -0.152522359580E+04   -0.13652E+00   -0.13649E+00   624   0.177E+00 0.883E-03
CGA:   3    -0.152526190840E+04   -0.38313E-01   -0.38304E-01   624   0.359E-01-0.166E-03
CGA:   4    -0.152526839870E+04   -0.64903E-02   -0.64662E-02   624   0.719E-02-0.306E-03
CGA:   5    -0.152526989978E+04   -0.15011E-02   -0.14997E-02   624   0.182E-02-0.312E-04
CGA:   6    -0.152527032750E+04   -0.42772E-03   -0.42875E-03   624   0.572E-03 0.644E-04
CGA:   7    -0.152527049585E+04   -0.16835E-03   -0.16697E-03   624   0.253E-03 0.470E-04
CGA:   8    -0.152527059622E+04   -0.10037E-03   -0.97880E-04   624   0.141E-03 0.240E-04
CGA:   9    -0.152527065077E+04   -0.54552E-04   -0.53856E-04   624   0.683E-04 0.754E-05
CGA:  10    -0.152527066146E+04   -0.10683E-04   -0.13302E-04   624   0.268E-04 0.332E-04
CGA:  11    -0.152527066487E+04   -0.34195E-05   -0.58797E-05   624   0.143E-04 0.219E-04
  50 F= -.15252707E+04 E0= -.15252707E+04  d E =0.706554E-03  mag=    16.0000
       N       E                     dE             d eps       ncg     rms          ort
SDA:   1    -0.152500113172E+04    0.26953E+00    0.00000E+00   624   0.687E+00 0.000E+00
CGA:   2    -0.152520073403E+04   -0.19960E+00   -0.19955E+00   624   0.246E+00 0.109E-02
CGA:   3    -0.152525485439E+04   -0.54120E-01   -0.54138E-01   624   0.486E-01 0.525E-03
CGA:   4    -0.152526358343E+04   -0.87290E-02   -0.87480E-02   624   0.977E-02 0.258E-03
CGA:   5    -0.152526567800E+04   -0.20946E-02   -0.20923E-02   624   0.251E-02-0.643E-04
CGA:   6    -0.152526628176E+04   -0.60376E-03   -0.60421E-03   624   0.819E-03 0.857E-04
CGA:   7    -0.152526651372E+04   -0.23196E-03   -0.22933E-03   624   0.352E-03 0.109E-03
CGA:   8    -0.152526665517E+04   -0.14145E-03   -0.13607E-03   624   0.193E-03 0.575E-04
CGA:   9    -0.152526670588E+04   -0.50708E-04   -0.52399E-04   624   0.757E-04 0.860E-04
CGA:  10    -0.152526672594E+04   -0.20062E-04   -0.22386E-04   624   0.349E-04 0.492E-04
CGA:  11    -0.152526673307E+04   -0.71299E-05   -0.76958E-05   624   0.198E-04 0.195E-04
  51 F= -.15252667E+04 E0= -.15252667E+04  d E =0.393181E-02  mag=    16.0000
       N       E                     dE             d eps       ncg     rms          ort
SDA:   1    -0.152525368181E+04    0.13044E-01    0.00000E+00   624   0.354E-01 0.000E+00
CGA:   2    -0.152526391636E+04   -0.10235E-01   -0.10254E-01   624   0.141E-01-0.407E-03
CGA:   3    -0.152526673286E+04   -0.28165E-02   -0.28206E-02   624   0.337E-02 0.106E-03
CGA:   4    -0.152526745069E+04   -0.71782E-03   -0.70642E-03   624   0.836E-03-0.321E-03
CGA:   5    -0.152526759512E+04   -0.14444E-03   -0.14631E-03   624   0.192E-03 0.393E-04
CGA:   6    -0.152526763678E+04   -0.41661E-04   -0.42662E-04   624   0.621E-04 0.377E-04
CGA:   7    -0.152526766261E+04   -0.25823E-04   -0.28054E-04   624   0.592E-04-0.159E-04
CGA:   8    -0.152526766759E+04   -0.49861E-05   -0.64489E-05   624   0.312E-04 0.149E-04
  52 F= -.15252677E+04 E0= -.15252677E+04  d E =-.934521E-03  mag=    16.0000
       N       E                     dE             d eps       ncg     rms          ort
SDA:   1    -0.152526550787E+04    0.21547E-02    0.00000E+00   624   0.718E-02 0.000E+00
CGA:   2    -0.152526716495E+04   -0.16571E-02   -0.16575E-02   624   0.300E-02 0.924E-04
CGA:   3    -0.152526786959E+04   -0.70463E-03   -0.70408E-03   624   0.827E-03-0.143E-03
CGA:   4    -0.152526799740E+04   -0.12781E-03   -0.12984E-03   624   0.131E-03 0.295E-04
CGA:   5    -0.152526802650E+04   -0.29099E-04   -0.29113E-04   624   0.365E-04 0.836E-06
CGA:   6    -0.152526803669E+04   -0.10188E-04   -0.10631E-04   624   0.199E-04-0.761E-05
CGA:   7    -0.152526803732E+04   -0.63149E-06   -0.17097E-05   624   0.927E-05 0.861E-05
  53 F= -.15252680E+04 E0= -.15252680E+04  d E =-.369726E-03  mag=    16.0000
       N       E                     dE             d eps       ncg     rms          ort
SDA:   1    -0.152524867757E+04    0.19359E-01    0.00000E+00   624   0.528E-01 0.000E+00
CGA:   2    -0.152526228305E+04   -0.13605E-01   -0.13608E-01   624   0.190E-01-0.822E-04
CGA:   3    -0.152526655446E+04   -0.42714E-02   -0.42714E-02   624   0.456E-02 0.188E-04
CGA:   4    -0.152526738538E+04   -0.83091E-03   -0.82717E-03   624   0.875E-03-0.903E-04
CGA:   5    -0.152526755866E+04   -0.17328E-03   -0.17351E-03   624   0.211E-03 0.127E-04
CGA:   6    -0.152526760627E+04   -0.47612E-04   -0.47554E-04   624   0.642E-04 0.264E-04
CGA:   7    -0.152526762656E+04   -0.20295E-04   -0.19687E-04   624   0.297E-04 0.116E-04
CGA:   8    -0.152526763575E+04   -0.91862E-05   -0.88181E-05   624   0.149E-04 0.126E-04
  54 F= -.15252676E+04 E0= -.15252676E+04  d E =0.401568E-03  mag=    16.0000
       N       E                     dE             d eps       ncg     rms          ort
SDA:   1    -0.152517500162E+04    0.92625E-01    0.00000E+00   624   0.245E+00 0.000E+00
CGA:   2    -0.152524094351E+04   -0.65942E-01   -0.65963E-01   624   0.842E-01-0.628E-03
CGA:   3    -0.152526027898E+04   -0.19335E-01   -0.19336E-01   624   0.190E-01 0.272E-03
CGA:   4    -0.152526371969E+04   -0.34407E-02   -0.34364E-02   624   0.371E-02-0.795E-04
CGA:   5    -0.152526449776E+04   -0.77807E-03   -0.77912E-03   624   0.932E-03 0.581E-04
CGA:   6    -0.152526474709E+04   -0.24933E-03   -0.24905E-03   624   0.365E-03 0.775E-05
CGA:   7    -0.152526487039E+04   -0.12330E-03   -0.12981E-03   624   0.246E-03-0.529E-04
CGA:   8    -0.152526493264E+04   -0.62252E-04   -0.61120E-04   624   0.100E-03 0.208E-04
CGA:   9    -0.152526497072E+04   -0.38082E-04   -0.40477E-04   624   0.606E-04-0.180E-04
CGA:  10    -0.152526498307E+04   -0.12347E-04   -0.12339E-04   624   0.232E-04 0.303E-05
CGA:  11    -0.152526499043E+04   -0.73612E-05   -0.75489E-05   624   0.124E-04-0.292E-05
CGA:  12    -0.152526495054E+04    0.39892E-04   -0.21644E-04   624   0.211E-03-0.437E-04
CGA:  13    -0.152526499103E+04   -0.40490E-04   -0.43907E-04   624   0.346E-04 0.142E-04
CGA:  14    -0.152526500219E+04   -0.11163E-04   -0.10246E-04   624   0.164E-04-0.546E-05
CGA:  15    -0.152526500416E+04   -0.19687E-05   -0.26643E-05   624   0.446E-05 0.295E-05
  55 F= -.15252650E+04 E0= -.15252650E+04  d E =0.263159E-02  mag=    16.0000
       N       E                     dE             d eps       ncg     rms          ort
SDA:   1    -0.152514536374E+04    0.11964E+00    0.00000E+00   624   0.319E+00 0.000E+00
CGA:   2    -0.152523142203E+04   -0.86058E-01   -0.86065E-01   624   0.108E+00 0.700E-05
CGA:   3    -0.152525685819E+04   -0.25436E-01   -0.25427E-01   624   0.257E-01-0.389E-04
CGA:   4    -0.152526153243E+04   -0.46742E-02   -0.46697E-02   624   0.492E-02 0.817E-05
CGA:   5    -0.152526258069E+04   -0.10483E-02   -0.10513E-02   624   0.129E-02 0.187E-04
CGA:   6    -0.152526293461E+04   -0.35392E-03   -0.34989E-03   624   0.533E-03-0.384E-04
CGA:   7    -0.152526308217E+04   -0.14755E-03   -0.14783E-03   624   0.236E-03 0.359E-05
CGA:   8    -0.152526316801E+04   -0.85846E-04   -0.85812E-04   624   0.123E-03-0.723E-05
CGA:   9    -0.152526321435E+04   -0.46340E-04   -0.47279E-04   624   0.823E-04-0.297E-04
CGA:  10    -0.152526322753E+04   -0.13179E-04   -0.13854E-04   624   0.301E-04 0.475E-05
CGA:  11    -0.152526323943E+04   -0.11895E-04   -0.12177E-04   624   0.263E-04-0.120E-04
CGA:  12    -0.152526324532E+04   -0.58942E-05   -0.62363E-05   624   0.236E-04-0.104E-04
  56 F= -.15252632E+04 E0= -.15252632E+04  d E =0.175884E-02  mag=    16.0000
       N       E                     dE             d eps       ncg     rms          ort
SDA:   1    -0.152521407647E+04    0.49163E-01    0.00000E+00   624   0.138E+00 0.000E+00
CGA:   2    -0.152524893518E+04   -0.34859E-01   -0.34906E-01   624   0.572E-01 0.511E-03
CGA:   3    -0.152526138151E+04   -0.12446E-01   -0.12421E-01   624   0.141E-01-0.183E-03
CGA:   4    -0.152526391401E+04   -0.25325E-02   -0.25462E-02   624   0.260E-02 0.999E-04
CGA:   5    -0.152526446355E+04   -0.54954E-03   -0.54841E-03   624   0.678E-03-0.861E-05
CGA:   6    -0.152526461823E+04   -0.15468E-03   -0.15831E-03   624   0.218E-03 0.383E-04
CGA:   7    -0.152526466494E+04   -0.46711E-04   -0.52078E-04   624   0.723E-04 0.544E-04
CGA:   8    -0.152526469317E+04   -0.28223E-04   -0.28281E-04   624   0.436E-04 0.908E-05
CGA:   9    -0.152526469967E+04   -0.65014E-05   -0.92371E-05   624   0.179E-04 0.209E-04
  57 F= -.15252647E+04 E0= -.15252647E+04  d E =-.145435E-02  mag=    16.0000
       N       E                     dE             d eps       ncg     rms          ort
SDA:   1    -0.152525893766E+04    0.57555E-02    0.00000E+00   624   0.165E-01 0.000E+00
CGA:   2    -0.152526390398E+04   -0.49663E-02   -0.49644E-02   624   0.673E-02-0.443E-03
CGA:   3    -0.152526517790E+04   -0.12739E-02   -0.12940E-02   624   0.152E-02 0.188E-03
CGA:   4    -0.152526547938E+04   -0.30148E-03   -0.30422E-03   624   0.317E-03 0.274E-04
CGA:   5    -0.152526554564E+04   -0.66264E-04   -0.66673E-04   624   0.878E-04 0.476E-05
CGA:   6    -0.152526557588E+04   -0.30235E-04   -0.34023E-04   624   0.830E-04-0.410E-04
CGA:   7    -0.152526558762E+04   -0.11744E-04   -0.18260E-04   624   0.837E-04-0.548E-04
CGA:   8    -0.152526559562E+04   -0.79999E-05   -0.12209E-04   624   0.201E-04 0.274E-04
  58 F= -.15252656E+04 E0= -.15252656E+04  d E =-.895956E-03  mag=    16.0000
