       N       E                     dE             d eps       ncg     rms          ort
DAV:   1     0.265139647532E+04    0.26514E+04   -0.14817E+05  6336   0.155E+03
DAV:   2    -0.262688546681E+03   -0.29141E+04   -0.28153E+04  6336   0.431E+02
DAV:   3    -0.511416079307E+03   -0.24873E+03   -0.24416E+03  6336   0.140E+02
DAV:   4    -0.522446557438E+03   -0.11030E+02   -0.10899E+02  6336   0.311E+01
DAV:   5    -0.523090429179E+03   -0.64387E+00   -0.64158E+00  6336   0.462E+00
SDA:   6    -0.349803069730E+03    0.17329E+03   -0.64158E+00  6336   0.642E+03 0.000E+00
CGA:   7    -0.398110579297E+03   -0.48308E+02   -0.72837E+02  6336   0.287E+03 0.213E+02
CGA:   8    -0.398898246138E+03   -0.78767E+00   -0.14985E+02  6336   0.196E+03 0.189E+01
CGA:   9    -0.403349491328E+03   -0.44512E+01   -0.72727E+01  6336   0.451E+03-0.119E+03
CGA:  10    -0.408826196971E+03   -0.54767E+01   -0.25405E+02  6336   0.615E+03-0.518E+02
CGA:  11    -0.396770540853E+03    0.12056E+02   -0.37061E+02  6336   0.125E+03-0.477E+02
CGA:  12    -0.405964230684E+03   -0.91937E+01   -0.27129E+01  6336   0.557E+03 0.718E+03
CGA:  13    -0.408465089198E+03   -0.25009E+01   -0.28594E+02  6336   0.224E+03-0.934E+02
CGA:  14    -0.405083098160E+03    0.33820E+01   -0.65432E+01  6336   0.300E+03-0.976E+02
CGA:  15    -0.416163633479E+03   -0.11081E+02   -0.55420E+01  6336   0.223E+03-0.129E+03
CGA:  16    -0.404950932547E+03    0.11213E+02   -0.50425E+01  6336   0.330E+03-0.140E+03
CGA:  17    -0.415097279284E+03   -0.10146E+02   -0.11376E+02  6336   0.108E+03-0.830E+02
CGA:  18    -0.406985412704E+03    0.81119E+01   -0.42614E+01  6336   0.863E+03 0.314E+02
CGA:  19    -0.395987426897E+03    0.10998E+02   -0.64296E+02  6336   0.269E+03-0.146E+03
CGA:  20    -0.412370553861E+03   -0.16383E+02   -0.10398E+02  6336   0.510E+02 0.631E+02
CGA:  21    -0.413967760100E+03   -0.15972E+01   -0.10935E+01  6336   0.457E+02 0.322E+02
CGA:  22    -0.414876050587E+03   -0.90829E+00   -0.46733E+00  6336   0.381E+02 0.437E+02
CGA:  23    -0.415602190583E+03   -0.72614E+00   -0.34304E+00  6336   0.388E+02 0.439E+02
CGA:  24    -0.416431325685E+03   -0.82914E+00   -0.36769E+00  6336   0.400E+02 0.486E+02
CGA:  25    -0.417313283558E+03   -0.88196E+00   -0.44059E+00  6336   0.266E+02 0.374E+02
CGA:  26    -0.418097852328E+03   -0.78457E+00   -0.51885E+00  6336   0.103E+02 0.113E+02
CGA:  27    -0.418848057656E+03   -0.75021E+00   -0.67509E+00  6336   0.210E+02 0.181E+01
CGA:  28    -0.419709522504E+03   -0.86146E+00   -0.67746E+00  6336   0.325E+02 0.378E+01
CGA:  29    -0.420356571969E+03   -0.64705E+00   -0.10889E+01  6336   0.659E+02-0.117E+02
CGA:  30    -0.420467599797E+03   -0.11103E+00   -0.50519E+00  6336   0.395E+02-0.242E+02
CGA:  31    -0.420529402232E+03   -0.61802E-01   -0.36562E+00  6336   0.180E+02-0.186E+02
CGA:  32    -0.420871487343E+03   -0.34209E+00   -0.35773E+00  6336   0.165E+02-0.169E+00
CGA:  33    -0.421311644294E+03   -0.44016E+00   -0.70017E+00  6336   0.917E+01-0.185E+01
CGA:  34    -0.422761622020E+03   -0.14500E+01   -0.13013E+01  6336   0.426E+01 0.154E+01
CGA:  35    -0.423151314749E+03   -0.38969E+00   -0.46449E+00  6336   0.615E+01-0.312E+01
CGA:  36    -0.423620689585E+03   -0.46937E+00   -0.47026E+00  6336   0.213E+01 0.803E-01
CGA:  37    -0.420135247208E+03    0.34854E+01   -0.83182E+00  6336   0.744E+02-0.670E+01
CGA:  38    -0.422674231228E+03   -0.25390E+01   -0.35804E+01  6336   0.369E+02-0.561E+02
CGA:  39    -0.424337909596E+03   -0.16637E+01   -0.84818E+00  6336   0.101E+01 0.659E+01
CGA:  40    -0.424367867288E+03   -0.29958E-01   -0.30224E-01  6336   0.808E+00 0.873E-02
CGA:  41    -0.424428836569E+03   -0.60969E-01   -0.60348E-01  6336   0.162E+01-0.191E-01
CGA:  42    -0.424466324053E+03   -0.37487E-01   -0.38501E-01  6336   0.675E+00-0.945E-01
CGA:  43    -0.424493657372E+03   -0.27333E-01   -0.27937E-01  6336   0.945E+00-0.373E-01
CGA:  44    -0.424518610502E+03   -0.24953E-01   -0.19489E-01  6336   0.329E+00 0.210E+00
CGA:  45    -0.424527709814E+03   -0.90993E-02   -0.86182E-02  6336   0.236E+00 0.181E-01
CGA:  46    -0.424545595499E+03   -0.17886E-01   -0.17735E-01  6336   0.107E+01-0.218E-01
CGA:  47    -0.424551798253E+03   -0.62028E-02   -0.34946E-02  6336   0.108E+01 0.769E+00
CGA:  48    -0.424575016239E+03   -0.23218E-01   -0.23186E-01  6336   0.128E+00-0.115E-01
CGA:  49    -0.424585421792E+03   -0.10406E-01   -0.10344E-01  6336   0.977E-01 0.348E-02
CGA:  50    -0.424600747909E+03   -0.15326E-01   -0.23571E-01  6336   0.369E+00-0.103E+00
CGA:  51    -0.424615048892E+03   -0.14301E-01   -0.16083E-01  6336   0.840E-01-0.309E-01
CGA:  52    -0.424620483891E+03   -0.54350E-02   -0.54173E-02  6336   0.118E+00-0.488E-02
CGA:  53    -0.424626623235E+03   -0.61393E-02   -0.60247E-02  6336   0.839E-01-0.599E-02
CGA:  54    -0.424639750959E+03   -0.13128E-01   -0.13696E-01  6336   0.758E-01-0.541E-02
CGA:  55    -0.424648762724E+03   -0.90118E-02   -0.97008E-02  6336   0.171E+00-0.108E-01
CGA:  56    -0.424655619769E+03   -0.68570E-02   -0.21073E-01  6336   0.128E+00-0.235E+00
CGA:  57    -0.424662035351E+03   -0.64156E-02   -0.62951E-02  6336   0.166E+00-0.793E-02
CGA:  58    -0.424677969267E+03   -0.15934E-01   -0.15149E-01  6336   0.970E-01 0.353E-01
CGA:  59    -0.424683193338E+03   -0.52241E-02   -0.54599E-02  6336   0.496E-01-0.439E-02
CGA:  60    -0.424686594611E+03   -0.34013E-02   -0.33682E-02  6336   0.852E-01-0.443E-02
CGA:  61    -0.424698297833E+03   -0.11703E-01   -0.12160E-01  6336   0.128E+00-0.540E-02
CGA:  62    -0.424708216563E+03   -0.99187E-02   -0.99174E-02  6336   0.784E-01-0.625E-03
CGA:  63    -0.424711448193E+03   -0.32316E-02   -0.31224E-02  6336   0.338E-01 0.499E-03
CGA:  64    -0.424717292917E+03   -0.58447E-02   -0.63507E-02  6336   0.777E-01-0.454E-02
CGA:  65    -0.424722842160E+03   -0.55492E-02   -0.54343E-02  6336   0.729E-01-0.618E-02
CGA:  66    -0.424724967509E+03   -0.21253E-02   -0.19649E-02  6336   0.184E-01 0.414E-02
CGA:  67    -0.424726374331E+03   -0.14068E-02   -0.13463E-02  6336   0.533E-01-0.389E-02
CGA:  68    -0.424729984195E+03   -0.36099E-02   -0.36395E-02  6336   0.129E+00-0.117E-01
CGA:  69    -0.424732667810E+03   -0.26836E-02   -0.17963E-02  6336   0.946E-01 0.318E-01
CGA:  70    -0.424735308769E+03   -0.26410E-02   -0.21719E-02  6336   0.588E-01 0.252E-01
CGA:  71    -0.424736520675E+03   -0.12119E-02   -0.11905E-02  6336   0.236E-01 0.789E-02
CGA:  72    -0.424736939487E+03   -0.41881E-03   -0.44754E-03  6336   0.143E-01-0.925E-04
CGA:  73    -0.424737460850E+03   -0.52136E-03   -0.48338E-03  6336   0.338E-01-0.112E-02
CGA:  74    -0.424738960031E+03   -0.14992E-02   -0.14221E-02  6336   0.919E-01-0.485E-02
CGA:  75    -0.424740882985E+03   -0.19230E-02   -0.15882E-02  6336   0.729E-01 0.202E-03
CGA:  76    -0.424742194773E+03   -0.13118E-02   -0.11489E-02  6336   0.538E-01 0.464E-02
CGA:  77    -0.424743192245E+03   -0.99747E-03   -0.94996E-03  6336   0.404E-01 0.503E-02
CGA:  78    -0.424743739814E+03   -0.54757E-03   -0.56711E-03  6336   0.184E-01 0.339E-02
CGA:  79    -0.424743978937E+03   -0.23912E-03   -0.25918E-03  6336   0.114E-01 0.664E-03
CGA:  80    -0.424744239724E+03   -0.26079E-03   -0.25753E-03  6336   0.203E-01 0.634E-04
CGA:  81    -0.424744867692E+03   -0.62797E-03   -0.60585E-03  6336   0.492E-01-0.814E-03
CGA:  82    -0.424745803627E+03   -0.93593E-03   -0.95070E-03  6336   0.524E-01-0.308E-02
CGA:  83    -0.424746467199E+03   -0.66357E-03   -0.70513E-03  6336   0.343E-01-0.256E-02
CGA:  84    -0.424746940217E+03   -0.47302E-03   -0.52599E-03  6336   0.298E-01 0.495E-03
CGA:  85    -0.424747343214E+03   -0.40300E-03   -0.45778E-03  6336   0.183E-01 0.233E-02
CGA:  86    -0.424747541656E+03   -0.19844E-03   -0.23661E-03  6336   0.844E-02 0.158E-02
SDA:  87    -0.424747665174E+03   -0.12352E-03   -0.14311E-03  6336   0.935E-02 0.766E-03
CGA:  88    -0.424748168249E+03   -0.50307E-03   -0.51033E-03  6336   0.104E-01-0.689E-03
CGA:  89    -0.424748789553E+03   -0.62130E-03   -0.60232E-03  6336   0.102E-01 0.996E-03
CGA:  90    -0.424749421005E+03   -0.63145E-03   -0.60504E-03  6336   0.197E-02 0.296E-02
CGA:  91    -0.424749555782E+03   -0.13478E-03   -0.13199E-03  6336   0.367E-02 0.420E-03
CGA:  92    -0.424750342738E+03   -0.78696E-03   -0.60738E-03  6336   0.457E-02 0.201E-02
CGA:  93    -0.424750453887E+03   -0.11115E-03   -0.11955E-03  6336   0.105E-02 0.347E-03
CGA:  94    -0.424750497918E+03   -0.44032E-04   -0.46529E-04  6336   0.689E-03 0.315E-03
CGA:  95    -0.424750654853E+03   -0.15693E-03   -0.11638E-03  6336   0.187E-02 0.496E-03
CGA:  96    -0.424750704267E+03   -0.49415E-04   -0.47753E-04  6336   0.545E-03-0.666E-04
CGA:  97    -0.424750776472E+03   -0.72205E-04   -0.94565E-04  6336   0.308E-02-0.187E-03
CGA:  98    -0.424751035422E+03   -0.25895E-03   -0.21872E-03  6336   0.694E-02 0.797E-03
CGA:  99    -0.424751355304E+03   -0.31988E-03   -0.30167E-03  6336   0.103E-02 0.233E-02
CGA: 100    -0.424751384284E+03   -0.28980E-04   -0.34243E-04  6336   0.281E-03 0.173E-03
CGA: 101    -0.424751428457E+03   -0.44173E-04    0.54642E-04  6336   0.313E-03 0.288E-03
CGA: 102    -0.424751438354E+03   -0.98970E-05   -0.47232E-04  6336   0.319E-02-0.401E-03
CGA: 103    -0.424751508647E+03   -0.70292E-04   -0.71643E-04  6336   0.384E-03 0.198E-04
CGA: 104    -0.424751525562E+03   -0.16915E-04   -0.16899E-04  6336   0.254E-03-0.130E-05
CGA: 105    -0.424751563596E+03   -0.38034E-04    0.28119E-04  6336   0.242E-03 0.241E-03
CGA: 106    -0.424751578169E+03   -0.14574E-04   -0.29098E-04  6336   0.151E-02-0.240E-03
CGA: 107    -0.424751612593E+03   -0.34424E-04   -0.36249E-04  6336   0.252E-03 0.431E-04
CGA: 108    -0.424751627338E+03   -0.14745E-04   -0.14609E-04  6336   0.336E-03-0.351E-04
CGA: 109    -0.424751671342E+03   -0.44004E-04    0.32925E-04  6336   0.394E-03 0.275E-03
CGA: 110    -0.424751690818E+03   -0.19476E-04   -0.18443E-04  6336   0.283E-03-0.790E-04
CGA: 111    -0.424751637465E+03    0.53353E-04   -0.66780E-04  6336   0.995E-02-0.514E-03
CGA: 112    -0.424751822771E+03   -0.18531E-03   -0.18967E-03  6336   0.410E-03 0.182E-04
CGA: 113    -0.424751839788E+03   -0.17017E-04   -0.16241E-04  6336   0.135E-03-0.271E-04
CGA: 114    -0.424751861299E+03   -0.21511E-04    0.15941E-04  6336   0.114E-03 0.123E-03
CGA: 115    -0.424751873483E+03   -0.12183E-04   -0.26804E-04  6336   0.125E-02-0.892E-04
CGA: 116    -0.424751917609E+03   -0.44127E-04   -0.41782E-04  6336   0.135E-03-0.563E-04
CGA: 117    -0.424751928449E+03   -0.10840E-04   -0.12449E-04  6336   0.797E-03-0.717E-04
CGA: 118    -0.424751944910E+03   -0.16461E-04   -0.16013E-04  6336   0.100E-03-0.135E-04
CGA: 119    -0.424751979699E+03   -0.34789E-04   -0.12877E-08  6336   0.191E-02-0.391E-04
CGA: 120    -0.424752130088E+03   -0.15039E-03   -0.13227E-03  6336   0.107E-01-0.818E-03
CGA: 121    -0.424752179691E+03   -0.49604E-04   -0.18000E-04  6336   0.108E-01 0.508E-02
CGA: 122    -0.424752563832E+03   -0.38414E-03   -0.19844E-03  6336   0.428E-02 0.837E-02
CGA: 123    -0.424752698827E+03   -0.13499E-03   -0.12312E-03  6336   0.295E-03-0.199E-03
CGA: 124    -0.424752705096E+03   -0.62695E-05   -0.60289E-05  6336   0.453E-04-0.524E-05
   1 F= -.42475271E+03 E0= -.42474225E+03  d E =-.424753E+03  mag=    10.0000
       N       E                     dE             d eps       ncg     rms          ort
SDA:   1    -0.424751562124E+03    0.11367E-02    0.00000E+00  6336   0.814E-01 0.000E+00
CGA:   2    -0.424753100467E+03   -0.15383E-02   -0.15437E-02  6336   0.386E-02-0.399E-03
CGA:   3    -0.424753267582E+03   -0.16711E-03   -0.15464E-03  6336   0.157E-02-0.243E-03
CGA:   4    -0.424753573509E+03   -0.30593E-03   -0.30061E-03  6336   0.101E-02 0.508E-04
CGA:   5    -0.424753616693E+03   -0.43184E-04   -0.33873E-04  6336   0.617E-03-0.129E-03
CGA:   6    -0.424753684183E+03   -0.67490E-04   -0.90390E-04  6336   0.171E-02-0.357E-03
CGA:   7    -0.424753701242E+03   -0.17060E-04   -0.34450E-04  6336   0.177E-03 0.185E-03
CGA:   8    -0.424753697010E+03    0.42320E-05   -0.36597E-05  6336   0.642E-04 0.943E-04
   2 F= -.42475370E+03 E0= -.42474328E+03  d E =-.991914E-03  mag=    10.0000
       N       E                     dE             d eps       ncg     rms          ort
SDA:   1    -0.424747441030E+03    0.62602E-02    0.00000E+00  6336   0.133E+00 0.000E+00
CGA:   2    -0.424750056341E+03   -0.26153E-02   -0.27626E-02  6336   0.212E-01-0.193E-02
CGA:   3    -0.424752201027E+03   -0.21447E-02   -0.21318E-02  6336   0.335E-01 0.126E-02
CGA:   4    -0.424755208058E+03   -0.30070E-02   -0.29950E-02  6336   0.679E-02-0.184E-02
CGA:   5    -0.424755659089E+03   -0.45103E-03   -0.45899E-03  6336   0.762E-02 0.384E-03
CGA:   6    -0.424756029785E+03   -0.37070E-03   -0.37429E-03  6336   0.448E-02 0.465E-04
CGA:   7    -0.424756276483E+03   -0.24670E-03   -0.22428E-03  6336   0.114E-02-0.612E-03
CGA:   8    -0.424756315951E+03   -0.39468E-04   -0.46436E-04  6336   0.547E-03 0.174E-03
CGA:   9    -0.424756342963E+03   -0.27012E-04   -0.30889E-04  6336   0.424E-03 0.106E-03
CGA:  10    -0.424756393524E+03   -0.50562E-04   -0.51250E-04  6336   0.330E-03-0.381E-04
CGA:  11    -0.424756402747E+03   -0.92229E-05   -0.88437E-05  6336   0.940E-04-0.870E-05
   3 F= -.42475640E+03 E0= -.42474598E+03  d E =-.270574E-02  mag=    10.0000
       N       E                     dE             d eps       ncg     rms          ort
SDA:   1    -0.424728619131E+03    0.27774E-01    0.00000E+00  6336   0.164E+00 0.000E+00
CGA:   2    -0.424736193892E+03   -0.75748E-02   -0.75058E-02  6336   0.115E+00 0.461E-02
CGA:   3    -0.424744995110E+03   -0.88012E-02   -0.88020E-02  6336   0.181E+00-0.354E-03
CGA:   4    -0.424753051563E+03   -0.80565E-02   -0.80046E-02  6336   0.265E-01-0.314E-02
CGA:   5    -0.424758363298E+03   -0.53117E-02   -0.53970E-02  6336   0.857E-02-0.629E-03
CGA:   6    -0.424758599826E+03   -0.23653E-03   -0.24274E-03  6336   0.491E-02 0.510E-04
CGA:   7    -0.424759179337E+03   -0.57951E-03   -0.55751E-03  6336   0.142E-02 0.666E-03
CGA:   8    -0.424759317574E+03   -0.13824E-03   -0.15685E-03  6336   0.360E-02-0.121E-02
CGA:   9    -0.424759371787E+03   -0.54213E-04   -0.93170E-04  6336   0.380E-03 0.716E-03
CGA:  10    -0.424759372717E+03   -0.92973E-06   -0.11974E-04  6336   0.234E-03 0.208E-03
CGA:  11    -0.424759414176E+03   -0.41459E-04    0.59487E-04  6336   0.198E-03 0.145E-03
CGA:  12    -0.424759416016E+03   -0.18398E-05   -0.65679E-05  6336   0.143E-03 0.108E-03
CGA:  13    -0.424759430712E+03   -0.14696E-04   -0.25870E-04  6336   0.184E-02-0.107E-03
CGA:  14    -0.424759457955E+03   -0.27243E-04   -0.31628E-04  6336   0.602E-04 0.571E-04
CGA:  15    -0.424759462778E+03   -0.48233E-05   -0.48025E-05  6336   0.880E-04 0.449E-04
   4 F= -.42475946E+03 E0= -.42474903E+03  d E =-.306003E-02  mag=    10.0000
       N       E                     dE             d eps       ncg     rms          ort
SDA:   1    -0.424685427949E+03    0.74030E-01    0.00000E+00  6336   0.399E+01 0.000E+00
CGA:   2    -0.424756132706E+03   -0.70705E-01   -0.74868E-01  6336   0.435E-01-0.317E+00
CGA:   3    -0.424757296854E+03   -0.11641E-02   -0.11068E-02  6336   0.122E-01-0.991E-03
CGA:   4    -0.424758679396E+03   -0.13825E-02   -0.15793E-02  6336   0.351E-01-0.334E-02
CGA:   5    -0.424759592256E+03   -0.91286E-03   -0.90549E-03  6336   0.824E-02-0.220E-03
CGA:   6    -0.424759774551E+03   -0.18229E-03   -0.23191E-03  6336   0.376E-02 0.119E-02
CGA:   7    -0.424759928929E+03   -0.15438E-03   -0.17882E-03  6336   0.399E-02 0.807E-03
CGA:   8    -0.424760283184E+03   -0.35426E-03   -0.35449E-03  6336   0.165E-02-0.774E-04
CGA:   9    -0.424760327873E+03   -0.44688E-04   -0.35778E-04  6336   0.352E-03-0.190E-03
CGA:  10    -0.424760373098E+03   -0.45226E-04    0.14824E-03  6336   0.329E-03 0.124E-03
CGA:  11    -0.424760387925E+03   -0.14826E-04   -0.19487E-04  6336   0.148E-03 0.193E-03
CGA:  12    -0.424760388426E+03   -0.50081E-06   -0.30482E-05  6336   0.624E-04 0.548E-04
   5 F= -.42476039E+03 E0= -.42474994E+03  d E =-.925647E-03  mag=    10.0000
       N       E                     dE             d eps       ncg     rms          ort
SDA:   1    -0.424045220429E+03    0.71517E+00    0.00000E+00  6336   0.201E+01 0.000E+00
CGA:   2    -0.424317948455E+03   -0.27273E+00   -0.27769E+00  6336   0.765E+01-0.645E-01
CGA:   3    -0.424610218321E+03   -0.29227E+00   -0.28865E+00  6336   0.108E+01-0.201E-01
CGA:   4    -0.424666431711E+03   -0.56213E-01   -0.54115E-01  6336   0.635E+00-0.110E-01
CGA:   5    -0.424742859350E+03   -0.76428E-01   -0.76166E-01  6336   0.427E+00 0.426E-02
CGA:   6    -0.424752538990E+03   -0.96796E-02   -0.94809E-02  6336   0.641E-01 0.751E-03
CGA:   7    -0.424763457686E+03   -0.10919E-01   -0.11199E-01  6336   0.640E-01-0.257E-02
CGA:   8    -0.424765590775E+03   -0.21331E-02   -0.22546E-02  6336   0.889E-02 0.481E-02
CGA:   9    -0.424766505257E+03   -0.91448E-03   -0.87560E-03  6336   0.166E-01 0.170E-02
CGA:  10    -0.424767896160E+03   -0.13909E-02   -0.13913E-02  6336   0.894E-02-0.198E-02
CGA:  11    -0.424768120257E+03   -0.22410E-03   -0.20038E-03  6336   0.195E-02-0.542E-03
CGA:  12    -0.424768549505E+03   -0.42925E-03   -0.41248E-03  6336   0.417E-02 0.105E-03
CGA:  13    -0.424768715929E+03   -0.16642E-03   -0.15673E-03  6336   0.174E-02-0.268E-03
CGA:  14    -0.424768787600E+03   -0.71672E-04   -0.67906E-04  6336   0.109E-02-0.127E-03
CGA:  15    -0.424768979793E+03   -0.19219E-03   -0.19256E-03  6336   0.872E-03-0.368E-05
CGA:  16    -0.424769031772E+03   -0.51980E-04   -0.52144E-04  6336   0.470E-03 0.644E-05
CGA:  17    -0.424769073081E+03   -0.41308E-04   -0.41300E-04  6336   0.113E-02-0.129E-05
CGA:  18    -0.424769137723E+03   -0.64642E-04   -0.61836E-04  6336   0.293E-03-0.127E-03
CGA:  19    -0.424769150575E+03   -0.12852E-04   -0.13517E-04  6336   0.110E-03 0.265E-04
CGA:  20    -0.424769174209E+03   -0.23635E-04   -0.30360E-04  6336   0.854E-03-0.381E-04
CGA:  21    -0.424769184680E+03   -0.10471E-04   -0.10549E-04  6336   0.297E-03 0.276E-06
CGA:  22    -0.424769187928E+03   -0.32476E-05   -0.35636E-05  6336   0.615E-04 0.298E-05
   6 F= -.42476919E+03 E0= -.42475869E+03  d E =-.879950E-02  mag=    10.0000
       N       E                     dE             d eps       ncg     rms          ort
SDA:   1    -0.424565500252E+03    0.20368E+00    0.00000E+00  6336   0.665E+01 0.000E+00
CGA:   2    -0.424684498485E+03   -0.11900E+00   -0.13491E+00  6336   0.408E+00-0.990E+00
CGA:   3    -0.424704056643E+03   -0.19558E-01   -0.19558E-01  6336   0.431E+00-0.154E-02
CGA:   4    -0.424741050663E+03   -0.36994E-01   -0.37026E-01  6336   0.400E+00-0.318E-02
CGA:   5    -0.424755149261E+03   -0.14099E-01   -0.14280E-01  6336   0.828E-01-0.853E-03
CGA:   6    -0.424759890424E+03   -0.47412E-02   -0.47439E-02  6336   0.868E-01-0.139E-03
CGA:   7    -0.424765815987E+03   -0.59256E-02   -0.59274E-02  6336   0.382E-01 0.817E-03
CGA:   8    -0.424767040003E+03   -0.12240E-02   -0.12358E-02  6336   0.790E-02 0.155E-03
CGA:   9    -0.424767531137E+03   -0.49113E-03   -0.49391E-03  6336   0.832E-02 0.443E-03
CGA:  10    -0.424768125077E+03   -0.59394E-03   -0.59395E-03  6336   0.508E-02 0.264E-03
CGA:  11    -0.424768323655E+03   -0.19858E-03   -0.20112E-03  6336   0.148E-02 0.526E-04
CGA:  12    -0.424768415132E+03   -0.91477E-04   -0.91514E-04  6336   0.158E-02 0.949E-06
CGA:  13    -0.424768533064E+03   -0.11793E-03   -0.11786E-03  6336   0.118E-02-0.883E-06
CGA:  14    -0.424768587182E+03   -0.54117E-04   -0.52002E-04  6336   0.535E-03-0.995E-04
CGA:  15    -0.424768618897E+03   -0.31716E-04   -0.31676E-04  6336   0.566E-03-0.680E-04
CGA:  16    -0.424768652578E+03   -0.33681E-04   -0.33799E-04  6336   0.383E-03-0.372E-04
CGA:  17    -0.424768668616E+03   -0.16038E-04   -0.15939E-04  6336   0.182E-03-0.767E-05
CGA:  18    -0.424768683034E+03   -0.14417E-04   -0.14811E-04  6336   0.320E-03-0.214E-04
CGA:  19    -0.424768699094E+03   -0.16060E-04   -0.16262E-04  6336   0.623E-04 0.242E-04
CGA:  20    -0.424768700432E+03   -0.13384E-05   -0.21366E-05  6336   0.291E-04 0.241E-04
   7 F= -.42476870E+03 E0= -.42475817E+03  d E =0.487496E-03  mag=    10.0000
       N       E                     dE             d eps       ncg     rms          ort
SDA:   1    -0.424739862522E+03    0.28837E-01    0.00000E+00  6336   0.164E+00 0.000E+00
CGA:   2    -0.424744685080E+03   -0.48226E-02   -0.49639E-02  6336   0.100E+00 0.190E-02
CGA:   3    -0.424755479987E+03   -0.10795E-01   -0.10490E-01  6336   0.143E+00 0.719E-02
CGA:   4    -0.424764237075E+03   -0.87571E-02   -0.87681E-02  6336   0.193E-01-0.143E-02
CGA:   5    -0.424765494695E+03   -0.12576E-02   -0.12567E-02  6336   0.320E-01 0.348E-03
CGA:   6    -0.424767179646E+03   -0.16850E-02   -0.16807E-02  6336   0.118E-01-0.519E-03
CGA:   7    -0.424767828278E+03   -0.64863E-03   -0.62549E-03  6336   0.315E-02-0.260E-02
CGA:   8    -0.424767991541E+03   -0.16326E-03   -0.16208E-03  6336   0.127E-02 0.354E-03
CGA:   9    -0.424768060736E+03   -0.69194E-04   -0.69153E-04  6336   0.157E-02-0.103E-04
CGA:  10    -0.424768196202E+03   -0.13547E-03   -0.15714E-03  6336   0.793E-03-0.560E-03
CGA:  11    -0.424768202409E+03   -0.62067E-05   -0.11297E-04  6336   0.260E-03 0.120E-03
   8 F= -.42476820E+03 E0= -.42475769E+03  d E =0.498023E-03  mag=    10.0000
       N       E                     dE             d eps       ncg     rms          ort
SDA:   1    -0.424750392694E+03    0.17804E-01    0.00000E+00  6336   0.259E+00 0.000E+00
CGA:   2    -0.424755518160E+03   -0.51255E-02   -0.53048E-02  6336   0.433E-01-0.152E-02
CGA:   3    -0.424760586852E+03   -0.50687E-02   -0.47995E-02  6336   0.439E-01 0.499E-02
CGA:   4    -0.424763700282E+03   -0.31134E-02   -0.31183E-02  6336   0.156E-01-0.219E-02
CGA:   5    -0.424765250537E+03   -0.15503E-02   -0.14899E-02  6336   0.158E-01 0.151E-02
CGA:   6    -0.424765927771E+03   -0.67723E-03   -0.67003E-03  6336   0.912E-02-0.372E-03
CGA:   7    -0.424766481291E+03   -0.55352E-03   -0.55467E-03  6336   0.470E-02-0.195E-02
CGA:   8    -0.424766639525E+03   -0.15823E-03   -0.16277E-03  6336   0.108E-02 0.253E-03
CGA:   9    -0.424766681948E+03   -0.42423E-04   -0.45515E-04  6336   0.744E-03 0.143E-03
CGA:  10    -0.424766765821E+03   -0.83873E-04   -0.17987E-03  6336   0.219E-02-0.626E-03
CGA:  11    -0.424766814268E+03   -0.48447E-04   -0.44958E-04  6336   0.315E-03-0.859E-04
CGA:  12    -0.424766862846E+03   -0.48579E-04   -0.65554E-04  6336   0.685E-03-0.113E-03
CGA:  13    -0.424766864180E+03   -0.13336E-05   -0.64533E-05  6336   0.194E-03 0.861E-04
   9 F= -.42476686E+03 E0= -.42475636E+03  d E =0.133823E-02  mag=    10.0000
       N       E                     dE             d eps       ncg     rms          ort
SDA:   1    -0.420066420005E+03    0.47004E+01    0.00000E+00  6336   0.400E+02 0.000E+00
CGA:   2    -0.423011243103E+03   -0.29448E+01   -0.13101E+01  6336   0.599E+01 0.137E+02
CGA:   3    -0.423166762488E+03   -0.15552E+00   -0.16217E+00  6336   0.850E+01-0.575E+00
CGA:   4    -0.423330257958E+03   -0.16350E+00   -0.18243E+00  6336   0.218E+02-0.726E+00
CGA:   5    -0.423742796719E+03   -0.41254E+00   -0.45290E+00  6336   0.230E+02-0.999E+00
CGA:   6    -0.423955203106E+03   -0.21241E+00   -0.23401E+00  6336   0.868E+01-0.287E+01
CGA:   7    -0.424070879394E+03   -0.11568E+00   -0.10834E+00  6336   0.965E+01 0.809E+00
CGA:   8    -0.424196973518E+03   -0.12609E+00   -0.74719E-01  6336   0.767E+01 0.691E+01
CGA:   9    -0.424374407829E+03   -0.17743E+00   -0.17955E+00  6336   0.253E+01-0.137E+00
CGA:  10    -0.424516220399E+03   -0.14181E+00   -0.14205E+00  6336   0.293E+01-0.206E-01
CGA:  11    -0.424670124157E+03   -0.15390E+00   -0.15364E+00  6336   0.894E+00 0.506E-01
CGA:  12    -0.424687374382E+03   -0.17250E-01   -0.17063E-01  6336   0.895E-01 0.644E-02
CGA:  13    -0.424699310822E+03   -0.11936E-01   -0.11721E-01  6336   0.252E+00 0.241E-02
CGA:  14    -0.424714494036E+03   -0.15183E-01   -0.15194E-01  6336   0.169E+00-0.539E-02
CGA:  15    -0.424718630242E+03   -0.41362E-02   -0.42060E-02  6336   0.227E-01-0.966E-03
CGA:  16    -0.424723663265E+03   -0.50330E-02   -0.49408E-02  6336   0.591E-01 0.675E-03
CGA:  17    -0.424725696247E+03   -0.20330E-02   -0.20341E-02  6336   0.174E-01-0.115E-02
CGA:  18    -0.424726144471E+03   -0.44822E-03   -0.49139E-03  6336   0.377E-02 0.131E-02
CGA:  19    -0.424727048748E+03   -0.90428E-03   -0.83449E-03  6336   0.152E-01 0.477E-03
CGA:  20    -0.424727639141E+03   -0.59039E-03   -0.56339E-03  6336   0.320E-02-0.109E-02
CGA:  21    -0.424727772803E+03   -0.13366E-03   -0.14421E-03  6336   0.170E-02 0.690E-03
CGA:  22    -0.424728317155E+03   -0.54435E-03   -0.29496E-05  6336   0.179E-01-0.970E-03
CGA:  23    -0.424728580367E+03   -0.26321E-03   -0.31397E-03  6336   0.553E-03 0.603E-03
CGA:  24    -0.424728695135E+03   -0.11477E-03   -0.11211E-03  6336   0.226E-02 0.305E-04
CGA:  25    -0.424728793273E+03   -0.98139E-04   -0.80493E-04  6336   0.363E-03-0.235E-03
CGA:  26    -0.424728793920E+03   -0.64632E-06   -0.11154E-04  6336   0.172E-03 0.139E-03
CGA:  27    -0.424728814449E+03   -0.20529E-04   -0.22142E-04  6336   0.318E-03 0.122E-03
CGA:  28    -0.424728852014E+03   -0.37565E-04   -0.26089E-04  6336   0.182E-02-0.495E-03
CGA:  29    -0.424728859753E+03   -0.77389E-05   -0.30880E-04  6336   0.148E-03 0.257E-03
  10 F= -.42472886E+03 E0= -.42471891E+03  d E =0.380044E-01  mag=    10.0000
       N       E                     dE             d eps       ncg     rms          ort
SDA:   1    -0.423591592098E+03    0.11373E+01    0.00000E+00  6336   0.765E+01 0.000E+00
CGA:   2    -0.423789454633E+03   -0.19786E+00   -0.27974E+00  6336   0.690E+01-0.198E+01
CGA:   3    -0.424466407233E+03   -0.67695E+00   -0.68337E+00  6336   0.159E+01-0.129E+00
CGA:   4    -0.424576339811E+03   -0.10993E+00   -0.10406E+00  6336   0.146E+01-0.277E-02
CGA:   5    -0.424717017745E+03   -0.14068E+00   -0.14065E+00  6336   0.416E+00 0.710E-02
CGA:   6    -0.424728449041E+03   -0.11431E-01   -0.11332E-01  6336   0.164E+00-0.568E-02
CGA:   7    -0.424753227929E+03   -0.24779E-01   -0.24584E-01  6336   0.662E-01 0.294E-02
CGA:   8    -0.424755219403E+03   -0.19915E-02   -0.20903E-02  6336   0.288E-01-0.350E-03
CGA:   9    -0.424757528681E+03   -0.23093E-02   -0.23307E-02  6336   0.342E-01 0.233E-02
CGA:  10    -0.424760385103E+03   -0.28564E-02   -0.28152E-02  6336   0.129E-01-0.326E-02
CGA:  11    -0.424760719740E+03   -0.33464E-03   -0.36679E-03  6336   0.563E-02 0.451E-03
CGA:  12    -0.424761138726E+03   -0.41899E-03   -0.43105E-03  6336   0.503E-02 0.974E-03
CGA:  13    -0.424761951591E+03   -0.81287E-03   -0.10003E-02  6336   0.797E-02-0.225E-02
CGA:  14    -0.424762057481E+03   -0.10589E-03   -0.13994E-03  6336   0.305E-02 0.603E-03
CGA:  15    -0.424762100353E+03   -0.42872E-04   -0.80771E-04  6336   0.134E-02 0.639E-03
CGA:  16    -0.424762179235E+03   -0.78882E-04   -0.92312E-04  6336   0.259E-02 0.501E-03
CGA:  17    -0.424762498491E+03   -0.31926E-03   -0.32058E-03  6336   0.141E-02-0.177E-03
CGA:  18    -0.424762588405E+03   -0.89914E-04   -0.59428E-04  6336   0.802E-03-0.827E-03
CGA:  19    -0.424762599174E+03   -0.10768E-04   -0.26196E-04  6336   0.400E-03 0.319E-03
CGA:  20    -0.424762629944E+03   -0.30770E-04   -0.34570E-04  6336   0.450E-03 0.226E-03
CGA:  21    -0.424762398037E+03    0.23191E-03   -0.11128E-03  6336   0.166E-01-0.203E-02
CGA:  22    -0.424762725319E+03   -0.32728E-03   -0.40260E-03  6336   0.136E-02 0.116E-02
CGA:  23    -0.424762728512E+03   -0.31937E-05   -0.25343E-04  6336   0.103E-03 0.339E-03
  11 F= -.42476273E+03 E0= -.42475231E+03  d E =-.338688E-01  mag=    10.0000
       N       E                     dE             d eps       ncg     rms          ort
SDA:   1    -0.424567064454E+03    0.19566E+00    0.00000E+00  6336   0.540E+01 0.000E+00
CGA:   2    -0.424666235112E+03   -0.99171E-01   -0.10978E+00  6336   0.410E+00-0.674E+00
CGA:   3    -0.424695629462E+03   -0.29394E-01   -0.29457E-01  6336   0.688E+00-0.672E-02
CGA:   4    -0.424736724637E+03   -0.41095E-01   -0.41072E-01  6336   0.290E+00-0.446E-02
CGA:   5    -0.424747082324E+03   -0.10358E-01   -0.10614E-01  6336   0.104E+00 0.206E-02
CGA:   6    -0.424755605963E+03   -0.85236E-02   -0.85211E-02  6336   0.138E+00-0.740E-04
CGA:   7    -0.424761651742E+03   -0.60458E-02   -0.60600E-02  6336   0.221E-01 0.579E-03
CGA:   8    -0.424762444104E+03   -0.79236E-03   -0.79338E-03  6336   0.102E-01-0.838E-04
CGA:   9    -0.424763325523E+03   -0.88142E-03   -0.86128E-03  6336   0.908E-02 0.121E-02
CGA:  10    -0.424763776853E+03   -0.45133E-03   -0.44642E-03  6336   0.424E-02-0.223E-03
CGA:  11    -0.424763985761E+03   -0.20891E-03   -0.21025E-03  6336   0.208E-02 0.551E-04
CGA:  12    -0.424764099431E+03   -0.11367E-03   -0.11516E-03  6336   0.141E-02 0.105E-03
CGA:  13    -0.424764178091E+03   -0.78661E-04   -0.80887E-04  6336   0.820E-03 0.175E-03
CGA:  14    -0.424764251586E+03   -0.73494E-04   -0.83678E-04  6336   0.245E-02-0.422E-03
CGA:  15    -0.424764285651E+03   -0.34065E-04   -0.41998E-04  6336   0.123E-03 0.139E-03
CGA:  16    -0.424764288243E+03   -0.25923E-05   -0.49657E-05  6336   0.128E-03 0.883E-04
CGA:  17    -0.424764216512E+03    0.71732E-04   -0.40095E-04  6336   0.856E-02-0.452E-03
CGA:  18    -0.424764346263E+03   -0.12975E-03   -0.14532E-03  6336   0.849E-04 0.183E-03
CGA:  19    -0.424764344675E+03    0.15881E-05   -0.15822E-05  6336   0.511E-04 0.577E-04
  12 F= -.42476434E+03 E0= -.42475389E+03  d E =-.161616E-02  mag=    10.0000
       N       E                     dE             d eps       ncg     rms          ort
SDA:   1    -0.423530126939E+03    0.12342E+01    0.00000E+00  6336   0.435E+01 0.000E+00
CGA:   2    -0.423730627364E+03   -0.20050E+00   -0.20664E+00  6336   0.661E+01-0.377E-01
CGA:   3    -0.424553076278E+03   -0.82245E+00   -0.82153E+00  6336   0.140E+01 0.158E-01
CGA:   4    -0.424630461222E+03   -0.77385E-01   -0.79879E-01  6336   0.829E+00 0.290E-01
CGA:   5    -0.424732915281E+03   -0.10245E+00   -0.10307E+00  6336   0.215E+00-0.106E-01
CGA:   6    -0.424739968420E+03   -0.70531E-02   -0.69253E-02  6336   0.120E+00-0.248E-02
CGA:   7    -0.424748901151E+03   -0.89327E-02   -0.89469E-02  6336   0.119E+00-0.392E-02
CGA:   8    -0.424755615188E+03   -0.67140E-02   -0.67442E-02  6336   0.125E-01 0.394E-02
CGA:   9    -0.424756791622E+03   -0.11764E-02   -0.11742E-02  6336   0.348E-01 0.571E-04
CGA:  10    -0.424758803873E+03   -0.20123E-02   -0.20055E-02  6336   0.517E-02-0.574E-03
CGA:  11    -0.424759064722E+03   -0.26085E-03   -0.26106E-03  6336   0.286E-02 0.518E-05
CGA:  12    -0.424759627718E+03   -0.56300E-03   -0.66860E-03  6336   0.113E-01-0.654E-03
CGA:  13    -0.424759812404E+03   -0.18469E-03   -0.17714E-03  6336   0.151E-02-0.140E-03
CGA:  14    -0.424759849717E+03   -0.37313E-04   -0.37933E-04  6336   0.146E-02 0.614E-05
CGA:  15    -0.424760030654E+03   -0.18094E-03   -0.18251E-03  6336   0.552E-02-0.305E-04
CGA:  16    -0.424760172820E+03   -0.14217E-03   -0.13568E-03  6336   0.147E-02-0.174E-03
CGA:  17    -0.424760219233E+03   -0.46413E-04   -0.40906E-04  6336   0.709E-03-0.137E-03
CGA:  18    -0.424760238143E+03   -0.18910E-04   -0.17611E-04  6336   0.488E-03-0.317E-04
CGA:  19    -0.424760273797E+03   -0.35654E-04   -0.35307E-04  6336   0.147E-02 0.459E-04
CGA:  20    -0.424760336040E+03   -0.62243E-04   -0.62663E-04  6336   0.204E-03 0.593E-05
CGA:  21    -0.424760349782E+03   -0.13742E-04   -0.13721E-04  6336   0.782E-03-0.195E-03
CGA:  22    -0.424760359696E+03   -0.99148E-05   -0.13746E-04  6336   0.729E-04 0.731E-04
  13 F= -.42476036E+03 E0= -.42474974E+03  d E =0.398498E-02  mag=    10.0000
       N       E                     dE             d eps       ncg     rms          ort
SDA:   1    -0.419437209774E+03    0.53231E+01    0.00000E+00  6336   0.135E+02 0.000E+00
CGA:   2    -0.421662789871E+03   -0.22256E+01   -0.20232E+01  6336   0.355E+02 0.271E+01
CGA:   3    -0.423623419947E+03   -0.19606E+01   -0.19132E+01  6336   0.125E+02-0.328E+01
CGA:   4    -0.424150550973E+03   -0.52713E+00   -0.50811E+00  6336   0.389E+01-0.184E+00
CGA:   5    -0.424417618992E+03   -0.26707E+00   -0.26610E+00  6336   0.414E+01 0.120E+00
CGA:   6    -0.424614511599E+03   -0.19689E+00   -0.19721E+00  6336   0.129E+01-0.824E-02
CGA:   7    -0.424670500766E+03   -0.55989E-01   -0.55206E-01  6336   0.477E+00-0.184E-01
CGA:   8    -0.424696351658E+03   -0.25851E-01   -0.25809E-01  6336   0.413E+00-0.262E-02
CGA:   9    -0.424721467659E+03   -0.25116E-01   -0.25132E-01  6336   0.180E+00 0.556E-02
CGA:  10    -0.424729146173E+03   -0.76785E-02   -0.76395E-02  6336   0.886E-01-0.973E-03
CGA:  11    -0.424734839524E+03   -0.56934E-02   -0.57059E-02  6336   0.845E-01-0.444E-02
CGA:  12    -0.424739537243E+03   -0.46977E-02   -0.47067E-02  6336   0.343E-01 0.237E-02
CGA:  13    -0.424740896731E+03   -0.13595E-02   -0.13687E-02  6336   0.170E-01 0.256E-05
CGA:  14    -0.424742658217E+03   -0.17615E-02   -0.18056E-02  6336   0.307E-01-0.102E-02
CGA:  15    -0.424744006767E+03   -0.13486E-02   -0.13301E-02  6336   0.898E-02-0.129E-02
CGA:  16    -0.424744374075E+03   -0.36731E-03   -0.38141E-03  6336   0.514E-02 0.759E-03
CGA:  17    -0.424745128311E+03   -0.75424E-03   -0.82709E-03  6336   0.218E-01-0.859E-03
CGA:  18    -0.424745935681E+03   -0.80737E-03   -0.78458E-03  6336   0.179E-02-0.975E-03
CGA:  19    -0.424746033416E+03   -0.97735E-04   -0.96398E-04  6336   0.407E-02-0.174E-03
CGA:  20    -0.424746456006E+03   -0.42259E-03   -0.50198E-03  6336   0.463E-02-0.110E-02
CGA:  21    -0.424746504043E+03   -0.48036E-04   -0.69758E-04  6336   0.158E-02 0.459E-03
CGA:  22    -0.424746514250E+03   -0.10207E-04   -0.31901E-04  6336   0.714E-03 0.472E-03
CGA:  23    -0.424746524602E+03   -0.10352E-04   -0.23289E-04  6336   0.833E-03 0.341E-03
CGA:  24    -0.424746602997E+03   -0.78396E-04   -0.77683E-04  6336   0.220E-02 0.341E-03
CGA:  25    -0.424746741480E+03   -0.13848E-03   -0.13099E-03  6336   0.730E-03-0.408E-03
CGA:  26    -0.424746777305E+03   -0.35824E-04   -0.30012E-04  6336   0.915E-03-0.603E-03
CGA:  27    -0.424746789845E+03   -0.12540E-04   -0.24769E-04  6336   0.391E-03 0.373E-03
CGA:  28    -0.424746807688E+03   -0.17843E-04   -0.22870E-04  6336   0.364E-03 0.304E-03
CGA:  29    -0.424746854191E+03   -0.46503E-04    0.91460E-04  6336   0.291E-03 0.607E-04
CGA:  30    -0.424746881492E+03   -0.27300E-04   -0.24600E-04  6336   0.258E-03 0.177E-03
CGA:  31    -0.424746884132E+03   -0.26405E-05   -0.55483E-05  6336   0.899E-04 0.784E-04
  14 F= -.42474688E+03 E0= -.42473621E+03  d E =0.134756E-01  mag=    10.0000
       N       E                     dE             d eps       ncg     rms          ort
SDA:   1    -0.421508506069E+03    0.32384E+01    0.00000E+00  6336   0.159E+02 0.000E+00
CGA:   2    -0.421990841741E+03   -0.48234E+00   -0.51341E+00  6336   0.129E+02-0.887E+00
CGA:   3    -0.424104123411E+03   -0.21133E+01   -0.21355E+01  6336   0.620E+01-0.214E+00
CGA:   4    -0.424336857957E+03   -0.23273E+00   -0.24996E+00  6336   0.174E+01 0.896E-01
CGA:   5    -0.424625515509E+03   -0.28866E+00   -0.28898E+00  6336   0.852E+00-0.670E-02
CGA:   6    -0.424647903424E+03   -0.22388E-01   -0.22067E-01  6336   0.285E+00-0.798E-02
CGA:   7    -0.424671287810E+03   -0.23384E-01   -0.23394E-01  6336   0.314E+00-0.316E-02
CGA:   8    -0.424692069394E+03   -0.20782E-01   -0.20774E-01  6336   0.561E-01 0.363E-02
CGA:   9    -0.424694173900E+03   -0.21045E-02   -0.21246E-02  6336   0.512E-01 0.530E-03
CGA:  10    -0.424701058516E+03   -0.68846E-02   -0.71956E-02  6336   0.348E-01-0.407E-02
CGA:  11    -0.424701969499E+03   -0.91098E-03   -0.10065E-02  6336   0.795E-02 0.296E-02
CGA:  12    -0.424702485294E+03   -0.51580E-03   -0.52121E-03  6336   0.115E-01 0.143E-02
CGA:  13    -0.424704335306E+03   -0.18500E-02   -0.19251E-02  6336   0.700E-02-0.951E-03
CGA:  14    -0.424704608332E+03   -0.27303E-03   -0.24232E-03  6336   0.446E-02-0.108E-02
CGA:  15    -0.424704919682E+03   -0.31135E-03   -0.31450E-03  6336   0.784E-02-0.191E-03
CGA:  16    -0.424705538527E+03   -0.61885E-03   -0.61423E-03  6336   0.132E-02 0.299E-03
CGA:  17    -0.424705663081E+03   -0.12455E-03   -0.15230E-03  6336   0.649E-02-0.638E-03
CGA:  18    -0.424705808277E+03   -0.14520E-03   -0.11894E-03  6336   0.785E-02-0.769E-03
CGA:  19    -0.424705923322E+03   -0.11505E-03   -0.11812E-03  6336   0.283E-02 0.320E-04
CGA:  20    -0.424705941355E+03   -0.18033E-04   -0.45943E-04  6336   0.131E-02 0.572E-03
CGA:  21    -0.424705940537E+03    0.81739E-06   -0.22117E-04  6336   0.635E-03 0.471E-03
CGA:  22    -0.424705944594E+03   -0.40571E-05   -0.16715E-04  6336   0.772E-03 0.304E-03
CGA:  23    -0.424706001210E+03   -0.56615E-04   -0.58707E-04  6336   0.266E-02 0.285E-03
CGA:  24    -0.424706140802E+03   -0.13959E-03   -0.13111E-03  6336   0.190E-02-0.382E-03
CGA:  25    -0.424706183523E+03   -0.42721E-04   -0.24406E-04  6336   0.626E-03-0.432E-03
CGA:  26    -0.424706210826E+03   -0.27304E-04   -0.17470E-04  6336   0.114E-02-0.523E-03
CGA:  27    -0.424706223211E+03   -0.12385E-04   -0.23033E-04  6336   0.389E-03 0.309E-03
CGA:  28    -0.424706240600E+03   -0.17389E-04   -0.20629E-04  6336   0.489E-03 0.300E-03
CGA:  29    -0.424706256722E+03   -0.16122E-04   -0.43826E-04  6336   0.395E-02-0.743E-03
CGA:  30    -0.424706303544E+03   -0.46822E-04   -0.63437E-04  6336   0.185E-03 0.423E-03
CGA:  31    -0.424706303425E+03    0.11895E-06   -0.40203E-05  6336   0.148E-03 0.128E-03
CGA:  32    -0.424706320164E+03   -0.16739E-04   -0.15697E-04  6336   0.506E-03 0.180E-04
CGA:  33    -0.424706346792E+03   -0.26629E-04   -0.27577E-04  6336   0.911E-04 0.206E-03
CGA:  34    -0.424706366194E+03   -0.19402E-04    0.79036E-05  6336   0.745E-04 0.386E-04
CGA:  35    -0.424706380113E+03   -0.13919E-04    0.11756E-04  6336   0.101E-03 0.660E-04
CGA:  36    -0.424706378655E+03    0.14577E-05   -0.12530E-05  6336   0.522E-04 0.667E-04
  15 F= -.42470638E+03 E0= -.42469611E+03  d E =0.405055E-01  mag=    10.0000
       N       E                     dE             d eps       ncg     rms          ort
SDA:   1    -0.424046966333E+03    0.65941E+00    0.00000E+00  6336   0.619E+01 0.000E+00
CGA:   2    -0.424186141937E+03   -0.13918E+00   -0.13965E+00  6336   0.187E+01-0.139E+00
CGA:   3    -0.424578585916E+03   -0.39244E+00   -0.38902E+00  6336   0.180E+01 0.181E-01
CGA:   4    -0.424651902660E+03   -0.73317E-01   -0.75326E-01  6336   0.346E+00 0.210E-01
CGA:   5    -0.424704803157E+03   -0.52900E-01   -0.52020E-01  6336   0.589E+00 0.836E-02
CGA:   6    -0.424724337957E+03   -0.19535E-01   -0.19237E-01  6336   0.136E+00-0.720E-02
CGA:   7    -0.424729723776E+03   -0.53858E-02   -0.52452E-02  6336   0.546E-01-0.788E-02
CGA:   8    -0.424736637975E+03   -0.69142E-02   -0.68554E-02  6336   0.567E-01 0.711E-03
CGA:   9    -0.424738231781E+03   -0.15938E-02   -0.16105E-02  6336   0.128E-01-0.605E-04
CGA:  10    -0.424739238342E+03   -0.10066E-02   -0.10498E-02  6336   0.194E-01-0.203E-02
CGA:  11    -0.424740531199E+03   -0.12929E-02   -0.12853E-02  6336   0.132E-01 0.377E-03
CGA:  12    -0.424740878167E+03   -0.34697E-03   -0.38398E-03  6336   0.214E-02 0.110E-02
CGA:  13    -0.424741112252E+03   -0.23408E-03   -0.20549E-03  6336   0.260E-02 0.999E-03
CGA:  14    -0.424741499982E+03   -0.38773E-03   -0.47012E-03  6336   0.776E-02-0.134E-02
CGA:  15    -0.424741622619E+03   -0.12264E-03   -0.14767E-03  6336   0.826E-03 0.477E-03
CGA:  16    -0.424741639861E+03   -0.17243E-04   -0.28434E-04  6336   0.474E-03 0.375E-03
CGA:  17    -0.424741693086E+03   -0.53224E-04   -0.51539E-04  6336   0.136E-02 0.120E-03
CGA:  18    -0.424741813382E+03   -0.12030E-03   -0.12919E-03  6336   0.818E-03-0.635E-03
CGA:  19    -0.424741827276E+03   -0.13895E-04   -0.37180E-04  6336   0.272E-02-0.103E-02
CGA:  20    -0.424741876871E+03   -0.49595E-04   -0.67004E-04  6336   0.833E-03 0.439E-03
CGA:  21    -0.424741905269E+03   -0.28398E-04   -0.37911E-04  6336   0.513E-03 0.427E-03
CGA:  22    -0.424741349346E+03    0.55592E-03   -0.30344E-03  6336   0.283E-01-0.234E-02
CGA:  23    -0.424741959814E+03   -0.61047E-03   -0.70390E-03  6336   0.274E-02 0.166E-02
CGA:  24    -0.424741990762E+03   -0.30949E-04   -0.59081E-04  6336   0.126E-03 0.337E-03
CGA:  25    -0.424741994395E+03   -0.36324E-05   -0.64606E-05  6336   0.149E-03 0.502E-04
CGA:  26    -0.424742015834E+03   -0.21439E-04   -0.21670E-04  6336   0.266E-03-0.406E-04
CGA:  27    -0.424742027725E+03   -0.11892E-04   -0.61174E-05  6336   0.633E-04-0.868E-04
CGA:  28    -0.424742036811E+03   -0.90852E-05    0.17789E-04  6336   0.268E-03-0.481E-04
  16 F= -.42474204E+03 E0= -.42473150E+03  d E =-.356582E-01  mag=    10.0000
       N       E                     dE             d eps       ncg     rms          ort
SDA:   1    -0.422638863180E+03    0.21032E+01    0.00000E+00  6336   0.392E+02 0.000E+00
CGA:   2    -0.423192356957E+03   -0.55349E+00   -0.13610E+01  6336   0.317E+02-0.354E+02
CGA:   3    -0.423565725219E+03   -0.37337E+00   -0.10305E+01  6336   0.225E+02-0.246E+02
CGA:   4    -0.423892226701E+03   -0.32650E+00   -0.65487E+00  6336   0.113E+02-0.134E+02
CGA:   5    -0.424105067695E+03   -0.21284E+00   -0.28368E+00  6336   0.360E+01-0.346E+01
CGA:   6    -0.424429708440E+03   -0.32464E+00   -0.32592E+00  6336   0.519E+01-0.121E-01
CGA:   7    -0.424609220670E+03   -0.17951E+00   -0.18461E+00  6336   0.120E+01-0.190E+00
CGA:   8    -0.424658321386E+03   -0.49101E-01   -0.50378E-01  6336   0.604E+00-0.136E-01
CGA:   9    -0.424698139537E+03   -0.39818E-01   -0.39698E-01  6336   0.576E+00-0.679E-02
CGA:  10    -0.424726844264E+03   -0.28705E-01   -0.28767E-01  6336   0.216E+00-0.224E-02
CGA:  11    -0.424734873818E+03   -0.80296E-02   -0.80882E-02  6336   0.633E-01-0.348E-04
CGA:  12    -0.424738165471E+03   -0.32917E-02   -0.33151E-02  6336   0.489E-01 0.462E-03
CGA:  13    -0.424741655994E+03   -0.34905E-02   -0.34873E-02  6336   0.437E-01-0.119E-02
CGA:  14    -0.424743480658E+03   -0.18247E-02   -0.18320E-02  6336   0.116E-01-0.439E-04
CGA:  15    -0.424743934812E+03   -0.45415E-03   -0.46144E-03  6336   0.533E-02 0.166E-03
CGA:  16    -0.424744376508E+03   -0.44170E-03   -0.44097E-03  6336   0.828E-02 0.367E-04
CGA:  17    -0.424744945110E+03   -0.56860E-03   -0.56673E-03  6336   0.565E-02-0.646E-03
CGA:  18    -0.424745139161E+03   -0.19405E-03   -0.19402E-03  6336   0.139E-02-0.341E-04
CGA:  19    -0.424745225756E+03   -0.86596E-04   -0.87084E-04  6336   0.185E-02 0.761E-04
CGA:  20    -0.424745437092E+03   -0.21134E-03   -0.21402E-03  6336   0.314E-02-0.736E-04
CGA:  21    -0.424745576924E+03   -0.13983E-03   -0.13093E-03  6336   0.806E-03-0.330E-03
CGA:  22    -0.424745604110E+03   -0.27186E-04   -0.27797E-04  6336   0.370E-03 0.156E-04
CGA:  23    -0.424745638160E+03   -0.34050E-04   -0.32537E-04  6336   0.435E-03 0.811E-04
CGA:  24    -0.424745669555E+03   -0.31395E-04   -0.31268E-04  6336   0.447E-03-0.155E-04
CGA:  25    -0.424745700316E+03   -0.30761E-04   -0.31097E-04  6336   0.378E-03-0.928E-04
CGA:  26    -0.424745706688E+03   -0.63724E-05   -0.89697E-05  6336   0.721E-04 0.657E-04
  17 F= -.42474571E+03 E0= -.42473519E+03  d E =-.366988E-02  mag=    10.0000
       N       E                     dE             d eps       ncg     rms          ort
SDA:   1    -0.423700381323E+03    0.10453E+01    0.00000E+00  6336   0.266E+01 0.000E+00
CGA:   2    -0.424314702423E+03   -0.61432E+00   -0.60933E+00  6336   0.640E+01 0.260E-01
CGA:   3    -0.424528637099E+03   -0.21393E+00   -0.20787E+00  6336   0.155E+01 0.272E-01
CGA:   4    -0.424602354405E+03   -0.73717E-01   -0.74428E-01  6336   0.112E+01-0.224E-01
CGA:   5    -0.424703827284E+03   -0.10147E+00   -0.10117E+00  6336   0.528E+00 0.120E-01
CGA:   6    -0.424717064751E+03   -0.13237E-01   -0.13522E-01  6336   0.103E+00-0.446E-02
CGA:   7    -0.424729083648E+03   -0.12019E-01   -0.12074E-01  6336   0.172E+00-0.137E-02
CGA:   8    -0.424735448512E+03   -0.63649E-02   -0.63114E-02  6336   0.351E-01-0.157E-02
CGA:   9    -0.424736681725E+03   -0.12332E-02   -0.12526E-02  6336   0.148E-01 0.374E-03
CGA:  10    -0.424738884244E+03   -0.22025E-02   -0.22146E-02  6336   0.293E-01-0.182E-03
CGA:  11    -0.424739657709E+03   -0.77347E-03   -0.78919E-03  6336   0.232E-02 0.172E-03
CGA:  12    -0.424740035556E+03   -0.37785E-03   -0.34645E-03  6336   0.655E-02 0.394E-03
CGA:  13    -0.424740354472E+03   -0.31892E-03   -0.32800E-03  6336   0.214E-02 0.260E-03
CGA:  14    -0.424740482306E+03   -0.12783E-03   -0.12232E-03  6336   0.226E-02-0.329E-03
CGA:  15    -0.424740645375E+03   -0.16307E-03   -0.16328E-03  6336   0.203E-02-0.207E-04
CGA:  16    -0.424740722965E+03   -0.77590E-04   -0.82813E-04  6336   0.780E-03 0.160E-03
CGA:  17    -0.424740793175E+03   -0.70211E-04   -0.68937E-04  6336   0.137E-02 0.110E-03
CGA:  18    -0.424740933794E+03   -0.14062E-03   -0.15962E-03  6336   0.262E-02-0.620E-03
CGA:  19    -0.424740972109E+03   -0.38316E-04   -0.32761E-04  6336   0.626E-03-0.122E-03
CGA:  20    -0.424740977247E+03   -0.51377E-05   -0.92371E-05  6336   0.282E-03 0.713E-04
  18 F= -.42474098E+03 E0= -.42473052E+03  d E =0.472944E-02  mag=    10.0000
       N       E                     dE             d eps       ncg     rms          ort
SDA:   1    -0.420830817465E+03    0.39102E+01    0.00000E+00  6336   0.102E+02 0.000E+00
CGA:   2    -0.422512876657E+03   -0.16821E+01   -0.16712E+01  6336   0.316E+02 0.240E+00
CGA:   3    -0.423983042766E+03   -0.14702E+01   -0.13823E+01  6336   0.607E+01-0.626E+00
CGA:   4    -0.424222164279E+03   -0.23912E+00   -0.23772E+00  6336   0.367E+01-0.885E-01
CGA:   5    -0.424568716912E+03   -0.34655E+00   -0.34737E+00  6336   0.311E+01-0.218E-01
CGA:   6    -0.424649543839E+03   -0.80827E-01   -0.85300E-01  6336   0.394E+00-0.105E+00
CGA:   7    -0.424675854617E+03   -0.26311E-01   -0.26300E-01  6336   0.588E+00 0.262E-02
CGA:   8    -0.424711500719E+03   -0.35646E-01   -0.35619E-01  6336   0.173E+00-0.527E-02
CGA:   9    -0.424717093068E+03   -0.55923E-02   -0.54473E-02  6336   0.602E-01-0.268E-02
CGA:  10    -0.424723207318E+03   -0.61142E-02   -0.61336E-02  6336   0.110E+00-0.710E-03
CGA:  11    -0.424727772068E+03   -0.45647E-02   -0.45854E-02  6336   0.214E-01 0.338E-03
CGA:  12    -0.424728625821E+03   -0.85375E-03   -0.87052E-03  6336   0.137E-01 0.485E-03
CGA:  13    -0.424730188161E+03   -0.15623E-02   -0.15787E-02  6336   0.272E-01-0.378E-03
CGA:  14    -0.424731266537E+03   -0.10784E-02   -0.10800E-02  6336   0.485E-02-0.727E-04
CGA:  15    -0.424731564530E+03   -0.29799E-03   -0.29723E-03  6336   0.816E-02-0.208E-03
CGA:  16    -0.424732544156E+03   -0.97963E-03   -0.10281E-02  6336   0.880E-02-0.755E-03
CGA:  17    -0.424732807097E+03   -0.26294E-03   -0.24103E-03  6336   0.195E-02-0.595E-03
CGA:  18    -0.424732996062E+03   -0.18896E-03   -0.20907E-03  6336   0.674E-02-0.429E-03
CGA:  19    -0.424733347948E+03   -0.35189E-03   -0.35078E-03  6336   0.240E-02-0.476E-03
CGA:  20    -0.424733411033E+03   -0.63084E-04   -0.70971E-04  6336   0.506E-03 0.214E-03
CGA:  21    -0.424733476203E+03   -0.65170E-04   -0.59277E-04  6336   0.133E-02 0.144E-03
CGA:  22    -0.424733624192E+03   -0.14799E-03   -0.14760E-03  6336   0.110E-02 0.158E-04
CGA:  23    -0.424733643583E+03   -0.19391E-04   -0.25324E-04  6336   0.208E-03 0.118E-03
CGA:  24    -0.424733649500E+03   -0.59168E-05   -0.10022E-04  6336   0.261E-03 0.169E-03
CGA:  25    -0.424733666382E+03   -0.16882E-04   -0.16598E-04  6336   0.782E-03-0.978E-04
CGA:  26    -0.424733707672E+03   -0.41290E-04   -0.44271E-04  6336   0.182E-02-0.126E-03
CGA:  27    -0.424733725736E+03   -0.18064E-04   -0.25503E-04  6336   0.523E-03 0.136E-03
CGA:  28    -0.424733725570E+03    0.16662E-06   -0.84207E-05  6336   0.265E-03 0.170E-03
  19 F= -.42473373E+03 E0= -.42472319E+03  d E =0.725168E-02  mag=    10.0000
       N       E                     dE             d eps       ncg     rms          ort
SDA:   1    -0.417443964072E+03    0.72898E+01    0.00000E+00  6336   0.176E+02 0.000E+00
CGA:   2    -0.421984869534E+03   -0.45409E+01   -0.42178E+01  6336   0.375E+02 0.241E+01
CGA:   3    -0.423453403194E+03   -0.14685E+01   -0.13861E+01  6336   0.119E+02-0.877E+01
CGA:   4    -0.424097067587E+03   -0.64366E+00   -0.64590E+00  6336   0.703E+01-0.337E+00
CGA:   5    -0.424389888198E+03   -0.29282E+00   -0.29734E+00  6336   0.333E+01-0.575E-01
CGA:   6    -0.424531757560E+03   -0.14187E+00   -0.14467E+00  6336   0.164E+01-0.272E-02
CGA:   7    -0.424634406186E+03   -0.10265E+00   -0.10264E+00  6336   0.863E+00-0.154E-01
CGA:   8    -0.424667103062E+03   -0.32697E-01   -0.33159E-01  6336   0.413E+00-0.152E-02
CGA:   9    -0.424689177759E+03   -0.22075E-01   -0.22153E-01  6336   0.224E+00 0.768E-02
CGA:  10    -0.424704842933E+03   -0.15665E-01   -0.15696E-01  6336   0.218E+00-0.622E-02
CGA:  11    -0.424713384800E+03   -0.85419E-02   -0.84332E-02  6336   0.743E-01-0.370E-02
CGA:  12    -0.424717263414E+03   -0.38786E-02   -0.39182E-02  6336   0.380E-01 0.464E-02
CGA:  13    -0.424720019370E+03   -0.27560E-02   -0.27647E-02  6336   0.603E-01-0.143E-02
CGA:  14    -0.424723421229E+03   -0.34019E-02   -0.33916E-02  6336   0.172E-01-0.294E-02
CGA:  15    -0.424724093108E+03   -0.67188E-03   -0.70051E-03  6336   0.863E-02 0.148E-02
CGA:  16    -0.424724790576E+03   -0.69747E-03   -0.68568E-03  6336   0.155E-01 0.934E-03
CGA:  17    -0.424726519022E+03   -0.17284E-02   -0.19008E-02  6336   0.147E-01-0.354E-02
CGA:  18    -0.424726788971E+03   -0.26995E-03   -0.27104E-03  6336   0.271E-02-0.666E-04
CGA:  19    -0.424726928305E+03   -0.13933E-03   -0.14644E-03  6336   0.319E-02 0.927E-03
CGA:  20    -0.424727265764E+03   -0.33746E-03   -0.33656E-03  6336   0.852E-02 0.385E-04
CGA:  21    -0.424727715678E+03   -0.44991E-03   -0.43495E-03  6336   0.166E-02-0.126E-02
CGA:  22    -0.424727748300E+03   -0.32623E-04   -0.29233E-04  6336   0.843E-03-0.914E-04
CGA:  23    -0.424727874312E+03   -0.12601E-03   -0.13301E-03  6336   0.535E-02-0.687E-04
CGA:  24    -0.424727999764E+03   -0.12545E-03   -0.12481E-03  6336   0.838E-03-0.174E-04
CGA:  25    -0.424728012284E+03   -0.12520E-04   -0.15229E-04  6336   0.436E-03 0.565E-04
CGA:  26    -0.424728034350E+03   -0.22066E-04   -0.23978E-04  6336   0.985E-03 0.200E-03
CGA:  27    -0.424728106271E+03   -0.71921E-04   -0.74249E-04  6336   0.725E-03 0.258E-03
CGA:  28    -0.424728158378E+03   -0.52106E-04   -0.10199E-03  6336   0.185E-02-0.973E-03
CGA:  29    -0.424728178347E+03   -0.19970E-04   -0.41727E-04  6336   0.326E-03 0.554E-03
CGA:  30    -0.424728178339E+03    0.82873E-08   -0.86601E-05  6336   0.176E-03 0.217E-03
  20 F= -.42472818E+03 E0= -.42471767E+03  d E =0.554723E-02  mag=    10.0000
       N       E                     dE             d eps       ncg     rms          ort
SDA:   1    -0.410632266507E+03    0.14096E+02    0.00000E+00  6336   0.520E+02 0.000E+00
CGA:   2    -0.412944383492E+03   -0.23121E+01   -0.37450E+01  6336   0.672E+02 0.578E+01
CGA:   3    -0.420242097865E+03   -0.72977E+01   -0.72686E+01  6336   0.410E+02-0.236E+01
CGA:   4    -0.422231645849E+03   -0.19895E+01   -0.20510E+01  6336   0.479E+02-0.371E+02
CGA:   5    -0.422284770892E+03   -0.53125E-01   -0.17465E+01  6336   0.519E+02-0.389E+02
CGA:   6    -0.422052901374E+03    0.23187E+00   -0.20312E+01  6336   0.563E+02-0.436E+02
CGA:   7    -0.422307604521E+03   -0.25470E+00   -0.20842E+01  6336   0.495E+02-0.476E+02
CGA:   8    -0.422573786964E+03   -0.26618E+00   -0.17915E+01  6336   0.537E+02-0.540E+02
CGA:   9    -0.422773649218E+03   -0.19986E+00   -0.19074E+01  6336   0.459E+02-0.457E+02
CGA:  10    -0.423151946004E+03   -0.37830E+00   -0.15217E+01  6336   0.450E+02-0.500E+02
CGA:  11    -0.423360302659E+03   -0.20836E+00   -0.14620E+01  6336   0.361E+02-0.379E+02
CGA:  12    -0.423750209474E+03   -0.38991E+00   -0.10464E+01  6336   0.251E+02-0.324E+02
CGA:  13    -0.424002311498E+03   -0.25210E+00   -0.67429E+00  6336   0.126E+02-0.166E+02
CGA:  14    -0.424207510484E+03   -0.20520E+00   -0.26255E+00  6336   0.196E+01-0.372E+01
CGA:  15    -0.424280647653E+03   -0.73137E-01   -0.73788E-01  6336   0.137E+01-0.712E-02
CGA:  16    -0.424368586797E+03   -0.87939E-01   -0.88055E-01  6336   0.188E+01 0.378E-04
CGA:  17    -0.424497694676E+03   -0.12911E+00   -0.12944E+00  6336   0.120E+01 0.328E-01
CGA:  18    -0.424537783872E+03   -0.40089E-01   -0.39733E-01  6336   0.234E+00-0.291E-02
CGA:  19    -0.424548248502E+03   -0.10465E-01   -0.10529E-01  6336   0.175E+00-0.258E-02
CGA:  20    -0.424562434222E+03   -0.14186E-01   -0.14138E-01  6336   0.206E+00 0.281E-02
CGA:  21    -0.424571501993E+03   -0.90678E-02   -0.91761E-02  6336   0.663E-01-0.956E-03
CGA:  22    -0.424574081243E+03   -0.25793E-02   -0.25954E-02  6336   0.302E-01 0.338E-03
CGA:  23    -0.424576530753E+03   -0.24495E-02   -0.24453E-02  6336   0.511E-01-0.147E-04
CGA:  24    -0.424580133181E+03   -0.36024E-02   -0.35999E-02  6336   0.350E-01 0.670E-03
CGA:  25    -0.424581585514E+03   -0.14523E-02   -0.14439E-02  6336   0.145E-01-0.101E-02
CGA:  26    -0.424582450979E+03   -0.86547E-03   -0.86613E-03  6336   0.147E-01 0.852E-04
CGA:  27    -0.424583594570E+03   -0.11436E-02   -0.11573E-02  6336   0.185E-01-0.131E-02
CGA:  28    -0.424584424367E+03   -0.82980E-03   -0.81659E-03  6336   0.530E-02-0.725E-03
CGA:  29    -0.424584645998E+03   -0.22163E-03   -0.21482E-03  6336   0.340E-02-0.350E-03
CGA:  30    -0.424584918956E+03   -0.27296E-03   -0.26505E-03  6336   0.327E-02 0.423E-03
CGA:  31    -0.424585137136E+03   -0.21818E-03   -0.21503E-03  6336   0.387E-02-0.479E-03
CGA:  32    -0.424585371953E+03   -0.23482E-03   -0.23532E-03  6336   0.167E-02-0.689E-04
CGA:  33    -0.424585438721E+03   -0.66769E-04   -0.68365E-04  6336   0.106E-02 0.464E-04
CGA:  34    -0.424585550269E+03   -0.11155E-03   -0.10619E-03  6336   0.156E-02 0.164E-03
CGA:  35    -0.424585682315E+03   -0.13205E-03   -0.21559E-03  6336   0.952E-02-0.158E-02
CGA:  36    -0.424585815404E+03   -0.13309E-03   -0.16085E-03  6336   0.358E-03 0.504E-03
CGA:  37    -0.424585818078E+03   -0.26739E-05   -0.11801E-04  6336   0.305E-03 0.261E-03
CGA:  38    -0.424585846935E+03   -0.28857E-04   -0.31067E-04  6336   0.138E-02-0.608E-04
CGA:  39    -0.424585890968E+03   -0.44033E-04   -0.50705E-04  6336   0.925E-03 0.333E-03
CGA:  40    -0.424585898727E+03   -0.77593E-05   -0.19310E-04  6336   0.199E-03 0.239E-03
  21 F= -.42458590E+03 E0= -.42457536E+03  d E =0.142280E+00  mag=    10.0000
       N       E                     dE             d eps       ncg     rms          ort
SDA:   1    -0.418198805759E+03    0.63871E+01    0.00000E+00  6336   0.189E+02 0.000E+00
CGA:   2    -0.420100559595E+03   -0.19018E+01   -0.18288E+01  6336   0.316E+02 0.216E+01
CGA:   3    -0.423282639602E+03   -0.31821E+01   -0.37401E+01  6336   0.332E+02-0.949E+01
CGA:   4    -0.423849520323E+03   -0.56688E+00   -0.63915E+00  6336   0.726E+01-0.262E+01
CGA:   5    -0.424109088145E+03   -0.25957E+00   -0.18088E+00  6336   0.281E+01 0.190E+01
CGA:   6    -0.424255016244E+03   -0.14593E+00   -0.14437E+00  6336   0.589E+01 0.138E-01
CGA:   7    -0.424488140833E+03   -0.23312E+00   -0.23364E+00  6336   0.734E+01 0.157E-01
CGA:   8    -0.424593153850E+03   -0.10501E+00   -0.11851E+00  6336   0.100E+01-0.756E+00
CGA:   9    -0.424608259770E+03   -0.15106E-01   -0.16440E-01  6336   0.531E+00-0.817E-01
CGA:  10    -0.424639762063E+03   -0.31502E-01   -0.31302E-01  6336   0.114E+01 0.806E-02
CGA:  11    -0.424682902667E+03   -0.43141E-01   -0.43066E-01  6336   0.765E+00-0.268E-02
CGA:  12    -0.424701287495E+03   -0.18385E-01   -0.17481E-01  6336   0.147E+00 0.369E-01
CGA:  13    -0.424705056298E+03   -0.37688E-02   -0.38097E-02  6336   0.113E+00-0.166E-02
CGA:  14    -0.424715826616E+03   -0.10770E-01   -0.11169E-01  6336   0.305E+00-0.853E-02
CGA:  15    -0.424722986570E+03   -0.71600E-02   -0.69770E-02  6336   0.112E+00-0.428E-02
CGA:  16    -0.424725590992E+03   -0.26044E-02   -0.26068E-02  6336   0.404E-01 0.403E-02
CGA:  17    -0.424726420868E+03   -0.82988E-03   -0.89694E-03  6336   0.224E-01 0.263E-02
CGA:  18    -0.424727760344E+03   -0.13395E-02   -0.13206E-02  6336   0.571E-01 0.327E-02
CGA:  19    -0.424730906772E+03   -0.31464E-02   -0.31490E-02  6336   0.372E-01 0.115E-02
CGA:  20    -0.424732091447E+03   -0.11847E-02   -0.10847E-02  6336   0.984E-02-0.558E-02
CGA:  21    -0.424732376769E+03   -0.28532E-03   -0.23775E-03  6336   0.578E-02-0.240E-02
CGA:  22    -0.424733004896E+03   -0.62813E-03   -0.62784E-03  6336   0.150E-01 0.217E-06
CGA:  23    -0.424733350044E+03   -0.34515E-03   -0.38342E-03  6336   0.311E-02 0.135E-02
CGA:  24    -0.424733456365E+03   -0.10632E-03   -0.11596E-03  6336   0.149E-02 0.571E-03
CGA:  25    -0.424733502512E+03   -0.46146E-04   -0.31824E-03  6336   0.218E-01-0.211E-02
CGA:  26    -0.424733906447E+03   -0.40394E-03   -0.41859E-03  6336   0.153E-02 0.348E-03
CGA:  27    -0.424733950363E+03   -0.43917E-04   -0.49144E-04  6336   0.341E-03 0.220E-03
CGA:  28    -0.424734007798E+03   -0.57434E-04   -0.48402E-04  6336   0.109E-02 0.128E-03
CGA:  29    -0.424734115024E+03   -0.10723E-03   -0.11301E-03  6336   0.132E-02-0.328E-03
CGA:  30    -0.424734155051E+03   -0.40027E-04   -0.30073E-04  6336   0.256E-03-0.388E-03
CGA:  31    -0.424734168940E+03   -0.13889E-04   -0.13313E-04  6336   0.374E-03 0.340E-04
CGA:  32    -0.424734182545E+03   -0.13605E-04   -0.16891E-04  6336   0.280E-03 0.181E-03
CGA:  33    -0.424734205758E+03   -0.23212E-04   -0.23349E-04  6336   0.123E-03 0.202E-03
CGA:  34    -0.424734224762E+03   -0.19005E-04    0.97804E-05  6336   0.155E-03 0.209E-04
CGA:  35    -0.424734245938E+03   -0.21176E-04   -0.32552E-04  6336   0.127E-02-0.936E-04
CGA:  36    -0.424734261841E+03   -0.15903E-04   -0.21928E-04  6336   0.790E-04 0.124E-03
CGA:  37    -0.424734260536E+03    0.13044E-05   -0.12208E-05  6336   0.427E-04 0.541E-04
  22 F= -.42473426E+03 E0= -.42472387E+03  d E =-.148362E+00  mag=    10.0000
       N       E                     dE             d eps       ncg     rms          ort
SDA:   1    -0.424252950278E+03    0.48131E+00    0.00000E+00  6336   0.124E+01 0.000E+00
CGA:   2    -0.424434485586E+03   -0.18154E+00   -0.17805E+00  6336   0.504E+01 0.452E-01
CGA:   3    -0.424658065840E+03   -0.22358E+00   -0.22104E+00  6336   0.382E+00-0.255E-01
CGA:   4    -0.424687865067E+03   -0.29799E-01   -0.29753E-01  6336   0.619E+00-0.842E-03
CGA:   5    -0.424718423794E+03   -0.30559E-01   -0.30605E-01  6336   0.239E+00 0.496E-02
CGA:   6    -0.424726313627E+03   -0.78898E-02   -0.79861E-02  6336   0.345E-01 0.859E-02
CGA:   7    -0.424730561055E+03   -0.42474E-02   -0.42965E-02  6336   0.945E-01-0.910E-03
CGA:   8    -0.424733773389E+03   -0.32123E-02   -0.31906E-02  6336   0.709E-02-0.107E-02
CGA:   9    -0.424734269694E+03   -0.49631E-03   -0.48359E-03  6336   0.588E-02 0.153E-02
CGA:  10    -0.424735238136E+03   -0.96844E-03   -0.11806E-02  6336   0.112E-01-0.205E-02
CGA:  11    -0.424735370660E+03   -0.13252E-03   -0.12020E-03  6336   0.272E-02-0.256E-03
CGA:  12    -0.424735419336E+03   -0.48677E-04   -0.52385E-04  6336   0.208E-02 0.728E-04
CGA:  13    -0.424735511038E+03   -0.91701E-04   -0.95485E-04  6336   0.363E-02 0.224E-03
CGA:  14    -0.424735651789E+03   -0.14075E-03   -0.13578E-03  6336   0.377E-02-0.197E-03
CGA:  15    -0.424735837783E+03   -0.18599E-03   -0.16970E-03  6336   0.347E-02-0.140E-02
CGA:  16    -0.424735884161E+03   -0.46378E-04   -0.28617E-04  6336   0.106E-02-0.400E-03
CGA:  17    -0.424735900708E+03   -0.16548E-04   -0.13444E-04  6336   0.703E-03-0.781E-04
CGA:  18    -0.424735921497E+03   -0.20789E-04   -0.22377E-04  6336   0.177E-02 0.767E-04
CGA:  19    -0.424735986049E+03   -0.64552E-04   -0.71160E-04  6336   0.173E-02 0.383E-03
CGA:  20    -0.424736020006E+03   -0.33957E-04   -0.39445E-04  6336   0.589E-03 0.154E-03
CGA:  21    -0.424736042403E+03   -0.22398E-04   -0.21294E-04  6336   0.415E-03-0.656E-04
CGA:  22    -0.424736055228E+03   -0.12825E-04   -0.98561E-05  6336   0.282E-03-0.130E-03
CGA:  23    -0.424736075194E+03   -0.19966E-04    0.82596E-04  6336   0.502E-03 0.136E-04
CGA:  24    -0.424736098575E+03   -0.23381E-04   -0.22171E-04  6336   0.240E-03-0.182E-03
CGA:  25    -0.424736102688E+03   -0.41130E-05   -0.51149E-05  6336   0.115E-03 0.668E-04
  23 F= -.42473610E+03 E0= -.42472567E+03  d E =-.184215E-02  mag=    10.0000
       N       E                     dE             d eps       ncg     rms          ort
SDA:   1    -0.424581293747E+03    0.15480E+00    0.00000E+00  6336   0.636E+00 0.000E+00
CGA:   2    -0.424603957789E+03   -0.22664E-01   -0.22752E-01  6336   0.661E+00 0.438E-02
CGA:   3    -0.424705222633E+03   -0.10126E+00   -0.98954E-01  6336   0.391E+00 0.220E-01
CGA:   4    -0.424720595546E+03   -0.15373E-01   -0.15622E-01  6336   0.810E-01-0.110E-01
CGA:   5    -0.424728346200E+03   -0.77507E-02   -0.77322E-02  6336   0.182E+00 0.177E-03
CGA:   6    -0.424734445211E+03   -0.60990E-02   -0.61282E-02  6336   0.183E-01-0.151E-03
CGA:   7    -0.424735601823E+03   -0.11566E-02   -0.12414E-02  6336   0.175E-01-0.572E-02
CGA:   8    -0.424736788205E+03   -0.11864E-02   -0.11114E-02  6336   0.300E-02 0.193E-02
CGA:   9    -0.424736856872E+03   -0.68667E-04   -0.93112E-04  6336   0.142E-02 0.896E-03
CGA:  10    -0.424736978640E+03   -0.12177E-03   -0.11423E-03  6336   0.147E-02 0.938E-03
CGA:  11    -0.424736703438E+03    0.27520E-03   -0.26872E-03  6336   0.242E-01-0.421E-02
CGA:  12    -0.424737212234E+03   -0.50880E-03   -0.60335E-03  6336   0.825E-03 0.355E-02
CGA:  13    -0.424737211110E+03    0.11243E-05   -0.15549E-04  6336   0.235E-03 0.396E-03
  24 F= -.42473721E+03 E0= -.42472675E+03  d E =-.110842E-02  mag=    10.0000
       N       E                     dE             d eps       ncg     rms          ort
SDA:   1    -0.423695513293E+03    0.10417E+01    0.00000E+00  6336   0.245E+01 0.000E+00
CGA:   2    -0.424483028612E+03   -0.78752E+00   -0.18944E-01  6336   0.398E+01-0.248E+00
CGA:   3    -0.424583840464E+03   -0.10081E+00   -0.14116E+00  6336   0.102E+01-0.701E+00
CGA:   4    -0.424646158222E+03   -0.62318E-01   -0.62781E-01  6336   0.149E+01 0.195E-02
CGA:   5    -0.424699185870E+03   -0.53028E-01   -0.54086E-01  6336   0.253E+00-0.133E-01
CGA:   6    -0.424713524283E+03   -0.14338E-01   -0.14456E-01  6336   0.154E+00-0.882E-02
CGA:   7    -0.424722650634E+03   -0.91264E-02   -0.91229E-02  6336   0.150E+00-0.304E-03
CGA:   8    -0.424728091322E+03   -0.54407E-02   -0.55711E-02  6336   0.325E-01 0.100E-02
CGA:   9    -0.424731043330E+03   -0.29520E-02   -0.29585E-02  6336   0.391E-01-0.192E-02
CGA:  10    -0.424732703786E+03   -0.16605E-02   -0.16986E-02  6336   0.208E-01 0.652E-03
CGA:  11    -0.424733389225E+03   -0.68544E-03   -0.74163E-03  6336   0.482E-02 0.128E-02
CGA:  12    -0.424734263364E+03   -0.87414E-03   -0.98320E-03  6336   0.102E-01-0.996E-03
CGA:  13    -0.424734416252E+03   -0.15289E-03   -0.19987E-03  6336   0.244E-02 0.714E-03
CGA:  14    -0.424734440161E+03   -0.23909E-04   -0.64523E-04  6336   0.114E-02 0.707E-03
CGA:  15    -0.424734480351E+03   -0.40190E-04   -0.58094E-04  6336   0.171E-02 0.423E-03
CGA:  16    -0.424734772729E+03   -0.29238E-03   -0.30455E-03  6336   0.291E-02-0.243E-03
CGA:  17    -0.424734838504E+03   -0.65775E-04   -0.44542E-04  6336   0.506E-03-0.335E-03
CGA:  18    -0.424734876021E+03   -0.37518E-04   -0.29332E-04  6336   0.223E-02-0.611E-03
CGA:  19    -0.424734903787E+03   -0.27766E-04   -0.44437E-04  6336   0.397E-03 0.273E-03
CGA:  20    -0.424734907810E+03   -0.40225E-05   -0.14272E-04  6336   0.297E-03 0.237E-03
CGA:  21    -0.424734454232E+03    0.45358E-03   -0.24450E-03  6336   0.341E-01-0.151E-02
CGA:  22    -0.424735011692E+03   -0.55746E-03   -0.64208E-03  6336   0.148E-02-0.393E-03
CGA:  23    -0.424735014090E+03   -0.23982E-05   -0.31804E-04  6336   0.989E-04 0.299E-03
  25 F= -.42473501E+03 E0= -.42472458E+03  d E =0.219702E-02  mag=    10.0000
       N       E                     dE             d eps       ncg     rms          ort
SDA:   1    -0.424125326416E+03    0.60969E+00    0.00000E+00  6336   0.154E+01 0.000E+00
CGA:   2    -0.424556399681E+03   -0.43107E+00   -0.42865E+00  6336   0.183E+01 0.136E-01
CGA:   3    -0.424621833837E+03   -0.65434E-01   -0.69536E-01  6336   0.857E+00-0.119E+00
CGA:   4    -0.424665244734E+03   -0.43411E-01   -0.42611E-01  6336   0.837E+00-0.107E-01
CGA:   5    -0.424714060969E+03   -0.48816E-01   -0.48783E-01  6336   0.128E+00 0.660E-02
CGA:   6    -0.424720075870E+03   -0.60149E-02   -0.59689E-02  6336   0.116E+00-0.379E-02
CGA:   7    -0.424727553812E+03   -0.74779E-02   -0.73229E-02  6336   0.912E-01-0.303E-02
CGA:   8    -0.424731422602E+03   -0.38688E-02   -0.38901E-02  6336   0.117E-01 0.120E-02
CGA:   9    -0.424732090784E+03   -0.66818E-03   -0.68609E-03  6336   0.189E-01 0.329E-03
CGA:  10    -0.424733661735E+03   -0.15710E-02   -0.15792E-02  6336   0.477E-02 0.330E-03
CGA:  11    -0.424733860287E+03   -0.19855E-03   -0.19970E-03  6336   0.309E-02 0.558E-05
CGA:  12    -0.424734080554E+03   -0.22027E-03   -0.21944E-03  6336   0.425E-02-0.436E-04
CGA:  13    -0.424734381968E+03   -0.30141E-03   -0.30506E-03  6336   0.110E-02 0.141E-03
CGA:  14    -0.424734413819E+03   -0.31851E-04   -0.40956E-04  6336   0.803E-03 0.144E-03
CGA:  15    -0.424734537851E+03   -0.12403E-03   -0.11554E-03  6336   0.874E-03 0.249E-03
CGA:  16    -0.424734645036E+03   -0.10718E-03   -0.13801E-03  6336   0.564E-02-0.122E-02
CGA:  17    -0.424734711764E+03   -0.66729E-04   -0.10488E-03  6336   0.457E-03 0.458E-03
CGA:  18    -0.424734704300E+03    0.74642E-05   -0.94943E-05  6336   0.170E-03 0.233E-03
  26 F= -.42473470E+03 E0= -.42472425E+03  d E =0.309790E-03  mag=    10.0000
       N       E                     dE             d eps       ncg     rms          ort
SDA:   1    -0.424178604455E+03    0.55611E+00    0.00000E+00  6336   0.303E+01 0.000E+00
CGA:   2    -0.424264036055E+03   -0.85432E-01   -0.96837E-01  6336   0.239E+01-0.313E+00
CGA:   3    -0.424586740425E+03   -0.32270E+00   -0.32549E+00  6336   0.199E+01-0.399E-01
CGA:   4    -0.424659696645E+03   -0.72956E-01   -0.84162E-01  6336   0.402E+00-0.129E+00
CGA:   5    -0.424701589780E+03   -0.41893E-01   -0.41906E-01  6336   0.390E+00 0.353E-02
CGA:   6    -0.424720595112E+03   -0.19005E-01   -0.18855E-01  6336   0.150E+00-0.918E-02
CGA:   7    -0.424724994555E+03   -0.43994E-02   -0.42350E-02  6336   0.482E-01-0.963E-03
CGA:   8    -0.424729638743E+03   -0.46442E-02   -0.45717E-02  6336   0.288E-01 0.535E-02
CGA:   9    -0.424732210069E+03   -0.25713E-02   -0.25647E-02  6336   0.195E-01-0.338E-02
CGA:  10    -0.424732862894E+03   -0.65283E-03   -0.68594E-03  6336   0.122E-01 0.656E-03
CGA:  11    -0.424733313806E+03   -0.45091E-03   -0.50403E-03  6336   0.349E-02 0.136E-02
CGA:  12    -0.424732235206E+03    0.10786E-02   -0.75277E-03  6336   0.699E-01-0.715E-02
CGA:  13    -0.424733739893E+03   -0.15047E-02   -0.16923E-02  6336   0.114E-01 0.310E-02
CGA:  14    -0.424734007521E+03   -0.26763E-03   -0.35154E-03  6336   0.340E-02 0.922E-03
CGA:  15    -0.424734721274E+03   -0.71375E-03   -0.74150E-03  6336   0.495E-02-0.394E-03
CGA:  16    -0.424734803121E+03   -0.81847E-04   -0.85501E-04  6336   0.767E-03 0.976E-05
CGA:  17    -0.424734822445E+03   -0.19324E-04   -0.27959E-04  6336   0.633E-03 0.944E-04
CGA:  18    -0.424734853936E+03   -0.31491E-04   -0.36410E-04  6336   0.106E-02 0.661E-04
CGA:  19    -0.424734932460E+03   -0.78524E-04   -0.79460E-04  6336   0.479E-03 0.161E-04
CGA:  20    -0.424734942045E+03   -0.95842E-05   -0.93994E-05  6336   0.107E-03-0.481E-05
CGA:  21    -0.424734711780E+03    0.23026E-03   -0.12413E-03  6336   0.116E-01-0.508E-03
CGA:  22    -0.424735004541E+03   -0.29276E-03   -0.27876E-03  6336   0.156E-02-0.179E-03
CGA:  23    -0.424735046424E+03   -0.41883E-04   -0.42369E-04  6336   0.240E-03-0.169E-04
CGA:  24    -0.424735068184E+03   -0.21760E-04   -0.28054E-04  6336   0.609E-04 0.890E-04
CGA:  25    -0.424735062329E+03    0.58549E-05   -0.26427E-05  6336   0.322E-04 0.553E-04
  27 F= -.42473506E+03 E0= -.42472468E+03  d E =-.358029E-03  mag=    10.0000
       N       E                     dE             d eps       ncg     rms          ort
SDA:   1    -0.424361144784E+03    0.37392E+00    0.00000E+00  6336   0.170E+01 0.000E+00
CGA:   2    -0.424414531969E+03   -0.53387E-01   -0.67689E-01  6336   0.230E+01-0.361E+00
CGA:   3    -0.424640915563E+03   -0.22638E+00   -0.22566E+00  6336   0.168E+01-0.973E-03
CGA:   4    -0.424679319465E+03   -0.38404E-01   -0.53952E-01  6336   0.854E+00-0.477E+00
CGA:   5    -0.424699591708E+03   -0.20272E-01   -0.21050E-01  6336   0.297E+00-0.271E-01
CGA:   6    -0.424719339526E+03   -0.19748E-01   -0.19550E-01  6336   0.340E+00 0.488E-02
CGA:   7    -0.424728347861E+03   -0.90083E-02   -0.99022E-02  6336   0.114E+00-0.203E-01
CGA:   8    -0.424734075827E+03   -0.57280E-02   -0.58405E-02  6336   0.346E-01-0.124E-02
CGA:   9    -0.424735414990E+03   -0.13392E-02   -0.12692E-02  6336   0.310E-01-0.554E-03
CGA:  10    -0.424737189566E+03   -0.17746E-02   -0.17590E-02  6336   0.181E-01-0.568E-03
CGA:  11    -0.424738121568E+03   -0.93200E-03   -0.99081E-03  6336   0.844E-02 0.114E-02
CGA:  12    -0.424738412240E+03   -0.29067E-03   -0.26614E-03  6336   0.419E-02-0.263E-03
CGA:  13    -0.424738874942E+03   -0.46270E-03   -0.44655E-03  6336   0.780E-02-0.149E-02
CGA:  14    -0.424739063416E+03   -0.18847E-03   -0.23927E-03  6336   0.257E-02 0.711E-03
CGA:  15    -0.424739075825E+03   -0.12408E-04   -0.61381E-04  6336   0.687E-03 0.557E-03
CGA:  16    -0.424739081843E+03   -0.60182E-05   -0.31515E-04  6336   0.836E-03 0.347E-03
CGA:  17    -0.424739141851E+03   -0.60008E-04   -0.14072E-03  6336   0.830E-02-0.135E-02
CGA:  18    -0.424739260557E+03   -0.11871E-03   -0.19749E-03  6336   0.650E-03 0.114E-02
CGA:  19    -0.424739253646E+03    0.69113E-05   -0.13827E-04  6336   0.172E-03 0.238E-03
  28 F= -.42473925E+03 E0= -.42472882E+03  d E =-.419132E-02  mag=    10.0000
       N       E                     dE             d eps       ncg     rms          ort
SDA:   1    -0.424666224746E+03    0.73036E-01    0.00000E+00  6336   0.451E+00 0.000E+00
CGA:   2    -0.424678090881E+03   -0.11866E-01   -0.12739E-01  6336   0.271E+00-0.184E-01
CGA:   3    -0.424712889208E+03   -0.34798E-01   -0.34640E-01  6336   0.363E+00 0.512E-02
CGA:   4    -0.424729434378E+03   -0.16545E-01   -0.17506E-01  6336   0.492E-01-0.196E-01
CGA:   5    -0.424735069442E+03   -0.56351E-02   -0.55550E-02  6336   0.448E-01 0.355E-02
CGA:   6    -0.424737945315E+03   -0.28759E-02   -0.27466E-02  6336   0.235E-01-0.412E-02
CGA:   7    -0.424738583476E+03   -0.63816E-03   -0.62286E-03  6336   0.830E-02-0.376E-03
CGA:   8    -0.424738942186E+03   -0.35871E-03   -0.41171E-03  6336   0.297E-02 0.139E-02
CGA:   9    -0.424739312299E+03   -0.37011E-03   -0.41485E-03  6336   0.136E-01-0.146E-02
CGA:  10    -0.424739469340E+03   -0.15704E-03   -0.11554E-03  6336   0.943E-02-0.578E-03
CGA:  11    -0.424739563562E+03   -0.94222E-04   -0.10488E-03  6336   0.263E-02 0.439E-04
CGA:  12    -0.424739568464E+03   -0.49020E-05   -0.34252E-04  6336   0.153E-02 0.431E-03
CGA:  13    -0.424739561458E+03    0.70055E-05   -0.24699E-04  6336   0.103E-02 0.509E-03
CGA:  14    -0.424739559766E+03    0.16925E-05   -0.21001E-04  6336   0.842E-03 0.375E-03
CGA:  15    -0.424739579023E+03   -0.19257E-04   -0.30693E-04  6336   0.166E-02 0.243E-03
CGA:  16    -0.424739640024E+03   -0.61001E-04   -0.64659E-04  6336   0.220E-02 0.896E-04
CGA:  17    -0.424739671132E+03   -0.31108E-04   -0.28721E-04  6336   0.547E-03-0.474E-04
CGA:  18    -0.424739677102E+03   -0.59699E-05   -0.53271E-05  6336   0.150E-03-0.139E-04
  29 F= -.42473968E+03 E0= -.42472925E+03  d E =-.423456E-03  mag=    10.0000
       N       E                     dE             d eps       ncg     rms          ort
SDA:   1    -0.424568649827E+03    0.17102E+00    0.00000E+00  6336   0.112E+01 0.000E+00
CGA:   2    -0.424596539608E+03   -0.27890E-01   -0.28619E-01  6336   0.555E+00-0.231E-01
CGA:   3    -0.424710466214E+03   -0.11393E+00   -0.11366E+00  6336   0.171E+00 0.162E-02
CGA:   4    -0.424721900306E+03   -0.11434E-01   -0.11434E-01  6336   0.172E+00 0.223E-02
CGA:   5    -0.424734283783E+03   -0.12383E-01   -0.12413E-01  6336   0.153E+00-0.594E-02
CGA:   6    -0.424738241877E+03   -0.39581E-02   -0.38941E-02  6336   0.140E-01-0.336E-02
CGA:   7    -0.424740115852E+03   -0.18740E-02   -0.17214E-02  6336   0.113E-01 0.249E-02
CGA:   8    -0.424741146003E+03   -0.10302E-02   -0.10939E-02  6336   0.864E-02-0.445E-02
CGA:   9    -0.424741370296E+03   -0.22429E-03   -0.25024E-03  6336   0.265E-02 0.127E-02
CGA:  10    -0.424741423462E+03   -0.53166E-04   -0.89691E-04  6336   0.124E-02 0.971E-03
CGA:  11    -0.424741536889E+03   -0.11343E-03   -0.11289E-03  6336   0.166E-02 0.626E-03
CGA:  12    -0.424741587115E+03   -0.50227E-04   -0.19593E-03  6336   0.854E-02-0.280E-02
CGA:  13    -0.424741738262E+03   -0.15115E-03   -0.22199E-03  6336   0.558E-03 0.180E-02
CGA:  14    -0.424741735928E+03    0.23342E-05   -0.12615E-04  6336   0.218E-03 0.316E-03
CGA:  15    -0.424741749810E+03   -0.13882E-04   -0.13899E-04  6336   0.185E-03 0.158E-03
CGA:  16    -0.424741778479E+03   -0.28669E-04    0.27635E-04  6336   0.162E-03 0.134E-03
CGA:  17    -0.424741786467E+03   -0.79877E-05   -0.89994E-05  6336   0.141E-03 0.123E-03
CGA:  18    -0.424741808543E+03   -0.22077E-04    0.18930E-04  6336   0.131E-03 0.112E-03
CGA:  19    -0.424741815231E+03   -0.66875E-05   -0.73618E-05  6336   0.142E-03 0.931E-04
CGA:  20    -0.424741755378E+03    0.59853E-04   -0.41715E-04  6336   0.837E-02-0.443E-03
CGA:  21    -0.424741880040E+03   -0.12466E-03   -0.13909E-03  6336   0.119E-03 0.170E-03
CGA:  22    -0.424741878395E+03    0.16447E-05   -0.23661E-05  6336   0.654E-04 0.768E-04
  30 F= -.42474188E+03 E0= -.42473147E+03  d E =-.220129E-02  mag=    10.0000
       N       E                     dE             d eps       ncg     rms          ort
SDA:   1    -0.424091679932E+03    0.65020E+00    0.00000E+00  6336   0.164E+01 0.000E+00
CGA:   2    -0.424391693870E+03   -0.30001E+00   -0.29378E+00  6336   0.612E+01 0.672E-01
CGA:   3    -0.424611620169E+03   -0.21993E+00   -0.21639E+00  6336   0.114E+01-0.696E-02
CGA:   4    -0.424661073906E+03   -0.49454E-01   -0.48737E-01  6336   0.407E+00 0.120E-01
CGA:   5    -0.424717976455E+03   -0.56903E-01   -0.57545E-01  6336   0.429E+00-0.936E-02
CGA:   6    -0.424727388559E+03   -0.94121E-02   -0.98268E-02  6336   0.600E-01-0.453E-02
CGA:   7    -0.424730796515E+03   -0.34080E-02   -0.34644E-02  6336   0.450E-01 0.532E-02
CGA:   8    -0.424736888931E+03   -0.60924E-02   -0.64481E-02  6336   0.155E-01-0.580E-02
CGA:   9    -0.424737303462E+03   -0.41453E-03   -0.47500E-03  6336   0.787E-02 0.159E-02
CGA:  10    -0.424737713020E+03   -0.40956E-03   -0.44561E-03  6336   0.745E-02 0.180E-02
CGA:  11    -0.424738680003E+03   -0.96698E-03   -0.10503E-02  6336   0.297E-02-0.188E-02
CGA:  12    -0.424738735926E+03   -0.55923E-04   -0.76658E-04  6336   0.109E-02 0.558E-03
CGA:  13    -0.424738818752E+03   -0.82826E-04   -0.84936E-04  6336   0.170E-02 0.425E-03
CGA:  14    -0.424738978464E+03   -0.15971E-03   -0.52499E-03  6336   0.240E-02-0.241E-02
CGA:  15    -0.424739088463E+03   -0.11000E-03   -0.12503E-03  6336   0.159E-02 0.588E-03
CGA:  16    -0.424739252793E+03   -0.16433E-03   -0.16272E-03  6336   0.183E-02 0.282E-03
CGA:  17    -0.424739319015E+03   -0.66222E-04   -0.65921E-04  6336   0.171E-03-0.109E-04
CGA:  18    -0.424739318548E+03    0.46671E-06   -0.40791E-05  6336   0.701E-04 0.895E-04
  31 F= -.42473932E+03 E0= -.42472891E+03  d E =0.255985E-02  mag=    10.0000
       N       E                     dE             d eps       ncg     rms          ort
SDA:   1    -0.424643672694E+03    0.95646E-01    0.00000E+00  6336   0.303E+00 0.000E+00
CGA:   2    -0.424664757915E+03   -0.21085E-01   -0.21088E-01  6336   0.658E+00 0.119E-02
CGA:   3    -0.424711036803E+03   -0.46279E-01   -0.46293E-01  6336   0.479E+00 0.300E-02
CGA:   4    -0.424729329405E+03   -0.18293E-01   -0.18936E-01  6336   0.566E-01-0.181E-01
CGA:   5    -0.424735568793E+03   -0.62394E-02   -0.59915E-02  6336   0.791E-01 0.629E-02
CGA:   6    -0.424738688549E+03   -0.31198E-02   -0.31224E-02  6336   0.309E-01-0.386E-04
CGA:   7    -0.424740067296E+03   -0.13787E-02   -0.12941E-02  6336   0.913E-02-0.315E-02
CGA:   8    -0.424740565185E+03   -0.49789E-03   -0.51181E-03  6336   0.435E-02 0.195E-02
CGA:   9    -0.424740788998E+03   -0.22381E-03   -0.23425E-03  6336   0.401E-02 0.397E-03
CGA:  10    -0.424741191346E+03   -0.40235E-03   -0.41203E-03  6336   0.197E-02-0.375E-03
CGA:  11    -0.424741242854E+03   -0.51508E-04   -0.49568E-04  6336   0.595E-03-0.537E-04
CGA:  12    -0.424741293373E+03   -0.50519E-04   -0.46555E-04  6336   0.316E-03 0.297E-03
CGA:  13    -0.424741362414E+03   -0.69041E-04    0.21746E-03  6336   0.196E-03 0.218E-03
CGA:  14    -0.424741361944E+03    0.46988E-06   -0.42511E-05  6336   0.113E-03 0.102E-03
  32 F= -.42474136E+03 E0= -.42473098E+03  d E =-.204340E-02  mag=    10.0000
       N       E                     dE             d eps       ncg     rms          ort
SDA:   1    -0.424720829300E+03    0.20533E-01    0.00000E+00  6336   0.376E+00 0.000E+00
CGA:   2    -0.424727748236E+03   -0.69189E-02   -0.70689E-02  6336   0.432E-01-0.295E-02
CGA:   3    -0.424733581291E+03   -0.58331E-02   -0.53964E-02  6336   0.708E-01 0.699E-02
CGA:   4    -0.424739545716E+03   -0.59644E-02   -0.59770E-02  6336   0.166E-01-0.310E-02
CGA:   5    -0.424740424852E+03   -0.87914E-03   -0.90181E-03  6336   0.609E-02 0.240E-02
CGA:   6    -0.424741128442E+03   -0.70359E-03   -0.13228E-02  6336   0.477E-01-0.504E-02
CGA:   7    -0.424741875089E+03   -0.74665E-03   -0.81359E-03  6336   0.112E-02 0.435E-03
CGA:   8    -0.424741887780E+03   -0.12692E-04   -0.33802E-04  6336   0.483E-03 0.531E-03
CGA:   9    -0.424741915583E+03   -0.27803E-04   -0.34606E-04  6336   0.555E-03 0.354E-03
CGA:  10    -0.424741838607E+03    0.76976E-04   -0.93544E-04  6336   0.121E-01-0.168E-02
CGA:  11    -0.424742025652E+03   -0.18705E-03   -0.23114E-03  6336   0.853E-03 0.799E-03
CGA:  12    -0.424742020805E+03    0.48465E-05   -0.14715E-04  6336   0.184E-03 0.373E-03
  33 F= -.42474202E+03 E0= -.42473164E+03  d E =-.658861E-03  mag=    10.0000
       N       E                     dE             d eps       ncg     rms          ort
SDA:   1    -0.424663243881E+03    0.78782E-01    0.00000E+00  6336   0.201E+00 0.000E+00
CGA:   2    -0.424701817557E+03   -0.38574E-01   -0.39193E-01  6336   0.571E+00-0.288E-02
CGA:   3    -0.424726630706E+03   -0.24813E-01   -0.24985E-01  6336   0.208E+00 0.130E-01
CGA:   4    -0.424731734563E+03   -0.51039E-02   -0.52875E-02  6336   0.427E-01 0.705E-02
CGA:   5    -0.424739223985E+03   -0.74894E-02   -0.77827E-02  6336   0.463E-01-0.268E-02
CGA:   6    -0.424740077429E+03   -0.85344E-03   -0.83679E-03  6336   0.635E-02-0.411E-03
CGA:   7    -0.424740695900E+03   -0.61847E-03   -0.65514E-03  6336   0.152E-01-0.109E-02
CGA:   8    -0.424741119489E+03   -0.42359E-03   -0.40838E-03  6336   0.823E-02-0.408E-03
CGA:   9    -0.424741320097E+03   -0.20061E-03   -0.22167E-03  6336   0.204E-02 0.580E-03
CGA:  10    -0.424741347429E+03   -0.27331E-04   -0.42390E-04  6336   0.823E-03 0.307E-03
CGA:  11    -0.424741393182E+03   -0.45754E-04   -0.50338E-04  6336   0.158E-02 0.385E-03
CGA:  12    -0.424741498036E+03   -0.10485E-03   -0.10819E-03  6336   0.350E-03 0.184E-03
CGA:  13    -0.424741465028E+03    0.33009E-04   -0.57615E-04  6336   0.568E-02-0.108E-02
CGA:  14    -0.424741545866E+03   -0.80839E-04   -0.10566E-03  6336   0.497E-03 0.463E-03
CGA:  15    -0.424741541640E+03    0.42266E-05   -0.91401E-05  6336   0.174E-03 0.277E-03
[...]
CGA:   7    -0.424753741378E+03   -0.14811E-01   -0.14500E-01  6336   0.163E+00 0.900E-02
CGA:   8    -0.424760828176E+03   -0.70868E-02   -0.69922E-02  6336   0.594E-01-0.234E-02
CGA:   9    -0.424763479041E+03   -0.26509E-02   -0.25905E-02  6336   0.298E-01-0.250E-02
CGA:  10    -0.424765617673E+03   -0.21386E-02   -0.21291E-02  6336   0.235E-01 0.128E-02
CGA:  11    -0.424766656368E+03   -0.10387E-02   -0.10507E-02  6336   0.116E-01 0.334E-03
CGA:  12    -0.424767452905E+03   -0.79654E-03   -0.80032E-03  6336   0.126E-01-0.205E-02
CGA:  13    -0.424768000045E+03   -0.54714E-03   -0.54386E-03  6336   0.380E-02-0.264E-03
CGA:  14    -0.424768117914E+03   -0.11787E-03   -0.13269E-03  6336   0.167E-02 0.487E-03
CGA:  15    -0.424768459423E+03   -0.34151E-03   -0.31604E-03  6336   0.343E-02 0.242E-03
CGA:  16    -0.424768651769E+03   -0.19235E-03   -0.16997E-03  6336   0.193E-02-0.861E-03
CGA:  17    -0.424768732255E+03   -0.80487E-04   -0.74858E-04  6336   0.110E-02-0.348E-03
CGA:  18    -0.424768764585E+03   -0.32330E-04   -0.39898E-04  6336   0.391E-03 0.327E-03
CGA:  19    -0.424768842200E+03   -0.77615E-04   -0.66245E-04  6336   0.541E-03 0.176E-03
CGA:  20    -0.424768557521E+03    0.28468E-03   -0.24784E-03  6336   0.114E-01-0.217E-02
CGA:  21    -0.424768818240E+03   -0.26072E-03   -0.32814E-03  6336   0.679E-03 0.156E-02
CGA:  22    -0.424768845850E+03   -0.27609E-04   -0.36266E-04  6336   0.631E-03 0.269E-03
CGA:  23    -0.424768967852E+03   -0.12200E-03   -0.12315E-03  6336   0.666E-03-0.190E-04
CGA:  24    -0.424768992396E+03   -0.24544E-04   -0.18092E-04  6336   0.111E-03-0.126E-03
CGA:  25    -0.424768998922E+03   -0.65261E-05   -0.60499E-05  6336   0.210E-03-0.458E-04
CGA:  26    -0.424768997259E+03    0.16631E-05   -0.29136E-04  6336   0.648E-03-0.194E-03
CGA:  27    -0.424769009227E+03   -0.11968E-04   -0.16587E-04  6336   0.142E-03 0.749E-04
CGA:  28    -0.424769011789E+03   -0.25627E-05   -0.53034E-05  6336   0.830E-04 0.557E-04
  90 F= -.42476901E+03 E0= -.42475885E+03  d E =-.203697E-02  mag=    10.0000
       N       E                     dE             d eps       ncg     rms          ort
SDA:   1    -0.424212202166E+03    0.55681E+00    0.00000E+00  6336   0.148E+01 0.000E+00
CGA:   2    -0.424397670961E+03   -0.18547E+00   -0.18195E+00  6336   0.493E+01 0.690E-01
CGA:   3    -0.424649305595E+03   -0.25163E+00   -0.24951E+00  6336   0.112E+01-0.488E-02
CGA:   4    -0.424696542183E+03   -0.47237E-01   -0.48372E-01  6336   0.440E+00-0.326E-01
CGA:   5    -0.424736179076E+03   -0.39637E-01   -0.39590E-01  6336   0.606E+00 0.170E-02
CGA:   6    -0.424754532267E+03   -0.18353E-01   -0.18744E-01  6336   0.602E-01-0.328E-02
CGA:   7    -0.424758585136E+03   -0.40529E-02   -0.40099E-02  6336   0.768E-01-0.535E-02
CGA:   8    -0.424763109982E+03   -0.45248E-02   -0.45157E-02  6336   0.472E-01-0.987E-03
CGA:   9    -0.424764426509E+03   -0.13165E-02   -0.13940E-02  6336   0.537E-02 0.204E-02
CGA:  10    -0.424765199321E+03   -0.77281E-03   -0.70810E-03  6336   0.913E-02 0.119E-02
CGA:  11    -0.424765752701E+03   -0.55338E-03   -0.53453E-03  6336   0.588E-02-0.706E-03
CGA:  12    -0.424765957177E+03   -0.20448E-03   -0.20336E-03  6336   0.124E-02-0.508E-04
CGA:  13    -0.424766004805E+03   -0.47628E-04   -0.60424E-04  6336   0.543E-03 0.556E-03
CGA:  14    -0.424766185685E+03   -0.18088E-03   -0.19173E-03  6336   0.176E-02-0.628E-04
CGA:  15    -0.424766243404E+03   -0.57719E-04   -0.55407E-04  6336   0.452E-03-0.581E-04
CGA:  16    -0.424766257101E+03   -0.13697E-04   -0.14693E-04  6336   0.320E-03 0.210E-04
CGA:  17    -0.424766305323E+03   -0.48222E-04   -0.51502E-04  6336   0.124E-02-0.424E-04
CGA:  18    -0.424766345642E+03   -0.40319E-04   -0.36491E-04  6336   0.415E-03-0.866E-04
CGA:  19    -0.424766352718E+03   -0.70764E-05   -0.79799E-05  6336   0.121E-03 0.158E-04
  91 F= -.42476635E+03 E0= -.42475620E+03  d E =0.265907E-02  mag=    10.0000
       N       E                     dE             d eps       ncg     rms          ort
SDA:   1    -0.423904912007E+03    0.86143E+00    0.00000E+00  6336   0.256E+01 0.000E+00
CGA:   2    -0.424119858082E+03   -0.21495E+00   -0.21371E+00  6336   0.677E+01 0.652E-01
CGA:   3    -0.424550541683E+03   -0.43068E+00   -0.42953E+00  6336   0.153E+01-0.441E-01
CGA:   4    -0.424632803295E+03   -0.82262E-01   -0.82050E-01  6336   0.101E+01-0.203E-02
CGA:   5    -0.424710802474E+03   -0.77999E-01   -0.77970E-01  6336   0.990E+00 0.401E-02
CGA:   6    -0.424739124304E+03   -0.28322E-01   -0.28678E-01  6336   0.946E-01-0.776E-02
CGA:   7    -0.424748410113E+03   -0.92858E-02   -0.95084E-02  6336   0.168E+00-0.742E-02
CGA:   8    -0.424755950442E+03   -0.75403E-02   -0.76324E-02  6336   0.567E-01 0.347E-02
CGA:   9    -0.424757387255E+03   -0.14368E-02   -0.15476E-02  6336   0.979E-02 0.324E-02
CGA:  10    -0.424759796907E+03   -0.24097E-02   -0.23453E-02  6336   0.101E-01 0.403E-03
CGA:  11    -0.424760280454E+03   -0.48355E-03   -0.44361E-03  6336   0.273E-02-0.139E-02
CGA:  12    -0.424760514297E+03   -0.23384E-03   -0.21771E-03  6336   0.225E-02 0.852E-03
CGA:  13    -0.424760702564E+03   -0.18827E-03   -0.18332E-03  6336   0.441E-02-0.403E-03
CGA:  14    -0.424760927281E+03   -0.22472E-03   -0.21463E-03  6336   0.266E-02-0.694E-03
CGA:  15    -0.424760958788E+03   -0.31507E-04   -0.48127E-04  6336   0.112E-02 0.315E-03
CGA:  16    -0.424760968418E+03   -0.96296E-05   -0.27167E-04  6336   0.576E-03 0.360E-03
CGA:  17    -0.424760986309E+03   -0.17891E-04   -0.25245E-04  6336   0.859E-03 0.207E-03
CGA:  18    -0.424761098485E+03   -0.11218E-03   -0.11309E-03  6336   0.214E-02-0.306E-04
CGA:  19    -0.424761149381E+03   -0.50896E-04   -0.38722E-04  6336   0.390E-03-0.255E-03
CGA:  20    -0.424761172689E+03   -0.23308E-04   -0.12665E-04  6336   0.671E-03-0.374E-03
CGA:  21    -0.424761183734E+03   -0.11045E-04   -0.14471E-04  6336   0.199E-03 0.775E-04
CGA:  22    -0.424761192818E+03   -0.90833E-05   -0.10966E-04  6336   0.175E-03 0.149E-03
CGA:  23    -0.424761172272E+03    0.20545E-04   -0.28759E-04  6336   0.430E-02-0.482E-03
CGA:  24    -0.424761236057E+03   -0.63785E-04   -0.73761E-04  6336   0.117E-03 0.175E-03
CGA:  25    -0.424761233153E+03    0.29043E-05   -0.14584E-05  6336   0.643E-04 0.837E-04
  92 F= -.42476123E+03 E0= -.42475095E+03  d E =0.511957E-02  mag=    10.0000
       N       E                     dE             d eps       ncg     rms          ort
SDA:   1    -0.424464385011E+03    0.29685E+00    0.00000E+00  6336   0.742E+00 0.000E+00
CGA:   2    -0.424674106784E+03   -0.20972E+00   -0.21267E+00  6336   0.121E+01-0.130E-01
CGA:   3    -0.424712308385E+03   -0.38202E-01   -0.38649E-01  6336   0.409E+00-0.549E-02
CGA:   4    -0.424730920381E+03   -0.18612E-01   -0.18577E-01  6336   0.335E+00 0.713E-03
CGA:   5    -0.424758269686E+03   -0.27349E-01   -0.27347E-01  6336   0.372E-01-0.767E-03
CGA:   6    -0.424761038390E+03   -0.27687E-02   -0.27391E-02  6336   0.336E-01 0.543E-02
CGA:   7    -0.424764977078E+03   -0.39387E-02   -0.40675E-02  6336   0.121E-01-0.354E-02
CGA:   8    -0.424765260213E+03   -0.28313E-03   -0.33666E-03  6336   0.532E-02 0.134E-02
CGA:   9    -0.424765522502E+03   -0.26229E-03   -0.28725E-03  6336   0.443E-02 0.127E-02
CGA:  10    -0.424766149948E+03   -0.62745E-03   -0.90543E-03  6336   0.711E-02-0.285E-02
CGA:  11    -0.424766257712E+03   -0.10776E-03   -0.15271E-03  6336   0.127E-02 0.881E-03
CGA:  12    -0.424766288606E+03   -0.30894E-04   -0.49770E-04  6336   0.836E-03 0.548E-03
CGA:  13    -0.424766411791E+03   -0.12318E-03   -0.12391E-03  6336   0.210E-02-0.220E-04
CGA:  14    -0.424766466211E+03   -0.54420E-04   -0.47266E-04  6336   0.294E-03-0.157E-03
CGA:  15    -0.424766475413E+03   -0.92014E-05   -0.72395E-05  6336   0.304E-03-0.493E-04
CGA:  16    -0.424766508506E+03   -0.33094E-04    0.14924E-01  6336   0.661E-03 0.124E-03
CGA:  17    -0.424766548281E+03   -0.39774E-04   -0.38553E-04  6336   0.370E-03-0.546E-04
CGA:  18    -0.424766554195E+03   -0.59143E-05   -0.99829E-05  6336   0.611E-04 0.117E-03
  93 F= -.42476655E+03 E0= -.42475631E+03  d E =-.532104E-02  mag=    10.0000
       N       E                     dE             d eps       ncg     rms          ort
SDA:   1    -0.424728818524E+03    0.37730E-01    0.00000E+00  6336   0.763E+00 0.000E+00
CGA:   2    -0.424742674951E+03   -0.13856E-01   -0.14161E-01  6336   0.696E-01-0.112E-01
CGA:   3    -0.424759124251E+03   -0.16449E-01   -0.16928E-01  6336   0.729E-01-0.257E-02
CGA:   4    -0.424761256109E+03   -0.21319E-02   -0.22632E-02  6336   0.336E-01 0.334E-02
CGA:   5    -0.424763674830E+03   -0.24187E-02   -0.24161E-02  6336   0.368E-01 0.214E-02
CGA:   6    -0.424766007352E+03   -0.23325E-02   -0.22981E-02  6336   0.458E-02-0.414E-02
CGA:   7    -0.424766217099E+03   -0.20975E-03   -0.21714E-03  6336   0.401E-02 0.535E-03
CGA:   8    -0.424766460661E+03   -0.24356E-03   -0.24870E-03  6336   0.311E-02 0.455E-03
CGA:   9    -0.424766683108E+03   -0.22245E-03   -0.22000E-03  6336   0.202E-02-0.105E-02
CGA:  10    -0.424766714980E+03   -0.31872E-04   -0.38249E-04  6336   0.535E-03 0.167E-03
CGA:  11    -0.424766718987E+03   -0.40070E-05   -0.14214E-04  6336   0.300E-03 0.260E-03
CGA:  12    -0.424766729466E+03   -0.10478E-04   -0.15594E-04  6336   0.324E-03 0.190E-03
CGA:  13    -0.424766769817E+03   -0.40352E-04    0.35880E-03  6336   0.408E-03-0.861E-04
CGA:  14    -0.424766795713E+03   -0.25896E-04   -0.26496E-04  6336   0.634E-03-0.222E-04
CGA:  15    -0.424766797334E+03   -0.16212E-05   -0.11528E-04  6336   0.124E-03 0.232E-03
  94 F= -.42476680E+03 E0= -.42475659E+03  d E =-.243139E-03  mag=    10.0000
       N       E                     dE             d eps       ncg     rms          ort
SDA:   1    -0.424757746650E+03    0.90491E-02    0.00000E+00  6336   0.505E-01 0.000E+00
CGA:   2    -0.424759561167E+03   -0.18145E-02   -0.17686E-02  6336   0.363E-01-0.223E-02
CGA:   3    -0.424762691538E+03   -0.31304E-02   -0.31835E-02  6336   0.661E-01-0.158E-02
CGA:   4    -0.424766248077E+03   -0.35565E-02   -0.35577E-02  6336   0.439E-02 0.794E-03
CGA:   5    -0.424766710224E+03   -0.46215E-03   -0.70086E-03  6336   0.164E-01-0.240E-02
CGA:   6    -0.424767043869E+03   -0.33364E-03   -0.40981E-03  6336   0.139E-02 0.225E-02
CGA:   7    -0.424767063618E+03   -0.19749E-04   -0.35838E-04  6336   0.431E-03 0.415E-03
CGA:   8    -0.424767097884E+03   -0.34266E-04   -0.33904E-04  6336   0.718E-03 0.255E-03
CGA:   9    -0.424767140447E+03   -0.42563E-04   -0.42551E-04  6336   0.151E-02-0.505E-03
CGA:  10    -0.424767164109E+03   -0.23662E-04   -0.28847E-04  6336   0.217E-03 0.122E-03
CGA:  11    -0.424767166621E+03   -0.25122E-05   -0.68157E-05  6336   0.163E-03 0.153E-03
CGA:  12    -0.424767181174E+03   -0.14553E-04   -0.24707E-04  6336   0.163E-02-0.107E-03
CGA:  13    -0.424767209101E+03   -0.27927E-04   -0.28808E-04  6336   0.795E-04 0.132E-04
CGA:  14    -0.424767209507E+03   -0.40586E-06   -0.23254E-05  6336   0.633E-04 0.650E-04
  95 F= -.42476721E+03 E0= -.42475699E+03  d E =-.412173E-03  mag=    10.0000
       N       E                     dE             d eps       ncg     rms          ort
SDA:   1    -0.424615135150E+03    0.15207E+00    0.00000E+00  6336   0.690E+01 0.000E+00
CGA:   2    -0.424712932359E+03   -0.97797E-01   -0.16894E+00  6336   0.148E+01-0.306E+01
CGA:   3    -0.424742463076E+03   -0.29531E-01   -0.29015E-01  6336   0.692E-01 0.145E-02
CGA:   4    -0.424749993548E+03   -0.75305E-02   -0.75064E-02  6336   0.228E+00 0.164E-02
CGA:   5    -0.424763850716E+03   -0.13857E-01   -0.13826E-01  6336   0.304E-01-0.828E-03
CGA:   6    -0.424765061001E+03   -0.12103E-02   -0.11412E-02  6336   0.175E-01-0.140E-02
CGA:   7    -0.424766469352E+03   -0.14084E-02   -0.14002E-02  6336   0.217E-01-0.970E-03
CGA:   8    -0.424767122724E+03   -0.65337E-03   -0.72547E-03  6336   0.130E-02 0.128E-02
CGA:   9    -0.424767202179E+03   -0.79455E-04   -0.87302E-04  6336   0.184E-02 0.299E-03
CGA:  10    -0.424767387089E+03   -0.18491E-03   -0.18493E-03  6336   0.140E-02-0.155E-05
CGA:  11    -0.424767452077E+03   -0.64989E-04   -0.49226E-04  6336   0.416E-03-0.303E-03
CGA:  12    -0.424767467676E+03   -0.15599E-04   -0.16894E-04  6336   0.239E-03 0.379E-04
CGA:  13    -0.424767482183E+03   -0.14507E-04   -0.15831E-04  6336   0.187E-03 0.579E-04
CGA:  14    -0.424767503987E+03   -0.21804E-04   -0.24781E-04  6336   0.698E-03-0.123E-03
CGA:  15    -0.424767517405E+03   -0.13418E-04   -0.12577E-04  6336   0.278E-04-0.156E-04
CGA:  16    -0.424767517897E+03   -0.49214E-06   -0.12084E-05  6336   0.201E-04 0.201E-04
  96 F= -.42476752E+03 E0= -.42475731E+03  d E =-.308390E-03  mag=    10.0000
       N       E                     dE             d eps       ncg     rms          ort
SDA:   1    -0.424750106738E+03    0.17411E-01    0.00000E+00  6336   0.507E-01 0.000E+00
CGA:   2    -0.424755998071E+03   -0.58913E-02   -0.59544E-02  6336   0.161E+00-0.176E-02
CGA:   3    -0.424762545357E+03   -0.65473E-02   -0.65408E-02  6336   0.455E-01-0.246E-03
CGA:   4    -0.424764287090E+03   -0.17417E-02   -0.18093E-02  6336   0.175E-01 0.323E-02
CGA:   5    -0.424766457525E+03   -0.21704E-02   -0.21835E-02  6336   0.251E-01-0.332E-03
CGA:   6    -0.424767021390E+03   -0.56387E-03   -0.54413E-03  6336   0.199E-02-0.348E-03
CGA:   7    -0.424767148633E+03   -0.12724E-03   -0.13174E-03  6336   0.212E-02 0.517E-03
CGA:   8    -0.424767295182E+03   -0.14655E-03   -0.14770E-03  6336   0.212E-02 0.522E-04
CGA:   9    -0.424767398078E+03   -0.10290E-03   -0.87540E-04  6336   0.375E-03-0.462E-03
CGA:  10    -0.424767408546E+03   -0.10468E-04   -0.13508E-04  6336   0.164E-03 0.114E-03
CGA:  11    -0.424767419619E+03   -0.11074E-04   -0.12545E-04  6336   0.120E-03 0.115E-03
CGA:  12    -0.424767437097E+03   -0.17478E-04    0.12648E-03  6336   0.202E-03-0.255E-04
CGA:  13    -0.424767449448E+03   -0.12351E-04   -0.14203E-04  6336   0.465E-03-0.998E-04
CGA:  14    -0.424767448737E+03    0.71103E-06   -0.35205E-05  6336   0.264E-03 0.746E-04
  97 F= -.42476745E+03 E0= -.42475723E+03  d E =0.691599E-04  mag=    10.0000
       N       E                     dE             d eps       ncg     rms          ort
SDA:   1    -0.423459329530E+03    0.13081E+01    0.00000E+00  6336   0.330E+02 0.000E+00
CGA:   2    -0.424406849483E+03   -0.94752E+00   -0.79373E+00  6336   0.322E+01-0.967E+01
CGA:   3    -0.424511863173E+03   -0.10501E+00   -0.10534E+00  6336   0.108E+01-0.143E-01
CGA:   4    -0.424612144254E+03   -0.10028E+00   -0.10020E+00  6336   0.202E+01 0.243E-02
CGA:   5    -0.424706774526E+03   -0.94630E-01   -0.95233E-01  6336   0.688E+00 0.632E-02
CGA:   6    -0.424736486720E+03   -0.29712E-01   -0.29927E-01  6336   0.179E+00-0.531E-02
CGA:   7    -0.424746830510E+03   -0.10344E-01   -0.10351E-01  6336   0.212E+00 0.659E-03
CGA:   8    -0.424758878446E+03   -0.12048E-01   -0.12055E-01  6336   0.659E-01 0.108E-02
CGA:   9    -0.424761629999E+03   -0.27516E-02   -0.27782E-02  6336   0.209E-01 0.920E-03
CGA:  10    -0.424762642640E+03   -0.10126E-02   -0.99769E-03  6336   0.189E-01-0.111E-02
CGA:  11    -0.424764256522E+03   -0.16139E-02   -0.16252E-02  6336   0.115E-01-0.425E-03
CGA:  12    -0.424764590068E+03   -0.33355E-03   -0.36021E-03  6336   0.227E-02 0.874E-03
CGA:  13    -0.424764693580E+03   -0.10351E-03   -0.10955E-03  6336   0.164E-02 0.383E-03
CGA:  14    -0.424764377954E+03    0.31563E-03   -0.23950E-03  6336   0.305E-01-0.313E-02
CGA:  15    -0.424764874337E+03   -0.49638E-03   -0.59809E-03  6336   0.252E-02 0.564E-03
CGA:  16    -0.424764918202E+03   -0.43865E-04   -0.86493E-04  6336   0.105E-02 0.615E-03
CGA:  17    -0.424765100682E+03   -0.18248E-03   -0.17992E-03  6336   0.248E-02 0.690E-04
CGA:  18    -0.424765181471E+03   -0.80790E-04   -0.68607E-04  6336   0.200E-03-0.166E-03
CGA:  19    -0.424765218295E+03   -0.36824E-04    0.98454E-02  6336   0.512E-03-0.988E-04
CGA:  20    -0.424765240517E+03   -0.22222E-04   -0.21865E-04  6336   0.748E-03-0.252E-04
CGA:  21    -0.424765243982E+03   -0.34648E-05   -0.15760E-04  6336   0.142E-03 0.163E-03
  98 F= -.42476524E+03 E0= -.42475500E+03  d E =0.220476E-02  mag=    10.0000
       N       E                     dE             d eps       ncg     rms          ort
SDA:   1    -0.424655022611E+03    0.11022E+00    0.00000E+00  6336   0.491E+00 0.000E+00
CGA:   2    -0.424671529694E+03   -0.16507E-01   -0.16689E-01  6336   0.448E+00-0.561E-02
CGA:   3    -0.424740743987E+03   -0.69214E-01   -0.69284E-01  6336   0.166E+00-0.120E-02
CGA:   4    -0.424748643815E+03   -0.78998E-02   -0.79043E-02  6336   0.818E-01 0.101E-01
CGA:   5    -0.424760038739E+03   -0.11395E-01   -0.11648E-01  6336   0.349E-01-0.556E-02
CGA:   6    -0.424761000511E+03   -0.96177E-03   -0.92069E-03  6336   0.147E-01-0.740E-03
CGA:   7    -0.424762065828E+03   -0.10653E-02   -0.10686E-02  6336   0.159E-01 0.225E-03
CGA:   8    -0.424763093647E+03   -0.10278E-02   -0.10163E-02  6336   0.150E-02-0.487E-03
CGA:   9    -0.424763223555E+03   -0.12991E-03   -0.12919E-03  6336   0.281E-02 0.275E-03
CGA:  10    -0.424763382933E+03   -0.15938E-03   -0.16602E-03  6336   0.147E-02 0.177E-03
CGA:  11    -0.424763473465E+03   -0.90532E-04   -0.80862E-04  6336   0.830E-03-0.301E-03
CGA:  12    -0.424763489404E+03   -0.15940E-04   -0.24628E-04  6336   0.263E-03 0.190E-03
CGA:  13    -0.424763496885E+03   -0.74808E-05   -0.13453E-04  6336   0.167E-03 0.154E-03
CGA:  14    -0.424763531970E+03   -0.35085E-04    0.19433E-04  6336   0.249E-03 0.284E-04
CGA:  15    -0.424763551008E+03   -0.19038E-04   -0.20048E-04  6336   0.174E-03 0.105E-03
CGA:  16    -0.424763554035E+03   -0.30275E-05   -0.70838E-05  6336   0.477E-04 0.819E-04
CGA:  17    -0.424763579924E+03   -0.25888E-04   -0.21807E-04  6336   0.583E-04 0.175E-04
CGA:  18    -0.424763586565E+03   -0.66415E-05   -0.11163E-04  6336   0.430E-03-0.860E-04
  99 F= -.42476359E+03 E0= -.42475338E+03  d E =0.165742E-02  mag=    10.0000
       N       E                     dE             d eps       ncg     rms          ort
SDA:   1    -0.424653210512E+03    0.11037E+00    0.00000E+00  6336   0.337E+00 0.000E+00
CGA:   2    -0.424678123002E+03   -0.24912E-01   -0.24889E-01  6336   0.790E+00-0.323E-02
CGA:   3    -0.424734585042E+03   -0.56462E-01   -0.56497E-01  6336   0.531E+00-0.880E-03
CGA:   4    -0.424754156529E+03   -0.19571E-01   -0.20153E-01  6336   0.494E-01-0.938E-02
CGA:   5    -0.424760686403E+03   -0.65299E-02   -0.65589E-02  6336   0.130E+00-0.600E-03
CGA:   6    -0.424764157192E+03   -0.34708E-02   -0.36271E-02  6336   0.113E-01 0.137E-02
CGA:   7    -0.424764542573E+03   -0.38538E-03   -0.45055E-03  6336   0.490E-02 0.175E-02
CGA:   8    -0.424765327873E+03   -0.78530E-03   -0.82489E-03  6336   0.144E-01-0.609E-03
CGA:   9    -0.424765623328E+03   -0.29545E-03   -0.27652E-03  6336   0.172E-02-0.340E-03
CGA:  10    -0.424765663176E+03   -0.39849E-04   -0.42441E-04  6336   0.141E-02 0.384E-04
CGA:  11    -0.424765767532E+03   -0.10436E-03   -0.10515E-03  6336   0.231E-02 0.154E-03
CGA:  12    -0.424765855142E+03   -0.87610E-04   -0.84792E-04  6336   0.123E-02-0.670E-04
CGA:  13    -0.424765898673E+03   -0.43531E-04   -0.37331E-04  6336   0.250E-03-0.150E-03
CGA:  14    -0.424765915251E+03   -0.16578E-04   -0.18944E-04  6336   0.136E-02-0.181E-03
CGA:  15    -0.424765937539E+03   -0.22288E-04   -0.24810E-04  6336   0.116E-03 0.388E-04
CGA:  16    -0.424765939419E+03   -0.18808E-05   -0.46774E-05  6336   0.899E-04 0.875E-04
CGA:  17    -0.424765953826E+03   -0.14407E-04    0.20467E-04  6336   0.160E-03 0.263E-04
CGA:  18    -0.424765947084E+03    0.67417E-05   -0.48235E-04  6336   0.262E-02-0.335E-03
CGA:  19    -0.424765981197E+03   -0.34113E-04   -0.43784E-04  6336   0.864E-04 0.141E-03
CGA:  20    -0.424765979869E+03    0.13289E-05   -0.20783E-05  6336   0.648E-04 0.656E-04
 100 F= -.42476598E+03 E0= -.42475577E+03  d E =-.239330E-02  mag=    10.0000
