       N       E                     dE             d eps       ncg     rms          ort
DAV:   1     0.224025291481E+04    0.22403E+04   -0.13715E+05 10080   0.154E+03
DAV:   2    -0.251132812188E+03   -0.24914E+04   -0.23491E+04 10080   0.411E+02
DAV:   3    -0.483406027599E+03   -0.23227E+03   -0.22898E+03 10080   0.141E+02
DAV:   4    -0.489487219913E+03   -0.60812E+01   -0.60239E+01 10080   0.222E+01
DAV:   5    -0.489810494028E+03   -0.32327E+00   -0.32280E+00 10080   0.383E+00
SDA:   6    -0.245875387772E+03    0.24394E+03   -0.32280E+00 10080   0.103E+04 0.000E+00
CGA:   7    -0.291461161913E+03   -0.45586E+02   -0.89687E+02 10080   0.395E+03 0.156E+03
CGA:   8    -0.322060316792E+03   -0.30599E+02   -0.23605E+02 10080   0.641E+03-0.740E+02
CGA:   9    -0.324833745746E+03   -0.27734E+01   -0.22547E+02 10080   0.493E+03-0.118E+02
CGA:  10    -0.340888719703E+03   -0.16055E+02   -0.18803E+02 10080   0.626E+03-0.289E+03
CGA:  11    -0.338190024909E+03    0.26987E+01   -0.46869E+02 10080   0.424E+03-0.988E+02
CGA:  12    -0.346142469137E+03   -0.79524E+01   -0.24226E+02 10080   0.657E+03-0.699E+03
CGA:  13    -0.338270764406E+03    0.78717E+01   -0.37409E+02 10080   0.326E+03-0.139E+03
CGA:  14    -0.361743913844E+03   -0.23473E+02   -0.82363E+01 10080   0.782E+03 0.321E+03
CGA:  15    -0.340577532706E+03    0.21166E+02   -0.50576E+02 10080   0.102E+04-0.255E+03
CGA:  16    -0.356353991210E+03   -0.15776E+02   -0.36937E+02 10080   0.768E+03 0.374E+03
CGA:  17    -0.347758200037E+03    0.85958E+01   -0.71949E+02 10080   0.482E+03 0.834E+02
CGA:  18    -0.356807423153E+03   -0.90492E+01   -0.28051E+02 10080   0.300E+03 0.615E+02
CGA:  19    -0.358094446041E+03   -0.12870E+01   -0.14962E+02 10080   0.250E+03-0.207E+03
CGA:  20    -0.365246291448E+03   -0.71518E+01   -0.95773E+01 10080   0.648E+03-0.740E+03
CGA:  21    -0.352829985057E+03    0.12416E+02   -0.35024E+02 10080   0.188E+03-0.117E+03
CGA:  22    -0.372084982139E+03   -0.19255E+02   -0.48921E+01 10080   0.331E+03-0.674E+03
CGA:  23    -0.365459929669E+03    0.66251E+01   -0.13668E+02 10080   0.422E+03-0.238E+03
CGA:  24    -0.358975460288E+03    0.64845E+01   -0.16920E+02 10080   0.488E+03-0.362E+03
CGA:  25    -0.352285492891E+03    0.66900E+01   -0.20629E+02 10080   0.662E+03-0.491E+03
CGA:  26    -0.354094348977E+03   -0.18089E+01   -0.28542E+02 10080   0.547E+03-0.423E+03
CGA:  27    -0.356953051930E+03   -0.28587E+01   -0.22991E+02 10080   0.360E+03-0.379E+03
CGA:  28    -0.363417619581E+03   -0.64646E+01   -0.12482E+02 10080   0.470E+03-0.558E+03
CGA:  29    -0.363462940342E+03   -0.45321E-01   -0.17339E+02 10080   0.526E+03-0.499E+03
CGA:  30    -0.364873761982E+03   -0.14108E+01   -0.19012E+02 10080   0.350E+03-0.359E+03
CGA:  31    -0.369612880068E+03   -0.47391E+01   -0.11129E+02 10080   0.308E+03-0.390E+03
CGA:  32    -0.370760204235E+03   -0.11473E+01   -0.98303E+01 10080   0.299E+03-0.315E+03
CGA:  33    -0.373253551324E+03   -0.24933E+01   -0.84135E+01 10080   0.182E+03-0.229E+03
CGA:  34    -0.375103309255E+03   -0.18498E+01   -0.48491E+01 10080   0.126E+03-0.171E+03
CGA:  35    -0.376508991867E+03   -0.14057E+01   -0.28305E+01 10080   0.385E+02-0.676E+02
CGA:  36    -0.377067754567E+03   -0.55876E+00   -0.71892E+00 10080   0.376E+01-0.102E+02
CGA:  37    -0.377155842586E+03   -0.88088E-01   -0.92917E-01 10080   0.135E+01-0.142E+00
CGA:  38    -0.377298050704E+03   -0.14221E+00   -0.13498E+00 10080   0.355E+01 0.172E+00
CGA:  39    -0.377640501133E+03   -0.34245E+00   -0.33371E+00 10080   0.216E+01 0.460E+00
CGA:  40    -0.377762931495E+03   -0.12243E+00   -0.13034E+00 10080   0.887E+00-0.235E-02
CGA:  41    -0.377837738122E+03   -0.74807E-01   -0.74066E-01 10080   0.686E+00 0.144E-01
CGA:  42    -0.377909283162E+03   -0.71545E-01   -0.70544E-01 10080   0.563E+00 0.695E-02
CGA:  43    -0.377965437056E+03   -0.56154E-01   -0.56435E-01 10080   0.397E+00-0.360E-01
CGA:  44    -0.378008833274E+03   -0.43396E-01   -0.44693E-01 10080   0.304E+00-0.423E-01
CGA:  45    -0.378037633592E+03   -0.28800E-01   -0.30507E-01 10080   0.190E+00-0.601E-01
CGA:  46    -0.378055107961E+03   -0.17474E-01   -0.20006E-01 10080   0.149E+00-0.531E-01
CGA:  47    -0.378068282192E+03   -0.13174E-01   -0.17519E-01 10080   0.149E+00-0.553E-01
CGA:  48    -0.378078849072E+03   -0.10567E-01   -0.12678E-01 10080   0.656E-01-0.460E-01
CGA:  49    -0.378083853511E+03   -0.50044E-02   -0.53960E-02 10080   0.391E-01-0.138E-01
CGA:  50    -0.378089810274E+03   -0.59568E-02   -0.60753E-02 10080   0.376E-01-0.121E-02
CGA:  51    -0.378094290380E+03   -0.44801E-02   -0.43417E-02 10080   0.148E-01 0.588E-02
CGA:  52    -0.378096392036E+03   -0.21017E-02   -0.19459E-02 10080   0.647E-02 0.908E-02
CGA:  53    -0.378096875880E+03   -0.48384E-03   -0.54288E-03 10080   0.545E-02 0.424E-02
CGA:  54    -0.378097258200E+03   -0.38232E-03   -0.44435E-03 10080   0.472E-02 0.397E-02
CGA:  55    -0.378097599806E+03   -0.34161E-03   -0.39164E-03 10080   0.421E-02 0.374E-02
CGA:  56    -0.378097884829E+03   -0.28502E-03   -0.33867E-03 10080   0.380E-02 0.352E-02
CGA:  57    -0.378098148245E+03   -0.26342E-03   -0.30883E-03 10080   0.349E-02 0.332E-02
CGA:  58    -0.378098377384E+03   -0.22914E-03   -0.27620E-03 10080   0.323E-02 0.314E-02
CGA:  59    -0.378098595638E+03   -0.21825E-03   -0.25839E-03 10080   0.303E-02 0.297E-02
CGA:  60    -0.378098794609E+03   -0.19897E-03   -0.23839E-03 10080   0.286E-02 0.282E-02
CGA:  61    -0.378098990638E+03   -0.19603E-03   -0.22846E-03 10080   0.271E-02 0.268E-02
CGA:  62    -0.378099177402E+03   -0.18676E-03   -0.21659E-03 10080   0.259E-02 0.256E-02
CGA:  63    -0.378099367725E+03   -0.19032E-03   -0.21235E-03 10080   0.249E-02 0.245E-02
CGA:  64    -0.378099554686E+03   -0.18696E-03   -0.20538E-03 10080   0.239E-02 0.235E-02
CGA:  65    -0.378099750243E+03   -0.19556E-03   -0.20520E-03 10080   0.231E-02 0.225E-02
CGA:  66    -0.378099942121E+03   -0.19188E-03   -0.19921E-03 10080   0.223E-02 0.215E-02
CGA:  67    -0.378100143546E+03   -0.20143E-03   -0.20060E-03 10080   0.216E-02 0.202E-02
CGA:  68    -0.378100324422E+03   -0.18088E-03   -0.18672E-03 10080   0.211E-02 0.186E-02
CGA:  69    -0.378100504124E+03   -0.17970E-03   -0.18364E-03 10080   0.209E-02 0.166E-02
CGA:  70    -0.378100640714E+03   -0.13659E-03   -0.15719E-03 10080   0.198E-02 0.145E-02
CGA:  71    -0.378100781383E+03   -0.14067E-03   -0.15474E-03 10080   0.191E-02 0.131E-02
CGA:  72    -0.378100890605E+03   -0.10922E-03   -0.13241E-03 10080   0.172E-02 0.123E-02
CGA:  73    -0.378101008906E+03   -0.11830E-03   -0.13121E-03 10080   0.163E-02 0.119E-02
CGA:  74    -0.378101103062E+03   -0.94156E-04   -0.11344E-03 10080   0.148E-02 0.114E-02
CGA:  75    -0.378101205798E+03   -0.10274E-03   -0.11308E-03 10080   0.140E-02 0.110E-02
CGA:  76    -0.378101289069E+03   -0.83271E-04   -0.98853E-04 10080   0.129E-02 0.105E-02
CGA:  77    -0.378101380109E+03   -0.91041E-04   -0.99102E-04 10080   0.123E-02 0.101E-02
CGA:  78    -0.378101454863E+03   -0.74753E-04   -0.87371E-04 10080   0.114E-02 0.962E-03
CGA:  79    -0.378101536713E+03   -0.81851E-04   -0.88003E-04 10080   0.109E-02 0.922E-03
CGA:  80    -0.378101604462E+03   -0.67748E-04   -0.78015E-04 10080   0.102E-02 0.878E-03
CGA:  81    -0.378101678791E+03   -0.74329E-04   -0.78896E-04 10080   0.976E-03 0.840E-03
CGA:  82    -0.378101740591E+03   -0.61800E-04   -0.70176E-04 10080   0.918E-03 0.800E-03
CGA:  83    -0.378101808628E+03   -0.68036E-04   -0.71263E-04 10080   0.879E-03 0.764E-03
CGA:  84    -0.378101865340E+03   -0.56712E-04   -0.63522E-04 10080   0.829E-03 0.727E-03
CGA:  85    -0.378101928099E+03   -0.62759E-04   -0.64817E-04 10080   0.795E-03 0.694E-03
CGA:  86    -0.378101980495E+03   -0.52396E-04   -0.57867E-04 10080   0.751E-03 0.661E-03
CGA:  87    -0.378102038867E+03   -0.58372E-04   -0.59380E-04 10080   0.723E-03 0.631E-03
CGA:  88    -0.378102087642E+03   -0.48775E-04   -0.53077E-04 10080   0.685E-03 0.600E-03
CGA:  89    -0.378102142417E+03   -0.54775E-04   -0.54825E-04 10080   0.661E-03 0.572E-03
CGA:  90    -0.378102188179E+03   -0.45762E-04   -0.49046E-04 10080   0.627E-03 0.544E-03
CGA:  91    -0.378102240042E+03   -0.51863E-04   -0.51044E-04 10080   0.608E-03 0.519E-03
CGA:  92    -0.378102283316E+03   -0.43273E-04   -0.45683E-04 10080   0.577E-03 0.493E-03
CGA:  93    -0.378102332865E+03   -0.49550E-04   -0.47955E-04 10080   0.564E-03 0.469E-03
CGA:  94    -0.378102374069E+03   -0.41204E-04   -0.42905E-04 10080   0.535E-03 0.444E-03
CGA:  95    -0.378102421790E+03   -0.47722E-04   -0.45475E-04 10080   0.528E-03 0.422E-03
CGA:  96    -0.378102461260E+03   -0.39469E-04   -0.40645E-04 10080   0.500E-03 0.399E-03
CGA:  97    -0.378102507570E+03   -0.46311E-04   -0.43549E-04 10080   0.499E-03 0.377E-03
CGA:  98    -0.378102545612E+03   -0.38041E-04   -0.38870E-04 10080   0.472E-03 0.355E-03
CGA:  99    -0.378102590797E+03   -0.45186E-04   -0.42087E-04 10080   0.478E-03 0.334E-03
CGA: 100    -0.378102627701E+03   -0.36904E-04   -0.37543E-04 10080   0.449E-03 0.313E-03
CGA: 101    -0.378102671977E+03   -0.44275E-04   -0.41018E-04 10080   0.464E-03 0.293E-03
CGA: 102    -0.378102708034E+03   -0.36057E-04   -0.36621E-04 10080   0.430E-03 0.273E-03
CGA: 103    -0.378102751623E+03   -0.43589E-04   -0.40304E-04 10080   0.456E-03 0.254E-03
CGA: 104    -0.378102787096E+03   -0.35473E-04   -0.36046E-04 10080   0.415E-03 0.235E-03
CGA: 105    -0.378102830181E+03   -0.43085E-04   -0.39875E-04 10080   0.453E-03 0.217E-03
CGA: 106    -0.378102865324E+03   -0.35142E-04   -0.35764E-04 10080   0.403E-03 0.199E-03
CGA: 107    -0.378102980296E+03   -0.11497E-03   -0.81409E-04 10080   0.413E-03 0.567E-03
CGA: 108    -0.378103020752E+03   -0.40456E-04   -0.39297E-04 10080   0.461E-03 0.110E-03
CGA: 109    -0.378103210452E+03   -0.18970E-03   -0.12049E-03 10080   0.326E-03 0.560E-03
CGA: 110    -0.378103246991E+03   -0.36539E-04   -0.35287E-04 10080   0.435E-03 0.726E-04
CGA: 111    -0.378103787117E+03   -0.54013E-03   -0.75961E-03 10080   0.154E-03 0.400E-03
CGA: 112    -0.378103855236E+03   -0.68120E-04    0.41436E-04 10080   0.173E-03 0.849E-04
CGA: 113    -0.378103886968E+03   -0.31732E-04   -0.34114E-04 10080   0.744E-03-0.850E-04
CGA: 114    -0.378104029642E+03   -0.14267E-03    0.29041E-03 10080   0.307E-02-0.251E-04
CGA: 115    -0.378104527348E+03   -0.49771E-03   -0.54801E-03 10080   0.375E-02-0.289E-02
CGA: 116    -0.378104899090E+03   -0.37174E-03   -0.34572E-03 10080   0.142E-02-0.348E-03
CGA: 117    -0.378105028090E+03   -0.12900E-03   -0.11269E-03 10080   0.179E-03-0.205E-03
CGA: 118    -0.378105055894E+03   -0.27804E-04   -0.27097E-04 10080   0.988E-04 0.489E-04
CGA: 119    -0.378105074044E+03   -0.18150E-04   -0.49596E-04 10080   0.105E-02-0.136E-03
CGA: 120    -0.378105137945E+03   -0.63901E-04   -0.58082E-04 10080   0.808E-04-0.462E-04
CGA: 121    -0.378105173906E+03   -0.35961E-04    0.17239E-04 10080   0.520E-04-0.540E-05
CGA: 122    -0.378105194867E+03   -0.20962E-04    0.14622E-04 10080   0.878E-04-0.172E-04
CGA: 123    -0.378105228617E+03   -0.33750E-04    0.70435E-05 10080   0.527E-04 0.234E-04
CGA: 124    -0.378105220746E+03    0.78710E-05   -0.25430E-04 10080   0.995E-03-0.158E-03
CGA: 125    -0.378105281268E+03   -0.60522E-04   -0.54426E-04 10080   0.286E-04-0.472E-04
CGA: 126    -0.378105297058E+03   -0.15790E-04    0.34910E-05 10080   0.501E-04-0.132E-04
CGA: 127    -0.378105318561E+03   -0.21502E-04    0.18076E-05 10080   0.378E-04-0.233E-04
CGA: 128    -0.378105319993E+03   -0.14325E-05   -0.19678E-05 10080   0.333E-04 0.671E-05
   1 F= -.37810532E+03 E0= -.37810129E+03  d E =-.378105E+03  mag=     8.0000
       N       E                     dE             d eps       ncg     rms          ort
SDA:   1    -0.378107253763E+03   -0.19352E-02    0.00000E+00 10080   0.165E-02 0.000E+00
CGA:   2    -0.378107341861E+03   -0.88098E-04   -0.89337E-04 10080   0.213E-03 0.154E-04
CGA:   3    -0.378107398789E+03   -0.56927E-04   -0.68852E-04 10080   0.198E-03-0.739E-04
CGA:   4    -0.378107412725E+03   -0.13936E-04   -0.12078E-04 10080   0.938E-04-0.254E-04
CGA:   5    -0.378107427681E+03   -0.14957E-04   -0.15682E-04 10080   0.406E-04-0.252E-04
CGA:   6    -0.378107441539E+03   -0.13858E-04    0.58097E-05 10080   0.477E-04-0.145E-04
CGA:   7    -0.378107458112E+03   -0.16573E-04    0.39185E-05 10080   0.399E-04-0.305E-04
CGA:   8    -0.378107457732E+03    0.38074E-06   -0.21260E-05 10080   0.165E-04 0.226E-04
   2 F= -.37810746E+03 E0= -.37810343E+03  d E =-.213774E-02  mag=     8.0000
       N       E                     dE             d eps       ncg     rms          ort
SDA:   1    -0.378043869800E+03    0.63588E-01    0.00000E+00 10080   0.425E+00 0.000E+00
CGA:   2    -0.378127880436E+03   -0.84011E-01   -0.83749E-01 10080   0.330E+00 0.550E-02
CGA:   3    -0.378158643380E+03   -0.30763E-01   -0.30480E-01 10080   0.840E-01 0.132E-02
CGA:   4    -0.378175187328E+03   -0.16544E-01   -0.16638E-01 10080   0.436E-01-0.210E-02
CGA:   5    -0.378178625131E+03   -0.34378E-02   -0.33954E-02 10080   0.126E-01-0.336E-03
CGA:   6    -0.378180674084E+03   -0.20490E-02   -0.20530E-02 10080   0.297E-02-0.297E-03
CGA:   7    -0.378181146037E+03   -0.47195E-03   -0.46956E-03 10080   0.182E-02 0.229E-03
CGA:   8    -0.378181381218E+03   -0.23518E-03   -0.23720E-03 10080   0.868E-03 0.663E-04
CGA:   9    -0.378181596963E+03   -0.21574E-03   -0.24492E-03 10080   0.117E-02-0.239E-03
CGA:  10    -0.378181687724E+03   -0.90760E-04   -0.81467E-04 10080   0.500E-03-0.152E-03
CGA:  11    -0.378181678063E+03    0.96602E-05   -0.23074E-03 10080   0.240E-02-0.638E-03
CGA:  12    -0.378181841893E+03   -0.16383E-03   -0.16741E-03 10080   0.491E-03 0.356E-04
CGA:  13    -0.378181919551E+03   -0.77658E-04   -0.78532E-04 10080   0.891E-04 0.897E-04
CGA:  14    -0.378181941406E+03   -0.21855E-04   -0.22717E-04 10080   0.191E-03-0.178E-04
CGA:  15    -0.378181956165E+03   -0.14760E-04   -0.15424E-04 10080   0.796E-04 0.953E-05
CGA:  16    -0.378181960134E+03   -0.39689E-05   -0.47867E-05 10080   0.335E-04 0.756E-05
CGA:  17    -0.378181962907E+03   -0.27731E-05   -0.15270E-04 10080   0.237E-03-0.493E-04
CGA:  18    -0.378181984936E+03   -0.22029E-04   -0.17358E-04 10080   0.351E-04-0.463E-04
CGA:  19    -0.378181985771E+03   -0.83517E-06   -0.11935E-04 10080   0.213E-03-0.437E-04
CGA:  20    -0.378182000199E+03   -0.14427E-04   -0.12924E-04 10080   0.905E-05-0.121E-04
CGA:  21    -0.378181999753E+03    0.44537E-06   -0.37545E-06 10080   0.476E-05 0.627E-05
   3 F= -.37818200E+03 E0= -.37817806E+03  d E =-.745420E-01  mag=     8.0000
       N       E                     dE             d eps       ncg     rms          ort
SDA:   1    -0.377453873544E+03    0.72813E+00    0.00000E+00 10080   0.274E+01 0.000E+00
CGA:   2    -0.377991204949E+03   -0.53733E+00   -0.53579E+00 10080   0.208E+01 0.350E-01
CGA:   3    -0.378184681804E+03   -0.19348E+00   -0.18730E+00 10080   0.493E+00 0.365E-01
CGA:   4    -0.378289605584E+03   -0.10492E+00   -0.10523E+00 10080   0.240E+00-0.625E-02
CGA:   5    -0.378308596516E+03   -0.18991E-01   -0.18710E-01 10080   0.746E-01 0.355E-03
CGA:   6    -0.378320929316E+03   -0.12333E-01   -0.12337E-01 10080   0.162E-01-0.705E-03
CGA:   7    -0.378324107957E+03   -0.31786E-02   -0.31564E-02 10080   0.113E-01 0.587E-03
CGA:   8    -0.378325384297E+03   -0.12763E-02   -0.12830E-02 10080   0.609E-02 0.144E-03
CGA:   9    -0.378326884729E+03   -0.15004E-02   -0.15726E-02 10080   0.451E-02-0.743E-03
CGA:  10    -0.378327424230E+03   -0.53950E-03   -0.52757E-03 10080   0.390E-02-0.394E-03
CGA:  11    -0.378328123824E+03   -0.69959E-03   -0.73281E-03 10080   0.204E-02-0.753E-03
CGA:  12    -0.378328343936E+03   -0.22011E-03   -0.21234E-03 10080   0.156E-02-0.223E-03
CGA:  13    -0.378328573468E+03   -0.22953E-03   -0.22984E-03 10080   0.516E-03-0.949E-04
CGA:  14    -0.378328660929E+03   -0.87460E-04   -0.90762E-04 10080   0.718E-03-0.131E-03
CGA:  15    -0.378328729936E+03   -0.69008E-04   -0.67573E-04 10080   0.169E-03-0.383E-04
CGA:  16    -0.378328767716E+03   -0.37780E-04   -0.38231E-04 10080   0.300E-03-0.593E-05
CGA:  17    -0.378328809689E+03   -0.41972E-04   -0.38446E-04 10080   0.118E-03-0.108E-03
CGA:  18    -0.378328835864E+03   -0.26175E-04    0.10745E-03 10080   0.873E-04-0.144E-05
CGA:  19    -0.378328864289E+03   -0.28425E-04    0.11079E-02 10080   0.676E-04-0.892E-05
CGA:  20    -0.378328823803E+03    0.40485E-04   -0.30907E-04 10080   0.108E-02-0.207E-03
CGA:  21    -0.378328881467E+03   -0.57663E-04   -0.60198E-04 10080   0.101E-03 0.223E-04
CGA:  22    -0.378328904268E+03   -0.22802E-04   -0.22248E-04 10080   0.615E-04 0.133E-04
CGA:  23    -0.378328914921E+03   -0.10652E-04   -0.91850E-05 10080   0.498E-04-0.325E-04
CGA:  24    -0.378328917762E+03   -0.28410E-05   -0.31722E-05 10080   0.765E-05 0.309E-05
   4 F= -.37832892E+03 E0= -.37832523E+03  d E =-.146918E+00  mag=     8.0000
       N       E                     dE             d eps       ncg     rms          ort
SDA:   1    -0.377395013382E+03    0.93390E+00    0.00000E+00 10080   0.320E+01 0.000E+00
CGA:   2    -0.378088529247E+03   -0.69352E+00   -0.69215E+00 10080   0.205E+01 0.240E-01
CGA:   3    -0.378277258819E+03   -0.18873E+00   -0.18361E+00 10080   0.573E+00 0.345E-01
CGA:   4    -0.378407404050E+03   -0.13015E+00   -0.13045E+00 10080   0.111E+00-0.587E-02
CGA:   5    -0.378427861007E+03   -0.20457E-01   -0.20479E-01 10080   0.562E-01-0.126E-02
CGA:   6    -0.378432602370E+03   -0.47414E-02   -0.47395E-02 10080   0.205E-01-0.210E-03
CGA:   7    -0.378436222275E+03   -0.36199E-02   -0.36131E-02 10080   0.872E-02 0.678E-03
CGA:   8    -0.378437873666E+03   -0.16514E-02   -0.16536E-02 10080   0.104E-01-0.126E-03
CGA:   9    -0.378439314818E+03   -0.14412E-02   -0.14298E-02 10080   0.386E-02-0.390E-03
CGA:  10    -0.378440438238E+03   -0.11234E-02   -0.12328E-02 10080   0.470E-02-0.661E-03
CGA:  11    -0.378440805668E+03   -0.36743E-03   -0.34462E-03 10080   0.176E-02-0.271E-03
CGA:  12    -0.378441218864E+03   -0.41320E-03   -0.42178E-03 10080   0.829E-03-0.103E-03
CGA:  13    -0.378441291906E+03   -0.73042E-04   -0.74394E-04 10080   0.509E-03 0.170E-04
CGA:  14    -0.378441422765E+03   -0.13086E-03   -0.14304E-03 10080   0.224E-03-0.117E-03
CGA:  15    -0.378441450686E+03   -0.27920E-04   -0.28054E-04 10080   0.241E-03 0.100E-04
CGA:  16    -0.378441481585E+03   -0.30899E-04   -0.31855E-04 10080   0.746E-04 0.195E-04
CGA:  17    -0.378441514165E+03   -0.32580E-04    0.41561E-04 10080   0.418E-04 0.192E-04
CGA:  18    -0.378441534408E+03   -0.20243E-04    0.39361E-04 10080   0.401E-04 0.769E-08
CGA:  19    -0.378441551538E+03   -0.17130E-04    0.14766E-04 10080   0.259E-04-0.888E-05
CGA:  20    -0.378441555417E+03   -0.38793E-05   -0.46037E-05 10080   0.434E-04-0.131E-04
   5 F= -.37844156E+03 E0= -.37843808E+03  d E =-.112638E+00  mag=     8.0000
       N       E                     dE             d eps       ncg     rms          ort
SDA:   1    -0.377076706363E+03    0.13648E+01    0.00000E+00 10080   0.418E+01 0.000E+00
CGA:   2    -0.378091660602E+03   -0.10150E+01   -0.10139E+01 10080   0.220E+01 0.127E-01
CGA:   3    -0.378306729058E+03   -0.21507E+00   -0.21117E+00 10080   0.883E+00 0.236E-01
CGA:   4    -0.378476469061E+03   -0.16974E+00   -0.16979E+00 10080   0.144E+00-0.338E-02
CGA:   5    -0.378502065088E+03   -0.25596E-01   -0.25605E-01 10080   0.890E-01-0.149E-02
CGA:   6    -0.378509349437E+03   -0.72843E-02   -0.72718E-02 10080   0.246E-01 0.101E-03
CGA:   7    -0.378514245466E+03   -0.48960E-02   -0.48789E-02 10080   0.133E-01 0.577E-03
CGA:   8    -0.378516278284E+03   -0.20328E-02   -0.20343E-02 10080   0.121E-01 0.957E-04
CGA:   9    -0.378518428849E+03   -0.21506E-02   -0.21518E-02 10080   0.488E-02-0.150E-03
CGA:  10    -0.378519773088E+03   -0.13442E-02   -0.13562E-02 10080   0.546E-02-0.106E-03
CGA:  11    -0.378520338274E+03   -0.56519E-03   -0.54915E-03 10080   0.209E-02-0.211E-03
CGA:  12    -0.378520797615E+03   -0.45934E-03   -0.45993E-03 10080   0.112E-02-0.991E-05
CGA:  13    -0.378520923912E+03   -0.12630E-03   -0.12249E-03 10080   0.664E-03-0.602E-04
CGA:  14    -0.378521043712E+03   -0.11980E-03   -0.11988E-03 10080   0.295E-03-0.385E-05
CGA:  15    -0.378521076053E+03   -0.32341E-04   -0.33997E-04 10080   0.179E-03 0.299E-04
CGA:  16    -0.378521121334E+03   -0.45281E-04   -0.45044E-04 10080   0.817E-04 0.391E-05
CGA:  17    -0.378521137220E+03   -0.15887E-04   -0.16148E-04 10080   0.104E-03-0.122E-04
CGA:  18    -0.378521152587E+03   -0.15367E-04   -0.23962E-04 10080   0.138E-03-0.880E-04
CGA:  19    -0.378521158980E+03   -0.63923E-05   -0.89042E-05 10080   0.353E-04 0.223E-04
   6 F= -.37852116E+03 E0= -.37851784E+03  d E =-.796036E-01  mag=     8.0000
       N       E                     dE             d eps       ncg     rms          ort
SDA:   1    -0.376206557572E+03    0.23146E+01    0.00000E+00 10080   0.639E+01 0.000E+00
CGA:   2    -0.377812775087E+03   -0.16062E+01   -0.16074E+01 10080   0.464E+01-0.151E-01
CGA:   3    -0.378236054532E+03   -0.42328E+00   -0.41679E+00 10080   0.136E+01 0.763E-01
CGA:   4    -0.378493153172E+03   -0.25710E+00   -0.25723E+00 10080   0.342E+00-0.481E-02
CGA:   5    -0.378526273466E+03   -0.33120E-01   -0.33138E-01 10080   0.176E+00-0.120E-02
CGA:   6    -0.378548606384E+03   -0.22333E-01   -0.22300E-01 10080   0.351E-01-0.563E-03
CGA:   7    -0.378556081341E+03   -0.74750E-02   -0.74513E-02 10080   0.188E-01 0.496E-03
CGA:   8    -0.378558470971E+03   -0.23896E-02   -0.23934E-02 10080   0.143E-01 0.108E-03
CGA:   9    -0.378561151428E+03   -0.26805E-02   -0.26835E-02 10080   0.708E-02-0.133E-03
CGA:  10    -0.378562284765E+03   -0.11333E-02   -0.11333E-02 10080   0.793E-02-0.145E-04
CGA:  11    -0.378563573172E+03   -0.12884E-02   -0.12878E-02 10080   0.260E-02-0.218E-03
CGA:  12    -0.378564170658E+03   -0.59749E-03   -0.59873E-03 10080   0.252E-02-0.190E-04
CGA:  13    -0.378564434225E+03   -0.26357E-03   -0.25849E-03 10080   0.820E-03-0.794E-04
CGA:  14    -0.378564609801E+03   -0.17558E-03   -0.18014E-03 10080   0.870E-03-0.758E-04
CGA:  15    -0.378564691746E+03   -0.81945E-04   -0.81147E-04 10080   0.262E-03-0.117E-04
CGA:  16    -0.378564763177E+03   -0.71431E-04   -0.66130E-04 10080   0.113E-03 0.578E-04
CGA:  17    -0.378564799414E+03   -0.36237E-04   -0.40599E-04 10080   0.312E-03-0.353E-04
CGA:  18    -0.378564817804E+03   -0.18390E-04   -0.17170E-04 10080   0.138E-03-0.143E-04
CGA:  19    -0.378564824214E+03   -0.64093E-05   -0.70987E-05 10080   0.733E-04 0.559E-05
   7 F= -.37856482E+03 E0= -.37856164E+03  d E =-.436652E-01  mag=     8.0000
       N       E                     dE             d eps       ncg     rms          ort
SDA:   1    -0.372385019225E+03    0.61798E+01    0.00000E+00 10080   0.152E+02 0.000E+00
CGA:   2    -0.376960509072E+03   -0.45755E+01   -0.45976E+01 10080   0.105E+02-0.163E+00
CGA:   3    -0.377858919516E+03   -0.89841E+00   -0.93584E+00 10080   0.382E+01-0.694E-01
CGA:   4    -0.378386753152E+03   -0.52783E+00   -0.52505E+00 10080   0.100E+01-0.215E-01
CGA:   5    -0.378482877535E+03   -0.96124E-01   -0.95860E-01 10080   0.394E+00 0.129E-02
CGA:   6    -0.378538450971E+03   -0.55573E-01   -0.55516E-01 10080   0.924E-01-0.178E-02
CGA:   7    -0.378554607593E+03   -0.16157E-01   -0.16149E-01 10080   0.589E-01 0.518E-03
CGA:   8    -0.378560554666E+03   -0.59471E-02   -0.59694E-02 10080   0.229E-01 0.406E-03
CGA:   9    -0.378565098904E+03   -0.45442E-02   -0.45391E-02 10080   0.173E-01 0.118E-03
CGA:  10    -0.378567118953E+03   -0.20200E-02   -0.20189E-02 10080   0.862E-02-0.131E-04
CGA:  11    -0.378569310840E+03   -0.21919E-02   -0.22126E-02 10080   0.558E-02-0.208E-03
CGA:  12    -0.378570009184E+03   -0.69834E-03   -0.69927E-03 10080   0.399E-02 0.217E-04
CGA:  13    -0.378570700824E+03   -0.69164E-03   -0.69049E-03 10080   0.180E-02 0.978E-04
CGA:  14    -0.378570946629E+03   -0.24581E-03   -0.24312E-03 10080   0.138E-02-0.894E-04
CGA:  15    -0.378571209465E+03   -0.26284E-03   -0.26803E-03 10080   0.672E-03-0.120E-03
CGA:  16    -0.378571300747E+03   -0.91281E-04   -0.92284E-04 10080   0.519E-03 0.824E-04
CGA:  17    -0.378571391660E+03   -0.90913E-04   -0.91546E-04 10080   0.247E-03 0.132E-03
CGA:  18    -0.378571442991E+03   -0.51332E-04   -0.51098E-04 10080   0.221E-03 0.643E-04
CGA:  19    -0.378571488762E+03   -0.45771E-04   -0.45678E-04 10080   0.117E-03 0.353E-04
CGA:  20    -0.378571507058E+03   -0.18296E-04   -0.19222E-04 10080   0.706E-04 0.453E-04
CGA:  21    -0.378571515592E+03   -0.85341E-05   -0.11247E-04 10080   0.334E-04 0.584E-04
   8 F= -.37857152E+03 E0= -.37856835E+03  d E =-.669138E-02  mag=     8.0000
       N       E                     dE             d eps       ncg     rms          ort
SDA:   1    -0.377823466023E+03    0.74804E+00    0.00000E+00 10080   0.183E+01 0.000E+00
CGA:   2    -0.378433917368E+03   -0.61045E+00   -0.61078E+00 10080   0.754E+00-0.200E-02
CGA:   3    -0.378525197640E+03   -0.91280E-01   -0.91125E-01 10080   0.440E+00 0.126E-02
CGA:   4    -0.378570758809E+03   -0.45561E-01   -0.45549E-01 10080   0.758E-01 0.405E-03
CGA:   5    -0.378581721846E+03   -0.10963E-01   -0.10954E-01 10080   0.392E-01-0.427E-03
CGA:   6    -0.378585559649E+03   -0.38378E-02   -0.38256E-02 10080   0.109E-01-0.199E-03
CGA:   7    -0.378587500558E+03   -0.19409E-02   -0.19440E-02 10080   0.387E-02-0.141E-03
CGA:   8    -0.378587964016E+03   -0.46346E-03   -0.47108E-03 10080   0.242E-02 0.210E-03
CGA:   9    -0.378588354544E+03   -0.39053E-03   -0.39090E-03 10080   0.859E-03 0.723E-04
CGA:  10    -0.378588525585E+03   -0.17104E-03   -0.16982E-03 10080   0.942E-03 0.361E-04
CGA:  11    -0.378588646116E+03   -0.12053E-03   -0.12150E-03 10080   0.351E-03 0.277E-04
CGA:  12    -0.378588725652E+03   -0.79536E-04   -0.79614E-04 10080   0.360E-03-0.167E-05
CGA:  13    -0.378588760212E+03   -0.34559E-04   -0.36968E-04 10080   0.977E-04 0.419E-04
CGA:  14    -0.378588799169E+03   -0.38958E-04   -0.39034E-04 10080   0.625E-04-0.857E-06
CGA:  15    -0.378588812592E+03   -0.13423E-04   -0.13719E-04 10080   0.134E-03-0.574E-05
CGA:  16    -0.378588827370E+03   -0.14778E-04   -0.15497E-04 10080   0.406E-04 0.154E-04
CGA:  17    -0.378588831875E+03   -0.45049E-05   -0.54091E-05 10080   0.457E-04 0.182E-04
CGA:  18    -0.378588842063E+03   -0.10188E-04   -0.10399E-04 10080   0.156E-04 0.229E-04
CGA:  19    -0.378588845279E+03   -0.32158E-05   -0.37435E-05 10080   0.537E-04-0.715E-05
   9 F= -.37858885E+03 E0= -.37858578E+03  d E =-.173297E-01  mag=     8.0000
       N       E                     dE             d eps       ncg     rms          ort
SDA:   1    -0.378326611157E+03    0.26223E+00    0.00000E+00 10080   0.786E+00 0.000E+00
CGA:   2    -0.378526113295E+03   -0.19950E+00   -0.19988E+00 10080   0.393E+00-0.441E-02
CGA:   3    -0.378565423724E+03   -0.39310E-01   -0.39267E-01 10080   0.181E+00 0.158E-02
CGA:   4    -0.378595519641E+03   -0.30096E-01   -0.30097E-01 10080   0.316E-01 0.114E-02
CGA:   5    -0.378600305317E+03   -0.47857E-02   -0.47946E-02 10080   0.166E-01 0.591E-03
CGA:   6    -0.378602098410E+03   -0.17931E-02   -0.17801E-02 10080   0.450E-02-0.205E-03
CGA:   7    -0.378602970400E+03   -0.87199E-03   -0.87006E-03 10080   0.210E-02 0.612E-04
CGA:   8    -0.378603318344E+03   -0.34794E-03   -0.34785E-03 10080   0.237E-02-0.120E-03
CGA:   9    -0.378603634052E+03   -0.31571E-03   -0.31369E-03 10080   0.967E-03-0.845E-04
CGA:  10    -0.378603816412E+03   -0.18236E-03   -0.18198E-03 10080   0.107E-02 0.122E-04
CGA:  11    -0.378603975972E+03   -0.15956E-03   -0.15785E-03 10080   0.429E-03-0.917E-04
CGA:  12    -0.378604044454E+03   -0.68482E-04   -0.67956E-04 10080   0.229E-03 0.530E-04
CGA:  13    -0.378604093831E+03   -0.49376E-04   -0.51914E-04 10080   0.266E-03-0.667E-04
CGA:  14    -0.378604112854E+03   -0.19023E-04   -0.18741E-04 10080   0.775E-04-0.401E-05
CGA:  15    -0.378604125725E+03   -0.12871E-04   -0.12950E-04 10080   0.136E-03-0.109E-04
CGA:  16    -0.378604145231E+03   -0.19506E-04   -0.22586E-04 10080   0.857E-04-0.104E-03
CGA:  17    -0.378604154584E+03   -0.93529E-05   -0.10627E-04 10080   0.297E-04 0.316E-04
  10 F= -.37860415E+03 E0= -.37860112E+03  d E =-.153093E-01  mag=     8.0000
       N       E                     dE             d eps       ncg     rms          ort
SDA:   1    -0.377810727813E+03    0.79342E+00    0.00000E+00 10080   0.200E+01 0.000E+00
CGA:   2    -0.378433962926E+03   -0.62324E+00   -0.62446E+00 10080   0.828E+00-0.818E-02
CGA:   3    -0.378542087625E+03   -0.10812E+00   -0.10831E+00 10080   0.491E+00 0.340E-02
CGA:   4    -0.378592926083E+03   -0.50838E-01   -0.50680E-01 10080   0.880E-01 0.223E-02
CGA:   5    -0.378604693206E+03   -0.11767E-01   -0.11768E-01 10080   0.450E-01 0.313E-03
CGA:   6    -0.378609183281E+03   -0.44901E-02   -0.44926E-02 10080   0.115E-01-0.641E-04
CGA:   7    -0.378611313971E+03   -0.21307E-02   -0.21355E-02 10080   0.446E-02-0.165E-03
CGA:   8    -0.378611863489E+03   -0.54952E-03   -0.55047E-03 10080   0.294E-02 0.397E-04
CGA:   9    -0.378612372918E+03   -0.50943E-03   -0.51336E-03 10080   0.135E-02-0.256E-03
CGA:  10    -0.378612581529E+03   -0.20861E-03   -0.20901E-03 10080   0.134E-02-0.371E-04
CGA:  11    -0.378612781995E+03   -0.20047E-03   -0.20011E-03 10080   0.627E-03-0.692E-04
CGA:  12    -0.378612881777E+03   -0.99782E-04   -0.10030E-03 10080   0.609E-03-0.516E-04
CGA:  13    -0.378612961374E+03   -0.79597E-04   -0.79472E-04 10080   0.186E-03-0.796E-05
CGA:  14    -0.378612838034E+03    0.12334E-03   -0.14099E-03 10080   0.342E-02-0.435E-03
CGA:  15    -0.378613025445E+03   -0.18741E-03   -0.19748E-03 10080   0.303E-03 0.940E-04
CGA:  16    -0.378613076694E+03   -0.51249E-04   -0.52163E-04 10080   0.162E-03 0.633E-04
CGA:  17    -0.378613100633E+03   -0.23939E-04   -0.22753E-04 10080   0.681E-04-0.179E-04
CGA:  18    -0.378613113618E+03   -0.12985E-04   -0.13379E-04 10080   0.488E-04-0.930E-05
CGA:  19    -0.378613030091E+03    0.83527E-04   -0.34019E-04 10080   0.178E-02-0.188E-03
CGA:  20    -0.378613116584E+03   -0.86493E-04   -0.99368E-04 10080   0.757E-04 0.883E-04
CGA:  21    -0.378613129571E+03   -0.12987E-04   -0.13856E-04 10080   0.544E-04 0.295E-04
CGA:  22    -0.378613142670E+03   -0.13099E-04   -0.12392E-04 10080   0.537E-04-0.183E-04
CGA:  23    -0.378613146587E+03   -0.39171E-05   -0.36698E-05 10080   0.180E-04-0.252E-05
  11 F= -.37861315E+03 E0= -.37861017E+03  d E =-.899200E-02  mag=     8.0000
       N       E                     dE             d eps       ncg     rms          ort
SDA:   1    -0.371170045839E+03    0.74431E+01    0.00000E+00 10080   0.181E+02 0.000E+00
CGA:   2    -0.376926607527E+03   -0.57566E+01   -0.57500E+01 10080   0.901E+01 0.445E-01
CGA:   3    -0.377939762801E+03   -0.10132E+01   -0.98323E+00 10080   0.383E+01 0.258E+00
CGA:   4    -0.378435648061E+03   -0.49589E+00   -0.49273E+00 10080   0.826E+00 0.233E-01
CGA:   5    -0.378531260631E+03   -0.95613E-01   -0.94416E-01 10080   0.462E+00 0.155E-02
CGA:   6    -0.378582244040E+03   -0.50983E-01   -0.51044E-01 10080   0.992E-01-0.304E-02
CGA:   7    -0.378601521063E+03   -0.19277E-01   -0.19272E-01 10080   0.411E-01 0.451E-03
CGA:   8    -0.378606577789E+03   -0.50567E-02   -0.50545E-02 10080   0.233E-01-0.146E-03
CGA:   9    -0.378610569681E+03   -0.39919E-02   -0.39883E-02 10080   0.115E-01-0.378E-03
CGA:  10    -0.378612054047E+03   -0.14844E-02   -0.14663E-02 10080   0.955E-02-0.365E-03
CGA:  11    -0.378613778962E+03   -0.17249E-02   -0.17330E-02 10080   0.414E-02-0.770E-03
CGA:  12    -0.378614416787E+03   -0.63782E-03   -0.63714E-03 10080   0.323E-02-0.681E-04
CGA:  13    -0.378614926748E+03   -0.50996E-03   -0.50552E-03 10080   0.153E-02-0.251E-03
CGA:  14    -0.378615176645E+03   -0.24990E-03   -0.25074E-03 10080   0.201E-02-0.469E-03
CGA:  15    -0.378615411408E+03   -0.23476E-03   -0.22494E-03 10080   0.968E-03-0.671E-03
CGA:  16    -0.378615550848E+03   -0.13944E-03   -0.16700E-03 10080   0.157E-02-0.332E-03
CGA:  17    -0.378615703951E+03   -0.15310E-03   -0.14309E-03 10080   0.520E-03-0.253E-03
CGA:  18    -0.378615173844E+03    0.53011E-03   -0.31304E-03 10080   0.642E-02-0.114E-02
CGA:  19    -0.378615723577E+03   -0.54973E-03   -0.55602E-03 10080   0.205E-02 0.112E-04
CGA:  20    -0.378615985677E+03   -0.26210E-03   -0.29987E-03 10080   0.381E-03 0.229E-03
CGA:  21    -0.378616121477E+03   -0.13580E-03   -0.13936E-03 10080   0.513E-03-0.139E-03
CGA:  22    -0.378616155397E+03   -0.33920E-04   -0.24420E-04 10080   0.197E-03-0.406E-04
CGA:  23    -0.378616168526E+03   -0.13129E-04   -0.18817E-04 10080   0.216E-03 0.301E-04
CGA:  24    -0.378616179427E+03   -0.10901E-04   -0.24966E-04 10080   0.104E-03 0.765E-04
CGA:  25    -0.378616187726E+03   -0.82989E-05   -0.12553E-04 10080   0.767E-04 0.231E-04
CGA:  26    -0.378616215292E+03   -0.27566E-04   -0.30949E-04 10080   0.164E-03-0.523E-04
CGA:  27    -0.378616226062E+03   -0.10770E-04   -0.12960E-04 10080   0.443E-04 0.117E-04
CGA:  28    -0.378616230267E+03   -0.42053E-05   -0.65252E-05 10080   0.163E-04 0.191E-04
  12 F= -.37861623E+03 E0= -.37861334E+03  d E =-.308368E-02  mag=     8.0000
       N       E                     dE             d eps       ncg     rms          ort
SDA:   1    -0.374642369763E+03    0.39739E+01    0.00000E+00 10080   0.952E+01 0.000E+00
CGA:   2    -0.377743497354E+03   -0.31011E+01   -0.31004E+01 10080   0.507E+01 0.684E-02
CGA:   3    -0.378260774639E+03   -0.51728E+00   -0.50354E+00 10080   0.181E+01 0.174E+00
CGA:   4    -0.378535776270E+03   -0.27500E+00   -0.27329E+00 10080   0.345E+00 0.906E-02
CGA:   5    -0.378580119360E+03   -0.44343E-01   -0.44206E-01 10080   0.234E+00-0.260E-02
CGA:   6    -0.378603317127E+03   -0.23198E-01   -0.22893E-01 10080   0.464E-01-0.354E-03
CGA:   7    -0.378612393186E+03   -0.90761E-02   -0.91113E-02 10080   0.181E-01 0.116E-02
CGA:   8    -0.378614761225E+03   -0.23680E-02   -0.23722E-02 10080   0.109E-01 0.724E-04
CGA:   9    -0.378616676076E+03   -0.19149E-02   -0.19265E-02 10080   0.402E-02 0.278E-03
CGA:  10    -0.378617433999E+03   -0.75792E-03   -0.75626E-03 10080   0.524E-02-0.440E-04
CGA:  11    -0.378618063506E+03   -0.62951E-03   -0.63330E-03 10080   0.145E-02 0.301E-04
CGA:  12    -0.378618330954E+03   -0.26745E-03   -0.27325E-03 10080   0.105E-02 0.236E-03
CGA:  13    -0.378618512865E+03   -0.18191E-03   -0.17733E-03 10080   0.630E-03-0.681E-04
CGA:  14    -0.378618607869E+03   -0.95004E-04   -0.95442E-04 10080   0.290E-03 0.107E-04
CGA:  15    -0.378618677706E+03   -0.69838E-04   -0.73106E-04 10080   0.451E-03-0.758E-04
CGA:  16    -0.378618707792E+03   -0.30085E-04   -0.33445E-04 10080   0.153E-03 0.315E-04
CGA:  17    -0.378618715791E+03   -0.79999E-05   -0.15003E-04 10080   0.133E-03 0.634E-04
CGA:  18    -0.378618731161E+03   -0.15370E-04   -0.21701E-04 10080   0.606E-04 0.781E-04
CGA:  19    -0.378618382234E+03    0.34893E-03   -0.18825E-03 10080   0.714E-02-0.406E-03
CGA:  20    -0.378618753873E+03   -0.37164E-03   -0.41067E-03 10080   0.256E-03 0.187E-03
CGA:  21    -0.378618763131E+03   -0.92580E-05   -0.27853E-04 10080   0.501E-04 0.811E-04
  13 F= -.37861876E+03 E0= -.37861586E+03  d E =-.253286E-02  mag=     8.0000
       N       E                     dE             d eps       ncg     rms          ort
SDA:   1    -0.377191501223E+03    0.14273E+01    0.00000E+00 10080   0.357E+01 0.000E+00
CGA:   2    -0.378255251568E+03   -0.10638E+01   -0.10636E+01 10080   0.251E+01-0.429E-02
CGA:   3    -0.378461403333E+03   -0.20615E+00   -0.20442E+00 10080   0.867E+00 0.220E-01
CGA:   4    -0.378594895739E+03   -0.13349E+00   -0.13349E+00 10080   0.168E+00-0.266E-03
CGA:   5    -0.378617860081E+03   -0.22964E-01   -0.22922E-01 10080   0.904E-01 0.700E-03
CGA:   6    -0.378627025912E+03   -0.91658E-02   -0.90612E-02 10080   0.218E-01-0.463E-03
CGA:   7    -0.378630928222E+03   -0.39023E-02   -0.39084E-02 10080   0.895E-02 0.753E-04
CGA:   8    -0.378631941509E+03   -0.10133E-02   -0.99543E-03 10080   0.543E-02-0.978E-04
CGA:   9    -0.378632904252E+03   -0.96274E-03   -0.92942E-03 10080   0.223E-02-0.365E-03
CGA:  10    -0.378633270239E+03   -0.36599E-03   -0.34216E-03 10080   0.244E-02-0.252E-03
CGA:  11    -0.378633659482E+03   -0.38924E-03   -0.35347E-03 10080   0.897E-03-0.394E-03
CGA:  12    -0.378633827617E+03   -0.16813E-03   -0.16300E-03 10080   0.116E-02-0.159E-03
CGA:  13    -0.378633940422E+03   -0.11281E-03   -0.99196E-04 10080   0.257E-03-0.927E-04
CGA:  14    -0.378634010458E+03   -0.70036E-04   -0.99051E-04 10080   0.782E-03-0.163E-03
CGA:  15    -0.378634051570E+03   -0.41112E-04   -0.47261E-04 10080   0.103E-03 0.320E-04
CGA:  16    -0.378634068581E+03   -0.17011E-04   -0.19060E-04 10080   0.699E-04 0.335E-04
CGA:  17    -0.378634077628E+03   -0.90471E-05   -0.10696E-04 10080   0.390E-04 0.136E-04
CGA:  18    -0.378634088979E+03   -0.11351E-04   -0.11227E-04 10080   0.263E-04 0.119E-04
CGA:  19    -0.378634096057E+03   -0.70773E-05   -0.71276E-05 10080   0.414E-04 0.208E-05
  14 F= -.37863410E+03 E0= -.37863122E+03  d E =-.153329E-01  mag=     8.0000
       N       E                     dE             d eps       ncg     rms          ort
SDA:   1    -0.378600299548E+03    0.33789E-01    0.00000E+00 10080   0.103E+00 0.000E+00
CGA:   2    -0.378623396645E+03   -0.23097E-01   -0.23100E-01 10080   0.975E-01-0.136E-02
CGA:   3    -0.378631551206E+03   -0.81546E-02   -0.81357E-02 10080   0.261E-01 0.557E-03
CGA:   4    -0.378636085532E+03   -0.45343E-02   -0.45364E-02 10080   0.880E-02 0.421E-04
CGA:   5    -0.378636987842E+03   -0.90231E-03   -0.88739E-03 10080   0.371E-02-0.151E-03
CGA:   6    -0.378637458859E+03   -0.47102E-03   -0.48180E-03 10080   0.678E-03 0.147E-03
CGA:   7    -0.378637608757E+03   -0.14990E-03   -0.15043E-03 10080   0.500E-03-0.539E-04
CGA:   8    -0.378637670731E+03   -0.61974E-04   -0.55305E-04 10080   0.275E-03-0.789E-04
CGA:   9    -0.378637719220E+03   -0.48489E-04   -0.77735E-04 10080   0.573E-03-0.216E-03
CGA:  10    -0.378637759012E+03   -0.39792E-04   -0.38812E-04 10080   0.149E-03-0.697E-05
CGA:  11    -0.378637784839E+03   -0.25827E-04   -0.25763E-04 10080   0.354E-04-0.257E-05
CGA:  12    -0.378637799391E+03   -0.14552E-04    0.63839E-04 10080   0.251E-04 0.613E-05
CGA:  13    -0.378637524057E+03    0.27533E-03   -0.15026E-03 10080   0.488E-02-0.291E-03
CGA:  14    -0.378637793189E+03   -0.26913E-03   -0.26943E-03 10080   0.320E-03 0.310E-04
CGA:  15    -0.378637838610E+03   -0.45421E-04   -0.49433E-04 10080   0.147E-03 0.210E-04
CGA:  16    -0.378637857422E+03   -0.18812E-04   -0.16850E-04 10080   0.446E-04-0.837E-05
CGA:  17    -0.378637871975E+03   -0.14553E-04   -0.15269E-04 10080   0.509E-04-0.191E-04
CGA:  18    -0.378637874034E+03   -0.20590E-05   -0.18171E-05 10080   0.133E-04-0.869E-06
  15 F= -.37863787E+03 E0= -.37863508E+03  d E =-.377798E-02  mag=     8.0000
       N       E                     dE             d eps       ncg     rms          ort
SDA:   1    -0.378505851584E+03    0.13202E+00    0.00000E+00 10080   0.316E+00 0.000E+00
CGA:   2    -0.378613041807E+03   -0.10719E+00   -0.10716E+00 10080   0.132E+00 0.794E-03
CGA:   3    -0.378628454640E+03   -0.15413E-01   -0.15417E-01 10080   0.708E-01-0.114E-02
CGA:   4    -0.378636578005E+03   -0.81234E-02   -0.81268E-02 10080   0.954E-02 0.563E-03
CGA:   5    -0.378638419803E+03   -0.18418E-02   -0.18227E-02 10080   0.375E-02-0.198E-03
CGA:   6    -0.378638801471E+03   -0.38167E-03   -0.37765E-03 10080   0.193E-02-0.252E-04
CGA:   7    -0.378639034863E+03   -0.23339E-03   -0.23942E-03 10080   0.458E-03 0.435E-04
CGA:   8    -0.378639116800E+03   -0.81936E-04   -0.82235E-04 10080   0.361E-03 0.414E-05
CGA:   9    -0.378639150474E+03   -0.33674E-04   -0.38538E-04 10080   0.102E-03 0.318E-04
CGA:  10    -0.378639185450E+03   -0.34977E-04   -0.34871E-04 10080   0.607E-04 0.176E-05
CGA:  11    -0.378639189922E+03   -0.44719E-05   -0.72146E-05 10080   0.367E-04 0.198E-04
CGA:  12    -0.378639199993E+03   -0.10071E-04   -0.10219E-04 10080   0.136E-04 0.382E-05
CGA:  13    -0.378639098151E+03    0.10184E-03   -0.54940E-04 10080   0.156E-02-0.932E-04
CGA:  14    -0.378639175534E+03   -0.77383E-04   -0.85641E-04 10080   0.134E-03 0.232E-04
CGA:  15    -0.378639190518E+03   -0.14985E-04   -0.23332E-04 10080   0.465E-04 0.323E-04
CGA:  16    -0.378639204910E+03   -0.14392E-04   -0.10307E-04 10080   0.736E-04-0.170E-04
CGA:  17    -0.378639210451E+03   -0.55404E-05   -0.44475E-05 10080   0.371E-04-0.349E-05
  16 F= -.37863921E+03 E0= -.37863644E+03  d E =-.133642E-02  mag=     8.0000
       N       E                     dE             d eps       ncg     rms          ort
SDA:   1    -0.372392443764E+03    0.62468E+01    0.00000E+00 10080   0.154E+02 0.000E+00
CGA:   2    -0.377153292583E+03   -0.47608E+01   -0.47592E+01 10080   0.709E+01-0.438E-02
CGA:   3    -0.377977024393E+03   -0.82373E+00   -0.80079E+00 10080   0.361E+01 0.320E+00
CGA:   4    -0.378418535318E+03   -0.44151E+00   -0.41142E+00 10080   0.766E+00 0.247E+00
CGA:   5    -0.378525771290E+03   -0.10724E+00   -0.10380E+00 10080   0.424E+00 0.181E-01
CGA:   6    -0.378571944351E+03   -0.46173E-01   -0.46677E-01 10080   0.100E+00-0.612E-02
CGA:   7    -0.378590268794E+03   -0.18324E-01   -0.18295E-01 10080   0.510E-01-0.363E-03
CGA:   8    -0.378595614283E+03   -0.53455E-02   -0.53445E-02 10080   0.248E-01 0.605E-03
CGA:   9    -0.378600138226E+03   -0.45239E-02   -0.45157E-02 10080   0.102E-01-0.719E-04
CGA:  10    -0.378601678924E+03   -0.15407E-02   -0.15333E-02 10080   0.938E-02-0.525E-04
CGA:  11    -0.378603127629E+03   -0.14487E-02   -0.14289E-02 10080   0.355E-02-0.135E-03
CGA:  12    -0.378603680641E+03   -0.55301E-03   -0.52496E-03 10080   0.326E-02-0.219E-03
CGA:  13    -0.378604106772E+03   -0.42613E-03   -0.41926E-03 10080   0.729E-03-0.393E-04
CGA:  14    -0.378604302242E+03   -0.19547E-03   -0.19554E-03 10080   0.738E-03-0.786E-04
CGA:  15    -0.378604348720E+03   -0.46478E-04   -0.54609E-04 10080   0.206E-03 0.462E-04
CGA:  16    -0.378604385055E+03   -0.36335E-04   -0.41286E-04 10080   0.192E-03 0.679E-04
CGA:  17    -0.378604413241E+03   -0.28187E-04   -0.31815E-04 10080   0.110E-03 0.270E-04
CGA:  18    -0.378604422264E+03   -0.90230E-05   -0.16022E-04 10080   0.673E-04 0.571E-04
  17 F= -.37860442E+03 E0= -.37860139E+03  d E =0.347882E-01  mag=     8.0000
       N       E                     dE             d eps       ncg     rms          ort
SDA:   1    -0.377297143587E+03    0.13073E+01    0.00000E+00 10080   0.324E+01 0.000E+00
CGA:   2    -0.378270228314E+03   -0.97308E+00   -0.97557E+00 10080   0.242E+01-0.326E-01
CGA:   3    -0.378464755964E+03   -0.19453E+00   -0.19818E+00 10080   0.715E+00-0.182E-01
CGA:   4    -0.378586219800E+03   -0.12146E+00   -0.12164E+00 10080   0.264E+00 0.380E-02
CGA:   5    -0.378610993979E+03   -0.24774E-01   -0.24290E-01 10080   0.902E-01 0.644E-02
CGA:   6    -0.378624790763E+03   -0.13797E-01   -0.13748E-01 10080   0.290E-01-0.801E-03
CGA:   7    -0.378628365813E+03   -0.35750E-02   -0.36041E-02 10080   0.182E-01 0.186E-03
CGA:   8    -0.378631211499E+03   -0.28457E-02   -0.27993E-02 10080   0.601E-02-0.733E-03
CGA:   9    -0.378632672730E+03   -0.14612E-02   -0.15647E-02 10080   0.937E-02-0.173E-02
CGA:  10    -0.378633403295E+03   -0.73057E-03   -0.58492E-03 10080   0.278E-02-0.117E-02
CGA:  11    -0.378633934031E+03   -0.53074E-03   -0.54268E-03 10080   0.461E-02-0.811E-03
CGA:  12    -0.378634260931E+03   -0.32690E-03   -0.26752E-03 10080   0.154E-02-0.485E-03
CGA:  13    -0.378634427719E+03   -0.16679E-03   -0.13378E-03 10080   0.139E-02-0.317E-03
CGA:  14    -0.378634639089E+03   -0.21137E-03   -0.31450E-03 10080   0.322E-02-0.120E-02
CGA:  15    -0.378634857453E+03   -0.21836E-03   -0.22683E-03 10080   0.734E-03 0.729E-04
CGA:  16    -0.378635011929E+03   -0.15448E-03   -0.15663E-03 10080   0.627E-03-0.160E-03
CGA:  17    -0.378635083484E+03   -0.71554E-04   -0.59456E-04 10080   0.373E-03-0.162E-03
CGA:  18    -0.378635195670E+03   -0.11219E-03    0.45711E-03 10080   0.138E-03 0.871E-04
CGA:  19    -0.378635228114E+03   -0.32444E-04   -0.60098E-04 10080   0.824E-03-0.172E-03
CGA:  20    -0.378635297516E+03   -0.69401E-04   -0.60670E-04 10080   0.805E-04-0.677E-04
CGA:  21    -0.378635327917E+03   -0.30401E-04    0.11637E-03 10080   0.988E-04-0.116E-04
CGA:  22    -0.378635362180E+03   -0.34263E-04    0.18152E-03 10080   0.161E-03-0.645E-04
CGA:  23    -0.378635384498E+03   -0.22318E-04   -0.16098E-04 10080   0.114E-03-0.663E-04
CGA:  24    -0.378635414951E+03   -0.30453E-04    0.30564E-04 10080   0.484E-04-0.177E-04
CGA:  25    -0.378635437259E+03   -0.22307E-04    0.87059E-05 10080   0.828E-04-0.179E-04
CGA:  26    -0.378635502835E+03   -0.65576E-04    0.21278E-05 10080   0.726E-04 0.121E-04
CGA:  27    -0.378635564122E+03   -0.61287E-04    0.82758E-05 10080   0.218E-03-0.834E-04
CGA:  28    -0.378635577196E+03   -0.13074E-04   -0.14321E-04 10080   0.128E-04 0.105E-04
CGA:  29    -0.378635583993E+03   -0.67968E-05    0.32232E-05 10080   0.144E-04-0.108E-05
  18 F= -.37863558E+03 E0= -.37863312E+03  d E =-.311617E-01  mag=     8.0000
       N       E                     dE             d eps       ncg     rms          ort
SDA:   1    -0.378477903219E+03    0.15767E+00    0.00000E+00 10080   0.411E+00 0.000E+00
CGA:   2    -0.378605639906E+03   -0.12774E+00   -0.12696E+00 10080   0.250E+00 0.618E-02
CGA:   3    -0.378628817416E+03   -0.23178E-01   -0.23240E-01 10080   0.814E-01 0.303E-02
CGA:   4    -0.378644130067E+03   -0.15313E-01   -0.15316E-01 10080   0.268E-01-0.188E-02
CGA:   5    -0.378646728546E+03   -0.25985E-02   -0.25922E-02 10080   0.111E-01-0.881E-04
CGA:   6    -0.378648213349E+03   -0.14848E-02   -0.14833E-02 10080   0.337E-02-0.212E-04
CGA:   7    -0.378648626777E+03   -0.41343E-03   -0.42020E-03 10080   0.206E-02 0.132E-03
CGA:   8    -0.378648893273E+03   -0.26650E-03   -0.28051E-03 10080   0.499E-03 0.321E-03
CGA:   9    -0.378648966869E+03   -0.73596E-04   -0.82761E-04 10080   0.215E-03 0.311E-03
CGA:  10    -0.378648991630E+03   -0.24761E-04   -0.29416E-04 10080   0.143E-03 0.133E-03
CGA:  11    -0.378648998874E+03   -0.72437E-05   -0.13662E-04 10080   0.116E-03 0.865E-04
CGA:  12    -0.378649003450E+03   -0.45760E-05   -0.10265E-04 10080   0.948E-04 0.732E-04
  19 F= -.37864900E+03 E0= -.37864645E+03  d E =-.134195E-01  mag=     8.0000
       N       E                     dE             d eps       ncg     rms          ort
SDA:   1    -0.378643735344E+03    0.52635E-02    0.00000E+00 10080   0.189E-01 0.000E+00
CGA:   2    -0.378646916154E+03   -0.31808E-02   -0.31786E-02 10080   0.229E-01 0.226E-03
CGA:   3    -0.378649309904E+03   -0.23938E-02   -0.24142E-02 10080   0.379E-02 0.438E-03
CGA:   4    -0.378650019146E+03   -0.70924E-03   -0.70710E-03 10080   0.163E-02 0.819E-04
CGA:   5    -0.378650155863E+03   -0.13672E-03   -0.14454E-03 10080   0.423E-03 0.114E-03
CGA:   6    -0.378650240623E+03   -0.84760E-04   -0.84990E-04 10080   0.122E-03-0.670E-05
CGA:   7    -0.378650245138E+03   -0.45154E-05   -0.94041E-05 10080   0.544E-04 0.636E-04
  20 F= -.37865025E+03 E0= -.37864765E+03  d E =-.124169E-02  mag=     8.0000
       N       E                     dE             d eps       ncg     rms          ort
SDA:   1    -0.378616397621E+03    0.33843E-01    0.00000E+00 10080   0.934E-01 0.000E+00
CGA:   2    -0.378642922857E+03   -0.26525E-01   -0.26674E-01 10080   0.574E-01-0.108E-02
CGA:   3    -0.378648700932E+03   -0.57781E-02   -0.57656E-02 10080   0.237E-01-0.407E-03
CGA:   4    -0.378652029721E+03   -0.33288E-02   -0.33362E-02 10080   0.402E-02 0.697E-03
CGA:   5    -0.378652776350E+03   -0.74663E-03   -0.75004E-03 10080   0.166E-02-0.115E-03
CGA:   6    -0.378652918081E+03   -0.14173E-03   -0.15216E-03 10080   0.444E-03 0.180E-03
CGA:   7    -0.378653004815E+03   -0.86734E-04   -0.85594E-04 10080   0.149E-03 0.487E-04
CGA:   8    -0.378653036774E+03   -0.31959E-04   -0.32846E-04 10080   0.187E-03-0.189E-04
CGA:   9    -0.378653051885E+03   -0.15111E-04   -0.15395E-04 10080   0.560E-04 0.499E-05
CGA:  10    -0.378653056579E+03   -0.46936E-05   -0.56251E-05 10080   0.428E-04 0.176E-04
  21 F= -.37865306E+03 E0= -.37865046E+03  d E =-.281144E-02  mag=     8.0000
       N       E                     dE             d eps       ncg     rms          ort
SDA:   1    -0.378598783884E+03    0.54268E-01    0.00000E+00 10080   0.146E+00 0.000E+00
CGA:   2    -0.378637131088E+03   -0.38347E-01   -0.38339E-01 10080   0.124E+00 0.949E-04
CGA:   3    -0.378647643788E+03   -0.10513E-01   -0.10440E-01 10080   0.380E-01-0.102E-02
CGA:   4    -0.378653431528E+03   -0.57877E-02   -0.57851E-02 10080   0.103E-01 0.610E-03
CGA:   5    -0.378654497317E+03   -0.10658E-02   -0.10756E-02 10080   0.406E-02 0.230E-03
CGA:   6    -0.378655089934E+03   -0.59262E-03   -0.59199E-03 10080   0.104E-02-0.148E-03
CGA:   7    -0.378655221565E+03   -0.13163E-03   -0.13231E-03 10080   0.541E-03 0.482E-04
CGA:   8    -0.378655284437E+03   -0.62872E-04   -0.64921E-04 10080   0.160E-03 0.659E-04
CGA:   9    -0.378655322125E+03   -0.37688E-04   -0.38835E-04 10080   0.184E-03-0.156E-04
CGA:  10    -0.378655331627E+03   -0.95024E-05   -0.12008E-04 10080   0.502E-04 0.333E-04
  22 F= -.37865533E+03 E0= -.37865274E+03  d E =-.227505E-02  mag=     8.0000
       N       E                     dE             d eps       ncg     rms          ort
SDA:   1    -0.378439310461E+03    0.21601E+00    0.00000E+00 10080   0.561E+00 0.000E+00
CGA:   2    -0.378578293635E+03   -0.13898E+00   -0.13878E+00 10080   0.620E+00 0.195E-02
CGA:   3    -0.378628898135E+03   -0.50605E-01   -0.50069E-01 10080   0.123E+00 0.134E-03
CGA:   4    -0.378650017155E+03   -0.21119E-01   -0.21083E-01 10080   0.429E-01 0.132E-02
CGA:   5    -0.378653975744E+03   -0.39586E-02   -0.39582E-02 10080   0.138E-01 0.168E-03
CGA:   6    -0.378656164245E+03   -0.21885E-02   -0.21942E-02 10080   0.326E-02-0.354E-03
CGA:   7    -0.378656628133E+03   -0.46389E-03   -0.46347E-03 10080   0.189E-02 0.163E-03
CGA:   8    -0.378656856082E+03   -0.22795E-03   -0.22890E-03 10080   0.643E-03 0.364E-04
CGA:   9    -0.378656969037E+03   -0.11295E-03   -0.11490E-03 10080   0.627E-03-0.577E-04
CGA:  10    -0.378657020341E+03   -0.51304E-04   -0.54407E-04 10080   0.153E-03 0.651E-04
CGA:  11    -0.378657066713E+03   -0.46373E-04   -0.45015E-04 10080   0.174E-03 0.108E-04
CGA:  12    -0.378657081694E+03   -0.14981E-04   -0.15094E-04 10080   0.629E-04 0.181E-05
CGA:  13    -0.378657088451E+03   -0.67568E-05   -0.76260E-05 10080   0.310E-04 0.359E-04
  23 F= -.37865709E+03 E0= -.37865452E+03  d E =-.175682E-02  mag=     8.0000
       N       E                     dE             d eps       ncg     rms          ort
SDA:   1    -0.378326752083E+03    0.33033E+00    0.00000E+00 10080   0.796E+00 0.000E+00
CGA:   2    -0.378562145953E+03   -0.23539E+00   -0.23573E+00 10080   0.807E+00-0.204E-02
CGA:   3    -0.378620789204E+03   -0.58643E-01   -0.59216E-01 10080   0.168E+00-0.490E-02
CGA:   4    -0.378649430994E+03   -0.28642E-01   -0.28607E-01 10080   0.390E-01 0.153E-02
CGA:   5    -0.378653976959E+03   -0.45460E-02   -0.45074E-02 10080   0.195E-01-0.106E-02
CGA:   6    -0.378656250025E+03   -0.22731E-02   -0.22772E-02 10080   0.420E-02 0.176E-03
CGA:   7    -0.378656960322E+03   -0.71030E-03   -0.70915E-03 10080   0.254E-02 0.570E-04
CGA:   8    -0.378657207763E+03   -0.24744E-03   -0.25087E-03 10080   0.788E-03 0.731E-04
CGA:   9    -0.378657358818E+03   -0.15105E-03   -0.14946E-03 10080   0.534E-03 0.405E-04
CGA:  10    -0.378657415067E+03   -0.56249E-04   -0.58701E-04 10080   0.210E-03 0.592E-04
CGA:  11    -0.378657478311E+03   -0.63244E-04   -0.59071E-04 10080   0.762E-04 0.382E-04
CGA:  12    -0.378657492876E+03   -0.14565E-04   -0.14223E-04 10080   0.518E-04 0.426E-04
CGA:  13    -0.378657501545E+03   -0.86689E-05   -0.97266E-05 10080   0.156E-03-0.281E-04
  24 F= -.37865750E+03 E0= -.37865494E+03  d E =-.413094E-03  mag=     8.0000
       N       E                     dE             d eps       ncg     rms          ort
SDA:   1    -0.378578937761E+03    0.78555E-01    0.00000E+00 10080   0.195E+00 0.000E+00
CGA:   2    -0.378641995293E+03   -0.63058E-01   -0.63120E-01 10080   0.103E+00-0.355E-03
CGA:   3    -0.378651967310E+03   -0.99720E-02   -0.99573E-02 10080   0.478E-01-0.139E-03
CGA:   4    -0.378657984658E+03   -0.60173E-02   -0.60109E-02 10080   0.111E-01-0.246E-03
CGA:   5    -0.378659062342E+03   -0.10777E-02   -0.10941E-02 10080   0.387E-02 0.348E-03
CGA:   6    -0.378659709188E+03   -0.64685E-03   -0.65015E-03 10080   0.109E-02-0.237E-03
CGA:   7    -0.378659868750E+03   -0.15956E-03   -0.15927E-03 10080   0.563E-03 0.519E-04
CGA:   8    -0.378659954442E+03   -0.85692E-04   -0.84673E-04 10080   0.469E-03-0.162E-03
CGA:   9    -0.378659994232E+03   -0.39791E-04   -0.39072E-04 10080   0.162E-03-0.213E-04
CGA:  10    -0.378660018222E+03   -0.23989E-04   -0.23923E-04 10080   0.129E-03 0.105E-04
CGA:  11    -0.378660032747E+03   -0.14525E-04   -0.37952E-04 10080   0.525E-03-0.182E-03
CGA:  12    -0.378660056046E+03   -0.23299E-04   -0.29099E-04 10080   0.617E-04 0.593E-04
CGA:  13    -0.378660068051E+03   -0.12005E-04   -0.12065E-04 10080   0.413E-04-0.234E-05
CGA:  14    -0.378660070346E+03   -0.22948E-05   -0.91623E-05 10080   0.215E-03-0.859E-04
CGA:  15    -0.378660077503E+03   -0.71570E-05   -0.11073E-04 10080   0.205E-04 0.383E-04
  25 F= -.37866008E+03 E0= -.37865755E+03  d E =-.257596E-02  mag=     8.0000
       N       E                     dE             d eps       ncg     rms          ort
SDA:   1    -0.378412415652E+03    0.24765E+00    0.00000E+00 10080   0.601E+00 0.000E+00
CGA:   2    -0.378600509189E+03   -0.18809E+00   -0.18804E+00 10080   0.419E+00 0.353E-03
CGA:   3    -0.378636001680E+03   -0.35492E-01   -0.35241E-01 10080   0.132E+00-0.212E-02
CGA:   4    -0.378655984874E+03   -0.19983E-01   -0.19983E-01 10080   0.364E-01 0.849E-03
CGA:   5    -0.378659288830E+03   -0.33040E-02   -0.33097E-02 10080   0.126E-01 0.152E-03
CGA:   6    -0.378661211005E+03   -0.19222E-02   -0.19230E-02 10080   0.377E-02-0.199E-03
CGA:   7    -0.378661704781E+03   -0.49378E-03   -0.49220E-03 10080   0.217E-02-0.940E-04
CGA:   8    -0.378661988931E+03   -0.28415E-03   -0.28373E-03 10080   0.591E-03-0.283E-04
CGA:   9    -0.378662116375E+03   -0.12744E-03   -0.15333E-03 10080   0.117E-02-0.224E-03
CGA:  10    -0.378662170778E+03   -0.54403E-04   -0.50287E-04 10080   0.381E-03-0.476E-04
CGA:  11    -0.378662197346E+03   -0.26569E-04   -0.26742E-04 10080   0.340E-03 0.287E-05
CGA:  12    -0.378662253899E+03   -0.56553E-04   -0.58465E-04 10080   0.307E-03-0.741E-04
CGA:  13    -0.378662273220E+03   -0.19322E-04   -0.14491E-04 10080   0.125E-03-0.563E-04
CGA:  14    -0.378662289042E+03   -0.15821E-04   -0.20759E-04 10080   0.358E-03-0.796E-04
CGA:  15    -0.378662306850E+03   -0.17809E-04   -0.20143E-04 10080   0.314E-04 0.270E-04
CGA:  16    -0.378662313711E+03   -0.68606E-05   -0.70388E-05 10080   0.511E-04-0.260E-05
  26 F= -.37866231E+03 E0= -.37865981E+03  d E =-.223621E-02  mag=     8.0000
       N       E                     dE             d eps       ncg     rms          ort
SDA:   1    -0.375843115200E+03    0.28192E+01    0.00000E+00 10080   0.680E+01 0.000E+00
CGA:   2    -0.378049054765E+03   -0.22059E+01   -0.22099E+01 10080   0.340E+01-0.234E-01
CGA:   3    -0.378400527623E+03   -0.35147E+00   -0.35878E+00 10080   0.163E+01 0.135E-01
CGA:   4    -0.378604664590E+03   -0.20414E+00   -0.20362E+00 10080   0.265E+00-0.251E-02
CGA:   5    -0.378641488100E+03   -0.36824E-01   -0.36787E-01 10080   0.152E+00-0.145E-02
CGA:   6    -0.378655425019E+03   -0.13937E-01   -0.13843E-01 10080   0.390E-01-0.155E-02
CGA:   7    -0.378662243059E+03   -0.68180E-02   -0.67949E-02 10080   0.148E-01 0.852E-03
CGA:   8    -0.378664161210E+03   -0.19182E-02   -0.19053E-02 10080   0.925E-02-0.526E-03
CGA:   9    -0.378665549383E+03   -0.13882E-02   -0.13872E-02 10080   0.286E-02 0.143E-03
CGA:  10    -0.378666253062E+03   -0.70368E-03   -0.77195E-03 10080   0.510E-02-0.577E-03
CGA:  11    -0.378666607751E+03   -0.35469E-03   -0.35110E-03 10080   0.132E-02-0.429E-04
CGA:  12    -0.378666788326E+03   -0.18057E-03   -0.18193E-03 10080   0.152E-02 0.108E-03
CGA:  13    -0.378666980507E+03   -0.19218E-03   -0.18972E-03 10080   0.505E-03-0.672E-04
CGA:  14    -0.378667048757E+03   -0.68250E-04   -0.67352E-04 10080   0.522E-03-0.966E-04
CGA:  15    -0.378667122024E+03   -0.73267E-04   -0.90424E-04 10080   0.379E-03-0.261E-03
CGA:  16    -0.378667144786E+03   -0.22761E-04   -0.20969E-04 10080   0.277E-03-0.434E-04
CGA:  17    -0.378667158900E+03   -0.14115E-04   -0.20523E-04 10080   0.148E-03 0.974E-04
CGA:  18    -0.378667165580E+03   -0.66798E-05   -0.13806E-04 10080   0.876E-04 0.924E-04
CGA:  19    -0.378667171467E+03   -0.58874E-05   -0.42508E-04 10080   0.905E-03-0.107E-03
CGA:  20    -0.378667204297E+03   -0.32830E-04   -0.42382E-04 10080   0.322E-04 0.883E-04
CGA:  21    -0.378667202970E+03    0.13273E-05   -0.13325E-05 10080   0.184E-04 0.229E-04
  27 F= -.37866720E+03 E0= -.37866472E+03  d E =-.488926E-02  mag=     8.0000
       N       E                     dE             d eps       ncg     rms          ort
SDA:   1    -0.377656192821E+03    0.10110E+01    0.00000E+00 10080   0.257E+01 0.000E+00
CGA:   2    -0.378279803211E+03   -0.62361E+00   -0.62487E+00 10080   0.276E+01-0.995E-02
CGA:   3    -0.378495029985E+03   -0.21523E+00   -0.21847E+00 10080   0.615E+00-0.171E-01
CGA:   4    -0.378600068201E+03   -0.10504E+00   -0.10502E+00 10080   0.228E+00 0.140E-02
CGA:   5    -0.378624800170E+03   -0.24732E-01   -0.24667E-01 10080   0.721E-01-0.281E-02
CGA:   6    -0.378635450853E+03   -0.10651E-01   -0.10652E-01 10080   0.210E-01-0.550E-05
CGA:   7    -0.378638016545E+03   -0.25657E-02   -0.25573E-02 10080   0.141E-01-0.322E-03
CGA:   8    -0.378639839577E+03   -0.18230E-02   -0.18280E-02 10080   0.378E-02 0.458E-03
CGA:   9    -0.378640558280E+03   -0.71870E-03   -0.70429E-03 10080   0.304E-02 0.385E-03
CGA:  10    -0.378640953541E+03   -0.39526E-03   -0.39800E-03 10080   0.129E-02 0.112E-03
CGA:  11    -0.378641200452E+03   -0.24691E-03   -0.24180E-03 10080   0.788E-03 0.137E-03
CGA:  12    -0.378641304654E+03   -0.10420E-03   -0.10766E-03 10080   0.283E-03 0.163E-03
CGA:  13    -0.378641388089E+03   -0.83435E-04   -0.82111E-04 10080   0.264E-03 0.135E-04
CGA:  14    -0.378641407543E+03   -0.19454E-04   -0.23016E-04 10080   0.883E-04 0.546E-04
CGA:  15    -0.378641425870E+03   -0.18327E-04   -0.17485E-04 10080   0.641E-04 0.452E-04
CGA:  16    -0.378641434429E+03   -0.85584E-05   -0.84028E-05 10080   0.812E-04-0.102E-04
  28 F= -.37864143E+03 E0= -.37863882E+03  d E =0.257685E-01  mag=     8.0000
       N       E                     dE             d eps       ncg     rms          ort
SDA:   1    -0.378606500772E+03    0.34925E-01    0.00000E+00 10080   0.159E+00 0.000E+00
CGA:   2    -0.378629608158E+03   -0.23107E-01   -0.23107E-01 10080   0.186E+00-0.102E-02
CGA:   3    -0.378652290062E+03   -0.22682E-01   -0.22619E-01 10080   0.294E-01-0.159E-02
CGA:   4    -0.378656860839E+03   -0.45708E-02   -0.45669E-02 10080   0.187E-01 0.305E-03
CGA:   5    -0.378658868086E+03   -0.20072E-02   -0.20115E-02 10080   0.333E-02 0.154E-03
CGA:   6    -0.378659422079E+03   -0.55399E-03   -0.55553E-03 10080   0.190E-02-0.618E-04
CGA:   7    -0.378659581700E+03   -0.15962E-03   -0.16877E-03 10080   0.465E-03 0.181E-03
CGA:   8    -0.378659718069E+03   -0.13637E-03   -0.18103E-03 10080   0.525E-03-0.207E-03
CGA:   9    -0.378659752880E+03   -0.34811E-04   -0.30680E-04 10080   0.372E-03-0.909E-04
CGA:  10    -0.378659806581E+03   -0.53702E-04   -0.59354E-04 10080   0.179E-03-0.126E-03
CGA:  11    -0.378659827295E+03   -0.20714E-04   -0.22875E-04 10080   0.230E-03-0.501E-04
CGA:  12    -0.378659843462E+03   -0.16166E-04   -0.15472E-04 10080   0.653E-04-0.116E-04
CGA:  13    -0.378659848309E+03   -0.48471E-05   -0.57849E-05 10080   0.494E-04 0.166E-04
  29 F= -.37865985E+03 E0= -.37865722E+03  d E =-.184139E-01  mag=     8.0000
       N       E                     dE             d eps       ncg     rms          ort
SDA:   1    -0.378655005464E+03    0.48380E-02    0.00000E+00 10080   0.294E-01 0.000E+00
CGA:   2    -0.378659502249E+03   -0.44968E-02   -0.45009E-02 10080   0.335E-01-0.457E-03
CGA:   3    -0.378663467087E+03   -0.39648E-02   -0.39502E-02 10080   0.717E-02-0.513E-03
CGA:   4    -0.378664309006E+03   -0.84192E-03   -0.83219E-03 10080   0.410E-02-0.371E-03
CGA:   5    -0.378664784599E+03   -0.47559E-03   -0.48199E-03 10080   0.494E-03 0.347E-03
CGA:   6    -0.378664875621E+03   -0.91022E-04   -0.89042E-04 10080   0.227E-03 0.805E-04
CGA:   7    -0.378664912592E+03   -0.36970E-04   -0.36820E-04 10080   0.164E-03-0.411E-04
CGA:   8    -0.378664930103E+03   -0.17511E-04   -0.17652E-04 10080   0.586E-04 0.123E-04
CGA:   9    -0.378664939841E+03   -0.97382E-05   -0.10024E-04 10080   0.781E-04-0.167E-04
CGA:  10    -0.378664656238E+03    0.28360E-03   -0.15358E-03 10080   0.196E-02-0.429E-03
CGA:  11    -0.378664838590E+03   -0.18235E-03   -0.18823E-03 10080   0.833E-03 0.390E-04
CGA:  12    -0.378664925163E+03   -0.86573E-04   -0.98843E-04 10080   0.165E-03 0.904E-04
CGA:  13    -0.378664945772E+03   -0.20609E-04   -0.20970E-04 10080   0.110E-03 0.285E-05
CGA:  14    -0.378664953292E+03   -0.75203E-05   -0.13212E-04 10080   0.378E-04 0.471E-04
  30 F= -.37866495E+03 E0= -.37866234E+03  d E =-.510498E-02  mag=     8.0000
       N       E                     dE             d eps       ncg     rms          ort
SDA:   1    -0.378581532295E+03    0.83413E-01    0.00000E+00 10080   0.233E+00 0.000E+00
CGA:   2    -0.378635952724E+03   -0.54420E-01   -0.54433E-01 10080   0.273E+00-0.162E-02
CGA:   3    -0.378658214559E+03   -0.22262E-01   -0.21833E-01 10080   0.505E-01 0.266E-02
CGA:   4    -0.378667134061E+03   -0.89195E-02   -0.89072E-02 10080   0.286E-01-0.288E-03
CGA:   5    -0.378669689054E+03   -0.25550E-02   -0.26239E-02 10080   0.599E-02 0.690E-03
CGA:   6    -0.378670769234E+03   -0.10802E-02   -0.10785E-02 10080   0.226E-02-0.497E-04
CGA:   7    -0.378671021283E+03   -0.25205E-03   -0.25067E-03 10080   0.116E-02-0.774E-05
CGA:   8    -0.378671239207E+03   -0.21792E-03   -0.21709E-03 10080   0.362E-03-0.524E-04
CGA:   9    -0.378671338966E+03   -0.99759E-04   -0.15012E-03 10080   0.621E-03-0.218E-03
CGA:  10    -0.378671393631E+03   -0.54665E-04   -0.55336E-04 10080   0.209E-03 0.548E-05
CGA:  11    -0.378671420309E+03   -0.26678E-04   -0.27718E-04 10080   0.428E-04 0.137E-04
CGA:  12    -0.378671431510E+03   -0.11201E-04   -0.11500E-04 10080   0.736E-04-0.621E-05
CGA:  13    -0.378671437517E+03   -0.60072E-05   -0.60413E-05 10080   0.212E-04 0.367E-06
  31 F= -.37867144E+03 E0= -.37866883E+03  d E =-.648422E-02  mag=     8.0000
       N       E                     dE             d eps       ncg     rms          ort
SDA:   1    -0.378668841529E+03    0.25900E-02    0.00000E+00 10080   0.109E-01 0.000E+00
CGA:   2    -0.378670210842E+03   -0.13693E-02   -0.13674E-02 10080   0.916E-02-0.129E-04
CGA:   3    -0.378671583518E+03   -0.13727E-02   -0.13635E-02 10080   0.290E-02-0.202E-03
CGA:   4    -0.378671879194E+03   -0.29568E-03   -0.28065E-03 10080   0.143E-02-0.168E-03
CGA:   5    -0.378672037275E+03   -0.15808E-03   -0.16683E-03 10080   0.181E-03 0.143E-03
CGA:   6    -0.378672064566E+03   -0.27291E-04   -0.28095E-04 10080   0.113E-03 0.196E-04
CGA:   7    -0.378672078711E+03   -0.14144E-04   -0.14291E-04 10080   0.276E-04 0.236E-05
CGA:   8    -0.378672085322E+03   -0.66112E-05   -0.10527E-04 10080   0.791E-04-0.199E-04
  32 F= -.37867209E+03 E0= -.37866950E+03  d E =-.647805E-03  mag=     8.0000
       N       E                     dE             d eps       ncg     rms          ort
SDA:   1    -0.378660239128E+03    0.11840E-01    0.00000E+00 10080   0.364E-01 0.000E+00
CGA:   2    -0.378666968026E+03   -0.67289E-02   -0.67300E-02 10080   0.489E-01-0.317E-03
CGA:   3    -0.378671482773E+03   -0.45147E-02   -0.45198E-02 10080   0.768E-02 0.288E-03
CGA:   4    -0.378672960117E+03   -0.14773E-02   -0.14794E-02 10080   0.304E-02-0.140E-03
CGA:   5    -0.378673202353E+03   -0.24224E-03   -0.25748E-03 10080   0.800E-03 0.176E-03
CGA:   6    -0.378673342454E+03   -0.14010E-03   -0.13998E-03 10080   0.271E-03-0.156E-04
CGA:   7    -0.378673386204E+03   -0.43750E-04   -0.42867E-04 10080   0.278E-03-0.790E-04
CGA:   8    -0.378673405395E+03   -0.19191E-04   -0.19363E-04 10080   0.875E-04 0.257E-05
CGA:   9    -0.378673413009E+03   -0.76143E-05   -0.79356E-05 10080   0.569E-04 0.421E-05
CGA:  10    -0.378673424417E+03   -0.11408E-04   -0.16069E-04 10080   0.981E-04-0.444E-04
CGA:  11    -0.378673431614E+03   -0.71965E-05   -0.74051E-05 10080   0.322E-04 0.234E-05
CGA:  12    -0.378673407691E+03    0.23923E-04   -0.18741E-04 10080   0.454E-03-0.106E-03
CGA:  13    -0.378673428988E+03   -0.21296E-04   -0.27882E-04 10080   0.984E-04 0.542E-04
CGA:  14    -0.378673442248E+03   -0.13260E-04   -0.14062E-04 10080   0.105E-04 0.156E-04
CGA:  15    -0.378673446938E+03   -0.46900E-05    0.11808E-04 10080   0.368E-04-0.140E-04
  33 F= -.37867345E+03 E0= -.37867087E+03  d E =-.136162E-02  mag=     8.0000
       N       E                     dE             d eps       ncg     rms          ort
SDA:   1    -0.378673130386E+03    0.31186E-03    0.00000E+00 10080   0.258E-02 0.000E+00
CGA:   2    -0.378673340390E+03   -0.21000E-03   -0.19960E-03 10080   0.121E-02-0.119E-03
CGA:   3    -0.378673547533E+03   -0.20714E-03   -0.20541E-03 10080   0.406E-03 0.141E-03
CGA:   4    -0.378673588676E+03   -0.41143E-04   -0.43817E-04 10080   0.137E-03 0.396E-04
CGA:   5    -0.378673621924E+03   -0.33248E-04   -0.43381E-04 10080   0.134E-03-0.801E-04
CGA:   6    -0.378673625958E+03   -0.40344E-05   -0.76086E-05 10080   0.239E-04 0.322E-04
  34 F= -.37867363E+03 E0= -.37867105E+03  d E =-.179020E-03  mag=     8.0000
       N       E                     dE             d eps       ncg     rms          ort
SDA:   1    -0.378670617479E+03    0.30044E-02    0.00000E+00 10080   0.915E-02 0.000E+00
CGA:   2    -0.378672687872E+03   -0.20704E-02   -0.20501E-02 10080   0.918E-02 0.316E-03
CGA:   3    -0.378673746620E+03   -0.10587E-02   -0.10464E-02 10080   0.174E-02-0.230E-03
CGA:   4    -0.378674014475E+03   -0.26786E-03   -0.26794E-03 10080   0.809E-03 0.662E-04
CGA:   5    -0.378674086764E+03   -0.72290E-04   -0.70043E-04 10080   0.195E-03-0.295E-04
CGA:   6    -0.378674111098E+03   -0.24333E-04   -0.24693E-04 10080   0.701E-04 0.154E-04
CGA:   7    -0.378674123921E+03   -0.12824E-04   -0.13771E-04 10080   0.980E-04-0.336E-04
CGA:   8    -0.378674127378E+03   -0.34571E-05   -0.36242E-05 10080   0.400E-04 0.204E-05
  35 F= -.37867413E+03 E0= -.37867156E+03  d E =-.501420E-03  mag=     8.0000
       N       E                     dE             d eps       ncg     rms          ort
SDA:   1    -0.378657410905E+03    0.16713E-01    0.00000E+00 10080   0.451E-01 0.000E+00
CGA:   2    -0.378670126823E+03   -0.12716E-01   -0.12657E-01 10080   0.289E-01 0.435E-03
CGA:   3    -0.378673144488E+03   -0.30177E-02   -0.29885E-02 10080   0.116E-01-0.625E-03
CGA:   4    -0.378674731577E+03   -0.15871E-02   -0.15893E-02 10080   0.218E-02 0.231E-03
CGA:   5    -0.378675007641E+03   -0.27606E-03   -0.27643E-03 10080   0.101E-02 0.166E-04
CGA:   6    -0.378675126146E+03   -0.11851E-03   -0.11919E-03 10080   0.259E-03 0.230E-04
CGA:   7    -0.378675174106E+03   -0.47960E-04   -0.52969E-04 10080   0.400E-03-0.935E-04
CGA:   8    -0.378675190196E+03   -0.16090E-04   -0.16338E-04 10080   0.124E-03 0.325E-05
CGA:   9    -0.378675195422E+03   -0.52256E-05   -0.65961E-05 10080   0.716E-04 0.150E-04
CGA:  10    -0.378675207001E+03   -0.11578E-04   -0.11603E-04 10080   0.910E-04-0.596E-05
CGA:  11    -0.378675215700E+03   -0.86997E-05   -0.62105E-05 10080   0.426E-04-0.374E-04
CGA:  12    -0.378675223506E+03   -0.78056E-05    0.13217E-04 10080   0.541E-04 0.156E-06
  36 F= -.37867522E+03 E0= -.37867266E+03  d E =-.109613E-02  mag=     8.0000
       N       E                     dE             d eps       ncg     rms          ort
SDA:   1    -0.378534901369E+03    0.14031E+00    0.00000E+00 10080   0.345E+00 0.000E+00
CGA:   2    -0.378646053436E+03   -0.11115E+00   -0.11087E+00 10080   0.168E+00 0.145E-02
CGA:   3    -0.378663702180E+03   -0.17649E-01   -0.17654E-01 10080   0.871E-01-0.293E-03
CGA:   4    -0.378674523653E+03   -0.10821E-01   -0.10816E-01 10080   0.144E-01-0.283E-03
CGA:   5    -0.378676130663E+03   -0.16070E-02   -0.16191E-02 10080   0.801E-02 0.443E-03
CGA:   6    -0.378677085791E+03   -0.95513E-03   -0.94603E-03 10080   0.211E-02-0.344E-03
CGA:   7    -0.378677396544E+03   -0.31075E-03   -0.31045E-03 10080   0.101E-02 0.224E-04
CGA:   8    -0.378677536019E+03   -0.13947E-03   -0.13881E-03 10080   0.607E-03-0.155E-03
CGA:   9    -0.378677606161E+03   -0.70142E-04   -0.70141E-04 10080   0.253E-03 0.499E-06
CGA:  10    -0.378677651555E+03   -0.45394E-04   -0.59534E-04 10080   0.631E-03-0.148E-03
CGA:  11    -0.378677679526E+03   -0.27971E-04   -0.32688E-04 10080   0.693E-04 0.533E-04
CGA:  12    -0.378677696918E+03   -0.17392E-04   -0.18257E-04 10080   0.116E-03-0.832E-05
CGA:  13    -0.378677711799E+03   -0.14881E-04   -0.15153E-04 10080   0.112E-03-0.683E-04
CGA:  14    -0.378677718738E+03   -0.69399E-05   -0.83457E-05 10080   0.417E-04 0.201E-04
CGA:  15    -0.378677728124E+03   -0.93851E-05   -0.10330E-04 10080   0.196E-04-0.137E-04
CGA:  16    -0.378677688245E+03    0.39878E-04   -0.21483E-04 10080   0.919E-03-0.662E-04
CGA:  17    -0.378677745338E+03   -0.57092E-04   -0.52537E-04 10080   0.469E-04-0.183E-04
CGA:  18    -0.378677746546E+03   -0.12085E-05   -0.40022E-05 10080   0.190E-04 0.168E-04
  37 F= -.37867775E+03 E0= -.37867519E+03  d E =-.252304E-02  mag=     8.0000
       N       E                     dE             d eps       ncg     rms          ort
SDA:   1    -0.378188630789E+03    0.48911E+00    0.00000E+00 10080   0.117E+01 0.000E+00
CGA:   2    -0.378585865392E+03   -0.39723E+00   -0.39716E+00 10080   0.453E+00 0.545E-03
CGA:   3    -0.378643252414E+03   -0.57387E-01   -0.57237E-01 10080   0.286E+00-0.377E-03
CGA:   4    -0.378671663459E+03   -0.28411E-01   -0.28532E-01 10080   0.426E-01 0.844E-03
CGA:   5    -0.378677467596E+03   -0.58041E-02   -0.57688E-02 10080   0.264E-01-0.537E-03
CGA:   6    -0.378679933905E+03   -0.24663E-02   -0.24591E-02 10080   0.611E-02 0.170E-03
CGA:   7    -0.378681042691E+03   -0.11088E-02   -0.11119E-02 10080   0.231E-02 0.803E-04
CGA:   8    -0.378681377975E+03   -0.33528E-03   -0.32357E-03 10080   0.154E-02-0.142E-03
CGA:   9    -0.378681616218E+03   -0.23824E-03   -0.23637E-03 10080   0.518E-03-0.354E-04
CGA:  10    -0.378681730193E+03   -0.11397E-03   -0.11457E-03 10080   0.780E-03-0.394E-04
CGA:  11    -0.378681820278E+03   -0.90085E-04   -0.82241E-04 10080   0.250E-03-0.802E-04
CGA:  12    -0.378681854824E+03   -0.34546E-04   -0.36480E-04 10080   0.181E-03 0.432E-04
CGA:  13    -0.378681888573E+03   -0.33749E-04   -0.32340E-04 10080   0.125E-03-0.264E-04
CGA:  14    -0.378681900560E+03   -0.11988E-04   -0.12826E-04 10080   0.401E-04 0.101E-04
CGA:  15    -0.378681914950E+03   -0.14390E-04   -0.24372E-04 10080   0.714E-04-0.277E-04
CGA:  16    -0.378681919304E+03   -0.43538E-05   -0.70183E-05 10080   0.308E-04 0.225E-04
  38 F= -.37868192E+03 E0= -.37867932E+03  d E =-.417276E-02  mag=     8.0000
       N       E                     dE             d eps       ncg     rms          ort
SDA:   1    -0.378456075536E+03    0.22584E+00    0.00000E+00 10080   0.560E+00 0.000E+00
CGA:   2    -0.378632410965E+03   -0.17634E+00   -0.17638E+00 10080   0.221E+00-0.612E-03
CGA:   3    -0.378671588603E+03   -0.39178E-01   -0.39171E-01 10080   0.866E-01-0.220E-03
CGA:   4    -0.378678761572E+03   -0.71730E-02   -0.72241E-02 10080   0.303E-01 0.517E-03
CGA:   5    -0.378682639589E+03   -0.38780E-02   -0.38556E-02 10080   0.701E-02-0.318E-03
CGA:   6    -0.378683675066E+03   -0.10355E-02   -0.10423E-02 10080   0.340E-02 0.153E-03
CGA:   7    -0.378684079078E+03   -0.40401E-03   -0.39233E-03 10080   0.131E-02-0.146E-03
CGA:   8    -0.378684259944E+03   -0.18087E-03   -0.18211E-03 10080   0.721E-03 0.287E-04
CGA:   9    -0.378684349797E+03   -0.89853E-04   -0.87499E-04 10080   0.363E-03-0.323E-04
CGA:  10    -0.378684412661E+03   -0.62865E-04   -0.62860E-04 10080   0.225E-03-0.430E-06
CGA:  11    -0.378684453476E+03   -0.40814E-04   -0.40490E-04 10080   0.293E-03-0.582E-04
CGA:  12    -0.378684469864E+03   -0.16388E-04   -0.19777E-04 10080   0.840E-04 0.361E-04
CGA:  13    -0.378684475236E+03   -0.53721E-05   -0.78610E-05 10080   0.686E-04 0.256E-04
CGA:  14    -0.378684488970E+03   -0.13734E-04   -0.13898E-04 10080   0.336E-04 0.786E-05
CGA:  15    -0.378684492068E+03   -0.30977E-05   -0.33602E-05 10080   0.201E-04 0.310E-05
  39 F= -.37868449E+03 E0= -.37868185E+03  d E =-.257276E-02  mag=     8.0000
       N       E                     dE             d eps       ncg     rms          ort
SDA:   1    -0.378634334224E+03    0.50155E-01    0.00000E+00 10080   0.122E+00 0.000E+00
CGA:   2    -0.378673246361E+03   -0.38912E-01   -0.38815E-01 10080   0.747E-01 0.637E-03
CGA:   3    -0.378679451308E+03   -0.62049E-02   -0.62346E-02 10080   0.317E-01 0.809E-03
CGA:   4    -0.378683871556E+03   -0.44202E-02   -0.44069E-02 10080   0.531E-02-0.426E-03
CGA:   5    -0.378684754005E+03   -0.88245E-03   -0.88239E-03 10080   0.207E-02 0.119E-03
CGA:   6    -0.378684977483E+03   -0.22348E-03   -0.21282E-03 10080   0.110E-02-0.155E-03
CGA:   7    -0.378685105150E+03   -0.12767E-03   -0.12971E-03 10080   0.234E-03 0.565E-04
CGA:   8    -0.378685148878E+03   -0.43728E-04   -0.43307E-04 10080   0.148E-03 0.313E-04
CGA:   9    -0.378685167972E+03   -0.19094E-04   -0.19637E-04 10080   0.678E-04 0.120E-04
CGA:  10    -0.378685179027E+03   -0.11056E-04   -0.11216E-04 10080   0.354E-04 0.202E-04
CGA:  11    -0.378685181820E+03   -0.27924E-05   -0.42748E-05 10080   0.160E-04 0.219E-04
  40 F= -.37868518E+03 E0= -.37868255E+03  d E =-.689752E-03  mag=     8.0000
       N       E                     dE             d eps       ncg     rms          ort
SDA:   1    -0.378517713279E+03    0.16747E+00    0.00000E+00 10080   0.401E+00 0.000E+00
CGA:   2    -0.378643633370E+03   -0.12592E+00   -0.12617E+00 10080   0.375E+00-0.153E-02
CGA:   3    -0.378669570810E+03   -0.25937E-01   -0.25831E-01 10080   0.790E-01 0.451E-02
CGA:   4    -0.378683054051E+03   -0.13483E-01   -0.13483E-01 10080   0.242E-01 0.214E-04
CGA:   5    -0.378685436788E+03   -0.23827E-02   -0.23534E-02 10080   0.754E-02-0.400E-03
CGA:   6    -0.378686645484E+03   -0.12087E-02   -0.12085E-02 10080   0.196E-02 0.477E-04
CGA:   7    -0.378686934458E+03   -0.28897E-03   -0.28873E-03 10080   0.134E-02-0.190E-04
CGA:   8    -0.378687083400E+03   -0.14894E-03   -0.14692E-03 10080   0.361E-03-0.427E-04
CGA:   9    -0.378687147725E+03   -0.64325E-04   -0.64075E-04 10080   0.297E-03 0.915E-05
CGA:  10    -0.378687193425E+03   -0.45701E-04   -0.44154E-04 10080   0.327E-03-0.134E-03
CGA:  11    -0.378687215434E+03   -0.22008E-04   -0.21410E-04 10080   0.124E-03-0.161E-04
CGA:  12    -0.378687223330E+03   -0.78959E-05   -0.99697E-05 10080   0.919E-04 0.300E-04
CGA:  13    -0.378687240820E+03   -0.17491E-04   -0.17508E-04 10080   0.404E-04-0.593E-05
CGA:  14    -0.378687046348E+03    0.19447E-03   -0.10527E-03 10080   0.286E-02-0.277E-03
CGA:  15    -0.378687204874E+03   -0.15853E-03   -0.17949E-03 10080   0.168E-03 0.109E-03
CGA:  16    -0.378687247824E+03   -0.42950E-04   -0.43190E-04 10080   0.110E-03 0.140E-04
CGA:  17    -0.378687259968E+03   -0.12144E-04   -0.10678E-04 10080   0.179E-04-0.812E-05
CGA:  18    -0.378687265111E+03   -0.51433E-05   -0.79911E-05 10080   0.620E-04-0.125E-04
  41 F= -.37868727E+03 E0= -.37868461E+03  d E =-.208329E-02  mag=     8.0000
       N       E                     dE             d eps       ncg     rms          ort
SDA:   1    -0.376761046061E+03    0.19262E+01    0.00000E+00 10080   0.493E+01 0.000E+00
CGA:   2    -0.377881576647E+03   -0.11205E+01   -0.11207E+01 10080   0.546E+01 0.641E-02
CGA:   3    -0.378399830578E+03   -0.51825E+00   -0.45660E+00 10080   0.848E+00 0.713E+00
CGA:   4    -0.378564784761E+03   -0.16495E+00   -0.16450E+00 10080   0.594E+00 0.983E-03
CGA:   5    -0.378615288517E+03   -0.50504E-01   -0.50785E-01 10080   0.127E+00-0.848E-03
CGA:   6    -0.378633813527E+03   -0.18525E-01   -0.18491E-01 10080   0.776E-01-0.148E-04
CGA:   7    -0.378640877998E+03   -0.70645E-02   -0.69562E-02 10080   0.177E-01-0.873E-03
CGA:   8    -0.378644505166E+03   -0.36272E-02   -0.36308E-02 10080   0.909E-02 0.234E-03
CGA:   9    -0.378645366103E+03   -0.86094E-03   -0.89217E-03 10080   0.529E-02 0.310E-03
CGA:  10    -0.378646500451E+03   -0.11343E-02   -0.11332E-02 10080   0.188E-02-0.134E-03
CGA:  11    -0.378646950004E+03   -0.44955E-03   -0.45100E-03 10080   0.220E-02-0.463E-04
CGA:  12    -0.378647145519E+03   -0.19552E-03   -0.20004E-03 10080   0.634E-03 0.366E-04
CGA:  13    -0.378647272795E+03   -0.12728E-03   -0.12819E-03 10080   0.553E-03 0.801E-04
CGA:  14    -0.378647351390E+03   -0.78596E-04   -0.76642E-04 10080   0.220E-03-0.234E-04
CGA:  15    -0.378647393821E+03   -0.42431E-04   -0.42605E-04 10080   0.120E-03 0.503E-04
CGA:  16    -0.378647422198E+03   -0.28377E-04   -0.28415E-04 10080   0.182E-03 0.291E-05
CGA:  17    -0.378647433555E+03   -0.11356E-04   -0.18078E-04 10080   0.667E-04 0.622E-04
CGA:  18    -0.378647434327E+03   -0.77224E-06   -0.64704E-05 10080   0.546E-04 0.450E-04
  42 F= -.37864743E+03 E0= -.37864458E+03  d E =0.398308E-01  mag=     8.0000
       N       E                     dE             d eps       ncg     rms          ort
SDA:   1    -0.378306135831E+03    0.34130E+00    0.00000E+00 10080   0.103E+01 0.000E+00
CGA:   2    -0.378510106392E+03   -0.20397E+00   -0.20391E+00 10080   0.109E+01 0.339E-02
CGA:   3    -0.378620055669E+03   -0.10995E+00   -0.10603E+00 10080   0.241E+00 0.252E-01
CGA:   4    -0.378657262451E+03   -0.37207E-01   -0.37215E-01 10080   0.140E+00-0.420E-04
CGA:   5    -0.378670294582E+03   -0.13032E-01   -0.13013E-01 10080   0.311E-01 0.137E-03
CGA:   6    -0.378675321597E+03   -0.50270E-02   -0.50179E-02 10080   0.181E-01-0.475E-03
CGA:   7    -0.378676797057E+03   -0.14755E-02   -0.15194E-02 10080   0.445E-02 0.510E-03
CGA:   8    -0.378677925574E+03   -0.11285E-02   -0.11580E-02 10080   0.217E-02-0.371E-03
CGA:   9    -0.378678236871E+03   -0.31130E-03   -0.30978E-03 10080   0.216E-02-0.661E-04
CGA:  10    -0.378678516690E+03   -0.27982E-03   -0.26730E-03 10080   0.768E-03-0.259E-03
CGA:  11    -0.378678645196E+03   -0.12851E-03   -0.13078E-03 10080   0.864E-03-0.117E-03
CGA:  12    -0.378678748619E+03   -0.10342E-03   -0.94142E-04 10080   0.330E-03-0.199E-03
CGA:  13    -0.378678786540E+03   -0.37921E-04   -0.37170E-04 10080   0.263E-03-0.284E-04
CGA:  14    -0.378678695881E+03    0.90659E-04   -0.12364E-03 10080   0.313E-02-0.622E-03
CGA:  15    -0.378678838080E+03   -0.14220E-03   -0.16943E-03 10080   0.324E-03 0.212E-03
CGA:  16    -0.378678885082E+03   -0.47002E-04   -0.49443E-04 10080   0.200E-03 0.628E-04
CGA:  17    -0.378678919148E+03   -0.34066E-04   -0.31920E-04 10080   0.104E-03-0.458E-04
CGA:  18    -0.378678926016E+03   -0.68681E-05   -0.81032E-05 10080   0.511E-04 0.162E-04
CGA:  19    -0.378678936312E+03   -0.10296E-04   -0.10307E-04 10080   0.765E-04-0.135E-04
CGA:  20    -0.378678937811E+03   -0.14986E-05   -0.17337E-04 10080   0.214E-03-0.118E-03
CGA:  21    -0.378678947830E+03   -0.10020E-04   -0.15500E-04 10080   0.636E-04 0.511E-04
CGA:  22    -0.378678955671E+03   -0.78402E-05   -0.92118E-05 10080   0.172E-04 0.235E-04
  43 F= -.37867896E+03 E0= -.37867622E+03  d E =-.315213E-01  mag=     8.0000
[...]
CGA:   5    -0.378745774461E+03   -0.14061E-02   -0.14115E-02 10080   0.504E-02 0.169E-03
CGA:   6    -0.378746364354E+03   -0.58989E-03   -0.59053E-03 10080   0.119E-02 0.189E-04
CGA:   7    -0.378746586633E+03   -0.22228E-03   -0.22464E-03 10080   0.578E-03-0.706E-04
CGA:   8    -0.378746671540E+03   -0.84907E-04   -0.84625E-04 10080   0.536E-03-0.200E-03
CGA:   9    -0.378746726864E+03   -0.55323E-04   -0.85924E-04 10080   0.493E-03-0.345E-03
CGA:  10    -0.378746778737E+03   -0.51873E-04   -0.49151E-04 10080   0.281E-03-0.436E-04
CGA:  11    -0.378746824250E+03   -0.45513E-04   -0.46902E-04 10080   0.695E-04-0.554E-04
CGA:  12    -0.378746846009E+03   -0.21760E-04    0.19949E-04 10080   0.364E-04 0.590E-05
CGA:  13    -0.378746864139E+03   -0.18129E-04    0.71826E-05 10080   0.273E-04-0.932E-05
CGA:  14    -0.378746884106E+03   -0.19967E-04    0.77667E-06 10080   0.172E-04-0.359E-05
CGA:  15    -0.378746903638E+03   -0.19533E-04    0.38639E-06 10080   0.864E-05 0.653E-05
CGA:  16    -0.378746920713E+03   -0.17075E-04    0.27190E-06 10080   0.523E-05 0.534E-05
CGA:  17    -0.378746926741E+03   -0.60277E-05    0.15936E-06 10080   0.604E-05 0.969E-06
  93 F= -.37874693E+03 E0= -.37874490E+03  d E =-.143786E-02  mag=     8.0000
       N       E                     dE             d eps       ncg     rms          ort
SDA:   1    -0.378721736026E+03    0.25185E-01    0.00000E+00 10080   0.604E-01 0.000E+00
CGA:   2    -0.378742040169E+03   -0.20304E-01   -0.20383E-01 10080   0.254E-01-0.451E-03
CGA:   3    -0.378745746491E+03   -0.37063E-02   -0.37045E-02 10080   0.112E-01-0.700E-04
CGA:   4    -0.378746819082E+03   -0.10726E-02   -0.10703E-02 10080   0.251E-02-0.183E-04
CGA:   5    -0.378747169431E+03   -0.35035E-03   -0.35214E-03 10080   0.875E-03 0.791E-04
CGA:   6    -0.378747287984E+03   -0.11855E-03   -0.11627E-03 10080   0.402E-03-0.664E-04
CGA:   7    -0.378747349858E+03   -0.61874E-04   -0.62346E-04 10080   0.143E-03-0.657E-04
CGA:   8    -0.378747350922E+03   -0.10644E-05   -0.46535E-04 10080   0.858E-03-0.199E-03
CGA:   9    -0.378747399517E+03   -0.48594E-04   -0.50072E-04 10080   0.602E-04 0.138E-04
CGA:  10    -0.378747407182E+03   -0.76659E-05   -0.27759E-04 10080   0.206E-03-0.701E-04
CGA:  11    -0.378747428330E+03   -0.21148E-04   -0.18994E-04 10080   0.582E-04-0.239E-04
CGA:  12    -0.378747431068E+03   -0.27377E-05   -0.17173E-04 10080   0.241E-03-0.918E-04
CGA:  13    -0.378747445879E+03   -0.14811E-04   -0.15623E-04 10080   0.315E-04 0.720E-05
CGA:  14    -0.378747450345E+03   -0.44662E-05   -0.11787E-04 10080   0.638E-04-0.395E-04
  94 F= -.37874745E+03 E0= -.37874546E+03  d E =-.523604E-03  mag=     8.0000
       N       E                     dE             d eps       ncg     rms          ort
SDA:   1    -0.378630055489E+03    0.11739E+00    0.00000E+00 10080   0.297E+00 0.000E+00
CGA:   2    -0.378696474591E+03   -0.66419E-01   -0.66350E-01 10080   0.403E+00 0.150E-02
CGA:   3    -0.378736685602E+03   -0.40211E-01   -0.39758E-01 10080   0.463E-01 0.158E-02
CGA:   4    -0.378745047090E+03   -0.83615E-02   -0.83620E-02 10080   0.176E-01 0.139E-03
CGA:   5    -0.378746740327E+03   -0.16932E-02   -0.16874E-02 10080   0.446E-02 0.741E-05
CGA:   6    -0.378747552873E+03   -0.81255E-03   -0.81275E-03 10080   0.140E-02-0.652E-04
CGA:   7    -0.378747753111E+03   -0.20024E-03   -0.19588E-03 10080   0.878E-03-0.117E-03
CGA:   8    -0.378747861709E+03   -0.10860E-03   -0.10623E-03 10080   0.230E-03-0.511E-04
CGA:   9    -0.378747905113E+03   -0.43404E-04   -0.84141E-04 10080   0.798E-03-0.191E-03
CGA:  10    -0.378747957109E+03   -0.51996E-04   -0.50679E-04 10080   0.993E-04-0.103E-04
CGA:  11    -0.378747621326E+03    0.33578E-03   -0.18091E-03 10080   0.316E-02-0.450E-03
CGA:  12    -0.378747908946E+03   -0.28762E-03   -0.29593E-03 10080   0.114E-02 0.394E-04
CGA:  13    -0.378748040587E+03   -0.13164E-03   -0.13132E-03 10080   0.688E-04-0.107E-05
CGA:  14    -0.378748056100E+03   -0.15513E-04   -0.37359E-04 10080   0.354E-03-0.918E-04
CGA:  15    -0.378748080643E+03   -0.24543E-04   -0.23598E-04 10080   0.513E-04-0.246E-05
CGA:  16    -0.378748091945E+03   -0.11302E-04   -0.11123E-04 10080   0.122E-04-0.204E-05
CGA:  17    -0.378748102551E+03   -0.10606E-04    0.35081E-05 10080   0.101E-03-0.254E-04
CGA:  18    -0.378748109763E+03   -0.72121E-05   -0.63548E-05 10080   0.395E-05-0.343E-05
  95 F= -.37874811E+03 E0= -.37874617E+03  d E =-.659418E-03  mag=     8.0000
       N       E                     dE             d eps       ncg     rms          ort
SDA:   1    -0.378692729707E+03    0.55373E-01    0.00000E+00 10080   0.138E+00 0.000E+00
CGA:   2    -0.378726197772E+03   -0.33468E-01   -0.33463E-01 10080   0.186E+00-0.326E-03
CGA:   3    -0.378743428556E+03   -0.17231E-01   -0.17039E-01 10080   0.203E-01 0.209E-02
CGA:   4    -0.378747016384E+03   -0.35878E-02   -0.35931E-02 10080   0.981E-02 0.722E-04
CGA:   5    -0.378747972099E+03   -0.95571E-03   -0.94855E-03 10080   0.184E-02-0.326E-04
CGA:   6    -0.378748341496E+03   -0.36940E-03   -0.36954E-03 10080   0.597E-03 0.282E-05
CGA:   7    -0.378748428679E+03   -0.87182E-04   -0.82216E-04 10080   0.370E-03-0.391E-04
CGA:   8    -0.378748490016E+03   -0.61337E-04   -0.55889E-04 10080   0.124E-03-0.586E-04
CGA:   9    -0.378748510127E+03   -0.20111E-04   -0.48943E-04 10080   0.516E-03-0.130E-03
CGA:  10    -0.378748546983E+03   -0.36857E-04   -0.36541E-04 10080   0.753E-04-0.120E-05
CGA:  11    -0.378748565885E+03   -0.18902E-04   -0.18939E-04 10080   0.625E-04-0.289E-04
CGA:  12    -0.378748571577E+03   -0.56915E-05   -0.41169E-05 10080   0.319E-04-0.109E-04
CGA:  13    -0.378748585985E+03   -0.14408E-04    0.25787E-04 10080   0.173E-04-0.918E-05
CGA:  14    -0.378748598601E+03   -0.12616E-04    0.13659E-05 10080   0.647E-04-0.179E-04
CGA:  15    -0.378748602648E+03   -0.40466E-05   -0.41736E-05 10080   0.597E-05 0.798E-06
  96 F= -.37874860E+03 E0= -.37874668E+03  d E =-.492884E-03  mag=     8.0000
       N       E                     dE             d eps       ncg     rms          ort
SDA:   1    -0.378714630335E+03    0.33968E-01    0.00000E+00 10080   0.802E-01 0.000E+00
CGA:   2    -0.378742293503E+03   -0.27663E-01   -0.27659E-01 10080   0.377E-01 0.512E-04
CGA:   3    -0.378746339301E+03   -0.40458E-02   -0.40609E-02 10080   0.144E-01-0.624E-04
CGA:   4    -0.378748369626E+03   -0.20303E-02   -0.20234E-02 10080   0.269E-02-0.535E-04
CGA:   5    -0.378748738409E+03   -0.36878E-03   -0.36931E-03 10080   0.136E-02 0.949E-05
CGA:   6    -0.378748902527E+03   -0.16412E-03   -0.15960E-03 10080   0.378E-03-0.411E-04
CGA:   7    -0.378748960471E+03   -0.57944E-04   -0.58475E-04 10080   0.161E-03 0.929E-05
CGA:   8    -0.378748982866E+03   -0.22395E-04   -0.21465E-04 10080   0.847E-04-0.104E-04
CGA:   9    -0.378749001479E+03   -0.18613E-04   -0.21793E-04 10080   0.119E-03-0.501E-04
CGA:  10    -0.378749010808E+03   -0.93293E-05   -0.91291E-05 10080   0.282E-04-0.110E-05
CGA:  11    -0.378749017454E+03   -0.66453E-05   -0.10003E-04 10080   0.519E-04-0.224E-04
  97 F= -.37874902E+03 E0= -.37874711E+03  d E =-.414806E-03  mag=     8.0000
       N       E                     dE             d eps       ncg     rms          ort
SDA:   1    -0.378496065924E+03    0.25294E+00    0.00000E+00 10080   0.588E+00 0.000E+00
CGA:   2    -0.378690904135E+03   -0.19484E+00   -0.19493E+00 10080   0.471E+00-0.720E-03
CGA:   3    -0.378727945547E+03   -0.37041E-01   -0.36384E-01 10080   0.899E-01 0.793E-02
CGA:   4    -0.378744870932E+03   -0.16925E-01   -0.16930E-01 10080   0.234E-01 0.238E-03
CGA:   5    -0.378747398254E+03   -0.25273E-02   -0.24996E-02 10080   0.934E-02-0.260E-03
CGA:   6    -0.378748884072E+03   -0.14858E-02   -0.14780E-02 10080   0.228E-02-0.173E-03
CGA:   7    -0.378749245399E+03   -0.36133E-03   -0.36396E-03 10080   0.110E-02 0.722E-04
CGA:   8    -0.378749388848E+03   -0.14345E-03   -0.14300E-03 10080   0.409E-03-0.401E-05
CGA:   9    -0.378749495546E+03   -0.10670E-03   -0.12810E-03 10080   0.496E-03-0.179E-03
CGA:  10    -0.378749534658E+03   -0.39112E-04   -0.31501E-04 10080   0.255E-03-0.853E-04
CGA:  11    -0.378749578836E+03   -0.44178E-04   -0.45060E-04 10080   0.208E-03-0.518E-04
CGA:  12    -0.378749599837E+03   -0.21001E-04   -0.17497E-04 10080   0.890E-04-0.378E-04
CGA:  13    -0.378749629432E+03   -0.29595E-04    0.12950E-03 10080   0.663E-04-0.253E-05
CGA:  14    -0.378749639887E+03   -0.10455E-04   -0.15886E-04 10080   0.248E-03-0.100E-03
CGA:  15    -0.378749655973E+03   -0.16087E-04   -0.16812E-04 10080   0.276E-04 0.632E-05
CGA:  16    -0.378749661267E+03   -0.52932E-05   -0.53010E-05 10080   0.166E-04 0.460E-05
CGA:  17    -0.378749669579E+03   -0.83123E-05    0.13493E-04 10080   0.245E-04-0.866E-05
  98 F= -.37874967E+03 E0= -.37874779E+03  d E =-.652125E-03  mag=     8.0000
       N       E                     dE             d eps       ncg     rms          ort
SDA:   1    -0.378505312941E+03    0.24435E+00    0.00000E+00 10080   0.571E+00 0.000E+00
CGA:   2    -0.378698436170E+03   -0.19312E+00   -0.19321E+00 10080   0.307E+00-0.487E-03
CGA:   3    -0.378728963598E+03   -0.30527E-01   -0.30534E-01 10080   0.988E-01-0.366E-03
CGA:   4    -0.378744054757E+03   -0.15091E-01   -0.15102E-01 10080   0.235E-01 0.320E-03
CGA:   5    -0.378746554819E+03   -0.25001E-02   -0.24876E-02 10080   0.101E-01-0.810E-04
CGA:   6    -0.378748056125E+03   -0.15013E-02   -0.14980E-02 10080   0.219E-02-0.867E-04
CGA:   7    -0.378748481781E+03   -0.42566E-03   -0.42474E-03 10080   0.949E-03 0.626E-04
CGA:   8    -0.378748608058E+03   -0.12628E-03   -0.12591E-03 10080   0.522E-03-0.555E-05
CGA:   9    -0.378748713617E+03   -0.10556E-03   -0.10863E-03 10080   0.364E-03-0.102E-03
CGA:  10    -0.378748753722E+03   -0.40105E-04   -0.38624E-04 10080   0.200E-03-0.298E-04
CGA:  11    -0.378748796484E+03   -0.42761E-04   -0.56471E-04 10080   0.245E-03-0.105E-03
CGA:  12    -0.378748817599E+03   -0.21115E-04   -0.20188E-04 10080   0.693E-04-0.850E-05
CGA:  13    -0.378748803120E+03    0.14479E-04   -0.37829E-04 10080   0.533E-03-0.135E-03
CGA:  14    -0.378748839246E+03   -0.36126E-04   -0.38616E-04 10080   0.111E-03 0.205E-04
CGA:  15    -0.378748856250E+03   -0.17004E-04   -0.17349E-04 10080   0.782E-05 0.810E-05
CGA:  16    -0.378748863678E+03   -0.74280E-05    0.60381E-06 10080   0.799E-05 0.626E-06
  99 F= -.37874886E+03 E0= -.37874701E+03  d E =0.805901E-03  mag=     8.0000
       N       E                     dE             d eps       ncg     rms          ort
SDA:   1    -0.378697092222E+03    0.51764E-01    0.00000E+00 10080   0.125E+00 0.000E+00
CGA:   2    -0.378738941285E+03   -0.41849E-01   -0.42045E-01 10080   0.731E-01-0.132E-02
CGA:   3    -0.378745692700E+03   -0.67514E-02   -0.67426E-02 10080   0.227E-01 0.328E-03
CGA:   4    -0.378749176862E+03   -0.34842E-02   -0.34962E-02 10080   0.597E-02 0.308E-03
CGA:   5    -0.378749861062E+03   -0.68420E-03   -0.67577E-03 10080   0.248E-02-0.100E-03
CGA:   6    -0.378750222389E+03   -0.36133E-03   -0.35985E-03 10080   0.587E-03-0.364E-04
CGA:   7    -0.378750338926E+03   -0.11654E-03   -0.11771E-03 10080   0.429E-03-0.623E-04
CGA:   8    -0.378750379547E+03   -0.40622E-04   -0.39974E-04 10080   0.128E-03-0.749E-05
CGA:   9    -0.378750412795E+03   -0.33248E-04   -0.43047E-04 10080   0.142E-03-0.606E-04
CGA:  10    -0.378750425991E+03   -0.13195E-04   -0.11388E-04 10080   0.125E-03-0.483E-04
CGA:  11    -0.378750442099E+03   -0.16108E-04   -0.17589E-04 10080   0.685E-04-0.578E-04
CGA:  12    -0.378750449331E+03   -0.72319E-05   -0.75624E-05 10080   0.654E-04-0.200E-04
 100 F= -.37875045E+03 E0= -.37874860E+03  d E =-.158565E-02  mag=     8.0000
       N       E                     dE             d eps       ncg     rms          ort
SDA:   1    -0.378705759238E+03    0.44683E-01    0.00000E+00 10080   0.108E+00 0.000E+00
CGA:   2    -0.378735387062E+03   -0.29628E-01   -0.29678E-01 10080   0.126E+00-0.531E-03
CGA:   3    -0.378746976405E+03   -0.11589E-01   -0.11593E-01 10080   0.156E-01 0.395E-03
CGA:   4    -0.378749440311E+03   -0.24639E-02   -0.24641E-02 10080   0.897E-02 0.192E-04
CGA:   5    -0.378750299190E+03   -0.85888E-03   -0.85435E-03 10080   0.122E-02-0.426E-04
CGA:   6    -0.378750603286E+03   -0.30410E-03   -0.30961E-03 10080   0.350E-03-0.775E-04
CGA:   7    -0.378750659768E+03   -0.56482E-04   -0.56364E-04 10080   0.206E-03-0.763E-05
CGA:   8    -0.378750686818E+03   -0.27051E-04   -0.25076E-04 10080   0.103E-03-0.316E-04
CGA:   9    -0.378750692535E+03   -0.57172E-05   -0.36524E-04 10080   0.440E-03-0.131E-03
CGA:  10    -0.378750724987E+03   -0.32452E-04   -0.30846E-04 10080   0.765E-04-0.119E-04
CGA:  11    -0.378750739101E+03   -0.14114E-04   -0.14117E-04 10080   0.183E-04-0.389E-05
CGA:  12    -0.378750746074E+03   -0.69735E-05    0.26586E-04 10080   0.231E-04-0.645E-05
 101 F= -.37875075E+03 E0= -.37874891E+03  d E =-.296744E-03  mag=     8.0000
       N       E                     dE             d eps       ncg     rms          ort
SDA:   1    -0.378191952803E+03    0.55879E+00    0.00000E+00 10080   0.127E+01 0.000E+00
CGA:   2    -0.378659049594E+03   -0.46710E+00   -0.46765E+00 10080   0.500E+00-0.295E-02
CGA:   3    -0.378713714471E+03   -0.54665E-01   -0.54676E-01 10080   0.208E+00 0.221E-02
CGA:   4    -0.378742369346E+03   -0.28655E-01   -0.28649E-01 10080   0.300E-01 0.248E-03
CGA:   5    -0.378748006143E+03   -0.56368E-02   -0.56343E-02 10080   0.154E-01-0.744E-03
CGA:   6    -0.378749568309E+03   -0.15622E-02   -0.15642E-02 10080   0.470E-02 0.168E-04
CGA:   7    -0.378750316169E+03   -0.74786E-03   -0.75255E-03 10080   0.167E-02 0.182E-03
CGA:   8    -0.378750553258E+03   -0.23709E-03   -0.23535E-03 10080   0.107E-02-0.333E-04
CGA:   9    -0.378750767789E+03   -0.21453E-03   -0.22234E-03 10080   0.584E-03-0.259E-03
CGA:  10    -0.378750862742E+03   -0.94953E-04   -0.10067E-03 10080   0.578E-03-0.131E-03
CGA:  11    -0.378750930299E+03   -0.67557E-04   -0.63070E-04 10080   0.206E-03-0.982E-04
CGA:  12    -0.378750969155E+03   -0.38856E-04   -0.52190E-04 10080   0.383E-03-0.109E-03
CGA:  13    -0.378751001130E+03   -0.31975E-04   -0.27639E-04 10080   0.676E-04-0.361E-04
CGA:  14    -0.378750854712E+03    0.14642E-03   -0.80044E-04 10080   0.240E-02-0.228E-03
CGA:  15    -0.378751006144E+03   -0.15143E-03   -0.15634E-03 10080   0.301E-03 0.249E-04
CGA:  16    -0.378751056282E+03   -0.50138E-04   -0.56126E-04 10080   0.412E-04 0.437E-04
CGA:  17    -0.378751032396E+03    0.23885E-04   -0.30115E-04 10080   0.107E-02-0.167E-03
CGA:  18    -0.378751095155E+03   -0.62759E-04   -0.72905E-04 10080   0.490E-04 0.442E-04
CGA:  19    -0.378751096722E+03   -0.15665E-05   -0.61339E-05 10080   0.190E-04 0.231E-04
 102 F= -.37875110E+03 E0= -.37874930E+03  d E =-.350647E-03  mag=     8.0000
       N       E                     dE             d eps       ncg     rms          ort
SDA:   1    -0.378576194030E+03    0.17490E+00    0.00000E+00 10080   0.413E+00 0.000E+00
CGA:   2    -0.378706602706E+03   -0.13041E+00   -0.13042E+00 10080   0.288E+00-0.694E-03
CGA:   3    -0.378735290559E+03   -0.28688E-01   -0.27948E-01 10080   0.634E-01 0.711E-02
CGA:   4    -0.378747182937E+03   -0.11892E-01   -0.11903E-01 10080   0.103E-01 0.893E-04
CGA:   5    -0.378749363613E+03   -0.21807E-02   -0.21786E-02 10080   0.273E-02-0.282E-04
CGA:   6    -0.378749896913E+03   -0.53330E-03   -0.53020E-03 10080   0.120E-02-0.356E-04
CGA:   7    -0.378750049512E+03   -0.15260E-03   -0.14668E-03 10080   0.614E-03-0.359E-04
CGA:   8    -0.378750165845E+03   -0.11633E-03   -0.11120E-03 10080   0.265E-03-0.617E-04
CGA:   9    -0.378750221764E+03   -0.55919E-04   -0.52348E-04 10080   0.388E-03-0.773E-04
CGA:  10    -0.378750265067E+03   -0.43303E-04   -0.34943E-04 10080   0.111E-03-0.612E-04
CGA:  11    -0.378750291126E+03   -0.26058E-04   -0.29751E-04 10080   0.262E-03-0.593E-04
CGA:  12    -0.378750314137E+03   -0.23011E-04   -0.19153E-04 10080   0.357E-04-0.206E-04
CGA:  13    -0.378750291504E+03    0.22632E-04   -0.27451E-04 10080   0.712E-03-0.855E-04
CGA:  14    -0.378750337490E+03   -0.45986E-04   -0.45260E-04 10080   0.676E-04-0.234E-05
CGA:  15    -0.378750352912E+03   -0.15422E-04   -0.15183E-04 10080   0.122E-04-0.552E-05
CGA:  16    -0.378750361453E+03   -0.85406E-05    0.34630E-05 10080   0.562E-04-0.142E-04
 103 F= -.37875036E+03 E0= -.37874858E+03  d E =0.735269E-03  mag=     8.0000
       N       E                     dE             d eps       ncg     rms          ort
SDA:   1    -0.378370101104E+03    0.38025E+00    0.00000E+00 10080   0.873E+00 0.000E+00
CGA:   2    -0.378684925566E+03   -0.31482E+00   -0.31484E+00 10080   0.361E+00-0.106E-03
CGA:   3    -0.378725723314E+03   -0.40798E-01   -0.40949E-01 10080   0.150E+00-0.103E-02
CGA:   4    -0.378745048453E+03   -0.19325E-01   -0.19296E-01 10080   0.270E-01 0.609E-03
CGA:   5    -0.378748761004E+03   -0.37126E-02   -0.36905E-02 10080   0.148E-01-0.154E-03
CGA:   6    -0.378750549132E+03   -0.17881E-02   -0.17735E-02 10080   0.333E-02-0.113E-03
CGA:   7    -0.378751137127E+03   -0.58800E-03   -0.59605E-03 10080   0.125E-02 0.147E-03
CGA:   8    -0.378751304753E+03   -0.16763E-03   -0.17241E-03 10080   0.672E-03 0.498E-04
CGA:   9    -0.378751425016E+03   -0.12026E-03   -0.12174E-03 10080   0.245E-03 0.288E-04
CGA:  10    -0.378751479293E+03   -0.54277E-04   -0.54558E-04 10080   0.199E-03 0.236E-04
CGA:  11    -0.378751506928E+03   -0.27635E-04   -0.28808E-04 10080   0.824E-04 0.130E-04
CGA:  12    -0.378751518156E+03   -0.11229E-04   -0.12964E-04 10080   0.346E-04 0.240E-04
CGA:  13    -0.378751524116E+03   -0.59596E-05   -0.67243E-05 10080   0.155E-04 0.116E-04
 104 F= -.37875152E+03 E0= -.37874974E+03  d E =-.116266E-02  mag=     8.0000
       N       E                     dE             d eps       ncg     rms          ort
SDA:   1    -0.378703587195E+03    0.47931E-01    0.00000E+00 10080   0.112E+00 0.000E+00
CGA:   2    -0.378742639020E+03   -0.39052E-01   -0.39118E-01 10080   0.409E-01-0.486E-03
CGA:   3    -0.378748747463E+03   -0.61084E-02   -0.61293E-02 10080   0.180E-01 0.312E-03
CGA:   4    -0.378750680469E+03   -0.19330E-02   -0.19233E-02 10080   0.399E-02-0.888E-04
CGA:   5    -0.378751269833E+03   -0.58936E-03   -0.58759E-03 10080   0.160E-02-0.257E-04
CGA:   6    -0.378751447461E+03   -0.17763E-03   -0.17794E-03 10080   0.535E-03 0.596E-05
CGA:   7    -0.378751539061E+03   -0.91600E-04   -0.91516E-04 10080   0.158E-03-0.225E-05
CGA:   8    -0.378751572563E+03   -0.33503E-04   -0.33927E-04 10080   0.146E-03-0.283E-04
CGA:   9    -0.378751592456E+03   -0.19893E-04   -0.17345E-04 10080   0.764E-04-0.452E-04
CGA:  10    -0.378751595081E+03   -0.26242E-05   -0.23792E-04 10080   0.300E-03-0.832E-04
CGA:  11    -0.378751614044E+03   -0.18963E-04   -0.19814E-04 10080   0.398E-04 0.630E-05
CGA:  12    -0.378751624140E+03   -0.10096E-04   -0.10403E-04 10080   0.221E-04-0.581E-05
CGA:  13    -0.378751627347E+03   -0.32064E-05   -0.51594E-05 10080   0.870E-04-0.290E-04
 105 F= -.37875163E+03 E0= -.37874986E+03  d E =-.103231E-03  mag=     8.0000
       N       E                     dE             d eps       ncg     rms          ort
SDA:   1    -0.378740505518E+03    0.11119E-01    0.00000E+00 10080   0.273E-01 0.000E+00
CGA:   2    -0.378748915953E+03   -0.84104E-02   -0.84401E-02 10080   0.169E-01-0.276E-03
CGA:   3    -0.378750682699E+03   -0.17667E-02   -0.17751E-02 10080   0.575E-02 0.115E-03
CGA:   4    -0.378751483648E+03   -0.80095E-03   -0.79958E-03 10080   0.136E-02-0.174E-04
CGA:   5    -0.378751644926E+03   -0.16128E-03   -0.16043E-03 10080   0.582E-03-0.918E-05
CGA:   6    -0.378751724643E+03   -0.79717E-04   -0.79357E-04 10080   0.131E-03-0.551E-05
CGA:   7    -0.378751754904E+03   -0.30262E-04   -0.31930E-04 10080   0.858E-04-0.313E-04
CGA:   8    -0.378751762849E+03   -0.79452E-05   -0.75011E-05 10080   0.379E-04-0.538E-05
 106 F= -.37875176E+03 E0= -.37874999E+03  d E =-.135503E-03  mag=     8.0000
