       N       E                     dE             d eps       ncg     rms          ort
DAV:   1     0.252261409544E+04    0.25226E+04   -0.14410E+05  8262   0.160E+03
DAV:   2    -0.187855231276E+03   -0.27105E+04   -0.25797E+04  8262   0.425E+02
DAV:   3    -0.456715392993E+03   -0.26886E+03   -0.26493E+03  8262   0.149E+02
DAV:   4    -0.466262068280E+03   -0.95467E+01   -0.93723E+01  8262   0.256E+01
DAV:   5    -0.466794382843E+03   -0.53231E+00   -0.53029E+00  8262   0.492E+00
SDA:   6    -0.294506509215E+03    0.17229E+03   -0.53029E+00  8262   0.487E+03 0.000E+00
CGA:   7    -0.351896131039E+03   -0.57390E+02   -0.63394E+02  8262   0.605E+02 0.490E+01
CGA:   8    -0.362836663729E+03   -0.10941E+02   -0.10931E+02  8262   0.140E+02-0.830E-01
CGA:   9    -0.366064822502E+03   -0.32282E+01   -0.32256E+01  8262   0.485E+01 0.453E-01
CGA:  10    -0.367176511937E+03   -0.11117E+01   -0.11111E+01  8262   0.194E+01-0.511E-02
CGA:  11    -0.367654213496E+03   -0.47770E+00   -0.47900E+00  8262   0.620E+00-0.292E-01
CGA:  12    -0.367817748132E+03   -0.16353E+00   -0.16391E+00  8262   0.225E+00-0.585E-02
CGA:  13    -0.367876682471E+03   -0.58934E-01   -0.58482E-01  8262   0.667E-01 0.777E-02
CGA:  14    -0.367898758268E+03   -0.22076E-01   -0.21869E-01  8262   0.280E-01 0.191E-02
CGA:  15    -0.367908595176E+03   -0.98369E-02   -0.98609E-02  8262   0.118E-01-0.179E-03
CGA:  16    -0.367912585257E+03   -0.39901E-02   -0.39191E-02  8262   0.447E-02 0.611E-03
CGA:  17    -0.367914270619E+03   -0.16854E-02   -0.16855E-02  8262   0.189E-02-0.258E-05
CGA:  18    -0.367914746880E+03   -0.47626E-03   -0.46637E-03  8262   0.740E-03 0.645E-03
CGA:  19    -0.367915108413E+03   -0.36153E-03   -0.36298E-03  8262   0.510E-03-0.130E-04
CGA:  20    -0.367915196606E+03   -0.88194E-04   -0.99100E-04  8262   0.322E-03 0.261E-03
CGA:  21    -0.367915223796E+03   -0.27190E-04   -0.46318E-04  8262   0.153E-03 0.204E-03
CGA:  22    -0.367915251322E+03   -0.27525E-04   -0.30929E-04  8262   0.975E-04 0.110E-03
CGA:  23    -0.367915252066E+03   -0.74476E-06   -0.11215E-04  8262   0.904E-04 0.901E-04
CGA:  24    -0.367915253984E+03   -0.19180E-05   -0.10822E-04  8262   0.852E-04 0.842E-04
   1 F= -.36791525E+03 E0= -.36791525E+03  d E =-.367915E+03  mag=    16.0000
       N       E                     dE             d eps       ncg     rms          ort
SDA:   1    -0.367916792103E+03   -0.15400E-02    0.00000E+00  8262   0.230E-03 0.000E+00
CGA:   2    -0.367916850209E+03   -0.58106E-04   -0.57652E-04  8262   0.120E-03 0.122E-04
CGA:   3    -0.367916873108E+03   -0.22899E-04   -0.24183E-04  8262   0.600E-04 0.518E-04
CGA:   4    -0.367916880741E+03   -0.76322E-05   -0.11828E-04  8262   0.399E-04 0.545E-04
   2 F= -.36791688E+03 E0= -.36791688E+03  d E =-.162676E-02  mag=    16.0000
       N       E                     dE             d eps       ncg     rms          ort
SDA:   1    -0.367892661376E+03    0.24212E-01    0.00000E+00  8262   0.245E+00 0.000E+00
CGA:   2    -0.367946544829E+03   -0.53883E-01   -0.53841E-01  8262   0.776E-01 0.307E-02
CGA:   3    -0.367964730242E+03   -0.18185E-01   -0.18195E-01  8262   0.278E-01-0.386E-03
CGA:   4    -0.367969780411E+03   -0.50502E-02   -0.50380E-02  8262   0.596E-02-0.470E-03
CGA:   5    -0.367971071510E+03   -0.12911E-02   -0.12909E-02  8262   0.165E-02 0.115E-04
CGA:   6    -0.367971442483E+03   -0.37097E-03   -0.36835E-03  8262   0.621E-03 0.173E-03
CGA:   7    -0.367971617456E+03   -0.17497E-03   -0.16885E-03  8262   0.245E-03 0.163E-03
CGA:   8    -0.367971683048E+03   -0.65592E-04   -0.65436E-04  8262   0.116E-03 0.129E-03
CGA:   9    -0.367971696632E+03   -0.13585E-04   -0.17711E-04  8262   0.649E-04 0.722E-04
CGA:  10    -0.367971698643E+03   -0.20102E-05   -0.74061E-05  8262   0.570E-04 0.578E-04
   3 F= -.36797170E+03 E0= -.36797170E+03  d E =-.548179E-01  mag=    16.0000
       N       E                     dE             d eps       ncg     rms          ort
SDA:   1    -0.367625926647E+03    0.34577E+00    0.00000E+00  8262   0.144E+01 0.000E+00
CGA:   2    -0.367934149897E+03   -0.30822E+00   -0.30807E+00  8262   0.436E+00 0.831E-02
CGA:   3    -0.368035543024E+03   -0.10139E+00   -0.10144E+00  8262   0.157E+00-0.142E-02
CGA:   4    -0.368064156173E+03   -0.28613E-01   -0.28590E-01  8262   0.338E-01-0.136E-02
CGA:   5    -0.368071635020E+03   -0.74788E-02   -0.74804E-02  8262   0.963E-02-0.655E-04
CGA:   6    -0.368073985671E+03   -0.23507E-02   -0.23360E-02  8262   0.413E-02 0.339E-03
CGA:   7    -0.368075286875E+03   -0.13012E-02   -0.12808E-02  8262   0.188E-02 0.209E-03
CGA:   8    -0.368075933498E+03   -0.64662E-03   -0.63665E-03  8262   0.863E-03 0.861E-04
CGA:   9    -0.368076196378E+03   -0.26288E-03   -0.25360E-03  8262   0.298E-03 0.136E-03
CGA:  10    -0.368076276843E+03   -0.80466E-04   -0.78862E-04  8262   0.116E-03 0.126E-03
CGA:  11    -0.368076296597E+03   -0.19753E-04   -0.25755E-04  8262   0.639E-04 0.983E-04
CGA:  12    -0.368076299156E+03   -0.25594E-05   -0.75048E-05  8262   0.469E-04 0.512E-04
   4 F= -.36807630E+03 E0= -.36807630E+03  d E =-.104601E+00  mag=    16.0000
       N       E                     dE             d eps       ncg     rms          ort
SDA:   1    -0.367452969541E+03    0.62333E+00    0.00000E+00  8262   0.244E+01 0.000E+00
CGA:   2    -0.367950273527E+03   -0.49730E+00   -0.49730E+00  8262   0.676E+00 0.836E-02
CGA:   3    -0.368107271043E+03   -0.15700E+00   -0.15704E+00  8262   0.251E+00-0.142E-02
CGA:   4    -0.368153238808E+03   -0.45968E-01   -0.45941E-01  8262   0.539E-01-0.132E-02
CGA:   5    -0.368165219568E+03   -0.11981E-01   -0.11984E-01  8262   0.155E-01-0.176E-03
CGA:   6    -0.368169097101E+03   -0.38775E-02   -0.38624E-02  8262   0.709E-02 0.338E-03
CGA:   7    -0.368171405650E+03   -0.23085E-02   -0.22842E-02  8262   0.357E-02 0.224E-03
CGA:   8    -0.368172644133E+03   -0.12385E-02   -0.12331E-02  8262   0.171E-02 0.426E-04
CGA:   9    -0.368173180194E+03   -0.53606E-03   -0.52764E-03  8262   0.600E-03 0.959E-04
CGA:  10    -0.368173366407E+03   -0.18621E-03   -0.17964E-03  8262   0.206E-03 0.108E-03
CGA:  11    -0.368173422482E+03   -0.56074E-04   -0.55731E-04  8262   0.822E-04 0.963E-04
CGA:  12    -0.368173440101E+03   -0.17620E-04   -0.21064E-04  8262   0.425E-04 0.670E-04
CGA:  13    -0.368173444833E+03   -0.47313E-05   -0.67244E-05  8262   0.271E-04 0.306E-04
   5 F= -.36817344E+03 E0= -.36817344E+03  d E =-.971457E-01  mag=    16.0000
       N       E                     dE             d eps       ncg     rms          ort
SDA:   1    -0.366828022542E+03    0.13454E+01    0.00000E+00  8262   0.492E+01 0.000E+00
CGA:   2    -0.367825251151E+03   -0.99723E+00   -0.99736E+00  8262   0.135E+01 0.727E-02
CGA:   3    -0.368133184524E+03   -0.30793E+00   -0.30797E+00  8262   0.496E+00-0.216E-02
CGA:   4    -0.368223911779E+03   -0.90727E-01   -0.90708E-01  8262   0.104E+00-0.801E-03
CGA:   5    -0.368247175189E+03   -0.23263E-01   -0.23265E-01  8262   0.301E-01-0.171E-03
CGA:   6    -0.368254810146E+03   -0.76350E-02   -0.76265E-02  8262   0.141E-01 0.214E-03
CGA:   7    -0.368259421059E+03   -0.46109E-02   -0.45913E-02  8262   0.753E-02 0.181E-03
CGA:   8    -0.368262013652E+03   -0.25926E-02   -0.25866E-02  8262   0.363E-02 0.466E-04
CGA:   9    -0.368263166183E+03   -0.11525E-02   -0.11448E-02  8262   0.129E-02 0.865E-04
CGA:  10    -0.368263579920E+03   -0.41374E-03   -0.40601E-03  8262   0.445E-03 0.101E-03
CGA:  11    -0.368263725075E+03   -0.14516E-03   -0.13957E-03  8262   0.160E-03 0.997E-04
CGA:  12    -0.368263785878E+03   -0.60803E-04   -0.57854E-04  8262   0.629E-04 0.507E-04
CGA:  13    -0.368263808364E+03   -0.22487E-04   -0.21817E-04  8262   0.238E-04 0.298E-04
CGA:  14    -0.368263812523E+03   -0.41587E-05   -0.57795E-05  8262   0.119E-04 0.210E-04
   6 F= -.36826381E+03 E0= -.36826381E+03  d E =-.903677E-01  mag=    16.0000
       N       E                     dE             d eps       ncg     rms          ort
SDA:   1    -0.365792009170E+03    0.24718E+01    0.00000E+00  8262   0.848E+01 0.000E+00
CGA:   2    -0.367567237084E+03   -0.17752E+01   -0.17758E+01  8262   0.239E+01 0.103E-01
CGA:   3    -0.368116162828E+03   -0.54893E+00   -0.54892E+00  8262   0.830E+00-0.276E-02
CGA:   4    -0.368264252652E+03   -0.14809E+00   -0.14812E+00  8262   0.171E+00 0.106E-03
CGA:   5    -0.368301966379E+03   -0.37714E-01   -0.37713E-01  8262   0.479E-01-0.155E-03
CGA:   6    -0.368314348081E+03   -0.12382E-01   -0.12387E-01  8262   0.231E-01-0.164E-03
CGA:   7    -0.368321865581E+03   -0.75175E-02   -0.75111E-02  8262   0.130E-01 0.617E-04
CGA:   8    -0.368326374319E+03   -0.45087E-02   -0.44965E-02  8262   0.633E-02 0.102E-03
CGA:   9    -0.368328416008E+03   -0.20417E-02   -0.20395E-02  8262   0.226E-02 0.239E-04
CGA:  10    -0.368329135569E+03   -0.71956E-03   -0.71470E-03  8262   0.763E-03 0.681E-04
CGA:  11    -0.368329390451E+03   -0.25488E-03   -0.24894E-03  8262   0.274E-03 0.856E-04
CGA:  12    -0.368329500188E+03   -0.10974E-03   -0.10664E-03  8262   0.106E-03 0.313E-04
CGA:  13    -0.368329536763E+03   -0.36575E-04   -0.35377E-04  8262   0.328E-04 0.276E-04
CGA:  14    -0.368329545707E+03   -0.89444E-05   -0.94401E-05  8262   0.118E-04 0.167E-04
   7 F= -.36832955E+03 E0= -.36832955E+03  d E =-.657332E-01  mag=    16.0000
       N       E                     dE             d eps       ncg     rms          ort
SDA:   1    -0.363527072392E+03    0.48025E+01    0.00000E+00  8262   0.149E+02 0.000E+00
CGA:   2    -0.366913602846E+03   -0.33865E+01   -0.33879E+01  8262   0.481E+01 0.216E-01
CGA:   3    -0.367988432276E+03   -0.10748E+01   -0.10747E+01  8262   0.149E+01-0.368E-02
CGA:   4    -0.368246438074E+03   -0.25801E+00   -0.25809E+00  8262   0.288E+00 0.276E-04
CGA:   5    -0.368309329058E+03   -0.62891E-01   -0.62892E-01  8262   0.770E-01-0.141E-03
CGA:   6    -0.368328572418E+03   -0.19243E-01   -0.19244E-01  8262   0.338E-01-0.235E-03
CGA:   7    -0.368339263223E+03   -0.10691E-01   -0.10687E-01  8262   0.184E-01 0.379E-04
CGA:   8    -0.368345754995E+03   -0.64918E-02   -0.64741E-02  8262   0.944E-02 0.161E-03
CGA:   9    -0.368348875741E+03   -0.31207E-02   -0.31186E-02  8262   0.354E-02 0.214E-04
CGA:  10    -0.368350020745E+03   -0.11450E-02   -0.11430E-02  8262   0.123E-02 0.296E-04
CGA:  11    -0.368350436330E+03   -0.41559E-03   -0.40973E-03  8262   0.464E-03 0.833E-04
CGA:  12    -0.368350616845E+03   -0.18052E-03   -0.17637E-03  8262   0.181E-03 0.456E-04
CGA:  13    -0.368350676126E+03   -0.59281E-04   -0.58109E-04  8262   0.563E-04 0.516E-04
CGA:  14    -0.368350693034E+03   -0.16908E-04   -0.17614E-04  8262   0.199E-04 0.262E-04
CGA:  15    -0.368350697812E+03   -0.47781E-05   -0.58129E-05  8262   0.994E-05 0.148E-04
   8 F= -.36835070E+03 E0= -.36835070E+03  d E =-.211521E-01  mag=    16.0000
       N       E                     dE             d eps       ncg     rms          ort
SDA:   1    -0.367503343211E+03    0.84735E+00    0.00000E+00  8262   0.222E+01 0.000E+00
CGA:   2    -0.368122894988E+03   -0.61955E+00   -0.61955E+00  8262   0.101E+01-0.827E-03
CGA:   3    -0.368306692482E+03   -0.18380E+00   -0.18381E+00  8262   0.227E+00 0.486E-04
CGA:   4    -0.368348024068E+03   -0.41332E-01   -0.41335E-01  8262   0.435E-01-0.285E-04
CGA:   5    -0.368357164395E+03   -0.91403E-02   -0.91384E-02  8262   0.115E-01-0.527E-04
CGA:   6    -0.368359699612E+03   -0.25352E-02   -0.25373E-02  8262   0.348E-02 0.641E-04
CGA:   7    -0.368360687975E+03   -0.98836E-03   -0.98744E-03  8262   0.144E-02 0.285E-04
CGA:   8    -0.368361154778E+03   -0.46680E-03   -0.46637E-03  8262   0.671E-03 0.607E-05
CGA:   9    -0.368361373775E+03   -0.21900E-03   -0.21824E-03  8262   0.250E-03 0.111E-04
CGA:  10    -0.368361453476E+03   -0.79701E-04   -0.78853E-04  8262   0.867E-04 0.165E-04
CGA:  11    -0.368361482125E+03   -0.28649E-04   -0.27983E-04  8262   0.357E-04 0.161E-04
CGA:  12    -0.368361497417E+03   -0.15292E-04   -0.14569E-04  8262   0.192E-04 0.902E-05
CGA:  13    -0.368361502598E+03   -0.51813E-05   -0.55865E-05  8262   0.918E-05 0.118E-04
   9 F= -.36836150E+03 E0= -.36836150E+03  d E =-.108048E-01  mag=    16.0000
       N       E                     dE             d eps       ncg     rms          ort
SDA:   1    -0.367985706281E+03    0.37579E+00    0.00000E+00  8262   0.105E+01 0.000E+00
CGA:   2    -0.368252764132E+03   -0.26706E+00   -0.26706E+00  8262   0.506E+00-0.483E-03
CGA:   3    -0.368345271776E+03   -0.92508E-01   -0.92546E-01  8262   0.113E+00 0.472E-03
CGA:   4    -0.368366413170E+03   -0.21141E-01   -0.21148E-01  8262   0.220E-01 0.903E-04
CGA:   5    -0.368370869513E+03   -0.44563E-02   -0.44535E-02  8262   0.573E-02-0.575E-04
CGA:   6    -0.368372144867E+03   -0.12754E-02   -0.12762E-02  8262   0.171E-02 0.268E-04
CGA:   7    -0.368372613503E+03   -0.46864E-03   -0.46731E-03  8262   0.688E-03 0.653E-04
CGA:   8    -0.368372836960E+03   -0.22346E-03   -0.22073E-03  8262   0.317E-03 0.479E-04
CGA:   9    -0.368372955884E+03   -0.11892E-03   -0.11826E-03  8262   0.141E-03 0.709E-05
CGA:  10    -0.368373000476E+03   -0.44593E-04   -0.44000E-04  8262   0.507E-04 0.129E-04
CGA:  11    -0.368373017661E+03   -0.17185E-04   -0.16830E-04  8262   0.201E-04 0.853E-05
CGA:  12    -0.368373023845E+03   -0.61834E-05   -0.61920E-05  8262   0.921E-05 0.895E-05
  10 F= -.36837302E+03 E0= -.36837302E+03  d E =-.115212E-01  mag=    16.0000
       N       E                     dE             d eps       ncg     rms          ort
SDA:   1    -0.367649835771E+03    0.72318E+00    0.00000E+00  8262   0.191E+01 0.000E+00
CGA:   2    -0.368176303843E+03   -0.52647E+00   -0.52647E+00  8262   0.878E+00-0.733E-03
CGA:   3    -0.368334317945E+03   -0.15801E+00   -0.15807E+00  8262   0.191E+00 0.623E-03
CGA:   4    -0.368368886874E+03   -0.34569E-01   -0.34582E-01  8262   0.364E-01 0.129E-03
CGA:   5    -0.368376478553E+03   -0.75917E-02   -0.75832E-02  8262   0.948E-02-0.195E-03
CGA:   6    -0.368378516928E+03   -0.20384E-02   -0.20377E-02  8262   0.272E-02-0.232E-04
CGA:   7    -0.368379252079E+03   -0.73515E-03   -0.73329E-03  8262   0.106E-02 0.888E-04
CGA:   8    -0.368379593587E+03   -0.34151E-03   -0.33689E-03  8262   0.489E-03 0.820E-04
CGA:   9    -0.368379776906E+03   -0.18332E-03   -0.18172E-03  8262   0.213E-03 0.174E-04
CGA:  10    -0.368379847056E+03   -0.70150E-04   -0.69316E-04  8262   0.770E-04 0.149E-04
CGA:  11    -0.368379871553E+03   -0.24497E-04   -0.24029E-04  8262   0.297E-04 0.151E-04
CGA:  12    -0.368379879921E+03   -0.83688E-05   -0.86546E-05  8262   0.145E-04 0.154E-04
  11 F= -.36837988E+03 E0= -.36837988E+03  d E =-.685608E-02  mag=    16.0000
       N       E                     dE             d eps       ncg     rms          ort
SDA:   1    -0.361309673341E+03    0.70702E+01    0.00000E+00  8262   0.181E+02 0.000E+00
CGA:   2    -0.366495168834E+03   -0.51855E+01   -0.51852E+01  8262   0.819E+01 0.390E-02
CGA:   3    -0.367965083778E+03   -0.14699E+01   -0.14702E+01  8262   0.177E+01-0.347E-03
CGA:   4    -0.368281816914E+03   -0.31673E+00   -0.31668E+00  8262   0.338E+00-0.128E-02
CGA:   5    -0.368352650838E+03   -0.70834E-01   -0.70810E-01  8262   0.890E-01-0.629E-03
CGA:   6    -0.368371898111E+03   -0.19247E-01   -0.19248E-01  8262   0.263E-01-0.215E-04
CGA:   7    -0.368379320919E+03   -0.74228E-02   -0.74206E-02  8262   0.111E-01 0.570E-04
CGA:   8    -0.368382948455E+03   -0.36275E-02   -0.36250E-02  8262   0.548E-02 0.300E-04
CGA:   9    -0.368384849684E+03   -0.19012E-02   -0.19199E-02  8262   0.226E-02-0.202E-03
CGA:  10    -0.368385579441E+03   -0.72976E-03   -0.74155E-03  8262   0.851E-03-0.147E-03
CGA:  11    -0.368385866604E+03   -0.28716E-03   -0.29318E-03  8262   0.398E-03-0.586E-04
CGA:  12    -0.368386030575E+03   -0.16397E-03   -0.18024E-03  8262   0.285E-03-0.759E-04
CGA:  13    -0.368386126830E+03   -0.96255E-04   -0.10749E-03  8262   0.155E-03-0.615E-04
CGA:  14    -0.368386157305E+03   -0.30474E-04   -0.75393E-04  8262   0.232E-03-0.137E-03
CGA:  15    -0.368386204697E+03   -0.47392E-04   -0.47761E-04  8262   0.382E-04 0.362E-05
CGA:  16    -0.368386169247E+03    0.35449E-04   -0.42842E-04  8262   0.383E-03-0.979E-04
CGA:  17    -0.368386239721E+03   -0.70474E-04   -0.72835E-04  8262   0.384E-04 0.156E-04
CGA:  18    -0.368386252239E+03   -0.12518E-04   -0.12417E-04  8262   0.434E-05-0.461E-05
CGA:  19    -0.368386256409E+03   -0.41693E-05    0.98527E-06  8262   0.884E-06 0.754E-06
  12 F= -.36838626E+03 E0= -.36838626E+03  d E =-.637649E-02  mag=    16.0000
       N       E                     dE             d eps       ncg     rms          ort
SDA:   1    -0.367132925255E+03    0.12533E+01    0.00000E+00  8262   0.348E+01 0.000E+00
CGA:   2    -0.368022562889E+03   -0.88964E+00   -0.88988E+00  8262   0.151E+01 0.152E-02
CGA:   3    -0.368314624815E+03   -0.29206E+00   -0.29193E+00  8262   0.381E+00-0.103E-02
CGA:   4    -0.368381812652E+03   -0.67188E-01   -0.67179E-01  8262   0.705E-01-0.218E-03
CGA:   5    -0.368396399537E+03   -0.14587E-01   -0.14609E-01  8262   0.188E-01 0.195E-03
CGA:   6    -0.368400534439E+03   -0.41349E-02   -0.41458E-02  8262   0.580E-02 0.115E-03
CGA:   7    -0.368402211145E+03   -0.16767E-02   -0.16767E-02  8262   0.254E-02-0.262E-05
CGA:   8    -0.368403025829E+03   -0.81468E-03   -0.81414E-03  8262   0.120E-02 0.324E-04
CGA:   9    -0.368403431773E+03   -0.40594E-03   -0.40568E-03  8262   0.485E-03 0.905E-05
CGA:  10    -0.368403595779E+03   -0.16401E-03   -0.16427E-03  8262   0.193E-03-0.895E-05
CGA:  11    -0.368403663717E+03   -0.67938E-04   -0.67931E-04  8262   0.897E-04 0.599E-08
CGA:  12    -0.368403705450E+03   -0.41733E-04   -0.49766E-04  8262   0.866E-04-0.330E-04
CGA:  13    -0.368403721643E+03   -0.16193E-04   -0.16220E-04  8262   0.375E-04 0.929E-06
CGA:  14    -0.368403735031E+03   -0.13387E-04   -0.14634E-04  8262   0.245E-04-0.193E-04
CGA:  15    -0.368403743974E+03   -0.89429E-05   -0.98548E-05  8262   0.129E-04-0.117E-04
CGA:  16    -0.368403748732E+03   -0.47581E-05    0.13748E-04  8262   0.419E-05 0.189E-05
CGA:  17    -0.368403698589E+03    0.50143E-04   -0.27090E-04  8262   0.236E-03-0.341E-04
CGA:  18    -0.368403758836E+03   -0.60247E-04   -0.61266E-04  8262   0.511E-05 0.297E-05
CGA:  19    -0.368403761018E+03   -0.21827E-05   -0.19657E-05  8262   0.232E-05-0.108E-05
  13 F= -.36840376E+03 E0= -.36840376E+03  d E =-.175046E-01  mag=    16.0000
       N       E                     dE             d eps       ncg     rms          ort
SDA:   1    -0.367449726169E+03    0.95403E+00    0.00000E+00  8262   0.249E+01 0.000E+00
CGA:   2    -0.368144093809E+03   -0.69437E+00   -0.69494E+00  8262   0.116E+01 0.392E-03
CGA:   3    -0.368353744626E+03   -0.20965E+00   -0.20962E+00  8262   0.252E+00 0.273E-03
CGA:   4    -0.368398575190E+03   -0.44831E-01   -0.44786E-01  8262   0.480E-01-0.176E-03
CGA:   5    -0.368408481121E+03   -0.99059E-02   -0.99185E-02  8262   0.128E-01 0.361E-04
CGA:   6    -0.368411223637E+03   -0.27425E-02   -0.27463E-02  8262   0.372E-02 0.971E-05
CGA:   7    -0.368412278050E+03   -0.10544E-02   -0.10493E-02  8262   0.159E-02-0.280E-04
CGA:   8    -0.368412798989E+03   -0.52094E-03   -0.51710E-03  8262   0.792E-03-0.290E-04
CGA:   9    -0.368413057833E+03   -0.25884E-03   -0.25863E-03  8262   0.305E-03-0.193E-05
CGA:  10    -0.368413151978E+03   -0.94145E-04   -0.95059E-04  8262   0.105E-03 0.661E-05
CGA:  11    -0.368413187304E+03   -0.35326E-04   -0.35819E-04  8262   0.447E-04 0.460E-05
CGA:  12    -0.368413203604E+03   -0.16301E-04   -0.16787E-04  8262   0.218E-04 0.632E-05
CGA:  13    -0.368413209437E+03   -0.58323E-05   -0.71118E-05  8262   0.895E-05 0.869E-05
  14 F= -.36841321E+03 E0= -.36841321E+03  d E =-.944842E-02  mag=    16.0000
       N       E                     dE             d eps       ncg     rms          ort
SDA:   1    -0.368298693091E+03    0.11451E+00    0.00000E+00  8262   0.395E+00 0.000E+00
CGA:   2    -0.368382975370E+03   -0.84282E-01   -0.84392E-01  8262   0.133E+00 0.228E-03
CGA:   3    -0.368411302197E+03   -0.28327E-01   -0.28330E-01  8262   0.429E-01-0.140E-05
CGA:   4    -0.368419024118E+03   -0.77219E-02   -0.77303E-02  8262   0.832E-02 0.305E-04
CGA:   5    -0.368420730353E+03   -0.17062E-02   -0.17171E-02  8262   0.220E-02 0.607E-04
CGA:   6    -0.368421226137E+03   -0.49578E-03   -0.49860E-03  8262   0.758E-03 0.179E-04
CGA:   7    -0.368421454372E+03   -0.22823E-03   -0.22804E-03  8262   0.360E-03-0.301E-05
CGA:   8    -0.368421564636E+03   -0.11026E-03   -0.11145E-03  8262   0.165E-03 0.217E-04
CGA:   9    -0.368421620899E+03   -0.56263E-04   -0.56580E-04  8262   0.691E-04 0.818E-05
CGA:  10    -0.368421646848E+03   -0.25949E-04   -0.25945E-04  8262   0.327E-04-0.140E-05
CGA:  11    -0.368421657455E+03   -0.10607E-04   -0.10675E-04  8262   0.138E-04 0.253E-05
CGA:  12    -0.368421664324E+03   -0.68696E-05   -0.74491E-05  8262   0.114E-04-0.409E-05
  15 F= -.36842166E+03 E0= -.36842166E+03  d E =-.845489E-02  mag=    16.0000
       N       E                     dE             d eps       ncg     rms          ort
SDA:   1    -0.368107637251E+03    0.31402E+00    0.00000E+00  8262   0.905E+00 0.000E+00
CGA:   2    -0.368335034231E+03   -0.22740E+00   -0.22750E+00  8262   0.357E+00 0.462E-03
CGA:   3    -0.368408005707E+03   -0.72971E-01   -0.72947E-01  8262   0.948E-01-0.179E-03
CGA:   4    -0.368424123349E+03   -0.16118E-01   -0.16128E-01  8262   0.172E-01 0.163E-04
CGA:   5    -0.368427713537E+03   -0.35902E-02   -0.35992E-02  8262   0.445E-02 0.678E-04
CGA:   6    -0.368428679043E+03   -0.96551E-03   -0.96846E-03  8262   0.140E-02 0.238E-04
CGA:   7    -0.368429085218E+03   -0.40617E-03   -0.40603E-03  8262   0.628E-03-0.448E-05
CGA:   8    -0.368429285444E+03   -0.20023E-03   -0.20035E-03  8262   0.305E-03 0.278E-04
CGA:   9    -0.368429395285E+03   -0.10984E-03   -0.10979E-03  8262   0.135E-03 0.252E-05
CGA:  10    -0.368429445108E+03   -0.49823E-04   -0.50484E-04  8262   0.637E-04-0.149E-04
CGA:  11    -0.368429465670E+03   -0.20562E-04   -0.20713E-04  8262   0.290E-04-0.400E-05
CGA:  12    -0.368429473943E+03   -0.82729E-05   -0.21096E-04  8262   0.671E-04-0.286E-04
CGA:  13    -0.368429485571E+03   -0.11627E-04   -0.13353E-04  8262   0.611E-05 0.113E-04
CGA:  14    -0.368429491343E+03   -0.57719E-05    0.69733E-05  8262   0.208E-05-0.294E-06
  16 F= -.36842949E+03 E0= -.36842949E+03  d E =-.782702E-02  mag=    16.0000
       N       E                     dE             d eps       ncg     rms          ort
SDA:   1    -0.362750197225E+03    0.56793E+01    0.00000E+00  8262   0.160E+02 0.000E+00
CGA:   2    -0.366665800428E+03   -0.39156E+01   -0.39190E+01  8262   0.631E+01 0.135E-01
CGA:   3    -0.367936332721E+03   -0.12705E+01   -0.12709E+01  8262   0.182E+01 0.304E-02
CGA:   4    -0.368257186805E+03   -0.32085E+00   -0.32106E+00  8262   0.345E+00 0.125E-03
CGA:   5    -0.368329335323E+03   -0.72149E-01   -0.72216E-01  8262   0.935E-01 0.605E-03
CGA:   6    -0.368350412157E+03   -0.21077E-01   -0.21088E-01  8262   0.325E-01 0.852E-04
CGA:   7    -0.368359888800E+03   -0.94766E-02   -0.94716E-02  8262   0.143E-01-0.362E-03
CGA:   8    -0.368364500763E+03   -0.46120E-02   -0.46175E-02  8262   0.686E-02-0.265E-03
CGA:   9    -0.368366663785E+03   -0.21630E-02   -0.21644E-02  8262   0.259E-02-0.966E-04
CGA:  10    -0.368367524867E+03   -0.86108E-03   -0.86294E-03  8262   0.108E-02-0.607E-04
CGA:  11    -0.368367948883E+03   -0.42402E-03   -0.43689E-03  8262   0.649E-03-0.124E-03
CGA:  12    -0.368368193247E+03   -0.24436E-03   -0.25367E-03  8262   0.349E-03-0.736E-04
CGA:  13    -0.368368305787E+03   -0.11254E-03   -0.11283E-03  8262   0.116E-03-0.698E-05
CGA:  14    -0.368368340823E+03   -0.35036E-04   -0.35170E-04  8262   0.328E-04 0.989E-05
CGA:  15    -0.368368350252E+03   -0.94291E-05   -0.98008E-05  8262   0.105E-04 0.803E-05
  17 F= -.36836835E+03 E0= -.36836835E+03  d E =0.611411E-01  mag=    16.0000
       N       E                     dE             d eps       ncg     rms          ort
SDA:   1    -0.367499275828E+03    0.86906E+00    0.00000E+00  8262   0.228E+01 0.000E+00
CGA:   2    -0.368226543203E+03   -0.72727E+00   -0.72726E+00  8262   0.730E+00 0.812E-03
CGA:   3    -0.368382814936E+03   -0.15627E+00   -0.15617E+00  8262   0.210E+00-0.117E-02
CGA:   4    -0.368421745827E+03   -0.38931E-01   -0.38900E-01  8262   0.497E-01-0.348E-03
CGA:   5    -0.368432617625E+03   -0.10872E-01   -0.10887E-01  8262   0.152E-01 0.178E-03
CGA:   6    -0.368436378307E+03   -0.37607E-02   -0.37709E-02  8262   0.641E-02 0.199E-03
CGA:   7    -0.368438119089E+03   -0.17408E-02   -0.17431E-02  8262   0.237E-02 0.859E-04
CGA:   8    -0.368438838887E+03   -0.71980E-03   -0.71924E-03  8262   0.869E-03 0.109E-03
CGA:   9    -0.368439100353E+03   -0.26147E-03   -0.26164E-03  8262   0.284E-03 0.256E-04
CGA:  10    -0.368439180297E+03   -0.79943E-04   -0.80640E-04  8262   0.907E-04 0.379E-04
CGA:  11    -0.368439198816E+03   -0.18520E-04   -0.21857E-04  8262   0.371E-04 0.414E-04
CGA:  12    -0.368439208386E+03   -0.95692E-05   -0.11403E-04  8262   0.204E-04 0.234E-04
  18 F= -.36843921E+03 E0= -.36843921E+03  d E =-.708581E-01  mag=    16.0000
       N       E                     dE             d eps       ncg     rms          ort
SDA:   1    -0.368427233203E+03    0.11966E-01    0.00000E+00  8262   0.446E-01 0.000E+00
CGA:   2    -0.368440377218E+03   -0.13144E-01   -0.13142E-01  8262   0.166E-01 0.161E-03
CGA:   3    -0.368443639472E+03   -0.32623E-02   -0.32640E-02  8262   0.498E-02 0.159E-04
CGA:   4    -0.368444589492E+03   -0.95002E-03   -0.95177E-03  8262   0.110E-02 0.193E-04
CGA:   5    -0.368444835395E+03   -0.24590E-03   -0.24334E-03  8262   0.376E-03-0.470E-04
CGA:   6    -0.368444924340E+03   -0.88945E-04   -0.88265E-04  8262   0.151E-03-0.251E-04
CGA:   7    -0.368444958620E+03   -0.34280E-04   -0.34566E-04  8262   0.476E-04 0.110E-04
CGA:   8    -0.368444968521E+03   -0.99005E-05   -0.10799E-04  8262   0.159E-04 0.155E-04
  19 F= -.36844497E+03 E0= -.36844497E+03  d E =-.576014E-02  mag=    16.0000
       N       E                     dE             d eps       ncg     rms          ort
SDA:   1    -0.368345272002E+03    0.99687E-01    0.00000E+00  8262   0.280E+00 0.000E+00
CGA:   2    -0.368422010338E+03   -0.76738E-01   -0.76732E-01  8262   0.111E+00 0.562E-03
CGA:   3    -0.368442885633E+03   -0.20875E-01   -0.20865E-01  8262   0.314E-01-0.168E-03
CGA:   4    -0.368449124937E+03   -0.62393E-02   -0.62352E-02  8262   0.694E-02-0.631E-04
CGA:   5    -0.368450564360E+03   -0.14394E-02   -0.14330E-02  8262   0.206E-02-0.128E-03
CGA:   6    -0.368451048764E+03   -0.48440E-03   -0.48342E-03  8262   0.751E-03-0.587E-04
CGA:   7    -0.368451239506E+03   -0.19074E-03   -0.19050E-03  8262   0.269E-03 0.379E-04
CGA:   8    -0.368451310596E+03   -0.71090E-04   -0.71225E-04  8262   0.896E-04 0.506E-04
CGA:   9    -0.368451343244E+03   -0.32648E-04   -0.32380E-04  8262   0.345E-04 0.541E-05
CGA:  10    -0.368451356239E+03   -0.12995E-04   -0.14186E-04  8262   0.210E-04-0.913E-05
CGA:  11    -0.368451359035E+03   -0.27954E-05   -0.30664E-05  8262   0.830E-05 0.414E-05
  20 F= -.36845136E+03 E0= -.36845136E+03  d E =-.639051E-02  mag=    16.0000
       N       E                     dE             d eps       ncg     rms          ort
SDA:   1    -0.368446708633E+03    0.46476E-02    0.00000E+00  8262   0.164E-01 0.000E+00
CGA:   2    -0.368450701621E+03   -0.39930E-02   -0.39939E-02  8262   0.725E-02 0.788E-04
CGA:   3    -0.368452122512E+03   -0.14209E-02   -0.14164E-02  8262   0.193E-02-0.765E-04
CGA:   4    -0.368452485378E+03   -0.36287E-03   -0.36182E-03  8262   0.408E-03-0.170E-04
CGA:   5    -0.368452572360E+03   -0.86981E-04   -0.86066E-04  8262   0.120E-03-0.258E-04
CGA:   6    -0.368452600029E+03   -0.27670E-04   -0.27657E-04  8262   0.467E-04-0.133E-04
CGA:   7    -0.368452608619E+03   -0.85898E-05   -0.88433E-05  8262   0.142E-04 0.751E-05
  21 F= -.36845261E+03 E0= -.36845261E+03  d E =-.124958E-02  mag=    16.0000
       N       E                     dE             d eps       ncg     rms          ort
SDA:   1    -0.368441373657E+03    0.11226E-01    0.00000E+00  8262   0.384E-01 0.000E+00
CGA:   2    -0.368449884650E+03   -0.85110E-02   -0.85128E-02  8262   0.170E-01 0.858E-04
CGA:   3    -0.368453314074E+03   -0.34294E-02   -0.34232E-02  8262   0.468E-02-0.170E-03
CGA:   4    -0.368454157751E+03   -0.84368E-03   -0.84229E-03  8262   0.956E-03-0.255E-04
CGA:   5    -0.368454350301E+03   -0.19255E-03   -0.19171E-03  8262   0.267E-03-0.261E-04
CGA:   6    -0.368454412682E+03   -0.62381E-04   -0.62571E-04  8262   0.978E-04-0.227E-04
CGA:   7    -0.368454435782E+03   -0.23100E-04   -0.23008E-04  8262   0.362E-04 0.377E-05
CGA:   8    -0.368454442299E+03   -0.65173E-05   -0.71632E-05  8262   0.134E-04 0.149E-04
  22 F= -.36845444E+03 E0= -.36845444E+03  d E =-.183368E-02  mag=    16.0000
       N       E                     dE             d eps       ncg     rms          ort
SDA:   1    -0.368435259139E+03    0.19177E-01    0.00000E+00  8262   0.645E-01 0.000E+00
CGA:   2    -0.368448947832E+03   -0.13689E-01   -0.13691E-01  8262   0.281E-01 0.104E-03
CGA:   3    -0.368454706612E+03   -0.57588E-02   -0.57526E-02  8262   0.792E-02-0.265E-03
CGA:   4    -0.368456131217E+03   -0.14246E-02   -0.14225E-02  8262   0.154E-02-0.459E-04
CGA:   5    -0.368456438573E+03   -0.30736E-03   -0.30690E-03  8262   0.418E-03-0.191E-04
CGA:   6    -0.368456536131E+03   -0.97558E-04   -0.97871E-04  8262   0.147E-03-0.233E-04
CGA:   7    -0.368456575647E+03   -0.39516E-04   -0.39955E-04  8262   0.665E-04-0.692E-05
CGA:   8    -0.368456590838E+03   -0.15191E-04   -0.15046E-04  8262   0.237E-04 0.146E-04
CGA:   9    -0.368456598853E+03   -0.80154E-05   -0.77643E-05  8262   0.110E-04 0.614E-05
  23 F= -.36845660E+03 E0= -.36845660E+03  d E =-.215655E-02  mag=    16.0000
       N       E                     dE             d eps       ncg     rms          ort
SDA:   1    -0.368270697680E+03    0.18589E+00    0.00000E+00  8262   0.533E+00 0.000E+00
CGA:   2    -0.368400878546E+03   -0.13018E+00   -0.13018E+00  8262   0.238E+00 0.180E-03
CGA:   3    -0.368447244901E+03   -0.46366E-01   -0.46342E-01  8262   0.608E-01-0.553E-03
CGA:   4    -0.368457854230E+03   -0.10609E-01   -0.10609E-01  8262   0.113E-01-0.238E-04
CGA:   5    -0.368460130216E+03   -0.22760E-02   -0.22762E-02  8262   0.304E-02 0.563E-05
CGA:   6    -0.368460795679E+03   -0.66546E-03   -0.66518E-03  8262   0.944E-03-0.195E-04
CGA:   7    -0.368461065763E+03   -0.27008E-03   -0.27059E-03  8262   0.430E-03-0.957E-05
CGA:   8    -0.368461196705E+03   -0.13094E-03   -0.12874E-03  8262   0.196E-03 0.333E-04
CGA:   9    -0.368461270808E+03   -0.74104E-04   -0.73672E-04  8262   0.931E-04 0.388E-05
CGA:  10    -0.368461304437E+03   -0.33629E-04   -0.34654E-04  8262   0.451E-04-0.859E-05
CGA:  11    -0.368461313885E+03   -0.94476E-05   -0.96368E-05  8262   0.160E-04 0.121E-04
  24 F= -.36846131E+03 E0= -.36846131E+03  d E =-.471503E-02  mag=    16.0000
       N       E                     dE             d eps       ncg     rms          ort
SDA:   1    -0.367166655874E+03    0.12946E+01    0.00000E+00  8262   0.345E+01 0.000E+00
CGA:   2    -0.368074068744E+03   -0.90741E+00   -0.90736E+00  8262   0.162E+01 0.258E-02
CGA:   3    -0.368375358406E+03   -0.30129E+00   -0.30120E+00  8262   0.376E+00-0.157E-02
CGA:   4    -0.368441556837E+03   -0.66198E-01   -0.66174E-01  8262   0.707E-01-0.449E-03
CGA:   5    -0.368455964642E+03   -0.14408E-01   -0.14405E-01  8262   0.188E-01-0.935E-04
CGA:   6    -0.368460108016E+03   -0.41434E-02   -0.41411E-02  8262   0.580E-02-0.110E-03
CGA:   7    -0.368461737388E+03   -0.16294E-02   -0.16327E-02  8262   0.254E-02-0.804E-04
CGA:   8    -0.368462541712E+03   -0.80432E-03   -0.80228E-03  8262   0.122E-02 0.257E-04
CGA:   9    -0.368462975862E+03   -0.43415E-03   -0.44147E-03  8262   0.560E-03-0.670E-04
CGA:  10    -0.368463154150E+03   -0.17829E-03   -0.18251E-03  8262   0.225E-03-0.457E-04
CGA:  11    -0.368463220335E+03   -0.66185E-04   -0.65476E-04  8262   0.844E-04 0.117E-04
CGA:  12    -0.368463258386E+03   -0.38052E-04   -0.42286E-04  8262   0.639E-04-0.196E-04
CGA:  13    -0.368463272333E+03   -0.13947E-04   -0.13842E-04  8262   0.266E-04 0.906E-05
CGA:  14    -0.368463282852E+03   -0.10518E-04   -0.11577E-04  8262   0.159E-04-0.968E-05
CGA:  15    -0.368463289251E+03   -0.63999E-05    0.96333E-05  8262   0.744E-05-0.454E-06
  25 F= -.36846329E+03 E0= -.36846329E+03  d E =-.197537E-02  mag=    16.0000
       N       E                     dE             d eps       ncg     rms          ort
SDA:   1    -0.368414466728E+03    0.48816E-01    0.00000E+00  8262   0.148E+00 0.000E+00
CGA:   2    -0.368447921285E+03   -0.33455E-01   -0.33486E-01  8262   0.561E-01 0.459E-03
CGA:   3    -0.368459927597E+03   -0.12006E-01   -0.12005E-01  8262   0.174E-01-0.319E-04
CGA:   4    -0.368463031172E+03   -0.31036E-02   -0.30960E-02  8262   0.343E-02-0.830E-04
CGA:   5    -0.368463751523E+03   -0.72035E-03   -0.72051E-03  8262   0.956E-03 0.264E-05
CGA:   6    -0.368463962567E+03   -0.21104E-03   -0.21257E-03  8262   0.331E-03 0.330E-04
CGA:   7    -0.368464057533E+03   -0.94966E-04   -0.94663E-04  8262   0.138E-03 0.276E-04
CGA:   8    -0.368464103073E+03   -0.45541E-04   -0.45040E-04  8262   0.643E-04 0.147E-04
CGA:   9    -0.368464122961E+03   -0.19888E-04   -0.19743E-04  8262   0.252E-04 0.147E-04
CGA:  10    -0.368464130699E+03   -0.77379E-05   -0.78704E-05  8262   0.108E-04 0.934E-05
  26 F= -.36846413E+03 E0= -.36846413E+03  d E =-.841447E-03  mag=    16.0000
       N       E                     dE             d eps       ncg     rms          ort
SDA:   1    -0.368443226066E+03    0.20897E-01    0.00000E+00  8262   0.548E-01 0.000E+00
CGA:   2    -0.368457917387E+03   -0.14691E-01   -0.14691E-01  8262   0.235E-01 0.499E-04
CGA:   3    -0.368462362185E+03   -0.44448E-02   -0.44532E-02  8262   0.574E-02 0.104E-03
CGA:   4    -0.368463393683E+03   -0.10315E-02   -0.10303E-02  8262   0.114E-02-0.154E-04
CGA:   5    -0.368463618600E+03   -0.22492E-03   -0.22606E-03  8262   0.298E-03 0.185E-04
CGA:   6    -0.368463683387E+03   -0.64787E-04   -0.65378E-04  8262   0.924E-04 0.142E-04
CGA:   7    -0.368463711689E+03   -0.28301E-04   -0.28231E-04  8262   0.435E-04 0.189E-05
CGA:   8    -0.368463728145E+03   -0.16456E-04   -0.17572E-04  8262   0.316E-04-0.805E-05
CGA:   9    -0.368463735602E+03   -0.74574E-05   -0.74629E-05  8262   0.116E-04-0.222E-06
  27 F= -.36846374E+03 E0= -.36846374E+03  d E =0.395096E-03  mag=    16.0000
       N       E                     dE             d eps       ncg     rms          ort
SDA:   1    -0.367960490671E+03    0.50324E+00    0.00000E+00  8262   0.123E+01 0.000E+00
CGA:   2    -0.368351318478E+03   -0.39083E+00   -0.39080E+00  8262   0.463E+00 0.279E-03
CGA:   3    -0.368436807063E+03   -0.85489E-01   -0.85480E-01  8262   0.106E+00-0.190E-03
CGA:   4    -0.368455273765E+03   -0.18467E-01   -0.18461E-01  8262   0.212E-01-0.963E-04
CGA:   5    -0.368459708613E+03   -0.44348E-02   -0.44379E-02  8262   0.547E-02 0.582E-04
CGA:   6    -0.368460899080E+03   -0.11905E-02   -0.11907E-02  8262   0.170E-02 0.394E-05
CGA:   7    -0.368461379080E+03   -0.48000E-03   -0.48100E-03  8262   0.732E-03-0.349E-04
CGA:   8    -0.368461615589E+03   -0.23651E-03   -0.23734E-03  8262   0.357E-03-0.111E-04
CGA:   9    -0.368461733668E+03   -0.11808E-03   -0.11985E-03  8262   0.145E-03-0.216E-04
CGA:  10    -0.368461779131E+03   -0.45463E-04   -0.46813E-04  8262   0.544E-04-0.165E-04
CGA:  11    -0.368461797699E+03   -0.18568E-04   -0.21894E-04  8262   0.387E-04-0.177E-04
CGA:  12    -0.368461684407E+03    0.11329E-03   -0.61314E-04  8262   0.569E-03-0.109E-03
CGA:  13    -0.368461795627E+03   -0.11122E-03   -0.12208E-03  8262   0.538E-04 0.374E-04
CGA:  14    -0.368461826472E+03   -0.30845E-04   -0.33990E-04  8262   0.533E-04-0.304E-04
CGA:  15    -0.368461823425E+03    0.30470E-05   -0.68470E-05  8262   0.155E-04 0.270E-04
  28 F= -.36846182E+03 E0= -.36846182E+03  d E =0.191218E-02  mag=    16.0000
       N       E                     dE             d eps       ncg     rms          ort
SDA:   1    -0.364849194223E+03    0.36126E+01    0.00000E+00  8262   0.924E+01 0.000E+00
CGA:   2    -0.367360007572E+03   -0.25108E+01   -0.25124E+01  8262   0.427E+01 0.331E-02
CGA:   3    -0.368137111854E+03   -0.77710E+00   -0.77725E+00  8262   0.100E+01 0.485E-02
CGA:   4    -0.368321567184E+03   -0.18446E+00   -0.18431E+00  8262   0.201E+00-0.880E-03
CGA:   5    -0.368362584139E+03   -0.41017E-01   -0.40926E-01  8262   0.551E-01-0.455E-03
CGA:   6    -0.368374962844E+03   -0.12379E-01   -0.12362E-01  8262   0.186E-01-0.106E-03
CGA:   7    -0.368380246157E+03   -0.52833E-02   -0.52783E-02  8262   0.806E-02-0.458E-04
CGA:   8    -0.368382835920E+03   -0.25898E-02   -0.25894E-02  8262   0.392E-02-0.679E-05
CGA:   9    -0.368384140313E+03   -0.13044E-02   -0.13002E-02  8262   0.156E-02-0.668E-04
CGA:  10    -0.368384676870E+03   -0.53656E-03   -0.53202E-03  8262   0.674E-03-0.958E-04
CGA:  11    -0.368384904008E+03   -0.22714E-03   -0.22675E-03  8262   0.305E-03-0.121E-04
CGA:  12    -0.368385032779E+03   -0.12877E-03   -0.13002E-03  8262   0.173E-03-0.283E-04
CGA:  13    -0.368385083643E+03   -0.50864E-04   -0.51964E-04  8262   0.571E-04 0.178E-04
CGA:  14    -0.368385107650E+03   -0.24007E-04   -0.23957E-04  8262   0.235E-04-0.597E-05
CGA:  15    -0.368385111064E+03   -0.34142E-05   -0.47067E-05  8262   0.864E-05 0.782E-05
  29 F= -.36838511E+03 E0= -.36838511E+03  d E =0.767124E-01  mag=    16.0000
       N       E                     dE             d eps       ncg     rms          ort
SDA:   1    -0.368193166227E+03    0.19194E+00    0.00000E+00  8262   0.584E+00 0.000E+00
CGA:   2    -0.368387425402E+03   -0.19426E+00   -0.19424E+00  8262   0.179E+00-0.433E-03
CGA:   3    -0.368427341219E+03   -0.39916E-01   -0.39889E-01  8262   0.513E-01-0.231E-03
CGA:   4    -0.368436736043E+03   -0.93948E-02   -0.94239E-02  8262   0.131E-01 0.147E-03
CGA:   5    -0.368439621211E+03   -0.28852E-02   -0.29094E-02  8262   0.391E-02 0.185E-03
CGA:   6    -0.368440637734E+03   -0.10165E-02   -0.10245E-02  8262   0.178E-02 0.900E-04
CGA:   7    -0.368441139645E+03   -0.50191E-03   -0.49908E-03  8262   0.701E-03-0.426E-04
CGA:   8    -0.368441347530E+03   -0.20789E-03   -0.20803E-03  8262   0.255E-03 0.390E-05
CGA:   9    -0.368441411088E+03   -0.63558E-04   -0.65927E-04  8262   0.758E-04 0.298E-04
CGA:  10    -0.368441438386E+03   -0.27298E-04   -0.27313E-04  8262   0.333E-04 0.146E-05
CGA:  11    -0.368441445816E+03   -0.74307E-05   -0.83188E-05  8262   0.134E-04 0.102E-04
CGA:  12    -0.368441451472E+03   -0.56551E-05   -0.12561E-04  8262   0.458E-04-0.177E-04
  30 F= -.36844145E+03 E0= -.36844145E+03  d E =-.563404E-01  mag=    16.0000
       N       E                     dE             d eps       ncg     rms          ort
SDA:   1    -0.368422435287E+03    0.19011E-01    0.00000E+00  8262   0.649E-01 0.000E+00
CGA:   2    -0.368442715822E+03   -0.20281E-01   -0.20276E-01  8262   0.245E-01-0.187E-03
CGA:   3    -0.368447563387E+03   -0.48476E-02   -0.48319E-02  8262   0.710E-02-0.117E-03
CGA:   4    -0.368448847065E+03   -0.12837E-02   -0.12910E-02  8262   0.158E-02 0.476E-04
CGA:   5    -0.368449174207E+03   -0.32714E-03   -0.33736E-03  8262   0.451E-03 0.916E-04
CGA:   6    -0.368449280951E+03   -0.10674E-03   -0.11021E-03  8262   0.183E-03 0.402E-04
CGA:   7    -0.368449346073E+03   -0.65121E-04   -0.65390E-04  8262   0.949E-04-0.184E-04
CGA:   8    -0.368449374403E+03   -0.28331E-04   -0.28644E-04  8262   0.447E-04-0.143E-04
CGA:   9    -0.368449382753E+03   -0.83494E-05   -0.87579E-05  8262   0.134E-04 0.483E-05
  31 F= -.36844938E+03 E0= -.36844938E+03  d E =-.793128E-02  mag=    16.0000
       N       E                     dE             d eps       ncg     rms          ort
SDA:   1    -0.368429287641E+03    0.20087E-01    0.00000E+00  8262   0.652E-01 0.000E+00
CGA:   2    -0.368447023274E+03   -0.17736E-01   -0.17727E-01  8262   0.284E-01-0.265E-03
CGA:   3    -0.368452574601E+03   -0.55513E-02   -0.55343E-02  8262   0.775E-02-0.159E-03
CGA:   4    -0.368453954265E+03   -0.13797E-02   -0.13871E-02  8262   0.160E-02 0.597E-04
CGA:   5    -0.368454260245E+03   -0.30598E-03   -0.31743E-03  8262   0.431E-03 0.117E-03
CGA:   6    -0.368454356081E+03   -0.95836E-04   -0.99710E-04  8262   0.155E-03 0.525E-04
CGA:   7    -0.368454415473E+03   -0.59392E-04   -0.60445E-04  8262   0.940E-04-0.172E-04
CGA:   8    -0.368454443896E+03   -0.28423E-04   -0.30119E-04  8262   0.569E-04-0.237E-04
CGA:   9    -0.368454454535E+03   -0.10639E-04   -0.10630E-04  8262   0.201E-04-0.237E-06
CGA:  10    -0.368454458556E+03   -0.40213E-05   -0.43247E-05  8262   0.867E-05 0.411E-05
  32 F= -.36845446E+03 E0= -.36845446E+03  d E =-.507580E-02  mag=    16.0000
       N       E                     dE             d eps       ncg     rms          ort
SDA:   1    -0.368445133483E+03    0.93211E-02    0.00000E+00  8262   0.341E-01 0.000E+00
CGA:   2    -0.368453755585E+03   -0.86221E-02   -0.86153E-02  8262   0.146E-01-0.211E-03
CGA:   3    -0.368456641824E+03   -0.28862E-02   -0.28779E-02  8262   0.403E-02-0.975E-04
CGA:   4    -0.368457331709E+03   -0.68989E-03   -0.69593E-03  8262   0.771E-03 0.554E-04
CGA:   5    -0.368457470052E+03   -0.13834E-03   -0.14537E-03  8262   0.184E-03 0.783E-04
CGA:   6    -0.368457510119E+03   -0.40067E-04   -0.41855E-04  8262   0.607E-04 0.278E-04
CGA:   7    -0.368457534674E+03   -0.24555E-04   -0.25592E-04  8262   0.448E-04-0.106E-04
CGA:   8    -0.368457546480E+03   -0.11806E-04   -0.12372E-04  8262   0.271E-04-0.922E-05
CGA:   9    -0.368457552719E+03   -0.62387E-05   -0.62854E-05  8262   0.120E-04-0.285E-05
  33 F= -.36845755E+03 E0= -.36845755E+03  d E =-.309416E-02  mag=    16.0000
       N       E                     dE             d eps       ncg     rms          ort
SDA:   1    -0.368430885216E+03    0.26661E-01    0.00000E+00  8262   0.872E-01 0.000E+00
CGA:   2    -0.368451992170E+03   -0.21107E-01   -0.21099E-01  8262   0.366E-01-0.283E-03
CGA:   3    -0.368459308583E+03   -0.73164E-02   -0.73087E-02  8262   0.102E-01-0.109E-03
CGA:   4    -0.368461095892E+03   -0.17873E-02   -0.17969E-02  8262   0.191E-02 0.100E-03
CGA:   5    -0.368461463469E+03   -0.36758E-03   -0.37542E-03  8262   0.479E-03 0.113E-03
CGA:   6    -0.368461573593E+03   -0.11012E-03   -0.11127E-03  8262   0.163E-03 0.272E-04
CGA:   7    -0.368461630222E+03   -0.56629E-04   -0.58032E-04  8262   0.963E-04-0.182E-04
CGA:   8    -0.368461656504E+03   -0.26282E-04   -0.26440E-04  8262   0.451E-04-0.342E-05
CGA:   9    -0.368461669721E+03   -0.13217E-04   -0.13205E-04  8262   0.170E-04 0.279E-06
CGA:  10    -0.368461673819E+03   -0.40981E-05   -0.41780E-05  8262   0.602E-05 0.362E-05
  34 F= -.36846167E+03 E0= -.36846167E+03  d E =-.412110E-02  mag=    16.0000
       N       E                     dE             d eps       ncg     rms          ort
SDA:   1    -0.368403083741E+03    0.58586E-01    0.00000E+00  8262   0.183E+00 0.000E+00
CGA:   2    -0.368445996537E+03   -0.42913E-01   -0.42906E-01  8262   0.752E-01-0.348E-03
CGA:   3    -0.368461124839E+03   -0.15128E-01   -0.15123E-01  8262   0.215E-01-0.990E-04
CGA:   4    -0.368464879179E+03   -0.37543E-02   -0.37677E-02  8262   0.400E-02 0.156E-03
CGA:   5    -0.368465673705E+03   -0.79453E-03   -0.80234E-03  8262   0.102E-02 0.140E-03
CGA:   6    -0.368465911703E+03   -0.23800E-03   -0.23836E-03  8262   0.357E-03 0.132E-04
CGA:   7    -0.368466025277E+03   -0.11357E-03   -0.11541E-03  8262   0.191E-03-0.268E-04
CGA:   8    -0.368466078891E+03   -0.53614E-04   -0.53439E-04  8262   0.854E-04 0.356E-05
CGA:   9    -0.368466107367E+03   -0.28476E-04   -0.28577E-04  8262   0.350E-04-0.145E-05
CGA:  10    -0.368466117861E+03   -0.10494E-04   -0.10406E-04  8262   0.132E-04 0.204E-05
CGA:  11    -0.368466122141E+03   -0.42801E-05   -0.41930E-05  8262   0.560E-05 0.230E-05
  35 F= -.36846612E+03 E0= -.36846612E+03  d E =-.444832E-02  mag=    16.0000
       N       E                     dE             d eps       ncg     rms          ort
SDA:   1    -0.368380306528E+03    0.85811E-01    0.00000E+00  8262   0.275E+00 0.000E+00
CGA:   2    -0.368440333974E+03   -0.60027E-01   -0.60013E-01  8262   0.110E+00-0.354E-03
CGA:   3    -0.368462617427E+03   -0.22283E-01   -0.22280E-01  8262   0.322E-01-0.429E-04
CGA:   4    -0.368468323211E+03   -0.57058E-02   -0.57249E-02  8262   0.588E-02 0.167E-03
CGA:   5    -0.368469500693E+03   -0.11775E-02   -0.11863E-02  8262   0.156E-02 0.106E-03
CGA:   6    -0.368469854865E+03   -0.35417E-03   -0.35323E-03  8262   0.518E-03-0.170E-04
CGA:   7    -0.368470008449E+03   -0.15358E-03   -0.15420E-03  8262   0.254E-03-0.249E-04
CGA:   8    -0.368470079056E+03   -0.70607E-04   -0.70350E-04  8262   0.109E-03 0.188E-04
CGA:   9    -0.368470119048E+03   -0.39992E-04   -0.39974E-04  8262   0.496E-04 0.218E-06
CGA:  10    -0.368470137879E+03   -0.18832E-04   -0.20410E-04  8262   0.321E-04-0.122E-04
CGA:  11    -0.368470145799E+03   -0.79198E-05   -0.80172E-05  8262   0.138E-04-0.223E-05
  36 F= -.36847015E+03 E0= -.36847015E+03  d E =-.402366E-02  mag=    16.0000
       N       E                     dE             d eps       ncg     rms          ort
SDA:   1    -0.368314502696E+03    0.15564E+00    0.00000E+00  8262   0.454E+00 0.000E+00
CGA:   2    -0.368424174256E+03   -0.10967E+00   -0.10966E+00  8262   0.196E+00-0.504E-03
CGA:   3    -0.368462184977E+03   -0.38011E-01   -0.38017E-01  8262   0.508E-01 0.557E-04
CGA:   4    -0.368471014461E+03   -0.88295E-02   -0.88536E-02  8262   0.912E-02 0.197E-03
CGA:   5    -0.368472862022E+03   -0.18476E-02   -0.18568E-02  8262   0.237E-02 0.113E-03
CGA:   6    -0.368473385043E+03   -0.52302E-03   -0.52158E-03  8262   0.735E-03-0.241E-04
CGA:   7    -0.368473595479E+03   -0.21044E-03   -0.21076E-03  8262   0.338E-03-0.241E-04
CGA:   8    -0.368473692735E+03   -0.97256E-04   -0.96746E-04  8262   0.150E-03 0.271E-04
CGA:   9    -0.368473749273E+03   -0.56538E-04   -0.56388E-04  8262   0.697E-04 0.210E-05
CGA:  10    -0.368473775252E+03   -0.25979E-04   -0.27099E-04  8262   0.371E-04-0.110E-04
CGA:  11    -0.368473785632E+03   -0.10380E-04   -0.10465E-04  8262   0.152E-04-0.177E-05
CGA:  12    -0.368473791564E+03   -0.59325E-05   -0.69296E-05  8262   0.116E-04-0.523E-05
  37 F= -.36847379E+03 E0= -.36847379E+03  d E =-.364576E-02  mag=    16.0000
       N       E                     dE             d eps       ncg     rms          ort
SDA:   1    -0.368453294883E+03    0.20491E-01    0.00000E+00  8262   0.578E-01 0.000E+00
CGA:   2    -0.368466748788E+03   -0.13454E-01   -0.13466E-01  8262   0.242E-01 0.163E-03
CGA:   3    -0.368471577282E+03   -0.48285E-02   -0.48316E-02  8262   0.666E-02 0.319E-04
CGA:   4    -0.368472795485E+03   -0.12182E-02   -0.12107E-02  8262   0.130E-02-0.718E-04
CGA:   5    -0.368473065473E+03   -0.26999E-03   -0.26698E-03  8262   0.355E-03-0.405E-04
CGA:   6    -0.368473136231E+03   -0.70758E-04   -0.71689E-04  8262   0.105E-03 0.133E-04
CGA:   7    -0.368473163816E+03   -0.27585E-04   -0.27818E-04  8262   0.400E-04 0.120E-04
CGA:   8    -0.368473179448E+03   -0.15632E-04   -0.15926E-04  8262   0.262E-04-0.352E-05
CGA:   9    -0.368473185237E+03   -0.57890E-05   -0.59202E-05  8262   0.957E-05 0.440E-05
  38 F= -.36847319E+03 E0= -.36847319E+03  d E =0.606328E-03  mag=    16.0000
       N       E                     dE             d eps       ncg     rms          ort
SDA:   1    -0.368450756165E+03    0.22423E-01    0.00000E+00  8262   0.552E-01 0.000E+00
CGA:   2    -0.368467378796E+03   -0.16623E-01   -0.16622E-01  8262   0.231E-01-0.603E-05
CGA:   3    -0.368471528355E+03   -0.41496E-02   -0.41576E-02  8262   0.512E-02 0.809E-04
CGA:   4    -0.368472455056E+03   -0.92670E-03   -0.92406E-03  8262   0.103E-02-0.299E-04
CGA:   5    -0.368472669865E+03   -0.21481E-03   -0.21328E-03  8262   0.282E-03-0.264E-04
CGA:   6    -0.368472726676E+03   -0.56811E-04   -0.56954E-04  8262   0.803E-04 0.247E-05
CGA:   7    -0.368472746805E+03   -0.20129E-04   -0.20211E-04  8262   0.286E-04 0.726E-05
CGA:   8    -0.368472756116E+03   -0.93109E-05   -0.91798E-05  8262   0.133E-04 0.387E-05
  39 F= -.36847276E+03 E0= -.36847276E+03  d E =0.429121E-03  mag=    16.0000
       N       E                     dE             d eps       ncg     rms          ort
SDA:   1    -0.368138966175E+03    0.33378E+00    0.00000E+00  8262   0.801E+00 0.000E+00
CGA:   2    -0.368401267998E+03   -0.26230E+00   -0.26231E+00  8262   0.308E+00-0.304E-03
CGA:   3    -0.368455326775E+03   -0.54059E-01   -0.54089E-01  8262   0.658E-01 0.252E-03
CGA:   4    -0.368467082228E+03   -0.11755E-01   -0.11755E-01  8262   0.134E-01-0.206E-04
CGA:   5    -0.368469870144E+03   -0.27879E-02   -0.27865E-02  8262   0.339E-02-0.305E-04
CGA:   6    -0.368470590647E+03   -0.72050E-03   -0.71975E-03  8262   0.979E-03-0.184E-04
CGA:   7    -0.368470851226E+03   -0.26058E-03   -0.26048E-03  8262   0.377E-03 0.663E-05
CGA:   8    -0.368470966844E+03   -0.11562E-03   -0.11457E-03  8262   0.164E-03 0.220E-04
CGA:   9    -0.368471025862E+03   -0.59018E-04   -0.59348E-04  8262   0.675E-04-0.384E-05
CGA:  10    -0.368471047817E+03   -0.21954E-04   -0.22557E-04  8262   0.246E-04-0.744E-05
CGA:  11    -0.368471055103E+03   -0.72864E-05   -0.11856E-04  8262   0.295E-04-0.166E-04
  40 F= -.36847106E+03 E0= -.36847106E+03  d E =0.170101E-02  mag=    16.0000
       N       E                     dE             d eps       ncg     rms          ort
SDA:   1    -0.365830883498E+03    0.26402E+01    0.00000E+00  8262   0.648E+01 0.000E+00
CGA:   2    -0.367785319889E+03   -0.19544E+01   -0.19543E+01  8262   0.267E+01 0.360E-02
CGA:   3    -0.368271175763E+03   -0.48586E+00   -0.48569E+00  8262   0.638E+00-0.249E-02
CGA:   4    -0.368385915498E+03   -0.11474E+00   -0.11474E+00  8262   0.130E+00-0.136E-03
CGA:   5    -0.368412679551E+03   -0.26764E-01   -0.26797E-01  8262   0.346E-01 0.506E-03
CGA:   6    -0.368420464550E+03   -0.77850E-02   -0.77864E-02  8262   0.117E-01 0.210E-04
CGA:   7    -0.368423803439E+03   -0.33389E-02   -0.33449E-02  8262   0.502E-02-0.251E-03
CGA:   8    -0.368425363964E+03   -0.15605E-02   -0.15691E-02  8262   0.227E-02-0.152E-03
CGA:   9    -0.368426042166E+03   -0.67820E-03   -0.67881E-03  8262   0.764E-03-0.149E-04
CGA:  10    -0.368426274011E+03   -0.23184E-03   -0.23106E-03  8262   0.260E-03 0.214E-04
CGA:  11    -0.368426376546E+03   -0.10253E-03   -0.10607E-03  8262   0.151E-03-0.279E-04
CGA:  12    -0.368426436469E+03   -0.59923E-04   -0.69453E-04  8262   0.118E-03-0.402E-04
CGA:  13    -0.368426460184E+03   -0.23716E-04   -0.23910E-04  8262   0.463E-04 0.164E-04
CGA:  14    -0.368426470042E+03   -0.98579E-05   -0.11026E-04  8262   0.165E-04 0.149E-04
  41 F= -.36842647E+03 E0= -.36842647E+03  d E =0.445851E-01  mag=    16.0000
       N       E                     dE             d eps       ncg     rms          ort
SDA:   1    -0.368390295079E+03    0.36165E-01    0.00000E+00  8262   0.128E+00 0.000E+00
CGA:   2    -0.368432271831E+03   -0.41977E-01   -0.41989E-01  8262   0.385E-01-0.257E-03
CGA:   3    -0.368440156951E+03   -0.78851E-02   -0.78906E-02  8262   0.111E-01 0.624E-04
CGA:   4    -0.368442229555E+03   -0.20726E-02   -0.20602E-02  8262   0.265E-02-0.138E-03
CGA:   5    -0.368442808884E+03   -0.57933E-03   -0.57692E-03  8262   0.833E-03-0.459E-04
CGA:   6    -0.368442993009E+03   -0.18412E-03   -0.18560E-03  8262   0.316E-03 0.335E-04
CGA:   7    -0.368443077082E+03   -0.84073E-04   -0.84406E-04  8262   0.113E-03 0.290E-04
CGA:   8    -0.368443112895E+03   -0.35813E-04   -0.35531E-04  8262   0.442E-04 0.145E-04
CGA:   9    -0.368443126529E+03   -0.13634E-04   -0.13613E-04  8262   0.156E-04 0.504E-05
CGA:  10    -0.368443132677E+03   -0.61487E-05   -0.64293E-05  8262   0.852E-05-0.279E-05
  42 F= -.36844313E+03 E0= -.36844313E+03  d E =-.166626E-01  mag=    16.0000
       N       E                     dE             d eps       ncg     rms          ort
SDA:   1    -0.368439132994E+03    0.39935E-02    0.00000E+00  8262   0.214E-01 0.000E+00
CGA:   2    -0.368445981099E+03   -0.68481E-02   -0.68548E-02  8262   0.707E-02-0.124E-03
CGA:   3    -0.368447329802E+03   -0.13487E-02   -0.13525E-02  8262   0.196E-02 0.484E-04
CGA:   4    -0.368447708507E+03   -0.37871E-03   -0.37490E-03  8262   0.480E-03-0.512E-04
CGA:   5    -0.368447809560E+03   -0.10105E-03   -0.99604E-04  8262   0.157E-03-0.299E-04
CGA:   6    -0.368447840400E+03   -0.30840E-04   -0.31192E-04  8262   0.510E-04 0.751E-05
CGA:   7    -0.368447852160E+03   -0.11760E-04   -0.12113E-04  8262   0.178E-04 0.117E-04
CGA:   8    -0.368447857099E+03   -0.49394E-05   -0.50805E-05  8262   0.811E-05 0.607E-05
  43 F= -.36844786E+03 E0= -.36844786E+03  d E =-.472442E-02  mag=    16.0000
       N       E                     dE             d eps       ncg     rms          ort
SDA:   1    -0.368317389133E+03    0.13046E+00    0.00000E+00  8262   0.357E+00 0.000E+00
CGA:   2    -0.368425630667E+03   -0.10824E+00   -0.10826E+00  8262   0.133E+00-0.542E-03
CGA:   3    -0.368450337391E+03   -0.24707E-01   -0.24726E-01  8262   0.348E-01 0.248E-03
CGA:   4    -0.368456883582E+03   -0.65462E-02   -0.65365E-02  8262   0.764E-02-0.158E-03
CGA:   5    -0.368458513394E+03   -0.16298E-02   -0.16246E-02  8262   0.220E-02-0.146E-03
CGA:   6    -0.368459003770E+03   -0.49038E-03   -0.49074E-03  8262   0.789E-03 0.167E-04
CGA:   7    -0.368459216291E+03   -0.21252E-03   -0.21154E-03  8262   0.300E-03 0.512E-04
CGA:   8    -0.368459308830E+03   -0.92539E-04   -0.91315E-04  8262   0.119E-03 0.324E-04
CGA:   9    -0.368459350909E+03   -0.42079E-04   -0.42025E-04  8262   0.468E-04 0.728E-06
CGA:  10    -0.368459367955E+03   -0.17046E-04   -0.20757E-04  8262   0.374E-04-0.198E-04
CGA:  11    -0.368459370552E+03   -0.25975E-05   -0.34225E-05  8262   0.194E-04 0.792E-05
  44 F= -.36845937E+03 E0= -.36845937E+03  d E =-.115135E-01  mag=    16.0000
       N       E                     dE             d eps       ncg     rms          ort
SDA:   1    -0.368459167832E+03    0.20012E-03    0.00000E+00  8262   0.365E-02 0.000E+00
CGA:   2    -0.368460174417E+03   -0.10066E-02   -0.10084E-02  8262   0.155E-02-0.767E-04
CGA:   3    -0.368460496806E+03   -0.32239E-03   -0.32481E-03  8262   0.361E-03 0.629E-04
CGA:   4    -0.368460560487E+03   -0.63681E-04   -0.64816E-04  8262   0.799E-04 0.143E-04
CGA:   5    -0.368460580051E+03   -0.19565E-04   -0.19572E-04  8262   0.245E-04 0.663E-06
CGA:   6    -0.368460588228E+03   -0.81764E-05   -0.11002E-04  8262   0.338E-04-0.142E-04
  45 F= -.36846059E+03 E0= -.36846059E+03  d E =-.121768E-02  mag=    16.0000
       N       E                     dE             d eps       ncg     rms          ort
SDA:   1    -0.368442307066E+03    0.18273E-01    0.00000E+00  8262   0.598E-01 0.000E+00
CGA:   2    -0.368458044336E+03   -0.15737E-01   -0.15740E-01  8262   0.246E-01-0.290E-03
CGA:   3    -0.368462982738E+03   -0.49384E-02   -0.49469E-02  8262   0.649E-02 0.168E-03
CGA:   4    -0.368464109114E+03   -0.11264E-02   -0.11271E-02  8262   0.130E-02 0.743E-05
CGA:   5    -0.368464390288E+03   -0.28117E-03   -0.28003E-03  8262   0.365E-03-0.381E-04
CGA:   6    -0.368464471427E+03   -0.81139E-04   -0.80994E-04  8262   0.135E-03-0.953E-05
CGA:   7    -0.368464509431E+03   -0.38003E-04   -0.38035E-04  8262   0.595E-04-0.704E-06
CGA:   8    -0.368464526134E+03   -0.16703E-04   -0.16446E-04  8262   0.237E-04 0.797E-05
CGA:   9    -0.368464536100E+03   -0.99657E-05   -0.10458E-04  8262   0.149E-04-0.349E-05
CGA:  10    -0.368464480839E+03    0.55260E-04   -0.29818E-04  8262   0.289E-03-0.553E-04
CGA:  11    -0.368464530374E+03   -0.49535E-04   -0.54623E-04  8262   0.300E-04 0.185E-04
CGA:  12    -0.368464542281E+03   -0.11907E-04   -0.11923E-04  8262   0.115E-04 0.199E-06
CGA:  13    -0.368464544672E+03   -0.23914E-05   -0.30836E-05  8262   0.384E-05 0.384E-05
CGA:  14    -0.368464549399E+03   -0.47265E-05    0.20640E-04  8262   0.331E-05-0.491E-06
  46 F= -.36846455E+03 E0= -.36846455E+03  d E =-.396117E-02  mag=    16.0000
       N       E                     dE             d eps       ncg     rms          ort
SDA:   1    -0.368453416021E+03    0.11129E-01    0.00000E+00  8262   0.374E-01 0.000E+00
CGA:   2    -0.368463161080E+03   -0.97451E-02   -0.97226E-02  8262   0.145E-01-0.156E-03
CGA:   3    -0.368466165175E+03   -0.30041E-02   -0.30194E-02  8262   0.379E-02 0.711E-04
CGA:   4    -0.368466824519E+03   -0.65934E-03   -0.65902E-03  8262   0.759E-03-0.289E-05
CGA:   5    -0.368466988567E+03   -0.16405E-03   -0.16191E-03  8262   0.195E-03-0.118E-04
CGA:   6    -0.368467032564E+03   -0.43997E-04   -0.43565E-04  8262   0.713E-04-0.278E-05
CGA:   7    -0.368467052880E+03   -0.20316E-04   -0.20199E-04  8262   0.316E-04-0.128E-05
CGA:   8    -0.368467060865E+03   -0.79856E-05   -0.84436E-05  8262   0.122E-04 0.448E-05
  47 F= -.36846706E+03 E0= -.36846706E+03  d E =-.251147E-02  mag=    16.0000
       N       E                     dE             d eps       ncg     rms          ort
SDA:   1    -0.368445198271E+03    0.21855E-01    0.00000E+00  8262   0.704E-01 0.000E+00
CGA:   2    -0.368462572732E+03   -0.17374E-01   -0.17353E-01  8262   0.266E-01-0.229E-03
CGA:   3    -0.368468233733E+03   -0.56610E-02   -0.56745E-02  8262   0.737E-02 0.884E-04
CGA:   4    -0.368469495654E+03   -0.12619E-02   -0.12622E-02  8262   0.140E-02-0.120E-05
CGA:   5    -0.368469799274E+03   -0.30362E-03   -0.30275E-03  8262   0.372E-03-0.675E-05
CGA:   6    -0.368469883613E+03   -0.84339E-04   -0.84141E-04  8262   0.143E-03-0.194E-05
CGA:   7    -0.368469927621E+03   -0.44008E-04   -0.43851E-04  8262   0.741E-04-0.637E-05
CGA:   8    -0.368469948805E+03   -0.21183E-04   -0.21346E-04  8262   0.329E-04 0.529E-05
CGA:   9    -0.368469961318E+03   -0.12513E-04   -0.12561E-04  8262   0.161E-04-0.186E-05
CGA:  10    -0.368469966611E+03   -0.52934E-05   -0.96155E-05  8262   0.304E-04-0.144E-04
  48 F= -.36846997E+03 E0= -.36846997E+03  d E =-.290575E-02  mag=    16.0000
       N       E                     dE             d eps       ncg     rms          ort
SDA:   1    -0.368447149041E+03    0.22812E-01    0.00000E+00  8262   0.748E-01 0.000E+00
CGA:   2    -0.368465169263E+03   -0.18020E-01   -0.18004E-01  8262   0.255E-01-0.233E-03
CGA:   3    -0.368470975588E+03   -0.58063E-02   -0.58121E-02  8262   0.688E-02 0.550E-04
CGA:   4    -0.368472123126E+03   -0.11475E-02   -0.11487E-02  8262   0.139E-02 0.442E-05
CGA:   5    -0.368472413013E+03   -0.28989E-03   -0.29172E-03  8262   0.321E-03 0.165E-04
CGA:   6    -0.368472490368E+03   -0.77355E-04   -0.77109E-04  8262   0.132E-03-0.332E-05
CGA:   7    -0.368472532438E+03   -0.42071E-04   -0.42245E-04  8262   0.789E-04-0.142E-04
CGA:   8    -0.368472553674E+03   -0.21236E-04   -0.21281E-04  8262   0.353E-04 0.493E-05
CGA:   9    -0.368472566568E+03   -0.12894E-04   -0.12950E-04  8262   0.168E-04-0.165E-05
CGA:  10    -0.368472572300E+03   -0.57320E-05   -0.91933E-05  8262   0.256E-04-0.133E-04
  49 F= -.36847257E+03 E0= -.36847257E+03  d E =-.260569E-02  mag=    16.0000
       N       E                     dE             d eps       ncg     rms          ort
SDA:   1    -0.368429588226E+03    0.42978E-01    0.00000E+00  8262   0.138E+00 0.000E+00
CGA:   2    -0.368462099971E+03   -0.32512E-01   -0.32500E-01  8262   0.476E-01-0.269E-03
CGA:   3    -0.368472761106E+03   -0.10661E-01   -0.10665E-01  8262   0.132E-01 0.485E-04
CGA:   4    -0.368474930540E+03   -0.21694E-02   -0.21752E-02  8262   0.251E-02 0.340E-04
CGA:   5    -0.368475452299E+03   -0.52176E-03   -0.52599E-03  8262   0.588E-03 0.456E-04
CGA:   6    -0.368475589526E+03   -0.13723E-03   -0.13695E-03  8262   0.225E-03-0.428E-05
CGA:   7    -0.368475661648E+03   -0.72123E-04   -0.72892E-04  8262   0.136E-03-0.245E-04
CGA:   8    -0.368475700826E+03   -0.39178E-04   -0.39114E-04  8262   0.675E-04 0.229E-05
CGA:   9    -0.368475724763E+03   -0.23937E-04   -0.24170E-04  8262   0.312E-04-0.425E-05
CGA:  10    -0.368475735869E+03   -0.11106E-04   -0.12725E-04  8262   0.218E-04-0.120E-04
CGA:  11    -0.368475740020E+03   -0.41511E-05   -0.41563E-05  8262   0.925E-05-0.173E-05
  50 F= -.36847574E+03 E0= -.36847574E+03  d E =-.316772E-02  mag=    16.0000
       N       E                     dE             d eps       ncg     rms          ort
SDA:   1    -0.368310905236E+03    0.16483E+00    0.00000E+00  8262   0.487E+00 0.000E+00
CGA:   2    -0.368431345584E+03   -0.12044E+00   -0.12046E+00  8262   0.181E+00-0.189E-03
CGA:   3    -0.368470293617E+03   -0.38948E-01   -0.38950E-01  8262   0.468E-01 0.252E-04
CGA:   4    -0.368477926220E+03   -0.76326E-02   -0.76424E-02  8262   0.869E-02 0.494E-04
CGA:   5    -0.368479761501E+03   -0.18353E-02   -0.18429E-02  8262   0.209E-02 0.900E-04
CGA:   6    -0.368480225668E+03   -0.46417E-03   -0.46331E-03  8262   0.727E-03-0.126E-04
CGA:   7    -0.368480444098E+03   -0.21843E-03   -0.21909E-03  8262   0.375E-03-0.453E-04
CGA:   8    -0.368480561447E+03   -0.11735E-03   -0.11722E-03  8262   0.196E-03 0.284E-05
CGA:   9    -0.368480632068E+03   -0.70621E-04   -0.71469E-04  8262   0.916E-04-0.123E-04
CGA:  10    -0.368480662449E+03   -0.30382E-04   -0.31408E-04  8262   0.412E-04-0.145E-04
CGA:  11    -0.368480675013E+03   -0.12563E-04   -0.12977E-04  8262   0.189E-04-0.547E-05
CGA:  12    -0.368480681056E+03   -0.60433E-05   -0.10715E-04  8262   0.266E-04-0.133E-04
  51 F= -.36848068E+03 E0= -.36848068E+03  d E =-.494104E-02  mag=    16.0000
       N       E                     dE             d eps       ncg     rms          ort
SDA:   1    -0.368449827321E+03    0.30848E-01    0.00000E+00  8262   0.753E-01 0.000E+00
CGA:   2    -0.368472960502E+03   -0.23133E-01   -0.23135E-01  8262   0.295E-01 0.255E-03
CGA:   3    -0.368478749049E+03   -0.57885E-02   -0.57668E-02  8262   0.639E-02-0.191E-03
CGA:   4    -0.368479830742E+03   -0.10817E-02   -0.10825E-02  8262   0.132E-02 0.350E-05
CGA:   5    -0.368480105235E+03   -0.27449E-03   -0.27679E-03  8262   0.338E-03 0.248E-04
CGA:   6    -0.368480183958E+03   -0.78722E-04   -0.78350E-04  8262   0.121E-03-0.554E-05
CGA:   7    -0.368480217915E+03   -0.33957E-04   -0.33941E-04  8262   0.535E-04-0.197E-05
CGA:   8    -0.368480234222E+03   -0.16307E-04   -0.16249E-04  8262   0.240E-04 0.352E-05
CGA:   9    -0.368480242986E+03   -0.87641E-05   -0.87888E-05  8262   0.104E-04-0.497E-06
  52 F= -.36848024E+03 E0= -.36848024E+03  d E =0.438070E-03  mag=    16.0000
       N       E                     dE             d eps       ncg     rms          ort
SDA:   1    -0.368361988481E+03    0.11825E+00    0.00000E+00  8262   0.281E+00 0.000E+00
CGA:   2    -0.368454304922E+03   -0.92316E-01   -0.92299E-01  8262   0.101E+00 0.442E-03
CGA:   3    -0.368473960488E+03   -0.19656E-01   -0.19624E-01  8262   0.206E-01-0.337E-03
CGA:   4    -0.368477508724E+03   -0.35482E-02   -0.35540E-02  8262   0.459E-02 0.419E-04
CGA:   5    -0.368478463540E+03   -0.95482E-03   -0.95843E-03  8262   0.114E-02 0.466E-04
CGA:   6    -0.368478726036E+03   -0.26250E-03   -0.26137E-03  8262   0.409E-03-0.214E-04
CGA:   7    -0.368478840402E+03   -0.11437E-03   -0.11445E-03  8262   0.181E-03-0.125E-04
CGA:   8    -0.368478897838E+03   -0.57436E-04   -0.57253E-04  8262   0.860E-04 0.384E-05
CGA:   9    -0.368478928461E+03   -0.30624E-04   -0.31196E-04  8262   0.383E-04-0.768E-05
CGA:  10    -0.368478938296E+03   -0.98344E-05   -0.98394E-05  8262   0.117E-04 0.248E-05
CGA:  11    -0.368478933367E+03    0.49292E-05   -0.12509E-04  8262   0.762E-04-0.241E-04
CGA:  12    -0.368478947811E+03   -0.14445E-04   -0.15536E-04  8262   0.591E-05 0.934E-05
CGA:  13    -0.368478950223E+03   -0.24117E-05   -0.24818E-05  8262   0.205E-05-0.118E-05
  53 F= -.36847895E+03 E0= -.36847895E+03  d E =0.129276E-02  mag=    16.0000
       N       E                     dE             d eps       ncg     rms          ort
SDA:   1    -0.367301677217E+03    0.11773E+01    0.00000E+00  8262   0.277E+01 0.000E+00
CGA:   2    -0.368253445557E+03   -0.95177E+00   -0.95172E+00  8262   0.919E+00 0.796E-03
CGA:   3    -0.368429769069E+03   -0.17632E+00   -0.17623E+00  8262   0.180E+00-0.107E-02
CGA:   4    -0.368461444169E+03   -0.31675E-01   -0.31687E-01  8262   0.421E-01 0.385E-04
CGA:   5    -0.368470246453E+03   -0.88023E-02   -0.88112E-02  8262   0.985E-02 0.940E-04
CGA:   6    -0.368472436659E+03   -0.21902E-02   -0.21873E-02  8262   0.331E-02-0.455E-04
CGA:   7    -0.368473341149E+03   -0.90449E-03   -0.90391E-03  8262   0.139E-02-0.416E-04
CGA:   8    -0.368473790396E+03   -0.44925E-03   -0.44798E-03  8262   0.664E-03 0.328E-04
CGA:   9    -0.368474019841E+03   -0.22944E-03   -0.23073E-03  8262   0.269E-03-0.259E-04
CGA:  10    -0.368474101278E+03   -0.81437E-04   -0.81583E-04  8262   0.888E-04-0.631E-05
CGA:  11    -0.368474135062E+03   -0.33784E-04   -0.36066E-04  8262   0.545E-04-0.187E-04
CGA:  12    -0.368474153167E+03   -0.18105E-04   -0.19228E-04  8262   0.317E-04-0.765E-05
CGA:  13    -0.368474162154E+03   -0.89877E-05   -0.89203E-05  8262   0.115E-04 0.334E-05
  54 F= -.36847416E+03 E0= -.36847416E+03  d E =0.478807E-02  mag=    16.0000
       N       E                     dE             d eps       ncg     rms          ort
SDA:   1    -0.366758458164E+03    0.17157E+01    0.00000E+00  8262   0.434E+01 0.000E+00
CGA:   2    -0.367991735793E+03   -0.12333E+01   -0.12335E+01  8262   0.170E+01 0.276E-02
CGA:   3    -0.368335820560E+03   -0.34408E+00   -0.34406E+00  8262   0.405E+00-0.371E-03
CGA:   4    -0.368405110899E+03   -0.69290E-01   -0.69236E-01  8262   0.837E-01-0.522E-03
CGA:   5    -0.368423051455E+03   -0.17941E-01   -0.17903E-01  8262   0.217E-01-0.447E-03
CGA:   6    -0.368427938037E+03   -0.48866E-02   -0.48799E-02  8262   0.791E-02-0.102E-03
CGA:   7    -0.368430128495E+03   -0.21905E-02   -0.21890E-02  8262   0.331E-02-0.946E-04
CGA:   8    -0.368431209744E+03   -0.10812E-02   -0.10844E-02  8262   0.163E-02-0.822E-04
CGA:   9    -0.368431728843E+03   -0.51910E-03   -0.52230E-03  8262   0.636E-03-0.940E-04
CGA:  10    -0.368431950750E+03   -0.22191E-03   -0.23834E-03  8262   0.356E-03-0.163E-03
CGA:  11    -0.368432053094E+03   -0.10234E-03   -0.11327E-03  8262   0.214E-03-0.870E-04
CGA:  12    -0.368432099492E+03   -0.46397E-04   -0.11468E-03  8262   0.365E-03-0.170E-03
CGA:  13    -0.368432170621E+03   -0.71129E-04   -0.76466E-04  8262   0.394E-04 0.449E-04
CGA:  14    -0.368432137166E+03    0.33455E-04   -0.51267E-04  8262   0.340E-03-0.101E-03
CGA:  15    -0.368432181601E+03   -0.44435E-04   -0.59823E-04  8262   0.476E-04 0.818E-04
CGA:  16    -0.368432198497E+03   -0.16896E-04   -0.16621E-04  8262   0.701E-05-0.375E-05
CGA:  17    -0.368432209651E+03   -0.11153E-04    0.77781E-06  8262   0.294E-05-0.118E-05
CGA:  18    -0.368432209183E+03    0.46745E-06   -0.12075E-06  8262   0.202E-05 0.195E-05
  55 F= -.36843221E+03 E0= -.36843221E+03  d E =0.419530E-01  mag=    16.0000
       N       E                     dE             d eps       ncg     rms          ort
SDA:   1    -0.368367802486E+03    0.64407E-01    0.00000E+00  8262   0.216E+00 0.000E+00
CGA:   2    -0.368435143755E+03   -0.67341E-01   -0.67340E-01  8262   0.758E-01-0.190E-03
CGA:   3    -0.368452116143E+03   -0.16972E-01   -0.16964E-01  8262   0.184E-01-0.106E-03
CGA:   4    -0.368455489222E+03   -0.33731E-02   -0.33811E-02  8262   0.505E-02 0.553E-04
CGA:   5    -0.368456558992E+03   -0.10698E-02   -0.10806E-02  8262   0.136E-02 0.113E-03
CGA:   6    -0.368456901744E+03   -0.34275E-03   -0.34701E-03  8262   0.578E-03 0.773E-04
CGA:   7    -0.368457054163E+03   -0.15242E-03   -0.15441E-03  8262   0.210E-03 0.412E-04
CGA:   8    -0.368457113579E+03   -0.59417E-04   -0.60624E-04  8262   0.744E-04 0.401E-04
CGA:   9    -0.368457129326E+03   -0.15747E-04   -0.18514E-04  8262   0.256E-04 0.312E-04
CGA:  10    -0.368457132578E+03   -0.32515E-05   -0.57926E-05  8262   0.120E-04 0.190E-04
  56 F= -.36845713E+03 E0= -.36845713E+03  d E =-.249234E-01  mag=    16.0000
       N       E                     dE             d eps       ncg     rms          ort
SDA:   1    -0.368434001177E+03    0.23128E-01    0.00000E+00  8262   0.714E-01 0.000E+00
CGA:   2    -0.368455253664E+03   -0.21252E-01   -0.21255E-01  8262   0.266E-01-0.187E-03
CGA:   3    -0.368460997781E+03   -0.57441E-02   -0.57424E-02  8262   0.681E-02-0.302E-04
CGA:   4    -0.368462191517E+03   -0.11937E-02   -0.12004E-02  8262   0.167E-02 0.639E-04
CGA:   5    -0.368462543159E+03   -0.35164E-03   -0.35736E-03  8262   0.449E-03 0.950E-04
CGA:   6    -0.368462650376E+03   -0.10722E-03   -0.10927E-03  8262   0.184E-03 0.539E-04
CGA:   7    -0.368462701165E+03   -0.50789E-04   -0.51392E-04  8262   0.694E-04 0.339E-04
CGA:   8    -0.368462719281E+03   -0.18117E-04   -0.19036E-04  8262   0.285E-04 0.270E-04
CGA:   9    -0.368462723780E+03   -0.44991E-05   -0.65201E-05  8262   0.128E-04 0.203E-04
  57 F= -.36846272E+03 E0= -.36846272E+03  d E =-.559120E-02  mag=    16.0000
       N       E                     dE             d eps       ncg     rms          ort
SDA:   1    -0.368447195538E+03    0.15524E-01    0.00000E+00  8262   0.518E-01 0.000E+00
CGA:   2    -0.368460118858E+03   -0.12923E-01   -0.12923E-01  8262   0.195E-01-0.241E-03
CGA:   3    -0.368464280363E+03   -0.41615E-02   -0.41607E-02  8262   0.556E-02-0.216E-04
CGA:   4    -0.368465205980E+03   -0.92562E-03   -0.93278E-03  8262   0.110E-02 0.843E-04
CGA:   5    -0.368465423424E+03   -0.21744E-03   -0.22221E-03  8262   0.275E-03 0.101E-03
CGA:   6    -0.368465486699E+03   -0.63275E-04   -0.64446E-04  8262   0.103E-03 0.390E-04
CGA:   7    -0.368465520735E+03   -0.34037E-04   -0.33431E-04  8262   0.501E-04 0.150E-04
CGA:   8    -0.368465535692E+03   -0.14957E-04   -0.14769E-04  8262   0.230E-04 0.152E-04
CGA:   9    -0.368465540971E+03   -0.52791E-05   -0.59050E-05  8262   0.100E-04 0.130E-04
  58 F= -.36846554E+03 E0= -.36846554E+03  d E =-.281719E-02  mag=    16.0000
       N       E                     dE             d eps       ncg     rms          ort
SDA:   1    -0.368461536556E+03    0.39991E-02    0.00000E+00  8262   0.175E-01 0.000E+00
CGA:   2    -0.368465601398E+03   -0.40648E-02   -0.40638E-02  8262   0.615E-02-0.163E-03
CGA:   3    -0.368466937298E+03   -0.13359E-02   -0.13361E-02  8262   0.187E-02 0.101E-04
CGA:   4    -0.368467244193E+03   -0.30689E-03   -0.31093E-03  8262   0.355E-03 0.557E-04
CGA:   5    -0.368467312124E+03   -0.67931E-04   -0.70009E-04  8262   0.885E-04 0.489E-04
CGA:   6    -0.368467335414E+03   -0.23290E-04   -0.23294E-04  8262   0.384E-04 0.859E-05
CGA:   7    -0.368467350899E+03   -0.15485E-04   -0.19583E-04  8262   0.470E-04-0.176E-04
CGA:   8    -0.368467356751E+03   -0.58529E-05   -0.57843E-05  8262   0.282E-04-0.418E-05
  59 F= -.36846736E+03 E0= -.36846736E+03  d E =-.181578E-02  mag=    16.0000
       N       E                     dE             d eps       ncg     rms          ort
SDA:   1    -0.368450385959E+03    0.16965E-01    0.00000E+00  8262   0.623E-01 0.000E+00
CGA:   2    -0.368464227470E+03   -0.13842E-01   -0.13838E-01  8262   0.210E-01-0.263E-03
CGA:   3    -0.368468850340E+03   -0.46229E-02   -0.46231E-02  8262   0.669E-02 0.103E-04
CGA:   4    -0.368469961229E+03   -0.11109E-02   -0.11175E-02  8262   0.122E-02 0.907E-04
CGA:   5    -0.368470209869E+03   -0.24864E-03   -0.25132E-03  8262   0.295E-03 0.864E-04
CGA:   6    -0.368470285223E+03   -0.75354E-04   -0.75339E-04  8262   0.122E-03 0.273E-05
CGA:   7    -0.368470327997E+03   -0.42774E-04   -0.49172E-04  8262   0.106E-03-0.388E-04
CGA:   8    -0.368470350248E+03   -0.22250E-04   -0.24190E-04  8262   0.599E-04-0.213E-04
CGA:   9    -0.368470364524E+03   -0.14276E-04   -0.14789E-04  8262   0.272E-04-0.822E-05
CGA:  10    -0.368470371031E+03   -0.65076E-05   -0.65108E-05  8262   0.115E-04-0.118E-06
  60 F= -.36847037E+03 E0= -.36847037E+03  d E =-.301428E-02  mag=    16.0000
       N       E                     dE             d eps       ncg     rms          ort
SDA:   1    -0.368467855114E+03    0.25094E-02    0.00000E+00  8262   0.116E-01 0.000E+00
CGA:   2    -0.368470474950E+03   -0.26198E-02   -0.26167E-02  8262   0.383E-02-0.131E-03
CGA:   3    -0.368471342782E+03   -0.86783E-03   -0.86782E-03  8262   0.116E-02-0.348E-06
CGA:   4    -0.368471527484E+03   -0.18470E-03   -0.18793E-03  8262   0.214E-03 0.366E-04
CGA:   5    -0.368471565700E+03   -0.38215E-04   -0.40215E-04  8262   0.454E-04 0.321E-04
CGA:   6    -0.368471577156E+03   -0.11456E-04   -0.11563E-04  8262   0.176E-04 0.534E-05
CGA:   7    -0.368471584286E+03   -0.71301E-05   -0.83864E-05  8262   0.189E-04-0.676E-05
  61 F= -.36847158E+03 E0= -.36847158E+03  d E =-.121325E-02  mag=    16.0000
       N       E                     dE             d eps       ncg     rms          ort
SDA:   1    -0.368405831473E+03    0.65746E-01    0.00000E+00  8262   0.235E+00 0.000E+00
CGA:   2    -0.368454157745E+03   -0.48326E-01   -0.48331E-01  8262   0.730E-01-0.157E-03
CGA:   3    -0.368470544203E+03   -0.16386E-01   -0.16385E-01  8262   0.253E-01-0.826E-04
CGA:   4    -0.368474868127E+03   -0.43239E-02   -0.43319E-02  8262   0.470E-02 0.989E-04
CGA:   5    -0.368475826662E+03   -0.95853E-03   -0.96390E-03  8262   0.122E-02 0.143E-03
CGA:   6    -0.368476110487E+03   -0.28382E-03   -0.28400E-03  8262   0.463E-03 0.120E-04
CGA:   7    -0.368476262958E+03   -0.15247E-03   -0.15648E-03  8262   0.282E-03-0.422E-04
CGA:   8    -0.368476347953E+03   -0.84994E-04   -0.86416E-04  8262   0.149E-03-0.153E-04
CGA:   9    -0.368476394449E+03   -0.46496E-04   -0.47455E-04  8262   0.635E-04-0.109E-04
CGA:  10    -0.368476412167E+03   -0.17718E-04   -0.17629E-04  8262   0.225E-04 0.192E-05
CGA:  11    -0.368476419266E+03   -0.70985E-05   -0.69534E-05  8262   0.920E-05 0.329E-05
  62 F= -.36847642E+03 E0= -.36847642E+03  d E =-.483498E-02  mag=    16.0000
       N       E                     dE             d eps       ncg     rms          ort
SDA:   1    -0.368463200375E+03    0.13212E-01    0.00000E+00  8262   0.477E-01 0.000E+00
CGA:   2    -0.368473704305E+03   -0.10504E-01   -0.10500E-01  8262   0.153E-01-0.118E-03
CGA:   3    -0.368477206414E+03   -0.35021E-02   -0.34997E-02  8262   0.474E-02-0.489E-04
CGA:   4    -0.368477979870E+03   -0.77346E-03   -0.77871E-03  8262   0.886E-03 0.458E-04
CGA:   5    -0.368478158048E+03   -0.17818E-03   -0.18155E-03  8262   0.221E-03 0.504E-04
CGA:   6    -0.368478212755E+03   -0.54707E-04   -0.54397E-04  8262   0.944E-04-0.942E-05
CGA:   7    -0.368478243707E+03   -0.30952E-04   -0.34389E-04  8262   0.783E-04-0.297E-04
CGA:   8    -0.368478260688E+03   -0.16981E-04   -0.17763E-04  8262   0.425E-04-0.129E-04
CGA:   9    -0.368478272472E+03   -0.11784E-04   -0.12599E-04  8262   0.218E-04-0.101E-04
CGA:  10    -0.368478277549E+03   -0.50771E-05   -0.51824E-05  8262   0.926E-05-0.310E-05
  63 F= -.36847828E+03 E0= -.36847828E+03  d E =-.185828E-02  mag=    16.0000
       N       E                     dE             d eps       ncg     rms          ort
SDA:   1    -0.368430541517E+03    0.47731E-01    0.00000E+00  8262   0.139E+00 0.000E+00
CGA:   2    -0.368466152936E+03   -0.35611E-01   -0.35614E-01  8262   0.533E-01-0.184E-04
CGA:   3    -0.368477717363E+03   -0.11564E-01   -0.11552E-01  8262   0.128E-01-0.198E-03
CGA:   4    -0.368479791261E+03   -0.20739E-02   -0.20784E-02  8262   0.249E-02 0.342E-04
CGA:   5    -0.368480306793E+03   -0.51553E-03   -0.51898E-03  8262   0.589E-03 0.551E-04
CGA:   6    -0.368480447189E+03   -0.14040E-03   -0.13972E-03  8262   0.218E-03-0.192E-04
CGA:   7    -0.368480510310E+03   -0.63121E-04   -0.63765E-04  8262   0.109E-03-0.178E-04
CGA:   8    -0.368480541311E+03   -0.31001E-04   -0.30787E-04  8262   0.498E-04 0.550E-05
CGA:   9    -0.368480560660E+03   -0.19350E-04   -0.20177E-04  8262   0.276E-04-0.715E-05
CGA:  10    -0.368480567484E+03   -0.68241E-05   -0.68135E-05  8262   0.945E-05 0.794E-06
  64 F= -.36848057E+03 E0= -.36848057E+03  d E =-.228994E-02  mag=    16.0000
       N       E                     dE             d eps       ncg     rms          ort
SDA:   1    -0.368351821092E+03    0.12874E+00    0.00000E+00  8262   0.309E+00 0.000E+00
CGA:   2    -0.368452047616E+03   -0.10023E+00   -0.10021E+00  8262   0.128E+00 0.373E-03
CGA:   3    -0.368474470456E+03   -0.22423E-01   -0.22379E-01  8262   0.251E-01-0.453E-03
CGA:   4    -0.368478920407E+03   -0.44500E-02   -0.44426E-02  8262   0.532E-02-0.822E-04
CGA:   5    -0.368480018454E+03   -0.10980E-02   -0.10989E-02  8262   0.134E-02 0.126E-04
CGA:   6    -0.368480306931E+03   -0.28848E-03   -0.28744E-03  8262   0.400E-03-0.204E-04
CGA:   7    -0.368480420397E+03   -0.11347E-03   -0.11419E-03  8262   0.179E-03-0.271E-04
CGA:   8    -0.368480471235E+03   -0.50838E-04   -0.50738E-04  8262   0.795E-04 0.255E-05
CGA:   9    -0.368480501433E+03   -0.30198E-04   -0.32853E-04  8262   0.462E-04-0.188E-04
CGA:  10    -0.368480512899E+03   -0.11466E-04   -0.12119E-04  8262   0.185E-04-0.928E-05
CGA:  11    -0.368480518159E+03   -0.52604E-05   -0.61846E-05  8262   0.114E-04-0.650E-05
  65 F= -.36848052E+03 E0= -.36848052E+03  d E =0.493253E-04  mag=    16.0000
       N       E                     dE             d eps       ncg     rms          ort
SDA:   1    -0.363995478298E+03    0.44850E+01    0.00000E+00  8262   0.108E+02 0.000E+00
CGA:   2    -0.367485338126E+03   -0.34899E+01   -0.34898E+01  8262   0.437E+01 0.257E-02
CGA:   3    -0.368257893122E+03   -0.77255E+00   -0.77239E+00  8262   0.873E+00-0.304E-02
CGA:   4    -0.368411421408E+03   -0.15353E+00   -0.15346E+00  8262   0.183E+00-0.787E-03
CGA:   5    -0.368449626843E+03   -0.38205E-01   -0.38206E-01  8262   0.477E-01-0.376E-04
CGA:   6    -0.368459639206E+03   -0.10012E-01   -0.10007E-01  8262   0.140E-01-0.845E-04
CGA:   7    -0.368463565851E+03   -0.39266E-02   -0.39244E-02  8262   0.590E-02-0.201E-03
CGA:   8    -0.368465471878E+03   -0.19060E-02   -0.19084E-02  8262   0.297E-02-0.645E-04
CGA:   9    -0.368466468488E+03   -0.99661E-03   -0.10028E-02  8262   0.119E-02-0.126E-03
CGA:  10    -0.368466842731E+03   -0.37424E-03   -0.37803E-03  8262   0.433E-03-0.102E-03
CGA:  11    -0.368466977807E+03   -0.13508E-03   -0.13597E-03  8262   0.176E-03-0.194E-04
CGA:  12    -0.368467054597E+03   -0.76790E-04   -0.91467E-04  8262   0.164E-03-0.602E-04
CGA:  13    -0.368467081064E+03   -0.26467E-04   -0.27827E-04  8262   0.754E-04 0.250E-04
CGA:  14    -0.368467104731E+03   -0.23667E-04   -0.23574E-04  8262   0.268E-04-0.251E-05
CGA:  15    -0.368467121434E+03   -0.16703E-04    0.80937E-04  8262   0.105E-04 0.692E-07
CGA:  16    -0.368467122476E+03   -0.10415E-05   -0.17149E-05  8262   0.456E-05 0.469E-05
  66 F= -.36846712E+03 E0= -.36846712E+03  d E =0.133957E-01  mag=    16.0000
       N       E                     dE             d eps       ncg     rms          ort
SDA:   1    -0.365614461646E+03    0.28527E+01    0.00000E+00  8262   0.707E+01 0.000E+00
CGA:   2    -0.367771703005E+03   -0.21572E+01   -0.21571E+01  8262   0.282E+01 0.488E-02
CGA:   3    -0.368314158454E+03   -0.54246E+00   -0.54227E+00  8262   0.593E+00-0.263E-02
CGA:   4    -0.368414317401E+03   -0.10016E+00   -0.10011E+00  8262   0.121E+00-0.676E-03
CGA:   5    -0.368440019817E+03   -0.25702E-01   -0.25697E-01  8262   0.310E-01-0.108E-03
CGA:   6    -0.368446656014E+03   -0.66362E-02   -0.66439E-02  8262   0.987E-02 0.108E-03
CGA:   7    -0.368449395860E+03   -0.27398E-02   -0.27398E-02  8262   0.420E-02 0.412E-04
CGA:   8    -0.368450799452E+03   -0.14036E-02   -0.13995E-02  8262   0.217E-02 0.710E-04
CGA:   9    -0.368451526818E+03   -0.72737E-03   -0.72515E-03  8262   0.864E-03 0.429E-04
CGA:  10    -0.368451821811E+03   -0.29499E-03   -0.29696E-03  8262   0.344E-03-0.346E-04
[...]
       N       E                     dE             d eps       ncg     rms          ort
SDA:   1    -0.367416028649E+03    0.10370E+01    0.00000E+00  8262   0.263E+01 0.000E+00
CGA:   2    -0.368181413077E+03   -0.76538E+00   -0.76541E+00  8262   0.134E+01-0.118E-02
CGA:   3    -0.368407721358E+03   -0.22631E+00   -0.22635E+00  8262   0.267E+00 0.348E-03
CGA:   4    -0.368456172729E+03   -0.48451E-01   -0.48458E-01  8262   0.540E-01 0.310E-04
CGA:   5    -0.368467088183E+03   -0.10915E-01   -0.10920E-01  8262   0.151E-01 0.791E-04
CGA:   6    -0.368470340715E+03   -0.32525E-02   -0.32595E-02  8262   0.439E-02 0.190E-03
CGA:   7    -0.368471527624E+03   -0.11869E-02   -0.11867E-02  8262   0.173E-02 0.108E-04
CGA:   8    -0.368472078502E+03   -0.55088E-03   -0.55482E-03  8262   0.799E-03-0.576E-04
CGA:   9    -0.368472312337E+03   -0.23383E-03   -0.23316E-03  8262   0.259E-03 0.141E-04
CGA:  10    -0.368472391427E+03   -0.79090E-04   -0.79176E-04  8262   0.800E-04-0.202E-05
CGA:  11    -0.368472410692E+03   -0.19266E-04   -0.19500E-04  8262   0.246E-04 0.178E-04
CGA:  12    -0.368472422862E+03   -0.12169E-04   -0.14829E-04  8262   0.288E-04-0.113E-04
CGA:  13    -0.368472425331E+03   -0.24692E-05   -0.27935E-05  8262   0.217E-04 0.359E-05
 150 F= -.36847243E+03 E0= -.36847243E+03  d E =-.193660E-01  mag=    16.0000
       N       E                     dE             d eps       ncg     rms          ort
SDA:   1    -0.368261075487E+03    0.21135E+00    0.00000E+00  8262   0.638E+00 0.000E+00
CGA:   2    -0.368395250629E+03   -0.13418E+00   -0.13424E+00  8262   0.282E+00 0.109E-02
CGA:   3    -0.368452034131E+03   -0.56784E-01   -0.56766E-01  8262   0.794E-01-0.354E-03
CGA:   4    -0.368466935893E+03   -0.14902E-01   -0.14869E-01  8262   0.162E-01-0.473E-03
CGA:   5    -0.368470068605E+03   -0.31327E-02   -0.31232E-02  8262   0.441E-02-0.162E-03
CGA:   6    -0.368471041205E+03   -0.97260E-03   -0.97380E-03  8262   0.137E-02 0.440E-04
CGA:   7    -0.368471405909E+03   -0.36470E-03   -0.36450E-03  8262   0.522E-03 0.135E-04
CGA:   8    -0.368471576966E+03   -0.17106E-03   -0.17603E-03  8262   0.262E-03-0.587E-04
CGA:   9    -0.368471653520E+03   -0.76554E-04   -0.80354E-04  8262   0.112E-03-0.416E-04
CGA:  10    -0.368471682424E+03   -0.28904E-04   -0.29488E-04  8262   0.389E-04-0.107E-04
CGA:  11    -0.368471693169E+03   -0.10745E-04   -0.10677E-04  8262   0.143E-04 0.160E-05
CGA:  12    -0.368471698821E+03   -0.56524E-05   -0.95721E-05  8262   0.235E-04-0.104E-04
 151 F= -.36847170E+03 E0= -.36847170E+03  d E =0.726510E-03  mag=    16.0000
       N       E                     dE             d eps       ncg     rms          ort
SDA:   1    -0.368314147368E+03    0.15755E+00    0.00000E+00  8262   0.424E+00 0.000E+00
CGA:   2    -0.368420304814E+03   -0.10616E+00   -0.10616E+00  8262   0.218E+00-0.858E-04
CGA:   3    -0.368460376863E+03   -0.40072E-01   -0.40077E-01  8262   0.483E-01 0.307E-04
CGA:   4    -0.368469094883E+03   -0.87180E-02   -0.87230E-02  8262   0.954E-02 0.462E-04
CGA:   5    -0.368470974789E+03   -0.18799E-02   -0.18798E-02  8262   0.265E-02-0.282E-05
CGA:   6    -0.368471576657E+03   -0.60187E-03   -0.59923E-03  8262   0.830E-03-0.629E-04
CGA:   7    -0.368471786051E+03   -0.20939E-03   -0.20936E-03  8262   0.305E-03-0.501E-05
CGA:   8    -0.368471867658E+03   -0.81607E-04   -0.81499E-04  8262   0.108E-03 0.322E-04
CGA:   9    -0.368471903991E+03   -0.36333E-04   -0.35970E-04  8262   0.393E-04 0.105E-04
CGA:  10    -0.368471917685E+03   -0.13694E-04   -0.13695E-04  8262   0.150E-04-0.195E-07
CGA:  11    -0.368471922109E+03   -0.44236E-05   -0.43927E-05  8262   0.516E-05 0.136E-05
 152 F= -.36847192E+03 E0= -.36847192E+03  d E =-.223288E-03  mag=    16.0000
       N       E                     dE             d eps       ncg     rms          ort
SDA:   1    -0.368465449767E+03    0.64679E-02    0.00000E+00  8262   0.145E-01 0.000E+00
CGA:   2    -0.368470090098E+03   -0.46403E-02   -0.46343E-02  8262   0.645E-02 0.115E-03
CGA:   3    -0.368471179834E+03   -0.10897E-02   -0.10865E-02  8262   0.128E-02-0.314E-04
CGA:   4    -0.368471411241E+03   -0.23141E-03   -0.22928E-03  8262   0.266E-03-0.252E-04
CGA:   5    -0.368471469289E+03   -0.58047E-04   -0.57167E-04  8262   0.833E-04-0.210E-04
CGA:   6    -0.368471482525E+03   -0.13236E-04   -0.13723E-04  8262   0.185E-04 0.607E-05
CGA:   7    -0.368471485293E+03   -0.27688E-05   -0.33704E-05  8262   0.653E-05 0.709E-05
 153 F= -.36847149E+03 E0= -.36847149E+03  d E =0.436815E-03  mag=    16.0000
       N       E                     dE             d eps       ncg     rms          ort
SDA:   1    -0.366491302947E+03    0.19802E+01    0.00000E+00  8262   0.482E+01 0.000E+00
CGA:   2    -0.367957355368E+03   -0.14661E+01   -0.14660E+01  8262   0.245E+01 0.894E-04
CGA:   3    -0.368358009511E+03   -0.40065E+00   -0.40065E+00  8262   0.439E+00-0.231E-03
CGA:   4    -0.368436355866E+03   -0.78346E-01   -0.78324E-01  8262   0.880E-01-0.421E-03
CGA:   5    -0.368454329894E+03   -0.17974E-01   -0.17963E-01  8262   0.242E-01-0.322E-03
CGA:   6    -0.368459337158E+03   -0.50073E-02   -0.50077E-02  8262   0.616E-02 0.118E-04
CGA:   7    -0.368460931426E+03   -0.15943E-02   -0.15939E-02  8262   0.236E-02 0.154E-04
CGA:   8    -0.368461669271E+03   -0.73785E-03   -0.73669E-03  8262   0.105E-02 0.156E-04
CGA:   9    -0.368462024497E+03   -0.35523E-03   -0.35834E-03  8262   0.419E-03-0.325E-04
CGA:  10    -0.368462156960E+03   -0.13246E-03   -0.13866E-03  8262   0.150E-03-0.654E-04
CGA:  11    -0.368462193354E+03   -0.36394E-04   -0.36416E-04  8262   0.426E-04-0.639E-06
CGA:  12    -0.368462209760E+03   -0.16407E-04   -0.20993E-04  8262   0.392E-04-0.190E-04
CGA:  13    -0.368462212876E+03   -0.31154E-05   -0.38907E-05  8262   0.247E-04 0.895E-05
 154 F= -.36846221E+03 E0= -.36846221E+03  d E =0.927242E-02  mag=    16.0000
       N       E                     dE             d eps       ncg     rms          ort
SDA:   1    -0.357983916238E+03    0.10478E+02    0.00000E+00  8262   0.236E+02 0.000E+00
CGA:   2    -0.364821626891E+03   -0.68377E+01   -0.68369E+01  8262   0.100E+02 0.100E-01
CGA:   3    -0.366722080257E+03   -0.19005E+01   -0.19010E+01  8262   0.275E+01-0.190E-02
CGA:   4    -0.367245690421E+03   -0.52361E+00   -0.52372E+00  8262   0.643E+00 0.532E-03
CGA:   5    -0.367382834763E+03   -0.13714E+00   -0.13721E+00  8262   0.201E+00 0.158E-02
CGA:   6    -0.367430402468E+03   -0.47568E-01   -0.47583E-01  8262   0.777E-01 0.102E-02
CGA:   7    -0.367451650571E+03   -0.21248E-01   -0.21231E-01  8262   0.289E-01 0.718E-03
CGA:   8    -0.367460253206E+03   -0.86026E-02   -0.85871E-02  8262   0.113E-01 0.346E-03
CGA:   9    -0.367463519055E+03   -0.32658E-02   -0.32525E-02  8262   0.356E-02 0.419E-03
CGA:  10    -0.367464588406E+03   -0.10694E-02   -0.10595E-02  8262   0.115E-02 0.301E-03
CGA:  11    -0.367464942984E+03   -0.35458E-03   -0.34979E-03  8262   0.416E-03 0.188E-03
CGA:  12    -0.367465100235E+03   -0.15725E-03   -0.15269E-03  8262   0.196E-03 0.778E-04
CGA:  13    -0.367465135528E+03   -0.35293E-04   -0.43987E-04  8262   0.950E-04 0.122E-03
CGA:  14    -0.367465162916E+03   -0.27388E-04   -0.26559E-04  8262   0.373E-04 0.357E-04
CGA:  15    -0.367465165893E+03   -0.29768E-05   -0.74539E-05  8262   0.262E-04 0.399E-04
 155 F= -.36746517E+03 E0= -.36746517E+03  d E =0.997047E+00  mag=    16.0000
       N       E                     dE             d eps       ncg     rms          ort
SDA:   1    -0.365063492356E+03    0.24017E+01    0.00000E+00  8262   0.774E+01 0.000E+00
CGA:   2    -0.367576608856E+03   -0.25131E+01   -0.25161E+01  8262   0.239E+01-0.317E-01
CGA:   3    -0.368137492207E+03   -0.56088E+00   -0.56099E+00  8262   0.535E+00 0.306E-02
CGA:   4    -0.368243774978E+03   -0.10628E+00   -0.10635E+00  8262   0.166E+00 0.868E-03
CGA:   5    -0.368278633342E+03   -0.34858E-01   -0.34862E-01  8262   0.476E-01 0.120E-03
CGA:   6    -0.368291661044E+03   -0.13028E-01   -0.13049E-01  8262   0.217E-01-0.809E-03
CGA:   7    -0.368297199917E+03   -0.55389E-02   -0.55466E-02  8262   0.846E-02-0.654E-03
CGA:   8    -0.368299664224E+03   -0.24643E-02   -0.24722E-02  8262   0.300E-02-0.153E-03
CGA:   9    -0.368300565188E+03   -0.90096E-03   -0.91229E-03  8262   0.105E-02-0.196E-03
CGA:  10    -0.368300872132E+03   -0.30694E-03   -0.31486E-03  8262   0.383E-03-0.120E-03
CGA:  11    -0.368300996169E+03   -0.12404E-03   -0.14269E-03  8262   0.233E-03-0.115E-03
CGA:  12    -0.368300986816E+03    0.93537E-05   -0.13166E-03  8262   0.651E-03-0.262E-03
CGA:  13    -0.368301118973E+03   -0.13216E-03   -0.13304E-03  8262   0.930E-04 0.982E-05
CGA:  14    -0.368301141814E+03   -0.22841E-04   -0.23564E-04  8262   0.236E-04 0.185E-04
CGA:  15    -0.368301153277E+03   -0.11463E-04   -0.11373E-04  8262   0.986E-05 0.782E-06
CGA:  16    -0.368301154627E+03   -0.13497E-05   -0.18583E-05  8262   0.382E-05 0.462E-05
 156 F= -.36830115E+03 E0= -.36830115E+03  d E =-.835989E+00  mag=    16.0000
       N       E                     dE             d eps       ncg     rms          ort
SDA:   1    -0.366979980563E+03    0.13212E+01    0.00000E+00  8262   0.350E+01 0.000E+00
CGA:   2    -0.368121012082E+03   -0.11410E+01   -0.11409E+01  8262   0.109E+01 0.227E-02
CGA:   3    -0.368370950745E+03   -0.24994E+00   -0.25004E+00  8262   0.281E+00 0.182E-02
CGA:   4    -0.368424007266E+03   -0.53057E-01   -0.53124E-01  8262   0.783E-01 0.514E-03
CGA:   5    -0.368441085657E+03   -0.17078E-01   -0.17071E-01  8262   0.237E-01-0.128E-03
CGA:   6    -0.368447353209E+03   -0.62676E-02   -0.62646E-02  8262   0.109E-01-0.353E-03
CGA:   7    -0.368450147643E+03   -0.27944E-02   -0.27914E-02  8262   0.409E-02-0.264E-03
CGA:   8    -0.368451350748E+03   -0.12031E-02   -0.12033E-02  8262   0.146E-02-0.941E-05
CGA:   9    -0.368451800544E+03   -0.44980E-03   -0.45367E-03  8262   0.550E-03-0.103E-03
CGA:  10    -0.368451971707E+03   -0.17116E-03   -0.18011E-03  8262   0.242E-03-0.117E-03
CGA:  11    -0.368452039114E+03   -0.67408E-04   -0.72747E-04  8262   0.119E-03-0.520E-04
CGA:  12    -0.368452004287E+03    0.34827E-04   -0.89905E-04  8262   0.566E-03-0.184E-03
CGA:  13    -0.368452104794E+03   -0.10051E-03   -0.10631E-03  8262   0.633E-04 0.442E-04
CGA:  14    -0.368452125439E+03   -0.20645E-04   -0.20608E-04  8262   0.196E-04-0.369E-05
CGA:  15    -0.368452130020E+03   -0.45803E-05   -0.48496E-05  8262   0.585E-05 0.551E-05
 157 F= -.36845213E+03 E0= -.36845213E+03  d E =-.150975E+00  mag=    16.0000
       N       E                     dE             d eps       ncg     rms          ort
SDA:   1    -0.368435238342E+03    0.16887E-01    0.00000E+00  8262   0.649E-01 0.000E+00
CGA:   2    -0.368454261490E+03   -0.19023E-01   -0.19023E-01  8262   0.249E-01-0.158E-04
CGA:   3    -0.368459072827E+03   -0.48113E-02   -0.48429E-02  8262   0.731E-02 0.292E-03
CGA:   4    -0.368460467690E+03   -0.13949E-02   -0.14052E-02  8262   0.162E-02 0.965E-04
CGA:   5    -0.368460846572E+03   -0.37888E-03   -0.37108E-03  8262   0.596E-03-0.123E-03
CGA:   6    -0.368460976889E+03   -0.13032E-03   -0.12878E-03  8262   0.227E-03-0.289E-04
CGA:   7    -0.368461017319E+03   -0.40430E-04   -0.44207E-04  8262   0.659E-04 0.472E-04
CGA:   8    -0.368461027302E+03   -0.99829E-05   -0.13580E-04  8262   0.276E-04 0.328E-04
 158 F= -.36846103E+03 E0= -.36846103E+03  d E =-.889728E-02  mag=    16.0000
       N       E                     dE             d eps       ncg     rms          ort
SDA:   1    -0.368393296645E+03    0.67721E-01    0.00000E+00  8262   0.190E+00 0.000E+00
CGA:   2    -0.368446792085E+03   -0.53495E-01   -0.53493E-01  8262   0.765E-01 0.125E-03
CGA:   3    -0.368461457496E+03   -0.14665E-01   -0.14704E-01  8262   0.223E-01 0.478E-03
CGA:   4    -0.368465754815E+03   -0.42973E-02   -0.43078E-02  8262   0.493E-02 0.139E-03
CGA:   5    -0.368466854252E+03   -0.10994E-02   -0.10886E-02  8262   0.167E-02-0.252E-03
CGA:   6    -0.368467230332E+03   -0.37608E-03   -0.37467E-03  8262   0.636E-03-0.576E-04
CGA:   7    -0.368467362357E+03   -0.13202E-03   -0.13603E-03  8262   0.192E-03 0.106E-03
CGA:   8    -0.368467402860E+03   -0.40503E-04   -0.44904E-04  8262   0.741E-04 0.768E-04
CGA:   9    -0.368467423546E+03   -0.20687E-04   -0.22087E-04  8262   0.315E-04 0.337E-04
CGA:  10    -0.368467436378E+03   -0.12832E-04   -0.12638E-04  8262   0.146E-04 0.824E-05
CGA:  11    -0.368467440543E+03   -0.41653E-05   -0.42745E-05  8262   0.582E-05 0.509E-05
 159 F= -.36846744E+03 E0= -.36846744E+03  d E =-.641324E-02  mag=    16.0000
       N       E                     dE             d eps       ncg     rms          ort
SDA:   1    -0.368462094512E+03    0.53419E-02    0.00000E+00  8262   0.168E-01 0.000E+00
CGA:   2    -0.368465850012E+03   -0.37555E-02   -0.37582E-02  8262   0.749E-02 0.122E-03
CGA:   3    -0.368467283345E+03   -0.14333E-02   -0.14429E-02  8262   0.199E-02 0.180E-03
CGA:   4    -0.368467679796E+03   -0.39645E-03   -0.39836E-03  8262   0.461E-03 0.418E-04
CGA:   5    -0.368467789763E+03   -0.10997E-03   -0.10926E-03  8262   0.189E-03-0.957E-04
CGA:   6    -0.368467826929E+03   -0.37167E-04   -0.37650E-04  8262   0.814E-04-0.396E-04
CGA:   7    -0.368467835559E+03   -0.86299E-05   -0.10231E-04  8262   0.248E-04 0.199E-04
 160 F= -.36846784E+03 E0= -.36846784E+03  d E =-.395016E-03  mag=    16.0000
       N       E                     dE             d eps       ncg     rms          ort
SDA:   1    -0.368402553016E+03    0.65274E-01    0.00000E+00  8262   0.210E+00 0.000E+00
CGA:   2    -0.368442576546E+03   -0.40024E-01   -0.40047E-01  8262   0.877E-01 0.579E-03
CGA:   3    -0.368460992846E+03   -0.18416E-01   -0.18426E-01  8262   0.259E-01 0.526E-03
CGA:   4    -0.368465975401E+03   -0.49826E-02   -0.49824E-02  8262   0.590E-02 0.112E-04
CGA:   5    -0.368467156641E+03   -0.11812E-02   -0.11746E-02  8262   0.162E-02-0.263E-03
CGA:   6    -0.368467516568E+03   -0.35993E-03   -0.36104E-03  8262   0.565E-03-0.101E-03
CGA:   7    -0.368467636190E+03   -0.11962E-03   -0.11950E-03  8262   0.168E-03 0.551E-04
CGA:   8    -0.368467670487E+03   -0.34297E-04   -0.36027E-04  8262   0.562E-04 0.617E-04
CGA:   9    -0.368467686121E+03   -0.15635E-04   -0.15985E-04  8262   0.248E-04 0.249E-04
CGA:  10    -0.368467699415E+03   -0.13294E-04   -0.14470E-04  8262   0.212E-04-0.646E-05
CGA:  11    -0.368467703175E+03   -0.37595E-05   -0.37678E-05  8262   0.122E-04-0.846E-06
 161 F= -.36846770E+03 E0= -.36846770E+03  d E =0.132385E-03  mag=    16.0000
       N       E                     dE             d eps       ncg     rms          ort
SDA:   1    -0.368457279849E+03    0.10420E-01    0.00000E+00  8262   0.331E-01 0.000E+00
CGA:   2    -0.368463812379E+03   -0.65325E-02   -0.65410E-02  8262   0.132E-01 0.279E-03
CGA:   3    -0.368466561618E+03   -0.27492E-02   -0.27487E-02  8262   0.413E-02-0.288E-04
CGA:   4    -0.368467399784E+03   -0.83817E-03   -0.83413E-03  8262   0.102E-02-0.180E-03
CGA:   5    -0.368467579287E+03   -0.17950E-03   -0.17994E-03  8262   0.248E-03 0.113E-04
CGA:   6    -0.368467616545E+03   -0.37258E-04   -0.41304E-04  8262   0.695E-04 0.713E-04
CGA:   7    -0.368467630597E+03   -0.14052E-04   -0.15502E-04  8262   0.304E-04 0.317E-04
CGA:   8    -0.368467644233E+03   -0.13637E-04   -0.14298E-04  8262   0.242E-04-0.619E-05
CGA:   9    -0.368467649323E+03   -0.50899E-05   -0.55459E-05  8262   0.154E-04-0.692E-05
 162 F= -.36846765E+03 E0= -.36846765E+03  d E =0.538516E-04  mag=    16.0000
       N       E                     dE             d eps       ncg     rms          ort
SDA:   1    -0.368455333592E+03    0.12311E-01    0.00000E+00  8262   0.439E-01 0.000E+00
CGA:   2    -0.368462448835E+03   -0.71152E-02   -0.71325E-02  8262   0.140E-01 0.286E-03
CGA:   3    -0.368465603626E+03   -0.31548E-02   -0.31540E-02  8262   0.520E-02 0.110E-03
CGA:   4    -0.368466652867E+03   -0.10492E-02   -0.10468E-02  8262   0.118E-02-0.133E-03
CGA:   5    -0.368466879702E+03   -0.22683E-03   -0.22587E-03  8262   0.321E-03-0.470E-04
CGA:   6    -0.368466932985E+03   -0.53284E-04   -0.55393E-04  8262   0.840E-04 0.587E-04
CGA:   7    -0.368466946671E+03   -0.13686E-04   -0.15886E-04  8262   0.327E-04 0.408E-04
CGA:   8    -0.368466953279E+03   -0.66081E-05   -0.76895E-05  8262   0.154E-04 0.204E-04
 163 F= -.36846695E+03 E0= -.36846695E+03  d E =0.696044E-03  mag=    16.0000
       N       E                     dE             d eps       ncg     rms          ort
SDA:   1    -0.368460244446E+03    0.67022E-02    0.00000E+00  8262   0.202E-01 0.000E+00
CGA:   2    -0.368464054302E+03   -0.38099E-02   -0.38164E-02  8262   0.846E-02 0.221E-03
CGA:   3    -0.368465821844E+03   -0.17675E-02   -0.17695E-02  8262   0.243E-02 0.213E-03
CGA:   4    -0.368466298626E+03   -0.47678E-03   -0.47633E-03  8262   0.503E-03-0.175E-04
CGA:   5    -0.368466412768E+03   -0.11414E-03   -0.11553E-03  8262   0.187E-03-0.830E-04
CGA:   6    -0.368466446018E+03   -0.33250E-04   -0.33236E-04  8262   0.548E-04-0.659E-05
CGA:   7    -0.368466455947E+03   -0.99292E-05   -0.10194E-04  8262   0.163E-04 0.119E-04
 164 F= -.36846646E+03 E0= -.36846646E+03  d E =0.497332E-03  mag=    16.0000
       N       E                     dE             d eps       ncg     rms          ort
SDA:   1    -0.368425618469E+03    0.40828E-01    0.00000E+00  8262   0.115E+00 0.000E+00
CGA:   2    -0.368450624546E+03   -0.25006E-01   -0.25005E-01  8262   0.563E-01 0.547E-03
CGA:   3    -0.368461634363E+03   -0.11010E-01   -0.11016E-01  8262   0.136E-01 0.306E-03
CGA:   4    -0.368464127948E+03   -0.24936E-02   -0.24886E-02  8262   0.280E-02-0.156E-03
CGA:   5    -0.368464686804E+03   -0.55886E-03   -0.55721E-03  8262   0.796E-03-0.161E-03
CGA:   6    -0.368464840224E+03   -0.15342E-03   -0.15358E-03  8262   0.210E-03 0.235E-04
CGA:   7    -0.368464885272E+03   -0.45047E-04   -0.45146E-04  8262   0.637E-04 0.418E-04
CGA:   8    -0.368464906350E+03   -0.21078E-04   -0.20459E-04  8262   0.306E-04 0.109E-04
CGA:   9    -0.368464918345E+03   -0.11995E-04   -0.12184E-04  8262   0.185E-04-0.150E-05
CGA:  10    -0.368464924115E+03   -0.57698E-05   -0.72583E-05  8262   0.130E-04-0.774E-05
 165 F= -.36846492E+03 E0= -.36846492E+03  d E =0.153183E-02  mag=    16.0000
       N       E                     dE             d eps       ncg     rms          ort
SDA:   1    -0.368457447454E+03    0.74709E-02    0.00000E+00  8262   0.275E-01 0.000E+00
CGA:   2    -0.368462188523E+03   -0.47411E-02   -0.47376E-02  8262   0.101E-01-0.561E-04
CGA:   3    -0.368464463874E+03   -0.22754E-02   -0.22730E-02  8262   0.362E-02-0.239E-03
CGA:   4    -0.368465158708E+03   -0.69483E-03   -0.69028E-03  8262   0.857E-03-0.109E-03
CGA:   5    -0.368465307737E+03   -0.14903E-03   -0.15057E-03  8262   0.210E-03 0.294E-04
CGA:   6    -0.368465350058E+03   -0.42321E-04   -0.43239E-04  8262   0.593E-04 0.286E-04
CGA:   7    -0.368465365613E+03   -0.15555E-04   -0.15545E-04  8262   0.208E-04 0.106E-04
CGA:   8    -0.368465372046E+03   -0.64331E-05   -0.63469E-05  8262   0.869E-05 0.301E-05
 166 F= -.36846537E+03 E0= -.36846537E+03  d E =-.447932E-03  mag=    16.0000
       N       E                     dE             d eps       ncg     rms          ort
SDA:   1    -0.368462551068E+03    0.28145E-02    0.00000E+00  8262   0.126E-01 0.000E+00
CGA:   2    -0.368464485349E+03   -0.19343E-02   -0.19288E-02  8262   0.370E-02-0.741E-04
CGA:   3    -0.368465352418E+03   -0.86707E-03   -0.86818E-03  8262   0.156E-02-0.108E-03
CGA:   4    -0.368465642603E+03   -0.29019E-03   -0.29027E-03  8262   0.347E-03 0.388E-05
CGA:   5    -0.368465703524E+03   -0.60921E-04   -0.61921E-04  8262   0.786E-04 0.218E-04
CGA:   6    -0.368465726502E+03   -0.22977E-04   -0.24533E-04  8262   0.435E-04-0.218E-04
CGA:   7    -0.368465733431E+03   -0.69299E-05   -0.13419E-04  8262   0.543E-04-0.323E-04
 167 F= -.36846573E+03 E0= -.36846573E+03  d E =-.361385E-03  mag=    16.0000
