 vasp.6.1.2 22Jul20 (build Dec 05 2020 14:50:36) complex                        
  
 executed on         CrayXC-Intel date 2021.06.08  08:54:32
 running on   24 total cores
 distrk:  each k-point on   24 cores,    1 groups
 distr:  one band on NCORE=   4 cores,    6 groups


--------------------------------------------------------------------------------------------------------


 INCAR:
 POTCAR:    PAW_PBE Ca_sv 06Sep2000               
 POTCAR:    PAW_PBE Ti_pv 07Sep2000               
 POTCAR:    PAW_PBE Si 05Jan2001                  
 POTCAR:    PAW_PBE O 08Apr2002                   
 POTCAR:    PAW_PBE Ca_sv 06Sep2000               
   VRHFIN =Ca: 3s3p4s                                                                               
   LEXCH  = PE                                                                                      
   EATOM  =  1006.0909 eV,   73.9456 Ry                                                             
                                                                                                    
   TITEL  = PAW_PBE Ca_sv 06Sep2000                                                                 
   LULTRA =        F    use ultrasoft PP ?                                                          
   IUNSCR =        1    unscreen: 0-lin 1-nonlin 2-no                                               
   RPACOR =    2.000    partial core radius                                                         
   POMASS =   40.078; ZVAL   =   10.000    mass and valenz                                          
   RCORE  =    2.300    outmost cutoff radius                                                       
   RWIGS  =    2.500; RWIGS  =    1.323    wigner-seitz radius (au A)                               
   ENMAX  =  266.622; ENMIN  =  199.967 eV                                                          
   RCLOC  =    1.808    cutoff for local pot                                                        
   LCOR   =        T    correct aug charges                                                         
   LPAW   =        T    paw PP                                                                      
   EAUG   =  420.852                                                                                
   RMAX   =    2.359    core radius for proj-oper                                                   
   RAUG   =    1.300    factor for augmentation sphere                                              
   RDEP   =    2.392    radius for radial grids                                                     
   RDEPT  =    1.987    core radius for aug-charge                                                  
                                                                                                    
   Atomic configuration                                                                             
    7 entries                                                                                       
     n  l   j            E        occ.                                                              
     1  0  0.50     -3949.1705   2.0000                                                             
     2  0  0.50      -414.3434   2.0000                                                             
     2  1  1.50      -334.7047   6.0000                                                             
     3  0  0.50       -47.0896   2.0000                                                             
     4  0  0.50        -3.7663   2.0000                                                             
     3  1  1.50       -28.0061   6.0000                                                             
     3  2  1.50        -4.0817   0.0000                                                             
   Description                                                                                      
     l       E           TYP  RCUT    TYP  RCUT                                                     
     0    -47.0896403     23  2.300                                                                 
     0     -3.7663320     23  2.300                                                                 
     1    -28.0060855     23  2.300                                                                 
     1      6.8029130     23  2.300                                                                 
     2     -4.0817478     23  2.300                                                                 
     2      0.4464412     23  2.300                                                                 
  local pseudopotential read in
  partial core-charges read in
  partial kinetic energy density read in
  atomic valenz-charges read in
  non local Contribution for L=           0  read in
    real space projection operators read in
  non local Contribution for L=           0  read in
    real space projection operators read in
  non local Contribution for L=           1  read in
    real space projection operators read in
  non local Contribution for L=           1  read in
    real space projection operators read in
  non local Contribution for L=           2  read in
    real space projection operators read in
  non local Contribution for L=           2  read in
    real space projection operators read in
    PAW grid and wavefunctions read in
 
   number of l-projection  operators is LMAX  =           6
   number of lm-projection operators is LMMAX =          18
 
 POTCAR:    PAW_PBE Ti_pv 07Sep2000               
   VRHFIN =Ti: d3 s1                                                                                
   LEXCH  = PE                                                                                      
   EATOM  =  1042.5995 eV,   76.6289 Ry                                                             
                                                                                                    
   TITEL  = PAW_PBE Ti_pv 07Sep2000                                                                 
   LULTRA =        F    use ultrasoft PP ?                                                          
   IUNSCR =        1    unscreen: 0-lin 1-nonlin 2-no                                               
   RPACOR =    2.200    partial core radius                                                         
   POMASS =   47.880; ZVAL   =   10.000    mass and valenz                                          
   RCORE  =    2.500    outmost cutoff radius                                                       
   RWIGS  =    2.500; RWIGS  =    1.323    wigner-seitz radius (au A)                               
   ENMAX  =  222.335; ENMIN  =  166.751 eV                                                          
   RCLOC  =    1.701    cutoff for local pot                                                        
   LCOR   =        T    correct aug charges                                                         
   LPAW   =        T    paw PP                                                                      
   EAUG   =  482.848                                                                                
   DEXC   =    0.000                                                                                
   RMAX   =    2.564    core radius for proj-oper                                                   
   RAUG   =    1.300    factor for augmentation sphere                                              
   RDEP   =    2.538    radius for radial grids                                                     
   RDEPT  =    1.952    core radius for aug-charge                                                  
                                                                                                    
   Atomic configuration                                                                             
    8 entries                                                                                       
     n  l   j            E        occ.                                                              
     1  0  0.50     -4865.3608   2.0000                                                             
     2  0  0.50      -533.1368   2.0000                                                             
     2  1  1.50      -440.5031   6.0000                                                             
     3  0  0.50       -59.3186   2.0000                                                             
     3  1  1.50       -35.7012   6.0000                                                             
     3  2  2.50        -1.9157   3.0000                                                             
     4  0  0.50        -3.7291   1.0000                                                             
     4  3  2.50        -1.3606   0.0000                                                             
   Description                                                                                      
     l       E           TYP  RCUT    TYP  RCUT                                                     
     1    -35.7012140     23  2.300                                                                 
     1     -1.3605826     23  2.300                                                                 
     2     -1.9156996     23  2.500                                                                 
     2     -0.4063033     23  2.500                                                                 
     0     -3.7290856     23  2.500                                                                 
     0     20.4087390     23  2.500                                                                 
  local pseudopotential read in
  partial core-charges read in
  partial kinetic energy density read in
  atomic valenz-charges read in
  non local Contribution for L=           1  read in
    real space projection operators read in
  non local Contribution for L=           1  read in
    real space projection operators read in
  non local Contribution for L=           2  read in
    real space projection operators read in
  non local Contribution for L=           2  read in
    real space projection operators read in
  non local Contribution for L=           0  read in
    real space projection operators read in
  non local Contribution for L=           0  read in
    real space projection operators read in
    PAW grid and wavefunctions read in
 
   number of l-projection  operators is LMAX  =           6
   number of lm-projection operators is LMMAX =          18
 
 POTCAR:    PAW_PBE Si 05Jan2001                  
   VRHFIN =Si: s2p2                                                                                 
   LEXCH  = PE                                                                                      
   EATOM  =   103.0669 eV,    7.5752 Ry                                                             
                                                                                                    
   TITEL  = PAW_PBE Si 05Jan2001                                                                    
   LULTRA =        F    use ultrasoft PP ?                                                          
   IUNSCR =        1    unscreen: 0-lin 1-nonlin 2-no                                               
   RPACOR =    1.500    partial core radius                                                         
   POMASS =   28.085; ZVAL   =    4.000    mass and valenz                                          
   RCORE  =    1.900    outmost cutoff radius                                                       
   RWIGS  =    2.480; RWIGS  =    1.312    wigner-seitz radius (au A)                               
   ENMAX  =  245.345; ENMIN  =  184.009 eV                                                          
   ICORE  =        2    local potential                                                             
   LCOR   =        T    correct aug charges                                                         
   LPAW   =        T    paw PP                                                                      
   EAUG   =  322.069                                                                                
   DEXC   =    0.000                                                                                
   RMAX   =    1.950    core radius for proj-oper                                                   
   RAUG   =    1.300    factor for augmentation sphere                                              
   RDEP   =    1.993    radius for radial grids                                                     
   RDEPT  =    1.837    core radius for aug-charge                                                  
                                                                                                    
   Atomic configuration                                                                             
    6 entries                                                                                       
     n  l   j            E        occ.                                                              
     1  0  0.50     -1785.8828   2.0000                                                             
     2  0  0.50      -139.4969   2.0000                                                             
     2  1  1.50       -95.5546   6.0000                                                             
     3  0  0.50       -10.8127   2.0000                                                             
     3  1  0.50        -4.0811   2.0000                                                             
     3  2  1.50        -4.0817   0.0000                                                             
   Description                                                                                      
     l       E           TYP  RCUT    TYP  RCUT                                                     
     0    -10.8127223     23  1.900                                                                 
     0     -7.6451159     23  1.900                                                                 
     1     -4.0811372     23  1.900                                                                 
     1      2.4879257     23  1.900                                                                 
     2     -4.0817478      7  1.900                                                                 
  local pseudopotential read in
  partial core-charges read in
  partial kinetic energy density read in
  atomic valenz-charges read in
  non local Contribution for L=           0  read in
    real space projection operators read in
  non local Contribution for L=           0  read in
    real space projection operators read in
  non local Contribution for L=           1  read in
    real space projection operators read in
  non local Contribution for L=           1  read in
    real space projection operators read in
    PAW grid and wavefunctions read in
 
   number of l-projection  operators is LMAX  =           4
   number of lm-projection operators is LMMAX =           8
 
 POTCAR:    PAW_PBE O 08Apr2002                   
   VRHFIN =O: s2p4                                                                                  
   LEXCH  = PE                                                                                      
   EATOM  =   432.3788 eV,   31.7789 Ry                                                             
                                                                                                    
   TITEL  = PAW_PBE O 08Apr2002                                                                     
   LULTRA =        F    use ultrasoft PP ?                                                          
   IUNSCR =        1    unscreen: 0-lin 1-nonlin 2-no                                               
   RPACOR =    1.200    partial core radius                                                         
   POMASS =   16.000; ZVAL   =    6.000    mass and valenz                                          
   RCORE  =    1.520    outmost cutoff radius                                                       
   RWIGS  =    1.550; RWIGS  =    0.820    wigner-seitz radius (au A)                               
   ENMAX  =  400.000; ENMIN  =  300.000 eV                                                          
   ICORE  =        2    local potential                                                             
   LCOR   =        T    correct aug charges                                                         
   LPAW   =        T    paw PP                                                                      
   EAUG   =  605.392                                                                                
   DEXC   =    0.000                                                                                
   RMAX   =    1.553    core radius for proj-oper                                                   
   RAUG   =    1.300    factor for augmentation sphere                                              
   RDEP   =    1.550    radius for radial grids                                                     
   RDEPT  =    1.329    core radius for aug-charge                                                  
                                                                                                    
   Atomic configuration                                                                             
    4 entries                                                                                       
     n  l   j            E        occ.                                                              
     1  0  0.50      -514.6923   2.0000                                                             
     2  0  0.50       -23.9615   2.0000                                                             
     2  1  0.50        -9.0305   4.0000                                                             
     3  2  1.50        -9.5241   0.0000                                                             
   Description                                                                                      
     l       E           TYP  RCUT    TYP  RCUT                                                     
     0    -23.9615318     23  1.200                                                                 
     0     -9.5240782     23  1.200                                                                 
     1     -9.0304911     23  1.520                                                                 
     1      8.1634956     23  1.520                                                                 
     2     -9.5240782      7  1.500                                                                 
  local pseudopotential read in
  partial core-charges read in
  partial kinetic energy density read in
  kinetic energy density of atom read in
  atomic valenz-charges read in
  non local Contribution for L=           0  read in
    real space projection operators read in
  non local Contribution for L=           0  read in
    real space projection operators read in
  non local Contribution for L=           1  read in
    real space projection operators read in
  non local Contribution for L=           1  read in
    real space projection operators read in
    PAW grid and wavefunctions read in
 
   number of l-projection  operators is LMAX  =           4
   number of lm-projection operators is LMMAX =           8
 
 Optimization of the real space projectors (new method)

 maximal supplied QI-value         = 16.25
 optimisation between [QCUT,QGAM] = [ 11.54, 23.24] = [ 37.28,151.24] Ry 
 Optimized for a Real-space Cutoff    1.58 Angstroem

   l    n(q)    QCUT    max X(q) W(low)/X(q) W(high)/X(q)  e(spline) 
   0     11    11.539    11.817    0.25E-04    0.22E-05    0.26E-07
   0     11    11.539     8.461    0.39E-04    0.49E-05    0.55E-07
   1     11    11.539     3.957    0.21E-05    0.44E-05    0.32E-07
   1     11    11.539     4.314    0.56E-04    0.44E-04    0.19E-06
   2     10    11.539    14.565    0.25E-03    0.21E-04    0.75E-06
   2     10    11.539    14.552    0.23E-03    0.22E-04    0.72E-06
 Optimization of the real space projectors (new method)

 maximal supplied QI-value         = 15.12
 optimisation between [QCUT,QGAM] = [ 11.64, 23.28] = [ 37.95,151.78] Ry 
 Optimized for a Real-space Cutoff    1.49 Angstroem

   l    n(q)    QCUT    max X(q) W(low)/X(q) W(high)/X(q)  e(spline) 
   1     10    11.641     4.216    0.17E-04    0.40E-04    0.50E-07
   1     10    11.641     5.422    0.66E-04    0.10E-03    0.13E-06
   2      9    11.641    72.084    0.68E-04    0.13E-03    0.50E-06
   2      9    11.641    65.965    0.66E-04    0.13E-03    0.50E-06
   0     10    11.641    41.531    0.10E-03    0.87E-04    0.31E-06
   0     10    11.641    16.290    0.75E-04    0.66E-04    0.24E-06
 Optimization of the real space projectors (new method)

 maximal supplied QI-value         = 19.84
 optimisation between [QCUT,QGAM] = [ 11.51, 23.22] = [ 37.09,150.92] Ry 
 Optimized for a Real-space Cutoff    1.21 Angstroem

   l    n(q)    QCUT    max X(q) W(low)/X(q) W(high)/X(q)  e(spline) 
   0      8    11.508   159.560    0.71E-04    0.15E-03    0.51E-07
   0      8    11.508   115.863    0.70E-04    0.15E-03    0.51E-07
   1      8    11.508    88.339    0.16E-03    0.38E-04    0.82E-07
   1      8    11.508    48.592    0.15E-03    0.36E-04    0.79E-07
 Optimization of the real space projectors (new method)

 maximal supplied QI-value         = 24.76
 optimisation between [QCUT,QGAM] = [ 11.64, 23.27] = [ 37.91,151.63] Ry 
 Optimized for a Real-space Cutoff    1.14 Angstroem

   l    n(q)    QCUT    max X(q) W(low)/X(q) W(high)/X(q)  e(spline) 
   0      8    11.635    20.381    0.10E-03    0.33E-03    0.24E-06
   0      8    11.635    15.268    0.11E-03    0.35E-03    0.26E-06
   1      7    11.635     5.964    0.24E-03    0.31E-03    0.30E-06
   1      7    11.635     5.382    0.22E-03    0.25E-03    0.26E-06
  PAW_PBE Ca_sv 06Sep2000               :
 energy of atom  1       EATOM=-1006.0909
 kinetic energy error for atom=    0.0022 (will be added to EATOM!!)
  PAW_PBE Ti_pv 07Sep2000               :
 energy of atom  2       EATOM=-1042.5995
 kinetic energy error for atom=    0.0019 (will be added to EATOM!!)
  PAW_PBE Si 05Jan2001                  :
 energy of atom  3       EATOM= -103.0669
 kinetic energy error for atom=    0.0005 (will be added to EATOM!!)
  PAW_PBE O 08Apr2002                   :
 energy of atom  4       EATOM= -432.3788
 kinetic energy error for atom=    0.0208 (will be added to EATOM!!)
 
 
 POSCAR: Ca4 Ti4 Si4 O20
  positions in direct lattice
  velocities in cartesian coordinates

 METAGGA = SCAN     LMAXTAU =  6    LMIXTAU =  F

 exchange correlation table for  LEXCH =        8
   RHO(1)=    0.500       N(1)  =     2000
   RHO(2)=  100.500       N(2)  =     4000
 


--------------------------------------------------------------------------------------------------------


 ion  position               nearest neighbor table
   1  0.748  0.581  0.750-  15 2.25  20 2.42  27 2.42  21 2.43  30 2.43  12 3.06
   2  0.752  0.081  0.250-  16 2.25  19 2.42  28 2.42  22 2.43  29 2.43  11 3.06
   3  0.252  0.419  0.250-  13 2.25  18 2.42  25 2.42  23 2.43  32 2.43  10 3.06
   4  0.248  0.919  0.750-  14 2.25  17 2.42  26 2.42  24 2.43  31 2.43   9 3.06
   5  0.999  0.750  0.250-  13 1.88  16 1.88  26 2.00  20 2.00  21 2.03  31 2.03
   6  0.501  0.250  0.750-  14 1.88  15 1.88  25 2.00  19 2.00  22 2.03  32 2.03
   7  0.001  0.250  0.750-  15 1.88  14 1.88  28 2.00  18 2.00  23 2.03  29 2.03
   8  0.499  0.750  0.250-  16 1.88  13 1.88  27 2.00  17 2.00  24 2.03  30 2.03
   9  0.250  0.569  0.750-  26 1.63  17 1.63  23 1.64  32 1.64   4 3.06
  10  0.250  0.069  0.250-  25 1.63  18 1.63  24 1.64  31 1.64   3 3.06
  11  0.750  0.431  0.250-  28 1.63  19 1.63  21 1.64  30 1.64   2 3.06
  12  0.750  0.931  0.750-  27 1.63  20 1.63  22 1.64  29 1.64   1 3.06
  13  0.250  0.677  0.250-   5 1.88   8 1.88   3 2.25
  14  0.250  0.177  0.750-   6 1.88   7 1.88   4 2.25
  15  0.750  0.323  0.750-   7 1.88   6 1.88   1 2.25
  16  0.750  0.823  0.250-   8 1.88   5 1.88   2 2.25
  17  0.410  0.685  0.933-   9 1.63   8 2.00   4 2.42
  18  0.090  0.185  0.067-  10 1.63   7 2.00   3 2.42
  19  0.590  0.315  0.067-  11 1.63   6 2.00   2 2.42
  20  0.910  0.815  0.933-  12 1.63   5 2.00   1 2.42
  21  0.881  0.538  0.147-  11 1.64   5 2.03   1 2.43
  22  0.619  0.038  0.853-  12 1.64   6 2.03   2 2.43
  23  0.119  0.462  0.853-   9 1.64   7 2.03   3 2.43
  24  0.381  0.962  0.147-  10 1.64   8 2.03   4 2.43
  25  0.411  0.184  0.435-  10 1.63   6 2.00   3 2.42
  26  0.089  0.684  0.565-   9 1.63   5 2.00   4 2.42
  27  0.589  0.816  0.565-  12 1.63   8 2.00   1 2.42
  28  0.911  0.316  0.435-  11 1.63   7 2.00   2 2.42
  29  0.882  0.038  0.648-  12 1.64   7 2.03   2 2.43
  30  0.618  0.538  0.352-  11 1.64   8 2.03   1 2.43
  31  0.118  0.962  0.352-  10 1.64   5 2.03   4 2.43
  32  0.382  0.462  0.648-   9 1.64   6 2.03   3 2.43
 

IMPORTANT INFORMATION: All symmetrisations will be switched off!
NOSYMM: (Re-)initialisation of all symmetry stuff for point group C_1.


----------------------------------------------------------------------------------------

                                     Primitive cell                                     

  volume of cell :     371.6871

  direct lattice vectors                    reciprocal lattice vectors
     6.464329842  0.000002807 -2.856718565     0.154619043 -0.000000049 -0.000172052
     0.000002790  8.724111014 -0.000002247    -0.000000037  0.114624860  0.000000030
     0.007330191 -0.000001702  6.587479132     0.067051915  0.000000018  0.151728526

  length of vectors
     7.067418289  8.724111014  6.587483211     0.154619139  0.114624860  0.165884010

  position of ions in fractional coordinates (direct lattice)
     0.747617292  0.581019944  0.749796968
     0.752384472  0.081024857  0.250209533
     0.252384719  0.418974963  0.250209176
     0.247617770  0.918980230  0.749796778
     0.999489415  0.749747988  0.249586777
     0.500513626  0.249741073  0.750410842
     0.000513723  0.250258963  0.750411014
     0.499489322  0.750251762  0.249586744
     0.249681683  0.568500346  0.749604447
     0.250316120  0.068514861  0.250396478
     0.750316779  0.431484933  0.250396373
     0.749681533  0.931499809  0.749604674
     0.249558646  0.677225282  0.249580004
     0.250437985  0.177226531  0.750412431
     0.750437894  0.322773631  0.750412363
     0.749558440  0.822774680  0.249579904
     0.409698109  0.684715869  0.933267535
     0.090317565  0.184721277  0.066744063
     0.590317517  0.315279102  0.066744479
     0.909697977  0.815283964  0.933267665
     0.880818729  0.537953496  0.147496037
     0.619171922  0.037937701  0.852501411
     0.119171669  0.462062656  0.852501121
     0.380817490  0.962046004  0.147495368
     0.410898291  0.183779881  0.435028015
     0.089109545  0.683786202  0.564963765
     0.589109418  0.816214235  0.564963562
     0.910898185  0.316219637  0.435028536
     0.882112781  0.037648035  0.648367957
     0.617874612  0.537636750  0.351634099
     0.117874071  0.962363434  0.351634094
     0.382112700  0.462351903  0.648367788

  ion indices of the primitive-cell ions
   primitive index   ion index
                 1           1
                 2           2
                 3           3
                 4           4
                 5           5
                 6           6
                 7           7
                 8           8
                 9           9
                10          10
                11          11
                12          12
                13          13
                14          14
                15          15
                16          16
                17          17
                18          18
                19          19
                20          20
                21          21
                22          22
                23          23
                24          24
                25          25
                26          26
                27          27
                28          28
                29          29
                30          30
                31          31
                32          32

----------------------------------------------------------------------------------------

 
 
 KPOINTS: K-points file                           

Automatic generation of k-mesh.
Space group operators:
 irot       det(A)        alpha          n_x          n_y          n_z        tau_x        tau_y        tau_z
    1     1.000000     0.000000     1.000000     0.000000     0.000000     0.000000     0.000000     0.000000
 
 Subroutine IBZKPT returns following result:
 ===========================================
 
 Found     51 irreducible k-points:
 
 Following reciprocal coordinates:
            Coordinates               Weight
  0.000000  0.000000  0.000000      1.000000
  0.200000 -0.000000  0.000000      2.000000
  0.400000 -0.000000  0.000000      2.000000
  0.000000  0.250000  0.000000      2.000000
  0.200000  0.250000  0.000000      2.000000
 -0.200000  0.250000 -0.000000      2.000000
  0.400000  0.250000 -0.000000      2.000000
 -0.400000  0.250000  0.000000      2.000000
  0.000000  0.500000  0.000000      1.000000
  0.200000  0.500000  0.000000      2.000000
  0.400000  0.500000 -0.000000      2.000000
  0.000000 -0.000000  0.200000      2.000000
  0.200000 -0.000000  0.200000      2.000000
  0.400000 -0.000000  0.200000      2.000000
 -0.400000  0.000000  0.200000      2.000000
 -0.200000  0.000000  0.200000      2.000000
  0.000000  0.250000  0.200000      2.000000
  0.000000  0.250000 -0.200000      2.000000
  0.200000  0.250000  0.200000      2.000000
 -0.200000  0.250000 -0.200000      2.000000
  0.400000  0.250000  0.200000      2.000000
 -0.400000  0.250000 -0.200000      2.000000
 -0.400000  0.250000  0.200000      2.000000
  0.400000  0.250000 -0.200000      2.000000
 -0.200000  0.250000  0.200000      2.000000
  0.200000  0.250000 -0.200000      2.000000
  0.000000  0.500000  0.200000      2.000000
  0.200000  0.500000  0.200000      2.000000
  0.400000  0.500000  0.200000      2.000000
 -0.400000  0.500000  0.200000      2.000000
 -0.200000  0.500000  0.200000      2.000000
  0.000000 -0.000000  0.400000      2.000000
  0.200000 -0.000000  0.400000      2.000000
  0.400000 -0.000000  0.400000      2.000000
 -0.400000  0.000000  0.400000      2.000000
 -0.200000  0.000000  0.400000      2.000000
 -0.000000  0.250000  0.400000      2.000000
 -0.000000  0.250000 -0.400000      2.000000
  0.200000  0.250000  0.400000      2.000000
 -0.200000  0.250000 -0.400000      2.000000
  0.400000  0.250000  0.400000      2.000000
 -0.400000  0.250000 -0.400000      2.000000
 -0.400000  0.250000  0.400000      2.000000
  0.400000  0.250000 -0.400000      2.000000
 -0.200000  0.250000  0.400000      2.000000
  0.200000  0.250000 -0.400000      2.000000
  0.000000  0.500000  0.400000      2.000000
  0.200000  0.500000  0.400000      2.000000
  0.400000  0.500000  0.400000      2.000000
 -0.400000  0.500000  0.400000      2.000000
 -0.200000  0.500000  0.400000      2.000000
 
 Following cartesian coordinates:
            Coordinates               Weight
  0.000000  0.000000  0.000000      1.000000
  0.030924 -0.000000 -0.000034      2.000000
  0.061848 -0.000000 -0.000069      2.000000
 -0.000000  0.028656  0.000000      2.000000
  0.030924  0.028656 -0.000034      2.000000
 -0.030924  0.028656  0.000034      2.000000
  0.061848  0.028656 -0.000069      2.000000
 -0.061848  0.028656  0.000069      2.000000
 -0.000000  0.057312  0.000000      1.000000
  0.030924  0.057312 -0.000034      2.000000
  0.061848  0.057312 -0.000069      2.000000
  0.013410  0.000000  0.030346      2.000000
  0.044334 -0.000000  0.030311      2.000000
  0.075258 -0.000000  0.030277      2.000000
 -0.048437  0.000000  0.030415      2.000000
 -0.017513  0.000000  0.030380      2.000000
  0.013410  0.028656  0.030346      2.000000
 -0.013410  0.028656 -0.030346      2.000000
  0.044334  0.028656  0.030311      2.000000
 -0.044334  0.028656 -0.030311      2.000000
  0.075258  0.028656  0.030277      2.000000
 -0.075258  0.028656 -0.030277      2.000000
 -0.048437  0.028656  0.030415      2.000000
  0.048437  0.028656 -0.030415      2.000000
 -0.017513  0.028656  0.030380      2.000000
  0.017513  0.028656 -0.030380      2.000000
  0.013410  0.057312  0.030346      2.000000
  0.044334  0.057312  0.030311      2.000000
  0.075258  0.057312  0.030277      2.000000
 -0.048437  0.057312  0.030415      2.000000
 -0.017513  0.057312  0.030380      2.000000
  0.026821  0.000000  0.060691      2.000000
  0.057745 -0.000000  0.060657      2.000000
  0.088668 -0.000000  0.060623      2.000000
 -0.035027  0.000000  0.060760      2.000000
 -0.004103  0.000000  0.060726      2.000000
  0.026821  0.028656  0.060691      2.000000
 -0.026821  0.028656 -0.060691      2.000000
  0.057745  0.028656  0.060657      2.000000
 -0.057745  0.028656 -0.060657      2.000000
  0.088668  0.028656  0.060623      2.000000
 -0.088668  0.028656 -0.060623      2.000000
 -0.035027  0.028656  0.060760      2.000000
  0.035027  0.028656 -0.060760      2.000000
 -0.004103  0.028656  0.060726      2.000000
  0.004103  0.028656 -0.060726      2.000000
  0.026821  0.057312  0.060691      2.000000
  0.057745  0.057312  0.060657      2.000000
  0.088668  0.057312  0.060623      2.000000
 -0.035027  0.057312  0.060760      2.000000
 -0.004103  0.057312  0.060726      2.000000
 


--------------------------------------------------------------------------------------------------------




 Dimension of arrays:
   k-points           NKPTS =     51   k-points in BZ     NKDIM =     51   number of bands    NBANDS=    132
   number of dos      NEDOS =    301   number of ions     NIONS =     32
   non local maximal  LDIM  =      6   non local SUM 2l+1 LMDIM =     18
   total plane-waves  NPLWV = 189000
   max r-space proj   IRMAX =   8448   max aug-charges    IRDMAX=  24458
   dimension x,y,z NGX =    54 NGY =   70 NGZ =   50
   dimension x,y,z NGXF=   108 NGYF=  140 NGZF=  100
   support grid    NGXF=   108 NGYF=  140 NGZF=  100
   ions per type =               4   4   4  20
   NGX,Y,Z   is equivalent  to a cutoff of  12.70, 13.34, 12.62 a.u.
   NGXF,Y,Z  is equivalent  to a cutoff of  25.40, 26.68, 25.24 a.u.

 SYSTEM =  unknown system                          
 POSCAR =  Ca4 Ti4 Si4 O20                         

 Startparameter for this run:
   NWRITE =      2    write-flag & timer
   PREC   = accura    normal or accurate (medium, high low for compatibility)
   ISTART =      0    job   : 0-new  1-cont  2-samecut
   ICHARG =      1    charge: 1-file 2-atom 10-const
   ISPIN  =      2    spin polarized calculation?
   LNONCOLLINEAR =      F non collinear calculations
   LSORBIT =      F    spin-orbit coupling
   INIWAV =      1    electr: 0-lowe 1-rand  2-diag
   LASPH  =      T    aspherical Exc in radial PAW
   METAGGA=      F    non-selfconsistent MetaGGA calc.

 Electronic Relaxation 1
   ENCUT  =  520.0 eV  38.22 Ry    6.18 a.u.  13.14 16.22 12.25*2*pi/ulx,y,z
   ENINI  =  520.0     initial cutoff
   ENAUG  =  605.4 eV  augmentation charge cutoff
   NELM   =    100;   NELMIN=  6; NELMDL= -5     # of ELM steps 
   EDIFF  = 0.1E-04   stopping-criterion for ELM
   LREAL  =      T    real-space projection
   NLSPLINE    = F    spline interpolate recip. space projectors
   LCOMPAT=      F    compatible to vasp.4.4
   GGA_COMPAT  = T    GGA compatible to vasp.4.4-vasp.4.6
   LMAXPAW     = -100 max onsite density
   LMAXMIX     =    4 max onsite mixed and CHGCAR
   VOSKOWN=      0    Vosko Wilk Nusair interpolation
   ROPT   =   -0.00025  -0.00025  -0.00025  -0.00025
 Ionic relaxation
   EDIFFG = -.3E-01   stopping-criterion for IOM
   NSW    =     99    number of steps for IOM
   NBLOCK =      1;   KBLOCK =     99    inner block; outer block 
   IBRION =      2    ionic relax: 0-MD 1-quasi-New 2-CG
   NFREE  =      1    steps in history (QN), initial steepest desc. (CG)
   ISIF   =      3    stress and relaxation
   IWAVPR =     11    prediction:  0-non 1-charg 2-wave 3-comb
   ISYM   =      0    0-nonsym 1-usesym 2-fastsym
   LCORR  =      T    Harris-Foulkes like correction to forces

   POTIM  = 0.5000    time-step for ionic-motion
   TEIN   =    0.0    initial temperature
   TEBEG  =    0.0;   TEEND  =   0.0 temperature during run
   SMASS  =  -3.00    Nose mass-parameter (am)
   estimated Nose-frequenzy (Omega)   =  0.10E-29 period in steps = 0.13E+47 mass=  -0.114E-26a.u.
   SCALEE = 1.0000    scale energy and forces
   NPACO  =    256;   APACO  = 16.0  distance and # of slots for P.C.
   PSTRESS=    0.0 pullay stress

  Mass of Ions in am
   POMASS =  40.08 47.88 28.09 16.00
  Ionic Valenz
   ZVAL   =  10.00 10.00  4.00  6.00
  Atomic Wigner-Seitz radii
   RWIGS  =  -1.00 -1.00 -1.00 -1.00
  virtual crystal weights 
   VCA    =   1.00  1.00  1.00  1.00
   NELECT =     216.0000    total number of electrons
   NUPDOWN=      -1.0000    fix difference up-down

 DOS related values:
   EMIN   =  10.00;   EMAX   =-10.00  energy-range for DOS
   EFERMI =   0.00
   ISMEAR =     0;   SIGMA  =   0.05  broadening in eV -4-tet -1-fermi 0-gaus

 Electronic relaxation 2 (details)
   IALGO  =     38    algorithm
   LDIAG  =      T    sub-space diagonalisation (order eigenvalues)
   LSUBROT=      F    optimize rotation matrix (better conditioning)
   TURBO    =      0    0=normal 1=particle mesh
   IRESTART =      0    0=no restart 2=restart with 2 vectors
   NREBOOT  =      0    no. of reboots
   NMIN     =      0    reboot dimension
   EREF     =   0.00    reference energy to select bands
   IMIX   =      4    mixing-type and parameters
     AMIX     =   0.40;   BMIX     =  1.00
     AMIX_MAG =   1.60;   BMIX_MAG =  1.00
     AMIN     =   0.10
     WC   =   100.;   INIMIX=   1;  MIXPRE=   1;  MAXMIX= -45

 Intra band minimization:
   WEIMIN = 0.0010     energy-eigenvalue tresh-hold
   EBREAK =  0.19E-07  absolut break condition
   DEPER  =   0.30     relativ break condition  

   TIME   =   0.40     timestep for ELM

  volume/ion in A,a.u.               =      11.62        78.38
  Fermi-wavevector in a.u.,A,eV,Ry     =   1.366156  2.581660 25.393668  1.866382
  Thomas-Fermi vector in A             =   2.492321
 
 Write flags
   LWAVE        =      F    write WAVECAR
   LDOWNSAMPLE  =      F    k-point downsampling of WAVECAR
   LCHARG       =      T    write CHGCAR
   LVTOT        =      F    write LOCPOT, total local potential
   LVHAR        =      F    write LOCPOT, Hartree potential only
   LELF         =      F    write electronic localiz. function (ELF)
   LORBIT       =     11    0 simple, 1 ext, 2 COOP (PROOUT), +10 PAW based schemes


 Dipole corrections
   LMONO  =      F    monopole corrections only (constant potential shift)
   LDIPOL =      F    correct potential (dipole corrections)
   IDIPOL =      0    1-x, 2-y, 3-z, 4-all directions 
   EPSILON=  1.0000000 bulk dielectric constant

 LDA+U is selected, type is set to LDAUTYPE =  2
   angular momentum for each species LDAUL =    -1    2   -1   -1
   U (eV)           for each species LDAUU =   0.0  2.5  0.0  0.0
   J (eV)           for each species LDAUJ =   0.0  0.0  0.0  0.0
 Exchange correlation treatment:
   GGA     =    --    GGA type
   LEXCH   =     8    internal setting for exchange type
   VOSKOWN=      0    Vosko Wilk Nusair interpolation
   LHFCALC =     F    Hartree Fock is set to
   LHFONE  =     F    Hartree Fock one center treatment
   AEXX    =    0.0000 exact exchange contribution

 Linear response parameters
   LEPSILON=     F    determine dielectric tensor
   LRPA    =     F    only Hartree local field effects (RPA)
   LNABLA  =     F    use nabla operator in PAW spheres
   LVEL    =     F    velocity operator in full k-point grid
   LINTERFAST=   F  fast interpolation
   KINTER  =     0    interpolate to denser k-point grid
   CSHIFT  =0.1000    complex shift for real part using Kramers Kronig
   OMEGAMAX=  -1.0    maximum frequency
   DEG_THRESHOLD= 0.2000000E-02 threshold for treating states as degnerate
   RTIME   =   -0.100 relaxation time in fs
  (WPLASMAI=    0.000 imaginary part of plasma frequency in eV, 0.658/RTIME)
   DFIELD  = 0.0000000 0.0000000 0.0000000 field for delta impulse in time
 
 Orbital magnetization related:
   ORBITALMAG=     F  switch on orbital magnetization
   LCHIMAG   =     F  perturbation theory with respect to B field
   DQ        =  0.001000  dq finite difference perturbation B field
   LLRAUG    =     F  two centre corrections for induced B field



--------------------------------------------------------------------------------------------------------


 conjugate gradient relaxation of ions
 charge density and potential will be updated during run
 spin polarized calculation
 Variant of blocked Davidson
 Davidson routine will perform the subspace rotation
 perform sub-space diagonalisation
    after iterative eigenvector-optimisation
 modified Broyden-mixing scheme, WC =      100.0
 initial mixing is a Kerker type mixing with AMIX =  0.4000 and BMIX =      1.0000
 Hartree-type preconditioning will be used
 using additional bands           24
 real space projection scheme for non local part
 use partial core corrections
 calculate Harris-corrections to forces 
   (improved forces if not selfconsistent)
 use gradient corrections 
 use of overlap-Matrix (Vanderbilt PP)
 Gauss-broadening in eV      SIGMA  =   0.05


--------------------------------------------------------------------------------------------------------


  energy-cutoff  :      520.00
  volume of cell :      371.69
      direct lattice vectors                 reciprocal lattice vectors
     6.464329842  0.000002807 -2.856718565     0.154619043 -0.000000049 -0.000172052
     0.000002790  8.724111014 -0.000002247    -0.000000037  0.114624860  0.000000030
     0.007330191 -0.000001702  6.587479132     0.067051915  0.000000018  0.151728526

  length of vectors
     7.067418289  8.724111014  6.587483211     0.154619139  0.114624860  0.165884010


 
 k-points in units of 2pi/SCALE and weight: K-points file                           
   0.00000000  0.00000000  0.00000000       0.010
   0.03092381 -0.00000001 -0.00003441       0.020
   0.06184762 -0.00000002 -0.00006882       0.020
  -0.00000001  0.02865621  0.00000001       0.020
   0.03092380  0.02865620 -0.00003440       0.020
  -0.03092382  0.02865622  0.00003442       0.020
   0.06184761  0.02865620 -0.00006881       0.020
  -0.06184763  0.02865623  0.00006883       0.020
  -0.00000002  0.05731243  0.00000001       0.010
   0.03092379  0.05731242 -0.00003440       0.020
   0.06184760  0.05731241 -0.00006881       0.020
   0.01341038  0.00000000  0.03034571       0.020
   0.04433419 -0.00000001  0.03031129       0.020
   0.07525800 -0.00000002  0.03027688       0.020
  -0.04843723  0.00000002  0.03041453       0.020
  -0.01751343  0.00000001  0.03038012       0.020
   0.01341037  0.02865622  0.03034571       0.020
  -0.01341039  0.02865621 -0.03034570       0.020
   0.04433418  0.02865621  0.03031130       0.020
  -0.04433420  0.02865622 -0.03031129       0.020
   0.07525799  0.02865620  0.03027689       0.020
  -0.07525801  0.02865623 -0.03027688       0.020
  -0.04843724  0.02865624  0.03041453       0.020
   0.04843723  0.02865619 -0.03041452       0.020
  -0.01751343  0.02865623  0.03038012       0.020
   0.01751342  0.02865620 -0.03038011       0.020
   0.01341036  0.05731243  0.03034572       0.020
   0.04433417  0.05731242  0.03031131       0.020
   0.07525798  0.05731241  0.03027690       0.020
  -0.04843725  0.05731245  0.03041454       0.020
  -0.01751344  0.05731244  0.03038013       0.020
   0.02682077  0.00000001  0.06069141       0.020
   0.05774457 -0.00000000  0.06065700       0.020
   0.08866838 -0.00000001  0.06062259       0.020
  -0.03502685  0.00000003  0.06076023       0.020
  -0.00410304  0.00000002  0.06072582       0.020
   0.02682076  0.02865622  0.06069142       0.020
  -0.02682078  0.02865621 -0.06069140       0.020
   0.05774457  0.02865621  0.06065701       0.020
  -0.05774458  0.02865622 -0.06065699       0.020
   0.08866837  0.02865620  0.06062260       0.020
  -0.08866839  0.02865623 -0.06062258       0.020
  -0.03502686  0.02865624  0.06076024       0.020
   0.03502684  0.02865619 -0.06076022       0.020
  -0.00410305  0.02865623  0.06072583       0.020
   0.00410303  0.02865620 -0.06072581       0.020
   0.02682075  0.05731244  0.06069143       0.020
   0.05774456  0.05731243  0.06065701       0.020
   0.08866837  0.05731242  0.06062260       0.020
  -0.03502687  0.05731246  0.06076025       0.020
  -0.00410306  0.05731245  0.06072584       0.020
 
 k-points in reciprocal lattice and weights: K-points file                           
   0.00000000  0.00000000  0.00000000       0.010
   0.20000000 -0.00000000  0.00000000       0.020
   0.40000000 -0.00000000  0.00000000       0.020
   0.00000000  0.25000000  0.00000000       0.020
   0.20000000  0.25000000  0.00000000       0.020
  -0.20000000  0.25000000 -0.00000000       0.020
   0.40000000  0.25000000 -0.00000000       0.020
  -0.40000000  0.25000000  0.00000000       0.020
   0.00000000  0.50000000  0.00000000       0.010
   0.20000000  0.50000000  0.00000000       0.020
   0.40000000  0.50000000 -0.00000000       0.020
   0.00000000 -0.00000000  0.20000000       0.020
   0.20000000 -0.00000000  0.20000000       0.020
   0.40000000 -0.00000000  0.20000000       0.020
  -0.40000000  0.00000000  0.20000000       0.020
  -0.20000000  0.00000000  0.20000000       0.020
   0.00000000  0.25000000  0.20000000       0.020
   0.00000000  0.25000000 -0.20000000       0.020
   0.20000000  0.25000000  0.20000000       0.020
  -0.20000000  0.25000000 -0.20000000       0.020
   0.40000000  0.25000000  0.20000000       0.020
  -0.40000000  0.25000000 -0.20000000       0.020
  -0.40000000  0.25000000  0.20000000       0.020
   0.40000000  0.25000000 -0.20000000       0.020
  -0.20000000  0.25000000  0.20000000       0.020
   0.20000000  0.25000000 -0.20000000       0.020
   0.00000000  0.50000000  0.20000000       0.020
   0.20000000  0.50000000  0.20000000       0.020
   0.40000000  0.50000000  0.20000000       0.020
  -0.40000000  0.50000000  0.20000000       0.020
  -0.20000000  0.50000000  0.20000000       0.020
   0.00000000 -0.00000000  0.40000000       0.020
   0.20000000 -0.00000000  0.40000000       0.020
   0.40000000 -0.00000000  0.40000000       0.020
  -0.40000000  0.00000000  0.40000000       0.020
  -0.20000000  0.00000000  0.40000000       0.020
  -0.00000000  0.25000000  0.40000000       0.020
  -0.00000000  0.25000000 -0.40000000       0.020
   0.20000000  0.25000000  0.40000000       0.020
  -0.20000000  0.25000000 -0.40000000       0.020
   0.40000000  0.25000000  0.40000000       0.020
  -0.40000000  0.25000000 -0.40000000       0.020
  -0.40000000  0.25000000  0.40000000       0.020
   0.40000000  0.25000000 -0.40000000       0.020
  -0.20000000  0.25000000  0.40000000       0.020
   0.20000000  0.25000000 -0.40000000       0.020
   0.00000000  0.50000000  0.40000000       0.020
   0.20000000  0.50000000  0.40000000       0.020
   0.40000000  0.50000000  0.40000000       0.020
  -0.40000000  0.50000000  0.40000000       0.020
  -0.20000000  0.50000000  0.40000000       0.020
 
 position of ions in fractional coordinates (direct lattice) 
   0.74761729  0.58101994  0.74979697
   0.75238447  0.08102486  0.25020953
   0.25238472  0.41897496  0.25020918
   0.24761777  0.91898023  0.74979678
   0.99948941  0.74974799  0.24958678
   0.50051363  0.24974107  0.75041084
   0.00051372  0.25025896  0.75041101
   0.49948932  0.75025176  0.24958674
   0.24968168  0.56850035  0.74960445
   0.25031612  0.06851486  0.25039648
   0.75031678  0.43148493  0.25039637
   0.74968153  0.93149981  0.74960467
   0.24955865  0.67722528  0.24958000
   0.25043798  0.17722653  0.75041243
   0.75043789  0.32277363  0.75041236
   0.74955844  0.82277468  0.24957990
   0.40969811  0.68471587  0.93326754
   0.09031756  0.18472128  0.06674406
   0.59031752  0.31527910  0.06674448
   0.90969798  0.81528396  0.93326766
   0.88081873  0.53795350  0.14749604
   0.61917192  0.03793770  0.85250141
   0.11917167  0.46206266  0.85250112
   0.38081749  0.96204600  0.14749537
   0.41089829  0.18377988  0.43502801
   0.08910954  0.68378620  0.56496376
   0.58910942  0.81621424  0.56496356
   0.91089818  0.31621964  0.43502854
   0.88211278  0.03764803  0.64836796
   0.61787461  0.53763675  0.35163410
   0.11787407  0.96236343  0.35163409
   0.38211270  0.46235190  0.64836779
 
 position of ions in cartesian coordinates  (Angst):
   4.83834254  5.06888331  2.80353838
   4.86549571  0.70687153 -0.50110080
   1.63333332  3.65518437  0.92725467
   1.60618166  8.01728497  4.23189428
   6.46286086  6.54088706 -1.21111397
   3.24098652  2.17876897  3.51348863
   0.00882223  2.18328570  4.94184877
   3.23069534  6.54528064  0.21724536
   1.61952109  4.95965955  4.22473207
   1.61996161  0.59773153  0.93439871
   4.85213180  3.76432413 -0.49396396
   4.85168605  8.12650857  2.79637390
   1.61506076  5.90818881  0.93118273
   1.62441490  1.54614335  4.22789499
   4.85657964  2.81591381  2.79953519
   4.84722476  7.17797933 -0.49717695
   2.65526666  5.97353681  4.97748668
   0.58433229  1.61152907  0.18166284
   3.81649727  2.75053143 -1.24669385
   5.88743109  7.11262877  3.54912833
   5.69498547  4.69316824 -1.54462536
   4.00878064  0.33097300  3.84703525
   0.77661526  4.03108479  5.27539239
   2.46281372  8.39299696 -0.11626789
   2.65937144  1.60331649  1.69191678
   0.58017669  5.96542602  3.46712458
   3.81234116  7.12074429  2.03876403
   5.89153604  2.75873704  0.26356094
   5.70702074  0.32844701  1.75116234
   3.99672434  4.69040383  0.55128720
   0.76455711  8.39576517  1.97964705
   2.47485648  4.03360930  3.17951979
 


--------------------------------------------------------------------------------------------------------


 k-point   1 :   0.0000 0.0000 0.0000  plane waves:   10009
 k-point   2 :   0.2000-0.0000 0.0000  plane waves:   10015
 k-point   3 :   0.4000-0.0000 0.0000  plane waves:   10020
 k-point   4 :   0.0000 0.2500 0.0000  plane waves:    9992
 k-point   5 :   0.2000 0.2500 0.0000  plane waves:   10016
 k-point   6 :  -0.2000 0.2500-0.0000  plane waves:   10016
 k-point   7 :   0.4000 0.2500-0.0000  plane waves:   10018
 k-point   8 :  -0.4000 0.2500 0.0000  plane waves:   10018
 k-point   9 :   0.0000 0.5000 0.0000  plane waves:   10012
 k-point  10 :   0.2000 0.5000 0.0000  plane waves:   10002
 k-point  11 :   0.4000 0.5000-0.0000  plane waves:   10008
 k-point  12 :   0.0000-0.0000 0.2000  plane waves:   10000
 k-point  13 :   0.2000-0.0000 0.2000  plane waves:   10005
 k-point  14 :   0.4000-0.0000 0.2000  plane waves:   10013
 k-point  15 :  -0.4000 0.0000 0.2000  plane waves:   10022
 k-point  16 :  -0.2000 0.0000 0.2000  plane waves:   10005
 k-point  17 :   0.0000 0.2500 0.2000  plane waves:    9998
 k-point  18 :   0.0000 0.2500-0.2000  plane waves:    9998
 k-point  19 :   0.2000 0.2500 0.2000  plane waves:   10011
 k-point  20 :  -0.2000 0.2500-0.2000  plane waves:   10011
 k-point  21 :   0.4000 0.2500 0.2000  plane waves:   10007
 k-point  22 :  -0.4000 0.2500-0.2000  plane waves:   10007
 k-point  23 :  -0.4000 0.2500 0.2000  plane waves:   10004
 k-point  24 :   0.4000 0.2500-0.2000  plane waves:   10004
 k-point  25 :  -0.2000 0.2500 0.2000  plane waves:    9993
 k-point  26 :   0.2000 0.2500-0.2000  plane waves:    9993
 k-point  27 :   0.0000 0.5000 0.2000  plane waves:    9992
 k-point  28 :   0.2000 0.5000 0.2000  plane waves:   10014
 k-point  29 :   0.4000 0.5000 0.2000  plane waves:   10020
 k-point  30 :  -0.4000 0.5000 0.2000  plane waves:   10020
 k-point  31 :  -0.2000 0.5000 0.2000  plane waves:    9998
 k-point  32 :   0.0000-0.0000 0.4000  plane waves:   10013
 k-point  33 :   0.2000-0.0000 0.4000  plane waves:   10005
 k-point  34 :   0.4000-0.0000 0.4000  plane waves:   10034
 k-point  35 :  -0.4000 0.0000 0.4000  plane waves:   10017
 k-point  36 :  -0.2000 0.0000 0.4000  plane waves:   10003
 k-point  37 :  -0.0000 0.2500 0.4000  plane waves:   10014
 k-point  38 :  -0.0000 0.2500-0.4000  plane waves:   10014
 k-point  39 :   0.2000 0.2500 0.4000  plane waves:   10006
 k-point  40 :  -0.2000 0.2500-0.4000  plane waves:   10006
 k-point  41 :   0.4000 0.2500 0.4000  plane waves:   10009
 k-point  42 :  -0.4000 0.2500-0.4000  plane waves:   10009
 k-point  43 :  -0.4000 0.2500 0.4000  plane waves:   10009
 k-point  44 :   0.4000 0.2500-0.4000  plane waves:   10009
 k-point  45 :  -0.2000 0.2500 0.4000  plane waves:   10008
 k-point  46 :   0.2000 0.2500-0.4000  plane waves:   10008
 k-point  47 :   0.0000 0.5000 0.4000  plane waves:   10008
 k-point  48 :   0.2000 0.5000 0.4000  plane waves:   10030
 k-point  49 :   0.4000 0.5000 0.4000  plane waves:   10020
 k-point  50 :  -0.4000 0.5000 0.4000  plane waves:   10012
 k-point  51 :  -0.2000 0.5000 0.4000  plane waves:   10010

 maximum and minimum number of plane-waves per node :      2530     2458

 maximum number of plane-waves:     10034
 maximum index in each direction: 
   IXMAX=   13   IYMAX=   16   IZMAX=   12
   IXMIN=  -13   IYMIN=  -16   IZMIN=  -12


 real space projection operators:
  total allocation   :      13177.75 KBytes
  max/ min on nodes  :       3409.09       3179.78


 parallel 3D FFT for wavefunctions:
    minimum data exchange during FFTs selected (reduces bandwidth)
 parallel 3D FFT for charge:
    minimum data exchange during FFTs selected (reduces bandwidth)


 total amount of memory used by VASP MPI-rank0   150940. kBytes
=======================================================================

   base      :      30000. kBytes
   nonlr-proj:       8765. kBytes
   fftplans  :       3803. kBytes
   grid      :      15061. kBytes
   one-center:        248. kBytes
   wavefun   :      93063. kBytes
 
     INWAV:  cpu time    0.0000: real time    0.0000
 Broyden mixing: mesh for mixing (old mesh)
   NGX = 27   NGY = 33   NGZ = 25
  (NGX  =108   NGY  =140   NGZ  =100)
  gives a total of  22275 points

 initial charge density was supplied:
 number of electron     216.0000015 magnetization      -0.0000000
 keeping initial charge density in first step


--------------------------------------------------------------------------------------------------------


 Maximum index for non-local projection operator         2052
 Maximum index for augmentation-charges         1256 (set IRDMAX)


--------------------------------------------------------------------------------------------------------


 First call to EWALD:  gamma=   0.247
 Maximum number of real-space cells 3x 2x 3
 Maximum number of reciprocal cells 3x 3x 3

    FEWALD:  cpu time    0.0020: real time    0.0020


--------------------------------------- Iteration      1(   1)  ---------------------------------------


    POTLOK:  cpu time    0.1705: real time    0.1748
    SETDIJ:  cpu time    1.7283: real time    1.7284
atom =   5  type =  2  l = 2
 
 onsite density matrix
 
spin component  1
 
  0.1859 -0.0010 -0.0151  0.0407 -0.0793
 -0.0010  0.1256 -0.0532 -0.0551  0.0028
 -0.0151 -0.0532  0.1895  0.0477 -0.0083
  0.0407 -0.0551  0.0477  0.1914 -0.0591
 -0.0793  0.0028 -0.0083 -0.0591  0.1928
 
spin component  2
 
  0.1859 -0.0010 -0.0151  0.0407 -0.0793
 -0.0010  0.1256 -0.0532 -0.0551  0.0028
 -0.0151 -0.0532  0.1895  0.0477 -0.0083
  0.0407 -0.0551  0.0477  0.1914 -0.0591
 -0.0793  0.0028 -0.0083 -0.0591  0.1928
 
 occupancies and eigenvectors
 
  o =  0.0816  v = -0.1067 -0.8133 -0.2536 -0.4180 -0.2968  0.0000  0.0000  0.0000  0.0000  0.0000      0.0000  0.0000  0.0000  0.0000  0.0000  0.0000  0.0000  0.0000  0.0000  0.0000
  o =  0.0816  v =  0.0000  0.0000  0.0000  0.0000  0.0000 -0.1067 -0.8133 -0.2536 -0.4180 -0.2968      0.0000  0.0000  0.0000  0.0000  0.0000  0.0000  0.0000  0.0000  0.0000  0.0000
  o =  0.1094  v =  0.7349 -0.2474  0.1593 -0.2101  0.5738  0.0000  0.0000  0.0000  0.0000  0.0000      0.0000  0.0000  0.0000  0.0000  0.0000  0.0000  0.0000  0.0000  0.0000  0.0000
  o =  0.1094  v =  0.0000  0.0000  0.0000  0.0000  0.0000  0.7349 -0.2474  0.1593 -0.2101  0.5738      0.0000  0.0000  0.0000  0.0000  0.0000  0.0000  0.0000  0.0000  0.0000  0.0000
  o =  0.1242  v = -0.0728 -0.2544 -0.6288  0.6213  0.3855  0.0000  0.0000  0.0000  0.0000  0.0000      0.0000  0.0000  0.0000  0.0000  0.0000  0.0000  0.0000  0.0000  0.0000  0.0000
  o =  0.1242  v =  0.0000  0.0000  0.0000  0.0000  0.0000 -0.0728 -0.2544 -0.6288  0.6213  0.3855      0.0000  0.0000  0.0000  0.0000  0.0000  0.0000  0.0000  0.0000  0.0000  0.0000
  o =  0.2443  v =  0.4851  0.3896 -0.6588 -0.2303 -0.3547  0.0000  0.0000  0.0000  0.0000  0.0000      0.0000  0.0000  0.0000  0.0000  0.0000  0.0000  0.0000  0.0000  0.0000  0.0000
  o =  0.2443  v =  0.0000  0.0000  0.0000  0.0000  0.0000  0.4851  0.3896 -0.6588 -0.2303 -0.3547      0.0000  0.0000  0.0000  0.0000  0.0000  0.0000  0.0000  0.0000  0.0000  0.0000
  o =  0.3257  v = -0.4560  0.2465 -0.2845 -0.5849  0.5552  0.0000  0.0000  0.0000  0.0000  0.0000      0.0000  0.0000  0.0000  0.0000  0.0000  0.0000  0.0000  0.0000  0.0000  0.0000
  o =  0.3257  v =  0.0000  0.0000  0.0000  0.0000  0.0000 -0.4560  0.2465 -0.2845 -0.5849  0.5552      0.0000  0.0000  0.0000  0.0000  0.0000  0.0000  0.0000  0.0000  0.0000  0.0000
atom =   6  type =  2  l = 2
 
 onsite density matrix
 
spin component  1
 
  0.1859 -0.0010  0.0151 -0.0407  0.0793
 -0.0010  0.1256  0.0532  0.0551 -0.0028
  0.0151  0.0532  0.1895  0.0477 -0.0083
 -0.0407  0.0551  0.0477  0.1914 -0.0591
  0.0793 -0.0028 -0.0083 -0.0591  0.1928
 
spin component  2
 
  0.1859 -0.0010  0.0151 -0.0407  0.0793
 -0.0010  0.1256  0.0532  0.0551 -0.0028
  0.0151  0.0532  0.1895  0.0477 -0.0083
 -0.0407  0.0551  0.0477  0.1914 -0.0591
  0.0793 -0.0028 -0.0083 -0.0591  0.1928
 
 occupancies and eigenvectors
 
  o =  0.0816  v =  0.1066  0.8134 -0.2535 -0.4181 -0.2967  0.0000  0.0000  0.0000  0.0000  0.0000      0.0000  0.0000  0.0000  0.0000  0.0000  0.0000  0.0000  0.0000  0.0000  0.0000
  o =  0.0816  v =  0.0000  0.0000  0.0000  0.0000  0.0000  0.1066  0.8134 -0.2535 -0.4181 -0.2967      0.0000  0.0000  0.0000  0.0000  0.0000  0.0000  0.0000  0.0000  0.0000  0.0000
  o =  0.1094  v =  0.0000  0.0000  0.0000  0.0000  0.0000 -0.7349  0.2473  0.1594 -0.2101  0.5738      0.0000  0.0000  0.0000  0.0000  0.0000  0.0000  0.0000  0.0000  0.0000  0.0000
  o =  0.1094  v = -0.7349  0.2473  0.1594 -0.2101  0.5738  0.0000  0.0000  0.0000  0.0000  0.0000      0.0000  0.0000  0.0000  0.0000  0.0000  0.0000  0.0000  0.0000  0.0000  0.0000
  o =  0.1242  v =  0.0727  0.2545 -0.6288  0.6212  0.3856  0.0000  0.0000  0.0000  0.0000  0.0000      0.0000  0.0000  0.0000  0.0000  0.0000  0.0000  0.0000  0.0000  0.0000  0.0000
  o =  0.1242  v =  0.0000  0.0000  0.0000  0.0000  0.0000  0.0727  0.2545 -0.6288  0.6212  0.3856      0.0000  0.0000  0.0000  0.0000  0.0000  0.0000  0.0000  0.0000  0.0000  0.0000
  o =  0.2443  v =  0.0000  0.0000  0.0000  0.0000  0.0000  0.4850  0.3896  0.6589  0.2304  0.3547      0.0000  0.0000  0.0000  0.0000  0.0000  0.0000  0.0000  0.0000  0.0000  0.0000
  o =  0.2443  v =  0.4850  0.3896  0.6589  0.2304  0.3547  0.0000  0.0000  0.0000  0.0000  0.0000      0.0000  0.0000  0.0000  0.0000  0.0000  0.0000  0.0000  0.0000  0.0000  0.0000
  o =  0.3257  v =  0.0000  0.0000  0.0000  0.0000  0.0000 -0.4561  0.2465  0.2844  0.5849 -0.5552      0.0000  0.0000  0.0000  0.0000  0.0000  0.0000  0.0000  0.0000  0.0000  0.0000
  o =  0.3257  v = -0.4561  0.2465  0.2844  0.5849 -0.5552  0.0000  0.0000  0.0000  0.0000  0.0000      0.0000  0.0000  0.0000  0.0000  0.0000  0.0000  0.0000  0.0000  0.0000  0.0000
atom =   7  type =  2  l = 2
 
 onsite density matrix
 
spin component  1
 
  0.1859 -0.0010 -0.0151  0.0407 -0.0793
 -0.0010  0.1256 -0.0532 -0.0551  0.0028
 -0.0151 -0.0532  0.1895  0.0477 -0.0083
  0.0407 -0.0551  0.0477  0.1914 -0.0591
 -0.0793  0.0028 -0.0083 -0.0591  0.1928
 
spin component  2
 
  0.1859 -0.0010 -0.0151  0.0407 -0.0793
 -0.0010  0.1256 -0.0532 -0.0551  0.0028
 -0.0151 -0.0532  0.1895  0.0477 -0.0083
  0.0407 -0.0551  0.0477  0.1914 -0.0591
 -0.0793  0.0028 -0.0083 -0.0591  0.1928
 
 occupancies and eigenvectors
 
  o =  0.0816  v =  0.0000  0.0000  0.0000  0.0000  0.0000 -0.1066 -0.8134 -0.2535 -0.4181 -0.2967      0.0000  0.0000  0.0000  0.0000  0.0000  0.0000  0.0000  0.0000  0.0000  0.0000
  o =  0.0816  v = -0.1066 -0.8134 -0.2535 -0.4181 -0.2967  0.0000  0.0000  0.0000  0.0000  0.0000      0.0000  0.0000  0.0000  0.0000  0.0000  0.0000  0.0000  0.0000  0.0000  0.0000
  o =  0.1094  v =  0.7349 -0.2473  0.1594 -0.2102  0.5737  0.0000  0.0000  0.0000  0.0000  0.0000      0.0000  0.0000  0.0000  0.0000  0.0000  0.0000  0.0000  0.0000  0.0000  0.0000
  o =  0.1094  v =  0.0000  0.0000  0.0000  0.0000  0.0000  0.7349 -0.2473  0.1594 -0.2102  0.5737      0.0000  0.0000  0.0000  0.0000  0.0000  0.0000  0.0000  0.0000  0.0000  0.0000
  o =  0.1242  v =  0.0000  0.0000  0.0000  0.0000  0.0000 -0.0726 -0.2545 -0.6288  0.6212  0.3856      0.0000  0.0000  0.0000  0.0000  0.0000  0.0000  0.0000  0.0000  0.0000  0.0000
  o =  0.1242  v = -0.0726 -0.2545 -0.6288  0.6212  0.3856  0.0000  0.0000  0.0000  0.0000  0.0000      0.0000  0.0000  0.0000  0.0000  0.0000  0.0000  0.0000  0.0000  0.0000  0.0000
  o =  0.2443  v =  0.4850  0.3896 -0.6589 -0.2304 -0.3547  0.0000  0.0000  0.0000  0.0000  0.0000      0.0000  0.0000  0.0000  0.0000  0.0000  0.0000  0.0000  0.0000  0.0000  0.0000
  o =  0.2443  v =  0.0000  0.0000  0.0000  0.0000  0.0000  0.4850  0.3896 -0.6589 -0.2304 -0.3547      0.0000  0.0000  0.0000  0.0000  0.0000  0.0000  0.0000  0.0000  0.0000  0.0000
  o =  0.3257  v = -0.4561  0.2465 -0.2844 -0.5849  0.5552  0.0000  0.0000  0.0000  0.0000  0.0000      0.0000  0.0000  0.0000  0.0000  0.0000  0.0000  0.0000  0.0000  0.0000  0.0000
  o =  0.3257  v =  0.0000  0.0000  0.0000  0.0000  0.0000 -0.4561  0.2465 -0.2844 -0.5849  0.5552      0.0000  0.0000  0.0000  0.0000  0.0000  0.0000  0.0000  0.0000  0.0000  0.0000
atom =   8  type =  2  l = 2
 
 onsite density matrix
 
spin component  1
 
  0.1859 -0.0010  0.0151 -0.0407  0.0793
 -0.0010  0.1256  0.0532  0.0551 -0.0028
  0.0151  0.0532  0.1895  0.0477 -0.0083
 -0.0407  0.0551  0.0477  0.1914 -0.0591
  0.0793 -0.0028 -0.0083 -0.0591  0.1928
 
spin component  2
 
  0.1859 -0.0010  0.0151 -0.0407  0.0793
 -0.0010  0.1256  0.0532  0.0551 -0.0028
  0.0151  0.0532  0.1895  0.0477 -0.0083
 -0.0407  0.0551  0.0477  0.1914 -0.0591
  0.0793 -0.0028 -0.0083 -0.0591  0.1928
 
 occupancies and eigenvectors
 
  o =  0.0816  v =  0.0000  0.0000  0.0000  0.0000  0.0000  0.1067  0.8133 -0.2536 -0.4180 -0.2968      0.0000  0.0000  0.0000  0.0000  0.0000  0.0000  0.0000  0.0000  0.0000  0.0000
  o =  0.0816  v =  0.1067  0.8133 -0.2536 -0.4180 -0.2968  0.0000  0.0000  0.0000  0.0000  0.0000      0.0000  0.0000  0.0000  0.0000  0.0000  0.0000  0.0000  0.0000  0.0000  0.0000
  o =  0.1094  v =  0.0000  0.0000  0.0000  0.0000  0.0000 -0.7349  0.2474  0.1593 -0.2101  0.5738      0.0000  0.0000  0.0000  0.0000  0.0000  0.0000  0.0000  0.0000  0.0000  0.0000
  o =  0.1094  v = -0.7349  0.2474  0.1593 -0.2101  0.5738  0.0000  0.0000  0.0000  0.0000  0.0000      0.0000  0.0000  0.0000  0.0000  0.0000  0.0000  0.0000  0.0000  0.0000  0.0000
  o =  0.1242  v =  0.0727  0.2544 -0.6288  0.6213  0.3855  0.0000  0.0000  0.0000  0.0000  0.0000      0.0000  0.0000  0.0000  0.0000  0.0000  0.0000  0.0000  0.0000  0.0000  0.0000
  o =  0.1242  v =  0.0000  0.0000  0.0000  0.0000  0.0000  0.0727  0.2544 -0.6288  0.6213  0.3855      0.0000  0.0000  0.0000  0.0000  0.0000  0.0000  0.0000  0.0000  0.0000  0.0000
  o =  0.2443  v =  0.0000  0.0000  0.0000  0.0000  0.0000  0.4851  0.3896  0.6588  0.2303  0.3547      0.0000  0.0000  0.0000  0.0000  0.0000  0.0000  0.0000  0.0000  0.0000  0.0000
  o =  0.2443  v =  0.4851  0.3896  0.6588  0.2303  0.3547  0.0000  0.0000  0.0000  0.0000  0.0000      0.0000  0.0000  0.0000  0.0000  0.0000  0.0000  0.0000  0.0000  0.0000  0.0000
  o =  0.3257  v = -0.4560  0.2465  0.2845  0.5849 -0.5552  0.0000  0.0000  0.0000  0.0000  0.0000      0.0000  0.0000  0.0000  0.0000  0.0000  0.0000  0.0000  0.0000  0.0000  0.0000
  o =  0.3257  v =  0.0000  0.0000  0.0000  0.0000  0.0000 -0.4560  0.2465  0.2845  0.5849 -0.5552      0.0000  0.0000  0.0000  0.0000  0.0000  0.0000  0.0000  0.0000  0.0000  0.0000
     EDDAV:  cpu time   68.2612: real time   68.2704
       DOS:  cpu time    0.0067: real time    0.0067
    --------------------------------------------
      LOOP:  cpu time   70.1667: real time   70.1803

 eigenvalue-minimisations  : 27240
 total energy-change (2. order) : 0.2399626E+04  (-0.1107273E+05)
 number of electron     216.0000015 magnetization      -0.0000000
 augmentation part      216.0000015 magnetization      -0.0000000

 Free energy of the ion-electron system (eV)
  ---------------------------------------------------
  alpha Z        PSCENC =       837.32702370
  Ewald energy   TEWEN  =    -12842.22543058
  -Hartree energ DENC   =     -4438.13061588
  -exchange      EXHF   =         0.00000000
  -V(xc)+E(xc)   XCENC  =      1016.69958086
  PAW double counting   =     26792.43011639   -26892.15225810
  entropy T*S    EENTRO =        -0.00830895
  eigenvalues    EBANDS =       671.51570751
  atomic energy  EATOM  =     17254.17019647
  Solvation  Ediel_sol  =         0.00000000
  ---------------------------------------------------
  free energy    TOTEN  =      2399.62601143 eV

  energy without entropy =     2399.63432038  energy(sigma->0) =     2399.63016591


--------------------------------------------------------------------------------------------------------




--------------------------------------- Iteration      1(   2)  ---------------------------------------


     EDDAV:  cpu time   69.1511: real time   69.1554
       DOS:  cpu time    0.0062: real time    0.0062
    --------------------------------------------
      LOOP:  cpu time   69.1573: real time   69.1616

 eigenvalue-minimisations  : 27720
 total energy-change (2. order) :-0.2437145E+04  (-0.2316139E+04)
 number of electron     216.0000015 magnetization      -0.0000000
 augmentation part      216.0000015 magnetization      -0.0000000

 Free energy of the ion-electron system (eV)
  ---------------------------------------------------
  alpha Z        PSCENC =       837.32702370
  Ewald energy   TEWEN  =    -12842.22543058
  -Hartree energ DENC   =     -4438.13061588
  -exchange      EXHF   =         0.00000000
  -V(xc)+E(xc)   XCENC  =      1016.69958086
  PAW double counting   =     26792.43011639   -26892.15225810
  entropy T*S    EENTRO =        -0.01601443
  eigenvalues    EBANDS =     -1765.62148035
  atomic energy  EATOM  =     17254.17019647
  Solvation  Ediel_sol  =         0.00000000
  ---------------------------------------------------
  free energy    TOTEN  =       -37.51888191 eV

  energy without entropy =      -37.50286748  energy(sigma->0) =      -37.51087469


--------------------------------------------------------------------------------------------------------




--------------------------------------- Iteration      1(   3)  ---------------------------------------


     EDDAV:  cpu time   83.1154: real time   83.1204
       DOS:  cpu time    0.0026: real time    0.0026
    --------------------------------------------
      LOOP:  cpu time   83.1180: real time   83.1230

 eigenvalue-minimisations  : 36696
 total energy-change (2. order) :-0.3732022E+03  (-0.3484164E+03)
 number of electron     216.0000015 magnetization      -0.0000000
 augmentation part      216.0000015 magnetization      -0.0000000

 Free energy of the ion-electron system (eV)
  ---------------------------------------------------
  alpha Z        PSCENC =       837.32702370
  Ewald energy   TEWEN  =    -12842.22543058
  -Hartree energ DENC   =     -4438.13061588
  -exchange      EXHF   =         0.00000000
  -V(xc)+E(xc)   XCENC  =      1016.69958086
  PAW double counting   =     26792.43011639   -26892.15225810
  entropy T*S    EENTRO =        -0.00000000
  eigenvalues    EBANDS =     -2138.83971796
  atomic energy  EATOM  =     17254.17019647
  Solvation  Ediel_sol  =         0.00000000
  ---------------------------------------------------
  free energy    TOTEN  =      -410.72110509 eV

  energy without entropy =     -410.72110509  energy(sigma->0) =     -410.72110509


--------------------------------------------------------------------------------------------------------




--------------------------------------- Iteration      1(   4)  ---------------------------------------


     EDDAV:  cpu time   78.2189: real time   78.2232
       DOS:  cpu time    0.0027: real time    0.0027
    --------------------------------------------
      LOOP:  cpu time   78.2216: real time   78.2259

 eigenvalue-minimisations  : 33564
 total energy-change (2. order) :-0.2108927E+02  (-0.2086053E+02)
 number of electron     216.0000015 magnetization      -0.0000000
 augmentation part      216.0000015 magnetization      -0.0000000

 Free energy of the ion-electron system (eV)
  ---------------------------------------------------
  alpha Z        PSCENC =       837.32702370
  Ewald energy   TEWEN  =    -12842.22543058
  -Hartree energ DENC   =     -4438.13061588
  -exchange      EXHF   =         0.00000000
  -V(xc)+E(xc)   XCENC  =      1016.69958086
  PAW double counting   =     26792.43011639   -26892.15225810
  entropy T*S    EENTRO =        -0.00000000
  eigenvalues    EBANDS =     -2159.92898754
  atomic energy  EATOM  =     17254.17019647
  Solvation  Ediel_sol  =         0.00000000
  ---------------------------------------------------
  free energy    TOTEN  =      -431.81037467 eV

  energy without entropy =     -431.81037467  energy(sigma->0) =     -431.81037467


--------------------------------------------------------------------------------------------------------




--------------------------------------- Iteration      1(   5)  ---------------------------------------


     EDDAV:  cpu time  104.3496: real time  104.3552
       DOS:  cpu time    0.0027: real time    0.0027
    CHARGE:  cpu time    9.5475: real time    9.5480
    MIXING:  cpu time    0.0020: real time    0.0020
    --------------------------------------------
      LOOP:  cpu time  113.9018: real time  113.9080

 eigenvalue-minimisations  : 50532
 total energy-change (2. order) :-0.1519005E+01  (-0.1517358E+01)
 number of electron     216.0000015 magnetization       0.0000000
 augmentation part       40.0105175 magnetization       0.0019123

 Broyden mixing:
  rms(total) = 0.62417E+00    rms(broyden)= 0.62400E+00
  rms(prec ) = 0.73932E+00
  weight for this iteration     100.00

 Free energy of the ion-electron system (eV)
  ---------------------------------------------------
  alpha Z        PSCENC =       837.32702370
  Ewald energy   TEWEN  =    -12842.22543058
  -Hartree energ DENC   =     -4438.13061588
  -exchange      EXHF   =         0.00000000
  -V(xc)+E(xc)   XCENC  =      1016.69958086
  PAW double counting   =     26792.43011639   -26892.15225810
  entropy T*S    EENTRO =        -0.00000000
  eigenvalues    EBANDS =     -2161.44799303
  atomic energy  EATOM  =     17254.17019647
  Solvation  Ediel_sol  =         0.00000000
  ---------------------------------------------------
  free energy    TOTEN  =      -433.32938015 eV

  energy without entropy =     -433.32938015  energy(sigma->0) =     -433.32938015


--------------------------------------------------------------------------------------------------------




--------------------------------------- Iteration      1(   6)  ---------------------------------------


    POTLOK:  cpu time    0.1654: real time    0.1654
    SETDIJ:  cpu time    1.7327: real time    1.7328
atom =   5  type =  2  l = 2
 
 onsite density matrix
 
spin component  1
 
  0.1883 -0.0010 -0.0150  0.0404 -0.0788
 -0.0010  0.1282 -0.0529 -0.0550  0.0027
 -0.0150 -0.0529  0.1920  0.0472 -0.0083
  0.0404 -0.0550  0.0472  0.1937 -0.0585
 -0.0788  0.0027 -0.0083 -0.0585  0.1949
 
spin component  2
 
  0.1883 -0.0010 -0.0151  0.0404 -0.0788
 -0.0010  0.1282 -0.0529 -0.0550  0.0027
 -0.0151 -0.0529  0.1920  0.0472 -0.0083
  0.0404 -0.0550  0.0472  0.1937 -0.0586
 -0.0788  0.0027 -0.0083 -0.0586  0.1950
 
 occupancies and eigenvectors
 
  o =  0.0843  v =  0.0000  0.0000  0.0000  0.0000  0.0000 -0.1063 -0.8132 -0.2534 -0.4187 -0.2963      0.0000  0.0000  0.0000  0.0000  0.0000  0.0000  0.0000  0.0000  0.0000  0.0000
  o =  0.0843  v = -0.1063 -0.8132 -0.2534 -0.4187 -0.2964  0.0000  0.0000  0.0000  0.0000  0.0000      0.0000  0.0000  0.0000  0.0000  0.0000  0.0000  0.0000  0.0000  0.0000  0.0000
  o =  0.1122  v =  0.7343 -0.2472  0.1587 -0.2094  0.5751  0.0000  0.0000  0.0000  0.0000  0.0000      0.0000  0.0000  0.0000  0.0000  0.0000  0.0000  0.0000  0.0000  0.0000  0.0000
  o =  0.1122  v =  0.0000  0.0000  0.0000  0.0000  0.0000  0.7343 -0.2473  0.1585 -0.2091  0.5752      0.0000  0.0000  0.0000  0.0000  0.0000  0.0000  0.0000  0.0000  0.0000  0.0000
  o =  0.1273  v =  0.0000  0.0000  0.0000  0.0000  0.0000 -0.0739 -0.2541 -0.6294  0.6213  0.3844      0.0000  0.0000  0.0000  0.0000  0.0000  0.0000  0.0000  0.0000  0.0000  0.0000
  o =  0.1273  v = -0.0736 -0.2543 -0.6293  0.6213  0.3845  0.0000  0.0000  0.0000  0.0000  0.0000      0.0000  0.0000  0.0000  0.0000  0.0000  0.0000  0.0000  0.0000  0.0000  0.0000
  o =  0.2463  v =  0.4856  0.3896 -0.6584 -0.2303 -0.3549  0.0000  0.0000  0.0000  0.0000  0.0000      0.0000  0.0000  0.0000  0.0000  0.0000  0.0000  0.0000  0.0000  0.0000  0.0000
  o =  0.2464  v =  0.0000  0.0000  0.0000  0.0000  0.0000  0.4858  0.3895 -0.6583 -0.2302 -0.3549      0.0000  0.0000  0.0000  0.0000  0.0000  0.0000  0.0000  0.0000  0.0000  0.0000
  o =  0.3270  v = -0.4564  0.2473 -0.2848 -0.5847  0.5547  0.0000  0.0000  0.0000  0.0000  0.0000      0.0000  0.0000  0.0000  0.0000  0.0000  0.0000  0.0000  0.0000  0.0000  0.0000
  o =  0.3270  v =  0.0000  0.0000  0.0000  0.0000  0.0000 -0.4561  0.2474 -0.2848 -0.5848  0.5547      0.0000  0.0000  0.0000  0.0000  0.0000  0.0000  0.0000  0.0000  0.0000  0.0000
atom =   6  type =  2  l = 2
 
 onsite density matrix
 
spin component  1
 
  0.1883 -0.0010  0.0150 -0.0404  0.0788
 -0.0010  0.1282  0.0529  0.0550 -0.0027
  0.0150  0.0529  0.1920  0.0472 -0.0083
 -0.0404  0.0550  0.0472  0.1937 -0.0586
  0.0788 -0.0027 -0.0083 -0.0586  0.1950
 
spin component  2
 
  0.1883 -0.0010  0.0150 -0.0404  0.0788
 -0.0010  0.1282  0.0528  0.0550 -0.0027
  0.0150  0.0528  0.1919  0.0472 -0.0083
 -0.0404  0.0550  0.0472  0.1937 -0.0585
  0.0788 -0.0027 -0.0083 -0.0585  0.1949
 
 occupancies and eigenvectors
 
  o =  0.0843  v =  0.0000  0.0000  0.0000  0.0000  0.0000  0.1064  0.8132 -0.2534 -0.4187 -0.2964      0.0000  0.0000  0.0000  0.0000  0.0000  0.0000  0.0000  0.0000  0.0000  0.0000
  o =  0.0843  v =  0.1060  0.8133 -0.2533 -0.4188 -0.2962  0.0000  0.0000  0.0000  0.0000  0.0000      0.0000  0.0000  0.0000  0.0000  0.0000  0.0000  0.0000  0.0000  0.0000  0.0000
  o =  0.1122  v =  0.0000  0.0000  0.0000  0.0000  0.0000 -0.7343  0.2473  0.1589 -0.2096  0.5749      0.0000  0.0000  0.0000  0.0000  0.0000  0.0000  0.0000  0.0000  0.0000  0.0000
  o =  0.1122  v = -0.7344  0.2470  0.1586 -0.2090  0.5753  0.0000  0.0000  0.0000  0.0000  0.0000      0.0000  0.0000  0.0000  0.0000  0.0000  0.0000  0.0000  0.0000  0.0000  0.0000
  o =  0.1273  v =  0.0739  0.2543 -0.6294  0.6213  0.3843  0.0000  0.0000  0.0000  0.0000  0.0000      0.0000  0.0000  0.0000  0.0000  0.0000  0.0000  0.0000  0.0000  0.0000  0.0000
  o =  0.1273  v =  0.0000  0.0000  0.0000  0.0000  0.0000  0.0735  0.2543 -0.6294  0.6211  0.3847      0.0000  0.0000  0.0000  0.0000  0.0000  0.0000  0.0000  0.0000  0.0000  0.0000
  o =  0.2463  v =  0.0000  0.0000  0.0000  0.0000  0.0000  0.4857  0.3895  0.6583  0.2303  0.3548      0.0000  0.0000  0.0000  0.0000  0.0000  0.0000  0.0000  0.0000  0.0000  0.0000
  o =  0.2464  v =  0.4856  0.3896  0.6584  0.2303  0.3548  0.0000  0.0000  0.0000  0.0000  0.0000      0.0000  0.0000  0.0000  0.0000  0.0000  0.0000  0.0000  0.0000  0.0000  0.0000
  o =  0.3270  v =  0.0000  0.0000  0.0000  0.0000  0.0000 -0.4563  0.2474  0.2847  0.5847 -0.5547      0.0000  0.0000  0.0000  0.0000  0.0000  0.0000  0.0000  0.0000  0.0000  0.0000
  o =  0.3270  v = -0.4563  0.2472  0.2847  0.5847 -0.5547  0.0000  0.0000  0.0000  0.0000  0.0000      0.0000  0.0000  0.0000  0.0000  0.0000  0.0000  0.0000  0.0000  0.0000  0.0000
atom =   7  type =  2  l = 2
 
 onsite density matrix
 
spin component  1
 
  0.1883 -0.0010 -0.0150  0.0404 -0.0788
 -0.0010  0.1282 -0.0528 -0.0550  0.0027
 -0.0150 -0.0528  0.1919  0.0472 -0.0083
  0.0404 -0.0550  0.0472  0.1937 -0.0585
 -0.0788  0.0027 -0.0083 -0.0585  0.1950
 
spin component  2
 
  0.1883 -0.0010 -0.0150  0.0404 -0.0788
 -0.0010  0.1282 -0.0529 -0.0550  0.0027
 -0.0150 -0.0529  0.1920  0.0472 -0.0083
  0.0404 -0.0550  0.0472  0.1937 -0.0585
 -0.0788  0.0027 -0.0083 -0.0585  0.1949
 
 occupancies and eigenvectors
 
  o =  0.0843  v =  0.0000  0.0000  0.0000  0.0000  0.0000 -0.1062 -0.8132 -0.2533 -0.4189 -0.2964      0.0000  0.0000  0.0000  0.0000  0.0000  0.0000  0.0000  0.0000  0.0000  0.0000
  o =  0.0843  v = -0.1064 -0.8133 -0.2535 -0.4186 -0.2962  0.0000  0.0000  0.0000  0.0000  0.0000      0.0000  0.0000  0.0000  0.0000  0.0000  0.0000  0.0000  0.0000  0.0000  0.0000
  o =  0.1122  v =  0.0000  0.0000  0.0000  0.0000  0.0000  0.7343 -0.2471  0.1587 -0.2092  0.5751      0.0000  0.0000  0.0000  0.0000  0.0000  0.0000  0.0000  0.0000  0.0000  0.0000
  o =  0.1122  v =  0.7343 -0.2471  0.1588 -0.2095  0.5750  0.0000  0.0000  0.0000  0.0000  0.0000      0.0000  0.0000  0.0000  0.0000  0.0000  0.0000  0.0000  0.0000  0.0000  0.0000
  o =  0.1273  v =  0.0000  0.0000  0.0000  0.0000  0.0000 -0.0738 -0.2544 -0.6294  0.6211  0.3845      0.0000  0.0000  0.0000  0.0000  0.0000  0.0000  0.0000  0.0000  0.0000  0.0000
  o =  0.1273  v = -0.0734 -0.2542 -0.6293  0.6213  0.3847  0.0000  0.0000  0.0000  0.0000  0.0000      0.0000  0.0000  0.0000  0.0000  0.0000  0.0000  0.0000  0.0000  0.0000  0.0000
  o =  0.2463  v =  0.4855  0.3895 -0.6585 -0.2305 -0.3547  0.0000  0.0000  0.0000  0.0000  0.0000      0.0000  0.0000  0.0000  0.0000  0.0000  0.0000  0.0000  0.0000  0.0000  0.0000
  o =  0.2464  v =  0.0000  0.0000  0.0000  0.0000  0.0000  0.4858  0.3895 -0.6583 -0.2302 -0.3549      0.0000  0.0000  0.0000  0.0000  0.0000  0.0000  0.0000  0.0000  0.0000  0.0000
  o =  0.3270  v =  0.0000  0.0000  0.0000  0.0000  0.0000 -0.4562  0.2474 -0.2848 -0.5848  0.5546      0.0000  0.0000  0.0000  0.0000  0.0000  0.0000  0.0000  0.0000  0.0000  0.0000
  o =  0.3270  v = -0.4565  0.2472 -0.2846 -0.5846  0.5548  0.0000  0.0000  0.0000  0.0000  0.0000      0.0000  0.0000  0.0000  0.0000  0.0000  0.0000  0.0000  0.0000  0.0000  0.0000
atom =   8  type =  2  l = 2
 
 onsite density matrix
 
spin component  1
 
  0.1883 -0.0010  0.0150 -0.0404  0.0788
 -0.0010  0.1282  0.0529  0.0550 -0.0027
  0.0150  0.0529  0.1920  0.0472 -0.0084
 -0.0404  0.0550  0.0472  0.1937 -0.0586
  0.0788 -0.0027 -0.0084 -0.0586  0.1950
 
spin component  2
 
  0.1883 -0.0010  0.0150 -0.0404  0.0788
 -0.0010  0.1282  0.0529  0.0550 -0.0027
  0.0150  0.0529  0.1920  0.0472 -0.0083
 -0.0404  0.0550  0.0472  0.1937 -0.0585
  0.0788 -0.0027 -0.0083 -0.0585  0.1949
 
 occupancies and eigenvectors
 
[...]
  0.000   0.000   0.000   0.000   0.000   0.000   0.000   0.000   0.000  -0.000  -0.000   0.000  -0.000  -0.000   0.000   0.000
  0.000  -0.000  -0.000  -0.000   0.000   0.000   0.000   0.000  -0.000   0.000  -0.000  -0.000   0.000  -0.000  -0.000   0.000
 -0.000  -0.000   0.000   0.000   0.000   0.000   0.000   0.000   0.000   0.000  -0.000   0.000  -0.000  -0.000  -0.000  -0.000
 -0.000  -0.000   0.000   0.000   0.000   0.000  -0.000   0.000   0.000  -0.000   0.000  -0.000   0.000  -0.000   0.000   0.000
  0.000  -0.000   0.000  -0.000   0.000  -0.000   0.000   0.000  -0.000   0.000  -0.000   0.000  -0.000   0.000  -0.000   0.000
  0.000   0.000   0.000  -0.000  -0.000  -0.000  -0.000  -0.000   0.000  -0.000   0.000   0.000  -0.000  -0.000   0.000  -0.000
 -0.000  -0.000   0.000   0.000   0.000   0.000  -0.000   0.000  -0.000   0.000   0.000   0.000  -0.000   0.000  -0.000  -0.000
  0.000   0.000   0.000  -0.000   0.000  -0.000   0.000  -0.000   0.000  -0.000  -0.000  -0.000   0.000  -0.000   0.000  -0.000
  0.000   0.000  -0.000  -0.000  -0.000  -0.000  -0.000  -0.000  -0.000   0.000  -0.000   0.000  -0.000   0.000  -0.000  -0.000
 -0.000  -0.000  -0.000   0.000  -0.000   0.000  -0.000  -0.000   0.000  -0.000   0.000  -0.000   0.000  -0.000  -0.000  -0.000
 -0.000  -0.000  -0.000   0.000   0.000   0.000   0.000  -0.000   0.000   0.000  -0.000  -0.000  -0.000  -0.000  -0.000   0.000
  0.000   0.000  -0.000  -0.000  -0.000  -0.000   0.000   0.000  -0.000  -0.000  -0.000  -0.000  -0.000   0.000   0.000   0.000
 -0.000  -0.000  -0.000   0.000  -0.000   0.000  -0.000   0.000  -0.000   0.000   0.000   0.000  -0.000   0.000  -0.000   0.000


------------------------ aborting loop because EDIFF is reached ----------------------------------------


 


 total charge     
 
# of ion       s       p       d       tot
------------------------------------------
    1        2.020   5.869   0.222   8.110
    2        2.020   5.869   0.222   8.110
    3        2.020   5.869   0.222   8.110
    4        2.020   5.869   0.222   8.110
    5        0.354   6.489   1.738   8.580
    6        0.354   6.489   1.738   8.580
    7        0.354   6.489   1.738   8.580
    8        0.354   6.489   1.738   8.580
    9        0.654   1.003   0.000   1.657
   10        0.654   1.003   0.000   1.657
   11        0.654   1.003   0.000   1.657
   12        0.654   1.003   0.000   1.657
   13        1.585   3.555   0.000   5.140
   14        1.585   3.555   0.000   5.140
   15        1.585   3.555   0.000   5.140
   16        1.585   3.555   0.000   5.140
   17        1.567   3.612   0.000   5.179
   18        1.567   3.612   0.000   5.179
   19        1.567   3.612   0.000   5.179
   20        1.567   3.612   0.000   5.179
   21        1.566   3.615   0.000   5.181
   22        1.566   3.615   0.000   5.181
   23        1.566   3.615   0.000   5.181
   24        1.566   3.615   0.000   5.181
   25        1.567   3.613   0.000   5.180
   26        1.567   3.613   0.000   5.180
   27        1.567   3.613   0.000   5.180
   28        1.567   3.613   0.000   5.180
   29        1.565   3.615   0.000   5.180
   30        1.565   3.615   0.000   5.180
   31        1.565   3.615   0.000   5.180
   32        1.565   3.615   0.000   5.180
--------------------------------------------------
tot         43.509 125.481   7.839 176.830
 


 magnetization (x)
 
# of ion       s       p       d       tot
------------------------------------------
    1        0.000   0.000   0.000   0.000
    2        0.000   0.000   0.000   0.000
    3        0.000   0.000   0.000   0.000
    4        0.000   0.000   0.000   0.000
    5        0.000  -0.000   0.000   0.000
    6        0.000  -0.000   0.000   0.000
    7        0.000  -0.000   0.000   0.000
    8        0.000  -0.000   0.000   0.000
    9       -0.000   0.000   0.000   0.000
   10       -0.000   0.000   0.000   0.000
   11       -0.000   0.000   0.000   0.000
   12       -0.000   0.000   0.000   0.000
   13        0.000  -0.000   0.000  -0.000
   14        0.000  -0.000   0.000  -0.000
   15        0.000  -0.000   0.000  -0.000
   16       -0.000  -0.000   0.000  -0.000
   17       -0.000  -0.000   0.000  -0.000
   18       -0.000  -0.000   0.000  -0.000
   19       -0.000  -0.000   0.000  -0.000
   20       -0.000  -0.000   0.000  -0.000
   21        0.000  -0.000   0.000  -0.000
   22       -0.000  -0.000   0.000  -0.000
   23       -0.000  -0.000   0.000  -0.000
   24       -0.000  -0.000   0.000  -0.000
   25       -0.000  -0.000   0.000  -0.000
   26       -0.000  -0.000   0.000  -0.000
   27       -0.000  -0.000   0.000  -0.000
   28       -0.000  -0.000   0.000  -0.000
   29       -0.000  -0.000   0.000  -0.000
   30       -0.000  -0.000   0.000  -0.000
   31       -0.000  -0.000   0.000  -0.000
   32       -0.000  -0.000   0.000  -0.000
--------------------------------------------------
tot          0.000  -0.000   0.000  -0.000
 
    CHARGE:  cpu time    1.1765: real time    1.1766
    FORLOC:  cpu time    0.0100: real time    0.0100
    FORNL :  cpu time    9.0409: real time    9.0413
    STRESS:  cpu time  187.7410: real time  187.7504
    FORCOR:  cpu time    0.1698: real time    0.1698
    FORHAR:  cpu time    0.0171: real time    0.0171
    MIXING:  cpu time    0.0028: real time    0.0028
    OFIELD:  cpu time    0.0000: real time    0.0000

  FORCE on cell =-STRESS in cart. coord.  units (eV):
  Direction    XX          YY          ZZ          XY          YZ          ZX
  --------------------------------------------------------------------------------------
  Alpha Z   837.32702   837.32702   837.32702
  Ewald   -4382.87444 -3782.39526 -4677.00489    -0.00035     0.00073   128.53571
  Hartree  1456.75433  1725.23901  1256.21405    -0.00045     0.00092    78.10804
  E(xc)   -1086.35191 -1086.67603 -1086.22816    -0.00001     0.00000     0.29044
  Local    -387.24861 -1235.56359   109.30571     0.00085    -0.00166  -209.92221
  n-local  -550.04006  -555.17645  -557.37942     0.00003    -0.00000    -4.76262
  augment   462.72270   460.21787   460.83741    -0.00001     0.00000     0.33287
  Kinetic  3649.68280  3637.24363  3656.93135    -0.00007     0.00012     7.32516
  Fock        0.00000     0.00000     0.00000     0.00000     0.00000     0.00000
  -------------------------------------------------------------------------------------
  Total      -0.02816     0.21620     0.00308    -0.00000     0.00012    -0.09260
  in kB      -0.12140     0.93194     0.01327    -0.00001     0.00051    -0.39915
  external pressure =        0.27 kB  Pullay stress =        0.00 kB


 VOLUME and BASIS-vectors are now :
 -----------------------------------------------------------------------------
  energy-cutoff  :      520.00
  volume of cell :      371.69
      direct lattice vectors                 reciprocal lattice vectors
     6.464329842  0.000002807 -2.856718565     0.154619043 -0.000000049 -0.000172052
     0.000002790  8.724111014 -0.000002247    -0.000000037  0.114624860  0.000000030
     0.007330191 -0.000001702  6.587479132     0.067051915  0.000000018  0.151728526

  length of vectors
     7.067418289  8.724111014  6.587483211     0.154619139  0.114624860  0.165884010


 FORCES acting on ions
    electron-ion (+dipol)            ewald-force                    non-local-force                 convergence-correction
 -----------------------------------------------------------------------------------------------
   -.242E+01 -.628E+02 0.916E+00   0.239E+01 0.613E+02 -.879E+00   0.254E-01 0.143E+01 -.331E-01   0.167E-05 -.298E-03 -.937E-05
   0.244E+01 -.627E+02 -.908E+00   -.241E+01 0.613E+02 0.871E+00   -.266E-01 0.143E+01 0.333E-01   0.271E-04 -.301E-03 -.109E-04
   0.244E+01 0.627E+02 -.909E+00   -.241E+01 -.613E+02 0.872E+00   -.266E-01 -.143E+01 0.333E-01   0.143E-04 0.297E-03 0.569E-05
   -.242E+01 0.628E+02 0.916E+00   0.239E+01 -.613E+02 -.879E+00   0.254E-01 -.143E+01 -.332E-01   -.221E-05 0.312E-03 -.988E-05
   -.605E+00 -.108E+00 0.566E+00   0.608E+00 0.517E-01 -.582E+00   0.110E-01 0.498E-01 0.809E-02   0.676E-05 -.322E-05 -.161E-04
   0.597E+00 -.101E+00 -.586E+00   -.590E+00 0.397E-01 0.607E+00   -.206E-01 0.560E-01 -.143E-01   0.102E-04 0.678E-05 0.141E-04
   0.598E+00 0.101E+00 -.586E+00   -.590E+00 -.395E-01 0.608E+00   -.206E-01 -.560E-01 -.143E-01   0.200E-04 -.148E-04 0.144E-04
   -.606E+00 0.107E+00 0.567E+00   0.608E+00 -.514E-01 -.582E+00   0.110E-01 -.498E-01 0.810E-02   -.563E-05 -.312E-05 -.966E-05
   0.746E+00 -.212E+01 0.284E+00   -.714E+00 0.327E+01 -.219E+00   -.710E-02 -.110E+01 -.660E-01   0.686E-06 0.390E-05 0.128E-05
   -.755E+00 -.207E+01 -.276E+00   0.720E+00 0.322E+01 0.211E+00   0.948E-02 -.112E+01 0.645E-01   -.416E-05 0.786E-05 0.940E-06
   -.756E+00 0.207E+01 -.276E+00   0.721E+00 -.322E+01 0.211E+00   0.959E-02 0.112E+01 0.646E-01   -.408E-05 -.805E-05 0.515E-06
   0.746E+00 0.212E+01 0.284E+00   -.713E+00 -.327E+01 -.219E+00   -.698E-02 0.110E+01 -.661E-01   0.198E-06 -.377E-05 0.221E-05
   0.749E+00 0.483E+02 -.134E+00   -.788E+00 -.530E+02 0.116E+00   0.575E-01 0.473E+01 0.141E-01   -.150E-05 -.203E-03 -.930E-06
   -.750E+00 0.483E+02 0.128E+00   0.790E+00 -.530E+02 -.111E+00   -.584E-01 0.473E+01 -.125E-01   -.602E-05 -.207E-03 0.306E-05
   -.750E+00 -.483E+02 0.128E+00   0.789E+00 0.530E+02 -.111E+00   -.585E-01 -.473E+01 -.124E-01   -.328E-06 0.199E-03 0.315E-05
   0.749E+00 -.483E+02 -.134E+00   -.788E+00 0.530E+02 0.116E+00   0.575E-01 -.473E+01 0.140E-01   0.318E-06 0.203E-03 -.694E-05
   -.267E+02 0.193E+02 0.940E+02   0.433E+02 -.775E+01 -.911E+02   -.167E+02 -.116E+02 -.289E+01   0.552E-03 0.596E-03 0.455E-03
   0.267E+02 0.193E+02 -.939E+02   -.434E+02 -.773E+01 0.910E+02   0.167E+02 -.116E+02 0.289E+01   -.559E-03 0.601E-03 -.467E-03
   0.267E+02 -.193E+02 -.939E+02   -.434E+02 0.773E+01 0.910E+02   0.167E+02 0.116E+02 0.289E+01   -.557E-03 -.599E-03 -.464E-03
   -.267E+02 -.193E+02 0.940E+02   0.433E+02 0.775E+01 -.911E+02   -.167E+02 0.116E+02 -.289E+01   0.553E-03 -.592E-03 0.458E-03
   0.176E+02 0.840E+02 0.285E+02   -.763E+01 -.784E+02 -.455E+02   -.998E+01 -.560E+01 0.171E+02   0.555E-03 0.480E-03 -.822E-03
   -.176E+02 0.840E+02 -.285E+02   0.761E+01 -.784E+02 0.455E+02   0.998E+01 -.559E+01 -.171E+02   -.560E-03 0.474E-03 0.831E-03
   -.176E+02 -.840E+02 -.285E+02   0.761E+01 0.784E+02 0.455E+02   0.998E+01 0.559E+01 -.171E+02   -.557E-03 -.481E-03 0.829E-03
   0.176E+02 -.840E+02 0.285E+02   -.763E+01 0.784E+02 -.455E+02   -.998E+01 0.560E+01 0.171E+02   0.558E-03 -.478E-03 -.828E-03
   -.265E+02 0.212E+02 0.947E+02   0.432E+02 -.979E+01 -.918E+02   -.167E+02 -.114E+02 -.293E+01   0.549E-03 0.604E-03 0.476E-03
   0.265E+02 0.212E+02 -.947E+02   -.432E+02 -.979E+01 0.918E+02   0.167E+02 -.114E+02 0.293E+01   -.549E-03 0.602E-03 -.462E-03
   0.265E+02 -.212E+02 -.947E+02   -.432E+02 0.979E+01 0.918E+02   0.167E+02 0.114E+02 0.293E+01   -.550E-03 -.599E-03 -.462E-03
   -.265E+02 -.212E+02 0.947E+02   0.432E+02 0.979E+01 -.918E+02   -.167E+02 0.114E+02 -.293E+01   0.555E-03 -.610E-03 0.472E-03
   0.206E+02 0.817E+02 0.278E+02   -.106E+02 -.760E+02 -.446E+02   -.100E+02 -.569E+01 0.168E+02   0.580E-03 0.477E-03 -.818E-03
   -.206E+02 0.817E+02 -.278E+02   0.106E+02 -.760E+02 0.446E+02   0.100E+02 -.569E+01 -.168E+02   -.580E-03 0.467E-03 0.819E-03
   -.206E+02 -.817E+02 -.278E+02   0.106E+02 0.760E+02 0.446E+02   0.100E+02 0.569E+01 -.168E+02   -.575E-03 -.464E-03 0.820E-03
   0.206E+02 -.817E+02 0.278E+02   -.106E+02 0.760E+02 -.446E+02   -.100E+02 0.569E+01 0.168E+02   0.570E-03 -.478E-03 -.823E-03
 -----------------------------------------------------------------------------------------------
   0.145E-01 -.633E-04 0.110E-01   -.799E-13 0.995E-13 -.135E-12   -.140E-01 0.924E-04 -.113E-01   0.399E-04 -.125E-04 -.298E-05
 
 
 POSITION                                       TOTAL-FORCE (eV/Angst)
 -----------------------------------------------------------------------------------
      4.83834      5.06888      2.80354        -0.003406      0.000881      0.003424
      4.86550      0.70687     -0.50110         0.003336     -0.001291     -0.003372
      1.63333      3.65518      0.92725         0.003350      0.001291     -0.003383
      1.60618      8.01728      4.23189        -0.003412     -0.000887      0.003442
      6.46286      6.54089     -1.21111         0.012095     -0.003334     -0.011339
      3.24099      2.17877      3.51349        -0.011765     -0.002566      0.011051
      0.00882      2.18329      4.94185        -0.011799      0.002577      0.011044
      3.23070      6.54528      0.21725         0.012137      0.003389     -0.011365
      1.61952      4.95966      4.22473         0.025504      0.013154     -0.003407
      1.61996      0.59773      0.93440        -0.025006      0.003915      0.002783
      4.85213      3.76432     -0.49396        -0.025015     -0.003887      0.002903
      4.85169      8.12651      2.79637         0.025596     -0.013180     -0.003485
      1.61506      5.90819      0.93118         0.018547      0.006339     -0.004351
      1.62441      1.54614      4.22789        -0.018874      0.006958      0.004511
      4.85658      2.81591      2.79954        -0.018915     -0.006967      0.004533
      4.84722      7.17798     -0.49718         0.018559     -0.006357     -0.004365
      2.65527      5.97354      4.97749        -0.004958     -0.000903      0.002625
      0.58433      1.61153      0.18166         0.002437      0.001389     -0.004878
      3.81650      2.75053     -1.24669         0.002407     -0.001446     -0.004963
      5.88743      7.11263      3.54913        -0.004986      0.000917      0.002618
      5.69499      4.69317     -1.54463         0.010764     -0.004569     -0.003274
      4.00878      0.33097      3.84704        -0.012543     -0.001185      0.004877
      0.77662      4.03108      5.27539        -0.012516      0.001188      0.004849
      2.46281      8.39300     -0.11627         0.010785      0.004576     -0.003264
      2.65937      1.60332      1.69192        -0.004799      0.002729     -0.026245
      0.58018      5.96543      3.46712         0.007266      0.000008      0.028845
      3.81234      7.12074      2.03876         0.007261     -0.000021      0.028871
      5.89154      2.75874      0.26356        -0.004816     -0.002691     -0.026320
      5.70702      0.32845      1.75116        -0.004723      0.014167     -0.010624
      3.99672      4.69040      0.55129         0.006107      0.011929      0.009455
      0.76456      8.39577      1.97965         0.006093     -0.011941      0.009460
      2.47486      4.03361      3.17952        -0.004712     -0.014185     -0.010659
 -----------------------------------------------------------------------------------
    total drift:                                0.000538      0.000016     -0.000322


--------------------------------------------------------------------------------------------------------



  FREE ENERGIE OF THE ION-ELECTRON SYSTEM (eV)
  ---------------------------------------------------
  free  energy   TOTEN  =      -367.19886492 eV

  energy  without entropy=     -367.19886492  energy(sigma->0) =     -367.19886492
 


--------------------------------------------------------------------------------------------------------


    POTLOK:  cpu time    1.8961: real time    1.8961


--------------------------------------------------------------------------------------------------------




--------------------------------------------------------------------------------------------------------


  
 reached required accuracy - stopping structural energy minimisation
     LOOP+:  cpu time 1821.0281: real time 1821.1741
    4ORBIT:  cpu time    0.0000: real time    0.0000
 


 total charge     
 
# of ion       s       p       d       tot
------------------------------------------
    1        2.020   5.869   0.222   8.110
    2        2.020   5.869   0.222   8.110
    3        2.020   5.869   0.222   8.110
    4        2.020   5.869   0.222   8.110
    5        0.354   6.489   1.738   8.580
    6        0.354   6.489   1.738   8.580
    7        0.354   6.489   1.738   8.580
    8        0.354   6.489   1.738   8.580
    9        0.654   1.003   0.000   1.657
   10        0.654   1.003   0.000   1.657
   11        0.654   1.003   0.000   1.657
   12        0.654   1.003   0.000   1.657
   13        1.585   3.555   0.000   5.140
   14        1.585   3.555   0.000   5.140
   15        1.585   3.555   0.000   5.140
   16        1.585   3.555   0.000   5.140
   17        1.567   3.612   0.000   5.179
   18        1.567   3.612   0.000   5.179
   19        1.567   3.612   0.000   5.179
   20        1.567   3.612   0.000   5.179
   21        1.566   3.615   0.000   5.181
   22        1.566   3.615   0.000   5.181
   23        1.566   3.615   0.000   5.181
   24        1.566   3.615   0.000   5.181
   25        1.567   3.613   0.000   5.180
   26        1.567   3.613   0.000   5.180
   27        1.567   3.613   0.000   5.180
   28        1.567   3.613   0.000   5.180
   29        1.565   3.615   0.000   5.180
   30        1.565   3.615   0.000   5.180
   31        1.565   3.615   0.000   5.180
   32        1.565   3.615   0.000   5.180
--------------------------------------------------
tot         43.509 125.481   7.839 176.830
 


 magnetization (x)
 
# of ion       s       p       d       tot
------------------------------------------
    1        0.000   0.000   0.000   0.000
    2        0.000   0.000   0.000   0.000
    3        0.000   0.000   0.000   0.000
    4        0.000   0.000   0.000   0.000
    5        0.000  -0.000   0.000   0.000
    6        0.000  -0.000   0.000   0.000
    7        0.000  -0.000   0.000   0.000
    8        0.000  -0.000   0.000   0.000
    9       -0.000   0.000   0.000   0.000
   10       -0.000   0.000   0.000   0.000
   11       -0.000   0.000   0.000   0.000
   12       -0.000   0.000   0.000   0.000
   13        0.000  -0.000   0.000  -0.000
   14        0.000  -0.000   0.000  -0.000
   15        0.000  -0.000   0.000  -0.000
   16       -0.000  -0.000   0.000  -0.000
   17       -0.000  -0.000   0.000  -0.000
   18       -0.000  -0.000   0.000  -0.000
   19       -0.000  -0.000   0.000  -0.000
   20       -0.000  -0.000   0.000  -0.000
   21        0.000  -0.000   0.000  -0.000
   22       -0.000  -0.000   0.000  -0.000
   23       -0.000  -0.000   0.000  -0.000
   24       -0.000  -0.000   0.000  -0.000
   25       -0.000  -0.000   0.000  -0.000
   26       -0.000  -0.000   0.000  -0.000
   27       -0.000  -0.000   0.000  -0.000
   28       -0.000  -0.000   0.000  -0.000
   29       -0.000  -0.000   0.000  -0.000
   30       -0.000  -0.000   0.000  -0.000
   31       -0.000  -0.000   0.000  -0.000
   32       -0.000  -0.000   0.000  -0.000
--------------------------------------------------
tot          0.000  -0.000   0.000  -0.000
 

 total amount of memory used by VASP MPI-rank0   150940. kBytes
=======================================================================

   base      :      30000. kBytes
   nonlr-proj:       8765. kBytes
   fftplans  :       3803. kBytes
   grid      :      15061. kBytes
   one-center:        248. kBytes
   wavefun   :      93063. kBytes
 
  
  
 General timing and accounting informations for this job:
 ========================================================
  
                  Total CPU time used (sec):     1840.919
                            User time (sec):     1836.479
                          System time (sec):        4.440
                         Elapsed time (sec):     1841.391
  
                   Maximum memory used (kb):      209056.
                   Average memory used (kb):           0.
  
                          Minor page faults:        52747
                          Major page faults:           14
                 Voluntary context switches:          496
