       N       E                     dE             d eps       ncg     rms          ort
DAV:   1     0.272020891016E+04    0.27202E+04   -0.16115E+05 10962   0.165E+03
DAV:   2    -0.147917047492E+03   -0.28681E+04   -0.26894E+04 10962   0.449E+02
DAV:   3    -0.442089705044E+03   -0.29417E+03   -0.28776E+03 10962   0.162E+02
DAV:   4    -0.453068116672E+03   -0.10978E+02   -0.10619E+02 10962   0.320E+01
DAV:   5    -0.453770295110E+03   -0.70218E+00   -0.69819E+00 10962   0.600E+00
SDA:   6    -0.251717055216E+03    0.20205E+03   -0.69819E+00 10962   0.113E+04 0.000E+00
CGA:   7    -0.328224735324E+03   -0.76508E+02   -0.95307E+02 10962   0.120E+03 0.261E+02
CGA:   8    -0.344115517909E+03   -0.15891E+02   -0.17480E+02 10962   0.202E+02 0.975E+01
CGA:   9    -0.348497691109E+03   -0.43822E+01   -0.43848E+01 10962   0.914E+01-0.227E+00
CGA:  10    -0.350277150344E+03   -0.17795E+01   -0.17792E+01 10962   0.409E+01 0.257E-01
CGA:  11    -0.350979791006E+03   -0.70264E+00   -0.70392E+00 10962   0.145E+01 0.444E-01
CGA:  12    -0.351312205198E+03   -0.33241E+00   -0.33245E+00 10962   0.514E+00-0.123E-03
CGA:  13    -0.351422846949E+03   -0.11064E+00   -0.11036E+00 10962   0.183E+00 0.132E-01
CGA:  14    -0.351460940776E+03   -0.38094E-01   -0.37967E-01 10962   0.529E-01 0.158E-01
CGA:  15    -0.351475495472E+03   -0.14555E-01   -0.14558E-01 10962   0.203E-01-0.203E-04
CGA:  16    -0.351480717453E+03   -0.52220E-02   -0.51649E-02 10962   0.781E-02 0.103E-02
CGA:  17    -0.351483096391E+03   -0.23789E-02   -0.23846E-02 10962   0.323E-02-0.588E-04
CGA:  18    -0.351483856426E+03   -0.76004E-03   -0.19330E-02 10962   0.631E-02-0.296E-02
CGA:  19    -0.351484763189E+03   -0.90676E-03   -0.99376E-03 10962   0.809E-03 0.129E-02
CGA:  20    -0.351485083409E+03   -0.32022E-03   -0.41147E-03 10962   0.693E-03-0.456E-03
CGA:  21    -0.351485267064E+03   -0.18365E-03   -0.18605E-03 10962   0.104E-03-0.652E-04
CGA:  22    -0.351485323378E+03   -0.56314E-04    0.38184E-04 10962   0.415E-04 0.413E-04
CGA:  23    -0.351485360831E+03   -0.37453E-04    0.17701E-04 10962   0.238E-04 0.295E-04
CGA:  24    -0.351485375574E+03   -0.14743E-04    0.84263E-05 10962   0.145E-04 0.158E-04
CGA:  25    -0.351485388579E+03   -0.13005E-04    0.18474E-05 10962   0.113E-04 0.123E-04
CGA:  26    -0.351485397542E+03   -0.89625E-05    0.18981E-05 10962   0.903E-05 0.984E-05
   1 F= -.35148540E+03 E0= -.35148540E+03  d E =-.351485E+03  mag=     8.0000
       N       E                     dE             d eps       ncg     rms          ort
SDA:   1    -0.351514139972E+03   -0.28751E-01    0.00000E+00 10962   0.810E-02 0.000E+00
CGA:   2    -0.351515984604E+03   -0.18446E-02   -0.18465E-02 10962   0.219E-02 0.357E-03
CGA:   3    -0.351516485758E+03   -0.50115E-03   -0.50024E-03 10962   0.124E-02-0.654E-04
CGA:   4    -0.351516666518E+03   -0.18076E-03   -0.17416E-03 10962   0.308E-03-0.754E-04
CGA:   5    -0.351516722181E+03   -0.55662E-04   -0.54306E-04 10962   0.118E-03-0.341E-04
CGA:   6    -0.351516743806E+03   -0.21626E-04   -0.21183E-04 10962   0.540E-04-0.185E-04
CGA:   7    -0.351516701901E+03    0.41905E-04   -0.38221E-04 10962   0.611E-03-0.130E-03
CGA:   8    -0.351516771113E+03   -0.69212E-04   -0.71586E-04 10962   0.659E-04 0.170E-04
CGA:   9    -0.351516780415E+03   -0.93019E-05   -0.10792E-04 10962   0.133E-04 0.167E-04
   2 F= -.35151678E+03 E0= -.35151678E+03  d E =-.313829E-01  mag=     8.0000
       N       E                     dE             d eps       ncg     rms          ort
SDA:   1    -0.348035908897E+03    0.34809E+01    0.00000E+00 10962   0.136E+02 0.000E+00
CGA:   2    -0.351295518298E+03   -0.32596E+01   -0.32596E+01 10962   0.397E+01-0.817E-02
CGA:   3    -0.352096724688E+03   -0.80121E+00   -0.80107E+00 10962   0.194E+01-0.680E-02
CGA:   4    -0.352371426963E+03   -0.27470E+00   -0.27427E+00 10962   0.455E+00-0.443E-02
CGA:   5    -0.352451091985E+03   -0.79665E-01   -0.79559E-01 10962   0.147E+00-0.185E-02
CGA:   6    -0.352477842424E+03   -0.26750E-01   -0.26745E-01 10962   0.536E-01-0.218E-03
CGA:   7    -0.352490834221E+03   -0.12992E-01   -0.13013E-01 10962   0.286E-01-0.128E-02
CGA:   8    -0.352498149969E+03   -0.73157E-02   -0.73673E-02 10962   0.138E-01-0.142E-02
CGA:   9    -0.352501486599E+03   -0.33366E-02   -0.33345E-02 10962   0.558E-02 0.820E-04
CGA:  10    -0.352502953738E+03   -0.14671E-02   -0.14651E-02 10962   0.196E-02 0.649E-04
CGA:  11    -0.352503457204E+03   -0.50347E-03   -0.49807E-03 10962   0.699E-03 0.271E-03
CGA:  12    -0.352503669305E+03   -0.21210E-03   -0.20758E-03 10962   0.284E-03 0.160E-03
CGA:  13    -0.352503765499E+03   -0.96194E-04   -0.92965E-04 10962   0.127E-03 0.100E-03
CGA:  14    -0.352503793063E+03   -0.27564E-04   -0.31934E-04 10962   0.575E-04 0.881E-04
CGA:  15    -0.352503812234E+03   -0.19171E-04   -0.17673E-04 10962   0.237E-04 0.201E-04
CGA:  16    -0.352503820269E+03   -0.80356E-05   -0.78590E-05 10962   0.146E-04 0.204E-04
   3 F= -.35250382E+03 E0= -.35250382E+03  d E =-.987040E+00  mag=     8.0000
       N       E                     dE             d eps       ncg     rms          ort
SDA:   1    -0.342165320625E+03    0.10338E+02    0.00000E+00 10962   0.352E+02 0.000E+00
CGA:   2    -0.350095405744E+03   -0.79301E+01   -0.79333E+01 10962   0.106E+02 0.230E-01
CGA:   3    -0.352113952626E+03   -0.20185E+01   -0.20175E+01 10962   0.515E+01-0.246E-01
CGA:   4    -0.352872100360E+03   -0.75815E+00   -0.75736E+00 10962   0.124E+01-0.100E-01
CGA:   5    -0.353083034248E+03   -0.21093E+00   -0.21080E+00 10962   0.388E+00-0.177E-02
CGA:   6    -0.353154045161E+03   -0.71011E-01   -0.71090E-01 10962   0.143E+00 0.162E-02
CGA:   7    -0.353188075382E+03   -0.34030E-01   -0.34032E-01 10962   0.744E-01-0.439E-03
CGA:   8    -0.353207944460E+03   -0.19869E-01   -0.19957E-01 10962   0.371E-01-0.239E-02
CGA:   9    -0.353217514538E+03   -0.95701E-02   -0.96062E-02 10962   0.161E-01-0.109E-02
CGA:  10    -0.353221576947E+03   -0.40624E-02   -0.40659E-02 10962   0.552E-02-0.145E-03
CGA:  11    -0.353222984938E+03   -0.14080E-02   -0.13986E-02 10962   0.191E-02 0.501E-03
CGA:  12    -0.353223552185E+03   -0.56725E-03   -0.55710E-03 10962   0.759E-03 0.344E-03
CGA:  13    -0.353223819592E+03   -0.26741E-03   -0.25817E-03 10962   0.336E-03 0.189E-03
CGA:  14    -0.353223935831E+03   -0.11624E-03   -0.11302E-03 10962   0.132E-03 0.116E-03
CGA:  15    -0.353223999300E+03   -0.63470E-04   -0.62196E-04 10962   0.651E-04 0.118E-04
CGA:  16    -0.353224018043E+03   -0.18743E-04   -0.18496E-04 10962   0.272E-04 0.208E-04
CGA:  17    -0.353224003347E+03    0.14696E-04   -0.36313E-04 10962   0.187E-03-0.669E-04
CGA:  18    -0.353224039652E+03   -0.36305E-04   -0.39184E-04 10962   0.220E-04 0.372E-04
CGA:  19    -0.353224069304E+03   -0.29652E-04    0.38064E-05 10962   0.118E-04-0.253E-05
CGA:  20    -0.353224067814E+03    0.14893E-05   -0.48049E-06 10962   0.824E-05 0.829E-05
   4 F= -.35322407E+03 E0= -.35322407E+03  d E =-.720248E+00  mag=     8.0000
       N       E                     dE             d eps       ncg     rms          ort
SDA:   1    -0.349788758078E+03    0.34353E+01    0.00000E+00 10962   0.111E+02 0.000E+00
CGA:   2    -0.352265669278E+03   -0.24769E+01   -0.24774E+01 10962   0.417E+01 0.237E-02
CGA:   3    -0.352993705923E+03   -0.72804E+00   -0.72778E+00 10962   0.188E+01-0.358E-02
CGA:   4    -0.353275711723E+03   -0.28201E+00   -0.28189E+00 10962   0.436E+00-0.140E-02
CGA:   5    -0.353345731273E+03   -0.70020E-01   -0.70002E-01 10962   0.127E+00-0.335E-03
CGA:   6    -0.353368720634E+03   -0.22989E-01   -0.23006E-01 10962   0.452E-01 0.269E-03
CGA:   7    -0.353378868522E+03   -0.10148E-01   -0.10150E-01 10962   0.216E-01 0.163E-03
CGA:   8    -0.353384783186E+03   -0.59147E-02   -0.59257E-02 10962   0.117E-01-0.333E-03
CGA:   9    -0.353387961355E+03   -0.31782E-02   -0.31869E-02 10962   0.561E-02-0.248E-03
CGA:  10    -0.353389426586E+03   -0.14652E-02   -0.14662E-02 10962   0.200E-02-0.423E-04
CGA:  11    -0.353389956894E+03   -0.53031E-03   -0.52946E-03 10962   0.687E-03 0.392E-04
CGA:  12    -0.353390141908E+03   -0.18501E-03   -0.18348E-03 10962   0.249E-03 0.959E-04
CGA:  13    -0.353390235781E+03   -0.93873E-04   -0.92090E-04 10962   0.121E-03 0.230E-04
CGA:  14    -0.353390274408E+03   -0.38627E-04   -0.37665E-04 10962   0.480E-04 0.274E-04
CGA:  15    -0.353390293183E+03   -0.18775E-04   -0.18361E-04 10962   0.190E-04 0.692E-05
CGA:  16    -0.353390299856E+03   -0.66728E-05   -0.64959E-05 10962   0.776E-05 0.399E-05
   5 F= -.35339030E+03 E0= -.35339030E+03  d E =-.166232E+00  mag=     8.0000
       N       E                     dE             d eps       ncg     rms          ort
SDA:   1    -0.345727210558E+03    0.76631E+01    0.00000E+00 10962   0.213E+02 0.000E+00
CGA:   2    -0.350930748078E+03   -0.52035E+01   -0.52044E+01 10962   0.111E+02 0.437E-02
CGA:   3    -0.352702985030E+03   -0.17722E+01   -0.17717E+01 10962   0.390E+01 0.905E-03
CGA:   4    -0.353272103659E+03   -0.56912E+00   -0.56921E+00 10962   0.877E+00-0.394E-04
CGA:   5    -0.353410565309E+03   -0.13846E+00   -0.13857E+00 10962   0.244E+00 0.453E-03
CGA:   6    -0.353454658581E+03   -0.44093E-01   -0.44126E-01 10962   0.833E-01 0.323E-03
CGA:   7    -0.353471998039E+03   -0.17339E-01   -0.17353E-01 10962   0.327E-01 0.269E-03
CGA:   8    -0.353480335474E+03   -0.83374E-02   -0.83376E-02 10962   0.162E-01 0.203E-03
CGA:   9    -0.353484879213E+03   -0.45437E-02   -0.45476E-02 10962   0.809E-02-0.162E-03
CGA:  10    -0.353487126146E+03   -0.22469E-02   -0.22502E-02 10962   0.323E-02-0.131E-03
CGA:  11    -0.353488032572E+03   -0.90643E-03   -0.91005E-03 10962   0.123E-02-0.125E-03
CGA:  12    -0.353488387979E+03   -0.35541E-03   -0.35624E-03 10962   0.511E-03-0.198E-04
CGA:  13    -0.353488567140E+03   -0.17916E-03   -0.18188E-03 10962   0.262E-03-0.272E-04
CGA:  14    -0.353488664696E+03   -0.97556E-04   -0.10458E-03 10962   0.153E-03-0.451E-04
CGA:  15    -0.353488699334E+03   -0.34638E-04   -0.34653E-04 10962   0.529E-04 0.189E-04
CGA:  16    -0.353488720689E+03   -0.21355E-04   -0.23244E-04 10962   0.343E-04-0.161E-04
CGA:  17    -0.353488723834E+03   -0.31447E-05   -0.41769E-05 10962   0.202E-04 0.987E-05
   6 F= -.35348872E+03 E0= -.35348872E+03  d E =-.984240E-01  mag=     8.0000
       N       E                     dE             d eps       ncg     rms          ort
SDA:   1    -0.338483855600E+03    0.15005E+02    0.00000E+00 10962   0.387E+02 0.000E+00
CGA:   2    -0.348967018964E+03   -0.10483E+02   -0.10483E+02 10962   0.217E+02 0.365E-02
CGA:   3    -0.352258701924E+03   -0.32917E+01   -0.32934E+01 10962   0.660E+01 0.151E-01
CGA:   4    -0.353204706007E+03   -0.94600E+00   -0.94594E+00 10962   0.150E+01-0.692E-03
CGA:   5    -0.353445636371E+03   -0.24093E+00   -0.24097E+00 10962   0.429E+00-0.202E-03
CGA:   6    -0.353522837928E+03   -0.77202E-01   -0.77239E-01 10962   0.144E+00 0.371E-03
CGA:   7    -0.353552217455E+03   -0.29380E-01   -0.29371E-01 10962   0.536E-01-0.231E-03
CGA:   8    -0.353565698648E+03   -0.13481E-01   -0.13483E-01 10962   0.253E-01-0.518E-03
CGA:   9    -0.353572490944E+03   -0.67923E-02   -0.68064E-02 10962   0.118E-01-0.643E-03
CGA:  10    -0.353575699280E+03   -0.32083E-02   -0.32212E-02 10962   0.459E-02-0.438E-03
CGA:  11    -0.353576923254E+03   -0.12240E-02   -0.12285E-02 10962   0.163E-02-0.173E-03
CGA:  12    -0.353577388055E+03   -0.46480E-03   -0.46530E-03 10962   0.663E-03-0.119E-04
CGA:  13    -0.353577613266E+03   -0.22521E-03   -0.22293E-03 10962   0.328E-03 0.272E-04
CGA:  14    -0.353577743523E+03   -0.13026E-03   -0.12853E-03 10962   0.178E-03 0.147E-04
CGA:  15    -0.353577801068E+03   -0.57545E-04   -0.56126E-04 10962   0.669E-04 0.384E-04
CGA:  16    -0.353577832909E+03   -0.31841E-04   -0.32742E-04 10962   0.388E-04-0.668E-05
CGA:  17    -0.353577840396E+03   -0.74869E-05   -0.80432E-05 10962   0.189E-04 0.128E-04
CGA:  18    -0.353577836555E+03    0.38409E-05   -0.22661E-04 10962   0.116E-03-0.422E-04
CGA:  19    -0.353577864247E+03   -0.27693E-04   -0.28312E-04 10962   0.849E-05 0.106E-04
CGA:  20    -0.353577870491E+03   -0.62435E-05    0.11385E-04 10962   0.317E-05 0.263E-05
   7 F= -.35357787E+03 E0= -.35357787E+03  d E =-.891467E-01  mag=     8.0000
       N       E                     dE             d eps       ncg     rms          ort
SDA:   1    -0.352357353438E+03    0.12205E+01    0.00000E+00 10962   0.360E+01 0.000E+00
CGA:   2    -0.353224502065E+03   -0.86715E+00   -0.86727E+00 10962   0.184E+01 0.737E-03
CGA:   3    -0.353515630199E+03   -0.29113E+00   -0.29119E+00 10962   0.675E+00 0.167E-03
CGA:   4    -0.353618072534E+03   -0.10244E+00   -0.10248E+00 10962   0.171E+00 0.416E-04
CGA:   5    -0.353645723749E+03   -0.27651E-01   -0.27655E-01 10962   0.506E-01-0.276E-04
CGA:   6    -0.353654854845E+03   -0.91311E-02   -0.91189E-02 10962   0.171E-01-0.140E-03
CGA:   7    -0.353658492242E+03   -0.36374E-02   -0.36372E-02 10962   0.722E-02-0.513E-05
CGA:   8    -0.353660258575E+03   -0.17663E-02   -0.17689E-02 10962   0.313E-02 0.146E-03
CGA:   9    -0.353661095887E+03   -0.83731E-03   -0.83731E-03 10962   0.139E-02 0.721E-05
CGA:  10    -0.353661475300E+03   -0.37941E-03   -0.37933E-03 10962   0.525E-03 0.764E-05
CGA:  11    -0.353661621609E+03   -0.14631E-03   -0.14627E-03 10962   0.202E-03 0.244E-05
CGA:  12    -0.353661691387E+03   -0.69778E-04   -0.73121E-04 10962   0.117E-03-0.345E-04
CGA:  13    -0.353661717745E+03   -0.26358E-04   -0.26304E-04 10962   0.485E-04 0.155E-04
CGA:  14    -0.353661738059E+03   -0.20314E-04   -0.21832E-04 10962   0.368E-04-0.117E-04
CGA:  15    -0.353661745303E+03   -0.72446E-05   -0.72853E-05 10962   0.190E-04 0.309E-05
   8 F= -.35366175E+03 E0= -.35366175E+03  d E =-.838748E-01  mag=     8.0000
       N       E                     dE             d eps       ncg     rms          ort
SDA:   1    -0.353061876345E+03    0.59986E+00    0.00000E+00 10962   0.171E+01 0.000E+00
CGA:   2    -0.353515561641E+03   -0.45369E+00   -0.45370E+00 10962   0.829E+00 0.569E-03
CGA:   3    -0.353645620625E+03   -0.13006E+00   -0.13012E+00 10962   0.299E+00 0.405E-03
CGA:   4    -0.353689458409E+03   -0.43838E-01   -0.43868E-01 10962   0.697E-01 0.112E-03
CGA:   5    -0.353700570513E+03   -0.11112E-01   -0.11100E-01 10962   0.203E-01-0.147E-03
CGA:   6    -0.353704218142E+03   -0.36476E-02   -0.36393E-02 10962   0.681E-02-0.105E-03
CGA:   7    -0.353705627756E+03   -0.14096E-02   -0.14156E-02 10962   0.274E-02 0.126E-03
CGA:   8    -0.353706287027E+03   -0.65927E-03   -0.66237E-03 10962   0.119E-02 0.194E-03
CGA:   9    -0.353706632959E+03   -0.34593E-03   -0.34494E-03 10962   0.577E-03 0.536E-04
CGA:  10    -0.353706802112E+03   -0.16915E-03   -0.16910E-03 10962   0.241E-03 0.201E-05
CGA:  11    -0.353706875751E+03   -0.73639E-04   -0.75347E-04 10962   0.112E-03-0.300E-04
CGA:  12    -0.353706908497E+03   -0.32746E-04   -0.35807E-04 10962   0.677E-04-0.282E-04
CGA:  13    -0.353706926105E+03   -0.17608E-04   -0.19191E-04 10962   0.374E-04-0.137E-04
CGA:  14    -0.353706918226E+03    0.78799E-05   -0.27139E-04 10962   0.140E-03-0.548E-04
CGA:  15    -0.353706939463E+03   -0.21237E-04   -0.25022E-04 10962   0.171E-04 0.311E-04
CGA:  16    -0.353706941986E+03   -0.25237E-05   -0.14709E-04 10962   0.585E-04-0.297E-04
   9 F= -.35370694E+03 E0= -.35370694E+03  d E =-.451967E-01  mag=     8.0000
       N       E                     dE             d eps       ncg     rms          ort
SDA:   1    -0.351003772962E+03    0.27032E+01    0.00000E+00 10962   0.680E+01 0.000E+00
CGA:   2    -0.353030191656E+03   -0.20264E+01   -0.20265E+01 10962   0.348E+01 0.324E-02
CGA:   3    -0.353536522052E+03   -0.50633E+00   -0.50651E+00 10962   0.104E+01 0.603E-03
CGA:   4    -0.353686606847E+03   -0.15008E+00   -0.14997E+00 10962   0.238E+00-0.116E-02
CGA:   5    -0.353724420967E+03   -0.37814E-01   -0.37707E-01 10962   0.664E-01-0.893E-03
CGA:   6    -0.353736211056E+03   -0.11790E-01   -0.11780E-01 10962   0.210E-01-0.108E-03
CGA:   7    -0.353740283205E+03   -0.40721E-02   -0.40967E-02 10962   0.714E-02 0.291E-03
CGA:   8    -0.353741999583E+03   -0.17164E-02   -0.17245E-02 10962   0.315E-02 0.227E-03
CGA:   9    -0.353742880455E+03   -0.88087E-03   -0.88094E-03 10962   0.151E-02 0.954E-04
CGA:  10    -0.353743336545E+03   -0.45609E-03   -0.45708E-03 10962   0.655E-03-0.473E-04
CGA:  11    -0.353743525469E+03   -0.18892E-03   -0.19112E-03 10962   0.273E-03-0.778E-04
CGA:  12    -0.353743596592E+03   -0.71123E-04   -0.71429E-04 10962   0.112E-03-0.137E-04
CGA:  13    -0.353743639302E+03   -0.42710E-04   -0.52516E-04 10962   0.116E-03-0.450E-04
CGA:  14    -0.353743662612E+03   -0.23310E-04   -0.23902E-04 10962   0.716E-04-0.101E-04
CGA:  15    -0.353743685211E+03   -0.22599E-04   -0.32619E-04 10962   0.759E-04-0.479E-04
CGA:  16    -0.353743695108E+03   -0.98967E-05   -0.13057E-04 10962   0.131E-04 0.247E-04
  10 F= -.35374370E+03 E0= -.35374370E+03  d E =-.367531E-01  mag=     8.0000
       N       E                     dE             d eps       ncg     rms          ort
SDA:   1    -0.333276183987E+03    0.20468E+02    0.00000E+00 10962   0.505E+02 0.000E+00
CGA:   2    -0.348792725252E+03   -0.15517E+02   -0.15516E+02 10962   0.242E+02-0.145E-01
CGA:   3    -0.352326946892E+03   -0.35342E+01   -0.35398E+01 10962   0.719E+01 0.263E-01
CGA:   4    -0.353366253124E+03   -0.10393E+01   -0.10388E+01 10962   0.165E+01-0.380E-02
CGA:   5    -0.353634299480E+03   -0.26805E+00   -0.26768E+00 10962   0.484E+00-0.366E-02
CGA:   6    -0.353722562343E+03   -0.88263E-01   -0.88259E-01 10962   0.162E+00-0.285E-03
CGA:   7    -0.353755302341E+03   -0.32740E-01   -0.32762E-01 10962   0.604E-01 0.213E-03
CGA:   8    -0.353770518198E+03   -0.15216E-01   -0.15213E-01 10962   0.284E-01-0.222E-03
CGA:   9    -0.353778305258E+03   -0.77871E-02   -0.77905E-02 10962   0.133E-01-0.394E-03
CGA:  10    -0.353781953138E+03   -0.36479E-02   -0.36562E-02 10962   0.501E-02-0.671E-03
CGA:  11    -0.353783261425E+03   -0.13083E-02   -0.13104E-02 10962   0.174E-02-0.271E-03
CGA:  12    -0.353783766997E+03   -0.50557E-03   -0.50830E-03 10962   0.756E-03-0.678E-04
CGA:  13    -0.353784033832E+03   -0.26683E-03   -0.26609E-03 10962   0.436E-03 0.735E-05
CGA:  14    -0.353784202467E+03   -0.16864E-03   -0.16373E-03 10962   0.236E-03 0.503E-04
CGA:  15    -0.353784311049E+03   -0.10858E-03   -0.10750E-03 10962   0.129E-03 0.798E-05
CGA:  16    -0.353784355091E+03   -0.44042E-04   -0.43082E-04 10962   0.559E-04 0.250E-04
CGA:  17    -0.353784324098E+03    0.30993E-04   -0.77908E-04 10962   0.460E-03-0.124E-03
CGA:  18    -0.353784392432E+03   -0.68335E-04   -0.81726E-04 10962   0.922E-04 0.867E-04
CGA:  19    -0.353784430823E+03   -0.38391E-04   -0.43759E-04 10962   0.891E-04-0.715E-04
CGA:  20    -0.353784434149E+03   -0.33255E-05   -0.10454E-04 10962   0.204E-04 0.338E-04
  11 F= -.35378443E+03 E0= -.35378443E+03  d E =-.407390E-01  mag=     8.0000
       N       E                     dE             d eps       ncg     rms          ort
SDA:   1    -0.342634029874E+03    0.11150E+02    0.00000E+00 10962   0.280E+02 0.000E+00
CGA:   2    -0.350502292456E+03   -0.78683E+01   -0.78693E+01 10962   0.166E+02 0.158E-01
CGA:   3    -0.352912326263E+03   -0.24100E+01   -0.24095E+01 10962   0.449E+01 0.352E-01
CGA:   4    -0.353555527222E+03   -0.64320E+00   -0.64255E+00 10962   0.101E+01-0.211E-02
CGA:   5    -0.353720591079E+03   -0.16506E+00   -0.16495E+00 10962   0.288E+00-0.171E-02
CGA:   6    -0.353772180278E+03   -0.51589E-01   -0.51548E-01 10962   0.930E-01-0.485E-03
CGA:   7    -0.353790568753E+03   -0.18388E-01   -0.18402E-01 10962   0.326E-01 0.129E-03
CGA:   8    -0.353798460396E+03   -0.78916E-02   -0.79026E-02 10962   0.145E-01 0.322E-03
CGA:   9    -0.353802508520E+03   -0.40481E-02   -0.40492E-02 10962   0.699E-02-0.308E-03
CGA:  10    -0.353804443223E+03   -0.19347E-02   -0.19371E-02 10962   0.278E-02-0.264E-03
CGA:  11    -0.353805200627E+03   -0.75740E-03   -0.75956E-03 10962   0.102E-02-0.219E-03
CGA:  12    -0.353805493954E+03   -0.29333E-03   -0.29626E-03 10962   0.452E-03-0.753E-04
CGA:  13    -0.353805643229E+03   -0.14928E-03   -0.14910E-03 10962   0.247E-03 0.181E-05
CGA:  14    -0.353805748950E+03   -0.10572E-03   -0.10702E-03 10962   0.166E-03-0.900E-05
CGA:  15    -0.353805803247E+03   -0.54297E-04   -0.53106E-04 10962   0.722E-04 0.266E-04
CGA:  16    -0.353805836381E+03   -0.33134E-04   -0.52581E-04 10962   0.125E-03-0.581E-04
CGA:  17    -0.353805849342E+03   -0.12961E-04   -0.19423E-04 10962   0.271E-04 0.423E-04
CGA:  18    -0.353805861541E+03   -0.12199E-04   -0.17333E-04 10962   0.442E-04-0.289E-04
CGA:  19    -0.353805871281E+03   -0.97399E-05   -0.10297E-04 10962   0.533E-05 0.735E-05
  12 F= -.35380587E+03 E0= -.35380587E+03  d E =-.214371E-01  mag=     8.0000
       N       E                     dE             d eps       ncg     rms          ort
SDA:   1    -0.348960215533E+03    0.48456E+01    0.00000E+00 10962   0.119E+02 0.000E+00
CGA:   2    -0.352495261215E+03   -0.35350E+01   -0.35351E+01 10962   0.608E+01 0.218E-02
CGA:   3    -0.353405358491E+03   -0.91010E+00   -0.91055E+00 10962   0.192E+01-0.173E-03
CGA:   4    -0.353686623520E+03   -0.28127E+00   -0.28122E+00 10962   0.474E+00-0.158E-03
CGA:   5    -0.353764203519E+03   -0.77580E-01   -0.77603E-01 10962   0.142E+00 0.161E-03
CGA:   6    -0.353789923343E+03   -0.25720E-01   -0.25737E-01 10962   0.479E-01 0.138E-03
CGA:   7    -0.353800001988E+03   -0.10079E-01   -0.10058E-01 10962   0.198E-01-0.316E-03
CGA:   8    -0.353804843905E+03   -0.48419E-02   -0.48329E-02 10962   0.856E-02-0.315E-03
CGA:   9    -0.353807032910E+03   -0.21890E-02   -0.21871E-02 10962   0.365E-02-0.140E-03
CGA:  10    -0.353807998279E+03   -0.96537E-03   -0.96476E-03 10962   0.127E-02-0.151E-03
CGA:  11    -0.353808308799E+03   -0.31052E-03   -0.31096E-03 10962   0.394E-03 0.250E-04
CGA:  12    -0.353808431539E+03   -0.12274E-03   -0.12400E-03 10962   0.171E-03-0.340E-04
CGA:  13    -0.353808476476E+03   -0.44937E-04   -0.44670E-04 10962   0.726E-04 0.214E-04
CGA:  14    -0.353808505080E+03   -0.28605E-04   -0.28174E-04 10962   0.427E-04 0.603E-05
CGA:  15    -0.353808520101E+03   -0.15021E-04   -0.14673E-04 10962   0.212E-04 0.874E-05
CGA:  16    -0.353808526978E+03   -0.68764E-05   -0.69356E-05 10962   0.871E-05 0.747E-05
  13 F= -.35380853E+03 E0= -.35380853E+03  d E =-.265570E-02  mag=     8.0000
       N       E                     dE             d eps       ncg     rms          ort
SDA:   1    -0.353432022451E+03    0.37650E+00    0.00000E+00 10962   0.105E+01 0.000E+00
CGA:   2    -0.353763174533E+03   -0.33115E+00   -0.33117E+00 10962   0.396E+00-0.717E-03
CGA:   3    -0.353836474211E+03   -0.73300E-01   -0.73306E-01 10962   0.168E+00-0.673E-04
CGA:   4    -0.353860140052E+03   -0.23666E-01   -0.23666E-01 10962   0.412E-01-0.438E-04
CGA:   5    -0.353867616031E+03   -0.74760E-02   -0.74767E-02 10962   0.148E-01 0.468E-05
CGA:   6    -0.353870299588E+03   -0.26836E-02   -0.26822E-02 10962   0.523E-02-0.178E-04
CGA:   7    -0.353871528913E+03   -0.12293E-02   -0.12261E-02 10962   0.269E-02-0.117E-03
CGA:   8    -0.353872146844E+03   -0.61793E-03   -0.61475E-03 10962   0.998E-03-0.116E-03
CGA:   9    -0.353872388857E+03   -0.24201E-03   -0.24190E-03 10962   0.397E-03-0.169E-04
CGA:  10    -0.353872483085E+03   -0.94228E-04   -0.94262E-04 10962   0.116E-03 0.183E-05
CGA:  11    -0.353872513998E+03   -0.30913E-04   -0.30913E-04 10962   0.380E-04-0.386E-07
CGA:  12    -0.353872520811E+03   -0.68122E-05   -0.74629E-05 10962   0.116E-04 0.104E-04
  14 F= -.35387252E+03 E0= -.35387252E+03  d E =-.639938E-01  mag=     8.0000
       N       E                     dE             d eps       ncg     rms          ort
SDA:   1    -0.353641882375E+03    0.23063E+00    0.00000E+00 10962   0.597E+00 0.000E+00
CGA:   2    -0.353805976137E+03   -0.16409E+00   -0.16405E+00 10962   0.374E+00 0.175E-02
CGA:   3    -0.353860435650E+03   -0.54460E-01   -0.54459E-01 10962   0.996E-01-0.400E-04
CGA:   4    -0.353874442033E+03   -0.14006E-01   -0.13955E-01 10962   0.216E-01-0.514E-03
CGA:   5    -0.353878004872E+03   -0.35628E-02   -0.35394E-02 10962   0.630E-02-0.309E-03
CGA:   6    -0.353879102924E+03   -0.10981E-02   -0.10928E-02 10962   0.195E-02-0.851E-04
CGA:   7    -0.353879452215E+03   -0.34929E-03   -0.35348E-03 10962   0.590E-03 0.810E-04
CGA:   8    -0.353879577585E+03   -0.12537E-03   -0.12773E-03 10962   0.222E-03 0.950E-04
CGA:   9    -0.353879642183E+03   -0.64597E-04   -0.63979E-04 10962   0.106E-03 0.381E-04
CGA:  10    -0.353879678147E+03   -0.35964E-04   -0.35450E-04 10962   0.535E-04 0.966E-05
CGA:  11    -0.353879696969E+03   -0.18822E-04   -0.20559E-04 10962   0.331E-04-0.148E-04
CGA:  12    -0.353879703223E+03   -0.62542E-05   -0.63411E-05 10962   0.136E-04-0.359E-05
  15 F= -.35387970E+03 E0= -.35387970E+03  d E =-.718241E-02  mag=     8.0000
       N       E                     dE             d eps       ncg     rms          ort
SDA:   1    -0.344980656089E+03    0.88990E+01    0.00000E+00 10962   0.216E+02 0.000E+00
CGA:   2    -0.351575032705E+03   -0.65944E+01   -0.65943E+01 10962   0.121E+02-0.133E-02
CGA:   3    -0.353259271355E+03   -0.16842E+01   -0.16845E+01 10962   0.313E+01 0.206E-02
CGA:   4    -0.353705364805E+03   -0.44609E+00   -0.44579E+00 10962   0.732E+00-0.389E-02
CGA:   5    -0.353825134331E+03   -0.11977E+00   -0.11968E+00 10962   0.212E+00-0.160E-02
CGA:   6    -0.353862730569E+03   -0.37596E-01   -0.37598E-01 10962   0.662E-01-0.379E-04
CGA:   7    -0.353875739439E+03   -0.13009E-01   -0.13007E-01 10962   0.228E-01-0.892E-04
CGA:   8    -0.353881342794E+03   -0.56034E-02   -0.56069E-02 10962   0.104E-01-0.185E-03
CGA:   9    -0.353884137599E+03   -0.27948E-02   -0.28041E-02 10962   0.487E-02-0.209E-03
CGA:  10    -0.353885518832E+03   -0.13812E-02   -0.14067E-02 10962   0.203E-02-0.389E-03
CGA:  11    -0.353886024045E+03   -0.50521E-03   -0.51172E-03 10962   0.682E-03-0.160E-03
CGA:  12    -0.353886213276E+03   -0.18923E-03   -0.19392E-03 10962   0.278E-03-0.637E-04
CGA:  13    -0.353886292769E+03   -0.79494E-04   -0.77627E-04 10962   0.126E-03 0.266E-04
CGA:  14    -0.353886346561E+03   -0.53792E-04   -0.51614E-04 10962   0.769E-04 0.164E-04
CGA:  15    -0.353886380911E+03   -0.34350E-04   -0.32411E-04 10962   0.428E-04 0.154E-04
CGA:  16    -0.353886405294E+03   -0.24383E-04   -0.31742E-04 10962   0.554E-04-0.205E-04
CGA:  17    -0.353886410128E+03   -0.48338E-05   -0.54088E-05 10962   0.407E-04 0.661E-05
CGA:  18    -0.353886421650E+03   -0.11522E-04   -0.11490E-04 10962   0.205E-04-0.202E-05
CGA:  19    -0.353886435935E+03   -0.14285E-04    0.71485E-05 10962   0.148E-04 0.159E-05
CGA:  20    -0.353886433479E+03    0.24558E-05   -0.13490E-04 10962   0.599E-04-0.277E-04
CGA:  21    -0.353886455638E+03   -0.22158E-04   -0.26103E-04 10962   0.323E-04-0.284E-04
CGA:  22    -0.353886453815E+03    0.18228E-05   -0.10918E-05 10962   0.216E-04 0.122E-04
  16 F= -.35388645E+03 E0= -.35388645E+03  d E =-.675059E-02  mag=     8.0000
       N       E                     dE             d eps       ncg     rms          ort
SDA:   1    -0.306341574092E+03    0.47545E+02    0.00000E+00 10962   0.102E+03 0.000E+00
CGA:   2    -0.338345244159E+03   -0.32004E+02   -0.31973E+02 10962   0.393E+02 0.282E+00
CGA:   3    -0.345363181809E+03   -0.70179E+01   -0.70473E+01 10962   0.161E+02-0.117E-01
CGA:   4    -0.347744973716E+03   -0.23818E+01   -0.23785E+01 10962   0.440E+01 0.711E-02
CGA:   5    -0.348556025626E+03   -0.81105E+00   -0.80949E+00 10962   0.168E+01-0.118E-01
CGA:   6    -0.348875059489E+03   -0.31903E+00   -0.31961E+00 10962   0.637E+00 0.494E-02
CGA:   7    -0.349021578201E+03   -0.14652E+00   -0.14659E+00 10962   0.304E+00 0.156E-02
CGA:   8    -0.349089721256E+03   -0.68143E-01   -0.68019E-01 10962   0.112E+00-0.344E-02
CGA:   9    -0.349116959486E+03   -0.27238E-01   -0.27259E-01 10962   0.417E-01 0.162E-02
CGA:  10    -0.349127760089E+03   -0.10801E-01   -0.10799E-01 10962   0.137E-01-0.586E-03
CGA:  11    -0.349131519419E+03   -0.37593E-02   -0.37792E-02 10962   0.502E-02-0.876E-03
CGA:  12    -0.349132641462E+03   -0.11220E-02   -0.11279E-02 10962   0.147E-02 0.306E-03
CGA:  13    -0.349133156383E+03   -0.51492E-03   -0.53964E-03 10962   0.785E-03-0.282E-03
CGA:  14    -0.349133322130E+03   -0.16575E-03   -0.16583E-03 10962   0.325E-03 0.775E-04
CGA:  15    -0.349133418730E+03   -0.96600E-04   -0.96281E-04 10962   0.153E-03 0.443E-04
CGA:  16    -0.349133456117E+03   -0.37387E-04   -0.12420E-03 10962   0.490E-03-0.193E-03
CGA:  17    -0.349133502348E+03   -0.46231E-04   -0.71184E-04 10962   0.104E-03 0.178E-03
CGA:  18    -0.349133535372E+03   -0.33024E-04   -0.33235E-04 10962   0.332E-04 0.488E-05
CGA:  19    -0.349133570225E+03   -0.34853E-04    0.58995E-05 10962   0.244E-04 0.155E-05
CGA:  20    -0.349133570314E+03   -0.88567E-07   -0.29021E-05 10962   0.161E-04 0.173E-04
  17 F= -.34913357E+03 E0= -.34913357E+03  d E =0.475288E+01  mag=     8.0000
       N       E                     dE             d eps       ncg     rms          ort
SDA:   1    -0.341973310506E+03    0.71603E+01    0.00000E+00 10962   0.254E+02 0.000E+00
CGA:   2    -0.350261622555E+03   -0.82883E+01   -0.83053E+01 10962   0.792E+01-0.219E+00
CGA:   3    -0.352046290619E+03   -0.17847E+01   -0.17857E+01 10962   0.254E+01 0.700E-02
CGA:   4    -0.352408664265E+03   -0.36237E+00   -0.36126E+00 10962   0.818E+00-0.689E-02
CGA:   5    -0.352565346341E+03   -0.15668E+00   -0.15646E+00 10962   0.294E+00-0.281E-02
CGA:   6    -0.352617305933E+03   -0.51960E-01   -0.52063E-01 10962   0.115E+00 0.117E-02
CGA:   7    -0.352646569570E+03   -0.29264E-01   -0.29282E-01 10962   0.538E-01-0.240E-02
CGA:   8    -0.352657924741E+03   -0.11355E-01   -0.11298E-01 10962   0.218E-01-0.176E-02
CGA:   9    -0.352663045462E+03   -0.51207E-02   -0.51230E-02 10962   0.711E-02 0.720E-03
CGA:  10    -0.352664860027E+03   -0.18146E-02   -0.18147E-02 10962   0.243E-02-0.116E-03
CGA:  11    -0.352665488890E+03   -0.62886E-03   -0.62990E-03 10962   0.801E-03-0.583E-04
CGA:  12    -0.352665647875E+03   -0.15898E-03   -0.16487E-03 10962   0.247E-03 0.165E-03
CGA:  13    -0.352665723542E+03   -0.75668E-04   -0.75331E-04 10962   0.106E-03 0.404E-04
CGA:  14    -0.352665758450E+03   -0.34908E-04   -0.34174E-04 10962   0.546E-04 0.233E-04
CGA:  15    -0.352665765281E+03   -0.68311E-05   -0.10290E-04 10962   0.290E-04 0.375E-04
CGA:  16    -0.352665778313E+03   -0.13032E-04   -0.12869E-04 10962   0.190E-04 0.786E-06
CGA:  17    -0.352665788470E+03   -0.10157E-04    0.73667E-04 10962   0.962E-05 0.111E-04
CGA:  18    -0.352665788935E+03   -0.46447E-06   -0.12967E-05 10962   0.598E-05 0.709E-05
CGA:  19    -0.352665792014E+03   -0.30789E-05    0.16360E-04 10962   0.397E-05 0.449E-05
  18 F= -.35266579E+03 E0= -.35266579E+03  d E =-.353222E+01  mag=     8.0000
       N       E                     dE             d eps       ncg     rms          ort
SDA:   1    -0.350616737215E+03    0.20491E+01    0.00000E+00 10962   0.682E+01 0.000E+00
CGA:   2    -0.352854122437E+03   -0.22374E+01   -0.22377E+01 10962   0.219E+01-0.383E-02
CGA:   3    -0.353345063747E+03   -0.49094E+00   -0.49105E+00 10962   0.784E+00 0.206E-02
CGA:   4    -0.353452224173E+03   -0.10716E+00   -0.10697E+00 10962   0.232E+00-0.197E-02
CGA:   5    -0.353496964749E+03   -0.44741E-01   -0.44694E-01 10962   0.821E-01-0.866E-03
CGA:   6    -0.353511508616E+03   -0.14544E-01   -0.14580E-01 10962   0.322E-01 0.539E-03
CGA:   7    -0.353519609611E+03   -0.81010E-02   -0.81055E-02 10962   0.155E-01-0.460E-03
CGA:   8    -0.353522983857E+03   -0.33742E-02   -0.33628E-02 10962   0.623E-02-0.564E-03
CGA:   9    -0.353524401948E+03   -0.14181E-02   -0.14191E-02 10962   0.203E-02 0.321E-03
CGA:  10    -0.353524941757E+03   -0.53981E-03   -0.54036E-03 10962   0.709E-03-0.431E-04
CGA:  11    -0.353525129738E+03   -0.18798E-03   -0.18939E-03 10962   0.249E-03-0.434E-04
CGA:  12    -0.353525169720E+03   -0.39982E-04   -0.43502E-04 10962   0.753E-04 0.631E-04
CGA:  13    -0.353525191044E+03   -0.21324E-04   -0.21489E-04 10962   0.335E-04 0.142E-04
CGA:  14    -0.353525205166E+03   -0.14122E-04   -0.15454E-04 10962   0.333E-04-0.897E-05
CGA:  15    -0.353525204630E+03    0.53578E-06   -0.20458E-05 10962   0.249E-04 0.159E-04
  19 F= -.35352520E+03 E0= -.35352520E+03  d E =-.859413E+00  mag=     8.0000
       N       E                     dE             d eps       ncg     rms          ort
SDA:   1    -0.352245620038E+03    0.12796E+01    0.00000E+00 10962   0.374E+01 0.000E+00
CGA:   2    -0.353477677151E+03   -0.12321E+01   -0.12304E+01 10962   0.122E+01 0.158E-01
CGA:   3    -0.353753019307E+03   -0.27534E+00   -0.27537E+00 10962   0.443E+00 0.217E-02
CGA:   4    -0.353812392682E+03   -0.59373E-01   -0.59293E-01 10962   0.128E+00-0.996E-03
CGA:   5    -0.353837439460E+03   -0.25047E-01   -0.25025E-01 10962   0.454E-01-0.677E-03
CGA:   6    -0.353845518388E+03   -0.80789E-02   -0.81033E-02 10962   0.181E-01 0.493E-03
CGA:   7    -0.353850006306E+03   -0.44879E-02   -0.44849E-02 10962   0.862E-02 0.149E-03
CGA:   8    -0.353851946292E+03   -0.19400E-02   -0.19394E-02 10962   0.341E-02-0.169E-03
CGA:   9    -0.353852731880E+03   -0.78559E-03   -0.78389E-03 10962   0.112E-02 0.216E-03
CGA:  10    -0.353853047182E+03   -0.31530E-03   -0.31915E-03 10962   0.418E-03-0.942E-04
CGA:  11    -0.353853148464E+03   -0.10128E-03   -0.10252E-03 10962   0.133E-03-0.318E-04
CGA:  12    -0.353853174742E+03   -0.26277E-04   -0.26529E-04 10962   0.373E-04 0.177E-04
CGA:  13    -0.353853181610E+03   -0.68686E-05   -0.26511E-04 10962   0.107E-03-0.496E-04
CGA:  14    -0.353853193645E+03   -0.12035E-04   -0.15539E-04 10962   0.166E-04 0.336E-04
CGA:  15    -0.353853199858E+03   -0.62125E-05   -0.65666E-05 10962   0.942E-05-0.638E-05
  20 F= -.35385320E+03 E0= -.35385320E+03  d E =-.327995E+00  mag=     8.0000
       N       E                     dE             d eps       ncg     rms          ort
SDA:   1    -0.353610065953E+03    0.24313E+00    0.00000E+00 10962   0.707E+00 0.000E+00
CGA:   2    -0.353844106976E+03   -0.23404E+00   -0.23374E+00 10962   0.223E+00 0.334E-02
CGA:   3    -0.353895379766E+03   -0.51273E-01   -0.51290E-01 10962   0.815E-01 0.653E-03
CGA:   4    -0.353906183477E+03   -0.10804E-01   -0.10783E-01 10962   0.228E-01-0.192E-03
CGA:   5    -0.353910591447E+03   -0.44080E-02   -0.43926E-02 10962   0.791E-02-0.298E-03
CGA:   6    -0.353911986299E+03   -0.13949E-02   -0.14051E-02 10962   0.317E-02 0.162E-03
CGA:   7    -0.353912683119E+03   -0.69682E-03   -0.70372E-03 10962   0.131E-02 0.308E-03
CGA:   8    -0.353912996500E+03   -0.31338E-03   -0.31561E-03 10962   0.507E-03 0.120E-03
CGA:   9    -0.353913131495E+03   -0.13499E-03   -0.13468E-03 10962   0.192E-03 0.554E-04
CGA:  10    -0.353913188840E+03   -0.57345E-04   -0.57861E-04 10962   0.764E-04-0.156E-04
CGA:  11    -0.353913209818E+03   -0.20978E-04   -0.27589E-04 10962   0.616E-04-0.431E-04
CGA:  12    -0.353913217084E+03   -0.72659E-05   -0.86748E-05 10962   0.858E-05 0.132E-04
  21 F= -.35391322E+03 E0= -.35391322E+03  d E =-.600172E-01  mag=     8.0000
       N       E                     dE             d eps       ncg     rms          ort
SDA:   1    -0.353754610552E+03    0.15860E+00    0.00000E+00 10962   0.422E+00 0.000E+00
CGA:   2    -0.353884707331E+03   -0.13010E+00   -0.13002E+00 10962   0.163E+00 0.199E-02
CGA:   3    -0.353913993501E+03   -0.29286E-01   -0.29327E-01 10962   0.724E-01 0.388E-03
CGA:   4    -0.353924445157E+03   -0.10452E-01   -0.10455E-01 10962   0.165E-01 0.802E-05
CGA:   5    -0.353927268832E+03   -0.28237E-02   -0.28063E-02 10962   0.606E-02-0.189E-03
CGA:   6    -0.353928368364E+03   -0.10995E-02   -0.10988E-02 10962   0.214E-02-0.108E-04
CGA:   7    -0.353928788603E+03   -0.42024E-03   -0.43449E-03 10962   0.852E-03 0.267E-03
CGA:   8    -0.353928958650E+03   -0.17005E-03   -0.18391E-03 10962   0.297E-03 0.224E-03
CGA:   9    -0.353929039755E+03   -0.81106E-04   -0.83405E-04 10962   0.135E-03 0.805E-04
CGA:  10    -0.353929080962E+03   -0.41207E-04   -0.41413E-04 10962   0.509E-04 0.245E-04
CGA:  11    -0.353929100170E+03   -0.19208E-04   -0.20471E-04 10962   0.299E-04-0.138E-04
CGA:  12    -0.353929100851E+03   -0.68077E-06   -0.12424E-04 10962   0.622E-04-0.372E-04
  22 F= -.35392910E+03 E0= -.35392910E+03  d E =-.158838E-01  mag=     8.0000
       N       E                     dE             d eps       ncg     rms          ort
SDA:   1    -0.353910722675E+03    0.18377E-01    0.00000E+00 10962   0.590E-01 0.000E+00
CGA:   2    -0.353926466252E+03   -0.15744E-01   -0.15741E-01 10962   0.280E-01 0.637E-03
CGA:   3    -0.353930992545E+03   -0.45263E-02   -0.45405E-02 10962   0.109E-01 0.135E-03
CGA:   4    -0.353932669692E+03   -0.16771E-02   -0.16821E-02 10962   0.276E-02 0.439E-04
CGA:   5    -0.353933124610E+03   -0.45492E-03   -0.45322E-03 10962   0.814E-03-0.198E-04
CGA:   6    -0.353933282464E+03   -0.15785E-03   -0.15625E-03 10962   0.322E-03-0.292E-04
CGA:   7    -0.353933326261E+03   -0.43798E-04   -0.49982E-04 10962   0.104E-03 0.730E-04
CGA:   8    -0.353933332791E+03   -0.65294E-05   -0.15012E-04 10962   0.489E-04 0.684E-04
  23 F= -.35393333E+03 E0= -.35393333E+03  d E =-.423194E-02  mag=     8.0000
       N       E                     dE             d eps       ncg     rms          ort
SDA:   1    -0.353732692648E+03    0.20063E+00    0.00000E+00 10962   0.566E+00 0.000E+00
CGA:   2    -0.353865394414E+03   -0.13270E+00   -0.13269E+00 10962   0.312E+00 0.171E-02
CGA:   3    -0.353914833500E+03   -0.49439E-01   -0.49475E-01 10962   0.110E+00 0.473E-03
CGA:   4    -0.353931500700E+03   -0.16667E-01   -0.16680E-01 10962   0.276E-01 0.136E-03
CGA:   5    -0.353935863182E+03   -0.43625E-02   -0.43628E-02 10962   0.742E-02-0.520E-05
CGA:   6    -0.353937249040E+03   -0.13859E-02   -0.13821E-02 10962   0.277E-02-0.114E-03
CGA:   7    -0.353937769013E+03   -0.51997E-03   -0.52505E-03 10962   0.987E-03 0.197E-03
CGA:   8    -0.353937950482E+03   -0.18147E-03   -0.19198E-03 10962   0.351E-03 0.297E-03
CGA:   9    -0.353938031486E+03   -0.81004E-04   -0.85284E-04 10962   0.155E-03 0.150E-03
CGA:  10    -0.353938082043E+03   -0.50557E-04   -0.49896E-04 10962   0.740E-04 0.557E-04
CGA:  11    -0.353938108946E+03   -0.26903E-04   -0.26153E-04 10962   0.320E-04 0.165E-04
CGA:  12    -0.353938118452E+03   -0.95068E-05   -0.22655E-04 10962   0.650E-04-0.364E-04
  24 F= -.35393812E+03 E0= -.35393812E+03  d E =-.478566E-02  mag=     8.0000
       N       E                     dE             d eps       ncg     rms          ort
SDA:   1    -0.353801844285E+03    0.13626E+00    0.00000E+00 10962   0.391E+00 0.000E+00
CGA:   2    -0.353894154871E+03   -0.92311E-01   -0.92314E-01 10962   0.226E+00-0.807E-03
CGA:   3    -0.353929895414E+03   -0.35741E-01   -0.35696E-01 10962   0.743E-01-0.645E-03
CGA:   4    -0.353940387335E+03   -0.10492E-01   -0.10501E-01 10962   0.163E-01 0.890E-04
CGA:   5    -0.353942874806E+03   -0.24875E-02   -0.25055E-02 10962   0.423E-02 0.253E-03
CGA:   6    -0.353943669416E+03   -0.79461E-03   -0.79202E-03 10962   0.146E-02-0.750E-04
CGA:   7    -0.353943980992E+03   -0.31158E-03   -0.31144E-03 10962   0.606E-03-0.168E-03
CGA:   8    -0.353944118171E+03   -0.13718E-03   -0.14125E-03 10962   0.323E-03-0.894E-04
CGA:   9    -0.353944195937E+03   -0.77767E-04   -0.84539E-04 10962   0.193E-03-0.777E-04
CGA:  10    -0.353944232380E+03   -0.36442E-04   -0.36770E-04 10962   0.690E-04-0.125E-04
CGA:  11    -0.353944245365E+03   -0.12986E-04   -0.13245E-04 10962   0.213E-04 0.128E-04
CGA:  12    -0.353944249749E+03   -0.43839E-05   -0.46896E-05 10962   0.857E-05 0.793E-05
  25 F= -.35394425E+03 E0= -.35394425E+03  d E =-.613130E-02  mag=     8.0000
       N       E                     dE             d eps       ncg     rms          ort
SDA:   1    -0.345635651062E+03    0.83086E+01    0.00000E+00 10962   0.218E+02 0.000E+00
CGA:   2    -0.351182896587E+03   -0.55472E+01   -0.55460E+01 10962   0.129E+02 0.171E-01
CGA:   3    -0.353168996965E+03   -0.19861E+01   -0.19857E+01 10962   0.389E+01-0.326E-02
CGA:   4    -0.353716672891E+03   -0.54768E+00   -0.54771E+00 10962   0.842E+00-0.300E-03
CGA:   5    -0.353849788098E+03   -0.13312E+00   -0.13325E+00 10962   0.234E+00 0.204E-02
CGA:   6    -0.353892092385E+03   -0.42304E-01   -0.42302E-01 10962   0.768E-01-0.124E-03
CGA:   7    -0.353907160377E+03   -0.15068E-01   -0.15061E-01 10962   0.260E-01-0.639E-03
CGA:   8    -0.353913401857E+03   -0.62415E-02   -0.62441E-02 10962   0.118E-01-0.819E-04
CGA:   9    -0.353916623477E+03   -0.32216E-02   -0.32480E-02 10962   0.573E-02-0.393E-03
CGA:  10    -0.353918182607E+03   -0.15591E-02   -0.15826E-02 10962   0.237E-02-0.320E-03
CGA:  11    -0.353918799744E+03   -0.61714E-03   -0.62322E-03 10962   0.837E-03-0.982E-04
CGA:  12    -0.353919049232E+03   -0.24949E-03   -0.25904E-03 10962   0.398E-03-0.926E-04
CGA:  13    -0.353919150388E+03   -0.10116E-03   -0.97356E-04 10962   0.175E-03 0.753E-04
CGA:  14    -0.353919232490E+03   -0.82102E-04   -0.82825E-04 10962   0.136E-03-0.454E-05
CGA:  15    -0.353919277242E+03   -0.44753E-04   -0.42560E-04 10962   0.779E-04 0.253E-04
CGA:  16    -0.353919309510E+03   -0.32268E-04   -0.31624E-04 10962   0.416E-04 0.602E-05
CGA:  17    -0.353919322915E+03   -0.13405E-04   -0.32680E-04 10962   0.971E-04-0.401E-04
CGA:  18    -0.353919340178E+03   -0.17263E-04   -0.19231E-04 10962   0.173E-04 0.277E-04
CGA:  19    -0.353919354673E+03   -0.14496E-04    0.12956E-04 10962   0.727E-05 0.472E-05
CGA:  20    -0.353919357552E+03   -0.28787E-05   -0.27656E-05 10962   0.482E-05 0.339E-05
CGA:  21    -0.353919361586E+03   -0.40343E-05    0.14091E-04 10962   0.371E-05 0.404E-05
  26 F= -.35391936E+03 E0= -.35391936E+03  d E =0.248882E-01  mag=     8.0000
       N       E                     dE             d eps       ncg     rms          ort
SDA:   1    -0.350959153771E+03    0.29602E+01    0.00000E+00 10962   0.717E+01 0.000E+00
CGA:   2    -0.353178472023E+03   -0.22193E+01   -0.22188E+01 10962   0.335E+01 0.865E-02
CGA:   3    -0.353676866266E+03   -0.49839E+00   -0.49836E+00 10962   0.114E+01 0.763E-03
CGA:   4    -0.353847515305E+03   -0.17065E+00   -0.17058E+00 10962   0.288E+00-0.928E-03
CGA:   5    -0.353894851730E+03   -0.47336E-01   -0.47278E-01 10962   0.889E-01-0.800E-03
CGA:   6    -0.353910902107E+03   -0.16050E-01   -0.16054E-01 10962   0.312E-01 0.251E-04
CGA:   7    -0.353917361656E+03   -0.64595E-02   -0.64900E-02 10962   0.128E-01 0.732E-03
CGA:   8    -0.353920399784E+03   -0.30381E-02   -0.30464E-02 10962   0.496E-02 0.553E-03
CGA:   9    -0.353921723845E+03   -0.13241E-02   -0.13225E-02 10962   0.213E-02 0.177E-03
CGA:  10    -0.353922298661E+03   -0.57482E-03   -0.57492E-03 10962   0.720E-03-0.782E-05
CGA:  11    -0.353922511887E+03   -0.21323E-03   -0.22151E-03 10962   0.313E-03-0.136E-03
CGA:  12    -0.353922577726E+03   -0.65839E-04   -0.65976E-04 10962   0.102E-03-0.156E-04
CGA:  13    -0.353922610405E+03   -0.32680E-04   -0.47684E-04 10962   0.118E-03-0.630E-04
CGA:  14    -0.353922636541E+03   -0.26136E-04   -0.26369E-04 10962   0.193E-04 0.569E-05
CGA:  15    -0.353922648482E+03   -0.11941E-04    0.20795E-04 10962   0.939E-05 0.650E-05
CGA:  16    -0.353922650580E+03   -0.20979E-05   -0.25564E-05 10962   0.609E-05 0.796E-05
  27 F= -.35392265E+03 E0= -.35392265E+03  d E =-.328899E-02  mag=     8.0000
       N       E                     dE             d eps       ncg     rms          ort
SDA:   1    -0.351948976163E+03    0.19737E+01    0.00000E+00 10962   0.529E+01 0.000E+00
CGA:   2    -0.353326656761E+03   -0.13777E+01   -0.13777E+01 10962   0.286E+01-0.418E-02
CGA:   3    -0.353767292488E+03   -0.44064E+00   -0.44050E+00 10962   0.962E+00-0.177E-02
CGA:   4    -0.353910987709E+03   -0.14370E+00   -0.14362E+00 10962   0.232E+00-0.103E-02
CGA:   5    -0.353947788649E+03   -0.36801E-01   -0.36822E-01 10962   0.641E-01 0.186E-03
CGA:   6    -0.353959542010E+03   -0.11753E-01   -0.11763E-01 10962   0.229E-01 0.154E-03
CGA:   7    -0.353964482382E+03   -0.49404E-02   -0.49209E-02 10962   0.950E-02-0.711E-03
CGA:   8    -0.353966876825E+03   -0.23944E-02   -0.24149E-02 10962   0.469E-02-0.939E-03
CGA:   9    -0.353967986680E+03   -0.11099E-02   -0.11206E-02 10962   0.206E-02-0.452E-03
CGA:  10    -0.353968450513E+03   -0.46383E-03   -0.46420E-03 10962   0.637E-03-0.536E-04
CGA:  11    -0.353968581601E+03   -0.13109E-03   -0.13381E-03 10962   0.178E-03 0.995E-04
CGA:  12    -0.353968621626E+03   -0.40025E-04   -0.42181E-04 10962   0.643E-04 0.589E-04
CGA:  13    -0.353968635453E+03   -0.13827E-04   -0.15864E-04 10962   0.308E-04 0.373E-04
CGA:  14    -0.353968639783E+03   -0.43303E-05   -0.55029E-05 10962   0.170E-04 0.200E-04
  28 F= -.35396864E+03 E0= -.35396864E+03  d E =-.459892E-01  mag=     8.0000
       N       E                     dE             d eps       ncg     rms          ort
SDA:   1    -0.353472832237E+03    0.49580E+00    0.00000E+00 10962   0.127E+01 0.000E+00
CGA:   2    -0.353796257616E+03   -0.32343E+00   -0.32347E+00 10962   0.734E+00-0.201E-02
CGA:   3    -0.353910897836E+03   -0.11464E+00   -0.11464E+00 10962   0.247E+00-0.230E-03
CGA:   4    -0.353947900692E+03   -0.37003E-01   -0.36991E-01 10962   0.637E-01-0.265E-03
CGA:   5    -0.353958441146E+03   -0.10540E-01   -0.10536E-01 10962   0.186E-01-0.921E-04
CGA:   6    -0.353961834873E+03   -0.33937E-02   -0.33972E-02 10962   0.681E-02 0.876E-04
CGA:   7    -0.353963347734E+03   -0.15129E-02   -0.15133E-02 10962   0.305E-02-0.296E-03
CGA:   8    -0.353964140934E+03   -0.79320E-03   -0.83259E-03 10962   0.172E-02-0.603E-03
CGA:   9    -0.353964455720E+03   -0.31479E-03   -0.31538E-03 10962   0.623E-03-0.113E-03
CGA:  10    -0.353964583818E+03   -0.12810E-03   -0.12823E-03 10962   0.178E-03 0.465E-04
CGA:  11    -0.353964617984E+03   -0.34166E-04   -0.35854E-04 10962   0.573E-04 0.467E-04
CGA:  12    -0.353964625287E+03   -0.73031E-05   -0.10135E-04 10962   0.246E-04 0.349E-04
  29 F= -.35396463E+03 E0= -.35396463E+03  d E =0.401450E-02  mag=     8.0000
       N       E                     dE             d eps       ncg     rms          ort
SDA:   1    -0.353659633416E+03    0.30498E+00    0.00000E+00 10962   0.781E+00 0.000E+00
CGA:   2    -0.353892311288E+03   -0.23268E+00   -0.23254E+00 10962   0.431E+00 0.152E-02
CGA:   3    -0.353953027695E+03   -0.60716E-01   -0.60725E-01 10962   0.121E+00 0.433E-04
CGA:   4    -0.353970708362E+03   -0.17681E-01   -0.17667E-01 10962   0.296E-01-0.223E-03
CGA:   5    -0.353975443869E+03   -0.47355E-02   -0.47252E-02 10962   0.844E-02-0.206E-03
CGA:   6    -0.353976934234E+03   -0.14904E-02   -0.14889E-02 10962   0.276E-02-0.481E-04
CGA:   7    -0.353977436312E+03   -0.50208E-03   -0.50634E-03 10962   0.879E-03 0.185E-03
CGA:   8    -0.353977626779E+03   -0.19047E-03   -0.19095E-03 10962   0.326E-03 0.168E-03
CGA:   9    -0.353977717414E+03   -0.90635E-04   -0.88886E-04 10962   0.145E-03 0.788E-04
CGA:  10    -0.353977765137E+03   -0.47723E-04   -0.46454E-04 10962   0.642E-04 0.253E-04
CGA:  11    -0.353977789542E+03   -0.24405E-04   -0.30558E-04 10962   0.568E-04-0.315E-04
CGA:  12    -0.353977794160E+03   -0.46180E-05   -0.46064E-05 10962   0.283E-04-0.190E-06
  30 F= -.35397779E+03 E0= -.35397779E+03  d E =-.131689E-01  mag=     8.0000
       N       E                     dE             d eps       ncg     rms          ort
SDA:   1    -0.344110765128E+03    0.98670E+01    0.00000E+00 10962   0.240E+02 0.000E+00
CGA:   2    -0.351372240804E+03   -0.72615E+01   -0.72585E+01 10962   0.136E+02 0.252E-01
CGA:   3    -0.353253318026E+03   -0.18811E+01   -0.18811E+01 10962   0.353E+01 0.180E-02
CGA:   4    -0.353757032812E+03   -0.50371E+00   -0.50340E+00 10962   0.848E+00-0.546E-02
CGA:   5    -0.353892765585E+03   -0.13573E+00   -0.13565E+00 10962   0.247E+00-0.206E-02
CGA:   6    -0.353936409099E+03   -0.43644E-01   -0.43648E-01 10962   0.787E-01 0.638E-04
CGA:   7    -0.353951619191E+03   -0.15210E-01   -0.15221E-01 10962   0.265E-01 0.832E-03
CGA:   8    -0.353958005073E+03   -0.63859E-02   -0.63647E-02 10962   0.116E-01 0.651E-03
CGA:   9    -0.353961189822E+03   -0.31847E-02   -0.31768E-02 10962   0.532E-02 0.131E-03
CGA:  10    -0.353962706915E+03   -0.15171E-02   -0.15432E-02 10962   0.219E-02-0.339E-03
CGA:  11    -0.353963276110E+03   -0.56919E-03   -0.58844E-03 10962   0.790E-03-0.265E-03
CGA:  12    -0.353963473614E+03   -0.19750E-03   -0.20256E-03 10962   0.307E-03-0.683E-04
CGA:  13    -0.353963580700E+03   -0.10709E-03   -0.12719E-03 10962   0.270E-03-0.867E-04
CGA:  14    -0.353963661207E+03   -0.80506E-04   -0.10283E-03 10962   0.277E-03-0.752E-04
CGA:  15    -0.353963733651E+03   -0.72444E-04   -0.12244E-03 10962   0.297E-03-0.137E-03
CGA:  16    -0.353963752189E+03   -0.18538E-04   -0.23984E-04 10962   0.175E-03 0.515E-04
CGA:  17    -0.353963778447E+03   -0.26258E-04   -0.32259E-04 10962   0.685E-04 0.580E-04
CGA:  18    -0.353963801195E+03   -0.22748E-04   -0.22756E-04 10962   0.408E-04 0.115E-05
CGA:  19    -0.353963805078E+03   -0.38832E-05   -0.60743E-05 10962   0.288E-04 0.201E-04
  31 F= -.35396381E+03 E0= -.35396381E+03  d E =0.139891E-01  mag=     8.0000
       N       E                     dE             d eps       ncg     rms          ort
SDA:   1    -0.285896983542E+03    0.68067E+02    0.00000E+00 10962   0.157E+03 0.000E+00
CGA:   2    -0.331703891856E+03   -0.45807E+02   -0.45946E+02 10962   0.770E+02-0.252E+01
CGA:   3    -0.343185564300E+03   -0.11482E+02   -0.11592E+02 10962   0.253E+02-0.394E-01
CGA:   4    -0.347483272748E+03   -0.42977E+01   -0.42957E+01 10962   0.810E+01-0.537E-01
CGA:   5    -0.348836829159E+03   -0.13536E+01   -0.13500E+01 10962   0.271E+01-0.246E-01
CGA:   6    -0.349371347738E+03   -0.53452E+00   -0.53484E+00 10962   0.115E+01 0.575E-02
CGA:   7    -0.349627725075E+03   -0.25638E+00   -0.25636E+00 10962   0.510E+00-0.373E-02
CGA:   8    -0.349746226383E+03   -0.11850E+00   -0.11852E+00 10962   0.200E+00-0.130E-01
CGA:   9    -0.349794085968E+03   -0.47860E-01   -0.47845E-01 10962   0.737E-01 0.108E-02
CGA:  10    -0.349812662017E+03   -0.18576E-01   -0.18574E-01 10962   0.235E-01 0.136E-03
CGA:  11    -0.349819087355E+03   -0.64253E-02   -0.64396E-02 10962   0.839E-02-0.361E-03
CGA:  12    -0.349821080411E+03   -0.19931E-02   -0.19880E-02 10962   0.249E-02 0.957E-03
CGA:  13    -0.349821984591E+03   -0.90418E-03   -0.92255E-03 10962   0.117E-02-0.193E-03
CGA:  14    -0.349822235340E+03   -0.25075E-03   -0.25255E-03 10962   0.451E-03 0.268E-03
CGA:  15    -0.349822361798E+03   -0.12646E-03   -0.12791E-03 10962   0.213E-03 0.157E-03
CGA:  16    -0.349822467398E+03   -0.10560E-03   -0.16709E-03 10962   0.426E-03-0.180E-03
CGA:  17    -0.349822536957E+03   -0.69559E-04   -0.79021E-04 10962   0.858E-04 0.133E-03
CGA:  18    -0.349822606322E+03   -0.69365E-04    0.65707E-04 10962   0.337E-04 0.160E-04
CGA:  19    -0.349822606119E+03    0.20237E-06   -0.46558E-04 10962   0.195E-03-0.514E-04
CGA:  20    -0.349822658576E+03   -0.52457E-04   -0.12093E-03 10962   0.403E-03-0.213E-03
CGA:  21    -0.349822670772E+03   -0.12195E-04   -0.45651E-04 10962   0.775E-04 0.166E-03
CGA:  22    -0.349822672688E+03   -0.19166E-05   -0.11019E-04 10962   0.201E-04 0.446E-04
  32 F= -.34982267E+03 E0= -.34982267E+03  d E =0.414113E+01  mag=     8.0000
       N       E                     dE             d eps       ncg     rms          ort
SDA:   1    -0.341795438600E+03    0.80272E+01    0.00000E+00 10962   0.252E+02 0.000E+00
CGA:   2    -0.350124486406E+03   -0.83290E+01   -0.83331E+01 10962   0.811E+01-0.938E-01
CGA:   3    -0.351807387903E+03   -0.16829E+01   -0.16855E+01 10962   0.306E+01 0.105E-01
CGA:   4    -0.352234192092E+03   -0.42680E+00   -0.42615E+00 10962   0.846E+00-0.588E-02
CGA:   5    -0.352393253272E+03   -0.15906E+00   -0.15865E+00 10962   0.320E+00-0.442E-02
CGA:   6    -0.352448784048E+03   -0.55531E-01   -0.55666E-01 10962   0.119E+00 0.115E-02
CGA:   7    -0.352477725455E+03   -0.28941E-01   -0.28954E-01 10962   0.574E-01 0.396E-03
CGA:   8    -0.352489933499E+03   -0.12208E-01   -0.12166E-01 10962   0.218E-01-0.684E-03
CGA:   9    -0.352495275487E+03   -0.53420E-02   -0.53564E-02 10962   0.780E-02 0.674E-03
CGA:  10    -0.352497267612E+03   -0.19921E-02   -0.19882E-02 10962   0.264E-02-0.186E-03
CGA:  11    -0.352497975547E+03   -0.70794E-03   -0.70984E-03 10962   0.930E-03-0.231E-03
CGA:  12    -0.352498138186E+03   -0.16264E-03   -0.17251E-03 10962   0.259E-03 0.153E-03
CGA:  13    -0.352498217188E+03   -0.79003E-04   -0.79029E-04 10962   0.109E-03 0.108E-04
CGA:  14    -0.352498256816E+03   -0.39627E-04   -0.42048E-04 10962   0.777E-04-0.230E-04
CGA:  15    -0.352498259461E+03   -0.26456E-05   -0.77044E-05 10962   0.467E-04 0.350E-04
  33 F= -.35249826E+03 E0= -.35249826E+03  d E =-.267559E+01  mag=     8.0000
       N       E                     dE             d eps       ncg     rms          ort
SDA:   1    -0.350379928264E+03    0.21183E+01    0.00000E+00 10962   0.684E+01 0.000E+00
CGA:   2    -0.352591782963E+03   -0.22119E+01   -0.22108E+01 10962   0.235E+01 0.145E-01
CGA:   3    -0.353046115030E+03   -0.45433E+00   -0.45470E+00 10962   0.102E+01 0.408E-02
CGA:   4    -0.353187199709E+03   -0.14108E+00   -0.14096E+00 10962   0.254E+00-0.153E-02
CGA:   5    -0.353233226133E+03   -0.46026E-01   -0.45907E-01 10962   0.938E-01-0.191E-02
CGA:   6    -0.353249866263E+03   -0.16640E-01   -0.16664E-01 10962   0.355E-01 0.313E-03
CGA:   7    -0.353257791700E+03   -0.79254E-02   -0.79509E-02 10962   0.163E-01 0.127E-02
CGA:   8    -0.353261475557E+03   -0.36839E-02   -0.36986E-02 10962   0.591E-02 0.631E-03
CGA:   9    -0.353263013675E+03   -0.15381E-02   -0.15352E-02 10962   0.234E-02 0.308E-03
CGA:  10    -0.353263630059E+03   -0.61638E-03   -0.61681E-03 10962   0.798E-03-0.491E-04
CGA:  11    -0.353263862202E+03   -0.23214E-03   -0.24340E-03 10962   0.356E-03-0.161E-03
CGA:  12    -0.353263917757E+03   -0.55555E-04   -0.57250E-04 10962   0.104E-03 0.388E-04
CGA:  13    -0.353263951159E+03   -0.33402E-04   -0.34502E-04 10962   0.601E-04-0.197E-04
CGA:  14    -0.353263694190E+03    0.25697E-03   -0.13837E-03 10962   0.135E-02-0.245E-03
CGA:  15    -0.353263920804E+03   -0.22661E-03   -0.25495E-03 10962   0.160E-03 0.109E-03
CGA:  16    -0.353264003436E+03   -0.82632E-04   -0.94914E-04 10962   0.158E-03-0.109E-03
CGA:  17    -0.353263988341E+03    0.15095E-04   -0.14620E-04 10962   0.519E-04 0.853E-04
CGA:  18    -0.353263985888E+03    0.24528E-05   -0.65531E-05 10962   0.188E-04 0.303E-04
  34 F= -.35326399E+03 E0= -.35326399E+03  d E =-.765726E+00  mag=     8.0000
       N       E                     dE             d eps       ncg     rms          ort
SDA:   1    -0.350419584666E+03    0.28444E+01    0.00000E+00 10962   0.803E+01 0.000E+00
CGA:   2    -0.352983915519E+03   -0.25643E+01   -0.25680E+01 10962   0.280E+01 0.177E-01
CGA:   3    -0.353512183303E+03   -0.52827E+00   -0.52953E+00 10962   0.128E+01 0.392E-02
CGA:   4    -0.353690575965E+03   -0.17839E+00   -0.17843E+00 10962   0.305E+00 0.314E-03
CGA:   5    -0.353744293244E+03   -0.53717E-01   -0.53546E-01 10962   0.112E+00-0.130E-02
CGA:   6    -0.353765005354E+03   -0.20712E-01   -0.20758E-01 10962   0.451E-01 0.114E-03
CGA:   7    -0.353774820267E+03   -0.98149E-02   -0.99869E-02 10962   0.204E-01 0.126E-02
CGA:   8    -0.353779410211E+03   -0.45899E-02   -0.46844E-02 10962   0.749E-02 0.756E-03
CGA:   9    -0.353781363306E+03   -0.19531E-02   -0.19690E-02 10962   0.297E-02 0.176E-03
CGA:  10    -0.353782104765E+03   -0.74146E-03   -0.73862E-03 10962   0.913E-03-0.306E-04
CGA:  11    -0.353782390545E+03   -0.28578E-03   -0.28147E-03 10962   0.401E-03-0.196E-03
CGA:  12    -0.353782462345E+03   -0.71799E-04   -0.72273E-04 10962   0.116E-03 0.452E-05
CGA:  13    -0.353782505543E+03   -0.43198E-04   -0.50729E-04 10962   0.117E-03-0.719E-04
CGA:  14    -0.353782531339E+03   -0.25795E-04   -0.25922E-04 10962   0.166E-04 0.111E-05
CGA:  15    -0.353782544098E+03   -0.12760E-04    0.16696E-04 10962   0.914E-05 0.175E-05
CGA:  16    -0.353782543790E+03    0.30859E-06   -0.12035E-05 10962   0.555E-05 0.727E-05
  35 F= -.35378254E+03 E0= -.35378254E+03  d E =-.518558E+00  mag=     8.0000
       N       E                     dE             d eps       ncg     rms          ort
SDA:   1    -0.351754591350E+03    0.20280E+01    0.00000E+00 10962   0.534E+01 0.000E+00
CGA:   2    -0.353427361845E+03   -0.16728E+01   -0.16726E+01 10962   0.193E+01 0.203E-01
CGA:   3    -0.353776602617E+03   -0.34924E+00   -0.34979E+00 10962   0.902E+00 0.290E-02
CGA:   4    -0.353907545518E+03   -0.13094E+00   -0.13105E+00 10962   0.216E+00 0.589E-03
CGA:   5    -0.353943520884E+03   -0.35975E-01   -0.35908E-01 10962   0.739E-01-0.726E-03
CGA:   6    -0.353957784280E+03   -0.14263E-01   -0.14274E-01 10962   0.313E-01 0.431E-04
CGA:   7    -0.353964396287E+03   -0.66120E-02   -0.67042E-02 10962   0.134E-01 0.134E-02
CGA:   8    -0.353967449226E+03   -0.30529E-02   -0.31074E-02 10962   0.492E-02 0.984E-03
CGA:   9    -0.353968793916E+03   -0.13447E-02   -0.13476E-02 10962   0.204E-02 0.140E-03
CGA:  10    -0.353969301001E+03   -0.50708E-03   -0.50759E-03 10962   0.615E-03 0.152E-04
CGA:  11    -0.353969500136E+03   -0.19914E-03   -0.21883E-03 10962   0.392E-03-0.246E-03
CGA:  12    -0.353969553847E+03   -0.53711E-04   -0.52426E-04 10962   0.143E-03-0.239E-04
CGA:  13    -0.353969588524E+03   -0.34677E-04   -0.34329E-04 10962   0.673E-04-0.190E-04
CGA:  14    -0.353969127081E+03    0.46144E-03   -0.24911E-03 10962   0.237E-02-0.377E-03
CGA:  15    -0.353969530034E+03   -0.40295E-03   -0.45788E-03 10962   0.277E-03 0.179E-03
CGA:  16    -0.353969671909E+03   -0.14188E-03   -0.13832E-03 10962   0.257E-03-0.191E-03
CGA:  17    -0.353969648296E+03    0.23613E-04   -0.23263E-04 10962   0.662E-04 0.119E-03
CGA:  18    -0.353969634780E+03    0.13517E-04   -0.69359E-05 10962   0.277E-04 0.522E-04
CGA:  19    -0.353969647739E+03   -0.12959E-04   -0.13309E-04 10962   0.967E-05-0.933E-05
CGA:  20    -0.353969645515E+03    0.22238E-05   -0.18049E-06 10962   0.800E-05 0.577E-05
  36 F= -.35396965E+03 E0= -.35396965E+03  d E =-.187102E+00  mag=     8.0000
       N       E                     dE             d eps       ncg     rms          ort
SDA:   1    -0.353625864732E+03    0.34378E+00    0.00000E+00 10962   0.931E+00 0.000E+00
CGA:   2    -0.353906747536E+03   -0.28088E+00   -0.28126E+00 10962   0.371E+00 0.217E-02
CGA:   3    -0.353968680961E+03   -0.61933E-01   -0.62034E-01 10962   0.166E+00 0.304E-03
CGA:   4    -0.353994007934E+03   -0.25327E-01   -0.25347E-01 10962   0.421E-01 0.756E-04
CGA:   5    -0.354000697460E+03   -0.66895E-02   -0.66705E-02 10962   0.128E-01-0.113E-03
CGA:   6    -0.354003145015E+03   -0.24476E-02   -0.24521E-02 10962   0.538E-02 0.205E-04
CGA:   7    -0.354004200392E+03   -0.10554E-02   -0.11092E-02 10962   0.216E-02 0.356E-03
CGA:   8    -0.354004646270E+03   -0.44588E-03   -0.48824E-03 10962   0.769E-03 0.308E-03
CGA:   9    -0.354004858000E+03   -0.21173E-03   -0.21860E-03 10962   0.337E-03 0.733E-04
CGA:  10    -0.354004943009E+03   -0.85009E-04   -0.87861E-04 10962   0.108E-03 0.286E-04
CGA:  11    -0.354004985108E+03   -0.42099E-04   -0.45247E-04 10962   0.936E-04-0.598E-04
CGA:  12    -0.354005000599E+03   -0.15491E-04   -0.16075E-04 10962   0.113E-04 0.354E-05
CGA:  13    -0.354005008544E+03   -0.79455E-05    0.62685E-04 10962   0.510E-05-0.189E-05
  37 F= -.35400501E+03 E0= -.35400501E+03  d E =-.353630E-01  mag=     8.0000
       N       E                     dE             d eps       ncg     rms          ort
SDA:   1    -0.353951750912E+03    0.53250E-01    0.00000E+00 10962   0.149E+00 0.000E+00
CGA:   2    -0.353993086783E+03   -0.41336E-01   -0.41385E-01 10962   0.758E-01 0.913E-03
CGA:   3    -0.354004888291E+03   -0.11802E-01   -0.11819E-01 10962   0.285E-01 0.908E-04
CGA:   4    -0.354009309546E+03   -0.44213E-02   -0.44127E-02 10962   0.758E-02-0.567E-04
CGA:   5    -0.354010536868E+03   -0.12273E-02   -0.12235E-02 10962   0.224E-02-0.286E-04
CGA:   6    -0.354010944801E+03   -0.40793E-03   -0.41027E-03 10962   0.850E-03 0.194E-04
CGA:   7    -0.354011100051E+03   -0.15525E-03   -0.16542E-03 10962   0.324E-03 0.994E-04
CGA:   8    -0.354011161161E+03   -0.61110E-04   -0.69750E-04 10962   0.115E-03 0.890E-04
CGA:   9    -0.354011189623E+03   -0.28462E-04   -0.30953E-04 10962   0.509E-04 0.334E-04
CGA:  10    -0.354011203735E+03   -0.14112E-04   -0.14879E-04 10962   0.198E-04 0.141E-04
CGA:  11    -0.354011210941E+03   -0.72055E-05   -0.72083E-05 10962   0.839E-05-0.438E-06
CGA:  12    -0.354011215629E+03   -0.46880E-05    0.47923E-04 10962   0.291E-05-0.496E-06
  38 F= -.35401122E+03 E0= -.35401122E+03  d E =-.620708E-02  mag=     8.0000
       N       E                     dE             d eps       ncg     rms          ort
SDA:   1    -0.353965751985E+03    0.45459E-01    0.00000E+00 10962   0.129E+00 0.000E+00
CGA:   2    -0.353994025234E+03   -0.28273E-01   -0.28333E-01 10962   0.760E-01 0.956E-03
CGA:   3    -0.354006299785E+03   -0.12275E-01   -0.12305E-01 10962   0.269E-01 0.248E-03
CGA:   4    -0.354010412363E+03   -0.41126E-02   -0.40999E-02 10962   0.714E-02-0.114E-03
CGA:   5    -0.354011565305E+03   -0.11529E-02   -0.11455E-02 10962   0.200E-02-0.752E-04
CGA:   6    -0.354011914735E+03   -0.34943E-03   -0.34816E-03 10962   0.694E-03-0.160E-04
CGA:   7    -0.354012037663E+03   -0.12293E-03   -0.12828E-03 10962   0.240E-03 0.788E-04
CGA:   8    -0.354012076242E+03   -0.38579E-04   -0.45530E-04 10962   0.865E-04 0.866E-04
CGA:   9    -0.354012091743E+03   -0.15501E-04   -0.19267E-04 10962   0.380E-04 0.454E-04
CGA:  10    -0.354012104848E+03   -0.13105E-04   -0.13501E-04 10962   0.370E-04-0.353E-05
CGA:  11    -0.354012110141E+03   -0.52932E-05   -0.61124E-05 10962   0.130E-04 0.124E-04
  39 F= -.35401211E+03 E0= -.35401211E+03  d E =-.894512E-03  mag=     8.0000
       N       E                     dE             d eps       ncg     rms          ort
SDA:   1    -0.353888597625E+03    0.12351E+00    0.00000E+00 10962   0.415E+00 0.000E+00
CGA:   2    -0.353956450547E+03   -0.67853E-01   -0.67962E-01 10962   0.202E+00 0.121E-02
CGA:   3    -0.353994241285E+03   -0.37791E-01   -0.37802E-01 10962   0.933E-01 0.168E-03
CGA:   4    -0.354007936359E+03   -0.13695E-01   -0.13666E-01 10962   0.201E-01-0.359E-03
CGA:   5    -0.354010971142E+03   -0.30348E-02   -0.30283E-02 10962   0.518E-02-0.909E-04
CGA:   6    -0.354011880303E+03   -0.90916E-03   -0.90611E-03 10962   0.166E-02-0.641E-04
CGA:   7    -0.354012195477E+03   -0.31517E-03   -0.31481E-03 10962   0.510E-03-0.127E-04
CGA:   8    -0.354012298050E+03   -0.10257E-03   -0.10309E-03 10962   0.168E-03 0.303E-04
CGA:   9    -0.354012342123E+03   -0.44073E-04   -0.43936E-04 10962   0.673E-04 0.504E-05
CGA:  10    -0.354012363149E+03   -0.21026E-04   -0.22441E-04 10962   0.394E-04-0.138E-04
CGA:  11    -0.354012370480E+03   -0.73313E-05   -0.73319E-05 10962   0.138E-04-0.103E-06
  40 F= -.35401237E+03 E0= -.35401237E+03  d E =-.260339E-03  mag=     8.0000
       N       E                     dE             d eps       ncg     rms          ort
SDA:   1    -0.353608386693E+03    0.40398E+00    0.00000E+00 10962   0.135E+01 0.000E+00
CGA:   2    -0.353829468530E+03   -0.22108E+00   -0.22130E+00 10962   0.667E+00 0.218E-02
CGA:   3    -0.353955217949E+03   -0.12575E+00   -0.12574E+00 10962   0.310E+00-0.370E-03
CGA:   4    -0.353999646526E+03   -0.44429E-01   -0.44369E-01 10962   0.629E-01-0.780E-03
CGA:   5    -0.354009034556E+03   -0.93880E-02   -0.93926E-02 10962   0.164E-01 0.369E-04
CGA:   6    -0.354011925873E+03   -0.28913E-02   -0.28890E-02 10962   0.533E-02-0.594E-04
CGA:   7    -0.354012951708E+03   -0.10258E-02   -0.10237E-02 10962   0.159E-02-0.890E-04
CGA:   8    -0.354013284468E+03   -0.33276E-03   -0.33280E-03 10962   0.559E-03 0.125E-04
CGA:   9    -0.354013429702E+03   -0.14523E-03   -0.14673E-03 10962   0.239E-03-0.337E-04
CGA:  10    -0.354013492550E+03   -0.62848E-04   -0.65023E-04 10962   0.108E-03-0.306E-04
CGA:  11    -0.354013513242E+03   -0.20691E-04   -0.20704E-04 10962   0.315E-04 0.102E-04
CGA:  12    -0.354013522591E+03   -0.93493E-05   -0.93018E-05 10962   0.123E-04 0.983E-06
  41 F= -.35401352E+03 E0= -.35401352E+03  d E =-.115211E-02  mag=     8.0000
       N       E                     dE             d eps       ncg     rms          ort
SDA:   1    -0.352858168770E+03    0.11553E+01    0.00000E+00 10962   0.345E+01 0.000E+00
CGA:   2    -0.353510793735E+03   -0.65262E+00   -0.65293E+00 10962   0.202E+01 0.557E-02
CGA:   3    -0.353865775122E+03   -0.35498E+00   -0.35496E+00 10962   0.768E+00-0.881E-03
CGA:   4    -0.353972058200E+03   -0.10628E+00   -0.10617E+00 10962   0.154E+00-0.144E-02
CGA:   5    -0.353995695491E+03   -0.23637E-01   -0.23644E-01 10962   0.425E-01 0.590E-04
CGA:   6    -0.354003227165E+03   -0.75317E-02   -0.75308E-02 10962   0.137E-01-0.350E-04
CGA:   7    -0.354005845682E+03   -0.26185E-02   -0.26171E-02 10962   0.412E-02-0.754E-04
CGA:   8    -0.354006744051E+03   -0.89837E-03   -0.89773E-03 10962   0.154E-02 0.724E-04
CGA:   9    -0.354007147220E+03   -0.40317E-03   -0.40508E-03 10962   0.664E-03-0.398E-04
CGA:  10    -0.354007326110E+03   -0.17889E-03   -0.18170E-03 10962   0.276E-03-0.416E-04
CGA:  11    -0.354007389749E+03   -0.63639E-04   -0.63171E-04 10962   0.870E-04 0.170E-04
CGA:  12    -0.354007419217E+03   -0.29468E-04   -0.31118E-04 10962   0.440E-04-0.139E-04
CGA:  13    -0.354007427777E+03   -0.85600E-05   -0.85027E-05 10962   0.199E-04 0.944E-05
  42 F= -.35400743E+03 E0= -.35400743E+03  d E =0.609481E-02  mag=     8.0000
       N       E                     dE             d eps       ncg     rms          ort
SDA:   1    -0.353707313003E+03    0.30011E+00    0.00000E+00 10962   0.931E+00 0.000E+00
CGA:   2    -0.353881273163E+03   -0.17396E+00   -0.17396E+00 10962   0.535E+00-0.495E-03
CGA:   3    -0.353976107029E+03   -0.94834E-01   -0.94794E-01 10962   0.218E+00-0.966E-03
CGA:   4    -0.354007065847E+03   -0.30959E-01   -0.30968E-01 10962   0.456E-01 0.456E-04
CGA:   5    -0.354014032187E+03   -0.69663E-02   -0.69834E-02 10962   0.128E-01 0.247E-03
CGA:   6    -0.354016345035E+03   -0.23128E-02   -0.23142E-02 10962   0.437E-02 0.347E-04
CGA:   7    -0.354017236119E+03   -0.89108E-03   -0.88962E-03 10962   0.152E-02-0.153E-03
CGA:   8    -0.354017593811E+03   -0.35769E-03   -0.36243E-03 10962   0.704E-03-0.140E-03
CGA:   9    -0.354017759716E+03   -0.16590E-03   -0.17113E-03 10962   0.315E-03-0.976E-04
CGA:  10    -0.354017821664E+03   -0.61948E-04   -0.61785E-04 10962   0.960E-04 0.144E-04
CGA:  11    -0.354017838397E+03   -0.16733E-04   -0.17968E-04 10962   0.299E-04 0.322E-04
CGA:  12    -0.354017843772E+03   -0.53755E-05   -0.63275E-05 10962   0.127E-04 0.167E-04
  43 F= -.35401784E+03 E0= -.35401784E+03  d E =-.104160E-01  mag=     8.0000
       N       E                     dE             d eps       ncg     rms          ort
SDA:   1    -0.353850310889E+03    0.16753E+00    0.00000E+00 10962   0.626E+00 0.000E+00
CGA:   2    -0.353945107157E+03   -0.94796E-01   -0.94829E-01 10962   0.270E+00 0.143E-03
CGA:   3    -0.353996937105E+03   -0.51830E-01   -0.51825E-01 10962   0.142E+00-0.386E-03
CGA:   4    -0.354018253060E+03   -0.21316E-01   -0.21331E-01 10962   0.318E-01 0.215E-03
CGA:   5    -0.354022954022E+03   -0.47010E-02   -0.47180E-02 10962   0.812E-02 0.281E-03
CGA:   6    -0.354024370708E+03   -0.14167E-02   -0.14197E-02 10962   0.256E-02 0.986E-04
CGA:   7    -0.354024864988E+03   -0.49428E-03   -0.49475E-03 10962   0.769E-03 0.431E-04
CGA:   8    -0.354025018566E+03   -0.15358E-03   -0.15394E-03 10962   0.254E-03 0.901E-04
CGA:   9    -0.354025081051E+03   -0.62485E-04   -0.61695E-04 10962   0.913E-04 0.462E-04
CGA:  10    -0.354025106782E+03   -0.25731E-04   -0.25110E-04 10962   0.363E-04 0.200E-04
CGA:  11    -0.354025114893E+03   -0.81118E-05   -0.83517E-05 10962   0.136E-04 0.167E-04
  44 F= -.35402511E+03 E0= -.35402511E+03  d E =-.727112E-02  mag=     8.0000
       N       E                     dE             d eps       ncg     rms          ort
SDA:   1    -0.353840112057E+03    0.18499E+00    0.00000E+00 10962   0.459E+00 0.000E+00
CGA:   2    -0.353977861026E+03   -0.13775E+00   -0.13766E+00 10962   0.273E+00 0.787E-03
CGA:   3    -0.354015431893E+03   -0.37571E-01   -0.37571E-01 10962   0.681E-01-0.541E-04
CGA:   4    -0.354025055432E+03   -0.96235E-02   -0.96159E-02 10962   0.158E-01-0.139E-03
CGA:   5    -0.354027605398E+03   -0.25500E-02   -0.25434E-02 10962   0.461E-02-0.173E-03
CGA:   6    -0.354028401378E+03   -0.79598E-03   -0.79486E-03 10962   0.140E-02-0.480E-04
CGA:   7    -0.354028648585E+03   -0.24721E-03   -0.24827E-03 10962   0.399E-03 0.614E-04
CGA:   8    -0.354028742374E+03   -0.93789E-04   -0.93000E-04 10962   0.164E-03 0.294E-04
CGA:   9    -0.354028789916E+03   -0.47542E-04   -0.46972E-04 10962   0.806E-04 0.832E-05
CGA:  10    -0.354028815062E+03   -0.25146E-04   -0.25753E-04 10962   0.406E-04-0.587E-05
CGA:  11    -0.354028826136E+03   -0.11074E-04   -0.12359E-04 10962   0.207E-04-0.105E-04
CGA:  12    -0.354028828486E+03   -0.23501E-05   -0.25635E-05 10962   0.807E-05 0.473E-05
  45 F= -.35402883E+03 E0= -.35402883E+03  d E =-.371359E-02  mag=     8.0000
       N       E                     dE             d eps       ncg     rms          ort
SDA:   1    -0.284309654680E+03    0.69719E+02    0.00000E+00 10962   0.170E+03 0.000E+00
CGA:   2    -0.325928511980E+03   -0.41619E+02   -0.41519E+02 10962   0.975E+02 0.174E+01
CGA:   3    -0.342300626208E+03   -0.16372E+02   -0.16386E+02 10962   0.326E+02 0.196E+00
CGA:   4    -0.347127681955E+03   -0.48271E+01   -0.48298E+01 10962   0.827E+01 0.476E-01
CGA:   5    -0.348474558750E+03   -0.13469E+01   -0.13488E+01 10962   0.260E+01 0.295E-01
CGA:   6    -0.348977791318E+03   -0.50323E+00   -0.50341E+00 10962   0.100E+01 0.164E-01
CGA:   7    -0.349189764174E+03   -0.21197E+00   -0.21193E+00 10962   0.403E+00 0.493E-02
CGA:   8    -0.349287305371E+03   -0.97541E-01   -0.97375E-01 10962   0.167E+00 0.405E-02
CGA:   9    -0.349329539292E+03   -0.42234E-01   -0.42249E-01 10962   0.646E-01-0.384E-03
CGA:  10    -0.349346179638E+03   -0.16640E-01   -0.16687E-01 10962   0.214E-01-0.898E-03
CGA:  11    -0.349351646922E+03   -0.54673E-02   -0.54529E-02 10962   0.663E-02 0.290E-03
CGA:  12    -0.349353575188E+03   -0.19283E-02   -0.19672E-02 10962   0.243E-02-0.482E-03
CGA:  13    -0.349354174629E+03   -0.59944E-03   -0.58575E-03 10962   0.829E-03 0.311E-03
CGA:  14    -0.349354520190E+03   -0.34556E-03   -0.40881E-03 10962   0.767E-03-0.289E-03
CGA:  15    -0.349354616226E+03   -0.96037E-04   -0.10007E-03 10962   0.465E-03 0.141E-03
CGA:  16    -0.349354704634E+03   -0.88407E-04   -0.96331E-04 10962   0.199E-03 0.151E-03
CGA:  17    -0.349354778453E+03   -0.73819E-04   -0.72746E-04 10962   0.126E-03 0.209E-04
CGA:  18    -0.349354802602E+03   -0.24150E-04   -0.26324E-04 10962   0.834E-04 0.577E-04
CGA:  19    -0.349354820201E+03   -0.17598E-04   -0.20718E-04 10962   0.491E-04 0.563E-04
CGA:  20    -0.349354845418E+03   -0.25217E-04    0.35398E-04 10962   0.205E-04 0.258E-04
CGA:  21    -0.349354848836E+03   -0.34182E-05   -0.39423E-05 10962   0.155E-04 0.171E-04
  46 F= -.34935485E+03 E0= -.34935485E+03  d E =0.467398E+01  mag=     8.0000
       N       E                     dE             d eps       ncg     rms          ort
SDA:   1    -0.288793838120E+03    0.60561E+02    0.00000E+00 10962   0.156E+03 0.000E+00
CGA:   2    -0.337663959226E+03   -0.48870E+02   -0.49159E+02 10962   0.563E+02-0.292E+01
CGA:   3    -0.347667158149E+03   -0.10003E+02   -0.10031E+02 10962   0.223E+02-0.158E-02
CGA:   4    -0.351129245342E+03   -0.34621E+01   -0.34644E+01 10962   0.620E+01-0.655E-01
CGA:   5    -0.352238286127E+03   -0.11090E+01   -0.11066E+01 10962   0.254E+01-0.463E-01
CGA:   6    -0.352726776519E+03   -0.48849E+00   -0.48856E+00 10962   0.948E+00 0.229E-02
CGA:   7    -0.352951194173E+03   -0.22442E+00   -0.22447E+00 10962   0.463E+00-0.427E-02
CGA:   8    -0.353051742778E+03   -0.10055E+00   -0.10055E+00 10962   0.169E+00-0.118E-01
CGA:   9    -0.353094112767E+03   -0.42370E-01   -0.42293E-01 10962   0.612E-01 0.194E-02
CGA:  10    -0.353108851535E+03   -0.14739E-01   -0.14736E-01 10962   0.189E-01 0.170E-03
CGA:  11    -0.353114159819E+03   -0.53083E-02   -0.53715E-02 10962   0.681E-02-0.102E-02
CGA:  12    -0.353115586244E+03   -0.14264E-02   -0.14286E-02 10962   0.188E-02 0.100E-02
CGA:  13    -0.353116199809E+03   -0.61356E-03   -0.60257E-03 10962   0.752E-03 0.198E-03
CGA:  14    -0.353116485683E+03   -0.28587E-03   -0.29757E-03 10962   0.455E-03-0.900E-04
CGA:  15    -0.353116521896E+03   -0.36214E-04   -0.56253E-04 10962   0.238E-03 0.216E-03
CGA:  16    -0.353116553851E+03   -0.31955E-04   -0.46623E-04 10962   0.105E-03 0.153E-03
CGA:  17    -0.353116631653E+03   -0.77802E-04    0.17988E-04 10962   0.526E-04 0.567E-04
CGA:  18    -0.353116630763E+03    0.88967E-06   -0.49998E-05 10962   0.430E-04 0.458E-04
CGA:  19    -0.353116655037E+03   -0.24273E-04   -0.18392E-04 10962   0.245E-04 0.279E-04
CGA:  20    -0.353116683614E+03   -0.28577E-04    0.17911E-05 10962   0.199E-04 0.196E-04
CGA:  21    -0.353116681911E+03    0.17024E-05   -0.13236E-05 10962   0.180E-04 0.188E-04
  47 F= -.35311668E+03 E0= -.35311668E+03  d E =-.376183E+01  mag=     8.0000
       N       E                     dE             d eps       ncg     rms          ort
SDA:   1    -0.351808050752E+03    0.13086E+01    0.00000E+00 10962   0.460E+01 0.000E+00
CGA:   2    -0.353304428575E+03   -0.14964E+01   -0.14954E+01 10962   0.149E+01 0.942E-02
CGA:   3    -0.353628116888E+03   -0.32369E+00   -0.32370E+00 10962   0.592E+00 0.141E-02
CGA:   4    -0.353706280656E+03   -0.78164E-01   -0.78149E-01 10962   0.150E+00-0.549E-03
CGA:   5    -0.353735396239E+03   -0.29116E-01   -0.29100E-01 10962   0.523E-01-0.720E-03
CGA:   6    -0.353744947373E+03   -0.95511E-02   -0.95622E-02 10962   0.207E-01 0.331E-03
CGA:   7    -0.353749719745E+03   -0.47724E-02   -0.47641E-02 10962   0.927E-02 0.600E-03
CGA:   8    -0.353751850115E+03   -0.21304E-02   -0.21284E-02 10962   0.350E-02 0.247E-03
CGA:   9    -0.353752786982E+03   -0.93687E-03   -0.93545E-03 10962   0.140E-02 0.310E-04
CGA:  10    -0.353753144847E+03   -0.35787E-03   -0.36129E-03 10962   0.461E-03-0.913E-04
CGA:  11    -0.353753262949E+03   -0.11810E-03   -0.12151E-03 10962   0.150E-03-0.551E-04
CGA:  12    -0.353753302894E+03   -0.39946E-04   -0.48012E-04 10962   0.858E-04-0.572E-04
CGA:  13    -0.353753289323E+03    0.13571E-04   -0.38565E-04 10962   0.253E-03-0.105E-03
CGA:  14    -0.353753332766E+03   -0.43443E-04   -0.45184E-04 10962   0.331E-04 0.227E-04
CGA:  15    -0.353753341345E+03   -0.85792E-05   -0.86648E-05 10962   0.106E-04 0.808E-05
  48 F= -.35375334E+03 E0= -.35375334E+03  d E =-.636659E+00  mag=     8.0000
       N       E                     dE             d eps       ncg     rms          ort
SDA:   1    -0.351851562251E+03    0.19018E+01    0.00000E+00 10962   0.517E+01 0.000E+00
CGA:   2    -0.353446691742E+03   -0.15951E+01   -0.15942E+01 10962   0.211E+01 0.114E-01
CGA:   3    -0.353818818998E+03   -0.37213E+00   -0.37238E+00 10962   0.888E+00 0.245E-02
CGA:   4    -0.353947006922E+03   -0.12819E+00   -0.12824E+00 10962   0.208E+00 0.416E-03
CGA:   5    -0.353983399270E+03   -0.36392E-01   -0.36355E-01 10962   0.724E-01-0.642E-03
CGA:   6    -0.353996944214E+03   -0.13545E-01   -0.13544E-01 10962   0.270E-01-0.507E-04
CGA:   7    -0.354002729968E+03   -0.57858E-02   -0.57988E-02 10962   0.121E-01 0.699E-03
CGA:   8    -0.354005549234E+03   -0.28193E-02   -0.28230E-02 10962   0.437E-02 0.675E-03
CGA:   9    -0.354006733502E+03   -0.11843E-02   -0.11829E-02 10962   0.188E-02 0.570E-04
CGA:  10    -0.354007229877E+03   -0.49638E-03   -0.49880E-03 10962   0.627E-03-0.871E-04
CGA:  11    -0.354007392172E+03   -0.16230E-03   -0.16496E-03 10962   0.210E-03-0.654E-04
CGA:  12    -0.354007449602E+03   -0.57430E-04   -0.70285E-04 10962   0.134E-03-0.939E-04
CGA:  13    -0.354007471687E+03   -0.22085E-04   -0.26799E-04 10962   0.711E-04-0.403E-04
CGA:  14    -0.354007231445E+03    0.24024E-03   -0.12943E-03 10962   0.129E-02-0.238E-03
CGA:  15    -0.354007460725E+03   -0.22928E-03   -0.25981E-03 10962   0.124E-03 0.120E-03
CGA:  16    -0.354007515159E+03   -0.54434E-04   -0.50237E-04 10962   0.904E-04-0.581E-04
CGA:  17    -0.354007509554E+03    0.56050E-05   -0.38585E-05 10962   0.553E-04 0.264E-04
  49 F= -.35400751E+03 E0= -.35400751E+03  d E =-.254168E+00  mag=     8.0000
       N       E                     dE             d eps       ncg     rms          ort
SDA:   1    -0.353806514468E+03    0.20100E+00    0.00000E+00 10962   0.591E+00 0.000E+00
CGA:   2    -0.353944199445E+03   -0.13768E+00   -0.13784E+00 10962   0.370E+00 0.458E-03
CGA:   3    -0.354004147999E+03   -0.59949E-01   -0.60009E-01 10962   0.125E+00 0.356E-03
CGA:   4    -0.354022324758E+03   -0.18177E-01   -0.18213E-01 10962   0.305E-01 0.130E-03
CGA:   5    -0.354027226411E+03   -0.49017E-02   -0.49012E-02 10962   0.916E-02-0.141E-04
CGA:   6    -0.354028913363E+03   -0.16870E-02   -0.16713E-02 10962   0.322E-02-0.916E-04
CGA:   7    -0.354029533502E+03   -0.62014E-03   -0.63006E-03 10962   0.121E-02 0.635E-04
CGA:   8    -0.354029761193E+03   -0.22769E-03   -0.25356E-03 10962   0.427E-03 0.187E-03
CGA:   9    -0.354029862110E+03   -0.10092E-03   -0.10939E-03 10962   0.160E-03 0.735E-04
CGA:  10    -0.354029917283E+03   -0.55173E-04   -0.54829E-04 10962   0.826E-04-0.875E-05
CGA:  11    -0.354029934691E+03   -0.17407E-04   -0.17800E-04 10962   0.271E-04 0.385E-05
CGA:  12    -0.354029944387E+03   -0.96958E-05   -0.14031E-04 10962   0.391E-04-0.256E-04
  50 F= -.35402994E+03 E0= -.35402994E+03  d E =-.224348E-01  mag=     8.0000
       N       E                     dE             d eps       ncg     rms          ort
SDA:   1    -0.353125489107E+03    0.90445E+00    0.00000E+00 10962   0.276E+01 0.000E+00
CGA:   2    -0.353647804198E+03   -0.52232E+00   -0.52310E+00 10962   0.158E+01 0.202E-02
CGA:   3    -0.353926900931E+03   -0.27910E+00   -0.27916E+00 10962   0.604E+00 0.382E-03
CGA:   4    -0.354013209151E+03   -0.86308E-01   -0.86336E-01 10962   0.137E+00 0.129E-03
CGA:   5    -0.354034604455E+03   -0.21395E-01   -0.21437E-01 10962   0.379E-01 0.215E-03
CGA:   6    -0.354041296190E+03   -0.66917E-02   -0.66795E-02 10962   0.122E-01-0.120E-03
CGA:   7    -0.354043672602E+03   -0.23764E-02   -0.23859E-02 10962   0.420E-02 0.981E-04
CGA:   8    -0.354044505470E+03   -0.83287E-03   -0.86895E-03 10962   0.147E-02 0.455E-03
CGA:   9    -0.354044871473E+03   -0.36600E-03   -0.37615E-03 10962   0.554E-03 0.207E-03
CGA:  10    -0.354045046805E+03   -0.17533E-03   -0.17533E-03 10962   0.248E-03 0.254E-05
CGA:  11    -0.354045102345E+03   -0.55539E-04   -0.57051E-04 10962   0.802E-04 0.307E-04
CGA:  12    -0.354045133350E+03   -0.31005E-04   -0.39637E-04 10962   0.831E-04-0.525E-04
CGA:  13    -0.354045144631E+03   -0.11281E-04   -0.13539E-04 10962   0.115E-04 0.187E-04
CGA:  14    -0.354045138769E+03    0.58625E-05   -0.13021E-04 10962   0.826E-04-0.291E-04
CGA:  15    -0.354045152701E+03   -0.13932E-04   -0.16224E-04 10962   0.839E-05 0.201E-04
CGA:  16    -0.354045166292E+03   -0.13591E-04    0.13977E-05 10962   0.237E-05-0.123E-05
CGA:  17    -0.354045165804E+03    0.48788E-06   -0.48156E-07 10962   0.212E-05 0.191E-05
  51 F= -.35404517E+03 E0= -.35404517E+03  d E =-.152214E-01  mag=     8.0000
       N       E                     dE             d eps       ncg     rms          ort
SDA:   1    -0.353334319768E+03    0.71085E+00    0.00000E+00 10962   0.214E+01 0.000E+00
[...]
CGA:   6    -0.354077979812E+03   -0.26549E-03   -0.26630E-03 10962   0.483E-03 0.226E-04
CGA:   7    -0.354078062362E+03   -0.82551E-04   -0.83971E-04 10962   0.126E-03 0.500E-04
CGA:   8    -0.354078085520E+03   -0.23158E-04   -0.23891E-04 10962   0.365E-04 0.282E-04
CGA:   9    -0.354078092991E+03   -0.74702E-05   -0.77910E-05 10962   0.140E-04 0.142E-04
  99 F= -.35407809E+03 E0= -.35407809E+03  d E =-.914735E-03  mag=     8.0000
       N       E                     dE             d eps       ncg     rms          ort
SDA:   1    -0.354055801204E+03    0.22284E-01    0.00000E+00 10962   0.644E-01 0.000E+00
CGA:   2    -0.354069301899E+03   -0.13501E-01   -0.13489E-01 10962   0.322E-01 0.687E-03
CGA:   3    -0.354074817053E+03   -0.55152E-02   -0.55168E-02 10962   0.126E-01 0.570E-04
CGA:   4    -0.354076649440E+03   -0.18324E-02   -0.18271E-02 10962   0.287E-02-0.114E-03
CGA:   5    -0.354077085383E+03   -0.43594E-03   -0.43167E-03 10962   0.825E-03-0.110E-03
CGA:   6    -0.354077218079E+03   -0.13270E-03   -0.13267E-03 10962   0.253E-03-0.145E-05
CGA:   7    -0.354077260815E+03   -0.42736E-04   -0.43265E-04 10962   0.765E-04 0.316E-04
CGA:   8    -0.354077282404E+03   -0.21589E-04   -0.21572E-04 10962   0.426E-04 0.211E-06
CGA:   9    -0.354077292692E+03   -0.10288E-04   -0.10077E-04 10962   0.220E-04 0.463E-05
CGA:  10    -0.354077298832E+03   -0.61395E-05   -0.59513E-05 10962   0.994E-05 0.362E-05
 100 F= -.35407730E+03 E0= -.35407730E+03  d E =0.794159E-03  mag=     8.0000
       N       E                     dE             d eps       ncg     rms          ort
SDA:   1    -0.353400441969E+03    0.67685E+00    0.00000E+00 10962   0.197E+01 0.000E+00
CGA:   2    -0.353846550002E+03   -0.44611E+00   -0.44591E+00 10962   0.894E+00 0.699E-02
CGA:   3    -0.353998626135E+03   -0.15208E+00   -0.15207E+00 10962   0.375E+00-0.327E-03
CGA:   4    -0.354051813840E+03   -0.53188E-01   -0.53139E-01 10962   0.776E-01-0.937E-03
CGA:   5    -0.354063563596E+03   -0.11750E-01   -0.11727E-01 10962   0.222E-01-0.481E-03
CGA:   6    -0.354067459114E+03   -0.38955E-02   -0.38929E-02 10962   0.722E-02-0.126E-03
CGA:   7    -0.354068889584E+03   -0.14305E-02   -0.14303E-02 10962   0.289E-02 0.729E-04
CGA:   8    -0.354069649143E+03   -0.75956E-03   -0.76426E-03 10962   0.161E-02-0.741E-04
CGA:   9    -0.354070096030E+03   -0.44689E-03   -0.45013E-03 10962   0.921E-03-0.384E-04
CGA:  10    -0.354070345629E+03   -0.24960E-03   -0.25011E-03 10962   0.380E-03-0.733E-05
CGA:  11    -0.354070453128E+03   -0.10750E-03   -0.10971E-03 10962   0.151E-03-0.269E-04
CGA:  12    -0.354070486920E+03   -0.33793E-04   -0.33287E-04 10962   0.501E-04 0.206E-04
CGA:  13    -0.354070505007E+03   -0.18087E-04   -0.18096E-04 10962   0.262E-04-0.113E-06
CGA:  14    -0.354070510974E+03   -0.59665E-05   -0.59059E-05 10962   0.120E-04 0.894E-05
 101 F= -.35407051E+03 E0= -.35407051E+03  d E =0.678786E-02  mag=     8.0000
       N       E                     dE             d eps       ncg     rms          ort
SDA:   1    -0.350901388932E+03    0.31691E+01    0.00000E+00 10962   0.947E+01 0.000E+00
CGA:   2    -0.352945668088E+03   -0.20443E+01   -0.20444E+01 10962   0.444E+01 0.264E-01
CGA:   3    -0.353689652914E+03   -0.74398E+00   -0.74388E+00 10962   0.184E+01-0.114E-02
CGA:   4    -0.353956876039E+03   -0.26722E+00   -0.26710E+00 10962   0.400E+00-0.260E-02
CGA:   5    -0.354016438945E+03   -0.59563E-01   -0.59512E-01 10962   0.111E+00-0.103E-02
CGA:   6    -0.354035893592E+03   -0.19455E-01   -0.19441E-01 10962   0.362E-01-0.433E-03
CGA:   7    -0.354043074927E+03   -0.71813E-02   -0.71824E-02 10962   0.144E-01 0.109E-03
CGA:   8    -0.354046666898E+03   -0.35920E-02   -0.35872E-02 10962   0.733E-02 0.105E-03
CGA:   9    -0.354048781231E+03   -0.21143E-02   -0.21208E-02 10962   0.421E-02-0.884E-04
CGA:  10    -0.354049952074E+03   -0.11708E-02   -0.11722E-02 10962   0.182E-02-0.224E-04
CGA:  11    -0.354050459854E+03   -0.50778E-03   -0.51043E-03 10962   0.703E-03-0.412E-04
CGA:  12    -0.354050660141E+03   -0.20029E-03   -0.20094E-03 10962   0.285E-03-0.934E-05
CGA:  13    -0.354050748316E+03   -0.88176E-04   -0.86746E-04 10962   0.125E-03 0.167E-04
CGA:  14    -0.354050794272E+03   -0.45956E-04   -0.44688E-04 10962   0.591E-04 0.115E-04
CGA:  15    -0.354050813102E+03   -0.18829E-04   -0.18022E-04 10962   0.241E-04 0.174E-04
CGA:  16    -0.354050825413E+03   -0.12312E-04   -0.12295E-04 10962   0.158E-04 0.623E-07
CGA:  17    -0.354050830958E+03   -0.55444E-05   -0.52227E-05 10962   0.101E-04 0.372E-05
CGA:  18    -0.354050808002E+03    0.22956E-04   -0.13272E-04 10962   0.153E-03-0.330E-04
CGA:  19    -0.354050839220E+03   -0.31218E-04   -0.34640E-04 10962   0.266E-04 0.151E-04
CGA:  20    -0.354050848920E+03   -0.97000E-05   -0.80031E-05 10962   0.174E-04-0.102E-04
 102 F= -.35405085E+03 E0= -.35405085E+03  d E =0.196621E-01  mag=     8.0000
       N       E                     dE             d eps       ncg     rms          ort
SDA:   1    -0.353517402590E+03    0.53344E+00    0.00000E+00 10962   0.162E+01 0.000E+00
CGA:   2    -0.353819676536E+03   -0.30227E+00   -0.30280E+00 10962   0.900E+00 0.943E-03
CGA:   3    -0.353979604515E+03   -0.15993E+00   -0.15994E+00 10962   0.375E+00 0.289E-03
CGA:   4    -0.354032906202E+03   -0.53302E-01   -0.53213E-01 10962   0.814E-01-0.302E-03
CGA:   5    -0.354045039785E+03   -0.12134E-01   -0.12113E-01 10962   0.224E-01-0.129E-03
CGA:   6    -0.354048982468E+03   -0.39427E-02   -0.39430E-02 10962   0.751E-02-0.745E-05
CGA:   7    -0.354050432278E+03   -0.14498E-02   -0.14558E-02 10962   0.255E-02 0.334E-04
CGA:   8    -0.354050976229E+03   -0.54395E-03   -0.55784E-03 10962   0.994E-03 0.102E-03
CGA:   9    -0.354051223310E+03   -0.24708E-03   -0.25165E-03 10962   0.418E-03 0.440E-04
CGA:  10    -0.354051344438E+03   -0.12113E-03   -0.12110E-03 10962   0.180E-03-0.600E-06
CGA:  11    -0.354051390637E+03   -0.46199E-04   -0.46916E-04 10962   0.684E-04 0.925E-05
CGA:  12    -0.354051413606E+03   -0.22969E-04   -0.22909E-04 10962   0.324E-04-0.387E-05
CGA:  13    -0.354051420918E+03   -0.73119E-05   -0.77956E-05 10962   0.134E-04 0.615E-05
 103 F= -.35405142E+03 E0= -.35405142E+03  d E =-.571999E-03  mag=     8.0000
       N       E                     dE             d eps       ncg     rms          ort
SDA:   1    -0.352972342115E+03    0.10791E+01    0.00000E+00 10962   0.311E+01 0.000E+00
CGA:   2    -0.353718461207E+03   -0.74612E+00   -0.74622E+00 10962   0.143E+01-0.239E-02
CGA:   3    -0.353959424880E+03   -0.24096E+00   -0.24095E+00 10962   0.572E+00-0.561E-03
CGA:   4    -0.354039586256E+03   -0.80161E-01   -0.80257E-01 10962   0.120E+00 0.567E-03
CGA:   5    -0.354057598285E+03   -0.18012E-01   -0.18101E-01 10962   0.346E-01 0.519E-03
CGA:   6    -0.354063714045E+03   -0.61158E-02   -0.61301E-02 10962   0.113E-01 0.107E-03
CGA:   7    -0.354066063694E+03   -0.23496E-02   -0.23345E-02 10962   0.481E-02-0.171E-03
CGA:   8    -0.354067255569E+03   -0.11919E-02   -0.11892E-02 10962   0.244E-02-0.667E-04
CGA:   9    -0.354067966910E+03   -0.71134E-03   -0.71190E-03 10962   0.144E-02-0.134E-03
CGA:  10    -0.354068344844E+03   -0.37793E-03   -0.37713E-03 10962   0.595E-03-0.593E-04
CGA:  11    -0.354068489108E+03   -0.14426E-03   -0.14517E-03 10962   0.201E-03 0.246E-04
CGA:  12    -0.354068553513E+03   -0.64406E-04   -0.64624E-04 10962   0.921E-04-0.109E-04
CGA:  13    -0.354068573177E+03   -0.19664E-04   -0.20838E-04 10962   0.380E-04 0.231E-04
CGA:  14    -0.354068588155E+03   -0.14979E-04   -0.14890E-04 10962   0.209E-04 0.338E-05
CGA:  15    -0.354068596072E+03   -0.79162E-05   -0.78985E-05 10962   0.117E-04 0.285E-06
 104 F= -.35406860E+03 E0= -.35406860E+03  d E =-.171752E-01  mag=     8.0000
       N       E                     dE             d eps       ncg     rms          ort
SDA:   1    -0.353975153142E+03    0.93435E-01    0.00000E+00 10962   0.259E+00 0.000E+00
CGA:   2    -0.354036498987E+03   -0.61346E-01   -0.61434E-01 10962   0.125E+00 0.161E-02
CGA:   3    -0.354057402364E+03   -0.20903E-01   -0.20900E-01 10962   0.485E-01-0.526E-04
CGA:   4    -0.354064344819E+03   -0.69425E-02   -0.69091E-02 10962   0.101E-01-0.262E-03
CGA:   5    -0.354065915585E+03   -0.15708E-02   -0.15545E-02 10962   0.287E-02-0.144E-03
CGA:   6    -0.354066424518E+03   -0.50893E-03   -0.50347E-03 10962   0.948E-03-0.632E-04
CGA:   7    -0.354066599725E+03   -0.17521E-03   -0.17711E-03 10962   0.342E-03 0.268E-04
CGA:   8    -0.354066675448E+03   -0.75723E-04   -0.77308E-04 10962   0.147E-03 0.422E-04
CGA:   9    -0.354066719799E+03   -0.44351E-04   -0.44154E-04 10962   0.806E-04 0.166E-04
CGA:  10    -0.354066744532E+03   -0.24734E-04   -0.24571E-04 10962   0.372E-04 0.905E-05
CGA:  11    -0.354066756824E+03   -0.12292E-04   -0.12307E-04 10962   0.172E-04-0.385E-06
CGA:  12    -0.354066762664E+03   -0.58398E-05   -0.74840E-05 10962   0.169E-04-0.913E-05
 105 F= -.35406676E+03 E0= -.35406676E+03  d E =0.183341E-02  mag=     8.0000
       N       E                     dE             d eps       ncg     rms          ort
SDA:   1    -0.353566588211E+03    0.50017E+00    0.00000E+00 10962   0.132E+01 0.000E+00
CGA:   2    -0.353926363203E+03   -0.35977E+00   -0.35972E+00 10962   0.560E+00 0.530E-02
CGA:   3    -0.354024575058E+03   -0.98212E-01   -0.98128E-01 10962   0.216E+00-0.103E-02
CGA:   4    -0.354053075901E+03   -0.28501E-01   -0.28400E-01 10962   0.415E-01-0.869E-03
CGA:   5    -0.354059855171E+03   -0.67793E-02   -0.67445E-02 10962   0.131E-01-0.397E-03
CGA:   6    -0.354062078849E+03   -0.22237E-02   -0.22177E-02 10962   0.410E-02-0.805E-04
CGA:   7    -0.354062886461E+03   -0.80761E-03   -0.81051E-03 10962   0.161E-02 0.623E-04
CGA:   8    -0.354063292510E+03   -0.40605E-03   -0.40593E-03 10962   0.818E-03 0.182E-04
CGA:   9    -0.354063536626E+03   -0.24412E-03   -0.24483E-03 10962   0.492E-03-0.136E-04
CGA:  10    -0.354063670292E+03   -0.13367E-03   -0.13376E-03 10962   0.205E-03-0.308E-05
CGA:  11    -0.354063731303E+03   -0.61011E-04   -0.62241E-04 10962   0.904E-04-0.211E-04
CGA:  12    -0.354063754666E+03   -0.23364E-04   -0.23465E-04 10962   0.373E-04-0.259E-05
CGA:  13    -0.354063766307E+03   -0.11641E-04   -0.11530E-04 10962   0.175E-04 0.163E-05
CGA:  14    -0.354063771434E+03   -0.51267E-05   -0.50301E-05 10962   0.757E-05 0.477E-05
 106 F= -.35406377E+03 E0= -.35406377E+03  d E =0.299123E-02  mag=     8.0000
       N       E                     dE             d eps       ncg     rms          ort
SDA:   1    -0.348389434558E+03    0.56743E+01    0.00000E+00 10962   0.144E+02 0.000E+00
CGA:   2    -0.352696758814E+03   -0.43073E+01   -0.43059E+01 10962   0.532E+01 0.239E-01
CGA:   3    -0.353724427506E+03   -0.10277E+01   -0.10275E+01 10962   0.176E+01-0.467E-02
CGA:   4    -0.353946301162E+03   -0.22187E+00   -0.22141E+00 10962   0.370E+00-0.343E-02
CGA:   5    -0.354010503790E+03   -0.64203E-01   -0.64080E-01 10962   0.119E+00-0.168E-02
CGA:   6    -0.354030253204E+03   -0.19749E-01   -0.19771E-01 10962   0.376E-01 0.242E-03
CGA:   7    -0.354038190015E+03   -0.79368E-02   -0.79310E-02 10962   0.160E-01-0.210E-03
CGA:   8    -0.354042204749E+03   -0.40147E-02   -0.40221E-02 10962   0.859E-02-0.525E-03
CGA:   9    -0.354044586709E+03   -0.23820E-02   -0.23842E-02 10962   0.456E-02-0.505E-04
CGA:  10    -0.354045871868E+03   -0.12852E-02   -0.12991E-02 10962   0.201E-02-0.318E-03
CGA:  11    -0.354046385510E+03   -0.51364E-03   -0.51570E-03 10962   0.738E-03-0.657E-04
CGA:  12    -0.354046589340E+03   -0.20383E-03   -0.20275E-03 10962   0.306E-03 0.277E-04
CGA:  13    -0.354046699703E+03   -0.11036E-03   -0.10838E-03 10962   0.169E-03 0.207E-04
CGA:  14    -0.354046741082E+03   -0.41379E-04   -0.42551E-04 10962   0.755E-04 0.721E-04
CGA:  15    -0.354046772616E+03   -0.31534E-04   -0.30698E-04 10962   0.385E-04 0.252E-04
CGA:  16    -0.354046794202E+03   -0.21586E-04   -0.21090E-04 10962   0.292E-04 0.288E-05
CGA:  17    -0.354046799775E+03   -0.55734E-05   -0.64771E-05 10962   0.188E-04 0.163E-04
 107 F= -.35404680E+03 E0= -.35404680E+03  d E =0.169717E-01  mag=     8.0000
       N       E                     dE             d eps       ncg     rms          ort
SDA:   1    -0.353611843595E+03    0.43495E+00    0.00000E+00 10962   0.132E+01 0.000E+00
CGA:   2    -0.353877882198E+03   -0.26604E+00   -0.26601E+00 10962   0.736E+00-0.143E-02
CGA:   3    -0.354000610490E+03   -0.12273E+00   -0.12268E+00 10962   0.284E+00-0.772E-03
CGA:   4    -0.354041037133E+03   -0.40427E-01   -0.40481E-01 10962   0.658E-01 0.418E-03
CGA:   5    -0.354050796323E+03   -0.97592E-02   -0.98309E-02 10962   0.186E-01 0.711E-03
CGA:   6    -0.354054032277E+03   -0.32360E-02   -0.32554E-02 10962   0.600E-02 0.281E-03
CGA:   7    -0.354055244000E+03   -0.12117E-02   -0.12125E-02 10962   0.219E-02 0.176E-04
CGA:   8    -0.354055748910E+03   -0.50491E-03   -0.50520E-03 10962   0.946E-03 0.556E-04
CGA:   9    -0.354055998410E+03   -0.24950E-03   -0.24936E-03 10962   0.436E-03 0.632E-05
CGA:  10    -0.354056120269E+03   -0.12186E-03   -0.12211E-03 10962   0.189E-03-0.620E-05
CGA:  11    -0.354056173078E+03   -0.52809E-04   -0.53130E-04 10962   0.787E-04-0.703E-05
CGA:  12    -0.354056198980E+03   -0.25902E-04   -0.33453E-04 10962   0.751E-04-0.377E-04
CGA:  13    -0.354056209407E+03   -0.10428E-04   -0.10622E-04 10962   0.414E-04-0.945E-05
CGA:  14    -0.354056215371E+03   -0.59637E-05   -0.20283E-04 10962   0.862E-04-0.464E-04
CGA:  15    -0.354056231117E+03   -0.15746E-04   -0.16522E-04 10962   0.885E-05 0.102E-04
CGA:  16    -0.354056233784E+03   -0.26665E-05   -0.26550E-05 10962   0.303E-05 0.241E-05
 108 F= -.35405623E+03 E0= -.35405623E+03  d E =-.943401E-02  mag=     8.0000
       N       E                     dE             d eps       ncg     rms          ort
SDA:   1    -0.353717749030E+03    0.33848E+00    0.00000E+00 10962   0.931E+00 0.000E+00
CGA:   2    -0.353959594560E+03   -0.24185E+00   -0.24185E+00 10962   0.436E+00-0.219E-02
CGA:   3    -0.354031407170E+03   -0.71813E-01   -0.71842E-01 10962   0.165E+00 0.225E-03
CGA:   4    -0.354053780750E+03   -0.22374E-01   -0.22444E-01 10962   0.333E-01 0.558E-03
CGA:   5    -0.354058894670E+03   -0.51139E-02   -0.51329E-02 10962   0.987E-02 0.197E-03
CGA:   6    -0.354060613324E+03   -0.17187E-02   -0.17218E-02 10962   0.313E-02 0.445E-04
CGA:   7    -0.354061255808E+03   -0.64248E-03   -0.64163E-03 10962   0.126E-02-0.266E-04
CGA:   8    -0.354061567828E+03   -0.31202E-03   -0.31232E-03 10962   0.644E-03-0.221E-04
CGA:   9    -0.354061751269E+03   -0.18344E-03   -0.18531E-03 10962   0.378E-03-0.334E-04
CGA:  10    -0.354061852752E+03   -0.10148E-03   -0.10255E-03 10962   0.164E-03-0.231E-04
CGA:  11    -0.354061893552E+03   -0.40800E-04   -0.40801E-04 10962   0.574E-04-0.112E-06
CGA:  12    -0.354061910529E+03   -0.16976E-04   -0.17028E-04 10962   0.246E-04-0.988E-06
CGA:  13    -0.354061917334E+03   -0.68053E-05   -0.66645E-05 10962   0.107E-04 0.461E-05
 109 F= -.35406192E+03 E0= -.35406192E+03  d E =-.568355E-02  mag=     8.0000
       N       E                     dE             d eps       ncg     rms          ort
SDA:   1    -0.353861045718E+03    0.20086E+00    0.00000E+00 10962   0.634E+00 0.000E+00
CGA:   2    -0.353976945906E+03   -0.11590E+00   -0.11605E+00 10962   0.324E+00 0.164E-02
CGA:   3    -0.354032940426E+03   -0.55995E-01   -0.56022E-01 10962   0.136E+00 0.286E-03
CGA:   4    -0.354052566110E+03   -0.19626E-01   -0.19616E-01 10962   0.314E-01-0.141E-03
CGA:   5    -0.354057160391E+03   -0.45943E-02   -0.45759E-02 10962   0.830E-02-0.199E-03
CGA:   6    -0.354058601991E+03   -0.14416E-02   -0.14355E-02 10962   0.271E-02-0.978E-04
CGA:   7    -0.354059101519E+03   -0.49953E-03   -0.50224E-03 10962   0.877E-03 0.556E-04
CGA:   8    -0.354059290604E+03   -0.18909E-03   -0.19053E-03 10962   0.344E-03 0.718E-04
CGA:   9    -0.354059383505E+03   -0.92901E-04   -0.92273E-04 10962   0.164E-03 0.379E-04
CGA:  10    -0.354059431923E+03   -0.48418E-04   -0.47730E-04 10962   0.748E-04 0.227E-04
CGA:  11    -0.354059458552E+03   -0.26629E-04   -0.26821E-04 10962   0.398E-04-0.241E-05
CGA:  12    -0.354059469923E+03   -0.11371E-04   -0.11439E-04 10962   0.176E-04-0.118E-05
CGA:  13    -0.354059473196E+03   -0.32724E-05   -0.34766E-05 10962   0.641E-05 0.543E-05
 110 F= -.35405947E+03 E0= -.35405947E+03  d E =0.244414E-02  mag=     8.0000
       N       E                     dE             d eps       ncg     rms          ort
SDA:   1    -0.353928524384E+03    0.13095E+00    0.00000E+00 10962   0.350E+00 0.000E+00
CGA:   2    -0.354017319603E+03   -0.88795E-01   -0.88766E-01 10962   0.174E+00 0.167E-02
CGA:   3    -0.354045688678E+03   -0.28369E-01   -0.28364E-01 10962   0.641E-01-0.947E-04
CGA:   4    -0.354054640223E+03   -0.89515E-02   -0.89302E-02 10962   0.133E-01-0.245E-03
CGA:   5    -0.354056682268E+03   -0.20420E-02   -0.20309E-02 10962   0.396E-02-0.148E-03
CGA:   6    -0.354057383819E+03   -0.70155E-03   -0.69809E-03 10962   0.128E-02-0.729E-04
CGA:   7    -0.354057620529E+03   -0.23671E-03   -0.23820E-03 10962   0.468E-03 0.436E-04
CGA:   8    -0.354057733947E+03   -0.11342E-03   -0.11308E-03 10962   0.215E-03 0.283E-04
CGA:   9    -0.354057796787E+03   -0.62840E-04   -0.62094E-04 10962   0.117E-03 0.150E-04
CGA:  10    -0.354057829161E+03   -0.32375E-04   -0.31901E-04 10962   0.472E-04 0.160E-04
CGA:  11    -0.354057847531E+03   -0.18370E-04   -0.21462E-04 10962   0.412E-04-0.179E-04
CGA:  12    -0.354057852439E+03   -0.49079E-05   -0.49858E-05 10962   0.201E-04 0.191E-05
 111 F= -.35405785E+03 E0= -.35405785E+03  d E =0.162076E-02  mag=     8.0000
       N       E                     dE             d eps       ncg     rms          ort
SDA:   1    -0.353975811617E+03    0.82036E-01    0.00000E+00 10962   0.259E+00 0.000E+00
CGA:   2    -0.354022053945E+03   -0.46242E-01   -0.46271E-01 10962   0.142E+00 0.409E-03
CGA:   3    -0.354047232664E+03   -0.25179E-01   -0.25179E-01 10962   0.589E-01-0.540E-04
CGA:   4    -0.354055433386E+03   -0.82007E-02   -0.81922E-02 10962   0.127E-01-0.118E-03
CGA:   5    -0.354057274497E+03   -0.18411E-02   -0.18504E-02 10962   0.350E-02 0.120E-03
CGA:   6    -0.354057879603E+03   -0.60511E-03   -0.60699E-03 10962   0.109E-02 0.406E-04
CGA:   7    -0.354058094929E+03   -0.21533E-03   -0.21511E-03 10962   0.356E-03-0.109E-04
CGA:   8    -0.354058162707E+03   -0.67777E-04   -0.68534E-04 10962   0.120E-03 0.388E-04
CGA:   9    -0.354058190680E+03   -0.27974E-04   -0.28028E-04 10962   0.448E-04 0.248E-04
CGA:  10    -0.354058203679E+03   -0.12998E-04   -0.12766E-04 10962   0.191E-04 0.100E-04
CGA:  11    -0.354058207911E+03   -0.42321E-05   -0.44380E-05 10962   0.752E-05 0.868E-05
 112 F= -.35405821E+03 E0= -.35405821E+03  d E =-.355472E-03  mag=     8.0000
       N       E                     dE             d eps       ncg     rms          ort
SDA:   1    -0.354012967443E+03    0.45236E-01    0.00000E+00 10962   0.133E+00 0.000E+00
CGA:   2    -0.354044828620E+03   -0.31861E-01   -0.31885E-01 10962   0.652E-01-0.109E-02
CGA:   3    -0.354055384767E+03   -0.10556E-01   -0.10558E-01 10962   0.253E-01 0.235E-04
CGA:   4    -0.354058931157E+03   -0.35464E-02   -0.35604E-02 10962   0.540E-02 0.183E-03
CGA:   5    -0.354059740273E+03   -0.80912E-03   -0.81374E-03 10962   0.154E-02 0.740E-04
CGA:   6    -0.354060006050E+03   -0.26578E-03   -0.26718E-03 10962   0.486E-03 0.382E-04
CGA:   7    -0.354060113886E+03   -0.10784E-03   -0.10811E-03 10962   0.217E-03-0.251E-04
CGA:   8    -0.354060167665E+03   -0.53779E-04   -0.55489E-04 10962   0.127E-03-0.273E-04
CGA:   9    -0.354060197508E+03   -0.29843E-04   -0.30620E-04 10962   0.672E-04-0.117E-04
CGA:  10    -0.354060215037E+03   -0.17529E-04   -0.18655E-04 10962   0.323E-04-0.121E-04
CGA:  11    -0.354060221057E+03   -0.60203E-05   -0.60036E-05 10962   0.104E-04 0.173E-05
 113 F= -.35406022E+03 E0= -.35406022E+03  d E =-.201315E-02  mag=     8.0000
