       N       E                     dE             d eps       ncg     rms          ort
DAV:   1     0.240914684630E+04    0.24091E+04   -0.14183E+05  6048   0.152E+03
DAV:   2    -0.222828001504E+03   -0.26320E+04   -0.25365E+04  6048   0.409E+02
DAV:   3    -0.457044312625E+03   -0.23422E+03   -0.22778E+03  6048   0.139E+02
DAV:   4    -0.467224878939E+03   -0.10181E+02   -0.99445E+01  6048   0.316E+01
DAV:   5    -0.467782403715E+03   -0.55752E+00   -0.55253E+00  6048   0.488E+00
SDA:   6    -0.310106020085E+03    0.15768E+03   -0.55253E+00  6048   0.341E+03 0.000E+00
CGA:   7    -0.355769159730E+03   -0.45663E+02   -0.48980E+02  6048   0.410E+02 0.143E+02
CGA:   8    -0.364552688285E+03   -0.87835E+01   -0.87874E+01  6048   0.107E+02-0.246E+00
CGA:   9    -0.367401337644E+03   -0.28486E+01   -0.28442E+01  6048   0.330E+01 0.476E-01
CGA:  10    -0.368291300681E+03   -0.88996E+00   -0.89077E+00  6048   0.114E+01-0.172E-01
CGA:  11    -0.368596999773E+03   -0.30570E+00   -0.30692E+00  6048   0.367E+00-0.178E-01
CGA:  12    -0.368702444138E+03   -0.10544E+00   -0.10561E+00  6048   0.963E-01-0.201E-02
CGA:  13    -0.368731057462E+03   -0.28613E-01   -0.28522E-01  6048   0.302E-01 0.105E-02
CGA:  14    -0.368741307808E+03   -0.10250E-01   -0.10196E-01  6048   0.102E-01 0.460E-03
CGA:  15    -0.368744964566E+03   -0.36568E-02   -0.35875E-02  6048   0.394E-02 0.551E-03
CGA:  16    -0.368746450089E+03   -0.14855E-02   -0.14457E-02  6048   0.143E-02 0.329E-03
CGA:  17    -0.368747112110E+03   -0.66202E-03   -0.67468E-03  6048   0.713E-03-0.641E-04
CGA:  18    -0.368747250676E+03   -0.13857E-03   -0.54583E-03  6048   0.153E-02-0.733E-03
CGA:  19    -0.368747525482E+03   -0.27481E-03   -0.29644E-03  6048   0.235E-03 0.274E-03
CGA:  20    -0.368747584964E+03   -0.59482E-04   -0.62584E-04  6048   0.668E-04 0.737E-04
CGA:  21    -0.368747609252E+03   -0.24288E-04   -0.24065E-04  6048   0.345E-04 0.285E-04
CGA:  22    -0.368747615940E+03   -0.66880E-05   -0.87809E-05  6048   0.140E-04 0.238E-04
   1 F= -.36874762E+03 E0= -.36874762E+03  d E =-.368748E+03  mag=    12.0000
       N       E                     dE             d eps       ncg     rms          ort
SDA:   1    -0.368749694285E+03   -0.20850E-02    0.00000E+00  6048   0.545E-03 0.000E+00
CGA:   2    -0.368749859735E+03   -0.16545E-03   -0.16886E-03  6048   0.276E-03-0.777E-04
CGA:   3    -0.368749910066E+03   -0.50331E-04   -0.49290E-04  6048   0.702E-04-0.176E-04
CGA:   4    -0.368749918256E+03   -0.81903E-05   -0.99094E-05  6048   0.134E-04 0.150E-04
   2 F= -.36874992E+03 E0= -.36874992E+03  d E =-.230232E-02  mag=    12.0000
       N       E                     dE             d eps       ncg     rms          ort
SDA:   1    -0.368495454660E+03    0.25446E+00    0.00000E+00  6048   0.864E+00 0.000E+00
CGA:   2    -0.368730049804E+03   -0.23460E+00   -0.23464E+00  6048   0.316E+00-0.255E-02
CGA:   3    -0.368798637342E+03   -0.68588E-01   -0.68601E-01  6048   0.818E-01 0.121E-03
CGA:   4    -0.368815103951E+03   -0.16467E-01   -0.16514E-01  6048   0.145E-01 0.919E-03
CGA:   5    -0.368818753689E+03   -0.36497E-02   -0.36497E-02  6048   0.403E-02 0.291E-03
CGA:   6    -0.368820062030E+03   -0.13083E-02   -0.13273E-02  6048   0.185E-02-0.257E-03
CGA:   7    -0.368820641606E+03   -0.57958E-03   -0.61083E-03  6048   0.934E-03-0.311E-03
CGA:   8    -0.368820870639E+03   -0.22903E-03   -0.22861E-03  6048   0.261E-03 0.113E-04
CGA:   9    -0.368820931543E+03   -0.60904E-04   -0.62399E-04  6048   0.789E-04 0.634E-04
CGA:  10    -0.368820953592E+03   -0.22049E-04   -0.22799E-04  6048   0.295E-04 0.292E-04
CGA:  11    -0.368820964071E+03   -0.10479E-04   -0.10454E-04  6048   0.136E-04 0.118E-04
CGA:  12    -0.368820968483E+03   -0.44120E-05   -0.45439E-05  6048   0.671E-05 0.739E-05
   3 F= -.36882097E+03 E0= -.36882097E+03  d E =-.710502E-01  mag=    12.0000
       N       E                     dE             d eps       ncg     rms          ort
SDA:   1    -0.367678268213E+03    0.11427E+01    0.00000E+00  6048   0.346E+01 0.000E+00
CGA:   2    -0.368555018929E+03   -0.87675E+00   -0.87675E+00  6048   0.122E+01-0.604E-02
CGA:   3    -0.368823498671E+03   -0.26848E+00   -0.26854E+00  6048   0.312E+00 0.814E-03
CGA:   4    -0.368885743964E+03   -0.62245E-01   -0.62353E-01  6048   0.538E-01 0.191E-02
CGA:   5    -0.368899100674E+03   -0.13357E-01   -0.13358E-01  6048   0.147E-01 0.268E-03
CGA:   6    -0.368903675894E+03   -0.45752E-02   -0.46014E-02  6048   0.674E-02-0.419E-03
CGA:   7    -0.368905907282E+03   -0.22314E-02   -0.22663E-02  6048   0.335E-02-0.377E-03
CGA:   8    -0.368906955868E+03   -0.10486E-02   -0.10447E-02  6048   0.113E-02 0.528E-04
CGA:   9    -0.368907305651E+03   -0.34978E-03   -0.34641E-03  6048   0.338E-03 0.857E-04
CGA:  10    -0.368907430682E+03   -0.12503E-03   -0.12408E-03  6048   0.127E-03 0.123E-04
CGA:  11    -0.368907481881E+03   -0.51199E-04   -0.50046E-04  6048   0.529E-04 0.101E-04
CGA:  12    -0.368907499361E+03   -0.17480E-04   -0.17087E-04  6048   0.179E-04 0.149E-04
CGA:  13    -0.368907505494E+03   -0.61332E-05   -0.61688E-05  6048   0.626E-05 0.721E-05
   4 F= -.36890751E+03 E0= -.36890751E+03  d E =-.865370E-01  mag=    12.0000
       N       E                     dE             d eps       ncg     rms          ort
SDA:   1    -0.368110901988E+03    0.79660E+00    0.00000E+00  6048   0.243E+01 0.000E+00
CGA:   2    -0.368723192571E+03   -0.61229E+00   -0.61224E+00  6048   0.817E+00-0.270E-02
CGA:   3    -0.368907481135E+03   -0.18429E+00   -0.18438E+00  6048   0.202E+00 0.115E-02
CGA:   4    -0.368946897731E+03   -0.39417E-01   -0.39458E-01  6048   0.363E-01 0.341E-03
CGA:   5    -0.368955873617E+03   -0.89759E-02   -0.89697E-02  6048   0.988E-02-0.198E-03
CGA:   6    -0.368958937377E+03   -0.30638E-02   -0.30622E-02  6048   0.469E-02 0.446E-04
CGA:   7    -0.368960568884E+03   -0.16315E-02   -0.16252E-02  6048   0.240E-02 0.951E-04
CGA:   8    -0.368961443780E+03   -0.87490E-03   -0.87214E-03  6048   0.934E-03 0.360E-04
CGA:   9    -0.368961758686E+03   -0.31491E-03   -0.31598E-03  6048   0.294E-03-0.232E-04
CGA:  10    -0.368961858862E+03   -0.10018E-03   -0.10143E-03  6048   0.106E-03-0.192E-04
CGA:  11    -0.368961898369E+03   -0.39507E-04   -0.40141E-04  6048   0.422E-04-0.553E-05
CGA:  12    -0.368961915164E+03   -0.16795E-04   -0.17680E-04  6048   0.177E-04-0.617E-05
CGA:  13    -0.368961919614E+03   -0.44491E-05   -0.44644E-05  6048   0.481E-05 0.157E-05
   5 F= -.36896192E+03 E0= -.36896192E+03  d E =-.544141E-01  mag=    12.0000
       N       E                     dE             d eps       ncg     rms          ort
SDA:   1    -0.366719143814E+03    0.22428E+01    0.00000E+00  6048   0.657E+01 0.000E+00
CGA:   2    -0.368366092969E+03   -0.16469E+01   -0.16472E+01  6048   0.224E+01-0.268E-02
CGA:   3    -0.368867102446E+03   -0.50101E+00   -0.50126E+00  6048   0.547E+00 0.189E-02
CGA:   4    -0.368972963822E+03   -0.10586E+00   -0.10594E+00  6048   0.973E-01 0.239E-03
CGA:   5    -0.368996767078E+03   -0.23803E-01   -0.23787E-01  6048   0.263E-01-0.361E-03
CGA:   6    -0.369004827218E+03   -0.80601E-02   -0.80590E-02  6048   0.126E-01 0.868E-04
CGA:   7    -0.369009258833E+03   -0.44316E-02   -0.44223E-02  6048   0.680E-02 0.169E-03
CGA:   8    -0.369011764097E+03   -0.25053E-02   -0.25036E-02  6048   0.281E-02 0.202E-04
CGA:   9    -0.369012690027E+03   -0.92593E-03   -0.92780E-03  6048   0.855E-03-0.692E-04
CGA:  10    -0.369012971591E+03   -0.28156E-03   -0.28273E-03  6048   0.276E-03-0.324E-04
CGA:  11    -0.369013075209E+03   -0.10362E-03   -0.10404E-03  6048   0.107E-03-0.495E-05
CGA:  12    -0.369013118594E+03   -0.43385E-04   -0.44249E-04  6048   0.429E-04-0.769E-05
CGA:  13    -0.369013128946E+03   -0.10352E-04   -0.10745E-04  6048   0.120E-04 0.876E-05
CGA:  14    -0.369013134204E+03   -0.52583E-05   -0.53652E-05  6048   0.523E-05-0.179E-05
   6 F= -.36901313E+03 E0= -.36901313E+03  d E =-.512146E-01  mag=    12.0000
       N       E                     dE             d eps       ncg     rms          ort
SDA:   1    -0.366715851281E+03    0.22973E+01    0.00000E+00  6048   0.623E+01 0.000E+00
CGA:   2    -0.368417601284E+03   -0.17018E+01   -0.17019E+01  6048   0.228E+01-0.198E-02
CGA:   3    -0.368909866205E+03   -0.49226E+00   -0.49262E+00  6048   0.502E+00 0.186E-02
CGA:   4    -0.369005468693E+03   -0.95602E-01   -0.95656E-01  6048   0.880E-01-0.166E-04
CGA:   5    -0.369026947095E+03   -0.21478E-01   -0.21471E-01  6048   0.230E-01-0.153E-03
CGA:   6    -0.369033745343E+03   -0.67982E-02   -0.67993E-02  6048   0.102E-01 0.752E-04
CGA:   7    -0.369037303166E+03   -0.35578E-02   -0.35549E-02  6048   0.549E-02 0.709E-04
CGA:   8    -0.369039346803E+03   -0.20436E-02   -0.20420E-02  6048   0.235E-02 0.253E-04
CGA:   9    -0.369040132656E+03   -0.78585E-03   -0.78670E-03  6048   0.733E-03-0.454E-04
CGA:  10    -0.369040378470E+03   -0.24581E-03   -0.24654E-03  6048   0.245E-03-0.254E-04
CGA:  11    -0.369040470468E+03   -0.91998E-04   -0.91995E-04  6048   0.964E-04-0.100E-07
CGA:  12    -0.369040509042E+03   -0.38574E-04   -0.38527E-04  6048   0.367E-04 0.562E-06
CGA:  13    -0.369040519363E+03   -0.10320E-04   -0.10599E-04  6048   0.104E-04 0.767E-05
CGA:  14    -0.369040523765E+03   -0.44023E-05   -0.43984E-05  6048   0.388E-05 0.136E-06
   7 F= -.36904052E+03 E0= -.36904052E+03  d E =-.273896E-01  mag=    12.0000
       N       E                     dE             d eps       ncg     rms          ort
SDA:   1    -0.368841369253E+03    0.19915E+00    0.00000E+00  6048   0.521E+00 0.000E+00
CGA:   2    -0.368994850604E+03   -0.15348E+00   -0.15346E+00  6048   0.226E+00-0.910E-03
CGA:   3    -0.369038162185E+03   -0.43312E-01   -0.43417E-01  6048   0.428E-01 0.538E-03
CGA:   4    -0.369046786189E+03   -0.86240E-02   -0.86528E-02  6048   0.762E-02 0.221E-03
CGA:   5    -0.369048716473E+03   -0.19303E-02   -0.19271E-02  6048   0.193E-02-0.512E-04
CGA:   6    -0.369049245556E+03   -0.52908E-03   -0.52792E-03  6048   0.673E-03-0.316E-04
CGA:   7    -0.369049443259E+03   -0.19770E-03   -0.19798E-03  6048   0.248E-03 0.224E-04
CGA:   8    -0.369049533272E+03   -0.90013E-04   -0.89786E-04  6048   0.929E-04 0.570E-05
CGA:   9    -0.369049567732E+03   -0.34460E-04   -0.34874E-04  6048   0.348E-04-0.773E-05
CGA:  10    -0.369049577769E+03   -0.10037E-04   -0.10039E-04  6048   0.106E-04 0.142E-05
CGA:  11    -0.369049581919E+03   -0.41500E-05   -0.41250E-05  6048   0.530E-05 0.420E-06
   8 F= -.36904958E+03 E0= -.36904958E+03  d E =-.905815E-02  mag=    12.0000
       N       E                     dE             d eps       ncg     rms          ort
SDA:   1    -0.368857162036E+03    0.19242E+00    0.00000E+00  6048   0.500E+00 0.000E+00
CGA:   2    -0.369013058262E+03   -0.15590E+00   -0.15588E+00  6048   0.199E+00-0.127E-02
CGA:   3    -0.369050539025E+03   -0.37481E-01   -0.37613E-01  6048   0.358E-01 0.813E-03
CGA:   4    -0.369057637446E+03   -0.70984E-02   -0.71184E-02  6048   0.636E-02 0.147E-03
CGA:   5    -0.369059219054E+03   -0.15816E-02   -0.15751E-02  6048   0.142E-02-0.103E-03
CGA:   6    -0.369059585597E+03   -0.36654E-03   -0.36635E-03  6048   0.453E-03-0.493E-05
CGA:   7    -0.369059715809E+03   -0.13021E-03   -0.13073E-03  6048   0.168E-03 0.314E-04
CGA:   8    -0.369059785297E+03   -0.69488E-04   -0.69704E-04  6048   0.806E-04-0.262E-05
CGA:   9    -0.369059814690E+03   -0.29392E-04   -0.30016E-04  6048   0.313E-04-0.904E-05
CGA:  10    -0.369059823278E+03   -0.85883E-05   -0.85909E-05  6048   0.921E-05 0.852E-06
   9 F= -.36905982E+03 E0= -.36905982E+03  d E =-.102414E-01  mag=    12.0000
       N       E                     dE             d eps       ncg     rms          ort
SDA:   1    -0.367568469513E+03    0.14913E+01    0.00000E+00  6048   0.374E+01 0.000E+00
CGA:   2    -0.368730960510E+03   -0.11625E+01   -0.11625E+01  6048   0.141E+01-0.251E-02
CGA:   3    -0.369010460968E+03   -0.27950E+00   -0.27989E+00  6048   0.255E+00 0.233E-02
CGA:   4    -0.369059534948E+03   -0.49074E-01   -0.49082E-01  6048   0.466E-01-0.999E-04
CGA:   5    -0.369070848677E+03   -0.11314E-01   -0.11301E-01  6048   0.101E-01-0.227E-03
CGA:   6    -0.369073537513E+03   -0.26888E-02   -0.26904E-02  6048   0.343E-02 0.420E-04
CGA:   7    -0.369074636600E+03   -0.10991E-02   -0.10982E-02  6048   0.159E-02 0.432E-04
CGA:   8    -0.369075260264E+03   -0.62366E-03   -0.62592E-03  6048   0.754E-03-0.254E-04
CGA:   9    -0.369075525470E+03   -0.26521E-03   -0.26707E-03  6048   0.267E-03-0.339E-04
CGA:  10    -0.369075614739E+03   -0.89269E-04   -0.89751E-04  6048   0.947E-04-0.107E-04
CGA:  11    -0.369075653143E+03   -0.38404E-04   -0.38871E-04  6048   0.471E-04-0.398E-05
CGA:  12    -0.369075672516E+03   -0.19373E-04   -0.19191E-04  6048   0.208E-04 0.164E-05
CGA:  13    -0.369075678601E+03   -0.60850E-05   -0.62363E-05  6048   0.672E-05 0.493E-05
  10 F= -.36907568E+03 E0= -.36907568E+03  d E =-.158553E-01  mag=    12.0000
       N       E                     dE             d eps       ncg     rms          ort
SDA:   1    -0.362164205624E+03    0.69115E+01    0.00000E+00  6048   0.171E+02 0.000E+00
CGA:   2    -0.367392572147E+03   -0.52284E+01   -0.52289E+01  6048   0.618E+01 0.138E-01
CGA:   3    -0.368694031119E+03   -0.13015E+01   -0.13023E+01  6048   0.119E+01 0.188E-02
CGA:   4    -0.368923804927E+03   -0.22977E+00   -0.22977E+00  6048   0.239E+00-0.593E-03
CGA:   5    -0.368981415656E+03   -0.57611E-01   -0.57618E-01  6048   0.561E-01 0.143E-04
CGA:   6    -0.368997577018E+03   -0.16161E-01   -0.16162E-01  6048   0.217E-01-0.207E-04
CGA:   7    -0.369004507669E+03   -0.69307E-02   -0.69323E-02  6048   0.986E-02-0.123E-03
CGA:   8    -0.369008016212E+03   -0.35085E-02   -0.35139E-02  6048   0.388E-02-0.106E-03
CGA:   9    -0.369009322920E+03   -0.13067E-02   -0.13098E-02  6048   0.129E-02-0.967E-04
CGA:  10    -0.369009777890E+03   -0.45497E-03   -0.45890E-03  6048   0.523E-03-0.742E-04
CGA:  11    -0.369009974138E+03   -0.19625E-03   -0.19588E-03  6048   0.247E-03 0.404E-05
CGA:  12    -0.369010065807E+03   -0.91668E-04   -0.90669E-04  6048   0.108E-03 0.213E-04
CGA:  13    -0.369010105826E+03   -0.40020E-04   -0.39823E-04  6048   0.373E-04 0.106E-04
CGA:  14    -0.369010120068E+03   -0.14242E-04   -0.14138E-04  6048   0.115E-04 0.411E-05
CGA:  15    -0.369010126140E+03   -0.60713E-05   -0.65842E-05  6048   0.717E-05-0.266E-05
  11 F= -.36901013E+03 E0= -.36901013E+03  d E =0.655525E-01  mag=    12.0000
       N       E                     dE             d eps       ncg     rms          ort
SDA:   1    -0.368316288798E+03    0.69383E+00    0.00000E+00  6048   0.184E+01 0.000E+00
CGA:   2    -0.368930219473E+03   -0.61393E+00   -0.61394E+00  6048   0.558E+00-0.938E-03
CGA:   3    -0.369058866642E+03   -0.12865E+00   -0.12871E+00  6048   0.134E+00 0.210E-03
CGA:   4    -0.369086688750E+03   -0.27822E-01   -0.27818E-01  6048   0.323E-01-0.112E-03
CGA:   5    -0.369094769628E+03   -0.80809E-02   -0.80788E-02  6048   0.920E-02-0.299E-04
CGA:   6    -0.369097684679E+03   -0.29151E-02   -0.29151E-02  6048   0.344E-02-0.632E-05
CGA:   7    -0.369098733104E+03   -0.10484E-02   -0.10482E-02  6048   0.134E-02-0.235E-04
CGA:   8    -0.369099155717E+03   -0.42261E-03   -0.42267E-03  6048   0.398E-03-0.203E-04
CGA:   9    -0.369099287730E+03   -0.13201E-03   -0.13222E-03  6048   0.126E-03-0.927E-05
CGA:  10    -0.369099326396E+03   -0.38666E-04   -0.38673E-04  6048   0.421E-04 0.505E-05
CGA:  11    -0.369099345183E+03   -0.18787E-04   -0.19659E-04  6048   0.281E-04-0.656E-05
CGA:  12    -0.369099354041E+03   -0.88580E-05   -0.88722E-05  6048   0.131E-04-0.274E-06
  12 F= -.36909935E+03 E0= -.36909935E+03  d E =-.892279E-01  mag=    12.0000
       N       E                     dE             d eps       ncg     rms          ort
SDA:   1    -0.369092651436E+03    0.66937E-02    0.00000E+00  6048   0.268E-01 0.000E+00
CGA:   2    -0.369100286105E+03   -0.76347E-02   -0.76401E-02  6048   0.118E-01 0.115E-03
CGA:   3    -0.369102589004E+03   -0.23029E-02   -0.23044E-02  6048   0.243E-02-0.204E-05
CGA:   4    -0.369103124504E+03   -0.53550E-03   -0.52834E-03  6048   0.493E-03-0.720E-04
CGA:   5    -0.369103239848E+03   -0.11534E-03   -0.11469E-03  6048   0.129E-03-0.902E-05
CGA:   6    -0.369103268504E+03   -0.28656E-04   -0.30002E-04  6048   0.383E-04 0.184E-04
CGA:   7    -0.369103277730E+03   -0.92259E-05   -0.10191E-04  6048   0.136E-04 0.131E-04
  13 F= -.36910328E+03 E0= -.36910328E+03  d E =-.392369E-02  mag=    12.0000
       N       E                     dE             d eps       ncg     rms          ort
SDA:   1    -0.369052562119E+03    0.50706E-01    0.00000E+00  6048   0.150E+00 0.000E+00
CGA:   2    -0.369092061146E+03   -0.39499E-01   -0.39515E-01  6048   0.715E-01 0.259E-03
CGA:   3    -0.369106118716E+03   -0.14058E-01   -0.14069E-01  6048   0.136E-01 0.255E-04
CGA:   4    -0.369109000587E+03   -0.28819E-02   -0.28677E-02  6048   0.258E-02-0.169E-03
CGA:   5    -0.369109606133E+03   -0.60555E-03   -0.60464E-03  6048   0.652E-03-0.172E-04
CGA:   6    -0.369109765954E+03   -0.15982E-03   -0.16201E-03  6048   0.206E-03 0.538E-04
CGA:   7    -0.369109827289E+03   -0.61335E-04   -0.61813E-04  6048   0.751E-04 0.397E-04
CGA:   8    -0.369109863265E+03   -0.35976E-04   -0.36663E-04  6048   0.456E-04-0.569E-05
CGA:   9    -0.369109877094E+03   -0.13829E-04   -0.14003E-04  6048   0.164E-04-0.455E-05
CGA:  10    -0.369109880113E+03   -0.30190E-05   -0.32972E-05  6048   0.558E-05 0.379E-05
  14 F= -.36910988E+03 E0= -.36910988E+03  d E =-.660238E-02  mag=    12.0000
       N       E                     dE             d eps       ncg     rms          ort
SDA:   1    -0.369107403478E+03    0.24736E-02    0.00000E+00  6048   0.120E-01 0.000E+00
CGA:   2    -0.369110319095E+03   -0.29156E-02   -0.29168E-02  6048   0.558E-02 0.142E-04
CGA:   3    -0.369111484853E+03   -0.11658E-02   -0.11679E-02  6048   0.113E-02 0.217E-04
CGA:   4    -0.369111713044E+03   -0.22819E-03   -0.22700E-03  6048   0.195E-03-0.148E-04
CGA:   5    -0.369111757240E+03   -0.44196E-04   -0.44441E-04  6048   0.472E-04 0.497E-05
CGA:   6    -0.369111766608E+03   -0.93680E-05   -0.10145E-04  6048   0.141E-04 0.116E-04
  15 F= -.36911177E+03 E0= -.36911177E+03  d E =-.188649E-02  mag=    12.0000
       N       E                     dE             d eps       ncg     rms          ort
SDA:   1    -0.369042082245E+03    0.69675E-01    0.00000E+00  6048   0.210E+00 0.000E+00
CGA:   2    -0.369093012095E+03   -0.50930E-01   -0.50938E-01  6048   0.958E-01 0.978E-04
CGA:   3    -0.369112890040E+03   -0.19878E-01   -0.19889E-01  6048   0.192E-01 0.755E-04
CGA:   4    -0.369116737539E+03   -0.38475E-02   -0.38439E-02  6048   0.328E-02-0.647E-04
CGA:   5    -0.369117506343E+03   -0.76880E-03   -0.76960E-03  6048   0.802E-03 0.288E-04
CGA:   6    -0.369117709809E+03   -0.20347E-03   -0.20390E-03  6048   0.262E-03 0.522E-04
CGA:   7    -0.369117796568E+03   -0.86759E-04   -0.85191E-04  6048   0.112E-03 0.351E-04
CGA:   8    -0.369117846879E+03   -0.50311E-04   -0.50306E-04  6048   0.622E-04-0.107E-07
CGA:   9    -0.369117868802E+03   -0.21923E-04   -0.22163E-04  6048   0.242E-04-0.282E-05
CGA:  10    -0.369117875208E+03   -0.64061E-05   -0.63921E-05  6048   0.786E-05 0.414E-05
  16 F= -.36911788E+03 E0= -.36911788E+03  d E =-.610860E-02  mag=    12.0000
       N       E                     dE             d eps       ncg     rms          ort
SDA:   1    -0.369058197429E+03    0.59671E-01    0.00000E+00  6048   0.181E+00 0.000E+00
CGA:   2    -0.369102800941E+03   -0.44604E-01   -0.44605E-01  6048   0.746E-01-0.134E-03
CGA:   3    -0.369118629738E+03   -0.15829E-01   -0.15837E-01  6048   0.163E-01 0.663E-04
CGA:   4    -0.369121751547E+03   -0.31218E-02   -0.31265E-02  6048   0.266E-02 0.481E-04
CGA:   5    -0.369122382652E+03   -0.63110E-03   -0.63282E-03  6048   0.635E-03 0.554E-04
CGA:   6    -0.369122554013E+03   -0.17136E-03   -0.17141E-03  6048   0.233E-03 0.263E-04
CGA:   7    -0.369122636054E+03   -0.82041E-04   -0.81199E-04  6048   0.115E-03 0.123E-04
CGA:   8    -0.369122682984E+03   -0.46931E-04   -0.46540E-04  6048   0.564E-04 0.337E-05
CGA:   9    -0.369122703406E+03   -0.20421E-04   -0.20404E-04  6048   0.208E-04 0.172E-06
CGA:  10    -0.369122710598E+03   -0.71923E-05   -0.71529E-05  6048   0.749E-05 0.610E-06
  17 F= -.36912271E+03 E0= -.36912271E+03  d E =-.483539E-02  mag=    12.0000
       N       E                     dE             d eps       ncg     rms          ort
SDA:   1    -0.368902413255E+03    0.22029E+00    0.00000E+00  6048   0.623E+00 0.000E+00
CGA:   2    -0.369064843684E+03   -0.16243E+00   -0.16245E+00  6048   0.245E+00 0.233E-03
CGA:   3    -0.369117174703E+03   -0.52331E-01   -0.52353E-01  6048   0.520E-01 0.104E-03
CGA:   4    -0.369126920682E+03   -0.97460E-02   -0.97484E-02  6048   0.866E-02-0.143E-04
CGA:   5    -0.369128998479E+03   -0.20778E-02   -0.20807E-02  6048   0.200E-02 0.758E-04
CGA:   6    -0.369129537004E+03   -0.53852E-03   -0.53900E-03  6048   0.744E-03 0.559E-04
CGA:   7    -0.369129793803E+03   -0.25680E-03   -0.25525E-03  6048   0.378E-03 0.263E-04
CGA:   8    -0.369129947661E+03   -0.15386E-03   -0.15333E-03  6048   0.189E-03 0.443E-05
CGA:   9    -0.369130015223E+03   -0.67562E-04   -0.67807E-04  6048   0.681E-04-0.360E-05
CGA:  10    -0.369130038837E+03   -0.23614E-04   -0.23761E-04  6048   0.252E-04-0.215E-05
CGA:  11    -0.369130048615E+03   -0.97772E-05   -0.98132E-05  6048   0.112E-04-0.334E-06
CGA:  12    -0.369130049023E+03   -0.40828E-06   -0.10782E-04  6048   0.387E-04-0.153E-04
  18 F= -.36913005E+03 E0= -.36913005E+03  d E =-.733842E-02  mag=    12.0000
       N       E                     dE             d eps       ncg     rms          ort
SDA:   1    -0.367531290230E+03    0.15988E+01    0.00000E+00  6048   0.432E+01 0.000E+00
CGA:   2    -0.368704446350E+03   -0.11732E+01   -0.11737E+01  6048   0.168E+01 0.471E-02
CGA:   3    -0.369059142073E+03   -0.35470E+00   -0.35482E+00  6048   0.339E+00-0.371E-03
CGA:   4    -0.369122497651E+03   -0.63356E-01   -0.63304E-01  6048   0.584E-01-0.720E-03
CGA:   5    -0.369136531379E+03   -0.14034E-01   -0.14040E-01  6048   0.131E-01 0.855E-04
CGA:   6    -0.369140021415E+03   -0.34900E-02   -0.34974E-02  6048   0.470E-02 0.177E-03
CGA:   7    -0.369141593181E+03   -0.15718E-02   -0.15701E-02  6048   0.233E-02 0.655E-04
CGA:   8    -0.369142523825E+03   -0.93064E-03   -0.93227E-03  6048   0.116E-02-0.195E-04
CGA:   9    -0.369142933033E+03   -0.40921E-03   -0.41074E-03  6048   0.418E-03-0.329E-04
CGA:  10    -0.369143076976E+03   -0.14394E-03   -0.14446E-03  6048   0.155E-03-0.120E-04
CGA:  11    -0.369143138866E+03   -0.61890E-04   -0.62081E-04  6048   0.727E-04-0.206E-05
CGA:  12    -0.369143172718E+03   -0.33852E-04   -0.37018E-04  6048   0.458E-04-0.162E-04
CGA:  13    -0.369143183330E+03   -0.10612E-04   -0.10670E-04  6048   0.146E-04 0.194E-05
CGA:  14    -0.369143188366E+03   -0.50356E-05   -0.50461E-05  6048   0.508E-05-0.223E-05
  19 F= -.36914319E+03 E0= -.36914319E+03  d E =-.131393E-01  mag=    12.0000
       N       E                     dE             d eps       ncg     rms          ort
SDA:   1    -0.361113303532E+03    0.80299E+01    0.00000E+00  6048   0.207E+02 0.000E+00
CGA:   2    -0.367056189283E+03   -0.59429E+01   -0.59481E+01  6048   0.830E+01 0.252E-01
CGA:   3    -0.368751910883E+03   -0.16957E+01   -0.16972E+01  6048   0.157E+01 0.102E-02
CGA:   4    -0.369045685926E+03   -0.29378E+00   -0.29362E+00  6048   0.278E+00-0.310E-02
CGA:   5    -0.369113151711E+03   -0.67466E-01   -0.67483E-01  6048   0.620E-01 0.124E-03
CGA:   6    -0.369129536316E+03   -0.16385E-01   -0.16417E-01  6048   0.216E-01 0.421E-03
CGA:   7    -0.369136578046E+03   -0.70417E-02   -0.70419E-02  6048   0.994E-02 0.234E-04
CGA:   8    -0.369140395315E+03   -0.38173E-02   -0.38281E-02  6048   0.461E-02-0.199E-03
CGA:   9    -0.369141987666E+03   -0.15924E-02   -0.15956E-02  6048   0.161E-02-0.162E-03
CGA:  10    -0.369142543456E+03   -0.55579E-03   -0.55736E-03  6048   0.627E-03-0.630E-04
CGA:  11    -0.369142801136E+03   -0.25768E-03   -0.25937E-03  6048   0.336E-03-0.180E-04
CGA:  12    -0.369142946442E+03   -0.14531E-03   -0.14744E-03  6048   0.183E-03-0.193E-04
CGA:  13    -0.369143005926E+03   -0.59484E-04   -0.59483E-04  6048   0.654E-04-0.158E-05
CGA:  14    -0.369143026540E+03   -0.20614E-04   -0.20603E-04  6048   0.182E-04-0.458E-06
CGA:  15    -0.369143034260E+03   -0.77200E-05   -0.11920E-04  6048   0.228E-04-0.132E-04
  20 F= -.36914303E+03 E0= -.36914303E+03  d E =0.154106E-03  mag=    12.0000
       N       E                     dE             d eps       ncg     rms          ort
SDA:   1    -0.368842936696E+03    0.30009E+00    0.00000E+00  6048   0.778E+00 0.000E+00
CGA:   2    -0.369078784425E+03   -0.23585E+00   -0.23587E+00  6048   0.312E+00 0.729E-04
CGA:   3    -0.369141272842E+03   -0.62488E-01   -0.62461E-01  6048   0.637E-01-0.508E-03
CGA:   4    -0.369153774913E+03   -0.12502E-01   -0.12521E-01  6048   0.117E-01 0.990E-04
CGA:   5    -0.369156697830E+03   -0.29229E-02   -0.29243E-02  6048   0.306E-02 0.144E-04
CGA:   6    -0.369157601640E+03   -0.90381E-03   -0.90152E-03  6048   0.119E-02-0.584E-04
CGA:   7    -0.369157975054E+03   -0.37341E-03   -0.37344E-03  6048   0.516E-03 0.137E-05
CGA:   8    -0.369158160050E+03   -0.18500E-03   -0.18496E-03  6048   0.204E-03 0.116E-05
CGA:   9    -0.369158235468E+03   -0.75418E-04   -0.76007E-04  6048   0.818E-04-0.153E-04
CGA:  10    -0.369158263074E+03   -0.27606E-04   -0.27743E-04  6048   0.323E-04-0.429E-05
CGA:  11    -0.369158276516E+03   -0.13442E-04   -0.14007E-04  6048   0.184E-04-0.471E-05
CGA:  12    -0.369158282851E+03   -0.63345E-05   -0.64466E-05  6048   0.778E-05-0.165E-05
  21 F= -.36915828E+03 E0= -.36915828E+03  d E =-.152486E-01  mag=    12.0000
       N       E                     dE             d eps       ncg     rms          ort
SDA:   1    -0.368967871529E+03    0.19040E+00    0.00000E+00  6048   0.510E+00 0.000E+00
CGA:   2    -0.369106431495E+03   -0.13856E+00   -0.13856E+00  6048   0.213E+00-0.427E-03
CGA:   3    -0.369150636198E+03   -0.44205E-01   -0.44235E-01  6048   0.432E-01 0.713E-05
CGA:   4    -0.369158723020E+03   -0.80868E-02   -0.81082E-02  6048   0.730E-02 0.955E-04
CGA:   5    -0.369160551066E+03   -0.18280E-02   -0.18227E-02  6048   0.180E-02-0.553E-04
CGA:   6    -0.369161058575E+03   -0.50751E-03   -0.50374E-03  6048   0.708E-03-0.622E-04
CGA:   7    -0.369161286719E+03   -0.22814E-03   -0.22796E-03  6048   0.333E-03-0.291E-04
CGA:   8    -0.369161405768E+03   -0.11905E-03   -0.11949E-03  6048   0.145E-03-0.129E-04
CGA:   9    -0.369161452522E+03   -0.46754E-04   -0.46751E-04  6048   0.479E-04-0.531E-06
CGA:  10    -0.369161468110E+03   -0.15588E-04   -0.15640E-04  6048   0.172E-04 0.380E-05
CGA:  11    -0.369161474930E+03   -0.68200E-05   -0.67516E-05  6048   0.788E-05 0.293E-05
  22 F= -.36916147E+03 E0= -.36916147E+03  d E =-.319208E-02  mag=    12.0000
       N       E                     dE             d eps       ncg     rms          ort
SDA:   1    -0.369037006996E+03    0.12446E+00    0.00000E+00  6048   0.323E+00 0.000E+00
CGA:   2    -0.369131323235E+03   -0.94316E-01   -0.94358E-01  6048   0.131E+00 0.653E-03
CGA:   3    -0.369157664732E+03   -0.26341E-01   -0.26301E-01  6048   0.240E-01-0.404E-03
CGA:   4    -0.369162192673E+03   -0.45279E-02   -0.45217E-02  6048   0.422E-02-0.657E-04
CGA:   5    -0.369163191078E+03   -0.99840E-03   -0.10012E-02  6048   0.878E-03 0.320E-04
CGA:   6    -0.369163422194E+03   -0.23112E-03   -0.23166E-03  6048   0.290E-03 0.907E-05
CGA:   7    -0.369163513331E+03   -0.91137E-04   -0.91175E-04  6048   0.125E-03 0.986E-05
CGA:   8    -0.369163563239E+03   -0.49908E-04   -0.49859E-04  6048   0.595E-04 0.660E-06
CGA:   9    -0.369163585780E+03   -0.22541E-04   -0.22906E-04  6048   0.240E-04-0.567E-05
CGA:  10    -0.369163593566E+03   -0.77855E-05   -0.78673E-05  6048   0.890E-05-0.199E-05
  23 F= -.36916359E+03 E0= -.36916359E+03  d E =-.211864E-02  mag=    12.0000
       N       E                     dE             d eps       ncg     rms          ort
SDA:   1    -0.364792220322E+03    0.43714E+01    0.00000E+00  6048   0.112E+02 0.000E+00
CGA:   2    -0.368030365592E+03   -0.32381E+01   -0.32393E+01  6048   0.460E+01 0.127E-01
CGA:   3    -0.368944575882E+03   -0.91421E+00   -0.91441E+00  6048   0.855E+00-0.307E-02
CGA:   4    -0.369108668081E+03   -0.16409E+00   -0.16397E+00  6048   0.150E+00-0.169E-02
CGA:   5    -0.369144686153E+03   -0.36018E-01   -0.36021E-01  6048   0.325E-01 0.145E-04
CGA:   6    -0.369153252036E+03   -0.85659E-02   -0.85709E-02  6048   0.109E-01 0.780E-04
CGA:   7    -0.369156770900E+03   -0.35189E-02   -0.35188E-02  6048   0.492E-02-0.183E-05
CGA:   8    -0.369158674757E+03   -0.19039E-02   -0.19148E-02  6048   0.233E-02-0.139E-03
CGA:   9    -0.369159486446E+03   -0.81169E-03   -0.81766E-03  6048   0.843E-03-0.127E-03
CGA:  10    -0.369159769837E+03   -0.28339E-03   -0.28498E-03  6048   0.312E-03-0.384E-04
CGA:  11    -0.369159898236E+03   -0.12840E-03   -0.13013E-03  6048   0.163E-03-0.148E-04
CGA:  12    -0.369159969442E+03   -0.71206E-04   -0.73015E-04  6048   0.831E-04-0.125E-04
CGA:  13    -0.369160000949E+03   -0.31507E-04   -0.32703E-04  6048   0.362E-04-0.127E-04
CGA:  14    -0.369160008378E+03   -0.74293E-05   -0.77073E-05  6048   0.107E-04 0.324E-05
  24 F= -.36916001E+03 E0= -.36916001E+03  d E =0.358519E-02  mag=    12.0000
       N       E                     dE             d eps       ncg     rms          ort
SDA:   1    -0.366682263961E+03    0.24777E+01    0.00000E+00  6048   0.623E+01 0.000E+00
CGA:   2    -0.368541017393E+03   -0.18588E+01   -0.18593E+01  6048   0.257E+01 0.577E-02
CGA:   3    -0.369046593664E+03   -0.50558E+00   -0.50556E+00  6048   0.491E+00-0.317E-02
CGA:   4    -0.369142086304E+03   -0.95493E-01   -0.95439E-01  6048   0.851E-01-0.738E-03
CGA:   5    -0.369162789515E+03   -0.20703E-01   -0.20706E-01  6048   0.203E-01 0.909E-05
CGA:   6    -0.369168333592E+03   -0.55441E-02   -0.55450E-02  6048   0.716E-02 0.810E-05
CGA:   7    -0.369170642484E+03   -0.23089E-02   -0.23087E-02  6048   0.324E-02 0.721E-04
CGA:   8    -0.369171886411E+03   -0.12439E-02   -0.12482E-02  6048   0.144E-02-0.708E-04
CGA:   9    -0.369172387322E+03   -0.50091E-03   -0.50335E-03  6048   0.507E-03-0.729E-04
CGA:  10    -0.369172550933E+03   -0.16361E-03   -0.16357E-03  6048   0.176E-03 0.244E-05
CGA:  11    -0.369172626568E+03   -0.75634E-04   -0.76258E-04  6048   0.961E-04-0.605E-05
CGA:  12    -0.369172666521E+03   -0.39953E-04   -0.40345E-04  6048   0.477E-04-0.380E-05
CGA:  13    -0.369172684667E+03   -0.18145E-04   -0.18681E-04  6048   0.216E-04-0.743E-05
CGA:  14    -0.369172688301E+03   -0.36347E-05   -0.40993E-05  6048   0.618E-05 0.406E-05
  25 F= -.36917269E+03 E0= -.36917269E+03  d E =-.126799E-01  mag=    12.0000
       N       E                     dE             d eps       ncg     rms          ort
SDA:   1    -0.367634380097E+03    0.15383E+01    0.00000E+00  6048   0.403E+01 0.000E+00
CGA:   2    -0.368759737123E+03   -0.11254E+01   -0.11255E+01  6048   0.170E+01-0.110E-02
CGA:   3    -0.369098783802E+03   -0.33905E+00   -0.33933E+00  6048   0.317E+00 0.677E-03
CGA:   4    -0.369159172293E+03   -0.60388E-01   -0.60490E-01  6048   0.537E-01 0.544E-03
CGA:   5    -0.369172165333E+03   -0.12993E-01   -0.13002E-01  6048   0.119E-01 0.107E-03
CGA:   6    -0.369175368510E+03   -0.32032E-02   -0.31926E-02  6048   0.412E-02-0.256E-03
CGA:   7    -0.369176730835E+03   -0.13623E-02   -0.13700E-02  6048   0.202E-02-0.255E-03
CGA:   8    -0.369177430899E+03   -0.70006E-03   -0.70215E-03  6048   0.865E-03-0.352E-04
CGA:   9    -0.369177716779E+03   -0.28588E-03   -0.28564E-03  6048   0.285E-03 0.106E-04
CGA:  10    -0.369177821193E+03   -0.10441E-03   -0.10473E-03  6048   0.113E-03-0.670E-05
CGA:  11    -0.369177864378E+03   -0.43185E-04   -0.42489E-04  6048   0.502E-04 0.100E-04
CGA:  12    -0.369177879274E+03   -0.14897E-04   -0.15610E-04  6048   0.195E-04 0.201E-04
CGA:  13    -0.369177886316E+03   -0.70418E-05   -0.74848E-05  6048   0.795E-05 0.970E-05
  26 F= -.36917789E+03 E0= -.36917789E+03  d E =-.519801E-02  mag=    12.0000
       N       E                     dE             d eps       ncg     rms          ort
SDA:   1    -0.369036236146E+03    0.14164E+00    0.00000E+00  6048   0.361E+00 0.000E+00
CGA:   2    -0.369139153362E+03   -0.10292E+00   -0.10290E+00  6048   0.155E+00-0.644E-03
CGA:   3    -0.369170247531E+03   -0.31094E-01   -0.31154E-01  6048   0.324E-01 0.368E-03
CGA:   4    -0.369176707676E+03   -0.64601E-02   -0.64695E-02  6048   0.580E-02 0.608E-04
CGA:   5    -0.369178161166E+03   -0.14535E-02   -0.14532E-02  6048   0.156E-02-0.687E-05
CGA:   6    -0.369178623029E+03   -0.46186E-03   -0.46173E-03  6048   0.631E-03-0.342E-04
CGA:   7    -0.369178833048E+03   -0.21002E-03   -0.21242E-03  6048   0.308E-03-0.542E-04
CGA:   8    -0.369178926334E+03   -0.93286E-04   -0.93085E-04  6048   0.103E-03 0.685E-05
CGA:   9    -0.369178957902E+03   -0.31568E-04   -0.31593E-04  6048   0.312E-04 0.107E-04
CGA:  10    -0.369178970624E+03   -0.12722E-04   -0.12756E-04  6048   0.146E-04-0.523E-06
CGA:  11    -0.369178975163E+03   -0.45394E-05   -0.45154E-05  6048   0.597E-05 0.321E-05
  27 F= -.36917898E+03 E0= -.36917898E+03  d E =-.108885E-02  mag=    12.0000
       N       E                     dE             d eps       ncg     rms          ort
SDA:   1    -0.369046588304E+03    0.13238E+00    0.00000E+00  6048   0.340E+00 0.000E+00
CGA:   2    -0.369145900017E+03   -0.99312E-01   -0.99330E-01  6048   0.144E+00 0.119E-02
CGA:   3    -0.369174398050E+03   -0.28498E-01   -0.28443E-01  6048   0.273E-01-0.650E-03
CGA:   4    -0.369179726274E+03   -0.53282E-02   -0.53047E-02  6048   0.469E-02-0.248E-03
CGA:   5    -0.369180846034E+03   -0.11198E-02   -0.11189E-02  6048   0.109E-02-0.177E-04
CGA:   6    -0.369181123847E+03   -0.27781E-03   -0.27934E-03  6048   0.345E-03 0.441E-04
CGA:   7    -0.369181229153E+03   -0.10531E-03   -0.10516E-03  6048   0.138E-03 0.434E-04
CGA:   8    -0.369181293370E+03   -0.64217E-04   -0.64795E-04  6048   0.793E-04-0.466E-05
CGA:   9    -0.369181321820E+03   -0.28450E-04   -0.29392E-04  6048   0.327E-04-0.108E-04
CGA:  10    -0.369181329588E+03   -0.77683E-05   -0.78426E-05  6048   0.101E-04 0.325E-05
  28 F= -.36918133E+03 E0= -.36918133E+03  d E =-.235442E-02  mag=    12.0000
       N       E                     dE             d eps       ncg     rms          ort
SDA:   1    -0.369046427666E+03    0.13489E+00    0.00000E+00  6048   0.349E+00 0.000E+00
CGA:   2    -0.369146085683E+03   -0.99658E-01   -0.99681E-01  6048   0.161E+00 0.981E-03
CGA:   3    -0.369176530122E+03   -0.30444E-01   -0.30396E-01  6048   0.280E-01-0.592E-03
CGA:   4    -0.369182240931E+03   -0.57108E-02   -0.56831E-02  6048   0.475E-02-0.304E-03
CGA:   5    -0.369183342267E+03   -0.11013E-02   -0.10997E-02  6048   0.111E-02-0.299E-04
CGA:   6    -0.369183615485E+03   -0.27322E-03   -0.27432E-03  6048   0.302E-03 0.261E-04
CGA:   7    -0.369183708440E+03   -0.92955E-04   -0.92702E-04  6048   0.119E-03 0.216E-04
CGA:   8    -0.369183760115E+03   -0.51675E-04   -0.53181E-04  6048   0.656E-04-0.117E-04
CGA:   9    -0.369183781333E+03   -0.21218E-04   -0.21840E-04  6048   0.237E-04-0.842E-05
CGA:  10    -0.369183786792E+03   -0.54592E-05   -0.55430E-05  6048   0.688E-05 0.271E-05
  29 F= -.36918379E+03 E0= -.36918379E+03  d E =-.245720E-02  mag=    12.0000
       N       E                     dE             d eps       ncg     rms          ort
SDA:   1    -0.359466049661E+03    0.97177E+01    0.00000E+00  6048   0.244E+02 0.000E+00
CGA:   2    -0.366575317323E+03   -0.71093E+01   -0.71098E+01  6048   0.113E+02 0.694E-02
CGA:   3    -0.368675346462E+03   -0.21000E+01   -0.21028E+01  6048   0.191E+01 0.211E-02
CGA:   4    -0.369061552007E+03   -0.38621E+00   -0.38619E+00  6048   0.324E+00-0.822E-03
CGA:   5    -0.369138211774E+03   -0.76660E-01   -0.76659E-01  6048   0.785E-01-0.185E-03
CGA:   6    -0.369158673022E+03   -0.20461E-01   -0.20446E-01  6048   0.234E-01-0.510E-03
CGA:   7    -0.369166211049E+03   -0.75380E-02   -0.75529E-02  6048   0.101E-01-0.451E-03
CGA:   8    -0.369169830772E+03   -0.36197E-02   -0.36459E-02  6048   0.408E-02-0.356E-03
CGA:   9    -0.369171178369E+03   -0.13476E-02   -0.13572E-02  6048   0.126E-02-0.202E-03
CGA:  10    -0.369171579943E+03   -0.40157E-03   -0.40281E-03  6048   0.400E-03-0.345E-04
CGA:  11    -0.369171738187E+03   -0.15824E-03   -0.16004E-03  6048   0.207E-03-0.166E-04
CGA:  12    -0.369171812151E+03   -0.73964E-04   -0.72193E-04  6048   0.944E-04 0.307E-04
CGA:  13    -0.369171856672E+03   -0.44521E-04   -0.44247E-04  6048   0.460E-04 0.267E-05
CGA:  14    -0.369171870993E+03   -0.14321E-04   -0.14427E-04  6048   0.138E-04 0.111E-04
CGA:  15    -0.369171877460E+03   -0.64664E-05   -0.64651E-05  6048   0.597E-05 0.133E-07
CGA:  16    -0.369171850103E+03    0.27356E-04   -0.14811E-04  6048   0.118E-03-0.227E-04
CGA:  17    -0.369171871978E+03   -0.21874E-04   -0.26252E-04  6048   0.188E-04 0.121E-04
CGA:  18    -0.369171881857E+03   -0.98789E-05   -0.89282E-05  6048   0.119E-04-0.735E-05
  30 F= -.36917188E+03 E0= -.36917188E+03  d E =0.119049E-01  mag=    12.0000
       N       E                     dE             d eps       ncg     rms          ort
SDA:   1    -0.359593292778E+03    0.95786E+01    0.00000E+00  6048   0.239E+02 0.000E+00
CGA:   2    -0.366764686182E+03   -0.71714E+01   -0.71789E+01  6048   0.104E+02 0.986E-03
CGA:   3    -0.368700262866E+03   -0.19356E+01   -0.19417E+01  6048   0.179E+01 0.268E-01
CGA:   4    -0.369063224219E+03   -0.36296E+00   -0.36347E+00  6048   0.310E+00 0.138E-02
CGA:   5    -0.369137466371E+03   -0.74242E-01   -0.74240E-01  6048   0.740E-01-0.136E-03
CGA:   6    -0.369157081107E+03   -0.19615E-01   -0.19507E-01  6048   0.231E-01-0.541E-03
CGA:   7    -0.369164550508E+03   -0.74694E-02   -0.74240E-02  6048   0.100E-01-0.322E-03
CGA:   8    -0.369168175394E+03   -0.36249E-02   -0.36076E-02  6048   0.398E-02-0.181E-03
CGA:   9    -0.369169535681E+03   -0.13603E-02   -0.13465E-02  6048   0.126E-02-0.123E-03
CGA:  10    -0.369169960382E+03   -0.42470E-03   -0.42118E-03  6048   0.423E-03-0.336E-04
CGA:  11    -0.369170130926E+03   -0.17054E-03   -0.17050E-03  6048   0.209E-03-0.173E-05
CGA:  12    -0.369170213728E+03   -0.82802E-04   -0.83822E-04  6048   0.974E-04 0.246E-04
CGA:  13    -0.369170263712E+03   -0.49985E-04   -0.50158E-04  6048   0.562E-04-0.951E-05
CGA:  14    -0.369170274958E+03   -0.11245E-04   -0.13210E-04  6048   0.176E-04 0.107E-04
CGA:  15    -0.369170282718E+03   -0.77597E-05   -0.75685E-05  6048   0.775E-05-0.264E-05
  31 F= -.36917028E+03 E0= -.36917028E+03  d E =0.159914E-02  mag=    12.0000
       N       E                     dE             d eps       ncg     rms          ort
SDA:   1    -0.363253967992E+03    0.59163E+01    0.00000E+00  6048   0.151E+02 0.000E+00
CGA:   2    -0.367422653526E+03   -0.41687E+01   -0.41717E+01  6048   0.726E+01-0.185E-02
CGA:   3    -0.368807548196E+03   -0.13849E+01   -0.13879E+01  6048   0.127E+01 0.638E-02
CGA:   4    -0.369065305758E+03   -0.25776E+00   -0.25772E+00  6048   0.219E+00-0.861E-03
CGA:   5    -0.369117412098E+03   -0.52106E-01   -0.52070E-01  6048   0.553E-01-0.326E-03
CGA:   6    -0.369132014824E+03   -0.14603E-01   -0.14629E-01  6048   0.173E-01 0.180E-03
CGA:   7    -0.369137534870E+03   -0.55200E-02   -0.55224E-02  6048   0.726E-02 0.300E-04
CGA:   8    -0.369140203329E+03   -0.26685E-02   -0.26660E-02  6048   0.293E-02-0.157E-03
CGA:   9    -0.369141192263E+03   -0.98893E-03   -0.98533E-03  6048   0.920E-03-0.962E-04
CGA:  10    -0.369141502387E+03   -0.31012E-03   -0.30888E-03  6048   0.314E-03-0.380E-04
CGA:  11    -0.369141621762E+03   -0.11937E-03   -0.11936E-03  6048   0.146E-03 0.726E-06
CGA:  12    -0.369141686593E+03   -0.64831E-04   -0.64989E-04  6048   0.792E-04-0.253E-05
CGA:  13    -0.369141705799E+03   -0.19206E-04   -0.21585E-04  6048   0.268E-04 0.225E-04
CGA:  14    -0.369141715178E+03   -0.93793E-05   -0.99955E-05  6048   0.919E-05 0.706E-05
  32 F= -.36914172E+03 E0= -.36914172E+03  d E =0.285675E-01  mag=    12.0000
       N       E                     dE             d eps       ncg     rms          ort
SDA:   1    -0.367919399712E+03    0.12223E+01    0.00000E+00  6048   0.361E+01 0.000E+00
CGA:   2    -0.368773333163E+03   -0.85393E+00   -0.85456E+00  6048   0.156E+01 0.102E-02
CGA:   3    -0.369102441867E+03   -0.32911E+00   -0.32930E+00  6048   0.343E+00-0.316E-04
CGA:   4    -0.369172144187E+03   -0.69702E-01   -0.69661E-01  6048   0.612E-01-0.565E-03
CGA:   5    -0.369187071546E+03   -0.14927E-01   -0.14930E-01  6048   0.163E-01-0.477E-05
CGA:   6    -0.369191613585E+03   -0.45420E-02   -0.45463E-02  6048   0.623E-02 0.565E-04
CGA:   7    -0.369193682532E+03   -0.20689E-02   -0.20686E-02  6048   0.278E-02-0.313E-04
CGA:   8    -0.369194685711E+03   -0.10032E-02   -0.10032E-02  6048   0.115E-02-0.266E-05
CGA:   9    -0.369195081247E+03   -0.39554E-03   -0.39553E-03  6048   0.415E-03 0.537E-05
CGA:  10    -0.369195233515E+03   -0.15227E-03   -0.15224E-03  6048   0.168E-03 0.769E-06
CGA:  11    -0.369195297797E+03   -0.64282E-04   -0.63850E-04  6048   0.697E-04 0.121E-04
CGA:  12    -0.369195325036E+03   -0.27239E-04   -0.27081E-04  6048   0.249E-04 0.885E-05
CGA:  13    -0.369195333269E+03   -0.82331E-05   -0.85226E-05  6048   0.785E-05 0.681E-05
  33 F= -.36919533E+03 E0= -.36919533E+03  d E =-.536181E-01  mag=    12.0000
       N       E                     dE             d eps       ncg     rms          ort
SDA:   1    -0.368624579391E+03    0.57075E+00    0.00000E+00  6048   0.142E+01 0.000E+00
CGA:   2    -0.369051381990E+03   -0.42680E+00   -0.42680E+00  6048   0.632E+00-0.693E-03
CGA:   3    -0.369167431734E+03   -0.11605E+00   -0.11609E+00  6048   0.109E+00-0.422E-03
CGA:   4    -0.369189270896E+03   -0.21839E-01   -0.21877E-01  6048   0.181E-01 0.248E-03
CGA:   5    -0.369193570829E+03   -0.42999E-02   -0.43017E-02  6048   0.425E-02 0.128E-04
CGA:   6    -0.369194703358E+03   -0.11325E-02   -0.11248E-02  6048   0.128E-02-0.142E-03
CGA:   7    -0.369195106838E+03   -0.40348E-03   -0.40413E-03  6048   0.555E-03-0.706E-04
CGA:   8    -0.369195294040E+03   -0.18720E-03   -0.18800E-03  6048   0.212E-03-0.197E-04
CGA:   9    -0.369195364219E+03   -0.70178E-04   -0.70422E-04  6048   0.645E-04-0.102E-04
CGA:  10    -0.369195384250E+03   -0.20031E-04   -0.20033E-04  6048   0.188E-04-0.284E-06
CGA:  11    -0.369195392319E+03   -0.80687E-05   -0.84403E-05  6048   0.115E-04-0.288E-05
  34 F= -.36919539E+03 E0= -.36919539E+03  d E =-.590493E-04  mag=    12.0000
       N       E                     dE             d eps       ncg     rms          ort
SDA:   1    -0.368001679796E+03    0.11937E+01    0.00000E+00  6048   0.297E+01 0.000E+00
CGA:   2    -0.368876257513E+03   -0.87458E+00   -0.87458E+00  6048   0.142E+01-0.173E-02
CGA:   3    -0.369134220716E+03   -0.25796E+00   -0.25832E+00  6048   0.224E+00 0.728E-03
CGA:   4    -0.369179758015E+03   -0.45537E-01   -0.45588E-01  6048   0.394E-01 0.361E-03
CGA:   5    -0.369189011722E+03   -0.92537E-02   -0.92449E-02  6048   0.891E-02-0.130E-03
CGA:   6    -0.369191324086E+03   -0.23124E-02   -0.23043E-02  6048   0.258E-02-0.173E-03
CGA:   7    -0.369192127783E+03   -0.80370E-03   -0.80487E-03  6048   0.106E-02-0.871E-04
CGA:   8    -0.369192502398E+03   -0.37462E-03   -0.37740E-03  6048   0.427E-03-0.431E-04
CGA:   9    -0.369192644930E+03   -0.14253E-03   -0.14386E-03  6048   0.132E-03-0.310E-04
CGA:  10    -0.369192686608E+03   -0.41678E-04   -0.41937E-04  6048   0.397E-04-0.829E-05
CGA:  11    -0.369192701774E+03   -0.15165E-04   -0.15603E-04  6048   0.208E-04-0.408E-05
CGA:  12    -0.369192707188E+03   -0.54143E-05   -0.55206E-05  6048   0.934E-05 0.481E-05
  35 F= -.36919271E+03 E0= -.36919271E+03  d E =0.268513E-02  mag=    12.0000
       N       E                     dE             d eps       ncg     rms          ort
SDA:   1    -0.360208906416E+03    0.89838E+01    0.00000E+00  6048   0.196E+02 0.000E+00
CGA:   2    -0.366415585705E+03   -0.62067E+01   -0.62066E+01  6048   0.675E+01-0.104E-01
CGA:   3    -0.367919652769E+03   -0.15041E+01   -0.15051E+01  6048   0.163E+01 0.260E-03
CGA:   4    -0.368250256731E+03   -0.33060E+00   -0.33081E+00  6048   0.369E+00-0.322E-03
CGA:   5    -0.368343324877E+03   -0.93068E-01   -0.93052E-01  6048   0.103E+00-0.248E-03
CGA:   6    -0.368375780851E+03   -0.32456E-01   -0.32457E-01  6048   0.398E-01-0.246E-03
CGA:   7    -0.368387678622E+03   -0.11898E-01   -0.11898E-01  6048   0.149E-01 0.177E-04
CGA:   8    -0.368392481448E+03   -0.48028E-02   -0.48027E-02  6048   0.438E-02 0.935E-05
CGA:   9    -0.368393943016E+03   -0.14616E-02   -0.14632E-02  6048   0.131E-02-0.678E-04
CGA:  10    -0.368394360682E+03   -0.41767E-03   -0.41753E-03  6048   0.429E-03 0.971E-05
CGA:  11    -0.368394520283E+03   -0.15960E-03   -0.15957E-03  6048   0.215E-03 0.292E-06
CGA:  12    -0.368394587623E+03   -0.67340E-04   -0.67381E-04  6048   0.954E-04 0.381E-04
CGA:  13    -0.368394628494E+03   -0.40871E-04   -0.40286E-04  6048   0.453E-04 0.130E-04
CGA:  14    -0.368394642244E+03   -0.13749E-04   -0.14422E-04  6048   0.184E-04 0.184E-04
CGA:  15    -0.368394646901E+03   -0.46575E-05   -0.56937E-05  6048   0.783E-05 0.110E-04
CGA:  16    -0.368394642420E+03    0.44809E-05   -0.10482E-04  6048   0.816E-04-0.146E-04
CGA:  17    -0.368394650615E+03   -0.81949E-05   -0.11708E-04  6048   0.928E-05 0.161E-04
  36 F= -.36839465E+03 E0= -.36839465E+03  d E =0.798057E+00  mag=    12.0000
       N       E                     dE             d eps       ncg     rms          ort
SDA:   1    -0.366489841685E+03    0.19048E+01    0.00000E+00  6048   0.606E+01 0.000E+00
CGA:   2    -0.368499096322E+03   -0.20093E+01   -0.20092E+01  6048   0.184E+01-0.370E-02
CGA:   3    -0.368955349247E+03   -0.45625E+00   -0.45656E+00  6048   0.355E+00 0.233E-02
CGA:   4    -0.369037736687E+03   -0.82387E-01   -0.82426E-01  6048   0.951E-01 0.188E-03
CGA:   5    -0.369060152421E+03   -0.22416E-01   -0.22429E-01  6048   0.296E-01 0.102E-03
CGA:   6    -0.369069551538E+03   -0.93991E-02   -0.93980E-02  6048   0.102E-01-0.122E-03
CGA:   7    -0.369072912899E+03   -0.33614E-02   -0.33619E-02  6048   0.402E-02-0.946E-04
CGA:   8    -0.369074090581E+03   -0.11777E-02   -0.11786E-02  6048   0.116E-02 0.292E-04
CGA:   9    -0.369074473929E+03   -0.38335E-03   -0.38343E-03  6048   0.338E-03-0.281E-04
CGA:  10    -0.369074583969E+03   -0.11004E-03   -0.11007E-03  6048   0.118E-03-0.374E-05
CGA:  11    -0.369074631871E+03   -0.47903E-04   -0.50104E-04  6048   0.784E-04-0.213E-04
CGA:  12    -0.369074653746E+03   -0.21874E-04   -0.21877E-04  6048   0.356E-04-0.392E-06
CGA:  13    -0.369074667821E+03   -0.14075E-04   -0.21716E-04  6048   0.524E-04-0.271E-04
CGA:  14    -0.369074677959E+03   -0.10138E-04   -0.11053E-04  6048   0.611E-05 0.682E-05
CGA:  15    -0.369074680715E+03   -0.27563E-05   -0.31549E-05  6048   0.657E-05-0.337E-05
  37 F= -.36907468E+03 E0= -.36907468E+03  d E =-.680030E+00  mag=    12.0000
       N       E                     dE             d eps       ncg     rms          ort
SDA:   1    -0.368067874817E+03    0.10068E+01    0.00000E+00  6048   0.265E+01 0.000E+00
CGA:   2    -0.368941563840E+03   -0.87369E+00   -0.87370E+00  6048   0.821E+00 0.400E-03
CGA:   3    -0.369143076659E+03   -0.20151E+00   -0.20166E+00  6048   0.168E+00 0.149E-02
CGA:   4    -0.369180373443E+03   -0.37297E-01   -0.37303E-01  6048   0.445E-01-0.686E-04
CGA:   5    -0.369190903225E+03   -0.10530E-01   -0.10543E-01  6048   0.131E-01 0.138E-03
CGA:   6    -0.369195106971E+03   -0.42037E-02   -0.42038E-02  6048   0.458E-02 0.706E-04
CGA:   7    -0.369196610550E+03   -0.15036E-02   -0.15038E-02  6048   0.184E-02-0.517E-04
CGA:   8    -0.369197155879E+03   -0.54533E-03   -0.54565E-03  6048   0.520E-03 0.136E-04
CGA:   9    -0.369197329521E+03   -0.17364E-03   -0.17376E-03  6048   0.150E-03-0.106E-04
CGA:  10    -0.369197380091E+03   -0.50569E-04   -0.50745E-04  6048   0.553E-04-0.737E-05
CGA:  11    -0.369197402347E+03   -0.22256E-04   -0.25310E-04  6048   0.487E-04-0.192E-04
CGA:  12    -0.369197411535E+03   -0.91879E-05   -0.91654E-05  6048   0.221E-04-0.571E-06
  38 F= -.36919741E+03 E0= -.36919741E+03  d E =-.122731E+00  mag=    12.0000
       N       E                     dE             d eps       ncg     rms          ort
SDA:   1    -0.369168972456E+03    0.28430E-01    0.00000E+00  6048   0.703E-01 0.000E+00
CGA:   2    -0.369190859736E+03   -0.21887E-01   -0.21892E-01  6048   0.247E-01 0.194E-03
CGA:   3    -0.369196237196E+03   -0.53775E-02   -0.53918E-02  6048   0.641E-02 0.110E-03
CGA:   4    -0.369197563573E+03   -0.13264E-02   -0.13165E-02  6048   0.134E-02-0.865E-04
CGA:   5    -0.369197899981E+03   -0.33641E-03   -0.33535E-03  6048   0.392E-03-0.163E-04
CGA:   6    -0.369198000458E+03   -0.10048E-03   -0.10265E-03  6048   0.124E-03 0.430E-04
CGA:   7    -0.369198037067E+03   -0.36609E-04   -0.37476E-04  6048   0.439E-04 0.213E-04
CGA:   8    -0.369198057650E+03   -0.20583E-04   -0.21155E-04  6048   0.225E-04-0.574E-05
CGA:   9    -0.369198063526E+03   -0.58764E-05   -0.58615E-05  6048   0.649E-05-0.891E-06
  39 F= -.36919806E+03 E0= -.36919806E+03  d E =-.651991E-03  mag=    12.0000
       N       E                     dE             d eps       ncg     rms          ort
SDA:   1    -0.369171353354E+03    0.26704E-01    0.00000E+00  6048   0.758E-01 0.000E+00
CGA:   2    -0.369193366175E+03   -0.22013E-01   -0.22027E-01  6048   0.283E-01 0.561E-03
CGA:   3    -0.369199282897E+03   -0.59167E-02   -0.59175E-02  6048   0.743E-02-0.215E-04
CGA:   4    -0.369200910506E+03   -0.16276E-02   -0.16054E-02  6048   0.145E-02-0.247E-03
CGA:   5    -0.369201271804E+03   -0.36130E-03   -0.35853E-03  6048   0.441E-03-0.589E-04
CGA:   6    -0.369201376279E+03   -0.10447E-03   -0.10680E-03  6048   0.128E-03 0.480E-04
CGA:   7    -0.369201407807E+03   -0.31528E-04   -0.33735E-04  6048   0.418E-04 0.365E-04
CGA:   8    -0.369201425762E+03   -0.17955E-04   -0.17740E-04  6048   0.187E-04 0.629E-05
CGA:   9    -0.369201434093E+03   -0.83317E-05   -0.10495E-04  6048   0.180E-04-0.114E-04
  40 F= -.36920143E+03 E0= -.36920143E+03  d E =-.337057E-02  mag=    12.0000
       N       E                     dE             d eps       ncg     rms          ort
SDA:   1    -0.369196639625E+03    0.47861E-02    0.00000E+00  6048   0.136E-01 0.000E+00
CGA:   2    -0.369201120170E+03   -0.44805E-02   -0.44760E-02  6048   0.412E-02 0.155E-03
CGA:   3    -0.369202150378E+03   -0.10302E-02   -0.10247E-02  6048   0.986E-03-0.101E-03
CGA:   4    -0.369202357684E+03   -0.20731E-03   -0.20484E-03  6048   0.253E-03-0.297E-04
CGA:   5    -0.369202416975E+03   -0.59292E-04   -0.58976E-04  6048   0.708E-04-0.591E-05
CGA:   6    -0.369202437588E+03   -0.20612E-04   -0.20588E-04  6048   0.233E-04 0.404E-05
CGA:   7    -0.369202443595E+03   -0.60076E-05   -0.62108E-05  6048   0.770E-05 0.516E-05
  41 F= -.36920244E+03 E0= -.36920244E+03  d E =-.100950E-02  mag=    12.0000
       N       E                     dE             d eps       ncg     rms          ort
SDA:   1    -0.369199845608E+03    0.25920E-02    0.00000E+00  6048   0.676E-02 0.000E+00
CGA:   2    -0.369201874537E+03   -0.20289E-02   -0.20275E-02  6048   0.255E-02 0.179E-03
CGA:   3    -0.369202396834E+03   -0.52230E-03   -0.52089E-03  6048   0.621E-03-0.179E-04
CGA:   4    -0.369202546307E+03   -0.14947E-03   -0.14529E-03  6048   0.157E-03-0.810E-04
CGA:   5    -0.369202579142E+03   -0.32835E-04   -0.32499E-04  6048   0.392E-04-0.714E-05
CGA:   6    -0.369202584412E+03   -0.52698E-05   -0.66946E-05  6048   0.119E-04 0.137E-04
  42 F= -.36920258E+03 E0= -.36920258E+03  d E =-.140817E-03  mag=    12.0000
       N       E                     dE             d eps       ncg     rms          ort
SDA:   1    -0.369198426200E+03    0.41529E-02    0.00000E+00  6048   0.112E-01 0.000E+00
CGA:   2    -0.369201573120E+03   -0.31469E-02   -0.31454E-02  6048   0.500E-02 0.132E-03
CGA:   3    -0.369202498714E+03   -0.92559E-03   -0.93140E-03  6048   0.877E-03 0.604E-04
CGA:   4    -0.369202703543E+03   -0.20483E-03   -0.20262E-03  6048   0.181E-03-0.573E-04
CGA:   5    -0.369202744751E+03   -0.41209E-04   -0.40861E-04  6048   0.464E-04-0.149E-04
CGA:   6    -0.369202751492E+03   -0.67405E-05   -0.77140E-05  6048   0.114E-04 0.118E-04
  43 F= -.36920275E+03 E0= -.36920275E+03  d E =-.167080E-03  mag=    12.0000
       N       E                     dE             d eps       ncg     rms          ort
SDA:   1    -0.369184228601E+03    0.18516E-01    0.00000E+00  6048   0.486E-01 0.000E+00
CGA:   2    -0.369198266058E+03   -0.14037E-01   -0.14038E-01  6048   0.214E-01-0.518E-04
CGA:   3    -0.369202167945E+03   -0.39019E-02   -0.39141E-02  6048   0.382E-02 0.143E-03
CGA:   4    -0.369202959967E+03   -0.79202E-03   -0.79376E-03  6048   0.645E-03 0.368E-04
CGA:   5    -0.369203114026E+03   -0.15406E-03   -0.15397E-03  6048   0.153E-03-0.706E-05
CGA:   6    -0.369203152670E+03   -0.38644E-04   -0.38639E-04  6048   0.437E-04 0.839E-06
CGA:   7    -0.369203166721E+03   -0.14050E-04   -0.14005E-04  6048   0.188E-04 0.642E-06
CGA:   8    -0.369203173845E+03   -0.71243E-05   -0.71822E-05  6048   0.819E-05-0.474E-06
  44 F= -.36920317E+03 E0= -.36920317E+03  d E =-.422353E-03  mag=    12.0000
       N       E                     dE             d eps       ncg     rms          ort
SDA:   1    -0.368289313420E+03    0.91385E+00    0.00000E+00  6048   0.220E+01 0.000E+00
CGA:   2    -0.368999663852E+03   -0.71035E+00   -0.71023E+00  6048   0.759E+00 0.135E-02
CGA:   3    -0.369151132214E+03   -0.15147E+00   -0.15153E+00  6048   0.157E+00 0.237E-03
CGA:   4    -0.369182098336E+03   -0.30966E-01   -0.30939E-01  6048   0.288E-01-0.532E-03
CGA:   5    -0.369188975259E+03   -0.68769E-02   -0.68772E-02  6048   0.678E-02 0.628E-05
CGA:   6    -0.369190809051E+03   -0.18338E-02   -0.18324E-02  6048   0.228E-02 0.140E-03
CGA:   7    -0.369191563598E+03   -0.75455E-03   -0.75476E-03  6048   0.107E-02-0.398E-05
CGA:   8    -0.369191944362E+03   -0.38076E-03   -0.38329E-03  6048   0.424E-03-0.266E-04
CGA:   9    -0.369192087346E+03   -0.14298E-03   -0.14452E-03  6048   0.141E-03-0.192E-04
CGA:  10    -0.369192133652E+03   -0.46305E-04   -0.46657E-04  6048   0.511E-04-0.482E-05
CGA:  11    -0.369192151784E+03   -0.18132E-04   -0.17614E-04  6048   0.218E-04 0.639E-05
CGA:  12    -0.369192160737E+03   -0.89530E-05   -0.85568E-05  6048   0.102E-04 0.573E-05
  45 F= -.36919216E+03 E0= -.36919216E+03  d E =0.110131E-01  mag=    12.0000
       N       E                     dE             d eps       ncg     rms          ort
SDA:   1    -0.368230361354E+03    0.96179E+00    0.00000E+00  6048   0.240E+01 0.000E+00
CGA:   2    -0.368959780811E+03   -0.72942E+00   -0.72935E+00  6048   0.948E+00 0.186E-02
CGA:   3    -0.369148053090E+03   -0.18827E+00   -0.18843E+00  6048   0.191E+00 0.901E-03
CGA:   4    -0.369185947717E+03   -0.37895E-01   -0.37859E-01  6048   0.347E-01-0.582E-03
CGA:   5    -0.369194388473E+03   -0.84408E-02   -0.84428E-02  6048   0.827E-02 0.568E-04
CGA:   6    -0.369196619435E+03   -0.22310E-02   -0.22321E-02  6048   0.281E-02 0.270E-03
CGA:   7    -0.369197546335E+03   -0.92690E-03   -0.92542E-03  6048   0.125E-02 0.319E-04
CGA:   8    -0.369198004321E+03   -0.45799E-03   -0.45989E-03  6048   0.497E-03-0.218E-04
CGA:   9    -0.369198171030E+03   -0.16671E-03   -0.16718E-03  6048   0.163E-03-0.775E-05
CGA:  10    -0.369198230575E+03   -0.59545E-04   -0.61432E-04  6048   0.720E-04-0.188E-04
CGA:  11    -0.369198256535E+03   -0.25961E-04   -0.26076E-04  6048   0.338E-04-0.996E-06
CGA:  12    -0.369198272370E+03   -0.15834E-04   -0.19099E-04  6048   0.318E-04-0.117E-04
CGA:  13    -0.369198274962E+03   -0.25928E-05   -0.36291E-05  6048   0.152E-04 0.776E-05
  46 F= -.36919827E+03 E0= -.36919827E+03  d E =-.611423E-02  mag=    12.0000
       N       E                     dE             d eps       ncg     rms          ort
SDA:   1    -0.368739235083E+03    0.45904E+00    0.00000E+00  6048   0.105E+01 0.000E+00
CGA:   2    -0.369068977248E+03   -0.32974E+00   -0.32981E+00  6048   0.383E+00-0.352E-02
CGA:   3    -0.369148547895E+03   -0.79571E-01   -0.79663E-01  6048   0.944E-01 0.733E-03
CGA:   4    -0.369167676959E+03   -0.19129E-01   -0.19225E-01  6048   0.187E-01 0.103E-02
CGA:   5    -0.369172572964E+03   -0.48960E-02   -0.48980E-02  6048   0.548E-02 0.734E-04
CGA:   6    -0.369174334228E+03   -0.17613E-02   -0.17757E-02  6048   0.242E-02-0.386E-03
CGA:   7    -0.369175018926E+03   -0.68470E-03   -0.68710E-03  6048   0.907E-03-0.135E-03
CGA:   8    -0.369175272281E+03   -0.25336E-03   -0.25294E-03  6048   0.243E-03 0.546E-04
CGA:   9    -0.369175350224E+03   -0.77942E-04   -0.77663E-04  6048   0.772E-04 0.219E-04
CGA:  10    -0.369175379140E+03   -0.28916E-04   -0.28887E-04  6048   0.305E-04 0.513E-06
CGA:  11    -0.369175389094E+03   -0.99541E-05   -0.97872E-05  6048   0.125E-04 0.617E-05
  47 F= -.36917539E+03 E0= -.36917539E+03  d E =0.228859E-01  mag=    12.0000
       N       E                     dE             d eps       ncg     rms          ort
SDA:   1    -0.368956435743E+03    0.21894E+00    0.00000E+00  6048   0.595E+00 0.000E+00
CGA:   2    -0.369147446026E+03   -0.19101E+00   -0.19096E+00  6048   0.181E+00 0.178E-02
CGA:   3    -0.369190054873E+03   -0.42609E-01   -0.42557E-01  6048   0.434E-01-0.959E-03
CGA:   4    -0.369198949578E+03   -0.88947E-02   -0.88721E-02  6048   0.102E-01-0.309E-03
CGA:   5    -0.369201442879E+03   -0.24933E-02   -0.24929E-02  6048   0.277E-02-0.122E-04
CGA:   6    -0.369202264305E+03   -0.82143E-03   -0.81986E-03  6048   0.955E-03 0.135E-03
CGA:   7    -0.369202559201E+03   -0.29490E-03   -0.29436E-03  6048   0.366E-03 0.612E-04
CGA:   8    -0.369202692746E+03   -0.13355E-03   -0.13462E-03  6048   0.129E-03-0.181E-04
CGA:   9    -0.369202733949E+03   -0.41203E-04   -0.41456E-04  6048   0.391E-04-0.524E-05
CGA:  10    -0.369202746141E+03   -0.12192E-04   -0.12214E-04  6048   0.139E-04-0.659E-06
CGA:  11    -0.369202751757E+03   -0.56162E-05   -0.83142E-05  6048   0.197E-04-0.852E-05
  48 F= -.36920275E+03 E0= -.36920275E+03  d E =-.273627E-01  mag=    12.0000
       N       E                     dE             d eps       ncg     rms          ort
SDA:   1    -0.369083898428E+03    0.11885E+00    0.00000E+00  6048   0.293E+00 0.000E+00
CGA:   2    -0.369176086558E+03   -0.92188E-01   -0.92183E-01  6048   0.104E+00 0.344E-03
CGA:   3    -0.369197178864E+03   -0.21092E-01   -0.21118E-01  6048   0.205E-01 0.177E-03
CGA:   4    -0.369201179565E+03   -0.40007E-02   -0.39849E-02  6048   0.378E-02-0.168E-03
CGA:   5    -0.369202058219E+03   -0.87865E-03   -0.88028E-03  6048   0.816E-03 0.259E-04
CGA:   6    -0.369202265375E+03   -0.20716E-03   -0.20930E-03  6048   0.254E-03 0.575E-04
CGA:   7    -0.369202353695E+03   -0.88320E-04   -0.88074E-04  6048   0.126E-03 0.701E-05
CGA:   8    -0.369202400905E+03   -0.47210E-04   -0.46979E-04  6048   0.529E-04 0.316E-05
CGA:   9    -0.369202419836E+03   -0.18930E-04   -0.18915E-04  6048   0.185E-04 0.261E-06
CGA:  10    -0.369202427300E+03   -0.74641E-05   -0.82126E-05  6048   0.113E-04-0.520E-05
  49 F= -.36920243E+03 E0= -.36920243E+03  d E =0.324457E-03  mag=    12.0000
       N       E                     dE             d eps       ncg     rms          ort
SDA:   1    -0.363169368073E+03    0.60331E+01    0.00000E+00  6048   0.152E+02 0.000E+00
CGA:   2    -0.367115180748E+03   -0.39458E+01   -0.39467E+01  6048   0.694E+01 0.373E-02
CGA:   3    -0.368523958777E+03   -0.14088E+01   -0.14099E+01  6048   0.139E+01 0.181E-02
CGA:   4    -0.368808640620E+03   -0.28468E+00   -0.28478E+00  6048   0.252E+00 0.302E-03
CGA:   5    -0.368871607910E+03   -0.62967E-01   -0.62964E-01  6048   0.670E-01-0.152E-03
CGA:   6    -0.368890597706E+03   -0.18990E-01   -0.18987E-01  6048   0.258E-01-0.592E-03
CGA:   7    -0.368898717468E+03   -0.81198E-02   -0.81220E-02  6048   0.105E-01-0.851E-04
CGA:   8    -0.368902375990E+03   -0.36585E-02   -0.36549E-02  6048   0.394E-02 0.564E-04
CGA:   9    -0.368903741857E+03   -0.13659E-02   -0.13706E-02  6048   0.144E-02-0.925E-04
CGA:  10    -0.368904244657E+03   -0.50280E-03   -0.50282E-03  6048   0.570E-03-0.653E-06
CGA:  11    -0.368904475225E+03   -0.23057E-03   -0.22882E-03  6048   0.279E-03 0.167E-04
CGA:  12    -0.368904569053E+03   -0.93828E-04   -0.92751E-04  6048   0.105E-03 0.566E-04
CGA:  13    -0.368904618732E+03   -0.49680E-04   -0.49840E-04  6048   0.512E-04-0.189E-05
CGA:  14    -0.368904630289E+03   -0.11557E-04   -0.12571E-04  6048   0.173E-04 0.169E-04
CGA:  15    -0.368904635904E+03   -0.56149E-05   -0.58755E-05  6048   0.631E-05 0.511E-05
CGA:  16    -0.368904625155E+03    0.10749E-04   -0.10959E-04  6048   0.769E-04-0.210E-04
CGA:  17    -0.368904633428E+03   -0.82729E-05   -0.12752E-04  6048   0.138E-04 0.235E-04
  50 F= -.36890463E+03 E0= -.36890463E+03  d E =0.297794E+00  mag=    12.0000
       N       E                     dE             d eps       ncg     rms          ort
SDA:   1    -0.357960550462E+03    0.10944E+02    0.00000E+00  6048   0.256E+02 0.000E+00
CGA:   2    -0.366256817393E+03   -0.82963E+01   -0.82966E+01  6048   0.869E+01-0.455E-02
CGA:   3    -0.368179361869E+03   -0.19225E+01   -0.19250E+01  6048   0.210E+01 0.855E-02
CGA:   4    -0.368612416395E+03   -0.43305E+00   -0.43354E+00  6048   0.486E+00 0.664E-03
CGA:   5    -0.368735942394E+03   -0.12353E+00   -0.12353E+00  6048   0.134E+00 0.117E-03
CGA:   6    -0.368778563493E+03   -0.42621E-01   -0.42624E-01  6048   0.524E-01 0.412E-03
CGA:   7    -0.368794410259E+03   -0.15847E-01   -0.15841E-01  6048   0.197E-01-0.270E-03
CGA:   8    -0.368800740887E+03   -0.63306E-02   -0.63306E-02  6048   0.570E-02-0.559E-05
CGA:   9    -0.368802643576E+03   -0.19027E-02   -0.19030E-02  6048   0.172E-02-0.314E-04
CGA:  10    -0.368803246646E+03   -0.60307E-03   -0.60573E-03  6048   0.644E-03-0.854E-04
CGA:  11    -0.368803494400E+03   -0.24775E-03   -0.25405E-03  6048   0.378E-03-0.698E-04
CGA:  12    -0.368803599102E+03   -0.10470E-03   -0.10507E-03  6048   0.182E-03 0.205E-04
CGA:  13    -0.368803672360E+03   -0.73257E-04   -0.75654E-04  6048   0.109E-03-0.359E-04
CGA:  14    -0.368803705438E+03   -0.33078E-04   -0.33839E-04  6048   0.474E-04-0.140E-04
CGA:  15    -0.368803721032E+03   -0.15594E-04   -0.16121E-04  6048   0.180E-04-0.944E-05
CGA:  16    -0.368803721878E+03   -0.84602E-06   -0.12740E-04  6048   0.458E-04-0.218E-04
CGA:  17    -0.368803731381E+03   -0.95025E-05   -0.10289E-04  6048   0.714E-05 0.559E-05
  51 F= -.36880373E+03 E0= -.36880373E+03  d E =0.100902E+00  mag=    12.0000
       N       E                     dE             d eps       ncg     rms          ort
SDA:   1    -0.366383279584E+03    0.24204E+01    0.00000E+00  6048   0.656E+01 0.000E+00
CGA:   2    -0.368535109393E+03   -0.21518E+01   -0.21519E+01  6048   0.214E+01 0.498E-03
CGA:   3    -0.369031921118E+03   -0.49681E+00   -0.49692E+00  6048   0.494E+00-0.150E-02
CGA:   4    -0.369134671033E+03   -0.10275E+00   -0.10279E+00  6048   0.122E+00-0.102E-04
CGA:   5    -0.369165070430E+03   -0.30399E-01   -0.30378E-01  6048   0.334E-01-0.252E-03
CGA:   6    -0.369176062132E+03   -0.10992E-01   -0.10990E-01  6048   0.130E-01-0.240E-03
CGA:   7    -0.369179938053E+03   -0.38759E-02   -0.38811E-02  6048   0.482E-02 0.134E-03
CGA:   8    -0.369181496299E+03   -0.15582E-02   -0.15579E-02  6048   0.141E-02-0.234E-04
CGA:   9    -0.369181973633E+03   -0.47733E-03   -0.47751E-03  6048   0.419E-03-0.392E-04
CGA:  10    -0.369182099805E+03   -0.12617E-03   -0.12679E-03  6048   0.133E-03 0.254E-04
CGA:  11    -0.369182148453E+03   -0.48648E-04   -0.48568E-04  6048   0.717E-04 0.780E-05
CGA:  12    -0.369182172179E+03   -0.23726E-04   -0.23907E-04  6048   0.368E-04 0.903E-05
CGA:  13    -0.369182185504E+03   -0.13325E-04   -0.13393E-04  6048   0.151E-04 0.612E-05
CGA:  14    -0.369182189062E+03   -0.35580E-05   -0.42323E-05  6048   0.607E-05 0.727E-05
  52 F= -.36918219E+03 E0= -.36918219E+03  d E =-.378458E+00  mag=    12.0000
       N       E                     dE             d eps       ncg     rms          ort
SDA:   1    -0.369124600589E+03    0.57585E-01    0.00000E+00  6048   0.151E+00 0.000E+00
CGA:   2    -0.369172685889E+03   -0.48085E-01   -0.48089E-01  6048   0.521E-01 0.787E-03
CGA:   3    -0.369183983714E+03   -0.11298E-01   -0.11276E-01  6048   0.131E-01-0.247E-03
CGA:   4    -0.369186759443E+03   -0.27757E-02   -0.27410E-02  6048   0.288E-02-0.338E-03
CGA:   5    -0.369187461383E+03   -0.70194E-03   -0.70130E-03  6048   0.771E-03-0.108E-04
CGA:   6    -0.369187671387E+03   -0.21000E-03   -0.21256E-03  6048   0.258E-03 0.831E-04
CGA:   7    -0.369187757280E+03   -0.85893E-04   -0.86001E-04  6048   0.105E-03 0.205E-04
CGA:   8    -0.369187798132E+03   -0.40852E-04   -0.41053E-04  6048   0.385E-04-0.353E-05
CGA:   9    -0.369187810422E+03   -0.12290E-04   -0.12298E-04  6048   0.119E-04-0.398E-06
CGA:  10    -0.369187814362E+03   -0.39395E-05   -0.39459E-05  6048   0.485E-05-0.247E-06
  53 F= -.36918781E+03 E0= -.36918781E+03  d E =-.562530E-02  mag=    12.0000
       N       E                     dE             d eps       ncg     rms          ort
SDA:   1    -0.369163362449E+03    0.24448E-01    0.00000E+00  6048   0.844E-01 0.000E+00
CGA:   2    -0.369181915872E+03   -0.18553E-01   -0.18598E-01  6048   0.389E-01 0.418E-03
CGA:   3    -0.369190286101E+03   -0.83702E-02   -0.83924E-02  6048   0.775E-02 0.210E-03
CGA:   4    -0.369191982972E+03   -0.16969E-02   -0.16701E-02  6048   0.145E-02-0.317E-03
CGA:   5    -0.369192324899E+03   -0.34193E-03   -0.33784E-03  6048   0.389E-03-0.776E-04
CGA:   6    -0.369192394073E+03   -0.69174E-04   -0.76047E-04  6048   0.104E-03 0.795E-04
CGA:   7    -0.369192413450E+03   -0.19377E-04   -0.24134E-04  6048   0.449E-04 0.496E-04
CGA:   8    -0.369192428560E+03   -0.15110E-04   -0.15984E-04  6048   0.251E-04 0.205E-04
CGA:   9    -0.369192443572E+03   -0.15012E-04   -0.16089E-04  6048   0.199E-04-0.681E-05
CGA:  10    -0.369192445696E+03   -0.21237E-05   -0.24541E-05  6048   0.105E-04 0.275E-05
  54 F= -.36919245E+03 E0= -.36919245E+03  d E =-.463133E-02  mag=    12.0000
       N       E                     dE             d eps       ncg     rms          ort
SDA:   1    -0.369059212856E+03    0.13323E+00    0.00000E+00  6048   0.410E+00 0.000E+00
CGA:   2    -0.369148143719E+03   -0.88931E-01   -0.88995E-01  6048   0.185E+00 0.650E-03
CGA:   3    -0.369188209160E+03   -0.40065E-01   -0.40101E-01  6048   0.369E-01 0.443E-03
CGA:   4    -0.369195845212E+03   -0.76361E-02   -0.76040E-02  6048   0.627E-02-0.515E-03
CGA:   5    -0.369197305107E+03   -0.14599E-02   -0.14564E-02  6048   0.159E-02-0.115E-03
CGA:   6    -0.369197674067E+03   -0.36896E-03   -0.37311E-03  6048   0.472E-03 0.159E-03
CGA:   7    -0.369197823483E+03   -0.14942E-03   -0.14757E-03  6048   0.202E-03 0.912E-04
CGA:   8    -0.369197924776E+03   -0.10129E-03   -0.10315E-03  6048   0.144E-03-0.117E-04
CGA:   9    -0.369197967942E+03   -0.43167E-04   -0.43248E-04  6048   0.533E-04-0.198E-05
CGA:  10    -0.369197983128E+03   -0.15186E-04   -0.15145E-04  6048   0.192E-04 0.331E-05
CGA:  11    -0.369197991299E+03   -0.81707E-05   -0.92254E-05  6048   0.146E-04-0.601E-05
CGA:  12    -0.369197928431E+03    0.62868E-04   -0.33852E-04  6048   0.214E-03-0.534E-04
CGA:  13    -0.369197981185E+03   -0.52754E-04   -0.55941E-04  6048   0.347E-04 0.123E-04
CGA:  14    -0.369197993168E+03   -0.11983E-04   -0.13351E-04  6048   0.106E-04 0.956E-05
CGA:  15    -0.369197999678E+03   -0.65108E-05   -0.65029E-05  6048   0.623E-05-0.446E-06
  55 F= -.36919800E+03 E0= -.36919800E+03  d E =-.555398E-02  mag=    12.0000
       N       E                     dE             d eps       ncg     rms          ort
SDA:   1    -0.369056305964E+03    0.14169E+00    0.00000E+00  6048   0.430E+00 0.000E+00
CGA:   2    -0.369150879192E+03   -0.94573E-01   -0.94629E-01  6048   0.187E+00-0.267E-03
CGA:   3    -0.369190820691E+03   -0.39941E-01   -0.40012E-01  6048   0.386E-01 0.967E-04
CGA:   4    -0.369198615877E+03   -0.77952E-02   -0.77965E-02  6048   0.622E-02-0.176E-04
CGA:   5    -0.369200064061E+03   -0.14482E-02   -0.14555E-02  6048   0.154E-02 0.324E-04
CGA:   6    -0.369200465877E+03   -0.40182E-03   -0.40868E-03  6048   0.543E-03 0.398E-04
CGA:   7    -0.369200664152E+03   -0.19828E-03   -0.19752E-03  6048   0.293E-03-0.112E-04
CGA:   8    -0.369200778904E+03   -0.11475E-03   -0.11450E-03  6048   0.148E-03-0.116E-04
CGA:   9    -0.369200822367E+03   -0.43462E-04   -0.44362E-04  6048   0.451E-04 0.818E-05
CGA:  10    -0.369200838752E+03   -0.16386E-04   -0.16371E-04  6048   0.166E-04-0.234E-06
CGA:  11    -0.369200845665E+03   -0.69128E-05   -0.69266E-05  6048   0.824E-05-0.155E-05
  56 F= -.36920085E+03 E0= -.36920085E+03  d E =-.284599E-02  mag=    12.0000
       N       E                     dE             d eps       ncg     rms          ort
SDA:   1    -0.369092380720E+03    0.10846E+00    0.00000E+00  6048   0.303E+00 0.000E+00
CGA:   2    -0.369167351617E+03   -0.74971E-01   -0.74965E-01  6048   0.128E+00-0.290E-03
CGA:   3    -0.369193831385E+03   -0.26480E-01   -0.26519E-01  6048   0.275E-01 0.684E-04
CGA:   4    -0.369199291646E+03   -0.54603E-02   -0.54799E-02  6048   0.452E-02 0.768E-04
CGA:   5    -0.369200378108E+03   -0.10865E-02   -0.10943E-02  6048   0.117E-02 0.500E-04
CGA:   6    -0.369200721068E+03   -0.34296E-03   -0.34084E-03  6048   0.486E-03-0.221E-04
CGA:   7    -0.369200898535E+03   -0.17747E-03   -0.17690E-03  6048   0.283E-03-0.543E-04
CGA:   8    -0.369200987841E+03   -0.89306E-04   -0.89241E-04  6048   0.113E-03-0.273E-05
CGA:   9    -0.369201018551E+03   -0.30711E-04   -0.32048E-04  6048   0.337E-04 0.143E-04
CGA:  10    -0.369201029883E+03   -0.11332E-04   -0.11673E-04  6048   0.122E-04 0.502E-05
CGA:  11    -0.369201034342E+03   -0.44592E-05   -0.45821E-05  6048   0.521E-05 0.266E-05
  57 F= -.36920103E+03 E0= -.36920103E+03  d E =-.188677E-03  mag=    12.0000
       N       E                     dE             d eps       ncg     rms          ort
SDA:   1    -0.369184190141E+03    0.16840E-01    0.00000E+00  6048   0.505E-01 0.000E+00
CGA:   2    -0.369196326026E+03   -0.12136E-01   -0.12136E-01  6048   0.237E-01-0.427E-04
CGA:   3    -0.369201355318E+03   -0.50293E-02   -0.50256E-02  6048   0.505E-02-0.491E-04
CGA:   4    -0.369202368054E+03   -0.10127E-02   -0.10210E-02  6048   0.902E-03 0.525E-04
CGA:   5    -0.369202594910E+03   -0.22686E-03   -0.22747E-03  6048   0.251E-03 0.621E-05
CGA:   6    -0.369202673822E+03   -0.78913E-04   -0.78189E-04  6048   0.112E-03-0.236E-04
CGA:   7    -0.369202702888E+03   -0.29065E-04   -0.29116E-04  6048   0.368E-04 0.965E-06
CGA:   8    -0.369202713697E+03   -0.10809E-04   -0.10992E-04  6048   0.121E-04 0.461E-05
CGA:   9    -0.369202718745E+03   -0.50481E-05   -0.51091E-05  6048   0.620E-05-0.147E-05
  58 F= -.36920272E+03 E0= -.36920272E+03  d E =-.168440E-02  mag=    12.0000
       N       E                     dE             d eps       ncg     rms          ort
SDA:   1    -0.369200858127E+03    0.18556E-02    0.00000E+00  6048   0.571E-02 0.000E+00
CGA:   2    -0.369202156593E+03   -0.12985E-02   -0.12971E-02  6048   0.293E-02-0.179E-04
CGA:   3    -0.369202779626E+03   -0.62303E-03   -0.62155E-03  6048   0.495E-03-0.156E-04
CGA:   4    -0.369202868532E+03   -0.88906E-04   -0.92759E-04  6048   0.829E-04 0.283E-04
CGA:   5    -0.369202885877E+03   -0.17345E-04   -0.18435E-04  6048   0.184E-04 0.102E-04
CGA:   6    -0.369202893350E+03   -0.74731E-05   -0.96281E-05  6048   0.245E-04-0.139E-04
  59 F= -.36920289E+03 E0= -.36920289E+03  d E =-.174605E-03  mag=    12.0000
       N       E                     dE             d eps       ncg     rms          ort
SDA:   1    -0.369182827624E+03    0.20058E-01    0.00000E+00  6048   0.596E-01 0.000E+00
CGA:   2    -0.369195608562E+03   -0.12781E-01   -0.12791E-01  6048   0.290E-01 0.427E-04
CGA:   3    -0.369201961680E+03   -0.63531E-02   -0.63513E-02  6048   0.501E-02-0.486E-04
CGA:   4    -0.369202927615E+03   -0.96593E-03   -0.96812E-03  6048   0.851E-03 0.178E-04
CGA:   5    -0.369203123206E+03   -0.19559E-03   -0.19619E-03  6048   0.195E-03 0.854E-05
CGA:   6    -0.369203179663E+03   -0.56457E-04   -0.56244E-04  6048   0.707E-04-0.253E-04
CGA:   7    -0.369203200510E+03   -0.20847E-04   -0.21541E-04  6048   0.345E-04-0.123E-04
CGA:   8    -0.369203209388E+03   -0.88780E-05   -0.88712E-05  6048   0.116E-04 0.440E-06
  60 F= -.36920321E+03 E0= -.36920321E+03  d E =-.316038E-03  mag=    12.0000
       N       E                     dE             d eps       ncg     rms          ort
SDA:   1    -0.369157807939E+03    0.45393E-01    0.00000E+00  6048   0.112E+00 0.000E+00
CGA:   2    -0.369191306631E+03   -0.33499E-01   -0.33498E-01  6048   0.479E-01 0.786E-04
CGA:   3    -0.369200406882E+03   -0.91003E-02   -0.91045E-02  6048   0.861E-02-0.114E-04
CGA:   4    -0.369202103410E+03   -0.16965E-02   -0.16986E-02  6048   0.155E-02 0.172E-04
CGA:   5    -0.369202474842E+03   -0.37143E-03   -0.37237E-03  6048   0.349E-03 0.199E-04
CGA:   6    -0.369202566224E+03   -0.91382E-04   -0.91658E-04  6048   0.114E-03 0.111E-04
CGA:   7    -0.369202604559E+03   -0.38335E-04   -0.38310E-04  6048   0.511E-04 0.546E-06
CGA:   8    -0.369202623692E+03   -0.19133E-04   -0.19115E-04  6048   0.221E-04 0.198E-06
CGA:   9    -0.369202631459E+03   -0.77664E-05   -0.77904E-05  6048   0.770E-05-0.404E-06
  61 F= -.36920263E+03 E0= -.36920263E+03  d E =0.577929E-03  mag=    12.0000
       N       E                     dE             d eps       ncg     rms          ort
SDA:   1    -0.368959977699E+03    0.24265E+00    0.00000E+00  6048   0.592E+00 0.000E+00
CGA:   2    -0.369147173550E+03   -0.18720E+00   -0.18719E+00  6048   0.225E+00 0.189E-03
CGA:   3    -0.369191251260E+03   -0.44078E-01   -0.44098E-01  6048   0.404E-01 0.565E-05
CGA:   4    -0.369199052268E+03   -0.78010E-02   -0.77940E-02  6048   0.762E-02-0.102E-03
CGA:   5    -0.369200875783E+03   -0.18235E-02   -0.18232E-02  6048   0.162E-02-0.911E-05
CGA:   6    -0.369201307809E+03   -0.43203E-03   -0.43210E-03  6048   0.539E-03 0.305E-05
CGA:   7    -0.369201487438E+03   -0.17963E-03   -0.18108E-03  6048   0.263E-03-0.293E-04
CGA:   8    -0.369201578099E+03   -0.90661E-04   -0.90901E-04  6048   0.108E-03-0.311E-05
CGA:   9    -0.369201616898E+03   -0.38798E-04   -0.39372E-04  6048   0.402E-04-0.761E-05
CGA:  10    -0.369201631421E+03   -0.14523E-04   -0.15402E-04  6048   0.200E-04-0.754E-05
CGA:  11    -0.369201637371E+03   -0.59506E-05   -0.58968E-05  6048   0.834E-05 0.847E-06
  62 F= -.36920164E+03 E0= -.36920164E+03  d E =0.994087E-03  mag=    12.0000
       N       E                     dE             d eps       ncg     rms          ort
SDA:   1    -0.368000102655E+03    0.12015E+01    0.00000E+00  6048   0.283E+01 0.000E+00
CGA:   2    -0.368902435405E+03   -0.90233E+00   -0.90229E+00  6048   0.105E+01 0.148E-02
CGA:   3    -0.369114379918E+03   -0.21194E+00   -0.21200E+00  6048   0.203E+00-0.186E-03
CGA:   4    -0.369154124450E+03   -0.39745E-01   -0.39679E-01  6048   0.417E-01-0.844E-03
CGA:   5    -0.369164344502E+03   -0.10220E-01   -0.10208E-01  6048   0.994E-02-0.262E-03
CGA:   6    -0.369167159812E+03   -0.28153E-02   -0.28154E-02  6048   0.359E-02 0.975E-05
CGA:   7    -0.369168270176E+03   -0.11104E-02   -0.11103E-02  6048   0.147E-02 0.246E-05
CGA:   8    -0.369168793429E+03   -0.52325E-03   -0.52565E-03  6048   0.555E-03-0.362E-04
CGA:   9    -0.369168983600E+03   -0.19017E-03   -0.19272E-03  6048   0.197E-03-0.414E-04
CGA:  10    -0.369169048796E+03   -0.65196E-04   -0.66109E-04  6048   0.807E-04-0.139E-04
CGA:  11    -0.369169076196E+03   -0.27400E-04   -0.27033E-04  6048   0.374E-04 0.608E-05
CGA:  12    -0.369169090984E+03   -0.14788E-04   -0.14482E-04  6048   0.178E-04 0.534E-05
CGA:  13    -0.369169096431E+03   -0.54464E-05   -0.56551E-05  6048   0.624E-05 0.720E-05
  63 F= -.36916910E+03 E0= -.36916910E+03  d E =0.325409E-01  mag=    12.0000
       N       E                     dE             d eps       ncg     rms          ort
SDA:   1    -0.368936936316E+03    0.23215E+00    0.00000E+00  6048   0.610E+00 0.000E+00
CGA:   2    -0.369137349418E+03   -0.20041E+00   -0.20041E+00  6048   0.208E+00 0.358E-04
CGA:   3    -0.369184219061E+03   -0.46870E-01   -0.46929E-01  6048   0.452E-01 0.632E-03
CGA:   4    -0.369193550290E+03   -0.93312E-02   -0.93243E-02  6048   0.110E-01-0.110E-03
CGA:   5    -0.369196244643E+03   -0.26944E-02   -0.26980E-02  6048   0.295E-02 0.687E-04
CGA:   6    -0.369197141482E+03   -0.89684E-03   -0.89602E-03  6048   0.104E-02 0.113E-03
CGA:   7    -0.369197465567E+03   -0.32409E-03   -0.32402E-03  6048   0.400E-03 0.185E-04
CGA:   8    -0.369197598964E+03   -0.13340E-03   -0.13351E-03  6048   0.124E-03-0.356E-05
CGA:   9    -0.369197641572E+03   -0.42608E-04   -0.42959E-04  6048   0.398E-04-0.688E-05
CGA:  10    -0.369197654916E+03   -0.13344E-04   -0.13626E-04  6048   0.153E-04-0.449E-05
CGA:  11    -0.369197642409E+03    0.12507E-04   -0.16420E-04  6048   0.119E-03-0.318E-04
CGA:  12    -0.369197664483E+03   -0.22074E-04   -0.23491E-04  6048   0.133E-04 0.933E-05
CGA:  13    -0.369197669484E+03   -0.50013E-05   -0.50258E-05  6048   0.574E-05-0.248E-05
  64 F= -.36919767E+03 E0= -.36919767E+03  d E =-.285731E-01  mag=    12.0000
       N       E                     dE             d eps       ncg     rms          ort
SDA:   1    -0.369037307265E+03    0.16036E+00    0.00000E+00  6048   0.392E+00 0.000E+00
CGA:   2    -0.369158153567E+03   -0.12085E+00   -0.12084E+00  6048   0.166E+00-0.323E-03
CGA:   3    -0.369189450016E+03   -0.31296E-01   -0.31362E-01  6048   0.287E-01 0.288E-03
CGA:   4    -0.369195039448E+03   -0.55894E-02   -0.55936E-02  6048   0.512E-02 0.104E-04
CGA:   5    -0.369196294349E+03   -0.12549E-02   -0.12540E-02  6048   0.114E-02-0.129E-04
CGA:   6    -0.369196593768E+03   -0.29942E-03   -0.29945E-03  6048   0.365E-03-0.177E-06
CGA:   7    -0.369196715302E+03   -0.12153E-03   -0.12192E-03  6048   0.170E-03-0.212E-04
CGA:   8    -0.369196770855E+03   -0.55554E-04   -0.55403E-04  6048   0.632E-04 0.516E-05
CGA:   9    -0.369196794435E+03   -0.23579E-04   -0.23762E-04  6048   0.240E-04-0.392E-05
CGA:  10    -0.369196803391E+03   -0.89560E-05   -0.13217E-04  6048   0.294E-04-0.160E-04
  65 F= -.36919680E+03 E0= -.36919680E+03  d E =0.866094E-03  mag=    12.0000
       N       E                     dE             d eps       ncg     rms          ort
SDA:   1    -0.360656125165E+03    0.85407E+01    0.00000E+00  6048   0.207E+02 0.000E+00
CGA:   2    -0.367216047162E+03   -0.65599E+01   -0.65601E+01  6048   0.856E+01 0.311E-02
CGA:   3    -0.368801271114E+03   -0.15852E+01   -0.15872E+01  6048   0.142E+01 0.446E-02
CGA:   4    -0.369080185524E+03   -0.27891E+00   -0.27885E+00  6048   0.261E+00-0.161E-02
CGA:   5    -0.369143446521E+03   -0.63261E-01   -0.63233E-01  6048   0.568E-01-0.449E-03
CGA:   6    -0.369158233245E+03   -0.14787E-01   -0.14786E-01  6048   0.181E-01-0.599E-04
CGA:   7    -0.369164091965E+03   -0.58587E-02   -0.58643E-02  6048   0.795E-02-0.321E-03
CGA:   8    -0.369167034562E+03   -0.29426E-02   -0.29582E-02  6048   0.343E-02-0.222E-03
CGA:   9    -0.369168208130E+03   -0.11736E-02   -0.11825E-02  6048   0.115E-02-0.210E-03
CGA:  10    -0.369168599149E+03   -0.39102E-03   -0.39611E-03  6048   0.442E-03-0.993E-04
CGA:  11    -0.369168768164E+03   -0.16902E-03   -0.17098E-03  6048   0.242E-03-0.187E-04
CGA:  12    -0.369168841826E+03   -0.73662E-04   -0.73874E-04  6048   0.106E-03 0.554E-04
[...]
  81 F= -.36919046E+03 E0= -.36919046E+03  d E =0.807181E-03  mag=    12.0000
       N       E                     dE             d eps       ncg     rms          ort
SDA:   1    -0.360801680398E+03    0.83888E+01    0.00000E+00  6048   0.200E+02 0.000E+00
CGA:   2    -0.367593979562E+03   -0.67923E+01   -0.67930E+01  6048   0.634E+01 0.632E-02
CGA:   3    -0.368874179812E+03   -0.12802E+01   -0.12810E+01  6048   0.112E+01-0.114E-02
CGA:   4    -0.369093454610E+03   -0.21927E+00   -0.21918E+00  6048   0.233E+00-0.115E-02
CGA:   5    -0.369147721754E+03   -0.54267E-01   -0.54274E-01  6048   0.486E-01-0.464E-04
CGA:   6    -0.369161348985E+03   -0.13627E-01   -0.13612E-01  6048   0.162E-01-0.246E-03
CGA:   7    -0.369166631130E+03   -0.52821E-02   -0.52754E-02  6048   0.759E-02-0.428E-03
CGA:   8    -0.369169305600E+03   -0.26745E-02   -0.26798E-02  6048   0.299E-02-0.259E-03
CGA:   9    -0.369170310594E+03   -0.10050E-02   -0.10060E-02  6048   0.936E-03-0.177E-03
CGA:  10    -0.369170616602E+03   -0.30601E-03   -0.30621E-03  6048   0.336E-03-0.490E-04
CGA:  11    -0.369170757253E+03   -0.14065E-03   -0.14452E-03  6048   0.217E-03-0.356E-04
CGA:  12    -0.369170820264E+03   -0.63011E-04   -0.63890E-04  6048   0.969E-04 0.446E-04
CGA:  13    -0.369170868251E+03   -0.47987E-04   -0.48281E-04  6048   0.505E-04-0.463E-05
CGA:  14    -0.369170886483E+03   -0.18232E-04   -0.18163E-04  6048   0.160E-04 0.257E-05
CGA:  15    -0.369170891902E+03   -0.54193E-05   -0.54623E-05  6048   0.549E-05 0.151E-05
  82 F= -.36917089E+03 E0= -.36917089E+03  d E =0.195697E-01  mag=    12.0000
       N       E                     dE             d eps       ncg     rms          ort
SDA:   1    -0.368122074111E+03    0.10488E+01    0.00000E+00  6048   0.265E+01 0.000E+00
CGA:   2    -0.368931959777E+03   -0.80989E+00   -0.80993E+00  6048   0.943E+00-0.858E-03
CGA:   3    -0.369131961523E+03   -0.20000E+00   -0.20006E+00  6048   0.177E+00-0.294E-03
CGA:   4    -0.369165409491E+03   -0.33448E-01   -0.33553E-01  6048   0.350E-01 0.563E-03
CGA:   5    -0.369173784956E+03   -0.83755E-02   -0.83865E-02  6048   0.777E-02 0.105E-03
CGA:   6    -0.369176062694E+03   -0.22777E-02   -0.22718E-02  6048   0.290E-02-0.159E-03
CGA:   7    -0.369176971637E+03   -0.90894E-03   -0.90860E-03  6048   0.133E-02-0.423E-04
CGA:   8    -0.369177438258E+03   -0.46662E-03   -0.46646E-03  6048   0.521E-03 0.505E-05
CGA:   9    -0.369177618813E+03   -0.18056E-03   -0.18056E-03  6048   0.174E-03-0.463E-06
CGA:  10    -0.369177677277E+03   -0.58464E-04   -0.58409E-04  6048   0.636E-04 0.879E-05
CGA:  11    -0.369177704280E+03   -0.27002E-04   -0.26637E-04  6048   0.335E-04 0.528E-05
CGA:  12    -0.369177715880E+03   -0.11600E-04   -0.11713E-04  6048   0.139E-04 0.105E-04
CGA:  13    -0.369177722092E+03   -0.62119E-05   -0.61870E-05  6048   0.564E-05 0.382E-05
  83 F= -.36917772E+03 E0= -.36917772E+03  d E =-.683019E-02  mag=    12.0000
       N       E                     dE             d eps       ncg     rms          ort
SDA:   1    -0.367054874441E+03    0.21228E+01    0.00000E+00  6048   0.506E+01 0.000E+00
CGA:   2    -0.368780450667E+03   -0.17256E+01   -0.17255E+01  6048   0.162E+01 0.164E-02
CGA:   3    -0.369110567826E+03   -0.33012E+00   -0.33018E+00  6048   0.288E+00-0.763E-03
CGA:   4    -0.369166820164E+03   -0.56252E-01   -0.56236E-01  6048   0.603E-01-0.366E-03
CGA:   5    -0.369180903849E+03   -0.14084E-01   -0.14081E-01  6048   0.128E-01-0.579E-04
CGA:   6    -0.369184485493E+03   -0.35816E-02   -0.35834E-02  6048   0.419E-02 0.477E-04
CGA:   7    -0.369185828922E+03   -0.13434E-02   -0.13434E-02  6048   0.188E-02 0.187E-06
CGA:   8    -0.369186520385E+03   -0.69146E-03   -0.69523E-03  6048   0.769E-03-0.672E-04
CGA:   9    -0.369186776077E+03   -0.25569E-03   -0.25661E-03  6048   0.237E-03-0.307E-04
CGA:  10    -0.369186851099E+03   -0.75022E-04   -0.74983E-04  6048   0.815E-04 0.315E-05
CGA:  11    -0.369186882619E+03   -0.31520E-04   -0.31120E-04  6048   0.424E-04 0.669E-05
CGA:  12    -0.369186901481E+03   -0.18863E-04   -0.18357E-04  6048   0.238E-04 0.635E-05
CGA:  13    -0.369186909370E+03   -0.78889E-05   -0.81394E-05  6048   0.860E-05 0.917E-05
  84 F= -.36918691E+03 E0= -.36918691E+03  d E =-.918728E-02  mag=    12.0000
       N       E                     dE             d eps       ncg     rms          ort
SDA:   1    -0.368657456591E+03    0.52944E+00    0.00000E+00  6048   0.126E+01 0.000E+00
CGA:   2    -0.369072549622E+03   -0.41509E+00   -0.41507E+00  6048   0.423E+00 0.171E-02
CGA:   3    -0.369161201895E+03   -0.88652E-01   -0.88678E-01  6048   0.784E-01-0.584E-05
CGA:   4    -0.369176713930E+03   -0.15512E-01   -0.15429E-01  6048   0.167E-01-0.773E-03
CGA:   5    -0.369180646334E+03   -0.39324E-02   -0.39298E-02  6048   0.376E-02-0.431E-04
CGA:   6    -0.369181668352E+03   -0.10220E-02   -0.10274E-02  6048   0.119E-02 0.171E-03
CGA:   7    -0.369182067903E+03   -0.39955E-03   -0.39931E-03  6048   0.539E-03 0.151E-04
CGA:   8    -0.369182265901E+03   -0.19800E-03   -0.19930E-03  6048   0.212E-03-0.215E-04
CGA:   9    -0.369182339413E+03   -0.73512E-04   -0.74939E-04  6048   0.743E-04-0.238E-04
CGA:  10    -0.369182362825E+03   -0.23411E-04   -0.23812E-04  6048   0.292E-04-0.799E-05
CGA:  11    -0.369182374422E+03   -0.11597E-04   -0.13372E-04  6048   0.245E-04-0.888E-05
CGA:  12    -0.369182381507E+03   -0.70856E-05   -0.80297E-05  6048   0.169E-04-0.638E-05
  85 F= -.36918238E+03 E0= -.36918238E+03  d E =0.452786E-02  mag=    12.0000
       N       E                     dE             d eps       ncg     rms          ort
SDA:   1    -0.369060065550E+03    0.12231E+00    0.00000E+00  6048   0.297E+00 0.000E+00
CGA:   2    -0.369158130252E+03   -0.98065E-01   -0.98060E-01  6048   0.105E+00-0.107E-02
CGA:   3    -0.369179102693E+03   -0.20972E-01   -0.21011E-01  6048   0.222E-01 0.205E-03
CGA:   4    -0.369183413356E+03   -0.43107E-02   -0.43531E-02  6048   0.423E-02 0.306E-03
CGA:   5    -0.369184489365E+03   -0.10760E-02   -0.10783E-02  6048   0.110E-02 0.329E-04
CGA:   6    -0.369184852062E+03   -0.36270E-03   -0.36410E-03  6048   0.490E-03-0.139E-03
CGA:   7    -0.369184989550E+03   -0.13749E-03   -0.13772E-03  6048   0.207E-03-0.618E-04
CGA:   8    -0.369185039609E+03   -0.50059E-04   -0.50622E-04  6048   0.533E-04 0.144E-04
CGA:   9    -0.369185053283E+03   -0.13674E-04   -0.14386E-04  6048   0.154E-04 0.111E-04
CGA:  10    -0.369185059277E+03   -0.59941E-05   -0.59946E-05  6048   0.582E-05-0.601E-07
  86 F= -.36918506E+03 E0= -.36918506E+03  d E =-.267777E-02  mag=    12.0000
       N       E                     dE             d eps       ncg     rms          ort
SDA:   1    -0.369171648117E+03    0.13405E-01    0.00000E+00  6048   0.355E-01 0.000E+00
CGA:   2    -0.369182577170E+03   -0.10929E-01   -0.10928E-01  6048   0.120E-01-0.195E-03
CGA:   3    -0.369185249245E+03   -0.26721E-02   -0.26766E-02  6048   0.210E-02 0.434E-04
CGA:   4    -0.369185648995E+03   -0.39975E-03   -0.40693E-03  6048   0.465E-03 0.595E-04
CGA:   5    -0.369185759107E+03   -0.11011E-03   -0.11069E-03  6048   0.111E-03 0.765E-05
CGA:   6    -0.369185797334E+03   -0.38227E-04   -0.38981E-04  6048   0.536E-04-0.166E-04
CGA:   7    -0.369185810553E+03   -0.13218E-04   -0.13209E-04  6048   0.213E-04-0.681E-06
CGA:   8    -0.369185816124E+03   -0.55715E-05   -0.56776E-05  6048   0.657E-05 0.323E-05
  87 F= -.36918582E+03 E0= -.36918582E+03  d E =-.756847E-03  mag=    12.0000
       N       E                     dE             d eps       ncg     rms          ort
SDA:   1    -0.369169124731E+03    0.16686E-01    0.00000E+00  6048   0.385E-01 0.000E+00
CGA:   2    -0.369182008668E+03   -0.12884E-01   -0.12886E-01  6048   0.158E-01-0.636E-04
CGA:   3    -0.369184700208E+03   -0.26915E-02   -0.27082E-02  6048   0.250E-02 0.111E-03
CGA:   4    -0.369185228928E+03   -0.52872E-03   -0.52687E-03  6048   0.478E-03-0.222E-04
CGA:   5    -0.369185344343E+03   -0.11541E-03   -0.11453E-03  6048   0.107E-03-0.177E-04
CGA:   6    -0.369185368749E+03   -0.24406E-04   -0.24608E-04  6048   0.270E-04 0.395E-05
CGA:   7    -0.369185377491E+03   -0.87420E-05   -0.87315E-05  6048   0.109E-04 0.424E-06
  88 F= -.36918538E+03 E0= -.36918538E+03  d E =0.438633E-03  mag=    12.0000
       N       E                     dE             d eps       ncg     rms          ort
SDA:   1    -0.365908154414E+03    0.32772E+01    0.00000E+00  6048   0.776E+01 0.000E+00
CGA:   2    -0.368462737890E+03   -0.25546E+01   -0.25544E+01  6048   0.327E+01 0.576E-03
CGA:   3    -0.369031442331E+03   -0.56870E+00   -0.56946E+00  6048   0.515E+00 0.158E-02
CGA:   4    -0.369137586164E+03   -0.10614E+00   -0.10607E+00  6048   0.973E-01-0.104E-02
CGA:   5    -0.369160575160E+03   -0.22989E-01   -0.22968E-01  6048   0.212E-01-0.423E-03
CGA:   6    -0.369165931939E+03   -0.53568E-02   -0.53607E-02  6048   0.603E-02 0.119E-03
CGA:   7    -0.369167869040E+03   -0.19371E-02   -0.19386E-02  6048   0.246E-02-0.414E-04
CGA:   8    -0.369168795358E+03   -0.92632E-03   -0.94166E-03  6048   0.106E-02-0.152E-03
CGA:   9    -0.369169140413E+03   -0.34506E-03   -0.35108E-03  6048   0.317E-03-0.970E-04
CGA:  10    -0.369169241964E+03   -0.10155E-03   -0.10461E-03  6048   0.105E-03-0.440E-04
CGA:  11    -0.369169280414E+03   -0.38450E-04   -0.41858E-04  6048   0.664E-04-0.204E-04
CGA:  12    -0.369169302091E+03   -0.21677E-04   -0.22315E-04  6048   0.487E-04-0.575E-05
CGA:  13    -0.369169315396E+03   -0.13305E-04   -0.13315E-04  6048   0.196E-04 0.826E-06
CGA:  14    -0.369169324150E+03   -0.87544E-05   -0.10071E-04  6048   0.108E-04-0.676E-05
CGA:  15    -0.369169311306E+03    0.12844E-04   -0.10084E-04  6048   0.632E-04-0.208E-04
CGA:  16    -0.369169327860E+03   -0.16553E-04   -0.17076E-04  6048   0.775E-05 0.498E-05
CGA:  17    -0.369169331414E+03   -0.35539E-05   -0.35866E-05  6048   0.435E-05-0.546E-06
  89 F= -.36916933E+03 E0= -.36916933E+03  d E =0.160461E-01  mag=    12.0000
       N       E                     dE             d eps       ncg     rms          ort
SDA:   1    -0.356629995568E+03    0.12539E+02    0.00000E+00  6048   0.300E+02 0.000E+00
CGA:   2    -0.366308933485E+03   -0.96789E+01   -0.96807E+01  6048   0.131E+02-0.159E-02
CGA:   3    -0.368588834760E+03   -0.22799E+01   -0.22866E+01  6048   0.198E+01 0.190E-01
CGA:   4    -0.369000701374E+03   -0.41187E+00   -0.41189E+00  6048   0.385E+00-0.383E-03
CGA:   5    -0.369092202499E+03   -0.91501E-01   -0.91423E-01  6048   0.864E-01-0.799E-03
CGA:   6    -0.369114631854E+03   -0.22429E-01   -0.22407E-01  6048   0.263E-01-0.322E-03
CGA:   7    -0.369123177174E+03   -0.85453E-02   -0.85402E-02  6048   0.109E-01-0.397E-03
CGA:   8    -0.369127112990E+03   -0.39358E-02   -0.39461E-02  6048   0.423E-02-0.345E-03
CGA:   9    -0.369128508421E+03   -0.13954E-02   -0.13956E-02  6048   0.119E-02-0.256E-03
CGA:  10    -0.369128900284E+03   -0.39186E-03   -0.39337E-03  6048   0.363E-03-0.118E-03
CGA:  11    -0.369129027793E+03   -0.12751E-03   -0.12799E-03  6048   0.168E-03-0.939E-05
CGA:  12    -0.369129083936E+03   -0.56143E-04   -0.56119E-04  6048   0.908E-04 0.314E-04
CGA:  13    -0.369129127617E+03   -0.43681E-04   -0.43428E-04  6048   0.567E-04 0.413E-05
CGA:  14    -0.369129151481E+03   -0.23864E-04   -0.23717E-04  6048   0.239E-04 0.272E-05
CGA:  15    -0.369129163024E+03   -0.11542E-04   -0.16438E-04  6048   0.299E-04-0.159E-04
CGA:  16    -0.369129170624E+03   -0.75998E-05   -0.76667E-05  6048   0.554E-05 0.618E-06
  90 F= -.36912917E+03 E0= -.36912917E+03  d E =0.401608E-01  mag=    12.0000
       N       E                     dE             d eps       ncg     rms          ort
SDA:   1    -0.363967945670E+03    0.51612E+01    0.00000E+00  6048   0.123E+02 0.000E+00
CGA:   2    -0.368049374708E+03   -0.40814E+01   -0.40816E+01  6048   0.494E+01-0.228E-02
CGA:   3    -0.368934600685E+03   -0.88523E+00   -0.88611E+00  6048   0.831E+00-0.129E-02
CGA:   4    -0.369103293462E+03   -0.16869E+00   -0.16882E+00  6048   0.156E+00 0.533E-03
CGA:   5    -0.369140866363E+03   -0.37573E-01   -0.37584E-01  6048   0.352E-01 0.764E-04
CGA:   6    -0.369150295155E+03   -0.94288E-02   -0.94000E-02  6048   0.110E-01-0.432E-03
CGA:   7    -0.369153796972E+03   -0.35018E-02   -0.34989E-02  6048   0.452E-02-0.252E-03
CGA:   8    -0.369155402710E+03   -0.16057E-02   -0.16106E-02  6048   0.173E-02-0.149E-03
CGA:   9    -0.369155969275E+03   -0.56657E-03   -0.56702E-03  6048   0.492E-03-0.821E-04
CGA:  10    -0.369156116910E+03   -0.14764E-03   -0.14774E-03  6048   0.137E-03 0.524E-05
CGA:  11    -0.369156165940E+03   -0.49030E-04   -0.48871E-04  6048   0.637E-04 0.827E-05
CGA:  12    -0.369156184584E+03   -0.18644E-04   -0.19634E-04  6048   0.309E-04 0.229E-04
CGA:  13    -0.369156197777E+03   -0.13193E-04   -0.13385E-04  6048   0.162E-04 0.149E-04
CGA:  14    -0.369156204020E+03   -0.62437E-05   -0.67628E-05  6048   0.865E-05 0.105E-04
  91 F= -.36915620E+03 E0= -.36915620E+03  d E =-.270334E-01  mag=    12.0000
       N       E                     dE             d eps       ncg     rms          ort
SDA:   1    -0.361145474774E+03    0.80107E+01    0.00000E+00  6048   0.196E+02 0.000E+00
CGA:   2    -0.367201537578E+03   -0.60561E+01   -0.60564E+01  6048   0.909E+01 0.638E-02
CGA:   3    -0.368812236014E+03   -0.16107E+01   -0.16129E+01  6048   0.138E+01 0.200E-03
CGA:   4    -0.369093157134E+03   -0.28092E+00   -0.28088E+00  6048   0.259E+00-0.925E-03
CGA:   5    -0.369154549982E+03   -0.61393E-01   -0.61410E-01  6048   0.585E-01 0.139E-03
CGA:   6    -0.369169615546E+03   -0.15066E-01   -0.15068E-01  6048   0.175E-01 0.251E-04
CGA:   7    -0.369175293500E+03   -0.56780E-02   -0.56828E-02  6048   0.734E-02-0.223E-03
CGA:   8    -0.369178017766E+03   -0.27243E-02   -0.27516E-02  6048   0.311E-02-0.358E-03
CGA:   9    -0.369179010556E+03   -0.99279E-03   -0.99679E-03  6048   0.907E-03-0.135E-03
CGA:  10    -0.369179287982E+03   -0.27743E-03   -0.27720E-03  6048   0.265E-03 0.200E-04
CGA:  11    -0.369179400407E+03   -0.11243E-03   -0.11370E-03  6048   0.158E-03-0.116E-04
CGA:  12    -0.369179456304E+03   -0.55897E-04   -0.54851E-04  6048   0.883E-04 0.217E-04
CGA:  13    -0.369179495505E+03   -0.39201E-04   -0.39086E-04  6048   0.476E-04 0.148E-05
CGA:  14    -0.369179505555E+03   -0.10049E-04   -0.11578E-04  6048   0.167E-04 0.188E-04
CGA:  15    -0.369179509079E+03   -0.35245E-05   -0.46250E-05  6048   0.653E-05 0.933E-05
  92 F= -.36917951E+03 E0= -.36917951E+03  d E =-.233051E-01  mag=    12.0000
       N       E                     dE             d eps       ncg     rms          ort
SDA:   1    -0.367948793936E+03    0.12307E+01    0.00000E+00  6048   0.294E+01 0.000E+00
CGA:   2    -0.368909521964E+03   -0.96073E+00   -0.96084E+00  6048   0.105E+01 0.139E-02
CGA:   3    -0.369118860644E+03   -0.20934E+00   -0.20949E+00  6048   0.192E+00 0.188E-04
CGA:   4    -0.369156577596E+03   -0.37717E-01   -0.37578E-01  6048   0.387E-01-0.103E-02
CGA:   5    -0.369165874241E+03   -0.92966E-02   -0.92820E-02  6048   0.859E-02-0.147E-03
CGA:   6    -0.369168233742E+03   -0.23595E-02   -0.23681E-02  6048   0.282E-02 0.124E-03
CGA:   7    -0.369169152229E+03   -0.91849E-03   -0.91789E-03  6048   0.126E-02-0.299E-04
CGA:   8    -0.369169606839E+03   -0.45461E-03   -0.45572E-03  6048   0.502E-03-0.424E-04
CGA:   9    -0.369169779074E+03   -0.17224E-03   -0.17281E-03  6048   0.171E-03-0.379E-04
CGA:  10    -0.369169836977E+03   -0.57903E-04   -0.58412E-04  6048   0.704E-04-0.183E-04
CGA:  11    -0.369169863380E+03   -0.26403E-04   -0.27009E-04  6048   0.418E-04-0.710E-05
CGA:  12    -0.369169877099E+03   -0.13719E-04   -0.13682E-04  6048   0.198E-04 0.226E-05
CGA:  13    -0.369169884891E+03   -0.77924E-05   -0.77872E-05  6048   0.755E-05 0.201E-06
  93 F= -.36916988E+03 E0= -.36916988E+03  d E =0.962419E-02  mag=    12.0000
       N       E                     dE             d eps       ncg     rms          ort
SDA:   1    -0.367740282075E+03    0.14296E+01    0.00000E+00  6048   0.356E+01 0.000E+00
CGA:   2    -0.368786540544E+03   -0.10463E+01   -0.10462E+01  6048   0.173E+01-0.258E-02
CGA:   3    -0.369102687949E+03   -0.31615E+00   -0.31663E+00  6048   0.269E+00 0.987E-03
CGA:   4    -0.369156656339E+03   -0.53968E-01   -0.54038E-01  6048   0.480E-01 0.364E-03
CGA:   5    -0.369168125828E+03   -0.11469E-01   -0.11462E-01  6048   0.112E-01-0.897E-04
CGA:   6    -0.369171039573E+03   -0.29137E-02   -0.29034E-02  6048   0.338E-02-0.151E-03
CGA:   7    -0.369172120564E+03   -0.10810E-02   -0.10807E-02  6048   0.143E-02-0.941E-04
CGA:   8    -0.369172625259E+03   -0.50470E-03   -0.50482E-03  6048   0.576E-03-0.371E-05
CGA:   9    -0.369172825350E+03   -0.20009E-03   -0.20047E-03  6048   0.190E-03-0.190E-04
CGA:  10    -0.369172899865E+03   -0.74515E-04   -0.79536E-04  6048   0.101E-03-0.487E-04
CGA:  11    -0.369172924666E+03   -0.24801E-04   -0.24834E-04  6048   0.404E-04 0.642E-05
CGA:  12    -0.369172937139E+03   -0.12473E-04   -0.12787E-04  6048   0.177E-04 0.836E-05
CGA:  13    -0.369172942801E+03   -0.56627E-05   -0.60181E-05  6048   0.728E-05 0.685E-05
  94 F= -.36917294E+03 E0= -.36917294E+03  d E =-.305791E-02  mag=    12.0000
       N       E                     dE             d eps       ncg     rms          ort
SDA:   1    -0.369022879692E+03    0.15006E+00    0.00000E+00  6048   0.352E+00 0.000E+00
CGA:   2    -0.369141274842E+03   -0.11840E+00   -0.11839E+00  6048   0.133E+00-0.829E-03
CGA:   3    -0.369164850390E+03   -0.23576E-01   -0.23636E-01  6048   0.240E-01 0.249E-03
CGA:   4    -0.369169709192E+03   -0.48588E-02   -0.48884E-02  6048   0.426E-02 0.224E-03
CGA:   5    -0.369170732767E+03   -0.10236E-02   -0.10254E-02  6048   0.965E-03 0.209E-04
CGA:   6    -0.369171003553E+03   -0.27079E-03   -0.26885E-03  6048   0.315E-03-0.464E-04
CGA:   7    -0.369171105774E+03   -0.10222E-03   -0.10320E-03  6048   0.147E-03-0.368E-04
CGA:   8    -0.369171145898E+03   -0.40123E-04   -0.40184E-04  6048   0.432E-04 0.698E-05
CGA:   9    -0.369171160365E+03   -0.14468E-04   -0.14467E-04  6048   0.125E-04 0.630E-06
CGA:  10    -0.369171163545E+03   -0.31797E-05   -0.88792E-05  6048   0.281E-04-0.149E-04
  95 F= -.36917116E+03 E0= -.36917116E+03  d E =0.177926E-02  mag=    12.0000
       N       E                     dE             d eps       ncg     rms          ort
SDA:   1    -0.369143984433E+03    0.27176E-01    0.00000E+00  6048   0.635E-01 0.000E+00
CGA:   2    -0.369164792551E+03   -0.20808E-01   -0.20809E-01  6048   0.222E-01 0.337E-03
CGA:   3    -0.369169273114E+03   -0.44806E-02   -0.44771E-02  6048   0.418E-02-0.436E-04
CGA:   4    -0.369170143967E+03   -0.87085E-03   -0.84892E-03  6048   0.895E-03-0.184E-03
CGA:   5    -0.369170349874E+03   -0.20591E-03   -0.20417E-03  6048   0.194E-03-0.221E-04
CGA:   6    -0.369170390843E+03   -0.40968E-04   -0.43588E-04  6048   0.517E-04 0.309E-04
CGA:   7    -0.369170406946E+03   -0.16103E-04   -0.16486E-04  6048   0.215E-04 0.110E-04
CGA:   8    -0.369170418537E+03   -0.11592E-04   -0.12471E-04  6048   0.172E-04-0.519E-05
CGA:   9    -0.369170422559E+03   -0.40221E-05   -0.39921E-05  6048   0.677E-05-0.252E-05
  96 F= -.36917042E+03 E0= -.36917042E+03  d E =0.740986E-03  mag=    12.0000
       N       E                     dE             d eps       ncg     rms          ort
SDA:   1    -0.369162375428E+03    0.80431E-02    0.00000E+00  6048   0.190E-01 0.000E+00
CGA:   2    -0.369168223425E+03   -0.58480E-02   -0.58512E-02  6048   0.722E-02 0.166E-03
CGA:   3    -0.369169646183E+03   -0.14228E-02   -0.14337E-02  6048   0.139E-02 0.789E-04
CGA:   4    -0.369169959617E+03   -0.31343E-03   -0.30029E-03  6048   0.310E-03-0.127E-03
CGA:   5    -0.369170028448E+03   -0.68830E-04   -0.67352E-04  6048   0.747E-04-0.201E-04
CGA:   6    -0.369170037179E+03   -0.87315E-05   -0.11908E-04  6048   0.194E-04 0.228E-04
  97 F= -.36917004E+03 E0= -.36917004E+03  d E =0.385380E-03  mag=    12.0000
