       N       E                     dE             d eps       ncg     rms          ort
DAV:   1     0.244874330829E+04    0.24487E+04   -0.13979E+05 10584   0.165E+03
DAV:   2    -0.120854020764E+03   -0.25696E+04   -0.23941E+04 10584   0.422E+02
DAV:   3    -0.415014337187E+03   -0.29416E+03   -0.28794E+03 10584   0.160E+02
DAV:   4    -0.425510094276E+03   -0.10496E+02   -0.10392E+02 10584   0.298E+01
DAV:   5    -0.425989763583E+03   -0.47967E+00   -0.47840E+00 10584   0.478E+00
SDA:   6    -0.343301746883E+03    0.82688E+02   -0.47840E+00 10584   0.861E+02 0.000E+00
CGA:   7    -0.340973491976E+03    0.23283E+01   -0.68736E+01 10584   0.749E+02-0.301E+02
CGA:   8    -0.346189508809E+03   -0.52160E+01   -0.29661E+01 10584   0.630E+02-0.906E+02
CGA:   9    -0.342613758274E+03    0.35758E+01   -0.42869E+01 10584   0.846E+02-0.370E+02
CGA:  10    -0.339574210969E+03    0.30395E+01   -0.49458E+01 10584   0.112E+03-0.843E+02
CGA:  11    -0.339985047313E+03   -0.41084E+00   -0.72872E+01 10584   0.609E+02-0.595E+02
CGA:  12    -0.345226807989E+03   -0.52418E+01   -0.29590E+01 10584   0.111E+03-0.198E+03
CGA:  13    -0.341887463353E+03    0.33393E+01   -0.72031E+01 10584   0.649E+02-0.399E+02
CGA:  14    -0.346478924463E+03   -0.45915E+01   -0.20021E+01 10584   0.724E+02-0.120E+03
CGA:  15    -0.343219543702E+03    0.32594E+01   -0.40822E+01 10584   0.974E+02-0.463E+02
CGA:  16    -0.340304678620E+03    0.29149E+01   -0.50096E+01 10584   0.113E+03-0.867E+02
CGA:  17    -0.340709618897E+03   -0.40494E+00   -0.63938E+01 10584   0.576E+02-0.573E+02
CGA:  18    -0.345850854382E+03   -0.51412E+01   -0.23905E+01 10584   0.103E+03-0.200E+03
CGA:  19    -0.342891246758E+03    0.29596E+01   -0.54176E+01 10584   0.802E+02-0.488E+02
CGA:  20    -0.347771490994E+03   -0.48802E+01   -0.16978E+01 10584   0.588E+00 0.679E+01
CGA:  21    -0.347779908737E+03   -0.84177E-02   -0.92197E-02 10584   0.126E+00-0.297E-01
CGA:  22    -0.347803336383E+03   -0.23428E-01   -0.23645E-01 10584   0.999E+00-0.458E-02
CGA:  23    -0.347846129582E+03   -0.42793E-01   -0.43463E-01 10584   0.103E+00-0.575E-01
CGA:  24    -0.347850333193E+03   -0.42036E-02   -0.44597E-02 10584   0.104E+00-0.600E-02
CGA:  25    -0.347855375054E+03   -0.50419E-02   -0.56248E-02 10584   0.488E-01 0.475E-02
CGA:  26    -0.347857945261E+03   -0.25702E-02   -0.26932E-02 10584   0.530E-01-0.116E-02
CGA:  27    -0.347859649719E+03   -0.17045E-02   -0.20260E-02 10584   0.130E-01 0.164E-02
CGA:  28    -0.347861098957E+03   -0.14492E-02   -0.14538E-02 10584   0.571E-01-0.333E-02
CGA:  29    -0.347863909271E+03   -0.28103E-02   -0.24854E-02 10584   0.156E-01-0.730E-02
CGA:  30    -0.347864122015E+03   -0.21274E-03   -0.21223E-03 10584   0.288E-02-0.385E-03
CGA:  31    -0.347864259971E+03   -0.13796E-03   -0.14872E-03 10584   0.771E-02 0.193E-03
CGA:  32    -0.347864860496E+03   -0.60053E-03   -0.60275E-03 10584   0.501E-02 0.132E-04
CGA:  33    -0.347864968740E+03   -0.10824E-03   -0.11012E-03 10584   0.179E-02-0.878E-04
CGA:  34    -0.347865063537E+03   -0.94797E-04   -0.10175E-03 10584   0.189E-02 0.184E-03
CGA:  35    -0.347865132740E+03   -0.69203E-04   -0.62953E-04 10584   0.797E-03-0.131E-03
CGA:  36    -0.347864483166E+03    0.64957E-03   -0.36357E-03 10584   0.281E-01-0.227E-02
CGA:  37    -0.347864855486E+03   -0.37232E-03   -0.51892E-03 10584   0.263E-02 0.115E-02
CGA:  38    -0.347865192061E+03   -0.33657E-03   -0.35120E-03 10584   0.295E-02 0.581E-03
CGA:  39    -0.347865329770E+03   -0.13771E-03   -0.11341E-03 10584   0.998E-03-0.238E-03
CGA:  40    -0.347865357080E+03   -0.27310E-04   -0.47577E-04 10584   0.334E-03 0.214E-03
CGA:  41    -0.347865412309E+03   -0.55228E-04   -0.60681E-04 10584   0.521E-02-0.658E-03
CGA:  42    -0.347865453433E+03   -0.41124E-04   -0.86507E-04 10584   0.176E-03 0.369E-03
CGA:  43    -0.347865459317E+03   -0.58837E-05   -0.91450E-05 10584   0.196E-03 0.370E-04
CGA:  44    -0.347865487740E+03   -0.28423E-04   -0.18723E-04 10584   0.415E-03-0.188E-03
CGA:  45    -0.347865483566E+03    0.41737E-05   -0.81213E-05 10584   0.117E-03 0.112E-03
   1 F= -.34786548E+03 E0= -.34786253E+03  d E =-.347865E+03  mag=    18.0000
       N       E                     dE             d eps       ncg     rms          ort
SDA:   1    -0.347844780277E+03    0.20707E-01    0.00000E+00 10584   0.226E+00 0.000E+00
CGA:   2    -0.347849135649E+03   -0.43554E-02   -0.46011E-02 10584   0.476E-01 0.716E-02
CGA:   3    -0.347858999298E+03   -0.98636E-02   -0.99073E-02 10584   0.638E-01-0.576E-03
CGA:   4    -0.347861161187E+03   -0.21619E-02   -0.21234E-02 10584   0.394E-01-0.156E-02
CGA:   5    -0.347863652640E+03   -0.24915E-02   -0.25042E-02 10584   0.108E-01 0.516E-03
CGA:   6    -0.347864250159E+03   -0.59752E-03   -0.52478E-03 10584   0.151E-01-0.129E-02
CGA:   7    -0.347865196954E+03   -0.94679E-03   -0.94571E-03 10584   0.246E-02-0.379E-04
CGA:   8    -0.347865224460E+03   -0.27506E-04   -0.62321E-04 10584   0.145E-02 0.419E-03
CGA:   9    -0.347865394228E+03   -0.16977E-03   -0.17051E-03 10584   0.109E-02 0.345E-03
CGA:  10    -0.347865459884E+03   -0.65656E-04   -0.43720E-04 10584   0.730E-03-0.328E-03
CGA:  11    -0.347865479332E+03   -0.19448E-04   -0.27588E-04 10584   0.313E-03 0.181E-03
CGA:  12    -0.347865484164E+03   -0.48320E-05   -0.11467E-04 10584   0.231E-03 0.967E-04
CGA:  13    -0.347865083853E+03    0.40031E-03   -0.21791E-03 10584   0.809E-02-0.119E-02
CGA:  14    -0.347865195987E+03   -0.11213E-03   -0.17746E-03 10584   0.218E-02 0.466E-03
CGA:  15    -0.347865487026E+03   -0.29104E-03   -0.30111E-03 10584   0.896E-03 0.313E-03
CGA:  16    -0.347865507930E+03   -0.20904E-04   -0.25924E-04 10584   0.231E-03 0.298E-04
CGA:  17    -0.347865541878E+03   -0.33947E-04   -0.33762E-04 10584   0.326E-03-0.149E-04
CGA:  18    -0.347865583284E+03   -0.41407E-04   -0.18551E-04 10584   0.715E-03-0.250E-03
CGA:  19    -0.347865578859E+03    0.44249E-05   -0.11602E-04 10584   0.750E-04 0.118E-03
   2 F= -.34786558E+03 E0= -.34786263E+03  d E =-.952933E-04  mag=    18.0000
       N       E                     dE             d eps       ncg     rms          ort
SDA:   1    -0.347860554732E+03    0.50286E-02    0.00000E+00 10584   0.164E+00 0.000E+00
CGA:   2    -0.347863160272E+03   -0.26055E-02   -0.28203E-02 10584   0.676E-02 0.554E-02
CGA:   3    -0.347864185518E+03   -0.10252E-02   -0.10198E-02 10584   0.205E-01 0.339E-03
CGA:   4    -0.347864943428E+03   -0.75791E-03   -0.73417E-03 10584   0.549E-02-0.490E-03
CGA:   5    -0.347865308964E+03   -0.36554E-03   -0.39947E-03 10584   0.369E-02 0.650E-03
CGA:   6    -0.347865492901E+03   -0.18394E-03   -0.14456E-03 10584   0.180E-02-0.493E-03
CGA:   7    -0.347865575337E+03   -0.82436E-04   -0.10108E-03 10584   0.647E-03 0.335E-03
CGA:   8    -0.347865659153E+03   -0.83816E-04   -0.81405E-04 10584   0.127E-02-0.224E-03
CGA:   9    -0.347865664534E+03   -0.53803E-05   -0.15615E-04 10584   0.448E-03 0.104E-03
   3 F= -.34786566E+03 E0= -.34786274E+03  d E =-.180968E-03  mag=    18.0000
       N       E                     dE             d eps       ncg     rms          ort
SDA:   1    -0.347862715391E+03    0.29438E-02    0.00000E+00 10584   0.869E-01 0.000E+00
CGA:   2    -0.347864379632E+03   -0.16642E-02   -0.18159E-02 10584   0.137E-01 0.385E-02
CGA:   3    -0.347865245433E+03   -0.86580E-03   -0.86440E-03 10584   0.257E-02-0.342E-03
CGA:   4    -0.347865331956E+03   -0.86524E-04   -0.85226E-04 10584   0.201E-02-0.398E-04
CGA:   5    -0.347865584762E+03   -0.25281E-03   -0.24615E-03 10584   0.637E-03 0.244E-03
CGA:   6    -0.347865629234E+03   -0.44472E-04   -0.36681E-04 10584   0.126E-02-0.174E-03
CGA:   7    -0.347865680197E+03   -0.50962E-04   -0.55085E-04 10584   0.121E-02 0.115E-03
CGA:   8    -0.347865690233E+03   -0.10037E-04   -0.21377E-04 10584   0.116E-03 0.139E-03
CGA:   9    -0.347865694639E+03   -0.44063E-05   -0.49197E-05 10584   0.169E-03 0.907E-05
CGA:  10    -0.347865711442E+03   -0.16802E-04   -0.18581E-04 10584   0.207E-03-0.124E-03
CGA:  11    -0.347865710447E+03    0.99448E-06   -0.41970E-05 10584   0.674E-04 0.755E-04
   4 F= -.34786571E+03 E0= -.34786280E+03  d E =-.226881E-03  mag=    18.0000
