       N       E                     dE             d eps       ncg     rms          ort
DAV:   1     0.238565178237E+04    0.23857E+04   -0.14305E+05 11088   0.167E+03
DAV:   2    -0.254703352479E+03   -0.26404E+04   -0.24728E+04 11088   0.431E+02
DAV:   3    -0.492187973515E+03   -0.23748E+03   -0.23475E+03 11088   0.138E+02
DAV:   4    -0.498241618267E+03   -0.60536E+01   -0.60338E+01 11088   0.209E+01
DAV:   5    -0.498273397292E+03   -0.31779E-01   -0.31771E-01 11088   0.111E+00
SDA:   6    -0.177618484917E+03    0.32065E+03   -0.31771E-01 11088   0.960E+03 0.000E+00
CGA:   7    -0.303487299243E+03   -0.12587E+03   -0.13108E+03 11088   0.159E+03 0.120E+02
CGA:   8    -0.332182763774E+03   -0.28695E+02   -0.28225E+02 11088   0.689E+02-0.711E+01
CGA:   9    -0.342810022560E+03   -0.10627E+02   -0.10331E+02 11088   0.480E+02-0.189E+01
CGA:  10    -0.350487027869E+03   -0.76770E+01   -0.76939E+01 11088   0.271E+02 0.282E+00
CGA:  11    -0.353811353576E+03   -0.33243E+01   -0.33239E+01 11088   0.114E+02 0.886E-02
CGA:  12    -0.355554104338E+03   -0.17428E+01   -0.17410E+01 11088   0.533E+01-0.818E-01
CGA:  13    -0.356263750624E+03   -0.70965E+00   -0.70472E+00 11088   0.229E+01-0.417E-01
CGA:  14    -0.356682521549E+03   -0.41877E+00   -0.41877E+00 11088   0.147E+01 0.269E-03
CGA:  15    -0.356912525786E+03   -0.23000E+00   -0.23026E+00 11088   0.778E+00 0.154E-01
CGA:  16    -0.357063532872E+03   -0.15101E+00   -0.15089E+00 11088   0.472E+00 0.111E-01
CGA:  17    -0.357141261517E+03   -0.77729E-01   -0.77247E-01 11088   0.276E+00-0.111E-01
CGA:  18    -0.357194927831E+03   -0.53666E-01   -0.53739E-01 11088   0.175E+00-0.478E-02
CGA:  19    -0.357221982481E+03   -0.27055E-01   -0.27086E-01 11088   0.102E+00-0.949E-03
CGA:  20    -0.357244728529E+03   -0.22746E-01   -0.23388E-01 11088   0.542E-01-0.132E-01
CGA:  21    -0.357254774427E+03   -0.10046E-01   -0.10678E-01 11088   0.569E-01-0.145E-01
CGA:  22    -0.357261019292E+03   -0.62449E-02   -0.60200E-02 11088   0.269E-01-0.601E-02
CGA:  23    -0.357264533024E+03   -0.35137E-02   -0.34646E-02 11088   0.226E-01-0.134E-02
CGA:  24    -0.357268568280E+03   -0.40353E-02   -0.40510E-02 11088   0.113E-01-0.270E-02
CGA:  25    -0.357270012343E+03   -0.14441E-02   -0.14199E-02 11088   0.907E-02-0.564E-03
CGA:  26    -0.357271111334E+03   -0.10990E-02   -0.11820E-02 11088   0.513E-02 0.192E-02
CGA:  27    -0.357271537506E+03   -0.42617E-03   -0.57749E-03 11088   0.272E-02 0.183E-02
CGA:  28    -0.357271927691E+03   -0.39018E-03   -0.45885E-03 11088   0.220E-02 0.140E-02
CGA:  29    -0.357272383312E+03   -0.45562E-03   -0.54100E-03 11088   0.435E-02-0.114E-02
CGA:  30    -0.357272578415E+03   -0.19510E-03   -0.29150E-03 11088   0.448E-03 0.925E-03
CGA:  31    -0.357272580214E+03   -0.17999E-05   -0.35310E-04 11088   0.341E-03 0.326E-03
CGA:  32    -0.357272654508E+03   -0.74294E-04   -0.67111E-04 11088   0.253E-03 0.227E-03
CGA:  33    -0.357272651462E+03    0.30468E-05   -0.16765E-04 11088   0.186E-03 0.201E-03
CGA:  34    -0.357272656132E+03   -0.46709E-05   -0.16759E-04 11088   0.159E-03 0.172E-03
CGA:  35    -0.357272659543E+03   -0.34107E-05   -0.13851E-04 11088   0.139E-03 0.149E-03
CGA:  36    -0.357272659815E+03   -0.27171E-06   -0.10490E-04 11088   0.124E-03 0.131E-03
   1 F= -.35727266E+03 E0= -.35727265E+03  d E =-.357273E+03  mag=    20.0000
       N       E                     dE             d eps       ncg     rms          ort
SDA:   1    -0.357205468696E+03    0.67191E-01    0.00000E+00 11088   0.242E+00 0.000E+00
CGA:   2    -0.357241252893E+03   -0.35784E-01   -0.35770E-01 11088   0.122E+00 0.648E-02
CGA:   3    -0.357263083897E+03   -0.21831E-01   -0.22049E-01 11088   0.575E-01-0.715E-02
CGA:   4    -0.357271302323E+03   -0.82184E-02   -0.82060E-02 11088   0.127E-01 0.313E-02
CGA:   5    -0.357273290418E+03   -0.19881E-02   -0.19878E-02 11088   0.406E-02 0.526E-03
CGA:   6    -0.357273835470E+03   -0.54505E-03   -0.54659E-03 11088   0.127E-02 0.811E-04
CGA:   7    -0.357274021751E+03   -0.18628E-03   -0.18674E-03 11088   0.307E-03 0.149E-03
CGA:   8    -0.357273999060E+03    0.22691E-04   -0.20300E-03 11088   0.130E-02-0.508E-03
CGA:   9    -0.357274091824E+03   -0.92764E-04   -0.11748E-03 11088   0.299E-03 0.311E-03
CGA:  10    -0.357274129799E+03   -0.37975E-04   -0.43070E-04 11088   0.668E-04 0.104E-03
CGA:  11    -0.357274146628E+03   -0.16829E-04   -0.17198E-04 11088   0.535E-04-0.131E-04
CGA:  12    -0.357274144322E+03    0.23057E-05   -0.13847E-05 11088   0.334E-04 0.279E-04
   2 F= -.35727414E+03 E0= -.35727414E+03  d E =-.148451E-02  mag=    20.0000
       N       E                     dE             d eps       ncg     rms          ort
SDA:   1    -0.357273858877E+03    0.28775E-03    0.00000E+00 11088   0.129E-02 0.000E+00
CGA:   2    -0.357274028987E+03   -0.17011E-03   -0.15631E-03 11088   0.809E-03-0.465E-03
CGA:   3    -0.357274117211E+03   -0.88224E-04   -0.89536E-04 11088   0.212E-03-0.559E-04
CGA:   4    -0.357274122043E+03   -0.48319E-05   -0.13075E-04 11088   0.782E-04 0.974E-04
CGA:   5    -0.357274126189E+03   -0.41456E-05   -0.77793E-05 11088   0.246E-04 0.463E-04
CGA:   6    -0.357274139273E+03   -0.13085E-04    0.20360E-05 11088   0.118E-04 0.369E-05
CGA:   7    -0.357274138357E+03    0.91607E-06   -0.38728E-06 11088   0.823E-05 0.114E-04
   3 F= -.35727414E+03 E0= -.35727413E+03  d E =-.147854E-02  mag=    20.0000
       N       E                     dE             d eps       ncg     rms          ort
SDA:   1    -0.357273917932E+03    0.22134E-03    0.00000E+00 11088   0.929E-03 0.000E+00
CGA:   2    -0.357273993158E+03   -0.75226E-04   -0.20502E-03 11088   0.335E-02-0.145E-02
CGA:   3    -0.357274104456E+03   -0.11130E-03   -0.17636E-03 11088   0.207E-03 0.777E-03
CGA:   4    -0.357274100050E+03    0.44057E-05   -0.82107E-05 11088   0.623E-04 0.127E-03
CGA:   5    -0.357274098987E+03    0.10632E-05   -0.25689E-05 11088   0.320E-04 0.426E-04
CGA:   6    -0.357274100445E+03   -0.14585E-05   -0.24438E-05 11088   0.179E-04 0.216E-04
   4 F= -.35727410E+03 E0= -.35727409E+03  d E =-.144063E-02  mag=    20.0000
       N       E                     dE             d eps       ncg     rms          ort
SDA:   1    -0.357274112538E+03   -0.13551E-04    0.00000E+00 11088   0.112E-03 0.000E+00
CGA:   2    -0.357274112971E+03   -0.43284E-06   -0.51911E-05 11088   0.415E-04 0.649E-04
CGA:   3    -0.357274115719E+03   -0.27484E-05   -0.34652E-05 11088   0.152E-04 0.219E-04
CGA:   4    -0.357274122577E+03   -0.68580E-05    0.88985E-06 11088   0.670E-05 0.933E-05
CGA:   5    -0.357274125259E+03   -0.26817E-05   -0.34232E-05 11088   0.556E-05-0.187E-05
CGA:   6    -0.357274133015E+03   -0.77559E-05    0.43319E-07 11088   0.328E-05-0.224E-05
   5 F= -.35727413E+03 E0= -.35727412E+03  d E =-.147320E-02  mag=    20.0000
       N       E                     dE             d eps       ncg     rms          ort
SDA:   1    -0.357216773512E+03    0.57352E-01    0.00000E+00 11088   0.208E+00 0.000E+00
CGA:   2    -0.357242954087E+03   -0.26181E-01   -0.26208E-01 11088   0.110E+00 0.111E-01
CGA:   3    -0.357265932748E+03   -0.22979E-01   -0.23272E-01 11088   0.369E-01-0.398E-02
CGA:   4    -0.357271509968E+03   -0.55772E-02   -0.55177E-02 11088   0.948E-02 0.251E-02
CGA:   5    -0.357272896792E+03   -0.13868E-02   -0.13860E-02 11088   0.338E-02 0.206E-03
CGA:   6    -0.357273380158E+03   -0.48337E-03   -0.48329E-03 11088   0.914E-03 0.882E-05
CGA:   7    -0.357273527812E+03   -0.14765E-03   -0.14480E-03 11088   0.281E-03 0.116E-03
CGA:   8    -0.357273607104E+03   -0.79292E-04   -0.90656E-04 11088   0.247E-03-0.751E-04
CGA:   9    -0.357273612605E+03   -0.55010E-05   -0.11599E-04 11088   0.113E-03 0.778E-04
   6 F= -.35727361E+03 E0= -.35727360E+03  d E =0.520410E-03  mag=    20.0000
       N       E                     dE             d eps       ncg     rms          ort
SDA:   1    -0.357242845168E+03    0.30762E-01    0.00000E+00 11088   0.112E+00 0.000E+00
CGA:   2    -0.357258171063E+03   -0.15326E-01   -0.15351E-01 11088   0.729E-01-0.831E-02
CGA:   3    -0.357269639700E+03   -0.11469E-01   -0.11375E-01 11088   0.181E-01 0.265E-02
CGA:   4    -0.357272867302E+03   -0.32276E-02   -0.32240E-02 11088   0.669E-02 0.100E-03
CGA:   5    -0.357273860165E+03   -0.99286E-03   -0.10195E-02 11088   0.341E-02-0.194E-02
CGA:   6    -0.357274105807E+03   -0.24564E-03   -0.25927E-03 11088   0.735E-03 0.434E-03
CGA:   7    -0.357274150457E+03   -0.44649E-04   -0.62383E-04 11088   0.297E-03 0.287E-03
CGA:   8    -0.357274205143E+03   -0.54686E-04   -0.54748E-04 11088   0.138E-03 0.491E-04
CGA:   9    -0.357274255489E+03   -0.50347E-04    0.62817E-04 11088   0.998E-04-0.981E-05
CGA:  10    -0.357274272054E+03   -0.16565E-04   -0.22243E-04 11088   0.814E-04-0.536E-04
CGA:  11    -0.357274275044E+03   -0.29892E-05   -0.60523E-05 11088   0.311E-04 0.473E-04
CGA:  12    -0.357274281828E+03   -0.67849E-05   -0.15559E-04 11088   0.411E-04-0.241E-04
   7 F= -.35727428E+03 E0= -.35727427E+03  d E =-.148814E-03  mag=    20.0000
       N       E                     dE             d eps       ncg     rms          ort
SDA:   1    -0.357272125805E+03    0.21492E-02    0.00000E+00 11088   0.950E-02 0.000E+00
CGA:   2    -0.357272970964E+03   -0.84516E-03   -0.92838E-03 11088   0.363E-02 0.151E-02
CGA:   3    -0.357273974172E+03   -0.10032E-02   -0.10047E-02 11088   0.150E-02-0.162E-04
CGA:   4    -0.357274220342E+03   -0.24617E-03   -0.24753E-03 11088   0.599E-03-0.108E-03
CGA:   5    -0.357274239885E+03   -0.19542E-04   -0.38504E-04 11088   0.179E-03 0.224E-03
CGA:   6    -0.357274244961E+03   -0.50767E-05   -0.14911E-04 11088   0.822E-04 0.110E-03
CGA:   7    -0.357274273513E+03   -0.28552E-04    0.30578E-04 11088   0.334E-04 0.265E-04
CGA:   8    -0.357274274900E+03   -0.13870E-05   -0.32780E-05 11088   0.130E-04 0.266E-04
   8 F= -.35727427E+03 E0= -.35727427E+03  d E =-.141885E-03  mag=    20.0000
       N       E                     dE             d eps       ncg     rms          ort
SDA:   1    -0.357231968754E+03    0.42305E-01    0.00000E+00 11088   0.143E+00 0.000E+00
CGA:   2    -0.357253157320E+03   -0.21189E-01   -0.21291E-01 11088   0.103E+00-0.805E-02
CGA:   3    -0.357269135266E+03   -0.15978E-01   -0.15832E-01 11088   0.187E-01 0.563E-02
CGA:   4    -0.357272681681E+03   -0.35464E-02   -0.35519E-02 11088   0.668E-02-0.138E-03
CGA:   5    -0.357273735501E+03   -0.10538E-02   -0.11351E-02 11088   0.470E-02-0.267E-02
CGA:   6    -0.357273984280E+03   -0.24878E-03   -0.26993E-03 11088   0.145E-02 0.450E-03
CGA:   7    -0.357274033908E+03   -0.49627E-04   -0.92500E-04 11088   0.515E-03 0.524E-03
CGA:   8    -0.357274063799E+03   -0.29892E-04   -0.49391E-04 11088   0.297E-03 0.298E-03
CGA:   9    -0.357273243671E+03    0.82013E-03   -0.43990E-03 11088   0.140E-01-0.149E-02
CGA:  10    -0.357274015725E+03   -0.77205E-03   -0.96261E-03 11088   0.373E-03 0.956E-03
CGA:  11    -0.357274078417E+03   -0.62692E-04   -0.64832E-04 11088   0.182E-03 0.301E-04
CGA:  12    -0.357274178902E+03   -0.10049E-03    0.20172E-03 11088   0.288E-03-0.220E-03
CGA:  13    -0.357274170004E+03    0.88987E-05   -0.13989E-04 11088   0.642E-04 0.126E-03
   9 F= -.35727417E+03 E0= -.35727416E+03  d E =0.104896E-03  mag=    20.0000
       N       E                     dE             d eps       ncg     rms          ort
SDA:   1    -0.357258353604E+03    0.15825E-01    0.00000E+00 11088   0.542E-01 0.000E+00
CGA:   2    -0.357265730307E+03   -0.73767E-02   -0.75846E-02 11088   0.335E-01 0.257E-02
CGA:   3    -0.357272751766E+03   -0.70215E-02   -0.70004E-02 11088   0.906E-02-0.255E-02
CGA:   4    -0.357273883076E+03   -0.11313E-02   -0.11942E-02 11088   0.180E-02 0.972E-03
CGA:   5    -0.357274206940E+03   -0.32386E-03   -0.32894E-03 11088   0.534E-03 0.129E-03
CGA:   6    -0.357274260861E+03   -0.53920E-04   -0.65650E-04 11088   0.160E-03 0.134E-03
CGA:   7    -0.357274306540E+03   -0.45680E-04   -0.47744E-04 11088   0.104E-03-0.503E-04
CGA:   8    -0.357274340153E+03   -0.33612E-04    0.40250E-04 11088   0.840E-04-0.378E-04
CGA:   9    -0.357274342754E+03   -0.26013E-05   -0.46380E-05 11088   0.417E-04 0.180E-04
  10 F= -.35727434E+03 E0= -.35727433E+03  d E =-.678540E-04  mag=    20.0000
       N       E                     dE             d eps       ncg     rms          ort
SDA:   1    -0.357271463753E+03    0.28764E-02    0.00000E+00 11088   0.930E-02 0.000E+00
CGA:   2    -0.357273032512E+03   -0.15688E-02   -0.15367E-02 11088   0.831E-02-0.145E-02
CGA:   3    -0.357273916188E+03   -0.88368E-03   -0.93603E-03 11088   0.175E-02 0.989E-03
CGA:   4    -0.357274081463E+03   -0.16527E-03   -0.19413E-03 11088   0.671E-03 0.340E-03
CGA:   5    -0.357274216953E+03   -0.13549E-03   -0.23624E-03 11088   0.126E-02-0.874E-03
CGA:   6    -0.357274289166E+03   -0.72213E-04   -0.10726E-03 11088   0.206E-03 0.350E-03
CGA:   7    -0.357274311898E+03   -0.22732E-04   -0.26910E-04 11088   0.261E-04 0.537E-04
CGA:   8    -0.357274317953E+03   -0.60548E-05   -0.93155E-05 11088   0.640E-04-0.305E-04
  11 F= -.35727432E+03 E0= -.35727431E+03  d E =-.430529E-04  mag=    20.0000
       N       E                     dE             d eps       ncg     rms          ort
SDA:   1    -0.357272157392E+03    0.21545E-02    0.00000E+00 11088   0.107E-01 0.000E+00
CGA:   2    -0.357273401810E+03   -0.12444E-02   -0.11193E-02 11088   0.396E-02-0.176E-02
CGA:   3    -0.357273980745E+03   -0.57893E-03   -0.57643E-03 11088   0.669E-03 0.689E-03
CGA:   4    -0.357274109657E+03   -0.12891E-03   -0.12941E-03 11088   0.373E-03 0.805E-04
CGA:   5    -0.357272006989E+03    0.21027E-02   -0.11319E-02 11088   0.247E-01-0.281E-02
CGA:   6    -0.357273538056E+03   -0.15311E-02   -0.18418E-02 11088   0.229E-02 0.952E-03
CGA:   7    -0.357273976336E+03   -0.43828E-03   -0.47798E-03 11088   0.823E-03 0.403E-03
CGA:   8    -0.357274196372E+03   -0.22004E-03   -0.20296E-03 11088   0.887E-03-0.203E-03
CGA:   9    -0.357274220871E+03   -0.24500E-04   -0.53330E-04 11088   0.258E-03 0.136E-03
CGA:  10    -0.357274216527E+03    0.43445E-05   -0.14371E-04 11088   0.660E-04 0.802E-04
  12 F= -.35727422E+03 E0= -.35727421E+03  d E =0.583732E-04  mag=    20.0000
       N       E                     dE             d eps       ncg     rms          ort
SDA:   1    -0.357273973406E+03    0.24747E-03    0.00000E+00 11088   0.501E-02 0.000E+00
CGA:   2    -0.357274185742E+03   -0.21234E-03   -0.32548E-03 11088   0.370E-03 0.539E-03
CGA:   3    -0.357274229005E+03   -0.43263E-04   -0.54733E-04 11088   0.219E-03 0.992E-04
CGA:   4    -0.357274297472E+03   -0.68466E-04   -0.72702E-04 11088   0.423E-03-0.224E-03
CGA:   5    -0.357274290099E+03    0.73728E-05   -0.23128E-04 11088   0.828E-04 0.161E-03
CGA:   6    -0.357274282929E+03    0.71693E-05   -0.49546E-05 11088   0.375E-04 0.635E-04
  13 F= -.35727428E+03 E0= -.35727428E+03  d E =-.802947E-05  mag=    20.0000
       N       E                     dE             d eps       ncg     rms          ort
SDA:   1    -0.357248976353E+03    0.25314E-01    0.00000E+00 11088   0.647E-01 0.000E+00
CGA:   2    -0.357264451029E+03   -0.15475E-01   -0.15572E-01 11088   0.737E-01-0.439E-02
CGA:   3    -0.357272218359E+03   -0.77673E-02   -0.80138E-02 11088   0.874E-02 0.210E-02
CGA:   4    -0.357273697220E+03   -0.14789E-02   -0.14989E-02 11088   0.371E-02 0.413E-03
CGA:   5    -0.357274322773E+03   -0.62555E-03   -0.55995E-03 11088   0.164E-02-0.955E-03
CGA:   6    -0.357274439464E+03   -0.11669E-03   -0.13901E-03 11088   0.398E-03 0.234E-03
CGA:   7    -0.357274462575E+03   -0.23111E-04   -0.40626E-04 11088   0.186E-03 0.152E-03
CGA:   8    -0.357274515099E+03   -0.52524E-04   -0.53038E-04 11088   0.106E-03-0.634E-04
CGA:   9    -0.357274549257E+03   -0.34157E-04    0.30827E-04 11088   0.109E-03-0.325E-04
CGA:  10    -0.357274552064E+03   -0.28076E-05   -0.59210E-05 11088   0.611E-04 0.258E-04
  14 F= -.35727455E+03 E0= -.35727454E+03  d E =-.269135E-03  mag=    20.0000
       N       E                     dE             d eps       ncg     rms          ort
SDA:   1    -0.357273852883E+03    0.69637E-03    0.00000E+00 11088   0.259E-02 0.000E+00
CGA:   2    -0.357274128951E+03   -0.27607E-03   -0.31859E-03 11088   0.131E-02 0.667E-03
CGA:   3    -0.357274522141E+03   -0.39319E-03   -0.40694E-03 11088   0.481E-03-0.216E-03
CGA:   4    -0.357274546318E+03   -0.24177E-04   -0.38636E-04 11088   0.165E-03 0.160E-03
CGA:   5    -0.357274563904E+03   -0.17586E-04   -0.22867E-04 11088   0.533E-04 0.681E-04
CGA:   6    -0.357274110124E+03    0.45378E-03   -0.24552E-03 11088   0.353E-02-0.558E-03
CGA:   7    -0.357274344745E+03   -0.23462E-03   -0.33560E-03 11088   0.821E-03 0.425E-03
CGA:   8    -0.357274557013E+03   -0.21227E-03   -0.20084E-03 11088   0.906E-04-0.121E-03
CGA:   9    -0.357274578063E+03   -0.21050E-04   -0.19550E-04 11088   0.541E-04-0.272E-04
CGA:  10    -0.357274576609E+03    0.14539E-05   -0.29292E-05 11088   0.246E-04 0.192E-04
  15 F= -.35727458E+03 E0= -.35727457E+03  d E =-.293680E-03  mag=    20.0000
       N       E                     dE             d eps       ncg     rms          ort
SDA:   1    -0.357271564047E+03    0.30140E-02    0.00000E+00 11088   0.958E-02 0.000E+00
CGA:   2    -0.357272793257E+03   -0.12292E-02   -0.13784E-02 11088   0.658E-02 0.103E-02
CGA:   3    -0.357274320761E+03   -0.15275E-02   -0.14952E-02 11088   0.130E-02-0.452E-03
CGA:   4    -0.357274436348E+03   -0.11559E-03   -0.15040E-03 11088   0.339E-03 0.233E-03
CGA:   5    -0.357274509122E+03   -0.72774E-04   -0.71784E-04 11088   0.119E-03-0.116E-04
CGA:   6    -0.357274522749E+03   -0.13627E-04   -0.14319E-04 11088   0.426E-04 0.494E-05
CGA:   7    -0.357274526742E+03   -0.39933E-05   -0.56449E-05 11088   0.116E-04 0.130E-04
  16 F= -.35727453E+03 E0= -.35727452E+03  d E =-.243813E-03  mag=    20.0000
