       N       E                     dE             d eps       ncg     rms          ort
DAV:   1     0.333123561589E+04    0.33312E+04   -0.14827E+05  6480   0.180E+03
DAV:   2     0.230432967950E+02   -0.33082E+04   -0.30364E+04  6480   0.482E+02
DAV:   3    -0.492077214075E+03   -0.51512E+03   -0.50006E+03  6480   0.204E+02
DAV:   4    -0.524171316663E+03   -0.32094E+02   -0.31034E+02  6480   0.470E+01
DAV:   5    -0.526547279712E+03   -0.23760E+01   -0.23259E+01  6480   0.905E+00
SDA:   6    -0.194144069526E+03    0.33240E+03   -0.23259E+01  6480   0.315E+04 0.000E+00
CGA:   7    -0.312826794802E+03   -0.11868E+03   -0.31104E+03  6480   0.165E+04-0.388E+03
CGA:   8    -0.280041430947E+03    0.32785E+02   -0.64777E+02  6480   0.635E+03-0.351E+03
CGA:   9    -0.376362029894E+03   -0.96321E+02   -0.11669E+02  6480   0.719E+03 0.797E+02
CGA:  10    -0.367207052001E+03    0.91550E+01   -0.37453E+02  6480   0.479E+03-0.340E+03
CGA:  11    -0.372010150768E+03   -0.48031E+01   -0.28106E+01  6480   0.435E+03 0.241E+03
CGA:  12    -0.389377435415E+03   -0.17367E+02   -0.69094E+01  6480   0.264E+03 0.551E+03
CGA:  13    -0.393449846987E+03   -0.40724E+01   -0.96661E+01  6480   0.351E+03-0.732E+02
CGA:  14    -0.395735484770E+03   -0.22856E+01   -0.61375E+01  6480   0.410E+03-0.484E+03
CGA:  15    -0.391341145029E+03    0.43943E+01   -0.22192E+02  6480   0.411E+03-0.188E+03
CGA:  16    -0.384335247384E+03    0.70059E+01   -0.10638E+02  6480   0.324E+03-0.162E+03
CGA:  17    -0.403156522782E+03   -0.18821E+02   -0.43946E+01  6480   0.269E+03 0.593E+03
CGA:  18    -0.375626152987E+03    0.27530E+02   -0.10491E+02  6480   0.107E+04-0.355E+03
CGA:  19    -0.365574677339E+03    0.10051E+02   -0.50148E+02  6480   0.248E+03-0.212E+03
CGA:  20    -0.375778519429E+03   -0.10204E+02   -0.28024E+01  6480   0.514E+03 0.527E+03
CGA:  21    -0.379354228703E+03   -0.35757E+01   -0.14741E+02  6480   0.141E+04-0.151E+04
CGA:  22    -0.364510407457E+03    0.14844E+02   -0.66963E+02  6480   0.243E+03-0.190E+03
CGA:  23    -0.387409396149E+03   -0.22899E+02   -0.46058E+01  6480   0.845E+03 0.120E+04
CGA:  24    -0.366687341318E+03    0.20722E+02   -0.31998E+02  6480   0.327E+03-0.222E+03
CGA:  25    -0.381929154141E+03   -0.15242E+02   -0.69563E+01  6480   0.703E+03-0.874E+03
CGA:  26    -0.363488894008E+03    0.18440E+02   -0.24605E+02  6480   0.256E+03-0.185E+03
CGA:  27    -0.379062471363E+03   -0.15574E+02   -0.55456E+01  6480   0.484E+03-0.581E+03
CGA:  28    -0.362739511922E+03    0.16323E+02   -0.14763E+02  6480   0.283E+03-0.212E+03
CGA:  29    -0.373873711459E+03   -0.11134E+02   -0.56350E+01  6480   0.158E+03-0.118E+03
CGA:  30    -0.388192533386E+03   -0.14319E+02   -0.14579E+01  6480   0.823E+03 0.109E+04
CGA:  31    -0.359211763723E+03    0.28981E+02   -0.25037E+02  6480   0.279E+03-0.156E+03
CGA:  32    -0.372974463359E+03   -0.13763E+02   -0.75292E+01  6480   0.169E+03-0.171E+03
CGA:  33    -0.386845285865E+03   -0.13871E+02   -0.28177E+01  6480   0.124E+04 0.159E+04
CGA:  34    -0.357660410674E+03    0.29185E+02   -0.37257E+02  6480   0.261E+03-0.144E+03
CGA:  35    -0.373384403031E+03   -0.15724E+02   -0.77981E+01  6480   0.177E+03-0.197E+03
CGA:  36    -0.385007163501E+03   -0.11623E+02   -0.27754E+01  6480   0.767E+03 0.912E+03
CGA:  37    -0.359469054640E+03    0.25538E+02   -0.18527E+02  6480   0.261E+03-0.157E+03
CGA:  38    -0.373456323856E+03   -0.13987E+02   -0.69597E+01  6480   0.232E+03-0.238E+03
CGA:  39    -0.382706662506E+03   -0.92503E+01   -0.38060E+01  6480   0.341E+03 0.429E+03
CGA:  40    -0.376052952990E+03    0.66537E+01   -0.54885E+01  6480   0.353E+04-0.317E+04
CGA:  41    -0.374272736429E+03    0.17802E+01   -0.10038E+03  6480   0.198E+03-0.194E+03
CGA:  42    -0.382241706600E+03   -0.79690E+01   -0.25521E+01  6480   0.395E+03 0.471E+03
CGA:  43    -0.377011632955E+03    0.52301E+01   -0.61421E+01  6480   0.338E+04-0.310E+04
CGA:  44    -0.374728285525E+03    0.22833E+01   -0.86351E+02  6480   0.186E+03-0.180E+03
CGA:  45    -0.382921501687E+03   -0.81932E+01   -0.20720E+01  6480   0.481E+03 0.564E+03
CGA:  46    -0.374637853669E+03    0.82836E+01   -0.72315E+01  6480   0.304E+04-0.265E+04
CGA:  47    -0.374931783393E+03   -0.29393E+00   -0.70272E+02  6480   0.188E+03-0.188E+03
CGA:  48    -0.383563080292E+03   -0.86313E+01   -0.18917E+01  6480   0.706E+03 0.812E+03
CGA:  49    -0.370553249350E+03    0.13010E+02   -0.10858E+02  6480   0.220E+04-0.179E+04
CGA:  50    -0.375158394462E+03   -0.46051E+01   -0.46268E+02  6480   0.198E+03-0.209E+03
CGA:  51    -0.385074685272E+03   -0.99163E+01   -0.17870E+01  6480   0.117E+04 0.136E+04
CGA:  52    -0.368750107672E+03    0.16325E+02   -0.18337E+02  6480   0.146E+04-0.113E+04
CGA:  53    -0.375659988838E+03   -0.69099E+01   -0.28070E+02  6480   0.251E+03-0.268E+03
CGA:  54    -0.394424137631E+03   -0.18764E+02   -0.20314E+01  6480   0.217E+04 0.322E+04
CGA:  55    -0.372878568918E+03    0.21546E+02   -0.33327E+02  6480   0.199E+04-0.127E+04
CGA:  56    -0.375805408957E+03   -0.29268E+01   -0.34204E+02  6480   0.265E+03-0.269E+03
CGA:  57    -0.403498661484E+03   -0.27693E+02   -0.21342E+01  6480   0.126E+04 0.296E+04
CGA:  58    -0.396808441561E+03    0.66902E+01   -0.14769E+02  6480   0.208E+04-0.138E+04
CGA:  59    -0.382203484868E+03    0.14605E+02   -0.28801E+02  6480   0.165E+04-0.110E+04
CGA:  60    -0.376727094112E+03    0.54764E+01   -0.21734E+02  6480   0.216E+04-0.193E+04
CGA:  61    -0.377414831902E+03   -0.68774E+00   -0.31314E+02  6480   0.538E+03-0.532E+03
CGA:  62    -0.409134078282E+03   -0.31719E+02   -0.39976E+01  6480   0.780E+02-0.706E+03
CGA:  63    -0.409407003912E+03   -0.27293E+00   -0.34896E+00  6480   0.726E+01-0.168E+02
CGA:  64    -0.409462793462E+03   -0.55790E-01   -0.60002E-01  6480   0.568E+01-0.307E+00
CGA:  65    -0.409658487851E+03   -0.19569E+00   -0.18169E+00  6480   0.111E+02 0.141E+01
CGA:  66    -0.409831660972E+03   -0.17317E+00   -0.21118E+00  6480   0.153E+02-0.897E+00
CGA:  67    -0.410127384521E+03   -0.29572E+00   -0.30795E+00  6480   0.367E+01 0.688E+00
CGA:  68    -0.410201658491E+03   -0.74274E-01   -0.75946E-01  6480   0.196E+01 0.652E-01
CGA:  69    -0.410233246102E+03   -0.31588E-01   -0.32736E-01  6480   0.161E+01-0.169E-01
CGA:  70    -0.410361384108E+03   -0.12814E+00   -0.11390E+00  6480   0.180E+01 0.308E+00
CGA:  71    -0.410438379915E+03   -0.76996E-01   -0.77392E-01  6480   0.972E+00-0.604E-01
CGA:  72    -0.410512643242E+03   -0.74263E-01   -0.64985E-01  6480   0.532E+00 0.231E+00
CGA:  73    -0.410542170683E+03   -0.29527E-01   -0.27880E-01  6480   0.770E+00 0.102E+00
CGA:  74    -0.410586697131E+03   -0.44526E-01   -0.46909E-01  6480   0.140E+01-0.944E-01
CGA:  75    -0.410629082005E+03   -0.42385E-01   -0.41913E-01  6480   0.684E+00 0.108E+00
CGA:  76    -0.410643157236E+03   -0.14075E-01   -0.15319E-01  6480   0.261E+00-0.165E-02
CGA:  77    -0.410666417863E+03   -0.23261E-01   -0.19200E-01  6480   0.197E+00 0.944E-01
CGA:  78    -0.410682364682E+03   -0.15947E-01   -0.16176E-01  6480   0.264E+00-0.126E-01
CGA:  79    -0.410699513308E+03   -0.17149E-01   -0.16727E-01  6480   0.424E+00 0.107E-01
CGA:  80    -0.410722330887E+03   -0.22818E-01   -0.21482E-01  6480   0.952E-01 0.805E-01
CGA:  81    -0.410727083498E+03   -0.47526E-02   -0.47371E-02  6480   0.976E-01 0.297E-02
CGA:  82    -0.410741935811E+03   -0.14852E-01   -0.14295E-01  6480   0.860E-01 0.590E-02
CGA:  83    -0.410745944695E+03   -0.40089E-02   -0.40139E-02  6480   0.873E-01-0.228E-02
CGA:  84    -0.410754096841E+03   -0.81521E-02   -0.79180E-02  6480   0.125E+00 0.419E-02
CGA:  85    -0.410760526123E+03   -0.64293E-02   -0.63941E-02  6480   0.766E-01 0.648E-02
CGA:  86    -0.410764142949E+03   -0.36168E-02   -0.36175E-02  6480   0.284E-01-0.371E-05
CGA:  87    -0.410770841128E+03   -0.66982E-02   -0.80951E-05  6480   0.151E+00-0.993E-02
CGA:  88    -0.410775531176E+03   -0.46900E-02   -0.47508E-02  6480   0.101E+00-0.622E-02
CGA:  89    -0.410778731284E+03   -0.32001E-02   -0.36426E-02  6480   0.280E-01-0.998E-02
CGA:  90    -0.410781046199E+03   -0.23149E-02   -0.23167E-02  6480   0.503E-01-0.532E-03
CGA:  91    -0.410785854699E+03   -0.48085E-02   -0.48250E-02  6480   0.298E-01-0.104E-02
CGA:  92    -0.410788191038E+03   -0.23363E-02   -0.23349E-02  6480   0.362E-01-0.242E-02
SDA:  93    -0.410793896466E+03   -0.57054E-02   -0.64846E-02  6480   0.796E-01-0.694E-02
CGA:  94    -0.410798284669E+03   -0.43882E-02   -0.45522E-02  6480   0.186E-01 0.790E-04
CGA:  95    -0.410801413224E+03   -0.31286E-02   -0.32765E-02  6480   0.726E-01-0.162E-02
CGA:  96    -0.410806331151E+03   -0.49179E-02   -0.47767E-02  6480   0.354E-01-0.222E-02
CGA:  97    -0.410809098888E+03   -0.27677E-02   -0.27626E-02  6480   0.282E-01-0.364E-03
CGA:  98    -0.410811267382E+03   -0.21685E-02   -0.21627E-02  6480   0.559E-01-0.422E-03
CGA:  99    -0.410816618499E+03   -0.53511E-02   -0.53951E-02  6480   0.130E-01-0.238E-02
CGA: 100    -0.410818207295E+03   -0.15888E-02   -0.15692E-02  6480   0.288E-01 0.548E-03
CGA: 101    -0.410820100778E+03   -0.18935E-02   -0.19375E-02  6480   0.198E-01 0.166E-03
CGA: 102    -0.410821413318E+03   -0.13125E-02   -0.12581E-02  6480   0.126E-01-0.353E-03
CGA: 103    -0.410817734442E+03    0.36789E-02   -0.20984E-02  6480   0.320E+00-0.281E-01
CGA: 104    -0.410824601794E+03   -0.68674E-02   -0.12279E-01  6480   0.109E+00-0.110E+00
CGA: 105    -0.410827690177E+03   -0.30884E-02   -0.28287E-02  6480   0.347E-01 0.478E-02
CGA: 106    -0.410829950038E+03   -0.22599E-02   -0.20476E-02  6480   0.218E-01 0.242E-02
CGA: 107    -0.410832071256E+03   -0.21212E-02   -0.21600E-02  6480   0.499E-01 0.602E-04
CGA: 108    -0.410835005428E+03   -0.29342E-02   -0.26546E-02  6480   0.163E-01 0.286E-02
CGA: 109    -0.410836402889E+03   -0.13975E-02   -0.13154E-02  6480   0.230E-01-0.199E-03
CGA: 110    -0.410837776781E+03   -0.13739E-02   -0.14298E-02  6480   0.308E-01-0.116E-02
CGA: 111    -0.410840948707E+03   -0.31719E-02   -0.32200E-02  6480   0.161E-01-0.304E-03
CGA: 112    -0.410841705344E+03   -0.75664E-03   -0.71320E-03  6480   0.133E-01-0.474E-03
CGA: 113    -0.410843085884E+03   -0.13805E-02   -0.13551E-02  6480   0.279E-01-0.919E-03
CGA: 114    -0.410845632053E+03   -0.25462E-02   -0.25121E-02  6480   0.308E-01-0.123E-02
CGA: 115    -0.410846721270E+03   -0.10892E-02   -0.12245E-02  6480   0.109E-01-0.442E-02
CGA: 116    -0.410847340509E+03   -0.61924E-03   -0.43914E-02  6480   0.101E+00-0.120E-01
CGA: 117    -0.410850862337E+03   -0.35218E-02   -0.30700E-02  6480   0.151E-01 0.130E-01
CGA: 118    -0.410852334148E+03   -0.14718E-02   -0.15131E-02  6480   0.246E-01 0.374E-03
CGA: 119    -0.410854473932E+03   -0.21398E-02   -0.21547E-02  6480   0.110E-01 0.416E-03
CGA: 120    -0.410855076615E+03   -0.60268E-03   -0.56398E-03  6480   0.112E-01 0.259E-03
CGA: 121    -0.410856725601E+03   -0.16490E-02   -0.16779E-02  6480   0.188E-01-0.105E-02
CGA: 122    -0.410857384701E+03   -0.65910E-03   -0.67084E-03  6480   0.543E-02-0.865E-03
CGA: 123    -0.410857708030E+03   -0.32333E-03   -0.32213E-03  6480   0.876E-02 0.924E-04
CGA: 124    -0.410858831742E+03   -0.11237E-02   -0.11218E-02  6480   0.126E-01 0.332E-03
CGA: 125    -0.410859337075E+03   -0.50533E-03   -0.53671E-03  6480   0.490E-02-0.251E-04
CGA: 126    -0.410859624729E+03   -0.28765E-03   -0.29120E-03  6480   0.420E-02 0.738E-04
CGA: 127    -0.410860010612E+03   -0.38588E-03   -0.38686E-03  6480   0.693E-02-0.208E-04
CGA: 128    -0.410860619857E+03   -0.60924E-03   -0.59978E-03  6480   0.570E-02-0.308E-03
CGA: 129    -0.410860847188E+03   -0.22733E-03   -0.21117E-03  6480   0.332E-02 0.109E-03
CGA: 130    -0.410861424405E+03   -0.57722E-03   -0.58658E-03  6480   0.194E-01-0.116E-03
CGA: 131    -0.410862603637E+03   -0.11792E-02   -0.11192E-02  6480   0.265E-01 0.773E-03
CGA: 132    -0.410863588830E+03   -0.98519E-03   -0.11273E-02  6480   0.155E-01-0.193E-02
CGA: 133    -0.410864119977E+03   -0.53115E-03   -0.62006E-03  6480   0.114E-01-0.188E-02
CGA: 134    -0.410865525602E+03   -0.14056E-02   -0.17989E-02  6480   0.213E-01-0.507E-02
CGA: 135    -0.410865764834E+03   -0.23923E-03   -0.19024E-03  6480   0.112E-01 0.116E-02
CGA: 136    -0.410866009803E+03   -0.24497E-03   -0.24778E-03  6480   0.731E-02-0.414E-03
CGA: 137    -0.410866254950E+03   -0.24515E-03   -0.25499E-03  6480   0.100E-01-0.205E-03
CGA: 138    -0.410866578080E+03   -0.32313E-03   -0.33965E-03  6480   0.112E-01-0.380E-03
CGA: 139    -0.410866946181E+03   -0.36810E-03   -0.36466E-03  6480   0.915E-02-0.457E-05
CGA: 140    -0.410867150784E+03   -0.20460E-03   -0.19943E-03  6480   0.297E-02 0.131E-03
CGA: 141    -0.410867219341E+03   -0.68557E-04   -0.67938E-04  6480   0.187E-02-0.283E-04
CGA: 142    -0.410867318874E+03   -0.99533E-04   -0.97592E-04  6480   0.437E-02-0.852E-04
CGA: 143    -0.410867503524E+03   -0.18465E-03   -0.17345E-03  6480   0.549E-02-0.188E-03
CGA: 144    -0.410867666904E+03   -0.16338E-03   -0.15312E-03  6480   0.519E-02-0.141E-03
CGA: 145    -0.410867824173E+03   -0.15727E-03   -0.15421E-03  6480   0.402E-02-0.124E-03
CGA: 146    -0.410867907060E+03   -0.82887E-04   -0.83808E-04  6480   0.180E-02-0.180E-04
SDA: 147    -0.410867957691E+03   -0.50631E-04   -0.52413E-04  6480   0.226E-02 0.271E-04
CGA: 148    -0.410868069267E+03   -0.11158E-03   -0.11046E-03  6480   0.169E-02-0.466E-04
CGA: 149    -0.410868257250E+03   -0.18798E-03   -0.18663E-03  6480   0.203E-02 0.294E-04
CGA: 150    -0.410868428630E+03   -0.17138E-03   -0.17125E-03  6480   0.865E-03 0.132E-04
CGA: 151    -0.410868518933E+03   -0.90304E-04   -0.93894E-04  6480   0.126E-02-0.944E-04
CGA: 152    -0.410868168513E+03    0.35042E-03   -0.22438E-03  6480   0.920E-02-0.219E-02
CGA: 153    -0.410868550955E+03   -0.38244E-03   -0.38389E-03  6480   0.449E-02 0.386E-03
CGA: 154    -0.410868907014E+03   -0.35606E-03   -0.37398E-03  6480   0.264E-02 0.341E-03
CGA: 155    -0.410869071955E+03   -0.16494E-03   -0.16827E-03  6480   0.849E-03 0.708E-04
CGA: 156    -0.410869179324E+03   -0.10737E-03   -0.10746E-03  6480   0.115E-02-0.431E-04
CGA: 157    -0.410869313415E+03   -0.13409E-03   -0.13417E-03  6480   0.295E-03-0.582E-04
CGA: 158    -0.410869327298E+03   -0.13883E-04   -0.12408E-04  6480   0.243E-03-0.168E-04
CGA: 159    -0.410869314733E+03    0.12565E-04   -0.32787E-04  6480   0.168E-02-0.299E-03
CGA: 160    -0.410869461039E+03   -0.14631E-03   -0.14433E-03  6480   0.191E-02 0.102E-04
CGA: 161    -0.410869564839E+03   -0.10380E-03   -0.10970E-03  6480   0.744E-03 0.219E-04
CGA: 162    -0.410869598663E+03   -0.33824E-04   -0.37259E-04  6480   0.137E-03 0.294E-04
CGA: 163    -0.410869618613E+03   -0.19950E-04   -0.18534E-04  6480   0.332E-03-0.228E-04
CGA: 164    -0.410869674240E+03   -0.55627E-04   -0.88913E-04  6480   0.583E-03-0.253E-03
CGA: 165    -0.410869730335E+03   -0.56095E-04   -0.59037E-04  6480   0.724E-03 0.321E-04
CGA: 166    -0.410869760864E+03   -0.30529E-04   -0.35754E-04  6480   0.213E-03 0.319E-04
CGA: 167    -0.410869775479E+03   -0.14614E-04   -0.16518E-04  6480   0.128E-03 0.174E-04
CGA: 168    -0.410869811362E+03   -0.35883E-04   -0.47717E-04  6480   0.737E-03-0.718E-04
CGA: 169    -0.410869836975E+03   -0.25613E-04   -0.23329E-04  6480   0.974E-04 0.130E-04
CGA: 170    -0.410869846188E+03   -0.92130E-05   -0.83837E-05  6480   0.185E-03-0.901E-05
CGA: 171    -0.410869872060E+03   -0.25872E-04   -0.25255E-04  6480   0.167E-03-0.256E-04
CGA: 172    -0.410869884039E+03   -0.11979E-04   -0.11352E-04  6480   0.128E-03-0.715E-05
CGA: 173    -0.410869906782E+03   -0.22743E-04   -0.30341E-04  6480   0.142E-02-0.954E-04
CGA: 174    -0.410869950005E+03   -0.43223E-04   -0.40537E-04  6480   0.169E-03 0.817E-05
CGA: 175    -0.410869962232E+03   -0.12227E-04   -0.10483E-04  6480   0.112E-03-0.171E-04
CGA: 176    -0.410869982828E+03   -0.20596E-04   -0.22943E-04  6480   0.355E-03-0.340E-04
CGA: 177    -0.410869998053E+03   -0.15225E-04   -0.13624E-04  6480   0.104E-03-0.160E-04
CGA: 178    -0.410870005943E+03   -0.78898E-05   -0.66664E-05  6480   0.152E-03-0.137E-04
CGA: 179    -0.410869749950E+03    0.25599E-03   -0.13988E-03  6480   0.642E-02-0.475E-03
CGA: 180    -0.410870050393E+03   -0.30044E-03   -0.31947E-03  6480   0.249E-02-0.342E-03
CGA: 181    -0.410870179612E+03   -0.12922E-03   -0.13513E-03  6480   0.140E-02 0.364E-04
CGA: 182    -0.410870247270E+03   -0.67658E-04   -0.78191E-04  6480   0.290E-03 0.157E-04
CGA: 183    -0.410870260507E+03   -0.13237E-04   -0.14997E-04  6480   0.708E-04 0.905E-05
CGA: 184    -0.410870278512E+03   -0.18004E-04   -0.33656E-04  6480   0.494E-03-0.701E-04
CGA: 185    -0.410870291647E+03   -0.13136E-04   -0.14583E-04  6480   0.104E-03 0.165E-05
CGA: 186    -0.410870298793E+03   -0.71455E-05   -0.92035E-05  6480   0.655E-04 0.138E-04
CGA: 187    -0.410870309071E+03   -0.10278E-04   -0.10017E-04  6480   0.235E-04-0.267E-05
CGA: 188    -0.410870313473E+03   -0.44025E-05   -0.40465E-05  6480   0.127E-03-0.767E-05
   1 F= -.41087031E+03 E0= -.41086379E+03  d E =-.410870E+03  mag=    14.0000
       N       E                     dE             d eps       ncg     rms          ort
SDA:   1    -0.410865321188E+03    0.49879E-02    0.00000E+00  6480   0.139E+00 0.000E+00
CGA:   2    -0.410869726304E+03   -0.44051E-02   -0.59990E-02  6480   0.185E-01-0.304E-01
CGA:   3    -0.410870180228E+03   -0.45392E-03   -0.41713E-03  6480   0.267E-02 0.120E-02
CGA:   4    -0.410870289385E+03   -0.10916E-03   -0.10540E-03  6480   0.845E-03-0.594E-04
CGA:   5    -0.410870345701E+03   -0.56316E-04   -0.51663E-04  6480   0.926E-03-0.416E-04
CGA:   6    -0.410870396725E+03   -0.51023E-04   -0.46572E-04  6480   0.527E-03-0.136E-04
CGA:   7    -0.410870425692E+03   -0.28967E-04   -0.29522E-04  6480   0.286E-03 0.639E-05
CGA:   8    -0.410870435436E+03   -0.97435E-05   -0.10296E-04  6480   0.135E-03 0.203E-05
CGA:   9    -0.410870450162E+03   -0.14726E-04   -0.14799E-04  6480   0.140E-03 0.135E-05
CGA:  10    -0.410870453841E+03   -0.36792E-05   -0.43411E-05  6480   0.441E-04 0.567E-05
   2 F= -.41087045E+03 E0= -.41086393E+03  d E =-.140368E-03  mag=    14.0000
       N       E                     dE             d eps       ncg     rms          ort
SDA:   1    -0.410869561144E+03    0.88902E-03    0.00000E+00  6480   0.395E-01 0.000E+00
CGA:   2    -0.410870459127E+03   -0.89798E-03   -0.83728E-03  6480   0.710E-03 0.276E-02
CGA:   3    -0.410870483680E+03   -0.24554E-04   -0.27271E-04  6480   0.205E-03 0.309E-04
CGA:   4    -0.410870490274E+03   -0.65940E-05   -0.79380E-05  6480   0.787E-04 0.121E-04
CGA:   5    -0.410870502076E+03   -0.11801E-04   -0.11833E-04  6480   0.139E-03-0.403E-05
CGA:   6    -0.410870507343E+03   -0.52676E-05   -0.47738E-05  6480   0.514E-04-0.439E-05
   3 F= -.41087051E+03 E0= -.41086398E+03  d E =-.535022E-04  mag=    14.0000
       N       E                     dE             d eps       ncg     rms          ort
SDA:   1    -0.410862196382E+03    0.83057E-02    0.00000E+00  6480   0.100E+00 0.000E+00
CGA:   2    -0.410865586752E+03   -0.33904E-02   -0.27614E-02  6480   0.159E-01 0.199E-01
CGA:   3    -0.410866913980E+03   -0.13272E-02   -0.13167E-02  6480   0.259E-01-0.224E-04
CGA:   4    -0.410868889152E+03   -0.19752E-02   -0.19651E-02  6480   0.238E-01-0.238E-03
CGA:   5    -0.410869613145E+03   -0.72399E-03   -0.69638E-03  6480   0.621E-02 0.375E-03
CGA:   6    -0.410870003559E+03   -0.39041E-03   -0.38539E-03  6480   0.901E-02-0.352E-04
CGA:   7    -0.410870438227E+03   -0.43467E-03   -0.43573E-03  6480   0.332E-02-0.282E-05
CGA:   8    -0.410870539841E+03   -0.10161E-03   -0.10717E-03  6480   0.135E-02 0.444E-04
CGA:   9    -0.410870609114E+03   -0.69273E-04   -0.74269E-04  6480   0.135E-02 0.103E-03
CGA:  10    -0.410870679022E+03   -0.69908E-04   -0.74365E-04  6480   0.647E-03 0.886E-04
CGA:  11    -0.410870706418E+03   -0.27396E-04   -0.27586E-04  6480   0.307E-03 0.184E-05
CGA:  12    -0.410870723597E+03   -0.17179E-04   -0.16538E-04  6480   0.212E-03-0.143E-04
CGA:  13    -0.410870739773E+03   -0.16176E-04   -0.16219E-04  6480   0.284E-03 0.338E-05
CGA:  14    -0.410870751423E+03   -0.11651E-04   -0.11875E-04  6480   0.664E-04 0.365E-05
CGA:  15    -0.410870757186E+03   -0.57631E-05   -0.56012E-05  6480   0.135E-03-0.219E-04
   4 F= -.41087076E+03 E0= -.41086422E+03  d E =-.249843E-03  mag=    14.0000
       N       E                     dE             d eps       ncg     rms          ort
SDA:   1    -0.410863268900E+03    0.74825E-02    0.00000E+00  6480   0.198E+00 0.000E+00
CGA:   2    -0.410869404376E+03   -0.61355E-02   -0.54634E-02  6480   0.755E-02 0.187E-01
CGA:   3    -0.410869754534E+03   -0.35016E-03   -0.35738E-03  6480   0.438E-02-0.830E-04
CGA:   4    -0.410870375068E+03   -0.62053E-03   -0.60943E-03  6480   0.298E-02 0.201E-03
CGA:   5    -0.410870531934E+03   -0.15687E-03   -0.16196E-03  6480   0.130E-02 0.136E-03
CGA:   6    -0.410870649666E+03   -0.11773E-03   -0.11774E-03  6480   0.976E-03 0.605E-04
CGA:   7    -0.410870725909E+03   -0.76242E-04   -0.75021E-04  6480   0.455E-03-0.917E-04
CGA:   8    -0.410870744658E+03   -0.18750E-04   -0.17158E-04  6480   0.183E-03-0.376E-04
CGA:   9    -0.410870764193E+03   -0.19534E-04   -0.21366E-04  6480   0.193E-03-0.417E-04
CGA:  10    -0.410870772351E+03   -0.81586E-05   -0.70404E-05  6480   0.564E-04-0.293E-04
   5 F= -.41087077E+03 E0= -.41086425E+03  d E =-.151649E-04  mag=    14.0000
       N       E                     dE             d eps       ncg     rms          ort
SDA:   1    -0.410866501037E+03    0.42632E-02    0.00000E+00  6480   0.973E-01 0.000E+00
CGA:   2    -0.410870427938E+03   -0.39269E-02   -0.38004E-02  6480   0.474E-02 0.118E-02
CGA:   3    -0.410870626198E+03   -0.19826E-03   -0.19170E-03  6480   0.104E-02-0.254E-04
CGA:   4    -0.410870699775E+03   -0.73577E-04   -0.73718E-04  6480   0.121E-02 0.960E-05
CGA:   5    -0.410870775674E+03   -0.75899E-04   -0.76829E-04  6480   0.164E-03 0.476E-04
CGA:   6    -0.410870813366E+03   -0.37692E-04   -0.37215E-04  6480   0.620E-04 0.352E-05
CGA:   7    -0.410870818819E+03   -0.54534E-05   -0.53839E-05  6480   0.141E-03-0.180E-04
   6 F= -.41087082E+03 E0= -.41086430E+03  d E =-.464680E-04  mag=    14.0000
