       N       E                     dE             d eps       ncg     rms          rms(c)
DAV:   1     0.272168407518E+04    0.27217E+04   -0.13258E+05 25936   0.148E+03
DAV:   2     0.256234857998E+02   -0.26961E+04   -0.25161E+04 27190   0.411E+02
DAV:   3    -0.264008945529E+03   -0.28963E+03   -0.28591E+03 28082   0.150E+02
DAV:   4    -0.273548413217E+03   -0.95395E+01   -0.94241E+01 33008   0.260E+01
DAV:   5    -0.274133998748E+03   -0.58559E+00   -0.58446E+00 39128   0.511E+00    0.116E+02
DAV:   6    -0.238367984583E+03    0.35766E+02   -0.16883E+02 28552   0.355E+01    0.669E+01
DAV:   7    -0.240671285863E+03   -0.23033E+01   -0.20558E+01 27518   0.130E+01    0.235E+01
DAV:   8    -0.241210368387E+03   -0.53908E+00   -0.14465E+00 28488   0.399E+00    0.888E+00
DAV:   9    -0.241323947786E+03   -0.11358E+00   -0.19794E-01 33224   0.169E+00    0.292E+00
DAV:  10    -0.241333112404E+03   -0.91646E-02   -0.45826E-02 28384   0.712E-01    0.140E+00
DAV:  11    -0.241340470027E+03   -0.73576E-02   -0.16762E-02 28488   0.476E-01    0.455E-01
DAV:  12    -0.241341468448E+03   -0.99842E-03   -0.19174E-03 29304   0.169E-01    0.141E-01
DAV:  13    -0.241341700665E+03   -0.23222E-03   -0.50847E-04 30208   0.670E-02    0.820E-02
DAV:  14    -0.241341828012E+03   -0.12735E-03   -0.95366E-05 27920   0.351E-02    0.420E-02
DAV:  15    -0.241341871922E+03   -0.43911E-04   -0.70101E-05 26520   0.316E-02    0.200E-02
DAV:  16    -0.241341874006E+03   -0.20832E-05   -0.16863E-05 20128   0.136E-02
   1 F= -.24134187E+03 E0= -.24134187E+03  d E =-.241342E+03  mag=    19.9986
       N       E                     dE             d eps       ncg     rms          rms(c)
DAV:   1    -0.241367437437E+03   -0.25566E-01   -0.19330E-02 27624   0.476E-01    0.890E-02
DAV:   2    -0.241367513702E+03   -0.76265E-04   -0.10280E-03 27944   0.924E-02    0.452E-02
DAV:   3    -0.241367508520E+03    0.51816E-05   -0.53045E-05 30768   0.229E-02    0.247E-02
DAV:   4    -0.241367507086E+03    0.14336E-05   -0.82417E-06 19000   0.100E-02
   2 F= -.24136751E+03 E0= -.24136751E+03  d E =-.256331E-01  mag=    20.0000
       N       E                     dE             d eps       ncg     rms          rms(c)
DAV:   1    -0.241946674125E+03   -0.57917E+00   -0.23193E+01 26176   0.165E+01    0.314E+00
DAV:   2    -0.242051233808E+03   -0.10456E+00   -0.13260E+00 27872   0.324E+00    0.155E+00
DAV:   3    -0.242045791815E+03    0.54420E-02   -0.66775E-02 34808   0.785E-01    0.845E-01
DAV:   4    -0.242044173789E+03    0.16180E-02   -0.89198E-03 31216   0.322E-01    0.501E-01
DAV:   5    -0.242043878942E+03    0.29485E-03   -0.13734E-03 31080   0.141E-01    0.187E-01
DAV:   6    -0.242043865881E+03    0.13061E-04   -0.52695E-04 31608   0.823E-02    0.743E-02
DAV:   7    -0.242043860745E+03    0.51365E-05   -0.83627E-05 28912   0.330E-02
   3 F= -.24204386E+03 E0= -.24204386E+03  d E =-.676354E+00  mag=    20.0000
       N       E                     dE             d eps       ncg     rms          rms(c)
DAV:   1    -0.242250687880E+03   -0.20682E+00   -0.50548E+01 26168   0.261E+01    0.321E+00
DAV:   2    -0.242557231582E+03   -0.30654E+00   -0.35428E+00 27164   0.499E+00    0.176E+00
DAV:   3    -0.242553921772E+03    0.33098E-02   -0.13220E-01 36248   0.104E+00    0.100E+00
DAV:   4    -0.242548986571E+03    0.49352E-02   -0.19765E-02 32552   0.472E-01    0.502E-01
DAV:   5    -0.242548770617E+03    0.21595E-03   -0.35668E-03 31584   0.198E-01    0.191E-01
DAV:   6    -0.242548769001E+03    0.16157E-05   -0.11446E-03 31680   0.109E-01    0.873E-02
DAV:   7    -0.242548755397E+03    0.13604E-04   -0.11058E-04 28832   0.384E-02    0.478E-02
DAV:   8    -0.242548749925E+03    0.54725E-05   -0.57670E-05 29008   0.251E-02
   4 F= -.24254875E+03 E0= -.24254875E+03  d E =-.504889E+00  mag=    20.0000
       N       E                     dE             d eps       ncg     rms          rms(c)
DAV:   1    -0.242539209331E+03    0.95461E-02   -0.27278E+01 26424   0.208E+01    0.246E+00
DAV:   2    -0.242732822498E+03   -0.19361E+00   -0.21389E+00 25924   0.393E+00    0.129E+00
DAV:   3    -0.242732367723E+03    0.45477E-03   -0.62702E-02 35632   0.724E-01    0.809E-01
DAV:   4    -0.242729474306E+03    0.28934E-02   -0.92384E-03 32226   0.327E-01    0.456E-01
DAV:   5    -0.242729204328E+03    0.26998E-03   -0.22125E-03 33560   0.157E-01    0.128E-01
DAV:   6    -0.242729196725E+03    0.76036E-05   -0.62609E-04 30294   0.894E-02    0.651E-02
DAV:   7    -0.242729198247E+03   -0.15220E-05   -0.86324E-05 29704   0.290E-02
   5 F= -.24272920E+03 E0= -.24272920E+03  d E =-.180448E+00  mag=    20.0000
       N       E                     dE             d eps       ncg     rms          rms(c)
DAV:   1    -0.242443288405E+03    0.28591E+00   -0.36219E+01 26192   0.280E+01    0.363E+00
DAV:   2    -0.242804960499E+03   -0.36167E+00   -0.37839E+00 26018   0.545E+00    0.171E+00
DAV:   3    -0.242811271448E+03   -0.63109E-02   -0.11395E-01 34496   0.103E+00    0.967E-01
DAV:   4    -0.242807795905E+03    0.34755E-02   -0.12156E-02 32278   0.388E-01    0.541E-01
DAV:   5    -0.242807119959E+03    0.67595E-03   -0.29928E-03 32256   0.212E-01    0.169E-01
DAV:   6    -0.242807126043E+03   -0.60839E-05   -0.82128E-04 30584   0.104E-01    0.778E-02
DAV:   7    -0.242807123142E+03    0.29014E-05   -0.14690E-04 29640   0.395E-02    0.405E-02
DAV:   8    -0.242807116834E+03    0.63078E-05   -0.21976E-05 22840   0.221E-02
   6 F= -.24280712E+03 E0= -.24280712E+03  d E =-.779186E-01  mag=    20.0000
       N       E                     dE             d eps       ncg     rms          rms(c)
DAV:   1    -0.241889650525E+03    0.91747E+00   -0.75833E+01 26496   0.427E+01    0.589E+00
DAV:   2    -0.242740403312E+03   -0.85075E+00   -0.86909E+00 26708   0.828E+00    0.290E+00
DAV:   3    -0.242758493439E+03   -0.18090E-01   -0.25609E-01 32088   0.157E+00    0.155E+00
DAV:   4    -0.242750147146E+03    0.83463E-02   -0.29866E-02 32244   0.596E-01    0.898E-01
DAV:   5    -0.242748036596E+03    0.21105E-02   -0.60036E-03 30960   0.329E-01    0.319E-01
DAV:   6    -0.242748150692E+03   -0.11410E-03   -0.26280E-03 31956   0.182E-01    0.139E-01
DAV:   7    -0.242748155270E+03   -0.45780E-05   -0.36502E-04 30240   0.628E-02    0.662E-02
DAV:   8    -0.242748137588E+03    0.17682E-04   -0.79064E-05 29158   0.366E-02    0.415E-02
DAV:   9    -0.242748138215E+03   -0.62679E-06   -0.25840E-05 23856   0.180E-02
   7 F= -.24274814E+03 E0= -.24274814E+03  d E =0.589786E-01  mag=    20.0000
       N       E                     dE             d eps       ncg     rms          rms(c)
DAV:   1    -0.242807619477E+03   -0.59482E-01   -0.10939E+01 25592   0.116E+01    0.344E+00
DAV:   2    -0.242868669513E+03   -0.61050E-01   -0.73999E-01 27680   0.240E+00    0.158E+00
DAV:   3    -0.242863469532E+03    0.52000E-02   -0.25176E-02 30456   0.527E-01    0.900E-01
DAV:   4    -0.242861198521E+03    0.22710E-02   -0.57489E-03 30704   0.288E-01    0.588E-01
DAV:   5    -0.242860929561E+03    0.26896E-03   -0.15553E-03 29400   0.145E-01    0.178E-01
DAV:   6    -0.242860956079E+03   -0.26518E-04   -0.61650E-04 32184   0.897E-02    0.735E-02
DAV:   7    -0.242860949398E+03    0.66810E-05   -0.90512E-05 28912   0.327E-02
   8 F= -.24286095E+03 E0= -.24286095E+03  d E =-.112811E+00  mag=    20.0000
       N       E                     dE             d eps       ncg     rms          rms(c)
DAV:   1    -0.242878602200E+03   -0.17646E-01   -0.20781E+00 25772   0.547E+00    0.110E+00
DAV:   2    -0.242889583551E+03   -0.10981E-01   -0.12446E-01 27240   0.103E+00    0.410E-01
DAV:   3    -0.242888985649E+03    0.59790E-03   -0.45678E-03 32096   0.233E-01    0.213E-01
DAV:   4    -0.242888816419E+03    0.16923E-03   -0.71240E-04 31584   0.100E-01    0.125E-01
DAV:   5    -0.242888769999E+03    0.46419E-04   -0.13493E-04 30512   0.461E-02    0.450E-02
DAV:   6    -0.242888766514E+03    0.34858E-05   -0.44368E-05 28568   0.241E-02
   9 F= -.24288877E+03 E0= -.24288877E+03  d E =-.278171E-01  mag=    20.0000
       N       E                     dE             d eps       ncg     rms          rms(c)
DAV:   1    -0.242858719261E+03    0.30051E-01   -0.66245E+00 26416   0.113E+01    0.139E+00
DAV:   2    -0.242905837455E+03   -0.47118E-01   -0.46643E-01 27428   0.199E+00    0.559E-01
DAV:   3    -0.242906754280E+03   -0.91683E-03   -0.14884E-02 32840   0.371E-01    0.272E-01
DAV:   4    -0.242906306341E+03    0.44794E-03   -0.15462E-03 31528   0.140E-01    0.167E-01
DAV:   5    -0.242906196470E+03    0.10987E-03   -0.33735E-04 30504   0.793E-02    0.602E-02
DAV:   6    -0.242906197649E+03   -0.11787E-05   -0.11240E-04 29632   0.375E-02    0.300E-02
DAV:   7    -0.242906195967E+03    0.16818E-05   -0.10410E-05 19088   0.126E-02
  10 F= -.24290620E+03 E0= -.24290620E+03  d E =-.174295E-01  mag=    20.0000
       N       E                     dE             d eps       ncg     rms          rms(c)
DAV:   1    -0.242756895173E+03    0.14930E+00   -0.26388E+01 26384   0.217E+01    0.223E+00
DAV:   2    -0.242920048608E+03   -0.16315E+00   -0.16181E+00 26282   0.381E+00    0.998E-01
DAV:   3    -0.242924214973E+03   -0.41664E-02   -0.52716E-02 31440   0.696E-01    0.497E-01
DAV:   4    -0.242922862150E+03    0.13528E-02   -0.50449E-03 31608   0.252E-01    0.311E-01
DAV:   5    -0.242922398036E+03    0.46411E-03   -0.10516E-03 29616   0.154E-01    0.110E-01
DAV:   6    -0.242922419346E+03   -0.21311E-04   -0.51907E-04 29752   0.792E-02    0.479E-02
DAV:   7    -0.242922421200E+03   -0.18534E-05   -0.46809E-05 27480   0.255E-02
  11 F= -.24292242E+03 E0= -.24292242E+03  d E =-.162252E-01  mag=    20.0000
       N       E                     dE             d eps       ncg     rms          rms(c)
DAV:   1    -0.241122484208E+03    0.17999E+01   -0.13912E+02 25928   0.416E+01    0.153E+01
DAV:   2    -0.241729054166E+03   -0.60657E+00   -0.79877E+00 29536   0.902E+00    0.512E+00
DAV:   3    -0.241623901318E+03    0.10515E+00   -0.37622E-01 30688   0.225E+00    0.297E+00
DAV:   4    -0.241591732505E+03    0.32169E-01   -0.56808E-02 30016   0.982E-01    0.179E+00
DAV:   5    -0.241575849276E+03    0.15883E-01   -0.26681E-02 31304   0.863E-01    0.515E-01
DAV:   6    -0.241576859905E+03   -0.10106E-02   -0.19034E-02 30336   0.460E-01    0.343E-01
DAV:   7    -0.241576721245E+03    0.13866E-03   -0.16820E-03 31984   0.132E-01    0.146E-01
DAV:   8    -0.241576661168E+03    0.60077E-04   -0.50965E-04 30616   0.812E-02    0.731E-02
DAV:   9    -0.241576679534E+03   -0.18366E-04   -0.11356E-04 28800   0.375E-02    0.309E-02
DAV:  10    -0.241576691344E+03   -0.11809E-04   -0.41318E-05 26872   0.278E-02    0.174E-02
DAV:  11    -0.241576694582E+03   -0.32385E-05   -0.17082E-05 19464   0.135E-02
  12 F= -.24157669E+03 E0= -.24157669E+03  d E =0.134573E+01  mag=    20.0000
       N       E                     dE             d eps       ncg     rms          rms(c)
DAV:   1    -0.242751082640E+03   -0.11744E+01   -0.42422E+01 25632   0.176E+01    0.105E+01
DAV:   2    -0.242898911222E+03   -0.14783E+00   -0.24824E+00 31640   0.486E+00    0.468E+00
DAV:   3    -0.242857446441E+03    0.41465E-01   -0.98374E-02 29584   0.982E-01    0.374E+00
DAV:   4    -0.242832118155E+03    0.25328E-01   -0.22064E-02 30232   0.614E-01    0.225E+00
DAV:   5    -0.242824820033E+03    0.72981E-02   -0.25429E-02 29744   0.656E-01    0.393E-01
DAV:   6    -0.242825640821E+03   -0.82079E-03   -0.13853E-02 31016   0.372E-01    0.365E-01
DAV:   7    -0.242825539466E+03    0.10135E-03   -0.86406E-04 32480   0.103E-01    0.210E-01
DAV:   8    -0.242825462271E+03    0.77194E-04   -0.33332E-04 29328   0.626E-02    0.933E-02
DAV:   9    -0.242825475709E+03   -0.13437E-04   -0.14251E-04 28800   0.394E-02    0.264E-02
DAV:  10    -0.242825478262E+03   -0.25535E-05   -0.17786E-05 22312   0.217E-02
  13 F= -.24282548E+03 E0= -.24282548E+03  d E =-.124878E+01  mag=    20.0000
       N       E                     dE             d eps       ncg     rms          rms(c)
DAV:   1    -0.242921806571E+03   -0.96331E-01   -0.90180E+00 26032   0.827E+00    0.368E+00
DAV:   2    -0.242948298080E+03   -0.26492E-01   -0.46340E-01 31160   0.217E+00    0.144E+00
DAV:   3    -0.242937225798E+03    0.11072E-01   -0.22125E-02 29528   0.555E-01    0.748E-01
DAV:   4    -0.242935242665E+03    0.19831E-02   -0.53884E-03 29176   0.238E-01    0.369E-01
DAV:   5    -0.242934256741E+03    0.98592E-03   -0.11131E-03 33776   0.211E-01    0.114E-01
DAV:   6    -0.242934263135E+03   -0.63945E-05   -0.76879E-04 30248   0.860E-02    0.664E-02
DAV:   7    -0.242934259874E+03    0.32615E-05   -0.11309E-04 32144   0.309E-02    0.356E-02
DAV:   8    -0.242934260464E+03   -0.58974E-06   -0.24985E-05 22536   0.191E-02
  14 F= -.24293426E+03 E0= -.24293426E+03  d E =-.108782E+00  mag=    20.0000
       N       E                     dE             d eps       ncg     rms          rms(c)
DAV:   1    -0.242940438189E+03   -0.61783E-02   -0.37574E-01 25880   0.203E+00    0.640E-01
DAV:   2    -0.242941954412E+03   -0.15162E-02   -0.19334E-02 29120   0.412E-01    0.272E-01
DAV:   3    -0.242941718354E+03    0.23606E-03   -0.92019E-04 30456   0.113E-01    0.139E-01
DAV:   4    -0.242941683593E+03    0.34760E-04   -0.20252E-04 30056   0.490E-02    0.897E-02
DAV:   5    -0.242941673457E+03    0.10136E-04   -0.35593E-05 27416   0.237E-02    0.335E-02
DAV:   6    -0.242941671695E+03    0.17621E-05   -0.12565E-05 18992   0.130E-02
  15 F= -.24294167E+03 E0= -.24294167E+03  d E =-.741123E-02  mag=    20.0000
       N       E                     dE             d eps       ncg     rms          rms(c)
DAV:   1    -0.242950058648E+03   -0.83852E-02   -0.42519E-01 25580   0.225E+00    0.716E-01
DAV:   2    -0.242951715818E+03   -0.16572E-02   -0.23527E-02 29784   0.503E-01    0.297E-01
DAV:   3    -0.242951407671E+03    0.30815E-03   -0.13218E-03 29344   0.127E-01    0.174E-01
DAV:   4    -0.242951341126E+03    0.66545E-04   -0.20181E-04 30024   0.496E-02    0.870E-02
DAV:   5    -0.242951307956E+03    0.33170E-04   -0.51606E-05 28016   0.358E-02    0.253E-02
DAV:   6    -0.242951307209E+03    0.74658E-06   -0.37182E-05 24856   0.209E-02
  16 F= -.24295131E+03 E0= -.24295131E+03  d E =-.963551E-02  mag=    20.0000
       N       E                     dE             d eps       ncg     rms          rms(c)
DAV:   1    -0.242952966603E+03   -0.16586E-02   -0.19402E-01 25710   0.167E+00    0.399E-01
DAV:   2    -0.242953841827E+03   -0.87522E-03   -0.11157E-02 29392   0.344E-01    0.179E-01
DAV:   3    -0.242953760031E+03    0.81796E-04   -0.56134E-04 29512   0.819E-02    0.110E-01
DAV:   4    -0.242953728900E+03    0.31130E-04   -0.75085E-05 30296   0.336E-02    0.606E-02
DAV:   5    -0.242953714637E+03    0.14264E-04   -0.24303E-05 23696   0.242E-02    0.150E-02
DAV:   6    -0.242953714356E+03    0.28114E-06   -0.16235E-05 18456   0.147E-02
  17 F= -.24295371E+03 E0= -.24295371E+03  d E =-.240715E-02  mag=    20.0000
       N       E                     dE             d eps       ncg     rms          rms(c)
DAV:   1    -0.242954151482E+03   -0.43685E-03   -0.34040E-01 25844   0.238E+00    0.295E-01
DAV:   2    -0.242955971201E+03   -0.18197E-02   -0.19348E-02 28000   0.427E-01    0.161E-01
DAV:   3    -0.242955988465E+03   -0.17265E-04   -0.72812E-04 31390   0.871E-02    0.963E-02
DAV:   4    -0.242955959393E+03    0.29072E-04   -0.11298E-04 30664   0.375E-02    0.546E-02
DAV:   5    -0.242955954220E+03    0.51730E-05   -0.20321E-05 20552   0.205E-02
  18 F= -.24295595E+03 E0= -.24295595E+03  d E =-.223986E-02  mag=    20.0000
       N       E                     dE             d eps       ncg     rms          rms(c)
DAV:   1    -0.242951477198E+03    0.44822E-02   -0.14903E+00 26096   0.495E+00    0.501E-01
DAV:   2    -0.242959606799E+03   -0.81296E-02   -0.82120E-02 27356   0.867E-01    0.221E-01
DAV:   3    -0.242959766947E+03   -0.16015E-03   -0.26337E-03 32048   0.159E-01    0.116E-01
DAV:   4    -0.242959680486E+03    0.86461E-04   -0.30492E-04 31984   0.631E-02    0.707E-02
DAV:   5    -0.242959660204E+03    0.20282E-04   -0.64990E-05 28592   0.357E-02    0.240E-02
DAV:   6    -0.242959660630E+03   -0.42562E-06   -0.25063E-05 23360   0.178E-02
  19 F= -.24295966E+03 E0= -.24295966E+03  d E =-.370641E-02  mag=    20.0000
       N       E                     dE             d eps       ncg     rms          rms(c)
DAV:   1    -0.242898196244E+03    0.61464E-01   -0.13112E+01 25808   0.137E+01    0.168E+00
DAV:   2    -0.242958797017E+03   -0.60601E-01   -0.61498E-01 27298   0.237E+00    0.650E-01
DAV:   3    -0.242958854849E+03   -0.57832E-04   -0.17835E-02 30704   0.440E-01    0.333E-01
DAV:   4    -0.242958182456E+03    0.67239E-03   -0.25839E-03 31376   0.187E-01    0.197E-01
DAV:   5    -0.242958054749E+03    0.12771E-03   -0.48556E-04 29992   0.884E-02    0.742E-02
DAV:   6    -0.242958062415E+03   -0.76663E-05   -0.16766E-04 30576   0.447E-02    0.345E-02
DAV:   7    -0.242958061833E+03    0.58224E-06   -0.12505E-05 18496   0.145E-02
  20 F= -.24295806E+03 E0= -.24295806E+03  d E =0.159880E-02  mag=    20.0000
       N       E                     dE             d eps       ncg     rms          rms(c)
DAV:   1    -0.242450880749E+03    0.50718E+00   -0.11767E+02 26024   0.396E+01    0.424E+00
DAV:   2    -0.242952179084E+03   -0.50130E+00   -0.51014E+00 26484   0.684E+00    0.183E+00
DAV:   3    -0.242952972587E+03   -0.79350E-03   -0.13784E-01 31768   0.123E+00    0.964E-01
DAV:   4    -0.242947288196E+03    0.56844E-02   -0.22836E-02 31256   0.547E-01    0.587E-01
DAV:   5    -0.242946168860E+03    0.11193E-02   -0.36020E-03 30104   0.249E-01    0.249E-01
DAV:   6    -0.242946192588E+03   -0.23728E-04   -0.16375E-03 30544   0.143E-01    0.108E-01
DAV:   7    -0.242946202432E+03   -0.98442E-05   -0.15504E-04 30352   0.480E-02    0.472E-02
DAV:   8    -0.242946190194E+03    0.12239E-04   -0.65541E-05 27976   0.319E-02    0.241E-02
DAV:   9    -0.242946188879E+03    0.13150E-05   -0.12868E-05 16680   0.142E-02
  21 F= -.24294619E+03 E0= -.24294619E+03  d E =0.118730E-01  mag=    20.0000
       N       E                     dE             d eps       ncg     rms          rms(c)
DAV:   1    -0.242540499906E+03    0.40569E+00   -0.80936E+01 25648   0.312E+01    0.637E+00
DAV:   2    -0.242860550822E+03   -0.32005E+00   -0.35542E+00 27952   0.564E+00    0.221E+00
DAV:   3    -0.242843602547E+03    0.16948E-01   -0.11034E-01 30608   0.119E+00    0.121E+00
DAV:   4    -0.242837177855E+03    0.64247E-02   -0.18348E-02 31336   0.533E-01    0.774E-01
DAV:   5    -0.242835276388E+03    0.19015E-02   -0.41893E-03 29496   0.281E-01    0.257E-01
DAV:   6    -0.242835296707E+03   -0.20319E-04   -0.24152E-03 32200   0.181E-01    0.127E-01
DAV:   7    -0.242835293026E+03    0.36815E-05   -0.31389E-04 31008   0.622E-02    0.547E-02
DAV:   8    -0.242835289698E+03    0.33279E-05   -0.88490E-05 29728   0.307E-02
  22 F= -.24283529E+03 E0= -.24283529E+03  d E =0.110899E+00  mag=    20.0000
       N       E                     dE             d eps       ncg     rms          rms(c)
DAV:   1    -0.242705257264E+03    0.13004E+00   -0.73619E+01 25920   0.307E+01    0.507E+00
DAV:   2    -0.243004528363E+03   -0.29927E+00   -0.31921E+00 28072   0.539E+00    0.186E+00
DAV:   3    -0.242997004909E+03    0.75235E-02   -0.93751E-02 30376   0.104E+00    0.114E+00
DAV:   4    -0.242992123593E+03    0.48813E-02   -0.13234E-02 32072   0.447E-01    0.763E-01
DAV:   5    -0.242990465023E+03    0.16586E-02   -0.37065E-03 29480   0.272E-01    0.219E-01
DAV:   6    -0.242990556703E+03   -0.91680E-04   -0.20153E-03 31056   0.165E-01    0.102E-01
DAV:   7    -0.242990552756E+03    0.39472E-05   -0.24582E-04 31128   0.547E-02    0.527E-02
DAV:   8    -0.242990545104E+03    0.76524E-05   -0.54248E-05 29176   0.253E-02
  23 F= -.24299055E+03 E0= -.24299055E+03  d E =-.155255E+00  mag=    20.0000
       N       E                     dE             d eps       ncg     rms          rms(c)
DAV:   1    -0.242983386620E+03    0.71661E-02   -0.35064E+00 25632   0.621E+00    0.794E-01
DAV:   2    -0.242995450341E+03   -0.12064E-01   -0.12853E-01 27368   0.106E+00    0.338E-01
DAV:   3    -0.242995182699E+03    0.26764E-03   -0.32347E-03 31296   0.193E-01    0.173E-01
DAV:   4    -0.242995027729E+03    0.15497E-03   -0.73913E-04 30440   0.971E-02    0.931E-02
DAV:   5    -0.242995013466E+03    0.14263E-04   -0.10154E-04 30264   0.398E-02    0.380E-02
DAV:   6    -0.242995015239E+03   -0.17736E-05   -0.46088E-05 27624   0.234E-02
  24 F= -.24299502E+03 E0= -.24299502E+03  d E =-.447014E-02  mag=    20.0000
       N       E                     dE             d eps       ncg     rms          rms(c)
DAV:   1    -0.242938834532E+03    0.56179E-01   -0.19721E+01 25912   0.148E+01    0.130E+00
DAV:   2    -0.243004477216E+03   -0.65643E-01   -0.68459E-01 26100   0.244E+00    0.625E-01
DAV:   3    -0.243003992792E+03    0.48442E-03   -0.16314E-02 31304   0.415E-01    0.377E-01
DAV:   4    -0.243003059936E+03    0.93286E-03   -0.27995E-03 30768   0.197E-01    0.238E-01
DAV:   5    -0.243002912827E+03    0.14711E-03   -0.79136E-04 30360   0.109E-01    0.707E-02
DAV:   6    -0.243002915974E+03   -0.31472E-05   -0.27700E-04 30464   0.610E-02    0.377E-02
DAV:   7    -0.243002918896E+03   -0.29221E-05   -0.37844E-05 25000   0.195E-02
  25 F= -.24300292E+03 E0= -.24300292E+03  d E =-.790366E-02  mag=    20.0000
       N       E                     dE             d eps       ncg     rms          rms(c)
DAV:   1    -0.242806316587E+03    0.19660E+00   -0.56687E+01 25552   0.233E+01    0.294E+00
DAV:   2    -0.242981666817E+03   -0.17535E+00   -0.18662E+00 27648   0.392E+00    0.130E+00
DAV:   3    -0.242977065556E+03    0.46013E-02   -0.48710E-02 30992   0.739E-01    0.730E-01
DAV:   4    -0.242974605280E+03    0.24603E-02   -0.10031E-02 30544   0.362E-01    0.435E-01
DAV:   5    -0.242974242550E+03    0.36273E-03   -0.17595E-03 29592   0.161E-01    0.143E-01
DAV:   6    -0.242974248890E+03   -0.63402E-05   -0.78686E-04 30536   0.101E-01    0.721E-02
DAV:   7    -0.242974252773E+03   -0.38826E-05   -0.81545E-05 28632   0.346E-02
  26 F= -.24297425E+03 E0= -.24297425E+03  d E =0.286661E-01  mag=    20.0000
       N       E                     dE             d eps       ncg     rms          rms(c)
DAV:   1    -0.242939145008E+03    0.35104E-01   -0.22014E+01 25600   0.149E+01    0.229E+00
DAV:   2    -0.243010504810E+03   -0.71360E-01   -0.77563E-01 27672   0.258E+00    0.930E-01
DAV:   3    -0.243007819788E+03    0.26850E-02   -0.21641E-02 30192   0.501E-01    0.535E-01
DAV:   4    -0.243006765031E+03    0.10548E-02   -0.39625E-03 31232   0.232E-01    0.325E-01
DAV:   5    -0.243006514666E+03    0.25036E-03   -0.78325E-04 29896   0.119E-01    0.963E-02
DAV:   6    -0.243006529335E+03   -0.14669E-04   -0.41895E-04 30688   0.719E-02    0.575E-02
DAV:   7    -0.243006528399E+03    0.93642E-06   -0.37454E-05 25136   0.239E-02
  27 F= -.24300653E+03 E0= -.24300653E+03  d E =-.322756E-01  mag=    20.0000
       N       E                     dE             d eps       ncg     rms          rms(c)
DAV:   1    -0.243001283831E+03    0.52455E-02   -0.14049E+00 25632   0.420E+00    0.848E-01
DAV:   2    -0.243007060144E+03   -0.57763E-02   -0.66475E-02 28384   0.791E-01    0.418E-01
DAV:   3    -0.243006719403E+03    0.34074E-03   -0.27418E-03 30648   0.185E-01    0.244E-01
DAV:   4    -0.243006580696E+03    0.13871E-03   -0.48454E-04 31832   0.871E-02    0.144E-01
DAV:   5    -0.243006556776E+03    0.23920E-04   -0.10417E-04 28872   0.435E-02    0.364E-02
DAV:   6    -0.243006556711E+03    0.64785E-07   -0.58979E-05 29064   0.281E-02
  28 F= -.24300656E+03 E0= -.24300656E+03  d E =-.283124E-04  mag=    20.0000
       N       E                     dE             d eps       ncg     rms          rms(c)
DAV:   1    -0.243007133557E+03   -0.57678E-03   -0.72543E-01 25480   0.261E+00    0.444E-01
DAV:   2    -0.243009298910E+03   -0.21654E-02   -0.24025E-02 28200   0.448E-01    0.185E-01
DAV:   3    -0.243009180454E+03    0.11846E-03   -0.73389E-04 31072   0.930E-02    0.106E-01
DAV:   4    -0.243009143460E+03    0.36994E-04   -0.13289E-04 30424   0.429E-02    0.602E-02
DAV:   5    -0.243009134321E+03    0.91395E-05   -0.24194E-05 23640   0.217E-02
  29 F= -.24300913E+03 E0= -.24300913E+03  d E =-.257761E-02  mag=    20.0000
       N       E                     dE             d eps       ncg     rms          rms(c)
DAV:   1    -0.243008192424E+03    0.95104E-03   -0.62923E-01 25920   0.280E+00    0.278E-01
DAV:   2    -0.243010745238E+03   -0.25528E-02   -0.25718E-02 27576   0.466E-01    0.129E-01
DAV:   3    -0.243010767334E+03   -0.22097E-04   -0.69653E-04 30886   0.832E-02    0.695E-02
DAV:   4    -0.243010738498E+03    0.28836E-04   -0.10430E-04 30328   0.378E-02    0.408E-02
DAV:   5    -0.243010733994E+03    0.45041E-05   -0.20462E-05 22048   0.185E-02
  30 F= -.24301073E+03 E0= -.24301073E+03  d E =-.159967E-02  mag=    20.0000
       N       E                     dE             d eps       ncg     rms          rms(c)
DAV:   1    -0.242534553460E+03    0.47619E+00   -0.10630E+02 25632   0.363E+01    0.387E+00
DAV:   2    -0.242996412506E+03   -0.46186E+00   -0.46563E+00 27082   0.620E+00    0.168E+00
DAV:   3    -0.242996806347E+03   -0.39384E-03   -0.11252E-01 29856   0.107E+00    0.965E-01
DAV:   4    -0.242991456613E+03    0.53497E-02   -0.14680E-02 30976   0.429E-01    0.643E-01
DAV:   5    -0.242989494652E+03    0.19620E-02   -0.43141E-03 29992   0.286E-01    0.208E-01
DAV:   6    -0.242989608363E+03   -0.11371E-03   -0.18418E-03 29448   0.142E-01    0.840E-02
DAV:   7    -0.242989613051E+03   -0.46880E-05   -0.13661E-04 30160   0.431E-02    0.437E-02
DAV:   8    -0.242989608383E+03    0.46681E-05   -0.25089E-05 24688   0.208E-02
  31 F= -.24298961E+03 E0= -.24298961E+03  d E =0.211256E-01  mag=    20.0000
       N       E                     dE             d eps       ncg     rms          rms(c)
DAV:   1    -0.242979064329E+03    0.10549E-01   -0.13725E+01 25648   0.122E+01    0.233E+00
DAV:   2    -0.243026410088E+03   -0.47346E-01   -0.53197E-01 28024   0.219E+00    0.875E-01
DAV:   3    -0.243023746406E+03    0.26637E-02   -0.16595E-02 29976   0.461E-01    0.520E-01
DAV:   4    -0.243023039301E+03    0.70711E-03   -0.25113E-03 30824   0.186E-01    0.257E-01
DAV:   5    -0.243022716280E+03    0.32302E-03   -0.51575E-04 30432   0.109E-01    0.862E-02
DAV:   6    -0.243022722044E+03   -0.57641E-05   -0.38697E-04 30288   0.684E-02    0.512E-02
DAV:   7    -0.243022723350E+03   -0.13059E-05   -0.43708E-05 27728   0.225E-02
  32 F= -.24302272E+03 E0= -.24302272E+03  d E =-.331150E-01  mag=    20.0000
       N       E                     dE             d eps       ncg     rms          rms(c)
DAV:   1    -0.242986873942E+03    0.35848E-01   -0.91458E+00 25632   0.107E+01    0.144E+00
DAV:   2    -0.243027056004E+03   -0.40182E-01   -0.40706E-01 27744   0.181E+00    0.555E-01
DAV:   3    -0.243026968406E+03    0.87598E-04   -0.12171E-02 30808   0.346E-01    0.290E-01
DAV:   4    -0.243026463005E+03    0.50540E-03   -0.17103E-03 31048   0.156E-01    0.167E-01
DAV:   5    -0.243026371024E+03    0.91981E-04   -0.37149E-04 29384   0.765E-02    0.574E-02
DAV:   6    -0.243026373704E+03   -0.26798E-05   -0.13051E-04 30176   0.396E-02    0.314E-02
DAV:   7    -0.243026372724E+03    0.97943E-06   -0.11351E-05 18672   0.137E-02
  33 F= -.24302637E+03 E0= -.24302637E+03  d E =-.364937E-02  mag=    20.0000
       N       E                     dE             d eps       ncg     rms          rms(c)
DAV:   1    -0.243023056567E+03    0.33171E-02   -0.20833E+00 25200   0.469E+00    0.736E-01
DAV:   2    -0.243030142726E+03   -0.70862E-02   -0.75625E-02 27680   0.789E-01    0.272E-01
DAV:   3    -0.243029873408E+03    0.26932E-03   -0.19684E-03 29560   0.152E-01    0.150E-01
DAV:   4    -0.243029771035E+03    0.10237E-03   -0.32675E-04 31416   0.689E-02    0.895E-02
DAV:   5    -0.243029753540E+03    0.17495E-04   -0.77870E-05 29128   0.336E-02    0.254E-02
DAV:   6    -0.243029754371E+03   -0.83134E-06   -0.21017E-05 20896   0.174E-02
  34 F= -.24302975E+03 E0= -.24302975E+03  d E =-.338165E-02  mag=    20.0000
       N       E                     dE             d eps       ncg     rms          rms(c)
DAV:   1    -0.243026206228E+03    0.35473E-02   -0.14050E+00 25472   0.417E+00    0.492E-01
DAV:   2    -0.243031828109E+03   -0.56219E-02   -0.58991E-02 26542   0.716E-01    0.199E-01
DAV:   3    -0.243031802749E+03    0.25361E-04   -0.14914E-03 30248   0.128E-01    0.105E-01
DAV:   4    -0.243031745858E+03    0.56891E-04   -0.23223E-04 30952   0.559E-02    0.611E-02
DAV:   5    -0.243031734968E+03    0.10889E-04   -0.38841E-05 27808   0.257E-02    0.217E-02
DAV:   6    -0.243031735765E+03   -0.79662E-06   -0.16602E-05 19712   0.152E-02
  35 F= -.24303174E+03 E0= -.24303174E+03  d E =-.198139E-02  mag=    20.0000
       N       E                     dE             d eps       ncg     rms          rms(c)
DAV:   1    -0.243028137737E+03    0.35972E-02   -0.13992E+00 25544   0.442E+00    0.467E-01
DAV:   2    -0.243034477327E+03   -0.63396E-02   -0.65957E-02 26222   0.767E-01    0.200E-01
DAV:   3    -0.243034491765E+03   -0.14438E-04   -0.16415E-03 30360   0.132E-01    0.107E-01
DAV:   4    -0.243034415244E+03    0.76521E-04   -0.23190E-04 31344   0.596E-02    0.589E-02
DAV:   5    -0.243034406051E+03    0.91934E-05   -0.57968E-05 28504   0.292E-02
  36 F= -.24303441E+03 E0= -.24303441E+03  d E =-.267029E-02  mag=    20.0000
       N       E                     dE             d eps       ncg     rms          rms(c)
DAV:   1    -0.242963652056E+03    0.70763E-01   -0.16111E+01 25568   0.152E+01    0.153E+00
DAV:   2    -0.243040915911E+03   -0.77264E-01   -0.79249E-01 25924   0.264E+00    0.674E-01
DAV:   3    -0.243041775985E+03   -0.86007E-03   -0.20533E-02 30816   0.455E-01    0.355E-01
DAV:   4    -0.243041069756E+03    0.70623E-03   -0.24472E-03 31040   0.188E-01    0.206E-01
DAV:   5    -0.243040953891E+03    0.11587E-03   -0.53762E-04 29680   0.958E-02    0.705E-02
DAV:   6    -0.243040967708E+03   -0.13816E-04   -0.19407E-04 30640   0.486E-02    0.335E-02
DAV:   7    -0.243040969631E+03   -0.19234E-05   -0.16655E-05 21464   0.156E-02
  37 F= -.24304097E+03 E0= -.24304097E+03  d E =-.656358E-02  mag=    20.0000
       N       E                     dE             d eps       ncg     rms          rms(c)
DAV:   1    -0.242810050727E+03    0.23092E+00   -0.60785E+01 25496   0.257E+01    0.344E+00
DAV:   2    -0.243019997823E+03   -0.20995E+00   -0.22681E+00 27432   0.446E+00    0.143E+00
DAV:   3    -0.243013836561E+03    0.61613E-02   -0.59039E-02 30192   0.846E-01    0.904E-01
DAV:   4    -0.243010368347E+03    0.34682E-02   -0.88298E-03 31480   0.366E-01    0.579E-01
DAV:   5    -0.243009168996E+03    0.11994E-02   -0.28663E-03 29816   0.241E-01    0.160E-01
DAV:   6    -0.243009238232E+03   -0.69236E-04   -0.15456E-03 30184   0.142E-01    0.920E-02
DAV:   7    -0.243009231288E+03    0.69438E-05   -0.17303E-04 29328   0.453E-02    0.421E-02
DAV:   8    -0.243009223441E+03    0.78471E-05   -0.31454E-05 26424   0.211E-02
  38 F= -.24300922E+03 E0= -.24300922E+03  d E =0.317462E-01  mag=    20.0000
       N       E                     dE             d eps       ncg     rms          rms(c)
DAV:   1    -0.243003274423E+03    0.59569E-02   -0.13661E+01 25688   0.126E+01    0.269E+00
DAV:   2    -0.243056963759E+03   -0.53689E-01   -0.60180E-01 28992   0.235E+00    0.102E+00
DAV:   3    -0.243053246436E+03    0.37173E-02   -0.22361E-02 29472   0.531E-01    0.617E-01
DAV:   4    -0.243052077274E+03    0.11692E-02   -0.32153E-03 31608   0.231E-01    0.329E-01
DAV:   5    -0.243051490570E+03    0.58670E-03   -0.90060E-04 29960   0.153E-01    0.101E-01
DAV:   6    -0.243051502622E+03   -0.12052E-04   -0.68451E-04 29624   0.894E-02    0.679E-02
DAV:   7    -0.243051499160E+03    0.34625E-05   -0.70999E-05 29560   0.294E-02
  39 F= -.24305150E+03 E0= -.24305150E+03  d E =-.422757E-01  mag=    20.0000
       N       E                     dE             d eps       ncg     rms          rms(c)
DAV:   1    -0.243017540252E+03    0.33962E-01   -0.12429E+01 25024   0.108E+01    0.163E+00
DAV:   2    -0.243051985985E+03   -0.34446E-01   -0.37686E-01 28400   0.176E+00    0.790E-01
DAV:   3    -0.243050406062E+03    0.15799E-02   -0.10336E-02 30744   0.367E-01    0.380E-01
DAV:   4    -0.243050046780E+03    0.35928E-03   -0.27763E-03 30496   0.184E-01    0.235E-01
DAV:   5    -0.243050044992E+03    0.17876E-05   -0.34513E-04 29792   0.666E-02    0.105E-01
DAV:   6    -0.243050044094E+03    0.89817E-06   -0.10637E-04 29440   0.348E-02    0.629E-02
DAV:   7    -0.243050040166E+03    0.39278E-05   -0.14295E-05 19528   0.153E-02
  40 F= -.24305004E+03 E0= -.24305004E+03  d E =0.145899E-02  mag=    20.0000
       N       E                     dE             d eps       ncg     rms          rms(c)
DAV:   1    -0.243038777078E+03    0.11267E-01   -0.20279E+00 25960   0.540E+00    0.138E+00
DAV:   2    -0.243050694755E+03   -0.11918E-01   -0.13204E-01 28064   0.106E+00    0.547E-01
DAV:   3    -0.243049843426E+03    0.85133E-03   -0.44290E-03 29600   0.240E-01    0.250E-01
DAV:   4    -0.243049704865E+03    0.13856E-03   -0.79691E-04 30616   0.106E-01    0.131E-01
DAV:   5    -0.243049674626E+03    0.30238E-04   -0.15381E-04 30352   0.455E-02    0.507E-02
DAV:   6    -0.243049675666E+03   -0.10397E-05   -0.39719E-05 27272   0.213E-02
  41 F= -.24304968E+03 E0= -.24304968E+03  d E =0.364500E-03  mag=    20.0000
       N       E                     dE             d eps       ncg     rms          rms(c)
DAV:   1    -0.243051829825E+03   -0.21552E-02   -0.18066E+00 25048   0.404E+00    0.920E-01
DAV:   2    -0.243057104663E+03   -0.52748E-02   -0.60501E-02 28712   0.704E-01    0.363E-01
DAV:   3    -0.243056640974E+03    0.46369E-03   -0.19349E-03 30552   0.159E-01    0.187E-01
DAV:   4    -0.243056550966E+03    0.90008E-04   -0.42262E-04 30672   0.723E-02    0.118E-01
DAV:   5    -0.243056542265E+03    0.87016E-05   -0.74212E-05 28832   0.310E-02
  42 F= -.24305654E+03 E0= -.24305654E+03  d E =-.686660E-02  mag=    20.0000
       N       E                     dE             d eps       ncg     rms          rms(c)
DAV:   1    -0.243054059172E+03    0.24918E-02   -0.81767E-01 26192   0.295E+00    0.242E-01
DAV:   2    -0.243056675183E+03   -0.26160E-02   -0.26927E-02 26840   0.478E-01    0.120E-01
DAV:   3    -0.243056657010E+03    0.18173E-04   -0.61384E-04 30656   0.792E-02    0.673E-02
DAV:   4    -0.243056616242E+03    0.40768E-04   -0.12230E-04 30752   0.414E-02    0.389E-02
DAV:   5    -0.243056612101E+03    0.41415E-05   -0.31885E-05 24600   0.203E-02
  43 F= -.24305661E+03 E0= -.24305661E+03  d E =-.698357E-04  mag=    20.0000
       N       E                     dE             d eps       ncg     rms          rms(c)
DAV:   1    -0.242710986970E+03    0.34563E+00   -0.58517E+01 25624   0.290E+01    0.376E+00
DAV:   2    -0.243008938083E+03   -0.29795E+00   -0.30646E+00 27624   0.516E+00    0.187E+00
DAV:   3    -0.243009900998E+03   -0.96292E-03   -0.92580E-02 30592   0.988E-01    0.111E+00
DAV:   4    -0.243006067217E+03    0.38338E-02   -0.14180E-02 31240   0.439E-01    0.679E-01
DAV:   5    -0.243005407021E+03    0.66020E-03   -0.31008E-03 29960   0.228E-01    0.215E-01
DAV:   6    -0.243005442797E+03   -0.35776E-04   -0.12204E-03 31344   0.128E-01    0.871E-02
DAV:   7    -0.243005438322E+03    0.44752E-05   -0.14181E-04 29376   0.427E-02    0.409E-02
DAV:   8    -0.243005427917E+03    0.10405E-04   -0.37167E-05 26400   0.247E-02    0.234E-02
DAV:   9    -0.243005427827E+03    0.90018E-07   -0.10657E-05 16664   0.116E-02
  44 F= -.24300543E+03 E0= -.24300543E+03  d E =0.511843E-01  mag=    20.0000
       N       E                     dE             d eps       ncg     rms          rms(c)
DAV:   1    -0.242883137873E+03    0.12229E+00   -0.53177E+01 25104   0.228E+01    0.441E+00
DAV:   2    -0.243058179675E+03   -0.17504E+00   -0.19399E+00 27992   0.395E+00    0.147E+00
DAV:   3    -0.243049836233E+03    0.83434E-02   -0.46820E-02 29424   0.749E-01    0.700E-01
DAV:   4    -0.243047341959E+03    0.24943E-02   -0.11052E-02 30376   0.361E-01    0.425E-01
DAV:   5    -0.243046987511E+03    0.35445E-03   -0.16036E-03 31952   0.153E-01    0.176E-01
DAV:   6    -0.243046999033E+03   -0.11522E-04   -0.68974E-04 32496   0.945E-02    0.793E-02
DAV:   7    -0.243047003882E+03   -0.48493E-05   -0.11148E-04 30336   0.373E-02    0.319E-02
DAV:   8    -0.243047004478E+03   -0.59576E-06   -0.45894E-05 27480   0.218E-02
  45 F= -.24304700E+03 E0= -.24304700E+03  d E =-.415767E-01  mag=    20.0000
       N       E                     dE             d eps       ncg     rms          rms(c)
DAV:   1    -0.242858749159E+03    0.18825E+00   -0.50288E+01 25776   0.252E+01    0.399E+00
DAV:   2    -0.243058043347E+03   -0.19929E+00   -0.21044E+00 27648   0.434E+00    0.162E+00
DAV:   3    -0.243052843932E+03    0.51994E-02   -0.67335E-02 30744   0.908E-01    0.817E-01
DAV:   4    -0.243050720086E+03    0.21238E-02   -0.10852E-02 31240   0.393E-01    0.434E-01
DAV:   5    -0.243050394667E+03    0.32542E-03   -0.18356E-03 30336   0.157E-01    0.164E-01
DAV:   6    -0.243050345505E+03    0.49162E-04   -0.43647E-04 32136   0.761E-02    0.793E-02
DAV:   7    -0.243050332086E+03    0.13419E-04   -0.73557E-05 29944   0.328E-02    0.349E-02
DAV:   8    -0.243050327680E+03    0.44066E-05   -0.27562E-05 25536   0.196E-02
  46 F= -.24305033E+03 E0= -.24305033E+03  d E =-.332320E-02  mag=    20.0000
       N       E                     dE             d eps       ncg     rms          rms(c)
DAV:   1    -0.242991686033E+03    0.58646E-01   -0.17684E+01 25304   0.133E+01    0.254E+00
DAV:   2    -0.243051695146E+03   -0.60009E-01   -0.66257E-01 28144   0.235E+00    0.996E-01
DAV:   3    -0.243048515405E+03    0.31797E-02   -0.17717E-02 29400   0.464E-01    0.526E-01
DAV:   4    -0.243047691420E+03    0.82399E-03   -0.34994E-03 30712   0.207E-01    0.321E-01
DAV:   5    -0.243047468190E+03    0.22323E-03   -0.56941E-04 29680   0.987E-02    0.110E-01
DAV:   6    -0.243047481757E+03   -0.13567E-04   -0.34437E-04 32760   0.663E-02    0.516E-02
DAV:   7    -0.243047481151E+03    0.60568E-06   -0.45265E-05 27496   0.242E-02
  47 F= -.24304748E+03 E0= -.24304748E+03  d E =0.284653E-02  mag=    20.0000
       N       E                     dE             d eps       ncg     rms          rms(c)
DAV:   1    -0.242956685787E+03    0.90796E-01   -0.27862E+01 25904   0.192E+01    0.242E+00
DAV:   2    -0.243074135178E+03   -0.11745E+00   -0.12450E+00 27604   0.333E+00    0.117E+00
DAV:   3    -0.243073409775E+03    0.72540E-03   -0.35385E-02 30544   0.634E-01    0.687E-01
DAV:   4    -0.243072072310E+03    0.13375E-02   -0.62422E-03 30720   0.282E-01    0.424E-01
DAV:   5    -0.243071821336E+03    0.25097E-03   -0.96517E-04 29704   0.134E-01    0.136E-01
DAV:   6    -0.243071844625E+03   -0.23289E-04   -0.55182E-04 31328   0.872E-02    0.562E-02
DAV:   7    -0.243071846494E+03   -0.18689E-05   -0.67131E-05 28384   0.289E-02
  48 F= -.24307185E+03 E0= -.24307185E+03  d E =-.243653E-01  mag=    20.0000
       N       E                     dE             d eps       ncg     rms          rms(c)
DAV:   1    -0.243042768353E+03    0.29076E-01   -0.26840E+00 26552   0.511E+00    0.182E+00
DAV:   2    -0.243052718239E+03   -0.99499E-02   -0.13847E-01 29416   0.111E+00    0.755E-01
DAV:   3    -0.243050309035E+03    0.24092E-02   -0.66327E-03 29432   0.280E-01    0.354E-01
DAV:   4    -0.243049985304E+03    0.32373E-03   -0.10515E-03 29960   0.113E-01    0.153E-01
DAV:   5    -0.243049857243E+03    0.12806E-03   -0.21612E-04 30872   0.732E-02    0.512E-02
DAV:   6    -0.243049856413E+03    0.82996E-06   -0.13722E-04 28888   0.373E-02    0.310E-02
DAV:   7    -0.243049855142E+03    0.12706E-05   -0.13746E-05 19080   0.131E-02
  49 F= -.24304986E+03 E0= -.24304986E+03  d E =0.219914E-01  mag=    20.0000
       N       E                     dE             d eps       ncg     rms          rms(c)
DAV:   1    -0.243059341005E+03   -0.94846E-02   -0.42137E+00 25048   0.665E+00    0.170E+00
DAV:   2    -0.243074064046E+03   -0.14723E-01   -0.17582E-01 28712   0.126E+00    0.616E-01
DAV:   3    -0.243072341070E+03    0.17230E-02   -0.64448E-03 29488   0.280E-01    0.337E-01
DAV:   4    -0.243072023372E+03    0.31770E-03   -0.86725E-04 30320   0.115E-01    0.162E-01
DAV:   5    -0.243071876561E+03    0.14681E-03   -0.25657E-04 29536   0.738E-02    0.480E-02
DAV:   6    -0.243071880774E+03   -0.42130E-05   -0.16411E-04 29936   0.418E-02    0.373E-02
DAV:   7    -0.243071879102E+03    0.16722E-05   -0.12612E-05 19104   0.146E-02
  50 F= -.24307188E+03 E0= -.24307188E+03  d E =-.220240E-01  mag=    20.0000
       N       E                     dE             d eps       ncg     rms          rms(c)
DAV:   1    -0.243071679727E+03    0.20105E-03   -0.52117E-02 25726   0.799E-01    0.837E-02
DAV:   2    -0.243071887423E+03   -0.20770E-03   -0.20683E-03 28248   0.133E-01    0.398E-02
DAV:   3    -0.243071888230E+03   -0.80655E-06   -0.54773E-05 25986   0.241E-02    0.218E-02
DAV:   4    -0.243071885531E+03    0.26987E-05   -0.80517E-06 16944   0.112E-02
  51 F= -.24307189E+03 E0= -.24307189E+03  d E =-.642948E-05  mag=    20.0000
