       N       E                     dE             d eps       ncg     rms          rms(c)
DAV:   1     0.254153955968E+04    0.25415E+04   -0.13388E+05 24500   0.153E+03
DAV:   2    -0.162869882700E+03   -0.27044E+04   -0.25694E+04 25130   0.437E+02
DAV:   3    -0.491540508150E+03   -0.32867E+03   -0.31802E+03 30170   0.153E+02
DAV:   4    -0.506206251992E+03   -0.14666E+02   -0.14558E+02 35870   0.351E+01
DAV:   5    -0.507362168374E+03   -0.11559E+01   -0.11537E+01 45440   0.703E+00    0.726E+00
DAV:   6    -0.424458065320E+03    0.82904E+02   -0.25917E+01 27240   0.149E+01    0.755E+00
DAV:   7    -0.424459053317E+03   -0.98800E-03   -0.16366E+00 36850   0.512E+00    0.430E+00
DAV:   8    -0.424327060816E+03    0.13199E+00   -0.56360E-01 35580   0.154E+00    0.603E+00
DAV:   9    -0.424295178022E+03    0.31883E-01   -0.25479E-01 33350   0.114E+00    0.256E+00
DAV:  10    -0.424279049110E+03    0.16129E-01   -0.33716E-02 28790   0.571E-01    0.235E+00
DAV:  11    -0.424254757645E+03    0.24291E-01   -0.21362E-02 29000   0.402E-01    0.167E+00
DAV:  12    -0.424245352884E+03    0.94048E-02   -0.67078E-03 32330   0.227E-01    0.139E+00
DAV:  13    -0.424240727189E+03    0.46257E-02   -0.22327E-03 31590   0.117E-01    0.111E+00
DAV:  14    -0.424238658021E+03    0.20692E-02   -0.80536E-04 28320   0.889E-02    0.103E+00
DAV:  15    -0.424235561148E+03    0.30969E-02   -0.12249E-03 29140   0.951E-02    0.875E-01
DAV:  16    -0.424230003280E+03    0.55579E-02   -0.58097E-03 28520   0.207E-01    0.570E-01
DAV:  17    -0.424228536438E+03    0.14668E-02   -0.10951E-03 35350   0.920E-02    0.445E-01
DAV:  18    -0.424227441924E+03    0.10945E-02   -0.71015E-04 28450   0.741E-02    0.344E-01
DAV:  19    -0.424226346663E+03    0.10953E-02   -0.15289E-03 29500   0.107E-01    0.187E-01
DAV:  20    -0.424225972204E+03    0.37446E-03   -0.59252E-04 29960   0.663E-02    0.939E-02
DAV:  21    -0.424225853401E+03    0.11880E-03   -0.18280E-04 31560   0.366E-02    0.469E-02
DAV:  22    -0.424225828811E+03    0.24590E-04   -0.33608E-05 20870   0.164E-02    0.226E-02
DAV:  23    -0.424225829077E+03   -0.26626E-06   -0.54229E-06 14400   0.861E-03
   1 F= -.42422583E+03 E0= -.42422130E+03  d E =-.424226E+03  mag=    10.0000
