 vasp.6.1.2 22Jul20 (build Feb 09 2022 12:23:39) complex                        
  
 executed on             LinuxIFC date 2022.02.14  18:47:57
 running on  240 total cores
 distrk:  each k-point on  240 cores,    1 groups
 distr:  one band on NCORE=  24 cores,   10 groups


--------------------------------------------------------------------------------------------------------


 INCAR:
 POTCAR:    PAW_PBE Ca_sv 06Sep2000               
 POTCAR:    PAW_PBE V_pv 07Sep2000                
 POTCAR:    PAW_PBE P 06Sep2000                   
 POTCAR:    PAW_PBE O 08Apr2002                   
 POTCAR:    PAW_PBE Ca_sv 06Sep2000               
   SHA256 =  a47365830e737f14e0e6c5cf1ed81b94e081eecf0a33df105380881bc9da05d5 Ca_sv/POTCAR          
   COPYR  = (c) Copyright 06Sep2000 Georg Kresse                                                    
   COPYR  = This file is part of the software VASP. Any use, copying, and all other rights are regul
   COPYR  = If you do not have a valid VASP license, you may not use, copy or distribute this file. 
   VRHFIN =Ca: 3s3p4s                                                                               
   LEXCH  = PE                                                                                      
   EATOM  =  1006.0909 eV,   73.9456 Ry                                                             
                                                                                                    
   TITEL  = PAW_PBE Ca_sv 06Sep2000                                                                 
   LULTRA =        F    use ultrasoft PP ?                                                          
   IUNSCR =        1    unscreen: 0-lin 1-nonlin 2-no                                               
   RPACOR =    2.000    partial core radius                                                         
   POMASS =   40.078; ZVAL   =   10.000    mass and valenz                                          
   RCORE  =    2.300    outmost cutoff radius                                                       
   RWIGS  =    2.500; RWIGS  =    1.323    wigner-seitz radius (au A)                               
   ENMAX  =  266.622; ENMIN  =  199.967 eV                                                          
   RCLOC  =    1.808    cutoff for local pot                                                        
   LCOR   =        T    correct aug charges                                                         
   LPAW   =        T    paw PP                                                                      
   EAUG   =  420.852                                                                                
   RMAX   =    2.359    core radius for proj-oper                                                   
   RAUG   =    1.300    factor for augmentation sphere                                              
   RDEP   =    2.392    radius for radial grids                                                     
   RDEPT  =    1.987    core radius for aug-charge                                                  
                                                                                                    
   Atomic configuration                                                                             
    7 entries                                                                                       
     n  l   j            E        occ.                                                              
     1  0  0.50     -3949.1705   2.0000                                                             
     2  0  0.50      -414.3434   2.0000                                                             
     2  1  1.50      -334.7047   6.0000                                                             
     3  0  0.50       -47.0896   2.0000                                                             
     4  0  0.50        -3.7663   2.0000                                                             
     3  1  1.50       -28.0061   6.0000                                                             
     3  2  1.50        -4.0817   0.0000                                                             
   Description                                                                                      
     l       E           TYP  RCUT    TYP  RCUT                                                     
     0    -47.0896403     23  2.300                                                                 
     0     -3.7663320     23  2.300                                                                 
     1    -28.0060855     23  2.300                                                                 
     1      6.8029130     23  2.300                                                                 
     2     -4.0817478     23  2.300                                                                 
     2      0.4464412     23  2.300                                                                 
  local pseudopotential read in
  partial core-charges read in
  partial kinetic energy density read in
  atomic valenz-charges read in
  non local Contribution for L=           0  read in
    real space projection operators read in
  non local Contribution for L=           0  read in
    real space projection operators read in
  non local Contribution for L=           1  read in
    real space projection operators read in
  non local Contribution for L=           1  read in
    real space projection operators read in
  non local Contribution for L=           2  read in
    real space projection operators read in
  non local Contribution for L=           2  read in
    real space projection operators read in
    PAW grid and wavefunctions read in
 
   number of l-projection  operators is LMAX  =           6
   number of lm-projection operators is LMMAX =          18
 
 POTCAR:    PAW_PBE V_pv 07Sep2000                
   SHA256 =  1175d3c8cb4ffd1d150a520fa74fae5c3ec72c0849b5615a94a5372dd2cf07f7 V_pv/POTCAR           
   COPYR  = (c) Copyright 07Sep2000 Georg Kresse                                                    
   COPYR  = This file is part of the software VASP. Any use, copying, and all other rights are regul
   COPYR  = If you do not have a valid VASP license, you may not use, copy or distribute this file. 
   VRHFIN =V: p6 d4 s1                                                                              
   LEXCH  = PE                                                                                      
   EATOM  =  1321.6206 eV,   97.1364 Ry                                                             
                                                                                                    
   TITEL  = PAW_PBE V_pv 07Sep2000                                                                  
   LULTRA =        F    use ultrasoft PP ?                                                          
   IUNSCR =        1    unscreen: 0-lin 1-nonlin 2-no                                               
   RPACOR =    1.700    partial core radius                                                         
   POMASS =   50.941; ZVAL   =   11.000    mass and valenz                                          
   RCORE  =    2.300    outmost cutoff radius                                                       
   RWIGS  =    2.300; RWIGS  =    1.217    wigner-seitz radius (au A)                               
   ENMAX  =  263.673; ENMIN  =  197.755 eV                                                          
   RCLOC  =    1.779    cutoff for local pot                                                        
   LCOR   =        T    correct aug charges                                                         
   LPAW   =        T    paw PP                                                                      
   EAUG   =  598.473                                                                                
   DEXC   =    0.000                                                                                
   RMAX   =    2.359    core radius for proj-oper                                                   
   RAUG   =    1.300    factor for augmentation sphere                                              
   RDEP   =    2.430    radius for radial grids                                                     
   RDEPT  =    1.700    core radius for aug-charge                                                  
                                                                                                    
   Atomic configuration                                                                             
    8 entries                                                                                       
     n  l   j            E        occ.                                                              
     1  0  0.50     -5360.7193   2.0000                                                             
     2  0  0.50      -598.4546   2.0000                                                             
     2  1  1.50      -499.0155   6.0000                                                             
     3  0  0.50       -66.5711   2.0000                                                             
     3  1  1.50       -40.5282   6.0000                                                             
     3  2  2.50        -2.4291   4.0000                                                             
     4  0  0.50        -3.8743   1.0000                                                             
     4  3  2.50        -1.3606   0.0000                                                             
   Description                                                                                      
     l       E           TYP  RCUT    TYP  RCUT                                                     
     1    -40.5282431     23  2.000                                                                 
     1      5.4423304     23  2.000                                                                 
     2     -2.4290905     23  2.300                                                                 
     2     -1.0472488     23  2.300                                                                 
     0     -3.8742754     23  2.300                                                                 
     0     27.2116520     23  2.300                                                                 
  local pseudopotential read in
  partial core-charges read in
  partial kinetic energy density read in
  atomic valenz-charges read in
  non local Contribution for L=           1  read in
    real space projection operators read in
  non local Contribution for L=           1  read in
    real space projection operators read in
  non local Contribution for L=           2  read in
    real space projection operators read in
  non local Contribution for L=           2  read in
    real space projection operators read in
  non local Contribution for L=           0  read in
    real space projection operators read in
  non local Contribution for L=           0  read in
    real space projection operators read in
    PAW grid and wavefunctions read in
 
   number of l-projection  operators is LMAX  =           6
   number of lm-projection operators is LMMAX =          18
 
 POTCAR:    PAW_PBE P 06Sep2000                   
   SHA256 =  df60c54a93efe35c9e85ae94c010c75e9f6960a95d5595d7cdba4096d109af88 P/POTCAR              
   COPYR  = (c) Copyright 06Sep2000 Georg Kresse                                                    
   COPYR  = This file is part of the software VASP. Any use, copying, and all other rights are regul
   COPYR  = If you do not have a valid VASP license, you may not use, copy or distribute this file. 
   VRHFIN =P : s2p3                                                                                 
   LEXCH  = PE                                                                                      
   EATOM  =   176.0430 eV,   12.9388 Ry                                                             
                                                                                                    
   TITEL  = PAW_PBE P 06Sep2000                                                                     
   LULTRA =        F    use ultrasoft PP ?                                                          
   IUNSCR =        1    unscreen: 0-lin 1-nonlin 2-no                                               
   RPACOR =    1.500    partial core radius                                                         
   POMASS =   30.974; ZVAL   =    5.000    mass and valenz                                          
   RCORE  =    1.900    outmost cutoff radius                                                       
   RWIGS  =    2.330; RWIGS  =    1.233    wigner-seitz radius (au A)                               
   ENMAX  =  255.040; ENMIN  =  191.280 eV                                                          
   ICORE  =        2    local potential                                                             
   LCOR   =        T    correct aug charges                                                         
   LPAW   =        T    paw PP                                                                      
   EAUG   =  342.924                                                                                
   DEXC   =    0.000                                                                                
   RMAX   =    1.935    core radius for proj-oper                                                   
   RAUG   =    1.300    factor for augmentation sphere                                              
   RDEP   =    1.931    radius for radial grids                                                     
   RDEPT  =    1.794    core radius for aug-charge                                                  
                                                                                                    
   Atomic configuration                                                                             
    6 entries                                                                                       
     n  l   j            E        occ.                                                              
     1  0  0.50     -2084.0982   2.0000                                                             
     2  0  0.50      -173.9859   2.0000                                                             
     2  1  1.50      -124.4865   6.0000                                                             
     3  0  0.50       -13.9692   2.0000                                                             
     3  1  0.50        -5.5067   3.0000                                                             
     3  2  1.50        -5.4423   0.0000                                                             
   Description                                                                                      
     l       E           TYP  RCUT    TYP  RCUT                                                     
     0    -13.9691527     23  1.900                                                                 
     0    -11.7794650     23  1.900                                                                 
     1     -5.5066937     23  1.900                                                                 
     1     -0.2556953     23  1.900                                                                 
     2     -5.4423304     23  1.900                                                                 
  local pseudopotential read in
  partial core-charges read in
  partial kinetic energy density read in
  atomic valenz-charges read in
  non local Contribution for L=           0  read in
    real space projection operators read in
  non local Contribution for L=           0  read in
    real space projection operators read in
  non local Contribution for L=           1  read in
    real space projection operators read in
  non local Contribution for L=           1  read in
    real space projection operators read in
    PAW grid and wavefunctions read in
 
   number of l-projection  operators is LMAX  =           4
   number of lm-projection operators is LMMAX =           8
 
 POTCAR:    PAW_PBE O 08Apr2002                   
   SHA256 =  818f92134a0a090dccd8ba1447fa70422a3b330e708bb4f08108d8ae51209ddf O/POTCAR              
   COPYR  = (c) Copyright 08Apr2002 Georg Kresse                                                    
   COPYR  = This file is part of the software VASP. Any use, copying, and all other rights are regul
   COPYR  = If you do not have a valid VASP license, you may not use, copy or distribute this file. 
   VRHFIN =O: s2p4                                                                                  
   LEXCH  = PE                                                                                      
   EATOM  =   432.3788 eV,   31.7789 Ry                                                             
                                                                                                    
   TITEL  = PAW_PBE O 08Apr2002                                                                     
   LULTRA =        F    use ultrasoft PP ?                                                          
   IUNSCR =        1    unscreen: 0-lin 1-nonlin 2-no                                               
   RPACOR =    1.200    partial core radius                                                         
   POMASS =   16.000; ZVAL   =    6.000    mass and valenz                                          
   RCORE  =    1.520    outmost cutoff radius                                                       
   RWIGS  =    1.550; RWIGS  =    0.820    wigner-seitz radius (au A)                               
   ENMAX  =  400.000; ENMIN  =  300.000 eV                                                          
   ICORE  =        2    local potential                                                             
   LCOR   =        T    correct aug charges                                                         
   LPAW   =        T    paw PP                                                                      
   EAUG   =  605.392                                                                                
   DEXC   =    0.000                                                                                
   RMAX   =    1.553    core radius for proj-oper                                                   
   RAUG   =    1.300    factor for augmentation sphere                                              
   RDEP   =    1.550    radius for radial grids                                                     
   RDEPT  =    1.329    core radius for aug-charge                                                  
                                                                                                    
   Atomic configuration                                                                             
    4 entries                                                                                       
     n  l   j            E        occ.                                                              
     1  0  0.50      -514.6923   2.0000                                                             
     2  0  0.50       -23.9615   2.0000                                                             
     2  1  0.50        -9.0305   4.0000                                                             
     3  2  1.50        -9.5241   0.0000                                                             
   Description                                                                                      
     l       E           TYP  RCUT    TYP  RCUT                                                     
     0    -23.9615318     23  1.200                                                                 
     0     -9.5240782     23  1.200                                                                 
     1     -9.0304911     23  1.520                                                                 
     1      8.1634956     23  1.520                                                                 
     2     -9.5240782      7  1.500                                                                 
  local pseudopotential read in
  partial core-charges read in
  partial kinetic energy density read in
  kinetic energy density of atom read in
  atomic valenz-charges read in
  non local Contribution for L=           0  read in
    real space projection operators read in
  non local Contribution for L=           0  read in
    real space projection operators read in
  non local Contribution for L=           1  read in
    real space projection operators read in
  non local Contribution for L=           1  read in
    real space projection operators read in
    PAW grid and wavefunctions read in
 
   number of l-projection  operators is LMAX  =           4
   number of lm-projection operators is LMMAX =           8
 
 Optimization of the real space projectors (new method)

 maximal supplied QI-value         = 16.25
 optimisation between [QCUT,QGAM] = [ 11.54, 23.24] = [ 37.28,151.24] Ry 
 Optimized for a Real-space Cutoff    1.58 Angstroem

   l    n(q)    QCUT    max X(q) W(low)/X(q) W(high)/X(q)  e(spline) 
   0     11    11.539    11.817    0.25E-04    0.22E-05    0.26E-07
   0     11    11.539     8.461    0.39E-04    0.49E-05    0.55E-07
   1     11    11.539     3.957    0.21E-05    0.44E-05    0.32E-07
   1     11    11.539     4.314    0.56E-04    0.44E-04    0.19E-06
   2     10    11.539    14.565    0.25E-03    0.21E-04    0.75E-06
   2     10    11.539    14.552    0.23E-03    0.22E-04    0.72E-06
 Optimization of the real space projectors (new method)

 maximal supplied QI-value         = 16.25
 optimisation between [QCUT,QGAM] = [ 11.54, 23.24] = [ 37.28,151.24] Ry 
 Optimized for a Real-space Cutoff    1.53 Angstroem

   l    n(q)    QCUT    max X(q) W(low)/X(q) W(high)/X(q)  e(spline) 
   1     10    11.539     3.206    0.43E-05    0.46E-05    0.52E-07
   1     10    11.539     4.597    0.39E-04    0.25E-04    0.17E-06
   2     10    11.539    89.000    0.10E-03    0.13E-03    0.24E-06
   2     10    11.539    82.410    0.10E-03    0.13E-03    0.23E-06
   0     11    11.539    36.565    0.42E-04    0.19E-04    0.30E-06
   0     11    11.539    13.729    0.20E-04    0.13E-04    0.22E-06
 Optimization of the real space projectors (new method)

 maximal supplied QI-value         = 19.84
 optimisation between [QCUT,QGAM] = [ 11.51, 23.22] = [ 37.09,150.92] Ry 
 Optimized for a Real-space Cutoff    1.21 Angstroem

   l    n(q)    QCUT    max X(q) W(low)/X(q) W(high)/X(q)  e(spline) 
   0      8    11.508   160.924    0.96E-04    0.17E-03    0.52E-07
   0      8    11.508   130.086    0.95E-04    0.17E-03    0.51E-07
   1      8    11.508    74.434    0.16E-03    0.74E-04    0.91E-07
   1      8    11.508    49.120    0.16E-03    0.71E-04    0.89E-07
 Optimization of the real space projectors (new method)

 maximal supplied QI-value         = 24.76
 optimisation between [QCUT,QGAM] = [ 11.64, 23.27] = [ 37.91,151.63] Ry 
 Optimized for a Real-space Cutoff    1.14 Angstroem

   l    n(q)    QCUT    max X(q) W(low)/X(q) W(high)/X(q)  e(spline) 
   0      8    11.635    20.381    0.10E-03    0.33E-03    0.24E-06
   0      8    11.635    15.268    0.11E-03    0.35E-03    0.26E-06
   1      7    11.635     5.964    0.24E-03    0.31E-03    0.30E-06
   1      7    11.635     5.382    0.22E-03    0.25E-03    0.26E-06
  PAW_PBE Ca_sv 06Sep2000               :
 energy of atom  1       EATOM=-1006.0909
 kinetic energy error for atom=    0.0022 (will be added to EATOM!!)
  PAW_PBE V_pv 07Sep2000                :
 energy of atom  2       EATOM=-1321.6206
 kinetic energy error for atom=    0.0054 (will be added to EATOM!!)
  PAW_PBE P 06Sep2000                   :
 energy of atom  3       EATOM= -176.0430
 kinetic energy error for atom=    0.0011 (will be added to EATOM!!)
  PAW_PBE O 08Apr2002                   :
 energy of atom  4       EATOM= -432.3788
 kinetic energy error for atom=    0.0208 (will be added to EATOM!!)
 
 
 POSCAR: Ca5 V4 P6 O24
  positions in direct lattice
  velocities in cartesian coordinates

 METAGGA = SCAN     LMAXTAU =  6    LMIXTAU =  F

 exchange correlation table for  LEXCH =        8
   RHO(1)=    0.500       N(1)  =     2000
   RHO(2)=  100.500       N(2)  =     4000
 


--------------------------------------------------------------------------------------------------------


 ion  position               nearest neighbor table
   1  0.966  0.005  0.022-  23 2.26  21 2.34  20 2.36  18 2.37  25 2.39  16 2.47
   2  0.411  0.744  0.109-  31 2.28  24 2.46  22 2.46  33 2.55  14 2.82  12 2.96
   3  0.155  0.405  0.740-  26 2.34  27 2.35  24 2.42  18 2.46  35 2.49  16 2.53  10 2.96  12 3.02

   4  0.243  0.884  0.592-  34 2.41  15 2.41  17 2.42  21 2.46  30 2.46  25 2.47  13 2.87  11 2.95

   5  0.646  0.631  0.631-  19 1.94  32 1.97  15 1.99  28 2.05  17 2.08  30 2.12
   6  0.141  0.151  0.150-  29 2.05  27 2.08  31 2.11  20 2.13  18 2.19  16 2.24
   7  0.842  0.857  0.858-  36 2.05  38 2.08  23 2.12  25 2.16  34 2.17  21 2.18
   8  0.356  0.347  0.352-  37 1.95  22 2.00  35 2.06  24 2.08  26 2.08  33 2.10
   9  0.247  0.557  0.952-  27 1.52  33 1.52  17 1.54  25 1.56
  10  0.040  0.749  0.448-  28 1.49  20 1.54  34 1.55  24 1.57   3 2.96
  11  0.962  0.255  0.556-  19 1.51  29 1.51  35 1.55  21 1.56   4 2.95
  12  0.447  0.031  0.741-  36 1.50  26 1.52  30 1.54  16 1.58   2 2.96   3 3.02
  13  0.537  0.949  0.250-  23 1.51  37 1.52  15 1.53  31 1.54   4 2.87
  14  0.746  0.456  0.032-  38 1.52  22 1.53  32 1.53  18 1.54   2 2.82
  15  0.562  0.771  0.414-  13 1.53   5 1.99   4 2.41
  16  0.258  0.061  0.905-  12 1.58   6 2.24   1 2.47   3 2.53
  17  0.399  0.578  0.762-   9 1.54   5 2.08   4 2.42
  18  0.924  0.288  0.029-  14 1.54   6 2.19   1 2.37   3 2.46
  19  0.781  0.410  0.563-  11 1.51   5 1.94
  20  0.070  0.909  0.266-  10 1.54   6 2.13   1 2.36
  21  0.943  0.087  0.737-  11 1.56   7 2.18   1 2.34   4 2.46
  22  0.586  0.413  0.208-  14 1.53   8 2.00   2 2.46
  23  0.713  0.952  0.086-  13 1.51   7 2.12   1 2.26
  24  0.229  0.588  0.417-  10 1.57   8 2.08   3 2.42   2 2.46
  25  0.088  0.746  0.924-   9 1.56   7 2.16   1 2.39   4 2.47
  26  0.431  0.217  0.587-  12 1.52   8 2.08   3 2.34
  27  0.188  0.403  0.989-   9 1.52   6 2.08   3 2.35
  28  0.878  0.707  0.488-  10 1.49   5 2.05
  29  0.043  0.178  0.402-  11 1.51   6 2.05
  30  0.459  0.876  0.697-  12 1.54   5 2.12   4 2.46
  31  0.383  0.954  0.210-  13 1.54   6 2.11   2 2.28
  32  0.700  0.508  0.863-  14 1.53   5 1.97
  33  0.297  0.531  0.107-   9 1.52   8 2.10   2 2.55
  34  0.029  0.773  0.616-  10 1.55   7 2.17   4 2.41
  35  0.111  0.308  0.547-  11 1.55   8 2.06   3 2.49
  36  0.597  0.965  0.814-  12 1.50   7 2.05
  37  0.458  0.111  0.316-  13 1.52   8 1.95
  38  0.765  0.622  0.024-  14 1.52   7 2.08
 

IMPORTANT INFORMATION: All symmetrisations will be switched off!
NOSYMM: (Re-)initialisation of all symmetry stuff for point group C_1.


----------------------------------------------------------------------------------------

                                     Primitive cell                                     

  volume of cell :     492.6435

  direct lattice vectors                    reciprocal lattice vectors
     2.575295045  7.277754574  4.336218049    -0.000276154  0.137783618 -0.000471420
     0.023810072  0.030247511  8.826601394    -0.063596928 -0.045192730  0.113620313
     7.701847764  0.030227384  4.322993822     0.130127919 -0.045931501 -0.000193624

  length of vectors
     8.854413768  8.826685335  8.832193853     0.137784701  0.137827891  0.137996433

  position of ions in fractional coordinates (direct lattice)
     0.966440383  0.004501906  0.022171725
     0.411393869  0.744034072  0.109192546
     0.154820606  0.404629518  0.740246690
     0.242611640  0.884265451  0.592315462
     0.645880949  0.631443655  0.631166991
     0.141118202  0.151024242  0.149796763
     0.841580116  0.857410053  0.858248652
     0.355737471  0.347476973  0.352188908
     0.246513485  0.557088085  0.951980384
     0.040430786  0.748819868  0.448215582
     0.962489184  0.255279960  0.556295401
     0.446899534  0.031063251  0.740612886
     0.536629155  0.949115063  0.249546711
     0.745519147  0.456298412  0.031507802
     0.562052679  0.771132462  0.413577178
     0.258150804  0.061444841  0.905263129
     0.398865688  0.578246042  0.761787209
     0.923667988  0.288481495  0.028513536
     0.780644337  0.409998264  0.562849417
     0.069821749  0.908975767  0.265900983
     0.943279501  0.086815035  0.737080082
     0.586052294  0.413469182  0.208370263
     0.712554634  0.951646194  0.086362096
     0.229208908  0.588486605  0.416651690
     0.088377949  0.746180731  0.923616393
     0.431011052  0.216649255  0.586892201
     0.188240041  0.402517537  0.989261557
     0.878093344  0.706516677  0.487683668
     0.042614974  0.178079163  0.402484372
     0.458649956  0.876359575  0.696782795
     0.383316156  0.953521703  0.209917378
     0.700236364  0.507885005  0.862714880
     0.297164860  0.531256839  0.106757512
     0.028897143  0.773327728  0.615973492
     0.111011514  0.308401483  0.546793885
     0.597045287  0.965237814  0.813935704
     0.458332094  0.111056714  0.315663380
     0.764759955  0.622071081  0.023678124

  ion indices of the primitive-cell ions
   primitive index   ion index
                 1           1
                 2           2
                 3           3
                 4           4
                 5           5
                 6           6
                 7           7
                 8           8
                 9           9
                10          10
                11          11
                12          12
                13          13
                14          14
                15          15
                16          16
                17          17
                18          18
                19          19
                20          20
                21          21
                22          22
                23          23
                24          24
                25          25
                26          26
                27          27
                28          28
                29          29
                30          30
                31          31
                32          32
                33          33
                34          34
                35          35
                36          36
                37          37
                38          38

----------------------------------------------------------------------------------------

 
 
 KPOINTS: Fully automatic kpoint scheme           

Automatic generation of k-mesh.
 generate k-points for:    4    4    4
Space group operators:
 irot       det(A)        alpha          n_x          n_y          n_z        tau_x        tau_y        tau_z
    1     1.000000     0.000001     1.000000     0.000000     0.000000     0.000000     0.000000     0.000000
 
 Subroutine IBZKPT returns following result:
 ===========================================
 
 Found     36 irreducible k-points:
 
 Following reciprocal coordinates:
            Coordinates               Weight
  0.000000  0.000000  0.000000      1.000000
  0.250000 -0.000000  0.000000      2.000000
  0.500000 -0.000000  0.000000      1.000000
 -0.000000  0.250000  0.000000      2.000000
  0.250000  0.250000 -0.000000      2.000000
  0.500000  0.250000 -0.000000      2.000000
 -0.250000  0.250000  0.000000      2.000000
 -0.000000  0.500000 -0.000000      1.000000
  0.250000  0.500000  0.000000      2.000000
  0.500000  0.500000  0.000000      1.000000
  0.000000 -0.000000  0.250000      2.000000
  0.250000 -0.000000  0.250000      2.000000
  0.500000  0.000000  0.250000      2.000000
 -0.250000 -0.000000  0.250000      2.000000
 -0.000000  0.250000  0.250000      2.000000
  0.250000  0.250000  0.250000      2.000000
  0.500000  0.250000  0.250000      2.000000
 -0.250000  0.250000  0.250000      2.000000
 -0.000000  0.500000  0.250000      2.000000
  0.250000  0.500000  0.250000      2.000000
  0.500000  0.500000  0.250000      2.000000
 -0.250000  0.500000  0.250000      2.000000
  0.000000 -0.250000  0.250000      2.000000
  0.250000 -0.250000  0.250000      2.000000
  0.500000 -0.250000  0.250000      2.000000
 -0.250000 -0.250000  0.250000      2.000000
  0.000000 -0.000000  0.500000      1.000000
  0.250000 -0.000000  0.500000      2.000000
  0.500000 -0.000000  0.500000      1.000000
  0.000000  0.250000  0.500000      2.000000
  0.250000  0.250000  0.500000      2.000000
  0.500000  0.250000  0.500000      2.000000
 -0.250000  0.250000  0.500000      2.000000
 -0.000000  0.500000  0.500000      1.000000
  0.250000  0.500000  0.500000      2.000000
  0.500000  0.500000  0.500000      1.000000
 
 Following cartesian coordinates:
            Coordinates               Weight
  0.000000  0.000000  0.000000      1.000000
 -0.000069  0.034446 -0.000118      2.000000
 -0.000138  0.068892 -0.000236      1.000000
 -0.015899 -0.011298  0.028405      2.000000
 -0.015968  0.023148  0.028287      2.000000
 -0.016037  0.057594  0.028169      2.000000
 -0.015830 -0.045744  0.028523      2.000000
 -0.031798 -0.022596  0.056810      1.000000
 -0.031868  0.011850  0.056692      2.000000
 -0.031937  0.046295  0.056574      1.000000
  0.032532 -0.011483 -0.000048      2.000000
  0.032463  0.022963 -0.000166      2.000000
  0.032394  0.057409 -0.000284      2.000000
  0.032601 -0.045929  0.000069      2.000000
  0.016633 -0.022781  0.028357      2.000000
  0.016564  0.011665  0.028239      2.000000
  0.016495  0.046111  0.028121      2.000000
  0.016702 -0.057227  0.028475      2.000000
  0.000734 -0.034079  0.056762      2.000000
  0.000664  0.000367  0.056644      2.000000
  0.000595  0.034813  0.056526      2.000000
  0.000803 -0.068525  0.056880      2.000000
  0.048431 -0.000185 -0.028453      2.000000
  0.048362  0.034261 -0.028571      2.000000
  0.048293  0.068707 -0.028689      2.000000
  0.048500 -0.034631 -0.028336      2.000000
  0.065064 -0.022966 -0.000097      1.000000
  0.064995  0.011480 -0.000215      2.000000
  0.064926  0.045926 -0.000333      1.000000
  0.049165 -0.034264  0.028308      2.000000
  0.049096  0.000182  0.028190      2.000000
  0.049027  0.034628  0.028073      2.000000
  0.049234 -0.068710  0.028426      2.000000
  0.033265 -0.045562  0.056713      1.000000
  0.033196 -0.011116  0.056595      2.000000
  0.033127  0.023330  0.056478      1.000000
 


--------------------------------------------------------------------------------------------------------




 Dimension of arrays:
   k-points           NKPTS =     36   k-points in BZ     NKDIM =     36   number of bands    NBANDS=    170
   number of dos      NEDOS =    301   number of ions     NIONS =     38
   non local maximal  LDIM  =      6   non local SUM 2l+1 LMDIM =     18
   total plane-waves  NPLWV = 343000
   max r-space proj   IRMAX =  11549   max aug-charges    IRDMAX=  33415
   dimension x,y,z NGX =    70 NGY =   70 NGZ =   70
   dimension x,y,z NGXF=   140 NGYF=  140 NGZF=  140
   support grid    NGXF=   140 NGYF=  140 NGZF=  140
   ions per type =               4   4   6  24
   NGX,Y,Z   is equivalent  to a cutoff of  13.14, 13.18, 13.18 a.u.
   NGXF,Y,Z  is equivalent  to a cutoff of  26.29, 26.37, 26.35 a.u.

 SYSTEM =  unknown system                          
 POSCAR =  Ca5 V4 P6 O24                           

 Startparameter for this run:
   NWRITE =      2    write-flag & timer
   PREC   = accura    normal or accurate (medium, high low for compatibility)
   ISTART =      0    job   : 0-new  1-cont  2-samecut
   ICHARG =      1    charge: 1-file 2-atom 10-const
   ISPIN  =      2    spin polarized calculation?
   LNONCOLLINEAR =      F non collinear calculations
   LSORBIT =      F    spin-orbit coupling
   INIWAV =      1    electr: 0-lowe 1-rand  2-diag
   LASPH  =      T    aspherical Exc in radial PAW
   METAGGA=      F    non-selfconsistent MetaGGA calc.

 Electronic Relaxation 1
   ENCUT  =  520.0 eV  38.22 Ry    6.18 a.u.  16.46 16.41 16.42*2*pi/ulx,y,z
   ENINI  =  520.0     initial cutoff
   ENAUG  =  605.4 eV  augmentation charge cutoff
   NELM   =    150;   NELMIN=  6; NELMDL= -5     # of ELM steps 
   EDIFF  = 0.1E-04   stopping-criterion for ELM
   LREAL  =      T    real-space projection
   NLSPLINE    = F    spline interpolate recip. space projectors
   LCOMPAT=      F    compatible to vasp.4.4
   GGA_COMPAT  = T    GGA compatible to vasp.4.4-vasp.4.6
   LMAXPAW     = -100 max onsite density
   LMAXMIX     =    4 max onsite mixed and CHGCAR
   VOSKOWN=      0    Vosko Wilk Nusair interpolation
   ROPT   =   -0.00025  -0.00025  -0.00025  -0.00025
 Ionic relaxation
   EDIFFG = -.3E-01   stopping-criterion for IOM
   NSW    =    199    number of steps for IOM
   NBLOCK =      1;   KBLOCK =    199    inner block; outer block 
   IBRION =      2    ionic relax: 0-MD 1-quasi-New 2-CG
   NFREE  =      1    steps in history (QN), initial steepest desc. (CG)
   ISIF   =      3    stress and relaxation
   IWAVPR =     11    prediction:  0-non 1-charg 2-wave 3-comb
   ISYM   =      0    0-nonsym 1-usesym 2-fastsym
   LCORR  =      T    Harris-Foulkes like correction to forces

   POTIM  = 0.5000    time-step for ionic-motion
   TEIN   =    0.0    initial temperature
   TEBEG  =    0.0;   TEEND  =   0.0 temperature during run
   SMASS  =  -3.00    Nose mass-parameter (am)
   estimated Nose-frequenzy (Omega)   =  0.10E-29 period in steps = 0.13E+47 mass=  -0.179E-26a.u.
   SCALEE = 1.0000    scale energy and forces
   NPACO  =    256;   APACO  = 16.0  distance and # of slots for P.C.
   PSTRESS=    0.0 pullay stress

  Mass of Ions in am
   POMASS =  40.08 50.94 30.97 16.00
  Ionic Valenz
   ZVAL   =  10.00 11.00  5.00  6.00
  Atomic Wigner-Seitz radii
   RWIGS  =  -1.00 -1.00 -1.00 -1.00
  virtual crystal weights 
   VCA    =   1.00  1.00  1.00  1.00
   NELECT =     258.0000    total number of electrons
   NUPDOWN=      -1.0000    fix difference up-down

 DOS related values:
   EMIN   =  10.00;   EMAX   =-10.00  energy-range for DOS
   EFERMI =   0.00
   ISMEAR =     0;   SIGMA  =   0.05  broadening in eV -4-tet -1-fermi 0-gaus

 Electronic relaxation 2 (details)
   IALGO  =     38    algorithm
   LDIAG  =      T    sub-space diagonalisation (order eigenvalues)
   LSUBROT=      F    optimize rotation matrix (better conditioning)
   TURBO    =      0    0=normal 1=particle mesh
   IRESTART =      0    0=no restart 2=restart with 2 vectors
   NREBOOT  =      0    no. of reboots
   NMIN     =      0    reboot dimension
   EREF     =   0.00    reference energy to select bands
   IMIX   =      4    mixing-type and parameters
     AMIX     =   0.40;   BMIX     =  1.00
     AMIX_MAG =   1.60;   BMIX_MAG =  1.00
     AMIN     =   0.10
     WC   =   100.;   INIMIX=   1;  MIXPRE=   1;  MAXMIX= -45

 Intra band minimization:
   WEIMIN = 0.0010     energy-eigenvalue tresh-hold
   EBREAK =  0.15E-07  absolut break condition
   DEPER  =   0.30     relativ break condition  

   TIME   =   0.40     timestep for ELM

  volume/ion in A,a.u.               =      12.96        87.49
  Fermi-wavevector in a.u.,A,eV,Ry     =   1.319584  2.493653 23.691861  1.741303
  Thomas-Fermi vector in A             =   2.449472
 
 Write flags
   LWAVE        =      F    write WAVECAR
   LDOWNSAMPLE  =      F    k-point downsampling of WAVECAR
   LCHARG       =      T    write CHGCAR
   LVTOT        =      F    write LOCPOT, total local potential
   LVHAR        =      F    write LOCPOT, Hartree potential only
   LELF         =      F    write electronic localiz. function (ELF)
   LORBIT       =     11    0 simple, 1 ext, 2 COOP (PROOUT), +10 PAW based schemes


 Dipole corrections
   LMONO  =      F    monopole corrections only (constant potential shift)
   LDIPOL =      F    correct potential (dipole corrections)
   IDIPOL =      0    1-x, 2-y, 3-z, 4-all directions 
   EPSILON=  1.0000000 bulk dielectric constant

 LDA+U is selected, type is set to LDAUTYPE =  2
   angular momentum for each species LDAUL =    -1    2   -1   -1
   U (eV)           for each species LDAUU =   0.0  1.0  0.0  0.0
   J (eV)           for each species LDAUJ =   0.0  0.0  0.0  0.0
 Exchange correlation treatment:
   GGA     =    --    GGA type
   LEXCH   =     8    internal setting for exchange type
   VOSKOWN=      0    Vosko Wilk Nusair interpolation
   LHFCALC =     F    Hartree Fock is set to
   LHFONE  =     F    Hartree Fock one center treatment
   AEXX    =    0.0000 exact exchange contribution

 Linear response parameters
   LEPSILON=     F    determine dielectric tensor
   LRPA    =     F    only Hartree local field effects (RPA)
   LNABLA  =     F    use nabla operator in PAW spheres
   LVEL    =     F    velocity operator in full k-point grid
   LINTERFAST=   F  fast interpolation
   KINTER  =     0    interpolate to denser k-point grid
   CSHIFT  =0.1000    complex shift for real part using Kramers Kronig
   OMEGAMAX=  -1.0    maximum frequency
   DEG_THRESHOLD= 0.2000000E-02 threshold for treating states as degnerate
   RTIME   =   -0.100 relaxation time in fs
  (WPLASMAI=    0.000 imaginary part of plasma frequency in eV, 0.658/RTIME)
   DFIELD  = 0.0000000 0.0000000 0.0000000 field for delta impulse in time
 
 Orbital magnetization related:
   ORBITALMAG=     F  switch on orbital magnetization
   LCHIMAG   =     F  perturbation theory with respect to B field
   DQ        =  0.001000  dq finite difference perturbation B field
   LLRAUG    =     F  two centre corrections for induced B field



--------------------------------------------------------------------------------------------------------


 conjugate gradient relaxation of ions
 charge density and potential will be updated during run
 spin polarized calculation
 Variant of blocked Davidson
 Davidson routine will perform the subspace rotation
 perform sub-space diagonalisation
    after iterative eigenvector-optimisation
 modified Broyden-mixing scheme, WC =      100.0
 initial mixing is a Kerker type mixing with AMIX =  0.4000 and BMIX =      1.0000
 Hartree-type preconditioning will be used
 using additional bands           41
 real space projection scheme for non local part
 use partial core corrections
 calculate Harris-corrections to forces 
   (improved forces if not selfconsistent)
 use gradient corrections 
 use of overlap-Matrix (Vanderbilt PP)
 Gauss-broadening in eV      SIGMA  =   0.05


--------------------------------------------------------------------------------------------------------


  energy-cutoff  :      520.00
  volume of cell :      492.64
      direct lattice vectors                 reciprocal lattice vectors
     2.575295045  7.277754574  4.336218049    -0.000276154  0.137783618 -0.000471420
     0.023810072  0.030247511  8.826601394    -0.063596928 -0.045192730  0.113620313
     7.701847764  0.030227384  4.322993822     0.130127919 -0.045931501 -0.000193624

  length of vectors
     8.854413768  8.826685335  8.832193853     0.137784701  0.137827891  0.137996433


 
 k-points in units of 2pi/SCALE and weight: Fully automatic kpoint scheme           
   0.00000000  0.00000000  0.00000000       0.016
  -0.00006904  0.03444590 -0.00011785       0.031
  -0.00013808  0.06889181 -0.00023571       0.016
  -0.01589923 -0.01129818  0.02840508       0.031
  -0.01596827  0.02314772  0.02828722       0.031
  -0.01603731  0.05759363  0.02816937       0.031
  -0.01583019 -0.04574409  0.02852293       0.031
  -0.03179846 -0.02259637  0.05681016       0.016
  -0.03186750  0.01184954  0.05669230       0.031
  -0.03193654  0.04629544  0.05657445       0.016
   0.03253198 -0.01148288 -0.00004841       0.031
   0.03246294  0.02296303 -0.00016626       0.031
   0.03239390  0.05740893 -0.00028412       0.031
   0.03260102 -0.04592878  0.00006945       0.031
   0.01663275 -0.02278106  0.02835667       0.031
   0.01656371  0.01166485  0.02823882       0.031
   0.01649467  0.04611075  0.02812096       0.031
   0.01670179 -0.05722696  0.02847453       0.031
   0.00073352 -0.03407924  0.05676175       0.031
   0.00066448  0.00036666  0.05664390       0.031
   0.00059544  0.03481257  0.05652604       0.031
   0.00080255 -0.06852514  0.05687961       0.031
   0.04843121 -0.00018469 -0.02845348       0.031
   0.04836217  0.03426121 -0.02857134       0.031
   0.04829313  0.06870712 -0.02868919       0.031
   0.04850025 -0.03463060 -0.02833563       0.031
   0.06506396 -0.02296575 -0.00009681       0.016
   0.06499492  0.01148015 -0.00021467       0.031
   0.06492588  0.04592606 -0.00033252       0.016
   0.04916473 -0.03426393  0.02830827       0.031
   0.04909569  0.00018197  0.02819041       0.031
   0.04902665  0.03462788  0.02807256       0.031
   0.04923377 -0.06870984  0.02842612       0.031
   0.03326550 -0.04556212  0.05671334       0.016
   0.03319646 -0.01111621  0.05659549       0.031
   0.03312742  0.02332969  0.05647763       0.016
 
 k-points in reciprocal lattice and weights: Fully automatic kpoint scheme           
   0.00000000  0.00000000  0.00000000       0.016
   0.25000000 -0.00000000  0.00000000       0.031
   0.50000000 -0.00000000  0.00000000       0.016
  -0.00000000  0.25000000  0.00000000       0.031
   0.25000000  0.25000000 -0.00000000       0.031
   0.50000000  0.25000000 -0.00000000       0.031
  -0.25000000  0.25000000  0.00000000       0.031
  -0.00000000  0.50000000 -0.00000000       0.016
   0.25000000  0.50000000  0.00000000       0.031
   0.50000000  0.50000000  0.00000000       0.016
   0.00000000 -0.00000000  0.25000000       0.031
   0.25000000 -0.00000000  0.25000000       0.031
   0.50000000  0.00000000  0.25000000       0.031
  -0.25000000 -0.00000000  0.25000000       0.031
  -0.00000000  0.25000000  0.25000000       0.031
   0.25000000  0.25000000  0.25000000       0.031
   0.50000000  0.25000000  0.25000000       0.031
  -0.25000000  0.25000000  0.25000000       0.031
  -0.00000000  0.50000000  0.25000000       0.031
   0.25000000  0.50000000  0.25000000       0.031
   0.50000000  0.50000000  0.25000000       0.031
  -0.25000000  0.50000000  0.25000000       0.031
   0.00000000 -0.25000000  0.25000000       0.031
   0.25000000 -0.25000000  0.25000000       0.031
   0.50000000 -0.25000000  0.25000000       0.031
  -0.25000000 -0.25000000  0.25000000       0.031
   0.00000000 -0.00000000  0.50000000       0.016
   0.25000000 -0.00000000  0.50000000       0.031
   0.50000000 -0.00000000  0.50000000       0.016
   0.00000000  0.25000000  0.50000000       0.031
   0.25000000  0.25000000  0.50000000       0.031
   0.50000000  0.25000000  0.50000000       0.031
  -0.25000000  0.25000000  0.50000000       0.031
  -0.00000000  0.50000000  0.50000000       0.016
   0.25000000  0.50000000  0.50000000       0.031
   0.50000000  0.50000000  0.50000000       0.016
 
 position of ions in fractional coordinates (direct lattice) 
   0.96644038  0.00450191  0.02217173
   0.41139387  0.74403407  0.10919255
   0.15482061  0.40462952  0.74024669
   0.24261164  0.88426545  0.59231546
   0.64588095  0.63144366  0.63116699
   0.14111820  0.15102424  0.14979676
   0.84158012  0.85741005  0.85824865
   0.35573747  0.34747697  0.35218891
   0.24651348  0.55708809  0.95198038
   0.04043079  0.74881987  0.44821558
   0.96248918  0.25527996  0.55629540
   0.44689953  0.03106325  0.74061289
   0.53662916  0.94911506  0.24954671
   0.74551915  0.45629841  0.03150780
   0.56205268  0.77113246  0.41357718
   0.25815080  0.06144484  0.90526313
   0.39886569  0.57824604  0.76178721
   0.92366799  0.28848150  0.02851354
   0.78064434  0.40999826  0.56284942
   0.06982175  0.90897577  0.26590098
   0.94327950  0.08681504  0.73708008
   0.58605229  0.41346918  0.20837026
   0.71255463  0.95164619  0.08636210
   0.22920891  0.58848660  0.41665169
   0.08837795  0.74618073  0.92361639
   0.43101105  0.21664925  0.58689220
   0.18824004  0.40251754  0.98926156
   0.87809334  0.70651668  0.48768367
   0.04261497  0.17807916  0.40248437
   0.45864996  0.87635957  0.69678280
   0.38331616  0.95352170  0.20991738
   0.70023636  0.50788500  0.86271488
   0.29716486  0.53125684  0.10675751
   0.02889714  0.77332773  0.61597349
   0.11101151  0.30840148  0.54679388
   0.59704529  0.96523781  0.81393570
   0.45833209  0.11105671  0.31566338
   0.76475995  0.62207108  0.02367812
 
 position of ions in cartesian coordinates  (Angst):
   2.65973957  7.03432228  4.32628100
   1.91816047  3.01982940  8.82322440
   6.10961031  1.16136113  7.44292124
   5.20777450  1.81031895 11.41765172
   6.53952080  4.73874115 11.10271308
   1.52072877  1.03611971  2.59252057
   8.79783256  6.17669067 14.92749528
   3.63690775  2.61012607  6.13210645
   7.98011726  1.83969105 10.10153601
   3.57403883  0.33044366  8.72248438
   6.76927436  7.02929700  8.83167901
   6.85572547  3.27575150  5.41370169
   3.32654768  3.94170680 11.78319026
   2.17346456  5.44045967  7.39650581
   4.65112066  4.12630765 11.03155342
   7.63847630  1.90798049  5.57519421
   6.90813402  2.94336393 10.12671732
   2.60519327  6.73181666  6.67480081
   6.35513211  5.71075278  9.43712987
   2.24938327  0.54367730  9.47541741
   8.10816868  6.88986265  8.04293995
   3.12393834  4.28394966  7.09156155
   2.52284489  5.21719317 11.86293669
   3.81328036  1.69852073  7.98941917
   7.35891876  0.69368164 10.96225389
   5.63529345  3.16108597  6.31836588
   8.11349953  1.41204276  8.64568331
   6.03423702  6.42665963 12.15199878
   3.21385957  0.32769382  3.49655906
   6.56854016  3.38551143 12.73627058
   2.62660730  2.82486782 10.98596995
   8.45990669  5.13758827 11.24878715
   1.60016656  2.18198912  6.43927605
   4.83696572  0.25231682  9.61400952
   4.50455372  0.83377108  5.56729368
   7.82935903  4.39894825 14.62732700
   3.61417593  3.34852936  4.33229209
   2.16665939  5.58526709  8.90929977
 


--------------------------------------------------------------------------------------------------------


 k-point   1 :   0.0000 0.0000 0.0000  plane waves:   13339
 k-point   2 :   0.2500-0.0000 0.0000  plane waves:   13295
 k-point   3 :   0.5000-0.0000 0.0000  plane waves:   13258
 k-point   4 :  -0.0000 0.2500 0.0000  plane waves:   13296
 k-point   5 :   0.2500 0.2500-0.0000  plane waves:   13272
 k-point   6 :   0.5000 0.2500-0.0000  plane waves:   13255
 k-point   7 :  -0.2500 0.2500 0.0000  plane waves:   13276
 k-point   8 :  -0.0000 0.5000-0.0000  plane waves:   13256
 k-point   9 :   0.2500 0.5000 0.0000  plane waves:   13256
 k-point  10 :   0.5000 0.5000 0.0000  plane waves:   13232
 k-point  11 :   0.0000-0.0000 0.2500  plane waves:   13287
 k-point  12 :   0.2500-0.0000 0.2500  plane waves:   13274
 k-point  13 :   0.5000 0.0000 0.2500  plane waves:   13253
 k-point  14 :  -0.2500-0.0000 0.2500  plane waves:   13277
 k-point  15 :  -0.0000 0.2500 0.2500  plane waves:   13273
 k-point  16 :   0.2500 0.2500 0.2500  plane waves:   13296
 k-point  17 :   0.5000 0.2500 0.2500  plane waves:   13270
 k-point  18 :  -0.2500 0.2500 0.2500  plane waves:   13259
 k-point  19 :  -0.0000 0.5000 0.2500  plane waves:   13257
 k-point  20 :   0.2500 0.5000 0.2500  plane waves:   13271
 k-point  21 :   0.5000 0.5000 0.2500  plane waves:   13264
 k-point  22 :  -0.2500 0.5000 0.2500  plane waves:   13259
 k-point  23 :   0.0000-0.2500 0.2500  plane waves:   13263
 k-point  24 :   0.2500-0.2500 0.2500  plane waves:   13250
 k-point  25 :   0.5000-0.2500 0.2500  plane waves:   13254
 k-point  26 :  -0.2500-0.2500 0.2500  plane waves:   13252
 k-point  27 :   0.0000-0.0000 0.5000  plane waves:   13262
 k-point  28 :   0.2500-0.0000 0.5000  plane waves:   13256
 k-point  29 :   0.5000-0.0000 0.5000  plane waves:   13236
 k-point  30 :   0.0000 0.2500 0.5000  plane waves:   13255
 k-point  31 :   0.2500 0.2500 0.5000  plane waves:   13272
 k-point  32 :   0.5000 0.2500 0.5000  plane waves:   13250
 k-point  33 :  -0.2500 0.2500 0.5000  plane waves:   13258
 k-point  34 :  -0.0000 0.5000 0.5000  plane waves:   13222
 k-point  35 :   0.2500 0.5000 0.5000  plane waves:   13269
 k-point  36 :   0.5000 0.5000 0.5000  plane waves:   13260

 maximum and minimum number of plane-waves per node :       576      527

 maximum number of plane-waves:     13339
 maximum index in each direction: 
   IXMAX=   16   IYMAX=   16   IZMAX=   16
   IXMIN=  -16   IYMIN=  -16   IZMIN=  -16


 real space projection operators:
  total allocation   :      20216.59 KBytes
  max/ min on nodes  :        900.02        580.02


 parallel 3D FFT for wavefunctions:
    minimum data exchange during FFTs selected (reduces bandwidth)
 parallel 3D FFT for charge:
    minimum data exchange during FFTs selected (reduces bandwidth)


 total amount of memory used by VASP MPI-rank0    55858. kBytes
=======================================================================

   base      :      30000. kBytes
   nonlr-proj:       8589. kBytes
   fftplans  :       1113. kBytes
   grid      :       4344. kBytes
   one-center:         62. kBytes
   wavefun   :      11750. kBytes
 
     INWAV:  cpu time    0.0000: real time    0.0000
 Broyden mixing: mesh for mixing (old mesh)
   NGX = 33   NGY = 33   NGZ = 33
  (NGX  =140   NGY  =140   NGZ  =140)
  gives a total of  35937 points

 initial charge density was supplied:
 number of electron     258.0000001 magnetization      10.0000004
 keeping initial charge density in first step


--------------------------------------------------------------------------------------------------------


 Maximum index for non-local projection operator          542
 Maximum index for augmentation-charges         1073 (set IRDMAX)


--------------------------------------------------------------------------------------------------------


 First call to EWALD:  gamma=   0.224
 Maximum number of real-space cells 3x 3x 3
 Maximum number of reciprocal cells 3x 3x 3

    FEWALD:  cpu time    0.0019: real time    0.0028


--------------------------------------- Iteration      1(   1)  ---------------------------------------


    POTLOK:  cpu time    0.5472: real time    1.0903
    SETDIJ:  cpu time    0.8463: real time    0.8496
atom =   5  type =  2  l = 2
 
 onsite density matrix
 
spin component  1
 
  0.6123  0.0688  0.0733  0.2866 -0.2285
  0.0688  0.3204  0.2604  0.0482  0.1238
  0.0733  0.2604  0.6754  0.0712  0.1958
  0.2866  0.0482  0.0712  0.2860 -0.1376
 -0.2285  0.1238  0.1958 -0.1376  0.4378
 
spin component  2
 
  0.0692 -0.0104 -0.0173 -0.0050  0.0377
 -0.0104  0.1264 -0.0448 -0.0111 -0.0037
 -0.0173 -0.0448  0.0873  0.0001 -0.0405
 -0.0050 -0.0111  0.0001  0.0602  0.0106
  0.0377 -0.0037 -0.0405  0.0106  0.1210
 
 occupancies and eigenvectors
 
  o =  0.0395  v =  0.0000  0.0000  0.0000  0.0000  0.0000  0.4962  0.4476  0.6686  0.3159  0.0819      0.0000  0.0000  0.0000  0.0000  0.0000  0.0000  0.0000  0.0000  0.0000  0.0000
  o =  0.0434  v =  0.0000  0.0000  0.0000  0.0000  0.0000  0.5428 -0.1385 -0.4418  0.4234 -0.5583      0.0000  0.0000  0.0000  0.0000  0.0000  0.0000  0.0000  0.0000  0.0000  0.0000
  o =  0.0649  v =  0.0000  0.0000  0.0000  0.0000  0.0000  0.5220 -0.0357  0.0507 -0.8359 -0.1576      0.0000  0.0000  0.0000  0.0000  0.0000  0.0000  0.0000  0.0000  0.0000  0.0000
  o =  0.1162  v =  0.4255  0.0409  0.0900 -0.8873 -0.1479  0.0000  0.0000  0.0000  0.0000  0.0000      0.0000  0.0000  0.0000  0.0000  0.0000  0.0000  0.0000  0.0000  0.0000  0.0000
  o =  0.1433  v =  0.0000  0.0000  0.0000  0.0000  0.0000  0.3312 -0.7614  0.1298  0.1489  0.5211      0.0000  0.0000  0.0000  0.0000  0.0000  0.0000  0.0000  0.0000  0.0000  0.0000
  o =  0.1559  v = -0.3394  0.7534 -0.1162 -0.0483 -0.5490  0.0000  0.0000  0.0000  0.0000  0.0000      0.0000  0.0000  0.0000  0.0000  0.0000  0.0000  0.0000  0.0000  0.0000  0.0000
  o =  0.1731  v =  0.0000  0.0000  0.0000  0.0000  0.0000 -0.2774 -0.4466  0.5818 -0.0019 -0.6206      0.0000  0.0000  0.0000  0.0000  0.0000  0.0000  0.0000  0.0000  0.0000  0.0000
  o =  0.2107  v = -0.3303 -0.4828  0.5698 -0.0268 -0.5766  0.0000  0.0000  0.0000  0.0000  0.0000      0.0000  0.0000  0.0000  0.0000  0.0000  0.0000  0.0000  0.0000  0.0000  0.0000
  o =  0.9236  v =  0.1077 -0.4141 -0.7680  0.0339 -0.4754  0.0000  0.0000  0.0000  0.0000  0.0000      0.0000  0.0000  0.0000  0.0000  0.0000  0.0000  0.0000  0.0000  0.0000  0.0000
  o =  0.9255  v = -0.7636 -0.1617 -0.2530 -0.4566  0.3440  0.0000  0.0000  0.0000  0.0000  0.0000      0.0000  0.0000  0.0000  0.0000  0.0000  0.0000  0.0000  0.0000  0.0000  0.0000
atom =   6  type =  2  l = 2
 
 onsite density matrix
 
spin component  1
 
  0.3840 -0.0501  0.2432  0.1452  0.2414
 -0.0501  0.7450 -0.1572  0.2494  0.0186
  0.2432 -0.1572  0.5383  0.2451 -0.0987
  0.1452  0.2494  0.2451  0.4415 -0.0925
  0.2414  0.0186 -0.0987 -0.0925  0.7195
 
spin component  2
 
  0.0594  0.0022 -0.0189 -0.0122 -0.0195
  0.0022  0.0290  0.0122 -0.0198 -0.0013
 -0.0189  0.0122  0.0504 -0.0224  0.0055
 -0.0122 -0.0198 -0.0224  0.0614  0.0082
 -0.0195 -0.0013  0.0055  0.0082  0.0309
 
 occupancies and eigenvectors
 
  o =  0.0190  v =  0.0000  0.0000  0.0000  0.0000  0.0000 -0.2674  0.7776 -0.1846  0.2777 -0.4611      0.0000  0.0000  0.0000  0.0000  0.0000  0.0000  0.0000  0.0000  0.0000  0.0000
  o =  0.0192  v =  0.0000  0.0000  0.0000  0.0000  0.0000  0.5316  0.3192  0.5009  0.5038  0.3329      0.0000  0.0000  0.0000  0.0000  0.0000  0.0000  0.0000  0.0000  0.0000  0.0000
  o =  0.0231  v =  0.0000  0.0000  0.0000  0.0000  0.0000  0.0169  0.3992 -0.5101 -0.2410  0.7226      0.0000  0.0000  0.0000  0.0000  0.0000  0.0000  0.0000  0.0000  0.0000  0.0000
  o =  0.0815  v =  0.0000  0.0000  0.0000  0.0000  0.0000 -0.8005 -0.0078  0.4284  0.1710  0.3825      0.0000  0.0000  0.0000  0.0000  0.0000  0.0000  0.0000  0.0000  0.0000  0.0000
  o =  0.0882  v =  0.0000  0.0000  0.0000  0.0000  0.0000  0.0690  0.3661  0.5208 -0.7627 -0.0905      0.0000  0.0000  0.0000  0.0000  0.0000  0.0000  0.0000  0.0000  0.0000  0.0000
  o =  0.0990  v =  0.7918  0.0251 -0.4353 -0.1506 -0.4004  0.0000  0.0000  0.0000  0.0000  0.0000      0.0000  0.0000  0.0000  0.0000  0.0000  0.0000  0.0000  0.0000  0.0000  0.0000
  o =  0.1053  v = -0.0858 -0.4229 -0.5076  0.7418  0.0767  0.0000  0.0000  0.0000  0.0000  0.0000      0.0000  0.0000  0.0000  0.0000  0.0000  0.0000  0.0000  0.0000  0.0000  0.0000
  o =  0.8382  v =  0.3249  0.3209 -0.1902  0.0006  0.8691  0.0000  0.0000  0.0000  0.0000  0.0000      0.0000  0.0000  0.0000  0.0000  0.0000  0.0000  0.0000  0.0000  0.0000  0.0000
  o =  0.8915  v = -0.0993  0.8327 -0.0373  0.4665 -0.2789  0.0000  0.0000  0.0000  0.0000  0.0000      0.0000  0.0000  0.0000  0.0000  0.0000  0.0000  0.0000  0.0000  0.0000  0.0000
  o =  0.8944  v =  0.5003 -0.1555  0.7178  0.4577  0.0271  0.0000  0.0000  0.0000  0.0000  0.0000      0.0000  0.0000  0.0000  0.0000  0.0000  0.0000  0.0000  0.0000  0.0000  0.0000
atom =   7  type =  2  l = 2
 
 onsite density matrix
 
spin component  1
 
  0.3425 -0.1431  0.2292  0.1067  0.1796
 -0.1431  0.6498 -0.1016  0.2451  0.0984
  0.2292 -0.1016  0.5694  0.2697 -0.1202
  0.1067  0.2451  0.2697  0.4446  0.0231
  0.1796  0.0984 -0.1202  0.0231  0.7747
 
spin component  2
 
  0.0667  0.0154 -0.0216 -0.0043 -0.0191
  0.0154  0.0397  0.0094 -0.0229 -0.0065
 -0.0216  0.0094  0.0489 -0.0243  0.0127
 -0.0043 -0.0229 -0.0243  0.0544 -0.0003
 -0.0191 -0.0065  0.0127 -0.0003  0.0293
 
 occupancies and eigenvectors
 
  o =  0.0176  v =  0.0000  0.0000  0.0000  0.0000  0.0000  0.1836 -0.3223  0.6644  0.2552 -0.5965      0.0000  0.0000  0.0000  0.0000  0.0000  0.0000  0.0000  0.0000  0.0000  0.0000
  o =  0.0203  v =  0.0000  0.0000  0.0000  0.0000  0.0000  0.0917  0.6439  0.2854  0.6479  0.2754      0.0000  0.0000  0.0000  0.0000  0.0000  0.0000  0.0000  0.0000  0.0000  0.0000
  o =  0.0224  v =  0.0000  0.0000  0.0000  0.0000  0.0000  0.5543 -0.4332  0.2488 -0.0400  0.6646      0.0000  0.0000  0.0000  0.0000  0.0000  0.0000  0.0000  0.0000  0.0000  0.0000
  o =  0.0860  v =  0.0000  0.0000  0.0000  0.0000  0.0000  0.4387  0.5421  0.2587 -0.6517 -0.1485      0.0000  0.0000  0.0000  0.0000  0.0000  0.0000  0.0000  0.0000  0.0000  0.0000
  o =  0.0928  v =  0.0000  0.0000  0.0000  0.0000  0.0000 -0.6770 -0.0036  0.5901 -0.2981  0.3234      0.0000  0.0000  0.0000  0.0000  0.0000  0.0000  0.0000  0.0000  0.0000  0.0000
  o =  0.1027  v = -0.5049 -0.4932 -0.2039  0.6620  0.1480  0.0000  0.0000  0.0000  0.0000  0.0000      0.0000  0.0000  0.0000  0.0000  0.0000  0.0000  0.0000  0.0000  0.0000  0.0000
  o =  0.1115  v =  0.6501 -0.0441 -0.6120  0.3399 -0.2922  0.0000  0.0000  0.0000  0.0000  0.0000      0.0000  0.0000  0.0000  0.0000  0.0000  0.0000  0.0000  0.0000  0.0000  0.0000
  o =  0.7688  v = -0.3897  0.6526 -0.0158  0.3115 -0.5700  0.0000  0.0000  0.0000  0.0000  0.0000      0.0000  0.0000  0.0000  0.0000  0.0000  0.0000  0.0000  0.0000  0.0000  0.0000
  o =  0.8936  v =  0.4099  0.1496  0.6574  0.5837  0.1917  0.0000  0.0000  0.0000  0.0000  0.0000      0.0000  0.0000  0.0000  0.0000  0.0000  0.0000  0.0000  0.0000  0.0000  0.0000
  o =  0.9043  v = -0.0495  0.5536 -0.3893  0.0920  0.7287  0.0000  0.0000  0.0000  0.0000  0.0000      0.0000  0.0000  0.0000  0.0000  0.0000  0.0000  0.0000  0.0000  0.0000  0.0000
atom =   8  type =  2  l = 2
 
 onsite density matrix
 
spin component  1
 
  0.7094  0.1996  0.0981 -0.0774 -0.2405
  0.1996  0.3557  0.0638  0.1440 -0.0801
  0.0981  0.0638  0.2220 -0.0621  0.0039
 -0.0774  0.1440 -0.0621  0.8693 -0.0585
 -0.2405 -0.0801  0.0039 -0.0585  0.2874
 
spin component  2
 
  0.0635 -0.0229 -0.0020  0.0055  0.0394
 -0.0229  0.1010 -0.0450 -0.0177 -0.0130
 -0.0020 -0.0450  0.1041  0.0074 -0.0142
  0.0055 -0.0177  0.0074  0.0420  0.0054
  0.0394 -0.0130 -0.0142  0.0054  0.0978
 
 occupancies and eigenvectors
 
  o =  0.0337  v =  0.0000  0.0000  0.0000  0.0000  0.0000 -0.6859 -0.3931 -0.1504 -0.4805  0.3485      0.0000  0.0000  0.0000  0.0000  0.0000  0.0000  0.0000  0.0000  0.0000  0.0000
  o =  0.0379  v =  0.0000  0.0000  0.0000  0.0000  0.0000  0.5004 -0.1465 -0.0603 -0.7954 -0.3031      0.0000  0.0000  0.0000  0.0000  0.0000  0.0000  0.0000  0.0000  0.0000  0.0000
  o =  0.0515  v =  0.0000  0.0000  0.0000  0.0000  0.0000 -0.0247  0.5621  0.6382 -0.3249  0.4130      0.0000  0.0000  0.0000  0.0000  0.0000  0.0000  0.0000  0.0000  0.0000  0.0000
  o =  0.1303  v =  0.0000  0.0000  0.0000  0.0000  0.0000  0.4529  0.0235 -0.4755  0.0295  0.7532      0.0000  0.0000  0.0000  0.0000  0.0000  0.0000  0.0000  0.0000  0.0000  0.0000
  o =  0.1453  v = -0.4094 -0.0166  0.5309 -0.0547 -0.7398  0.0000  0.0000  0.0000  0.0000  0.0000      0.0000  0.0000  0.0000  0.0000  0.0000  0.0000  0.0000  0.0000  0.0000  0.0000
  o =  0.1550  v =  0.0000  0.0000  0.0000  0.0000  0.0000 -0.2710  0.7124 -0.5833 -0.1734 -0.2208      0.0000  0.0000  0.0000  0.0000  0.0000  0.0000  0.0000  0.0000  0.0000  0.0000
  o =  0.1809  v =  0.2851 -0.6225  0.6246  0.2430  0.2863  0.0000  0.0000  0.0000  0.0000  0.0000      0.0000  0.0000  0.0000  0.0000  0.0000  0.0000  0.0000  0.0000  0.0000  0.0000
  o =  0.2797  v = -0.1757  0.6582  0.5466 -0.0786  0.4805  0.0000  0.0000  0.0000  0.0000  0.0000      0.0000  0.0000  0.0000  0.0000  0.0000  0.0000  0.0000  0.0000  0.0000  0.0000
  o =  0.9188  v =  0.7981  0.4041  0.1287  0.2085 -0.3738  0.0000  0.0000  0.0000  0.0000  0.0000      0.0000  0.0000  0.0000  0.0000  0.0000  0.0000  0.0000  0.0000  0.0000  0.0000
  o =  0.9192  v = -0.2885  0.1250 -0.1131  0.9425  0.0060  0.0000  0.0000  0.0000  0.0000  0.0000      0.0000  0.0000  0.0000  0.0000  0.0000  0.0000  0.0000  0.0000  0.0000  0.0000
     EDDAV:  cpu time   11.8946: real time   12.1650
       DOS:  cpu time    0.0052: real time    0.0052
    --------------------------------------------
      LOOP:  cpu time   13.2933: real time   14.1102

 eigenvalue-minimisations  : 24500
 total energy-change (2. order) : 0.2541540E+04  (-0.1338758E+05)
 number of electron     258.0000001 magnetization      10.0000004
 augmentation part      258.0000001 magnetization      10.0000004

 Free energy of the ion-electron system (eV)
  ---------------------------------------------------
  alpha Z        PSCENC =       882.30356230
  Ewald energy   TEWEN  =    -13175.99744487
  -Hartree energ DENC   =     -7280.84384848
  -exchange      EXHF   =         0.00000000
  -V(xc)+E(xc)   XCENC  =      1201.97012469
  PAW double counting   =     37964.88186061   -38006.17037223
  entropy T*S    EENTRO =        -0.01267796
  eigenvalues    EBANDS =       211.74940819
  atomic energy  EATOM  =     20743.65894745
  Solvation  Ediel_sol  =         0.00000000
  ---------------------------------------------------
  free energy    TOTEN  =      2541.53955968 eV

  energy without entropy =     2541.55223765  energy(sigma->0) =     2541.54589867


--------------------------------------------------------------------------------------------------------




--------------------------------------- Iteration      1(   2)  ---------------------------------------


     EDDAV:  cpu time   12.0338: real time   12.0913
       DOS:  cpu time    0.0043: real time    0.0043
    --------------------------------------------
      LOOP:  cpu time   12.0381: real time   12.0956

 eigenvalue-minimisations  : 25130
 total energy-change (2. order) :-0.2704409E+04  (-0.2569400E+04)
 number of electron     258.0000001 magnetization      10.0000004
 augmentation part      258.0000001 magnetization      10.0000004

 Free energy of the ion-electron system (eV)
  ---------------------------------------------------
  alpha Z        PSCENC =       882.30356230
  Ewald energy   TEWEN  =    -13175.99744487
  -Hartree energ DENC   =     -7280.84384848
  -exchange      EXHF   =         0.00000000
  -V(xc)+E(xc)   XCENC  =      1201.97012469
  PAW double counting   =     37964.88186061   -38006.17037223
  entropy T*S    EENTRO =        -0.00502780
  eigenvalues    EBANDS =     -2492.66768436
  atomic energy  EATOM  =     20743.65894745
  Solvation  Ediel_sol  =         0.00000000
  ---------------------------------------------------
  free energy    TOTEN  =      -162.86988270 eV

  energy without entropy =     -162.86485490  energy(sigma->0) =     -162.86736880


--------------------------------------------------------------------------------------------------------




--------------------------------------- Iteration      1(   3)  ---------------------------------------


     EDDAV:  cpu time   14.4332: real time   14.5208
       DOS:  cpu time    0.0044: real time    0.0044
    --------------------------------------------
      LOOP:  cpu time   14.4376: real time   14.5252

 eigenvalue-minimisations  : 30170
 total energy-change (2. order) :-0.3286706E+03  (-0.3180243E+03)
 number of electron     258.0000001 magnetization      10.0000004
 augmentation part      258.0000001 magnetization      10.0000004

 Free energy of the ion-electron system (eV)
  ---------------------------------------------------
  alpha Z        PSCENC =       882.30356230
  Ewald energy   TEWEN  =    -13175.99744487
  -Hartree energ DENC   =     -7280.84384848
  -exchange      EXHF   =         0.00000000
  -V(xc)+E(xc)   XCENC  =      1201.97012469
  PAW double counting   =     37964.88186061   -38006.17037223
  entropy T*S    EENTRO =        -0.01343226
  eigenvalues    EBANDS =     -2821.32990535
  atomic energy  EATOM  =     20743.65894745
  Solvation  Ediel_sol  =         0.00000000
  ---------------------------------------------------
  free energy    TOTEN  =      -491.54050815 eV

  energy without entropy =     -491.52707589  energy(sigma->0) =     -491.53379202


--------------------------------------------------------------------------------------------------------




--------------------------------------- Iteration      1(   4)  ---------------------------------------


     EDDAV:  cpu time   15.2039: real time   15.3195
       DOS:  cpu time    0.0045: real time    0.0045
    --------------------------------------------
      LOOP:  cpu time   15.2084: real time   15.3239

 eigenvalue-minimisations  : 35870
 total energy-change (2. order) :-0.1466574E+02  (-0.1455792E+02)
 number of electron     258.0000001 magnetization      10.0000004
 augmentation part      258.0000001 magnetization      10.0000004

 Free energy of the ion-electron system (eV)
  ---------------------------------------------------
  alpha Z        PSCENC =       882.30356230
  Ewald energy   TEWEN  =    -13175.99744487
  -Hartree energ DENC   =     -7280.84384848
  -exchange      EXHF   =         0.00000000
  -V(xc)+E(xc)   XCENC  =      1201.97012469
  PAW double counting   =     37964.88186061   -38006.17037223
  entropy T*S    EENTRO =        -0.01359015
  eigenvalues    EBANDS =     -2835.99549130
  atomic energy  EATOM  =     20743.65894745
  Solvation  Ediel_sol  =         0.00000000
  ---------------------------------------------------
  free energy    TOTEN  =      -506.20625199 eV

  energy without entropy =     -506.19266184  energy(sigma->0) =     -506.19945692


--------------------------------------------------------------------------------------------------------




--------------------------------------- Iteration      1(   5)  ---------------------------------------


     EDDAV:  cpu time   18.3263: real time   18.4571
       DOS:  cpu time    0.0043: real time    0.0043
    CHARGE:  cpu time    1.0925: real time    1.0971
    MIXING:  cpu time    0.0018: real time    0.0019
    --------------------------------------------
      LOOP:  cpu time   19.4249: real time   19.5603

 eigenvalue-minimisations  : 45440
 total energy-change (2. order) :-0.1155916E+01  (-0.1153740E+01)
 number of electron     258.0000001 magnetization      10.0000004
 augmentation part       41.3130504 magnetization       5.2879671

 Broyden mixing:
  rms(total) = 0.72556E+00    rms(broyden)= 0.72519E+00
  rms(prec ) = 0.94055E+00
  weight for this iteration     100.00

 Free energy of the ion-electron system (eV)
  ---------------------------------------------------
  alpha Z        PSCENC =       882.30356230
  Ewald energy   TEWEN  =    -13175.99744487
  -Hartree energ DENC   =     -7280.84384848
  -exchange      EXHF   =         0.00000000
  -V(xc)+E(xc)   XCENC  =      1201.97012469
  PAW double counting   =     37964.88186061   -38006.17037223
  entropy T*S    EENTRO =        -0.01348385
  eigenvalues    EBANDS =     -2837.15151399
  atomic energy  EATOM  =     20743.65894745
  Solvation  Ediel_sol  =         0.00000000
  ---------------------------------------------------
  free energy    TOTEN  =      -507.36216837 eV

  energy without entropy =     -507.34868453  energy(sigma->0) =     -507.35542645


--------------------------------------------------------------------------------------------------------




--------------------------------------- Iteration      1(   6)  ---------------------------------------


    POTLOK:  cpu time    0.1011: real time    0.1091
    SETDIJ:  cpu time    0.8382: real time    0.8410
atom =   5  type =  2  l = 2
 
 onsite density matrix
 
spin component  1
 
  0.6139  0.0677  0.0701  0.2748 -0.2231
  0.0677  0.3282  0.2538  0.0496  0.1190
  0.0701  0.2538  0.6722  0.0701  0.1911
  0.2748  0.0496  0.0701  0.2998 -0.1319
 -0.2231  0.1190  0.1911 -0.1319  0.4409
 
spin component  2
 
  0.0716 -0.0099 -0.0156  0.0017  0.0347
 -0.0099  0.1254 -0.0413 -0.0120 -0.0008
 -0.0156 -0.0413  0.0925  0.0007 -0.0381
  0.0017 -0.0120  0.0007  0.0554  0.0073
  0.0347 -0.0008 -0.0381  0.0073  0.1230
 
 occupancies and eigenvectors
 
  o =  0.0472  v =  0.0000  0.0000  0.0000  0.0000  0.0000  0.4614  0.4495  0.6043  0.4660  0.0518      0.0000  0.0000  0.0000  0.0000  0.0000  0.0000  0.0000  0.0000  0.0000  0.0000
  o =  0.0522  v =  0.0000  0.0000  0.0000  0.0000  0.0000 -0.4037  0.1650  0.5249 -0.4994  0.5338      0.0000  0.0000  0.0000  0.0000  0.0000  0.0000  0.0000  0.0000  0.0000  0.0000
  o =  0.0562  v =  0.0000  0.0000  0.0000  0.0000  0.0000  0.6601  0.0047  0.0617 -0.7126 -0.2296      0.0000  0.0000  0.0000  0.0000  0.0000  0.0000  0.0000  0.0000  0.0000  0.0000
  o =  0.1370  v =  0.4094  0.0743  0.0881 -0.8890 -0.1696  0.0000  0.0000  0.0000  0.0000  0.0000      0.0000  0.0000  0.0000  0.0000  0.0000  0.0000  0.0000  0.0000  0.0000  0.0000
  o =  0.1402  v =  0.0000  0.0000  0.0000  0.0000  0.0000  0.3459 -0.7553  0.1300  0.1601  0.5171      0.0000  0.0000  0.0000  0.0000  0.0000  0.0000  0.0000  0.0000  0.0000  0.0000
  o =  0.1682  v = -0.3595  0.7496 -0.1202 -0.0114 -0.5425  0.0000  0.0000  0.0000  0.0000  0.0000      0.0000  0.0000  0.0000  0.0000  0.0000  0.0000  0.0000  0.0000  0.0000  0.0000
  o =  0.1723  v =  0.0000  0.0000  0.0000  0.0000  0.0000 -0.2623 -0.4475  0.5819  0.0063 -0.6263      0.0000  0.0000  0.0000  0.0000  0.0000  0.0000  0.0000  0.0000  0.0000  0.0000
  o =  0.2197  v =  0.3277  0.4839 -0.5698  0.0248  0.5772  0.0000  0.0000  0.0000  0.0000  0.0000      0.0000  0.0000  0.0000  0.0000  0.0000  0.0000  0.0000  0.0000  0.0000  0.0000
  o =  0.9139  v =  0.3052 -0.3566 -0.6762  0.1483 -0.5482  0.0000  0.0000  0.0000  0.0000  0.0000      0.0000  0.0000  0.0000  0.0000  0.0000  0.0000  0.0000  0.0000  0.0000  0.0000
  o =  0.9163  v = -0.7090 -0.2670 -0.4426 -0.4324  0.2080  0.0000  0.0000  0.0000  0.0000  0.0000      0.0000  0.0000  0.0000  0.0000  0.0000  0.0000  0.0000  0.0000  0.0000  0.0000
atom =   6  type =  2  l = 2
 
 onsite density matrix
 
spin component  1
 
  0.3799 -0.0497  0.2361  0.1406  0.2236
 -0.0497  0.7286 -0.1474  0.2407  0.0083
  0.2361 -0.1474  0.5312  0.2363 -0.0892
  0.1406  0.2407  0.2363  0.4389 -0.0883
  0.2236  0.0083 -0.0892 -0.0883  0.6834
 
spin component  2
 
  0.0644  0.0020 -0.0152 -0.0098 -0.0093
  0.0020  0.0404  0.0066 -0.0151  0.0049
 -0.0152  0.0066  0.0569 -0.0177 -0.0002
 -0.0098 -0.0151 -0.0177  0.0655  0.0058
 -0.0093  0.0049 -0.0002  0.0058  0.0542
 
 occupancies and eigenvectors
 
  o =  0.0306  v =  0.0000  0.0000  0.0000  0.0000  0.0000  0.2102  0.7072  0.3199  0.5600 -0.1993      0.0000  0.0000  0.0000  0.0000  0.0000  0.0000  0.0000  0.0000  0.0000  0.0000
  o =  0.0336  v =  0.0000  0.0000  0.0000  0.0000  0.0000 -0.4897  0.5034 -0.6182 -0.2019 -0.2897      0.0000  0.0000  0.0000  0.0000  0.0000  0.0000  0.0000  0.0000  0.0000  0.0000
  o =  0.0532  v =  0.0000  0.0000  0.0000  0.0000  0.0000  0.2239  0.3738 -0.2391 -0.1133  0.8603      0.0000  0.0000  0.0000  0.0000  0.0000  0.0000  0.0000  0.0000  0.0000  0.0000
  o =  0.0785  v =  0.0000  0.0000  0.0000  0.0000  0.0000 -0.8133  0.0092  0.4316  0.1718  0.3502      0.0000  0.0000  0.0000  0.0000  0.0000  0.0000  0.0000  0.0000  0.0000  0.0000
  o =  0.0854  v =  0.0000  0.0000  0.0000  0.0000  0.0000  0.0663  0.3266  0.5216 -0.7767 -0.1164      0.0000  0.0000  0.0000  0.0000  0.0000  0.0000  0.0000  0.0000  0.0000  0.0000
  o =  0.1093  v =  0.7923  0.0235 -0.4355 -0.1500 -0.3995  0.0000  0.0000  0.0000  0.0000  0.0000      0.0000  0.0000  0.0000  0.0000  0.0000  0.0000  0.0000  0.0000  0.0000  0.0000
  o =  0.1157  v = -0.0868 -0.4218 -0.5066  0.7431  0.0763  0.0000  0.0000  0.0000  0.0000  0.0000      0.0000  0.0000  0.0000  0.0000  0.0000  0.0000  0.0000  0.0000  0.0000  0.0000
  o =  0.7893  v =  0.3151  0.3226 -0.2037 -0.0082  0.8690  0.0000  0.0000  0.0000  0.0000  0.0000      0.0000  0.0000  0.0000  0.0000  0.0000  0.0000  0.0000  0.0000  0.0000  0.0000
  o =  0.8716  v = -0.3521  0.7851 -0.4123  0.1501 -0.2590  0.0000  0.0000  0.0000  0.0000  0.0000      0.0000  0.0000  0.0000  0.0000  0.0000  0.0000  0.0000  0.0000  0.0000  0.0000
  o =  0.8761  v =  0.3762  0.3179  0.5850  0.6346 -0.1113  0.0000  0.0000  0.0000  0.0000  0.0000      0.0000  0.0000  0.0000  0.0000  0.0000  0.0000  0.0000  0.0000  0.0000  0.0000
atom =   7  type =  2  l = 2
 
 onsite density matrix
 
spin component  1
 
  0.3287 -0.1129  0.2204  0.1149  0.1487
 -0.1129  0.6020 -0.0986  0.2173  0.1361
  0.2204 -0.0986  0.5640  0.2607 -0.1184
  0.1149  0.2173  0.2607  0.4349  0.0403
  0.1487  0.1361 -0.1184  0.0403  0.7273
 
spin component  2
 
  0.0776 -0.0023 -0.0168 -0.0094 -0.0010
 -0.0023  0.0703  0.0078 -0.0068 -0.0294
 -0.0168  0.0078  0.0543 -0.0196  0.0121
 -0.0094 -0.0068 -0.0196  0.0625 -0.0106
 -0.0010 -0.0294  0.0121 -0.0106  0.0594
 
 occupancies and eigenvectors
 
  o =  0.0265  v =  0.0000  0.0000  0.0000  0.0000  0.0000 -0.1630  0.5037 -0.5641 -0.0694  0.6298      0.0000  0.0000  0.0000  0.0000  0.0000  0.0000  0.0000  0.0000  0.0000  0.0000
  o =  0.0322  v =  0.0000  0.0000  0.0000  0.0000  0.0000  0.3407  0.3089  0.5076  0.6304  0.3653      0.0000  0.0000  0.0000  0.0000  0.0000  0.0000  0.0000  0.0000  0.0000  0.0000
  o =  0.0810  v =  0.0000  0.0000  0.0000  0.0000  0.0000  0.6325  0.2637  0.2196 -0.6905  0.0735      0.0000  0.0000  0.0000  0.0000  0.0000  0.0000  0.0000  0.0000  0.0000  0.0000
  o =  0.0892  v =  0.0000  0.0000  0.0000  0.0000  0.0000 -0.6761  0.2690  0.5994 -0.3141  0.1121      0.0000  0.0000  0.0000  0.0000  0.0000  0.0000  0.0000  0.0000  0.0000  0.0000
  o =  0.0952  v =  0.0000  0.0000  0.0000  0.0000  0.0000  0.0113 -0.7134  0.1287 -0.1497  0.6723      0.0000  0.0000  0.0000  0.0000  0.0000  0.0000  0.0000  0.0000  0.0000  0.0000
  o =  0.1134  v = -0.5104 -0.4931 -0.1995  0.6585  0.1512  0.0000  0.0000  0.0000  0.0000  0.0000      0.0000  0.0000  0.0000  0.0000  0.0000  0.0000  0.0000  0.0000  0.0000  0.0000
  o =  0.1220  v =  0.6456 -0.0481 -0.6141  0.3452 -0.2909  0.0000  0.0000  0.0000  0.0000  0.0000      0.0000  0.0000  0.0000  0.0000  0.0000  0.0000  0.0000  0.0000  0.0000  0.0000
  o =  0.6533  v = -0.3933  0.6422 -0.0162  0.3050 -0.5828  0.0000  0.0000  0.0000  0.0000  0.0000      0.0000  0.0000  0.0000  0.0000  0.0000  0.0000  0.0000  0.0000  0.0000  0.0000
  o =  0.8762  v =  0.4044  0.1708  0.6458  0.5897  0.2060  0.0000  0.0000  0.0000  0.0000  0.0000      0.0000  0.0000  0.0000  0.0000  0.0000  0.0000  0.0000  0.0000  0.0000  0.0000
  o =  0.8920  v = -0.0665  0.5594 -0.4072  0.0800  0.7144  0.0000  0.0000  0.0000  0.0000  0.0000      0.0000  0.0000  0.0000  0.0000  0.0000  0.0000  0.0000  0.0000  0.0000  0.0000
atom =   8  type =  2  l = 2
 
 onsite density matrix
 
spin component  1
 
  0.7072  0.1820  0.0830 -0.0730 -0.2440
  0.1820  0.4108  0.1125  0.1366 -0.0393
  0.0830  0.1125  0.2815 -0.0621  0.0418
 -0.0730  0.1366 -0.0621  0.8613 -0.0573
 -0.2440 -0.0393  0.0418 -0.0573  0.3254
 
spin component  2
 
  0.0678 -0.0128  0.0070  0.0027  0.0420
 -0.0128  0.0715 -0.0748 -0.0136 -0.0375
  0.0070 -0.0748  0.0721  0.0073 -0.0370
  0.0027 -0.0136  0.0073  0.0495  0.0046
  0.0420 -0.0375 -0.0370  0.0046  0.0786
 
 occupancies and eigenvectors
 
  o = -0.0315  v =  0.0000  0.0000  0.0000  0.0000  0.0000 -0.1680  0.6038  0.6162  0.0243  0.4764      0.0000  0.0000  0.0000  0.0000  0.0000  0.0000  0.0000  0.0000  0.0000  0.0000
  o =  0.0418  v =  0.0000  0.0000  0.0000  0.0000  0.0000 -0.7016 -0.3499 -0.1231 -0.4756  0.3795      0.0000  0.0000  0.0000  0.0000  0.0000  0.0000  0.0000  0.0000  0.0000  0.0000
  o =  0.0487  v =  0.0000  0.0000  0.0000  0.0000  0.0000  0.4342  0.0846  0.1820 -0.8660 -0.1455      0.0000  0.0000  0.0000  0.0000  0.0000  0.0000  0.0000  0.0000  0.0000  0.0000
  o =  0.1272  v =  0.0000  0.0000  0.0000  0.0000  0.0000  0.4663  0.0258 -0.4750  0.0112  0.7457      0.0000  0.0000  0.0000  0.0000  0.0000  0.0000  0.0000  0.0000  0.0000  0.0000
[...]
   10        0.901   1.524   0.000   2.425
   11        0.901   1.527   0.000   2.428
   12        0.903   1.531   0.000   2.434
   13        0.903   1.545   0.000   2.448
   14        0.902   1.542   0.000   2.443
   15        1.574   3.660   0.000   5.234
   16        1.568   3.625   0.000   5.193
   17        1.573   3.640   0.000   5.213
   18        1.572   3.651   0.000   5.222
   19        1.578   3.644   0.000   5.222
   20        1.571   3.657   0.000   5.228
   21        1.570   3.645   0.000   5.215
   22        1.573   3.655   0.000   5.228
   23        1.574   3.670   0.000   5.244
   24        1.571   3.647   0.000   5.218
   25        1.569   3.645   0.000   5.214
   26        1.575   3.647   0.000   5.221
   27        1.569   3.661   0.000   5.230
   28        1.573   3.649   0.000   5.222
   29        1.570   3.656   0.000   5.226
   30        1.572   3.636   0.000   5.209
   31        1.572   3.658   0.000   5.230
   32        1.571   3.649   0.000   5.220
   33        1.570   3.641   0.000   5.211
   34        1.569   3.632   0.000   5.201
   35        1.571   3.635   0.000   5.206
   36        1.573   3.660   0.000   5.233
   37        1.571   3.666   0.000   5.237
   38        1.574   3.636   0.000   5.210
--------------------------------------------------
tot         51.986 144.923  12.521 209.430
 


 magnetization (x)
 
# of ion       s       p       d       tot
------------------------------------------
    1        0.000   0.000   0.006   0.006
    2        0.000   0.000   0.003   0.004
    3        0.000   0.000   0.005   0.005
    4        0.000   0.000   0.003   0.004
    5        0.006   0.011   1.864   1.880
    6        0.014   0.013   2.588   2.615
    7        0.013   0.013   2.533   2.559
    8        0.006   0.011   2.031   2.048
    9        0.003   0.006   0.000   0.008
   10        0.002   0.005   0.000   0.007
   11        0.003   0.007   0.000   0.010
   12        0.002   0.005   0.000   0.006
   13        0.003   0.006   0.000   0.008
   14        0.003   0.006   0.000   0.008
   15       -0.001  -0.004   0.000  -0.005
   16       -0.000  -0.001   0.000  -0.002
   17       -0.000   0.009   0.000   0.009
   18        0.000  -0.005   0.000  -0.005
   19       -0.000  -0.011   0.000  -0.011
   20       -0.000   0.002   0.000   0.002
   21       -0.000  -0.006   0.000  -0.007
   22       -0.000  -0.007   0.000  -0.007
   23       -0.000   0.001   0.000   0.001
   24       -0.000   0.000   0.000   0.000
   25       -0.000  -0.000   0.000  -0.001
   26        0.000   0.004   0.000   0.005
   27       -0.000   0.006   0.000   0.005
   28       -0.000   0.011   0.000   0.010
   29       -0.001   0.004   0.000   0.003
   30       -0.000  -0.006   0.000  -0.006
   31        0.000  -0.002   0.000  -0.002
   32       -0.001  -0.000   0.000  -0.001
   33        0.000   0.005   0.000   0.006
   34        0.000   0.002   0.000   0.002
   35        0.000  -0.006   0.000  -0.006
   36       -0.001   0.004   0.000   0.003
   37       -0.001  -0.001   0.000  -0.002
   38       -0.001  -0.002   0.000  -0.002
--------------------------------------------------
tot          0.047   0.078   9.034   9.158
 
    CHARGE:  cpu time    0.1923: real time    0.1931
    FORLOC:  cpu time    0.0020: real time    0.0020
    FORNL :  cpu time    0.9806: real time    0.9849
    STRESS:  cpu time   21.0569: real time   21.1319
    FORCOR:  cpu time    0.0740: real time    0.0763
    FORHAR:  cpu time    0.0074: real time    0.0074
    MIXING:  cpu time    0.0011: real time    0.0011
    OFIELD:  cpu time    0.0001: real time    0.0001

  FORCE on cell =-STRESS in cart. coord.  units (eV):
  Direction    XX          YY          ZZ          XY          YZ          ZX
  --------------------------------------------------------------------------------------
  Alpha Z   882.30356   882.30356   882.30356
  Ewald   -4198.05763 -4681.69151 -4296.31039  -183.61119  -197.87792   -96.61873
  Hartree  2578.04733  2187.64879  2515.40697  -146.09418  -126.70475   -50.24825
  E(xc)   -1331.78471 -1331.83440 -1331.61836    -0.00162     0.02807     0.13433
  Local   -2218.34289 -1346.38045 -2055.78879   330.78206   313.49079   143.72634
  n-local  -730.82665  -730.25893  -729.80663     1.03529    -1.78529    -2.07753
  augment   393.56238   393.40231   391.49483    -0.60389     3.79540     1.18545
  Kinetic  4625.40264  4627.11729  4624.61674    -1.50226     9.05873     3.85967
  Fock        0.00000     0.00000     0.00000     0.00000     0.00000     0.00000
  -------------------------------------------------------------------------------------
  Total       0.30403     0.30666     0.29794     0.00421     0.00503    -0.03872
  in kB       0.98875     0.99733     0.96896     0.01370     0.01636    -0.12594
  external pressure =        0.99 kB  Pullay stress =        0.00 kB


 VOLUME and BASIS-vectors are now :
 -----------------------------------------------------------------------------
  energy-cutoff  :      520.00
  volume of cell :      492.64
      direct lattice vectors                 reciprocal lattice vectors
     2.575295045  7.277754574  4.336218049    -0.000276154  0.137783618 -0.000471420
     0.023810072  0.030247511  8.826601394    -0.063596928 -0.045192730  0.113620313
     7.701847764  0.030227384  4.322993822     0.130127919 -0.045931501 -0.000193624

  length of vectors
     8.854413768  8.826685335  8.832193853     0.137784701  0.137827891  0.137996433


 FORCES acting on ions
    electron-ion (+dipol)            ewald-force                    non-local-force                 convergence-correction
 -----------------------------------------------------------------------------------------------
   -.919E+02 0.153E+03 -.117E+02   0.905E+02 -.154E+03 0.111E+02   0.136E+01 0.269E+00 0.684E+00   0.150E-02 0.137E-02 0.179E-02
   -.430E+02 -.626E+02 0.208E+02   0.452E+02 0.624E+02 -.194E+02   -.219E+01 0.235E+00 -.142E+01   0.190E-02 -.200E-02 -.703E-02
   -.132E+02 -.313E+02 -.102E+03   0.139E+02 0.331E+02 0.100E+03   -.748E+00 -.185E+01 0.153E+01   -.602E-02 0.220E-02 -.247E-02
   0.619E+02 -.812E+01 0.367E+02   -.600E+02 0.814E+01 -.378E+02   -.190E+01 -.242E-01 0.115E+01   -.524E-03 0.444E-02 0.270E-02
   0.416E+02 -.881E+02 0.924E+02   -.417E+02 0.891E+02 -.940E+02   0.121E+00 -.100E+01 0.147E+01   0.778E-03 -.608E-03 0.226E-02
   -.367E+02 0.114E+03 -.147E+03   0.394E+02 -.114E+03 0.150E+03   -.269E+01 -.580E-01 -.235E+01   -.133E-02 0.976E-03 -.529E-03
   0.610E+02 0.983E+02 -.141E+02   -.605E+02 -.101E+03 0.129E+02   -.469E+00 0.217E+01 0.118E+01   -.107E-02 0.208E-02 -.157E-03
   0.486E+02 -.102E+03 0.375E+02   -.487E+02 0.103E+03 -.389E+02   0.108E+00 -.102E+01 0.131E+01   -.295E-03 -.181E-02 0.696E-03
   -.603E+02 -.857E+01 0.504E+02   0.603E+02 0.977E+01 -.512E+02   -.277E-01 -.116E+01 0.774E+00   0.168E-02 0.213E-02 0.111E-02
   0.301E+02 0.693E+02 -.211E+02   -.299E+02 -.728E+02 0.190E+02   -.195E+00 0.340E+01 0.204E+01   -.218E-03 0.150E-02 -.298E-02
   0.695E+02 0.110E+03 -.173E+01   -.716E+02 -.110E+03 0.111E+01   0.198E+01 0.645E-01 0.615E+00   -.224E-03 0.235E-02 0.304E-02
   0.489E+02 -.856E+02 -.602E+02   -.480E+02 0.888E+02 0.607E+02   -.923E+00 -.306E+01 -.492E+00   -.293E-02 -.148E-02 -.864E-03
   0.335E+02 -.823E+02 -.213E+02   -.331E+02 0.820E+02 0.218E+02   -.321E+00 0.263E+00 -.446E+00   0.225E-02 -.119E-02 0.267E-02
   -.785E+02 -.194E+02 0.344E+02   0.770E+02 0.178E+02 -.315E+02   0.149E+01 0.158E+01 -.276E+01   -.268E-03 -.263E-02 -.205E-02
   0.436E+02 -.116E+03 0.162E+03   -.218E+02 0.121E+03 -.184E+03   -.219E+02 -.485E+01 0.226E+02   0.218E-02 -.175E-02 0.137E-02
   0.133E+02 0.283E+02 0.454E+01   -.785E+00 -.534E+02 -.376E+01   -.125E+02 0.252E+02 -.773E+00   -.325E-02 -.293E-03 -.276E-02
   0.299E+02 -.892E+02 0.205E+03   -.532E+02 0.112E+03 -.212E+03   0.233E+02 -.228E+02 0.740E+01   -.826E-03 0.587E-03 0.129E-02
   -.642E+02 0.763E+02 0.380E+02   0.730E+02 -.512E+02 -.537E+02   -.886E+01 -.251E+02 0.157E+02   -.343E-02 -.184E-02 -.236E-02
   0.128E+03 0.108E+03 0.171E+03   -.142E+03 -.141E+03 -.167E+03   0.143E+02 0.326E+02 -.324E+01   0.554E-03 0.436E-04 0.271E-02
   0.249E+02 0.144E+03 0.728E+01   -.521E+02 -.142E+03 0.720E+01   0.271E+02 -.206E+01 -.145E+02   -.230E-03 0.334E-03 -.504E-02
   0.746E+00 0.139E+03 -.483E+02   0.251E+02 -.144E+03 0.361E+02   -.259E+02 0.497E+01 0.123E+02   -.451E-03 0.428E-02 0.612E-02
   -.183E+03 -.111E+03 0.602E+00   0.209E+03 0.931E+02 -.482E+01   -.263E+02 0.182E+02 0.422E+01   0.122E-02 -.886E-02 -.391E-02
   -.905E+01 -.133E+02 -.806E+02   -.925E+01 0.408E+02 0.845E+02   0.183E+02 -.276E+02 -.388E+01   0.495E-02 -.187E-02 0.550E-02
   -.439E+02 -.887E+02 -.575E+02   0.498E+02 0.115E+03 0.491E+02   -.592E+01 -.267E+02 0.841E+01   -.456E-03 0.386E-02 -.725E-02
   -.113E+03 0.558E+02 -.101E+02   0.105E+03 -.773E+02 0.273E+02   0.826E+01 0.215E+02 -.173E+02   0.280E-02 0.618E-02 0.296E-02
   -.153E+01 -.224E+03 -.159E+03   -.234E+02 0.229E+03 0.183E+03   0.250E+02 -.572E+01 -.243E+02   -.778E-02 -.389E-02 -.374E-03
   -.385E+02 -.154E+02 0.704E+00   0.416E+02 0.533E+01 -.298E+02   -.314E+01 0.101E+02 0.292E+02   -.192E-02 0.219E-02 0.204E-02
   0.117E+03 0.515E+02 0.965E+01   -.124E+03 -.781E+02 -.318E+02   0.722E+01 0.266E+02 0.222E+02   0.958E-04 0.537E-03 -.170E-02
   0.939E+02 0.141E+03 0.110E+02   -.115E+03 -.130E+03 -.339E+02   0.206E+02 -.105E+02 0.229E+02   0.350E-02 0.160E-02 0.346E-02
   0.243E+02 -.257E+02 -.115E+02   -.311E+02 0.242E+02 -.190E+02   0.681E+01 0.145E+01 0.306E+02   -.144E-02 -.974E-03 -.127E-02
   0.152E+02 -.398E+02 0.151E+02   -.285E+02 0.182E+02 -.319E+02   0.133E+02 0.216E+02 0.169E+02   0.326E-02 0.144E-02 -.118E-02
   -.156E+02 -.772E+01 0.109E+03   -.959E+01 0.112E+01 -.122E+03   0.252E+02 0.661E+01 0.131E+02   -.793E-03 -.135E-02 -.672E-03
   -.332E+01 0.277E+02 0.240E+02   0.299E+02 -.204E+02 -.765E+01   -.267E+02 -.734E+01 -.164E+02   0.729E-02 0.212E-02 0.115E-02
   0.924E+00 0.328E+02 -.249E+02   0.242E+02 -.338E+02 0.428E+02   -.251E+02 0.961E+00 -.179E+02   -.249E-02 0.502E-02 -.371E-02
   -.531E+01 0.716E+02 -.252E+02   0.149E+02 -.545E+02 0.466E+02   -.957E+01 -.171E+02 -.214E+02   -.237E-02 0.715E-02 0.337E-02
   0.646E+02 -.706E+02 -.138E+03   -.428E+02 0.945E+02 0.150E+03   -.218E+02 -.239E+02 -.118E+02   -.346E-02 -.607E-02 -.236E-02
   0.371E+02 -.103E+03 -.492E+02   -.287E+02 0.941E+02 0.755E+02   -.840E+01 0.917E+01 -.263E+02   0.167E-02 -.343E-02 0.819E-02
   -.170E+03 -.299E+02 -.624E+02   0.176E+03 0.338E+02 0.969E+02   -.688E+01 -.389E+01 -.345E+02   0.231E-02 -.333E-02 -.596E-02
 -----------------------------------------------------------------------------------------------
   0.180E+02 -.112E+01 -.163E+02   -.284E-13 0.426E-13 -.284E-13   -.179E+02 0.111E+01 0.164E+02   -.383E-02 0.900E-02 -.221E-02
 
 
 POSITION                                       TOTAL-FORCE (eV/Angst)
 -----------------------------------------------------------------------------------
      2.65974      7.03432      4.32628         0.019804      0.001951      0.003784
      1.91816      3.01983      8.82322        -0.015414      0.003849     -0.006918
      6.10961      1.16136      7.44292         0.005822     -0.001440     -0.004116
      5.20777      1.81032     11.41765        -0.003701     -0.001000     -0.001741
      6.53952      4.73874     11.10271        -0.007278     -0.023754     -0.016783
      1.52073      1.03612      2.59252        -0.005598      0.001621     -0.009014
      8.79783      6.17669     14.92750         0.004940     -0.001919     -0.003593
      3.63691      2.61013      6.13211        -0.001349      0.014091     -0.002750
      7.98012      1.83969     10.10154         0.002255      0.003354      0.000128
      3.57404      0.33044      8.72248         0.002852      0.009173      0.019548
      6.76927      7.02930      8.83168        -0.000588     -0.005385     -0.004708
      6.85573      3.27575      5.41370        -0.011304      0.002883     -0.003574
      3.32655      3.94171     11.78319         0.003940      0.016127      0.005683
      2.17346      5.44046      7.39651         0.009499      0.000024      0.011315
      4.65112      4.12631     11.03155        -0.019258     -0.001205      0.001103
      7.63848      1.90798      5.57519         0.000813      0.001669      0.001293
      6.90813      2.94336     10.12672        -0.002630      0.000279      0.002628
      2.60519      6.73182      6.67480        -0.001289     -0.011311      0.001325
      6.35513      5.71075      9.43713         0.013275      0.005932      0.006763
      2.24938      0.54368      9.47542        -0.001357      0.003287      0.002869
      8.10817      6.88986      8.04294        -0.005221      0.010315      0.024419
      3.12394      4.28395      7.09156        -0.001310      0.001970     -0.012725
      2.52284      5.21719     11.86294        -0.002218     -0.019403      0.005356
      3.81328      1.69852      7.98942         0.005836     -0.013953     -0.001767
      7.35892      0.69368     10.96225         0.009828      0.005981     -0.013097
      5.63529      3.16109      6.31837         0.007881      0.010466     -0.001745
      8.11350      1.41204      8.64568        -0.007850      0.003872      0.005940
      6.03424      6.42666     12.15200        -0.005576      0.005526      0.007509
      3.21386      0.32769      3.49656         0.001503      0.003929     -0.002469
      6.56854      3.38551     12.73627        -0.001538      0.004142     -0.001292
      2.62661      2.82487     10.98597         0.003297      0.006561     -0.005316
      8.45991      5.13759     11.24879         0.009048      0.009337      0.023235
      1.60017      2.18199      6.43928        -0.007003     -0.004108     -0.010147
      4.83697      0.25232      9.61401         0.001549     -0.009765     -0.008393
      4.50455      0.83377      5.56729        -0.000580      0.000223     -0.009260
      7.82936      4.39895     14.62733        -0.008002     -0.023463     -0.012287
      3.61418      3.34853      4.33229        -0.001817     -0.008810     -0.003204
      2.16666      5.58527      8.90930         0.008740     -0.001045      0.012002
 -----------------------------------------------------------------------------------
    total drift:                                0.013793      0.006607      0.069447


--------------------------------------------------------------------------------------------------------



  FREE ENERGIE OF THE ION-ELECTRON SYSTEM (eV)
  ---------------------------------------------------
  free  energy   TOTEN  =      -424.22582908 eV

  energy  without entropy=     -424.21676271  energy(sigma->0) =     -424.22129589
 


--------------------------------------------------------------------------------------------------------


    POTLOK:  cpu time    0.9327: real time    0.9361


--------------------------------------------------------------------------------------------------------




--------------------------------------------------------------------------------------------------------


  
 reached required accuracy - stopping structural energy minimisation
     LOOP+:  cpu time  406.6814: real time  411.4224
    4ORBIT:  cpu time    0.0000: real time    0.0000
 


 total charge     
 
# of ion       s       p       d       tot
------------------------------------------
    1        2.023   5.873   0.217   8.113
    2        2.018   5.864   0.217   8.099
    3        2.019   5.865   0.220   8.105
    4        2.019   5.867   0.228   8.115
    5        0.230   6.223   2.772   9.225
    6        0.163   6.133   3.038   9.334
    7        0.165   6.137   2.999   9.301
    8        0.218   6.206   2.829   9.252
    9        0.901   1.518   0.000   2.419
   10        0.901   1.524   0.000   2.425
   11        0.901   1.527   0.000   2.428
   12        0.903   1.531   0.000   2.434
   13        0.903   1.545   0.000   2.448
   14        0.902   1.542   0.000   2.443
   15        1.574   3.660   0.000   5.234
   16        1.568   3.625   0.000   5.193
   17        1.573   3.640   0.000   5.213
   18        1.572   3.651   0.000   5.222
   19        1.578   3.644   0.000   5.222
   20        1.571   3.657   0.000   5.228
   21        1.570   3.645   0.000   5.215
   22        1.573   3.655   0.000   5.228
   23        1.574   3.670   0.000   5.244
   24        1.571   3.647   0.000   5.218
   25        1.569   3.645   0.000   5.214
   26        1.575   3.647   0.000   5.221
   27        1.569   3.661   0.000   5.230
   28        1.573   3.649   0.000   5.222
   29        1.570   3.656   0.000   5.226
   30        1.572   3.636   0.000   5.209
   31        1.572   3.658   0.000   5.230
   32        1.571   3.649   0.000   5.220
   33        1.570   3.641   0.000   5.211
   34        1.569   3.632   0.000   5.201
   35        1.571   3.635   0.000   5.206
   36        1.573   3.660   0.000   5.233
   37        1.571   3.666   0.000   5.237
   38        1.574   3.636   0.000   5.210
--------------------------------------------------
tot         51.986 144.923  12.521 209.430
 


 magnetization (x)
 
# of ion       s       p       d       tot
------------------------------------------
    1        0.000   0.000   0.006   0.006
    2        0.000   0.000   0.003   0.004
    3        0.000   0.000   0.005   0.005
    4        0.000   0.000   0.003   0.004
    5        0.006   0.011   1.864   1.880
    6        0.014   0.013   2.588   2.615
    7        0.013   0.013   2.533   2.559
    8        0.006   0.011   2.031   2.048
    9        0.003   0.006   0.000   0.008
   10        0.002   0.005   0.000   0.007
   11        0.003   0.007   0.000   0.010
   12        0.002   0.005   0.000   0.006
   13        0.003   0.006   0.000   0.008
   14        0.003   0.006   0.000   0.008
   15       -0.001  -0.004   0.000  -0.005
   16       -0.000  -0.001   0.000  -0.002
   17       -0.000   0.009   0.000   0.009
   18        0.000  -0.005   0.000  -0.005
   19       -0.000  -0.011   0.000  -0.011
   20       -0.000   0.002   0.000   0.002
   21       -0.000  -0.006   0.000  -0.007
   22       -0.000  -0.007   0.000  -0.007
   23       -0.000   0.001   0.000   0.001
   24       -0.000   0.000   0.000   0.000
   25       -0.000  -0.000   0.000  -0.001
   26        0.000   0.004   0.000   0.005
   27       -0.000   0.006   0.000   0.005
   28       -0.000   0.011   0.000   0.010
   29       -0.001   0.004   0.000   0.003
   30       -0.000  -0.006   0.000  -0.006
   31        0.000  -0.002   0.000  -0.002
   32       -0.001  -0.000   0.000  -0.001
   33        0.000   0.005   0.000   0.006
   34        0.000   0.002   0.000   0.002
   35        0.000  -0.006   0.000  -0.006
   36       -0.001   0.004   0.000   0.003
   37       -0.001  -0.001   0.000  -0.002
   38       -0.001  -0.002   0.000  -0.002
--------------------------------------------------
tot          0.047   0.078   9.034   9.158
 

 total amount of memory used by VASP MPI-rank0    55858. kBytes
=======================================================================

   base      :      30000. kBytes
   nonlr-proj:       8589. kBytes
   fftplans  :       1113. kBytes
   grid      :       4344. kBytes
   one-center:         62. kBytes
   wavefun   :      11750. kBytes
 
  
  
 General timing and accounting informations for this job:
 ========================================================
  
                  Total CPU time used (sec):      429.990
                            User time (sec):      428.160
                          System time (sec):        1.830
                         Elapsed time (sec):      469.859
  
                   Maximum memory used (kb):      336844.
                   Average memory used (kb):           0.
  
                          Minor page faults:        94865
                          Major page faults:            0
                 Voluntary context switches:        31908
