       N       E                     dE             d eps       ncg     rms          ort
DAV:   1     0.284840924000E+04    0.28484E+04   -0.15321E+05  9180   0.161E+03
DAV:   2    -0.195751505580E+03   -0.30442E+04   -0.28743E+04  9180   0.445E+02
DAV:   3    -0.520155497576E+03   -0.32440E+03   -0.32010E+03  9180   0.158E+02
DAV:   4    -0.532532817284E+03   -0.12377E+02   -0.12257E+02  9180   0.284E+01
DAV:   5    -0.533235677458E+03   -0.70286E+00   -0.70174E+00  9180   0.514E+00
SDA:   6    -0.341691344692E+03    0.19154E+03   -0.70174E+00  9180   0.515E+03 0.000E+00
CGA:   7    -0.406680548020E+03   -0.64989E+02   -0.65718E+02  9180   0.638E+02 0.164E+02
CGA:   8    -0.415614253188E+03   -0.89337E+01   -0.96637E+01  9180   0.140E+02 0.462E+01
CGA:   9    -0.418105035038E+03   -0.24908E+01   -0.16041E+01  9180   0.600E+01 0.781E+01
CGA:  10    -0.420275058950E+03   -0.21700E+01   -0.21659E+01  9180   0.454E+01 0.148E-01
CGA:  11    -0.421593829905E+03   -0.13188E+01   -0.13396E+01  9180   0.139E+01-0.172E+00
CGA:  12    -0.421834026748E+03   -0.24020E+00   -0.24164E+00  9180   0.305E+00 0.316E-01
CGA:  13    -0.421939055865E+03   -0.10503E+00   -0.10975E+00  9180   0.143E+00-0.314E-01
CGA:  14    -0.421969412606E+03   -0.30357E-01   -0.30821E-01  9180   0.436E-01-0.152E-01
CGA:  15    -0.421979974646E+03   -0.10562E-01   -0.10319E-01  9180   0.163E-01 0.447E-02
CGA:  16    -0.421984611898E+03   -0.46373E-02   -0.45002E-02  9180   0.575E-02 0.375E-02
CGA:  17    -0.421986636898E+03   -0.20250E-02   -0.19776E-02  9180   0.234E-02 0.726E-03
CGA:  18    -0.421987373816E+03   -0.73692E-03   -0.70128E-03  9180   0.102E-02 0.739E-03
CGA:  19    -0.421987745458E+03   -0.37164E-03   -0.35727E-03  9180   0.453E-03 0.319E-03
CGA:  20    -0.421988022546E+03   -0.27709E-03    0.15112E-02  9180   0.219E-03 0.255E-03
CGA:  21    -0.421988145348E+03   -0.12280E-03    0.95845E-04  9180   0.909E-04 0.119E-03
CGA:  22    -0.421988206869E+03   -0.61521E-04   -0.46420E-04  9180   0.464E-04 0.526E-04
CGA:  23    -0.421988240546E+03   -0.33678E-04    0.10459E-04  9180   0.314E-04 0.348E-04
CGA:  24    -0.421988250717E+03   -0.10170E-04   -0.89384E-05  9180   0.234E-04 0.264E-04
CGA:  25    -0.421988263799E+03   -0.13082E-04    0.16739E-04  9180   0.182E-04 0.202E-04
CGA:  26    -0.421988280919E+03   -0.17120E-04   -0.12007E-04  9180   0.172E-04 0.122E-04
CGA:  27    -0.421988272069E+03    0.88493E-05   -0.16971E-04  9180   0.261E-03-0.357E-04
CGA:  28    -0.421988302490E+03   -0.30421E-04   -0.34480E-04  9180   0.737E-05 0.245E-04
CGA:  29    -0.421988302075E+03    0.41479E-06   -0.73031E-06  9180   0.450E-05 0.578E-05
   1 F= -.42198830E+03 E0= -.42198830E+03  d E =-.421988E+03  mag=    18.0000
       N       E                     dE             d eps       ncg     rms          ort
SDA:   1    -0.422004758814E+03   -0.16456E-01    0.00000E+00  9180   0.170E-02 0.000E+00
CGA:   2    -0.422005091646E+03   -0.33283E-03   -0.35220E-03  9180   0.406E-03 0.302E-03
CGA:   3    -0.422005217770E+03   -0.12612E-03   -0.12621E-03  9180   0.171E-03 0.200E-04
CGA:   4    -0.422005259179E+03   -0.41408E-04   -0.39591E-04  9180   0.737E-04-0.387E-04
CGA:   5    -0.422005269496E+03   -0.10317E-04   -0.10327E-04  9180   0.241E-04 0.832E-07
CGA:   6    -0.422005271202E+03   -0.17056E-05   -0.32596E-05  9180   0.130E-04 0.123E-04
   2 F= -.42200527E+03 E0= -.42200527E+03  d E =-.169691E-01  mag=    18.0000
       N       E                     dE             d eps       ncg     rms          ort
SDA:   1    -0.421494111888E+03    0.51116E+00    0.00000E+00  9180   0.352E+01 0.000E+00
CGA:   2    -0.422379445309E+03   -0.88533E+00   -0.88531E+00  9180   0.102E+01 0.131E-01
CGA:   3    -0.422614272152E+03   -0.23483E+00   -0.23475E+00  9180   0.373E+00-0.398E-02
CGA:   4    -0.422678638845E+03   -0.64367E-01   -0.64165E-01  9180   0.786E-01-0.276E-02
CGA:   5    -0.422694835820E+03   -0.16197E-01   -0.16192E-01  9180   0.237E-01-0.136E-03
CGA:   6    -0.422700280657E+03   -0.54448E-02   -0.54480E-02  9180   0.983E-02 0.252E-03
CGA:   7    -0.422703100227E+03   -0.28196E-02   -0.28204E-02  9180   0.442E-02-0.247E-04
CGA:   8    -0.422704427913E+03   -0.13277E-02   -0.13320E-02  9180   0.199E-02-0.750E-04
CGA:   9    -0.422704981906E+03   -0.55399E-03   -0.55196E-03  9180   0.691E-03 0.559E-04
CGA:  10    -0.422705218166E+03   -0.23626E-03   -0.23852E-03  9180   0.316E-03-0.267E-04
CGA:  11    -0.422705341403E+03   -0.12324E-03   -0.13855E-03  9180   0.232E-03-0.761E-04
CGA:  12    -0.422705387165E+03   -0.45762E-04   -0.45847E-04  9180   0.862E-04 0.298E-04
CGA:  13    -0.422705409995E+03   -0.22830E-04   -0.23176E-04  9180   0.289E-04 0.138E-04
CGA:  14    -0.422705421272E+03   -0.11277E-04   -0.11699E-04  9180   0.129E-04-0.486E-05
CGA:  15    -0.422705421444E+03   -0.17213E-06   -0.12134E-05  9180   0.780E-05 0.678E-05
   3 F= -.42270542E+03 E0= -.42270542E+03  d E =-.700150E+00  mag=    18.0000
       N       E                     dE             d eps       ncg     rms          ort
SDA:   1    -0.417039503431E+03    0.56659E+01    0.00000E+00  9180   0.209E+02 0.000E+00
CGA:   2    -0.422088876293E+03   -0.50494E+01   -0.50500E+01  9180   0.567E+01 0.404E-02
CGA:   3    -0.423397965990E+03   -0.13091E+01   -0.13089E+01  9180   0.210E+01-0.109E-01
CGA:   4    -0.423767404146E+03   -0.36944E+00   -0.36920E+00  9180   0.465E+00-0.411E-02
CGA:   5    -0.423863720511E+03   -0.96316E-01   -0.96244E-01  9180   0.141E+00-0.175E-02
CGA:   6    -0.423897414195E+03   -0.33694E-01   -0.33692E-01  9180   0.633E-01-0.388E-03
CGA:   7    -0.423914997597E+03   -0.17583E-01   -0.17573E-01  9180   0.274E-01 0.277E-03
CGA:   8    -0.423923103028E+03   -0.81054E-02   -0.80766E-02  9180   0.114E-01 0.621E-03
CGA:   9    -0.423926421116E+03   -0.33181E-02   -0.33004E-02  9180   0.400E-02 0.531E-03
CGA:  10    -0.423927781507E+03   -0.13604E-02   -0.13512E-02  9180   0.170E-02 0.126E-03
CGA:  11    -0.423928457444E+03   -0.67594E-03   -0.67825E-03  9180   0.952E-03-0.185E-04
CGA:  12    -0.423928782660E+03   -0.32522E-03   -0.31820E-03  9180   0.368E-03 0.904E-04
CGA:  13    -0.423928914521E+03   -0.13186E-03   -0.12931E-03  9180   0.119E-03 0.450E-04
CGA:  14    -0.423928951618E+03   -0.37097E-04   -0.36833E-04  9180   0.368E-04 0.318E-04
CGA:  15    -0.423928962572E+03   -0.10954E-04   -0.11362E-04  9180   0.141E-04 0.165E-04
CGA:  16    -0.423928970580E+03   -0.80084E-05   -0.77505E-05  9180   0.923E-05 0.228E-05
   4 F= -.42392897E+03 E0= -.42392897E+03  d E =-.122355E+01  mag=    18.0000
       N       E                     dE             d eps       ncg     rms          ort
SDA:   1    -0.418984732964E+03    0.49442E+01    0.00000E+00  9180   0.187E+02 0.000E+00
CGA:   2    -0.423108725066E+03   -0.41240E+01   -0.41289E+01  9180   0.461E+01 0.341E-01
CGA:   3    -0.424174088007E+03   -0.10654E+01   -0.10648E+01  9180   0.181E+01-0.106E-01
CGA:   4    -0.424498599917E+03   -0.32451E+00   -0.32406E+00  9180   0.395E+00-0.575E-02
CGA:   5    -0.424577678824E+03   -0.79079E-01   -0.79136E-01  9180   0.112E+00 0.758E-03
CGA:   6    -0.424603860337E+03   -0.26182E-01   -0.26229E-01  9180   0.490E-01 0.142E-02
CGA:   7    -0.424618364117E+03   -0.14504E-01   -0.14497E-01  9180   0.242E-01 0.219E-03
CGA:   8    -0.424626281652E+03   -0.79175E-02   -0.79487E-02  9180   0.124E-01-0.499E-03
CGA:   9    -0.424629925364E+03   -0.36437E-02   -0.36450E-02  9180   0.476E-02-0.349E-04
CGA:  10    -0.424631409410E+03   -0.14840E-02   -0.14778E-02  9180   0.176E-02 0.151E-03
CGA:  11    -0.424632049836E+03   -0.64043E-03   -0.63627E-03  9180   0.802E-03 0.526E-04
CGA:  12    -0.424632363878E+03   -0.31404E-03   -0.31782E-03  9180   0.361E-03-0.349E-04
CGA:  13    -0.424632501221E+03   -0.13734E-03   -0.15185E-03  9180   0.172E-03-0.914E-04
CGA:  14    -0.424632537863E+03   -0.36642E-04   -0.36696E-04  9180   0.516E-04 0.119E-04
CGA:  15    -0.424632551705E+03   -0.13841E-04   -0.14140E-04  9180   0.182E-04 0.899E-05
CGA:  16    -0.424632559017E+03   -0.73123E-05   -0.72022E-05  9180   0.897E-05 0.220E-05
   5 F= -.42463256E+03 E0= -.42463256E+03  d E =-.703588E+00  mag=    18.0000
       N       E                     dE             d eps       ncg     rms          ort
SDA:   1    -0.418185367650E+03    0.64472E+01    0.00000E+00  9180   0.224E+02 0.000E+00
CGA:   2    -0.423226413491E+03   -0.50410E+01   -0.50496E+01  9180   0.559E+01 0.530E-01
CGA:   3    -0.424544788866E+03   -0.13184E+01   -0.13176E+01  9180   0.207E+01-0.117E-01
CGA:   4    -0.424906329242E+03   -0.36154E+00   -0.36123E+00  9180   0.446E+00-0.464E-02
CGA:   5    -0.424995395828E+03   -0.89067E-01   -0.89229E-01  9180   0.123E+00 0.190E-02
CGA:   6    -0.425024438702E+03   -0.29043E-01   -0.29130E-01  9180   0.537E-01 0.233E-02
CGA:   7    -0.425040447998E+03   -0.16009E-01   -0.15997E-01  9180   0.279E-01 0.542E-03
CGA:   8    -0.425050068226E+03   -0.96202E-02   -0.96590E-02  9180   0.151E-01-0.548E-03
CGA:   9    -0.425054499933E+03   -0.44317E-02   -0.44309E-02  9180   0.571E-02 0.314E-04
CGA:  10    -0.425056205080E+03   -0.17051E-02   -0.16993E-02  9180   0.192E-02 0.279E-03
CGA:  11    -0.425056865253E+03   -0.66017E-03   -0.65322E-03  9180   0.788E-03 0.149E-03
CGA:  12    -0.425057194725E+03   -0.32947E-03   -0.33500E-03  9180   0.395E-03-0.485E-04
CGA:  13    -0.425057345453E+03   -0.15073E-03   -0.19142E-03  9180   0.280E-03-0.176E-03
CGA:  14    -0.425057385124E+03   -0.39671E-04   -0.39896E-04  9180   0.115E-03 0.563E-05
CGA:  15    -0.425057407205E+03   -0.22081E-04   -0.24040E-04  9180   0.448E-04 0.217E-04
CGA:  16    -0.425057420625E+03   -0.13420E-04   -0.13751E-04  9180   0.242E-04 0.103E-04
CGA:  17    -0.425057426982E+03   -0.63571E-05   -0.69136E-05  9180   0.129E-04 0.970E-05
   6 F= -.42505743E+03 E0= -.42505743E+03  d E =-.424868E+00  mag=    18.0000
       N       E                     dE             d eps       ncg     rms          ort
SDA:   1    -0.416502398586E+03    0.85550E+01    0.00000E+00  9180   0.277E+02 0.000E+00
CGA:   2    -0.422938914486E+03   -0.64365E+01   -0.64470E+01  9180   0.750E+01 0.684E-01
CGA:   3    -0.424663663114E+03   -0.17247E+01   -0.17243E+01  9180   0.271E+01-0.732E-02
CGA:   4    -0.425120175572E+03   -0.45651E+00   -0.45682E+00  9180   0.548E+00 0.428E-05
CGA:   5    -0.425230197878E+03   -0.11002E+00   -0.11012E+00  9180   0.153E+00 0.950E-03
CGA:   6    -0.425266677875E+03   -0.36480E-01   -0.36486E-01  9180   0.669E-01 0.212E-03
CGA:   7    -0.425286737528E+03   -0.20060E-01   -0.20055E-01  9180   0.368E-01 0.116E-03
CGA:   8    -0.425299199565E+03   -0.12462E-01   -0.12432E-01  9180   0.192E-01 0.401E-03
CGA:   9    -0.425305150442E+03   -0.59509E-02   -0.59428E-02  9180   0.721E-02 0.219E-03
CGA:  10    -0.425307384497E+03   -0.22341E-02   -0.22325E-02  9180   0.242E-02 0.431E-04
CGA:  11    -0.425308186252E+03   -0.80175E-03   -0.79877E-03  9180   0.938E-03 0.550E-04
CGA:  12    -0.425308540244E+03   -0.35399E-03   -0.35397E-03  9180   0.402E-03-0.281E-06
CGA:  13    -0.425308694220E+03   -0.15398E-03   -0.15612E-03  9180   0.154E-03-0.204E-04
CGA:  14    -0.425308741622E+03   -0.47402E-04   -0.46879E-04  9180   0.458E-04 0.155E-04
CGA:  15    -0.425308759157E+03   -0.17534E-04   -0.17298E-04  9180   0.184E-04 0.431E-05
CGA:  16    -0.425308769341E+03   -0.10184E-04   -0.12784E-04  9180   0.212E-04-0.764E-05
CGA:  17    -0.425308773343E+03   -0.40023E-05   -0.78888E-05  9180   0.206E-04-0.119E-04
CGA:  18    -0.425308782664E+03   -0.93209E-05   -0.12884E-04  9180   0.166E-04-0.119E-04
   7 F= -.42530878E+03 E0= -.42530878E+03  d E =-.251356E+00  mag=    18.0000
       N       E                     dE             d eps       ncg     rms          ort
SDA:   1    -0.408447277441E+03    0.16861E+02    0.00000E+00  9180   0.496E+02 0.000E+00
CGA:   2    -0.420664928502E+03   -0.12218E+02   -0.12254E+02  9180   0.169E+02 0.837E-01
CGA:   3    -0.424049542835E+03   -0.33846E+01   -0.33851E+01  9180   0.565E+01 0.244E-01
CGA:   4    -0.425036784242E+03   -0.98724E+00   -0.98951E+00  9180   0.106E+01 0.815E-02
CGA:   5    -0.425244949733E+03   -0.20817E+00   -0.20845E+00  9180   0.298E+00 0.148E-02
CGA:   6    -0.425312603536E+03   -0.67654E-01   -0.67612E-01  9180   0.110E+00-0.682E-03
CGA:   7    -0.425345157307E+03   -0.32554E-01   -0.32550E-01  9180   0.584E-01-0.647E-03
CGA:   8    -0.425364416130E+03   -0.19259E-01   -0.19245E-01  9180   0.314E-01 0.433E-03
CGA:   9    -0.425374696158E+03   -0.10280E-01   -0.10274E-01  9180   0.128E-01 0.249E-03
CGA:  10    -0.425378811756E+03   -0.41156E-02   -0.41176E-02  9180   0.468E-02-0.157E-03
CGA:  11    -0.425380349107E+03   -0.15374E-02   -0.15364E-02  9180   0.187E-02 0.343E-04
CGA:  12    -0.425381014280E+03   -0.66517E-03   -0.66055E-03  9180   0.754E-03 0.104E-03
CGA:  13    -0.425381289588E+03   -0.27531E-03   -0.27244E-03  9180   0.259E-03 0.861E-04
CGA:  14    -0.425381380877E+03   -0.91289E-04   -0.91078E-04  9180   0.811E-04 0.448E-04
CGA:  15    -0.425381413286E+03   -0.32409E-04   -0.32047E-04  9180   0.311E-04 0.139E-04
CGA:  16    -0.425381429405E+03   -0.16119E-04   -0.15907E-04  9180   0.186E-04 0.166E-05
CGA:  17    -0.425381418349E+03    0.11056E-04   -0.26727E-04  9180   0.109E-03-0.362E-04
CGA:  18    -0.425381442848E+03   -0.24498E-04   -0.26620E-04  9180   0.118E-04 0.168E-04
CGA:  19    -0.425381446168E+03   -0.33204E-05   -0.37217E-05  9180   0.395E-05 0.445E-05
   8 F= -.42538145E+03 E0= -.42538145E+03  d E =-.726635E-01  mag=    18.0000
       N       E                     dE             d eps       ncg     rms          ort
SDA:   1    -0.424587187556E+03    0.79426E+00    0.00000E+00  9180   0.254E+01 0.000E+00
CGA:   2    -0.425191261138E+03   -0.60407E+00   -0.60398E+00  9180   0.105E+01-0.312E-02
CGA:   3    -0.425387325929E+03   -0.19606E+00   -0.19588E+00  9180   0.322E+00-0.141E-02
CGA:   4    -0.425447711680E+03   -0.60386E-01   -0.60532E-01  9180   0.711E-01 0.875E-03
CGA:   5    -0.425460860788E+03   -0.13149E-01   -0.13256E-01  9180   0.189E-01 0.713E-03
CGA:   6    -0.425465156605E+03   -0.42958E-02   -0.43115E-02  9180   0.664E-02 0.158E-03
CGA:   7    -0.425467049452E+03   -0.18928E-02   -0.18876E-02  9180   0.309E-02-0.140E-03
CGA:   8    -0.425467950210E+03   -0.90076E-03   -0.90107E-03  9180   0.143E-02 0.141E-04
CGA:   9    -0.425468390985E+03   -0.44078E-03   -0.44144E-03  9180   0.580E-03 0.696E-04
CGA:  10    -0.425468594527E+03   -0.20354E-03   -0.20367E-03  9180   0.265E-03-0.683E-05
CGA:  11    -0.425468680860E+03   -0.86332E-04   -0.86160E-04  9180   0.113E-03 0.141E-04
CGA:  12    -0.425468726307E+03   -0.45448E-04   -0.45893E-04  9180   0.556E-04-0.651E-05
CGA:  13    -0.425468748090E+03   -0.21783E-04   -0.23540E-04  9180   0.290E-04-0.137E-04
CGA:  14    -0.425468753821E+03   -0.57303E-05   -0.58748E-05  9180   0.894E-05 0.244E-05
   9 F= -.42546875E+03 E0= -.42546875E+03  d E =-.873077E-01  mag=    18.0000
       N       E                     dE             d eps       ncg     rms          ort
SDA:   1    -0.425083095677E+03    0.38565E+00    0.00000E+00  9180   0.125E+01 0.000E+00
CGA:   2    -0.425363190956E+03   -0.28010E+00   -0.27991E+00  9180   0.488E+00-0.275E-02
CGA:   3    -0.425455177879E+03   -0.91987E-01   -0.91845E-01  9180   0.157E+00-0.114E-02
CGA:   4    -0.425484448847E+03   -0.29271E-01   -0.29377E-01  9180   0.332E-01 0.757E-03
CGA:   5    -0.425490566601E+03   -0.61178E-02   -0.61338E-02  9180   0.854E-02 0.112E-03
CGA:   6    -0.425492617566E+03   -0.20510E-02   -0.20259E-02  9180   0.327E-02-0.375E-03
CGA:   7    -0.425493527834E+03   -0.91027E-03   -0.90791E-03  9180   0.165E-02-0.232E-03
CGA:   8    -0.425493956912E+03   -0.42908E-03   -0.43066E-03  9180   0.707E-03 0.868E-04
CGA:   9    -0.425494179848E+03   -0.22294E-03   -0.22288E-03  9180   0.285E-03 0.736E-04
CGA:  10    -0.425494300244E+03   -0.12040E-03   -0.12680E-03  9180   0.197E-03-0.615E-04
CGA:  11    -0.425494350688E+03   -0.50445E-04   -0.50858E-04  9180   0.897E-04-0.170E-04
CGA:  12    -0.425494371032E+03   -0.20343E-04   -0.20957E-04  9180   0.324E-04 0.123E-04
CGA:  13    -0.425494378377E+03   -0.73453E-05   -0.81266E-05  9180   0.114E-04 0.948E-05
  10 F= -.42549438E+03 E0= -.42549438E+03  d E =-.256246E-01  mag=    18.0000
       N       E                     dE             d eps       ncg     rms          ort
SDA:   1    -0.422951266207E+03    0.25431E+01    0.00000E+00  9180   0.747E+01 0.000E+00
CGA:   2    -0.424621501705E+03   -0.16702E+01   -0.16710E+01  9180   0.371E+01 0.141E-02
CGA:   3    -0.425302455558E+03   -0.68095E+00   -0.68055E+00  9180   0.954E+00-0.357E-02
CGA:   4    -0.425476737764E+03   -0.17428E+00   -0.17433E+00  9180   0.213E+00 0.722E-04
CGA:   5    -0.425514949968E+03   -0.38212E-01   -0.38292E-01  9180   0.485E-01 0.658E-03
CGA:   6    -0.425525757382E+03   -0.10807E-01   -0.10788E-01  9180   0.152E-01-0.389E-03
CGA:   7    -0.425529633895E+03   -0.38765E-02   -0.38685E-02  9180   0.574E-02-0.534E-03
CGA:   8    -0.425531223954E+03   -0.15901E-02   -0.15886E-02  9180   0.242E-02 0.919E-04
CGA:   9    -0.425531969205E+03   -0.74525E-03   -0.74008E-03  9180   0.955E-03 0.175E-03
CGA:  10    -0.425532332391E+03   -0.36319E-03   -0.36860E-03  9180   0.516E-03-0.632E-04
CGA:  11    -0.425532504132E+03   -0.17174E-03   -0.17414E-03  9180   0.250E-03-0.293E-04
CGA:  12    -0.425532583610E+03   -0.79478E-04   -0.78754E-04  9180   0.103E-03 0.135E-04
CGA:  13    -0.425532614843E+03   -0.31233E-04   -0.31174E-04  9180   0.378E-04 0.242E-04
CGA:  14    -0.425532625170E+03   -0.10327E-04   -0.11095E-04  9180   0.137E-04 0.164E-04
CGA:  15    -0.425532629625E+03   -0.44548E-05   -0.47417E-05  9180   0.576E-05 0.703E-05
  11 F= -.42553263E+03 E0= -.42553263E+03  d E =-.382512E-01  mag=    18.0000
       N       E                     dE             d eps       ncg     rms          ort
SDA:   1    -0.420738078054E+03    0.47945E+01    0.00000E+00  9180   0.138E+02 0.000E+00
CGA:   2    -0.423879794631E+03   -0.31417E+01   -0.31446E+01  9180   0.692E+01 0.103E-01
CGA:   3    -0.425140911706E+03   -0.12611E+01   -0.12610E+01  9180   0.175E+01-0.809E-03
CGA:   4    -0.425459237709E+03   -0.31833E+00   -0.31821E+00  9180   0.384E+00-0.954E-03
CGA:   5    -0.425528187830E+03   -0.68950E-01   -0.69078E-01  9180   0.891E-01 0.922E-03
CGA:   6    -0.425547988851E+03   -0.19801E-01   -0.19808E-01  9180   0.277E-01 0.734E-04
CGA:   7    -0.425555057815E+03   -0.70690E-02   -0.70569E-02  9180   0.105E-01-0.476E-03
CGA:   8    -0.425558147595E+03   -0.30898E-02   -0.30884E-02  9180   0.480E-02 0.619E-04
CGA:   9    -0.425559653559E+03   -0.15060E-02   -0.14988E-02  9180   0.197E-02 0.235E-03
CGA:  10    -0.425560344534E+03   -0.69097E-03   -0.69058E-03  9180   0.902E-03 0.539E-05
CGA:  11    -0.425560661548E+03   -0.31701E-03   -0.31721E-03  9180   0.415E-03-0.399E-05
CGA:  12    -0.425560813552E+03   -0.15200E-03   -0.15115E-03  9180   0.189E-03 0.105E-04
CGA:  13    -0.425560872099E+03   -0.58547E-04   -0.58194E-04  9180   0.673E-04 0.430E-04
CGA:  14    -0.425560893015E+03   -0.20916E-04   -0.21644E-04  9180   0.231E-04 0.241E-04
CGA:  15    -0.425560903492E+03   -0.10477E-04   -0.10299E-04  9180   0.983E-05 0.463E-05
CGA:  16    -0.425560907740E+03   -0.42483E-05   -0.41455E-05  9180   0.435E-05 0.175E-05
  12 F= -.42556091E+03 E0= -.42556091E+03  d E =-.282781E-01  mag=    18.0000
       N       E                     dE             d eps       ncg     rms          ort
SDA:   1    -0.416266565299E+03    0.92943E+01    0.00000E+00  9180   0.257E+02 0.000E+00
CGA:   2    -0.422475152898E+03   -0.62086E+01   -0.62143E+01  9180   0.134E+02 0.320E-01
CGA:   3    -0.424845017713E+03   -0.23699E+01   -0.23711E+01  9180   0.315E+01 0.116E-01
CGA:   4    -0.425418266932E+03   -0.57325E+00   -0.57301E+00  9180   0.691E+00-0.122E-02
CGA:   5    -0.425543079097E+03   -0.12481E+00   -0.12497E+00  9180   0.163E+00 0.100E-02
CGA:   6    -0.425579482346E+03   -0.36403E-01   -0.36426E-01  9180   0.511E-01 0.299E-03
CGA:   7    -0.425592368912E+03   -0.12887E-01   -0.12873E-01  9180   0.189E-01-0.562E-03
CGA:   8    -0.425598058029E+03   -0.56891E-02   -0.56888E-02  9180   0.858E-02 0.336E-05
CGA:   9    -0.425600714332E+03   -0.26563E-02   -0.26482E-02  9180   0.333E-02 0.247E-03
CGA:  10    -0.425601839889E+03   -0.11256E-02   -0.11274E-02  9180   0.142E-02-0.383E-04
CGA:  11    -0.425602324260E+03   -0.48437E-03   -0.48503E-03  9180   0.639E-03-0.114E-04
CGA:  12    -0.425602565362E+03   -0.24110E-03   -0.24011E-03  9180   0.314E-03 0.977E-05
CGA:  13    -0.425602673171E+03   -0.10781E-03   -0.10554E-03  9180   0.119E-03 0.525E-04
CGA:  14    -0.425602714419E+03   -0.41248E-04   -0.41109E-04  9180   0.392E-04 0.305E-04
CGA:  15    -0.425602733644E+03   -0.19225E-04   -0.19332E-04  9180   0.182E-04-0.108E-05
CGA:  16    -0.425602738877E+03   -0.52338E-05   -0.52357E-05  9180   0.685E-05 0.422E-05
  13 F= -.42560274E+03 E0= -.42560274E+03  d E =-.418311E-01  mag=    18.0000
       N       E                     dE             d eps       ncg     rms          ort
SDA:   1    -0.421199734361E+03    0.44030E+01    0.00000E+00  9180   0.111E+02 0.000E+00
CGA:   2    -0.424389768882E+03   -0.31900E+01   -0.31902E+01  9180   0.549E+01 0.148E-02
CGA:   3    -0.425289121350E+03   -0.89935E+00   -0.89931E+00  9180   0.122E+01-0.525E-03
CGA:   4    -0.425513109939E+03   -0.22399E+00   -0.22404E+00  9180   0.266E+00 0.471E-03
CGA:   5    -0.425561804750E+03   -0.48695E-01   -0.48803E-01  9180   0.651E-01 0.897E-03
CGA:   6    -0.425576289847E+03   -0.14485E-01   -0.14499E-01  9180   0.195E-01 0.186E-03
CGA:   7    -0.425581244759E+03   -0.49549E-02   -0.49430E-02  9180   0.735E-02-0.389E-03
CGA:   8    -0.425583425538E+03   -0.21808E-02   -0.21825E-02  9180   0.324E-02-0.880E-04
CGA:   9    -0.425584379251E+03   -0.95371E-03   -0.95204E-03  9180   0.115E-02 0.119E-03
CGA:  10    -0.425584759073E+03   -0.37982E-03   -0.37978E-03  9180   0.447E-03 0.649E-06
CGA:  11    -0.425584908600E+03   -0.14953E-03   -0.14915E-03  9180   0.198E-03 0.767E-05
CGA:  12    -0.425584995570E+03   -0.86971E-04   -0.91742E-04  9180   0.140E-03-0.290E-04
CGA:  13    -0.425585043846E+03   -0.48276E-04   -0.49620E-04  9180   0.675E-04-0.115E-04
CGA:  14    -0.425585060808E+03   -0.16962E-04   -0.17197E-04  9180   0.199E-04 0.923E-05
CGA:  15    -0.425585066404E+03   -0.55956E-05   -0.58013E-05  9180   0.643E-05 0.449E-05
  14 F= -.42558507E+03 E0= -.42558507E+03  d E =0.176725E-01  mag=    18.0000
       N       E                     dE             d eps       ncg     rms          ort
SDA:   1    -0.423583532469E+03    0.20015E+01    0.00000E+00  9180   0.549E+01 0.000E+00
CGA:   2    -0.424977712037E+03   -0.13942E+01   -0.13945E+01  9180   0.287E+01 0.365E-02
CGA:   3    -0.425469747399E+03   -0.49204E+00   -0.49267E+00  9180   0.661E+00 0.361E-02
CGA:   4    -0.425591623206E+03   -0.12188E+00   -0.12176E+00  9180   0.148E+00-0.116E-02
CGA:   5    -0.425618500462E+03   -0.26877E-01   -0.26831E-01  9180   0.348E-01-0.496E-03
CGA:   6    -0.425626135244E+03   -0.76348E-02   -0.76549E-02  9180   0.106E-01 0.325E-03
CGA:   7    -0.425628679660E+03   -0.25444E-02   -0.25587E-02  9180   0.360E-02 0.377E-03
CGA:   8    -0.425629797617E+03   -0.11180E-02   -0.11159E-02  9180   0.162E-02 0.855E-04
CGA:   9    -0.425630360584E+03   -0.56297E-03   -0.57046E-03  9180   0.765E-03-0.112E-03
CGA:  10    -0.425630580438E+03   -0.21985E-03   -0.22004E-03  9180   0.296E-03-0.719E-05
CGA:  11    -0.425630665074E+03   -0.84636E-04   -0.84401E-04  9180   0.114E-03 0.369E-04
CGA:  12    -0.425630712694E+03   -0.47620E-04   -0.46983E-04  9180   0.668E-04 0.747E-05
CGA:  13    -0.425630743512E+03   -0.30817E-04   -0.33077E-04  9180   0.467E-04-0.128E-04
CGA:  14    -0.425630756912E+03   -0.13400E-04   -0.13913E-04  9180   0.183E-04-0.701E-05
CGA:  15    -0.425630762621E+03   -0.57086E-05   -0.70566E-05  9180   0.114E-04-0.874E-05
CGA:  16    -0.425630709400E+03    0.53221E-04   -0.28721E-04  9180   0.196E-03-0.392E-04
CGA:  17    -0.425630749800E+03   -0.40400E-04   -0.48097E-04  9180   0.242E-04 0.245E-04
CGA:  18    -0.425630765028E+03   -0.15228E-04   -0.15489E-04  9180   0.185E-04-0.103E-04
CGA:  19    -0.425630764622E+03    0.40614E-06   -0.14369E-05  9180   0.104E-04 0.450E-05
  15 F= -.42563076E+03 E0= -.42563076E+03  d E =-.456982E-01  mag=    18.0000
       N       E                     dE             d eps       ncg     rms          ort
SDA:   1    -0.425424735792E+03    0.20603E+00    0.00000E+00  9180   0.520E+00 0.000E+00
CGA:   2    -0.425592593756E+03   -0.16786E+00   -0.16781E+00  9180   0.212E+00-0.404E-03
CGA:   3    -0.425627316488E+03   -0.34723E-01   -0.34592E-01  9180   0.503E-01-0.439E-03
CGA:   4    -0.425636358064E+03   -0.90416E-02   -0.90544E-02  9180   0.101E-01 0.350E-04
CGA:   5    -0.425638224713E+03   -0.18666E-02   -0.18854E-02  9180   0.258E-02 0.661E-04
CGA:   6    -0.425638778622E+03   -0.55391E-03   -0.55830E-03  9180   0.708E-03 0.181E-04
CGA:   7    -0.425638971908E+03   -0.19329E-03   -0.18728E-03  9180   0.292E-03-0.344E-04
CGA:   8    -0.425639061633E+03   -0.89724E-04   -0.88009E-04  9180   0.141E-03-0.153E-04
CGA:   9    -0.425639097355E+03   -0.35722E-04   -0.37466E-04  9180   0.475E-04 0.121E-04
CGA:  10    -0.425639112618E+03   -0.15263E-04   -0.15601E-04  9180   0.179E-04 0.295E-05
CGA:  11    -0.425639118023E+03   -0.54046E-05   -0.56765E-05  9180   0.754E-05 0.241E-05
  16 F= -.42563912E+03 E0= -.42563912E+03  d E =-.835340E-02  mag=    18.0000
       N       E                     dE             d eps       ncg     rms          ort
SDA:   1    -0.417431481241E+03    0.82076E+01    0.00000E+00  9180   0.199E+02 0.000E+00
CGA:   2    -0.423927673392E+03   -0.64962E+01   -0.64982E+01  9180   0.792E+01-0.925E-03
CGA:   3    -0.425215837962E+03   -0.12882E+01   -0.12892E+01  9180   0.188E+01 0.110E-01
CGA:   4    -0.425557436164E+03   -0.34160E+00   -0.34197E+00  9180   0.381E+00 0.230E-02
CGA:   5    -0.425629448312E+03   -0.72012E-01   -0.72138E-01  9180   0.101E+00 0.603E-03
CGA:   6    -0.425651636984E+03   -0.22189E-01   -0.22192E-01  9180   0.287E-01-0.286E-04
CGA:   7    -0.425659004044E+03   -0.73671E-02   -0.73355E-02  9180   0.113E-01-0.320E-03
CGA:   8    -0.425662508725E+03   -0.35047E-02   -0.34999E-02  9180   0.520E-02-0.123E-03
CGA:   9    -0.425664085318E+03   -0.15766E-02   -0.15794E-02  9180   0.187E-02 0.613E-04
CGA:  10    -0.425664689061E+03   -0.60374E-03   -0.60235E-03  9180   0.664E-03-0.461E-04
CGA:  11    -0.425664904074E+03   -0.21501E-03   -0.21490E-03  9180   0.279E-03-0.765E-05
CGA:  12    -0.425665023258E+03   -0.11918E-03   -0.12209E-03  9180   0.185E-03-0.305E-04
CGA:  13    -0.425665101397E+03   -0.78139E-04   -0.84972E-04  9180   0.122E-03-0.418E-04
CGA:  14    -0.425665126751E+03   -0.25353E-04   -0.26345E-04  9180   0.384E-04 0.122E-04
CGA:  15    -0.425665136926E+03   -0.10175E-04   -0.10689E-04  9180   0.118E-04 0.502E-05
CGA:  16    -0.425665141689E+03   -0.47633E-05   -0.47726E-05  9180   0.544E-05-0.103E-05
  17 F= -.42566514E+03 E0= -.42566514E+03  d E =-.260237E-01  mag=    18.0000
       N       E                     dE             d eps       ncg     rms          ort
SDA:   1    -0.411020010010E+03    0.14645E+02    0.00000E+00  9180   0.348E+02 0.000E+00
CGA:   2    -0.422968325472E+03   -0.11948E+02   -0.11948E+02  9180   0.119E+02 0.138E-01
CGA:   3    -0.424947819316E+03   -0.19795E+01   -0.19820E+01  9180   0.307E+01 0.138E-01
CGA:   4    -0.425493690189E+03   -0.54587E+00   -0.54683E+00  9180   0.595E+00 0.507E-02
CGA:   5    -0.425610061027E+03   -0.11637E+00   -0.11644E+00  9180   0.170E+00 0.331E-03
CGA:   6    -0.425647151026E+03   -0.37090E-01   -0.37041E-01  9180   0.482E-01-0.585E-03
CGA:   7    -0.425659672858E+03   -0.12522E-01   -0.12501E-01  9180   0.197E-01-0.416E-03
CGA:   8    -0.425665715364E+03   -0.60425E-02   -0.60421E-02  9180   0.855E-02-0.264E-03
CGA:   9    -0.425668279878E+03   -0.25645E-02   -0.25643E-02  9180   0.287E-02-0.283E-04
CGA:  10    -0.425669164543E+03   -0.88466E-03   -0.88439E-03  9180   0.898E-03-0.118E-03
CGA:  11    -0.425669461972E+03   -0.29743E-03   -0.30161E-03  9180   0.394E-03-0.107E-03
CGA:  12    -0.425669606072E+03   -0.14410E-03   -0.15127E-03  9180   0.243E-03-0.586E-04
CGA:  13    -0.425669703936E+03   -0.97864E-04   -0.12400E-03  9180   0.216E-03-0.940E-04
CGA:  14    -0.425669740764E+03   -0.36828E-04   -0.37353E-04  9180   0.826E-04 0.994E-05
CGA:  15    -0.425669764480E+03   -0.23716E-04   -0.23495E-04  9180   0.273E-04-0.382E-05
CGA:  16    -0.425669772981E+03   -0.85006E-05   -0.16763E-04  9180   0.423E-04-0.262E-04
  18 F= -.42566977E+03 E0= -.42566977E+03  d E =-.463129E-02  mag=    18.0000
       N       E                     dE             d eps       ncg     rms          ort
SDA:   1    -0.424422525453E+03    0.12472E+01    0.00000E+00  9180   0.320E+01 0.000E+00
CGA:   2    -0.425347607533E+03   -0.92508E+00   -0.92516E+00  9180   0.136E+01 0.273E-03
CGA:   3    -0.425583616729E+03   -0.23601E+00   -0.23604E+00  9180   0.347E+00-0.239E-03
CGA:   4    -0.425647056630E+03   -0.63440E-01   -0.63386E-01  9180   0.751E-01-0.540E-03
CGA:   5    -0.425661497833E+03   -0.14441E-01   -0.14403E-01  9180   0.200E-01-0.333E-03
CGA:   6    -0.425665910452E+03   -0.44126E-02   -0.44016E-02  9180   0.627E-02-0.129E-03
CGA:   7    -0.425667480332E+03   -0.15699E-02   -0.15804E-02  9180   0.237E-02 0.202E-03
CGA:   8    -0.425668196980E+03   -0.71665E-03   -0.71737E-03  9180   0.105E-02 0.724E-04
CGA:   9    -0.425668569758E+03   -0.37278E-03   -0.37668E-03  9180   0.510E-03-0.839E-04
CGA:  10    -0.425668707212E+03   -0.13745E-03   -0.13769E-03  9180   0.188E-03 0.209E-04
CGA:  11    -0.425668784269E+03   -0.77058E-04   -0.82244E-04  9180   0.140E-03-0.447E-04
CGA:  12    -0.425668818374E+03   -0.34105E-04   -0.34031E-04  9180   0.677E-04 0.747E-05
CGA:  13    -0.425668834993E+03   -0.16619E-04   -0.17562E-04  9180   0.250E-04 0.147E-04
CGA:  14    -0.425668844997E+03   -0.10004E-04   -0.10029E-04  9180   0.112E-04-0.108E-05
CGA:  15    -0.425668849202E+03   -0.42046E-05   -0.45659E-05  9180   0.631E-05-0.308E-05
CGA:  16    -0.425668812688E+03    0.36514E-04   -0.19669E-04  9180   0.132E-03-0.273E-04
CGA:  17    -0.425668843864E+03   -0.31176E-04   -0.34948E-04  9180   0.154E-04 0.122E-04
CGA:  18    -0.425668850803E+03   -0.69392E-05   -0.66964E-05  9180   0.848E-05-0.153E-05
  19 F= -.42566885E+03 E0= -.42566885E+03  d E =0.922178E-03  mag=    18.0000
       N       E                     dE             d eps       ncg     rms          ort
SDA:   1    -0.424765767847E+03    0.90308E+00    0.00000E+00  9180   0.217E+01 0.000E+00
CGA:   2    -0.425529531739E+03   -0.76376E+00   -0.76384E+00  9180   0.678E+00 0.533E-03
CGA:   3    -0.425648530571E+03   -0.11900E+00   -0.11921E+00  9180   0.180E+00 0.596E-03
CGA:   4    -0.425680386462E+03   -0.31856E-01   -0.31802E-01  9180   0.354E-01-0.221E-03
CGA:   5    -0.425687380948E+03   -0.69945E-02   -0.69881E-02  9180   0.999E-02-0.294E-04
CGA:   6    -0.425689476565E+03   -0.20956E-02   -0.21092E-02  9180   0.278E-02 0.502E-04
CGA:   7    -0.425690179711E+03   -0.70315E-03   -0.70541E-03  9180   0.106E-02 0.104E-04
CGA:   8    -0.425690498520E+03   -0.31881E-03   -0.31936E-03  9180   0.458E-03 0.355E-05
CGA:   9    -0.425690644340E+03   -0.14582E-03   -0.14407E-03  9180   0.175E-03-0.137E-04
CGA:  10    -0.425690702970E+03   -0.58629E-04   -0.56629E-04  9180   0.675E-04-0.196E-04
CGA:  11    -0.425690716978E+03   -0.14009E-04   -0.15654E-04  9180   0.229E-04 0.968E-05
CGA:  12    -0.425690725152E+03   -0.81737E-05   -0.84218E-05  9180   0.129E-04 0.244E-05
  20 F= -.42569073E+03 E0= -.42569073E+03  d E =-.218743E-01  mag=    18.0000
       N       E                     dE             d eps       ncg     rms          ort
SDA:   1    -0.425626946723E+03    0.63770E-01    0.00000E+00  9180   0.187E+00 0.000E+00
CGA:   2    -0.425672637437E+03   -0.45691E-01   -0.45716E-01  9180   0.876E-01 0.367E-04
CGA:   3    -0.425688485350E+03   -0.15848E-01   -0.15899E-01  9180   0.228E-01 0.193E-03
CGA:   4    -0.425692592013E+03   -0.41067E-02   -0.41073E-02  9180   0.462E-02-0.578E-05
CGA:   5    -0.425693457626E+03   -0.86561E-03   -0.85827E-03  9180   0.117E-02-0.381E-04
CGA:   6    -0.425693726044E+03   -0.26842E-03   -0.26233E-03  9180   0.361E-03-0.407E-04
CGA:   7    -0.425693804462E+03   -0.78418E-04   -0.81462E-04  9180   0.125E-03 0.222E-04
CGA:   8    -0.425693841884E+03   -0.37422E-04   -0.38233E-04  9180   0.564E-04 0.107E-04
CGA:   9    -0.425693867550E+03   -0.25666E-04   -0.38390E-04  9180   0.114E-03-0.476E-04
CGA:  10    -0.425693882159E+03   -0.14609E-04   -0.18733E-04  9180   0.137E-04 0.198E-04
CGA:  11    -0.425693886163E+03   -0.40035E-05   -0.42197E-05  9180   0.506E-05 0.216E-05
  21 F= -.42569389E+03 E0= -.42569389E+03  d E =-.316101E-02  mag=    18.0000
       N       E                     dE             d eps       ncg     rms          ort
SDA:   1    -0.424508503093E+03    0.11854E+01    0.00000E+00  9180   0.324E+01 0.000E+00
CGA:   2    -0.425340991848E+03   -0.83249E+00   -0.83276E+00  9180   0.154E+01-0.554E-04
CGA:   3    -0.425622650957E+03   -0.28166E+00   -0.28139E+00  9180   0.383E+00-0.889E-03
CGA:   4    -0.425689436748E+03   -0.66786E-01   -0.66793E-01  9180   0.720E-01-0.167E-03
CGA:   5    -0.425702952657E+03   -0.13516E-01   -0.13519E-01  9180   0.189E-01-0.121E-04
CGA:   6    -0.425707055102E+03   -0.41024E-02   -0.40763E-02  9180   0.525E-02-0.221E-03
CGA:   7    -0.425708344887E+03   -0.12898E-02   -0.12890E-02  9180   0.198E-02-0.112E-04
CGA:   8    -0.425708949054E+03   -0.60417E-03   -0.60376E-03  9180   0.928E-03-0.195E-04
CGA:   9    -0.425709295485E+03   -0.34643E-03   -0.35411E-03  9180   0.538E-03-0.131E-03
CGA:  10    -0.425709430512E+03   -0.13503E-03   -0.13552E-03  9180   0.192E-03 0.133E-04
CGA:  11    -0.425709491347E+03   -0.60834E-04   -0.60973E-04  9180   0.805E-04 0.779E-05
CGA:  12    -0.425709527750E+03   -0.36403E-04   -0.40366E-04  9180   0.710E-04-0.255E-04
CGA:  13    -0.425709534255E+03   -0.65046E-05   -0.91685E-05  9180   0.381E-04 0.183E-04
  22 F= -.42570953E+03 E0= -.42570953E+03  d E =-.156481E-01  mag=    18.0000
       N       E                     dE             d eps       ncg     rms          ort
SDA:   1    -0.401360514531E+03    0.24349E+02    0.00000E+00  9180   0.633E+02 0.000E+00
CGA:   2    -0.418854337843E+03   -0.17494E+02   -0.17509E+02  9180   0.301E+02 0.125E+00
CGA:   3    -0.424122663662E+03   -0.52683E+01   -0.52700E+01  9180   0.684E+01 0.123E+00
CGA:   4    -0.425338127248E+03   -0.12155E+01   -0.12161E+01  9180   0.137E+01 0.597E-02
CGA:   5    -0.425598142802E+03   -0.26002E+00   -0.26037E+00  9180   0.372E+00 0.141E-02
CGA:   6    -0.425679743039E+03   -0.81600E-01   -0.81621E-01  9180   0.107E+00 0.301E-04
CGA:   7    -0.425706947313E+03   -0.27204E-01   -0.27200E-01  9180   0.416E-01-0.183E-03
CGA:   8    -0.425719686289E+03   -0.12739E-01   -0.12741E-01  9180   0.185E-01-0.158E-03
CGA:   9    -0.425725741951E+03   -0.60557E-02   -0.60749E-02  9180   0.751E-02-0.525E-03
CGA:  10    -0.425728021158E+03   -0.22792E-02   -0.22809E-02  9180   0.268E-02-0.933E-04
CGA:  11    -0.425728904028E+03   -0.88287E-03   -0.88281E-03  9180   0.114E-02 0.104E-06
CGA:  12    -0.425729399738E+03   -0.49571E-03   -0.51924E-03  9180   0.787E-03-0.148E-03
CGA:  13    -0.425729648240E+03   -0.24850E-03   -0.24520E-03  9180   0.324E-03 0.608E-04
CGA:  14    -0.425729771470E+03   -0.12323E-03   -0.12324E-03  9180   0.118E-03-0.625E-06
CGA:  15    -0.425729819503E+03   -0.48033E-04   -0.59856E-04  9180   0.819E-04-0.591E-04
CGA:  16    -0.425729833758E+03   -0.14254E-04   -0.16877E-04  9180   0.122E-04 0.231E-04
CGA:  17    -0.425729835914E+03   -0.21566E-05   -0.12482E-04  9180   0.409E-04-0.212E-04
  23 F= -.42572984E+03 E0= -.42572984E+03  d E =-.203017E-01  mag=    18.0000
       N       E                     dE             d eps       ncg     rms          ort
SDA:   1    -0.424447435200E+03    0.12824E+01    0.00000E+00  9180   0.331E+01 0.000E+00
CGA:   2    -0.425328564754E+03   -0.88113E+00   -0.88137E+00  9180   0.168E+01 0.147E-02
CGA:   3    -0.425619404717E+03   -0.29084E+00   -0.29142E+00  9180   0.388E+00 0.249E-02
CGA:   4    -0.425690829831E+03   -0.71425E-01   -0.71427E-01  9180   0.853E-01 0.219E-03
CGA:   5    -0.425706628082E+03   -0.15798E-01   -0.15832E-01  9180   0.213E-01 0.274E-03
CGA:   6    -0.425711247463E+03   -0.46194E-02   -0.46672E-02  9180   0.635E-02 0.532E-03
CGA:   7    -0.425712809897E+03   -0.15624E-02   -0.15794E-02  9180   0.220E-02 0.278E-03
CGA:   8    -0.425713469289E+03   -0.65939E-03   -0.66089E-03  9180   0.919E-03 0.121E-03
CGA:   9    -0.425713750041E+03   -0.28075E-03   -0.28162E-03  9180   0.350E-03 0.957E-04
CGA:  10    -0.425713863955E+03   -0.11391E-03   -0.11406E-03  9180   0.140E-03 0.426E-04
CGA:  11    -0.425713912838E+03   -0.48883E-04   -0.48647E-04  9180   0.635E-04 0.209E-04
CGA:  12    -0.425713939267E+03   -0.26428E-04   -0.25958E-04  9180   0.350E-04 0.826E-05
CGA:  13    -0.425713756257E+03    0.18301E-03   -0.98910E-04  9180   0.787E-03-0.156E-03
CGA:  14    -0.425713910029E+03   -0.15377E-03   -0.17317E-03  9180   0.882E-04 0.583E-04
CGA:  15    -0.425713950665E+03   -0.40636E-04   -0.39156E-04  9180   0.506E-04-0.122E-04
CGA:  16    -0.425713954661E+03   -0.39963E-05   -0.97288E-05  9180   0.235E-04 0.187E-04
  24 F= -.42571395E+03 E0= -.42571395E+03  d E =0.158813E-01  mag=    18.0000
       N       E                     dE             d eps       ncg     rms          ort
SDA:   1    -0.423097344058E+03    0.26166E+01    0.00000E+00  9180   0.666E+01 0.000E+00
CGA:   2    -0.425068583762E+03   -0.19712E+01   -0.19721E+01  9180   0.296E+01 0.522E-03
CGA:   3    -0.425578280024E+03   -0.50970E+00   -0.51033E+00  9180   0.708E+00 0.543E-02
CGA:   4    -0.425702317764E+03   -0.12404E+00   -0.12388E+00  9180   0.136E+00-0.403E-03
CGA:   5    -0.425728618738E+03   -0.26301E-01   -0.26227E-01  9180   0.373E-01-0.323E-03
CGA:   6    -0.425736412439E+03   -0.77937E-02   -0.78361E-02  9180   0.101E-01 0.162E-03
CGA:   7    -0.425738976147E+03   -0.25637E-02   -0.25734E-02  9180   0.387E-02 0.509E-04
CGA:   8    -0.425740173874E+03   -0.11977E-02   -0.11945E-02  9180   0.180E-02-0.284E-04
CGA:   9    -0.425740760578E+03   -0.58670E-03   -0.58740E-03  9180   0.752E-03 0.725E-05
CGA:  10    -0.425741036428E+03   -0.27585E-03   -0.27103E-03  9180   0.358E-03-0.866E-04
CGA:  11    -0.425741134924E+03   -0.98496E-04   -0.99497E-04  9180   0.142E-03 0.101E-04
CGA:  12    -0.425741180520E+03   -0.45597E-04   -0.47359E-04  9180   0.650E-04 0.210E-04
CGA:  13    -0.425741215631E+03   -0.35111E-04   -0.36311E-04  9180   0.517E-04-0.144E-04
CGA:  14    -0.425741223578E+03   -0.79469E-05   -0.95922E-05  9180   0.218E-04 0.971E-05
  25 F= -.42574122E+03 E0= -.42574122E+03  d E =-.272689E-01  mag=    18.0000
       N       E                     dE             d eps       ncg     rms          ort
SDA:   1    -0.425393136241E+03    0.34808E+00    0.00000E+00  9180   0.911E+00 0.000E+00
CGA:   2    -0.425627439434E+03   -0.23430E+00   -0.23436E+00  9180   0.487E+00 0.798E-04
CGA:   3    -0.425712946933E+03   -0.85507E-01   -0.85734E-01  9180   0.106E+00 0.848E-03
CGA:   4    -0.425731818056E+03   -0.18871E-01   -0.18902E-01  9180   0.221E-01 0.157E-03
CGA:   5    -0.425735897718E+03   -0.40797E-02   -0.41027E-02  9180   0.547E-02 0.127E-03
CGA:   6    -0.425737021021E+03   -0.11233E-02   -0.11529E-02  9180   0.146E-02 0.205E-03
CGA:   7    -0.425737373114E+03   -0.35209E-03   -0.35758E-03  9180   0.483E-03 0.494E-04
CGA:   8    -0.425737514310E+03   -0.14120E-03   -0.14239E-03  9180   0.196E-03 0.215E-04
CGA:   9    -0.425737559678E+03   -0.45368E-04   -0.49885E-04  9180   0.650E-04 0.480E-04
CGA:  10    -0.425737577105E+03   -0.17427E-04   -0.19493E-04  9180   0.254E-04 0.224E-04
CGA:  11    -0.425737586706E+03   -0.96005E-05   -0.98737E-05  9180   0.124E-04 0.685E-05
  26 F= -.42573759E+03 E0= -.42573759E+03  d E =0.363687E-02  mag=    18.0000
       N       E                     dE             d eps       ncg     rms          ort
SDA:   1    -0.425687975661E+03    0.49601E-01    0.00000E+00  9180   0.139E+00 0.000E+00
CGA:   2    -0.425727000980E+03   -0.39025E-01   -0.39045E-01  9180   0.534E-01 0.462E-03
CGA:   3    -0.425737260302E+03   -0.10259E-01   -0.10261E-01  9180   0.154E-01-0.791E-05
CGA:   4    -0.425739964081E+03   -0.27038E-02   -0.26679E-02  9180   0.292E-02-0.264E-03
CGA:   5    -0.425740516648E+03   -0.55257E-03   -0.55707E-03  9180   0.778E-03 0.401E-04
CGA:   6    -0.425740654309E+03   -0.13766E-03   -0.14905E-03  9180   0.200E-03 0.103E-03
CGA:   7    -0.425740708135E+03   -0.53827E-04   -0.55410E-04  9180   0.830E-04 0.321E-04
CGA:   8    -0.425740743158E+03   -0.35023E-04   -0.36898E-04  9180   0.713E-04-0.205E-04
CGA:   9    -0.425740755558E+03   -0.12400E-04   -0.12560E-04  9180   0.323E-04 0.254E-05
CGA:  10    -0.425740761142E+03   -0.55836E-05   -0.62703E-05  9180   0.138E-04 0.651E-05
  27 F= -.42574076E+03 E0= -.42574076E+03  d E =-.317444E-02  mag=    18.0000
       N       E                     dE             d eps       ncg     rms          ort
SDA:   1    -0.425577034421E+03    0.16372E+00    0.00000E+00  9180   0.435E+00 0.000E+00
CGA:   2    -0.425704404464E+03   -0.12737E+00   -0.12737E+00  9180   0.153E+00 0.173E-03
CGA:   3    -0.425736002057E+03   -0.31598E-01   -0.31575E-01  9180   0.408E-01-0.324E-03
CGA:   4    -0.425742411524E+03   -0.64095E-02   -0.64137E-02  9180   0.744E-02 0.172E-04
CGA:   5    -0.425743920883E+03   -0.15094E-02   -0.15157E-02  9180   0.197E-02 0.871E-04
CGA:   6    -0.425744330600E+03   -0.40972E-03   -0.41186E-03  9180   0.588E-03 0.326E-04
CGA:   7    -0.425744489179E+03   -0.15858E-03   -0.15865E-03  9180   0.250E-03 0.297E-04
CGA:   8    -0.425744580974E+03   -0.91794E-04   -0.92977E-04  9180   0.167E-03-0.138E-04
CGA:   9    -0.425744636440E+03   -0.55466E-04   -0.56598E-04  9180   0.815E-04-0.131E-04
CGA:  10    -0.425744651165E+03   -0.14725E-04   -0.16044E-04  9180   0.268E-04 0.209E-04
CGA:  11    -0.425744657717E+03   -0.65517E-05   -0.71397E-05  9180   0.114E-04 0.952E-05
  28 F= -.42574466E+03 E0= -.42574466E+03  d E =-.389658E-02  mag=    18.0000
       N       E                     dE             d eps       ncg     rms          ort
SDA:   1    -0.412625827080E+03    0.13119E+02    0.00000E+00  9180   0.344E+02 0.000E+00
CGA:   2    -0.422485804031E+03   -0.98600E+01   -0.98598E+01  9180   0.127E+02 0.368E-01
CGA:   3    -0.424960373807E+03   -0.24746E+01   -0.24747E+01  9180   0.353E+01 0.394E-02
CGA:   4    -0.425537242676E+03   -0.57687E+00   -0.57703E+00  9180   0.624E+00-0.509E-03
CGA:   5    -0.425664062458E+03   -0.12682E+00   -0.12688E+00  9180   0.175E+00 0.657E-03
CGA:   6    -0.425701319314E+03   -0.37257E-01   -0.37325E-01  9180   0.523E-01 0.109E-02
CGA:   7    -0.425715900798E+03   -0.14581E-01   -0.14577E-01  9180   0.233E-01 0.473E-03
CGA:   8    -0.425723580777E+03   -0.76800E-02   -0.76942E-02  9180   0.126E-01-0.254E-03
CGA:   9    -0.425727782542E+03   -0.42018E-02   -0.42079E-02  9180   0.538E-02-0.100E-03
CGA:  10    -0.425729446725E+03   -0.16642E-02   -0.16612E-02  9180   0.202E-02 0.778E-04
CGA:  11    -0.425730174355E+03   -0.72763E-03   -0.73005E-03  9180   0.965E-03-0.317E-04
CGA:  12    -0.425730559882E+03   -0.38553E-03   -0.38763E-03  9180   0.507E-03-0.176E-04
CGA:  13    -0.425730771422E+03   -0.21154E-03   -0.22596E-03  9180   0.252E-03-0.870E-04
CGA:  14    -0.425730834391E+03   -0.62970E-04   -0.62893E-04  9180   0.671E-04 0.133E-04
CGA:  15    -0.425730855767E+03   -0.21376E-04   -0.21372E-04  9180   0.203E-04 0.573E-06
CGA:  16    -0.425730864294E+03   -0.85267E-05   -0.94212E-05  9180   0.120E-04-0.544E-05
  29 F= -.42573086E+03 E0= -.42573086E+03  d E =0.137934E-01  mag=    18.0000
       N       E                     dE             d eps       ncg     rms          ort
SDA:   1    -0.424376915098E+03    0.13539E+01    0.00000E+00  9180   0.351E+01 0.000E+00
CGA:   2    -0.425338414748E+03   -0.96150E+00   -0.96157E+00  9180   0.174E+01 0.176E-02
CGA:   3    -0.425634952148E+03   -0.29654E+00   -0.29687E+00  9180   0.399E+00 0.213E-02
CGA:   4    -0.425709464050E+03   -0.74512E-01   -0.74444E-01  9180   0.925E-01-0.702E-03
CGA:   5    -0.425726748535E+03   -0.17284E-01   -0.17294E-01  9180   0.228E-01 0.815E-04
CGA:   6    -0.425731609321E+03   -0.48608E-02   -0.49070E-02  9180   0.673E-02 0.705E-03
CGA:   7    -0.425733316968E+03   -0.17076E-02   -0.17166E-02  9180   0.236E-02 0.308E-03
CGA:   8    -0.425734047218E+03   -0.73025E-03   -0.73026E-03  9180   0.102E-02-0.911E-06
CGA:   9    -0.425734346469E+03   -0.29925E-03   -0.29848E-03  9180   0.365E-03 0.461E-04
CGA:  10    -0.425734459030E+03   -0.11256E-03   -0.11216E-03  9180   0.133E-03 0.236E-04
CGA:  11    -0.425734505463E+03   -0.46433E-04   -0.45983E-04  9180   0.595E-04 0.964E-05
CGA:  12    -0.425734523644E+03   -0.18181E-04   -0.18112E-04  9180   0.275E-04 0.181E-04
CGA:  13    -0.425734539594E+03   -0.15950E-04   -0.21921E-04  9180   0.465E-04-0.181E-04
CGA:  14    -0.425734551765E+03   -0.12171E-04   -0.12067E-04  9180   0.626E-05-0.280E-05
CGA:  15    -0.425734553454E+03   -0.16891E-05   -0.16953E-05  9180   0.178E-05 0.931E-06
  30 F= -.42573455E+03 E0= -.42573455E+03  d E =-.368916E-02  mag=    18.0000
       N       E                     dE             d eps       ncg     rms          ort
SDA:   1    -0.422241768993E+03    0.34928E+01    0.00000E+00  9180   0.921E+01 0.000E+00
CGA:   2    -0.424821005550E+03   -0.25792E+01   -0.25794E+01  9180   0.384E+01 0.665E-03
CGA:   3    -0.425519910064E+03   -0.69890E+00   -0.69918E+00  9180   0.105E+01-0.653E-03
CGA:   4    -0.425698906148E+03   -0.17900E+00   -0.17919E+00  9180   0.187E+00 0.889E-03
CGA:   5    -0.425735278072E+03   -0.36372E-01   -0.36343E-01  9180   0.508E-01-0.360E-03
CGA:   6    -0.425746457901E+03   -0.11180E-01   -0.11128E-01  9180   0.150E-01-0.804E-03
CGA:   7    -0.425750453442E+03   -0.39955E-02   -0.39921E-02  9180   0.648E-02-0.323E-03
CGA:   8    -0.425752399334E+03   -0.19459E-02   -0.19442E-02  9180   0.312E-02 0.659E-04
CGA:   9    -0.425753495494E+03   -0.10962E-02   -0.10979E-02  9180   0.144E-02-0.290E-04
CGA:  10    -0.425754000241E+03   -0.50475E-03   -0.51788E-03  9180   0.700E-03-0.173E-03
CGA:  11    -0.425754215825E+03   -0.21558E-03   -0.21835E-03  9180   0.309E-03-0.433E-04
CGA:  12    -0.425754320266E+03   -0.10444E-03   -0.10394E-03  9180   0.132E-03 0.732E-05
CGA:  13    -0.425754354704E+03   -0.34437E-04   -0.35744E-04  9180   0.449E-04 0.418E-04
CGA:  14    -0.425754366268E+03   -0.11564E-04   -0.13139E-04  9180   0.157E-04 0.217E-04
CGA:  15    -0.425754371858E+03   -0.55897E-05   -0.58926E-05  9180   0.682E-05 0.779E-05
  31 F= -.42575437E+03 E0= -.42575437E+03  d E =-.198184E-01  mag=    18.0000
       N       E                     dE             d eps       ncg     rms          ort
SDA:   1    -0.424879430081E+03    0.87494E+00    0.00000E+00  9180   0.222E+01 0.000E+00
CGA:   2    -0.425537816850E+03   -0.65839E+00   -0.65836E+00  9180   0.843E+00 0.133E-02
CGA:   3    -0.425695989588E+03   -0.15817E+00   -0.15838E+00  9180   0.223E+00 0.174E-02
CGA:   4    -0.425733516665E+03   -0.37527E-01   -0.37517E-01  9180   0.407E-01-0.154E-03
CGA:   5    -0.425741710354E+03   -0.81937E-02   -0.81664E-02  9180   0.112E-01-0.374E-03
CGA:   6    -0.425744058701E+03   -0.23483E-02   -0.23404E-02  9180   0.321E-02-0.132E-03
CGA:   7    -0.425744907144E+03   -0.84844E-03   -0.84838E-03  9180   0.134E-02-0.489E-04
CGA:   8    -0.425745294859E+03   -0.38771E-03   -0.38625E-03  9180   0.612E-03 0.601E-04
CGA:   9    -0.425745502022E+03   -0.20716E-03   -0.20465E-03  9180   0.252E-03 0.505E-04
CGA:  10    -0.425745609369E+03   -0.10735E-03   -0.12300E-03  9180   0.214E-03-0.885E-04
CGA:  11    -0.425745651121E+03   -0.41752E-04   -0.42097E-04  9180   0.102E-03-0.166E-04
CGA:  12    -0.425745670610E+03   -0.19489E-04   -0.20699E-04  9180   0.443E-04 0.193E-04
CGA:  13    -0.425745681295E+03   -0.10685E-04   -0.11532E-04  9180   0.197E-04 0.139E-04
CGA:  14    -0.425745686987E+03   -0.56927E-05   -0.60080E-05  9180   0.912E-05 0.717E-05
  32 F= -.42574569E+03 E0= -.42574569E+03  d E =0.868487E-02  mag=    18.0000
       N       E                     dE             d eps       ncg     rms          ort
SDA:   1    -0.425487686701E+03    0.25799E+00    0.00000E+00  9180   0.675E+00 0.000E+00
CGA:   2    -0.425691076825E+03   -0.20339E+00   -0.20339E+00  9180   0.239E+00-0.259E-03
CGA:   3    -0.425737884417E+03   -0.46808E-01   -0.46763E-01  9180   0.664E-01-0.653E-03
CGA:   4    -0.425748739405E+03   -0.10855E-01   -0.10854E-01  9180   0.122E-01-0.292E-04
CGA:   5    -0.425751136345E+03   -0.23969E-02   -0.24152E-02  9180   0.318E-02 0.282E-03
CGA:   6    -0.425751778693E+03   -0.64235E-03   -0.65393E-03  9180   0.899E-03 0.196E-03
CGA:   7    -0.425752028941E+03   -0.25025E-03   -0.24990E-03  9180   0.371E-03 0.671E-04
CGA:   8    -0.425752168559E+03   -0.13962E-03   -0.14424E-03  9180   0.256E-03-0.440E-04
CGA:   9    -0.425752236143E+03   -0.67583E-04   -0.67446E-04  9180   0.103E-03 0.367E-05
CGA:  10    -0.425752255413E+03   -0.19271E-04   -0.21206E-04  9180   0.377E-04 0.318E-04
CGA:  11    -0.425752264730E+03   -0.93167E-05   -0.10189E-04  9180   0.174E-04 0.160E-04
CGA:  12    -0.425752274363E+03   -0.96334E-05   -0.10368E-04  9180   0.171E-04-0.462E-05
CGA:  13    -0.425752268039E+03    0.63243E-05   -0.10127E-04  9180   0.504E-04-0.305E-04
CGA:  14    -0.425752287123E+03   -0.19084E-04   -0.20165E-04  9180   0.206E-04-0.101E-04
CGA:  15    -0.425752289322E+03   -0.21990E-05   -0.30262E-05  9180   0.598E-05 0.718E-05
  33 F= -.42575229E+03 E0= -.42575229E+03  d E =-.660234E-02  mag=    18.0000
       N       E                     dE             d eps       ncg     rms          ort
SDA:   1    -0.425718508433E+03    0.33779E-01    0.00000E+00  9180   0.923E-01 0.000E+00
CGA:   2    -0.425743451300E+03   -0.24943E-01   -0.24949E-01  9180   0.429E-01 0.323E-03
CGA:   3    -0.425751084048E+03   -0.76327E-02   -0.76318E-02  9180   0.107E-01-0.210E-04
CGA:   4    -0.425752981138E+03   -0.18971E-02   -0.18872E-02  9180   0.207E-02-0.983E-04
CGA:   5    -0.425753361080E+03   -0.37994E-03   -0.38029E-03  9180   0.521E-03 0.339E-05
CGA:   6    -0.425753468310E+03   -0.10723E-03   -0.10856E-03  9180   0.136E-03 0.210E-04
CGA:   7    -0.425753498962E+03   -0.30652E-04   -0.31559E-04  9180   0.454E-04 0.200E-04
CGA:   8    -0.425753515450E+03   -0.16487E-04   -0.16395E-04  9180   0.253E-04 0.184E-05
CGA:   9    -0.425753525746E+03   -0.10296E-04   -0.12091E-04  9180   0.239E-04-0.941E-05
CGA:  10    -0.425753526861E+03   -0.11156E-05   -0.19632E-05  9180   0.126E-04 0.578E-05
  34 F= -.42575353E+03 E0= -.42575353E+03  d E =-.123754E-02  mag=    18.0000
       N       E                     dE             d eps       ncg     rms          ort
SDA:   1    -0.421099644574E+03    0.46539E+01    0.00000E+00  9180   0.125E+02 0.000E+00
CGA:   2    -0.424134278911E+03   -0.30346E+01   -0.30354E+01  9180   0.693E+01 0.224E-01
CGA:   3    -0.425379020898E+03   -0.12447E+01   -0.12458E+01  9180   0.150E+01 0.116E-01
CGA:   4    -0.425643087857E+03   -0.26407E+00   -0.26398E+00  9180   0.327E+00-0.675E-03
CGA:   5    -0.425704307081E+03   -0.61219E-01   -0.61198E-01  9180   0.789E-01-0.510E-03
CGA:   6    -0.425721353704E+03   -0.17047E-01   -0.17064E-01  9180   0.225E-01 0.499E-03
CGA:   7    -0.425726757071E+03   -0.54034E-02   -0.54086E-02  9180   0.742E-02 0.586E-03
CGA:   8    -0.425728933690E+03   -0.21766E-02   -0.21634E-02  9180   0.309E-02 0.358E-03
CGA:   9    -0.425729970948E+03   -0.10373E-02   -0.10304E-02  9180   0.135E-02 0.985E-04
CGA:  10    -0.425730415471E+03   -0.44452E-03   -0.44186E-03  9180   0.550E-03 0.403E-04
CGA:  11    -0.425730612065E+03   -0.19659E-03   -0.19657E-03  9180   0.244E-03-0.348E-06
CGA:  12    -0.425730709809E+03   -0.97745E-04   -0.10184E-03  9180   0.142E-03-0.265E-04
CGA:  13    -0.425730752697E+03   -0.42888E-04   -0.41976E-04  9180   0.563E-04 0.143E-04
CGA:  14    -0.425730777112E+03   -0.24415E-04   -0.26093E-04  9180   0.296E-04-0.113E-04
CGA:  15    -0.425730655703E+03    0.12141E-03   -0.65447E-04  9180   0.475E-03-0.109E-03
CGA:  16    -0.425730763159E+03   -0.10746E-03   -0.11731E-03  9180   0.537E-04 0.376E-04
CGA:  17    -0.425730792267E+03   -0.29108E-04   -0.29165E-04  9180   0.259E-04-0.806E-05
CGA:  18    -0.425730793228E+03   -0.96111E-06   -0.42227E-05  9180   0.117E-04 0.107E-04
  35 F= -.42573079E+03 E0= -.42573079E+03  d E =0.227336E-01  mag=    18.0000
       N       E                     dE             d eps       ncg     rms          ort
SDA:   1    -0.418250797593E+03    0.74800E+01    0.00000E+00  9180   0.187E+02 0.000E+00
CGA:   2    -0.423709642411E+03   -0.54588E+01   -0.54621E+01  9180   0.910E+01 0.278E-02
CGA:   3    -0.425245270964E+03   -0.15356E+01   -0.15395E+01  9180   0.194E+01 0.297E-01
CGA:   4    -0.425589642396E+03   -0.34437E+00   -0.34428E+00  9180   0.398E+00 0.121E-02
CGA:   5    -0.425666502063E+03   -0.76860E-01   -0.76753E-01  9180   0.105E+00-0.526E-03
CGA:   6    -0.425688796509E+03   -0.22294E-01   -0.22363E-01  9180   0.283E-01 0.287E-03
CGA:   7    -0.425695863959E+03   -0.70674E-02   -0.71133E-02  9180   0.105E-01 0.281E-03
CGA:   8    -0.425698968898E+03   -0.31049E-02   -0.31275E-02  9180   0.453E-02 0.214E-03
CGA:   9    -0.425700451343E+03   -0.14824E-02   -0.14899E-02  9180   0.187E-02 0.101E-03
CGA:  10    -0.425701086735E+03   -0.63539E-03   -0.63112E-03  9180   0.760E-03-0.708E-04
CGA:  11    -0.425701340415E+03   -0.25368E-03   -0.25299E-03  9180   0.330E-03-0.168E-04
CGA:  12    -0.425701461114E+03   -0.12070E-03   -0.12088E-03  9180   0.163E-03 0.165E-04
CGA:  13    -0.425701541353E+03   -0.80239E-04   -0.82516E-04  9180   0.106E-03-0.237E-04
CGA:  14    -0.425701571516E+03   -0.30163E-04   -0.30358E-04  9180   0.348E-04 0.343E-05
CGA:  15    -0.425701586090E+03   -0.14574E-04   -0.14867E-04  9180   0.160E-04-0.112E-04
CGA:  16    -0.425701590401E+03   -0.43110E-05   -0.43505E-05  9180   0.692E-05-0.323E-05
  36 F= -.42570159E+03 E0= -.42570159E+03  d E =0.292028E-01  mag=    18.0000
       N       E                     dE             d eps       ncg     rms          ort
SDA:   1    -0.418001562739E+03    0.77000E+01    0.00000E+00  9180   0.201E+02 0.000E+00
CGA:   2    -0.423316196519E+03   -0.53146E+01   -0.53190E+01  9180   0.111E+02 0.214E-02
CGA:   3    -0.425214459305E+03   -0.18983E+01   -0.18991E+01  9180   0.225E+01 0.160E-01
CGA:   4    -0.425611986448E+03   -0.39753E+00   -0.39742E+00  9180   0.489E+00 0.871E-03
CGA:   5    -0.425703779084E+03   -0.91793E-01   -0.92007E-01  9180   0.121E+00 0.103E-02
CGA:   6    -0.425729927423E+03   -0.26148E-01   -0.26168E-01  9180   0.338E-01 0.895E-04
CGA:   7    -0.425738393831E+03   -0.84664E-02   -0.84252E-02  9180   0.121E-01-0.456E-03
CGA:   8    -0.425742001098E+03   -0.36073E-02   -0.35995E-02  9180   0.534E-02-0.224E-03
CGA:   9    -0.425743686088E+03   -0.16850E-02   -0.16833E-02  9180   0.220E-02-0.121E-03
CGA:  10    -0.425744371718E+03   -0.68563E-03   -0.68479E-03  9180   0.836E-03-0.542E-04
CGA:  11    -0.425744628437E+03   -0.25672E-03   -0.25749E-03  9180   0.318E-03 0.429E-04
CGA:  12    -0.425744772834E+03   -0.14440E-03   -0.14955E-03  9180   0.221E-03-0.456E-04
CGA:  13    -0.425744842399E+03   -0.69565E-04   -0.69344E-04  9180   0.101E-03 0.790E-05
CGA:  14    -0.425744872530E+03   -0.30131E-04   -0.30767E-04  9180   0.322E-04 0.143E-04
CGA:  15    -0.425744886905E+03   -0.14375E-04   -0.14932E-04  9180   0.152E-04-0.810E-05
CGA:  16    -0.425744889334E+03   -0.24298E-05   -0.27164E-05  9180   0.624E-05 0.280E-05
  37 F= -.42574489E+03 E0= -.42574489E+03  d E =-.432989E-01  mag=    18.0000
       N       E                     dE             d eps       ncg     rms          ort
SDA:   1    -0.420098415854E+03    0.56465E+01    0.00000E+00  9180   0.140E+02 0.000E+00
CGA:   2    -0.424308453628E+03   -0.42100E+01   -0.42104E+01  9180   0.608E+01 0.172E-02
CGA:   3    -0.425368314580E+03   -0.10599E+01   -0.10591E+01  9180   0.144E+01-0.183E-02
CGA:   4    -0.425618129099E+03   -0.24981E+00   -0.24991E+00  9180   0.283E+00 0.728E-04
CGA:   5    -0.425673586462E+03   -0.55457E-01   -0.55529E-01  9180   0.779E-01 0.510E-03
CGA:   6    -0.425690117040E+03   -0.16531E-01   -0.16520E-01  9180   0.215E-01-0.125E-03
CGA:   7    -0.425695705789E+03   -0.55887E-02   -0.55815E-02  9180   0.859E-02-0.157E-03
CGA:   8    -0.425698296336E+03   -0.25905E-02   -0.25903E-02  9180   0.392E-02-0.156E-03
CGA:   9    -0.425699590743E+03   -0.12944E-02   -0.13000E-02  9180   0.172E-02-0.174E-03
CGA:  10    -0.425700094846E+03   -0.50410E-03   -0.50412E-03  9180   0.622E-03 0.197E-04
CGA:  11    -0.425700310429E+03   -0.21558E-03   -0.21529E-03  9180   0.284E-03 0.803E-05
CGA:  12    -0.425700439114E+03   -0.12868E-03   -0.13591E-03  9180   0.210E-03-0.446E-04
CGA:  13    -0.425700495924E+03   -0.56810E-04   -0.56721E-04  9180   0.826E-04 0.242E-04
CGA:  14    -0.425700525972E+03   -0.30048E-04   -0.30057E-04  9180   0.296E-04-0.107E-05
CGA:  15    -0.425700537726E+03   -0.11754E-04   -0.14459E-04  9180   0.208E-04-0.152E-04
CGA:  16    -0.425700539531E+03   -0.18053E-05   -0.33467E-05  9180   0.491E-05 0.929E-05
  38 F= -.42570054E+03 E0= -.42570054E+03  d E =0.443498E-01  mag=    18.0000
       N       E                     dE             d eps       ncg     rms          ort
SDA:   1    -0.421654025647E+03    0.40465E+01    0.00000E+00  9180   0.103E+02 0.000E+00
CGA:   2    -0.424656263780E+03   -0.30022E+01   -0.30024E+01  9180   0.500E+01 0.215E-02
CGA:   3    -0.425496420512E+03   -0.84016E+00   -0.84146E+00  9180   0.109E+01 0.631E-02
CGA:   4    -0.425689486665E+03   -0.19307E+00   -0.19309E+00  9180   0.225E+00 0.148E-04
CGA:   5    -0.425732725378E+03   -0.43239E-01   -0.43199E-01  9180   0.595E-01-0.430E-03
CGA:   6    -0.425745284741E+03   -0.12559E-01   -0.12588E-01  9180   0.161E-01 0.336E-03
CGA:   7    -0.425749278215E+03   -0.39935E-02   -0.40062E-02  9180   0.590E-02 0.316E-03
CGA:   8    -0.425751035934E+03   -0.17577E-02   -0.17564E-02  9180   0.252E-02 0.207E-03
CGA:   9    -0.425751865801E+03   -0.82987E-03   -0.82641E-03  9180   0.104E-02 0.109E-03
CGA:  10    -0.425752229387E+03   -0.36359E-03   -0.36546E-03  9180   0.448E-03-0.393E-04
CGA:  11    -0.425752381903E+03   -0.15252E-03   -0.15398E-03  9180   0.208E-03-0.221E-04
CGA:  12    -0.425752452854E+03   -0.70951E-04   -0.69931E-04  9180   0.951E-04 0.166E-04
CGA:  13    -0.425752500321E+03   -0.47467E-04   -0.53322E-04  9180   0.772E-04-0.264E-04
CGA:  14    -0.425752517333E+03   -0.17013E-04   -0.17016E-04  9180   0.303E-04 0.126E-05
CGA:  15    -0.425752527274E+03   -0.99406E-05   -0.10073E-04  9180   0.118E-04-0.658E-05
CGA:  16    -0.425752455128E+03    0.72146E-04   -0.38865E-04  9180   0.278E-03-0.549E-04
CGA:  17    -0.425752512273E+03   -0.57145E-04   -0.69242E-04  9180   0.292E-04 0.386E-04
CGA:  18    -0.425752462464E+03    0.49809E-04   -0.52053E-04  9180   0.328E-03-0.998E-04
CGA:  19    -0.425752479473E+03   -0.17010E-04   -0.65228E-04  9180   0.722E-04 0.121E-03
CGA:  20    -0.425752518873E+03   -0.39400E-04   -0.35344E-04  9180   0.136E-04-0.185E-04
CGA:  21    -0.425752558111E+03   -0.39238E-04    0.11777E-05  9180   0.184E-04-0.104E-04
CGA:  22    -0.425752551665E+03    0.64454E-05   -0.90625E-06  9180   0.107E-04 0.142E-04
  39 F= -.42575255E+03 E0= -.42575255E+03  d E =-.520121E-01  mag=    18.0000
       N       E                     dE             d eps       ncg     rms          ort
SDA:   1    -0.425611356022E+03    0.14120E+00    0.00000E+00  9180   0.342E+00 0.000E+00
CGA:   2    -0.425717137419E+03   -0.10578E+00   -0.10584E+00  9180   0.148E+00 0.189E-03
CGA:   3    -0.425742085724E+03   -0.24948E-01   -0.25159E-01  9180   0.331E-01 0.575E-03
CGA:   4    -0.425747948883E+03   -0.58632E-02   -0.58440E-02  9180   0.653E-02-0.717E-04
CGA:   5    -0.425749245981E+03   -0.12971E-02   -0.12841E-02  9180   0.174E-02-0.486E-04
CGA:   6    -0.425749586668E+03   -0.34069E-03   -0.35151E-03  9180   0.434E-03 0.417E-04
CGA:   7    -0.425749694228E+03   -0.10756E-03   -0.11052E-03  9180   0.158E-03 0.148E-04
CGA:   8    -0.425749738216E+03   -0.43988E-04   -0.46112E-04  9180   0.664E-04 0.137E-04
CGA:   9    -0.425749754304E+03   -0.16088E-04   -0.18980E-04  9180   0.244E-04 0.174E-04
CGA:  10    -0.425749765956E+03   -0.11652E-04   -0.11532E-04  9180   0.157E-04-0.265E-05
CGA:  11    -0.425749772264E+03   -0.63082E-05   -0.72224E-05  9180   0.165E-04-0.945E-05
  40 F= -.42574977E+03 E0= -.42574977E+03  d E =0.277940E-02  mag=    18.0000
       N       E                     dE             d eps       ncg     rms          ort
SDA:   1    -0.425450341661E+03    0.29942E+00    0.00000E+00  9180   0.716E+00 0.000E+00
CGA:   2    -0.425682907162E+03   -0.23257E+00   -0.23259E+00  9180   0.299E+00 0.155E-03
CGA:   3    -0.425732169366E+03   -0.49262E-01   -0.49454E-01  9180   0.650E-01 0.679E-03
CGA:   4    -0.425743729134E+03   -0.11560E-01   -0.11564E-01  9180   0.131E-01 0.645E-05
CGA:   5    -0.425746278156E+03   -0.25490E-02   -0.25468E-02  9180   0.345E-02-0.147E-04
CGA:   6    -0.425746990868E+03   -0.71271E-03   -0.71700E-03  9180   0.880E-03 0.251E-04
CGA:   7    -0.425747216690E+03   -0.22582E-03   -0.22446E-03  9180   0.332E-03-0.124E-04
CGA:   8    -0.425747302671E+03   -0.85981E-04   -0.88702E-04  9180   0.131E-03 0.308E-04
CGA:   9    -0.425747337852E+03   -0.35181E-04   -0.38001E-04  9180   0.474E-04 0.314E-04
CGA:  10    -0.425747361588E+03   -0.23736E-04   -0.24554E-04  9180   0.373E-04-0.122E-04
CGA:  11    -0.425747369104E+03   -0.75159E-05   -0.74706E-05  9180   0.175E-04-0.561E-06
  41 F= -.42574737E+03 E0= -.42574737E+03  d E =0.240316E-02  mag=    18.0000
       N       E                     dE             d eps       ncg     rms          ort
SDA:   1    -0.415334524750E+03    0.10413E+02    0.00000E+00  9180   0.248E+02 0.000E+00
CGA:   2    -0.423516715509E+03   -0.81822E+01   -0.81824E+01  9180   0.102E+02 0.113E-03
CGA:   3    -0.425163295821E+03   -0.16466E+01   -0.16505E+01  9180   0.224E+01 0.709E-02
CGA:   4    -0.425566019021E+03   -0.40272E+00   -0.40290E+00  9180   0.457E+00 0.153E-02
CGA:   5    -0.425654488422E+03   -0.88469E-01   -0.88528E-01  9180   0.123E+00 0.340E-03
CGA:   6    -0.425680749160E+03   -0.26261E-01   -0.26280E-01  9180   0.329E-01 0.138E-03
CGA:   7    -0.425689052706E+03   -0.83035E-02   -0.82939E-02  9180   0.124E-01-0.163E-03
CGA:   8    -0.425692745268E+03   -0.36926E-02   -0.36940E-02  9180   0.545E-02 0.117E-03
CGA:   9    -0.425694431444E+03   -0.16862E-02   -0.16867E-02  9180   0.200E-02 0.155E-03
CGA:  10    -0.425695122039E+03   -0.69060E-03   -0.69565E-03  9180   0.789E-03-0.176E-03
CGA:  11    -0.425695358599E+03   -0.23656E-03   -0.23705E-03  9180   0.309E-03-0.270E-04
CGA:  12    -0.425695488027E+03   -0.12943E-03   -0.14014E-03  9180   0.231E-03-0.687E-04
CGA:  13    -0.425695568211E+03   -0.80183E-04   -0.10684E-03  9180   0.206E-03-0.972E-04
CGA:  14    -0.425695610224E+03   -0.42013E-04   -0.43060E-04  9180   0.816E-04-0.385E-04
CGA:  15    -0.425695630501E+03   -0.20278E-04   -0.20085E-04  9180   0.321E-04-0.597E-05
CGA:  16    -0.425695636835E+03   -0.63340E-05   -0.71237E-05  9180   0.164E-04 0.839E-05
  42 F= -.42569564E+03 E0= -.42569564E+03  d E =0.517323E-01  mag=    18.0000
       N       E                     dE             d eps       ncg     rms          ort
SDA:   1    -0.423285060058E+03    0.24106E+01    0.00000E+00  9180   0.590E+01 0.000E+00
CGA:   2    -0.425166807124E+03   -0.18817E+01   -0.18818E+01  9180   0.264E+01-0.803E-03
CGA:   3    -0.425601977900E+03   -0.43517E+00   -0.43457E+00  9180   0.560E+00-0.905E-03
CGA:   4    -0.425704030325E+03   -0.10205E+00   -0.10206E+00  9180   0.120E+00-0.292E-03
CGA:   5    -0.425727376724E+03   -0.23346E-01   -0.23322E-01  9180   0.324E-01-0.250E-03
CGA:   6    -0.425734461509E+03   -0.70848E-02   -0.70626E-02  9180   0.927E-02-0.271E-03
CGA:   7    -0.425736750200E+03   -0.22887E-02   -0.22931E-02  9180   0.340E-02 0.874E-04
CGA:   8    -0.425737803847E+03   -0.10536E-02   -0.10545E-02  9180   0.155E-02-0.769E-04
CGA:   9    -0.425738336560E+03   -0.53271E-03   -0.54994E-03  9180   0.774E-03-0.257E-03
CGA:  10    -0.425738509323E+03   -0.17276E-03   -0.17367E-03  9180   0.240E-03 0.295E-04
CGA:  11    -0.425738577476E+03   -0.68153E-04   -0.68766E-04  9180   0.969E-04 0.281E-04
CGA:  12    -0.425738614667E+03   -0.37191E-04   -0.36826E-04  9180   0.568E-04 0.842E-05
CGA:  13    -0.425738625131E+03   -0.10463E-04   -0.13026E-04  9180   0.281E-04 0.290E-04
CGA:  14    -0.425738631903E+03   -0.67723E-05   -0.71941E-05  9180   0.959E-05 0.108E-04
  43 F= -.42573863E+03 E0= -.42573863E+03  d E =-.429951E-01  mag=    18.0000
       N       E                     dE             d eps       ncg     rms          ort
SDA:   1    -0.424188335077E+03    0.15503E+01    0.00000E+00  9180   0.385E+01 0.000E+00
CGA:   2    -0.425340428638E+03   -0.11521E+01   -0.11521E+01  9180   0.189E+01-0.308E-03
CGA:   3    -0.425646568833E+03   -0.30614E+00   -0.30632E+00  9180   0.403E+00 0.898E-03
CGA:   4    -0.425719730854E+03   -0.73162E-01   -0.73197E-01  9180   0.872E-01 0.249E-03
CGA:   5    -0.425736068151E+03   -0.16337E-01   -0.16320E-01  9180   0.220E-01-0.200E-03
CGA:   6    -0.425740856972E+03   -0.47888E-02   -0.47870E-02  9180   0.628E-02-0.343E-04
CGA:   7    -0.425742336753E+03   -0.14798E-02   -0.14863E-02  9180   0.208E-02 0.175E-03
CGA:   8    -0.425742960719E+03   -0.62397E-03   -0.62274E-03  9180   0.893E-03 0.660E-04
CGA:   9    -0.425743265382E+03   -0.30466E-03   -0.30740E-03  9180   0.391E-03-0.454E-04
CGA:  10    -0.425743367727E+03   -0.10234E-03   -0.10235E-03  9180   0.122E-03 0.308E-04
CGA:  11    -0.425743411510E+03   -0.43783E-04   -0.44032E-04  9180   0.553E-04-0.442E-05
CGA:  12    -0.425743434151E+03   -0.22641E-04   -0.29529E-04  9180   0.630E-04-0.252E-04
CGA:  13    -0.425743440135E+03   -0.59840E-05   -0.68448E-05  9180   0.380E-04 0.913E-05
  44 F= -.42574344E+03 E0= -.42574344E+03  d E =-.480823E-02  mag=    18.0000
       N       E                     dE             d eps       ncg     rms          ort
SDA:   1    -0.425465844985E+03    0.27759E+00    0.00000E+00  9180   0.708E+00 0.000E+00
CGA:   2    -0.425667704864E+03   -0.20186E+00   -0.20186E+00  9180   0.370E+00 0.268E-03
CGA:   3    -0.425729513481E+03   -0.61809E-01   -0.61774E-01  9180   0.777E-01-0.388E-03
CGA:   4    -0.425743619683E+03   -0.14106E-01   -0.14074E-01  9180   0.173E-01-0.344E-03
CGA:   5    -0.425746828900E+03   -0.32092E-02   -0.32206E-02  9180   0.434E-02 0.131E-03
CGA:   6    -0.425747750947E+03   -0.92205E-03   -0.93088E-03  9180   0.122E-02 0.162E-03
CGA:   7    -0.425748091639E+03   -0.34069E-03   -0.34105E-03  9180   0.503E-03-0.871E-04
CGA:   8    -0.425748239369E+03   -0.14773E-03   -0.15286E-03  9180   0.259E-03-0.821E-04
CGA:   9    -0.425748292247E+03   -0.52878E-04   -0.53292E-04  9180   0.764E-04 0.190E-04
CGA:  10    -0.425748313653E+03   -0.21406E-04   -0.21445E-04  9180   0.274E-04 0.732E-05
CGA:  11    -0.425748323402E+03   -0.97498E-05   -0.99265E-05  9180   0.143E-04-0.277E-05
  45 F= -.42574832E+03 E0= -.42574832E+03  d E =-.488327E-02  mag=    18.0000
       N       E                     dE             d eps       ncg     rms          ort
SDA:   1    -0.425647497355E+03    0.10082E+00    0.00000E+00  9180   0.240E+00 0.000E+00
CGA:   2    -0.425726611970E+03   -0.79115E-01   -0.79117E-01  9180   0.100E+00-0.545E-04
CGA:   3    -0.425742600624E+03   -0.15989E-01   -0.16064E-01  9180   0.218E-01 0.666E-03
CGA:   4    -0.425746532156E+03   -0.39315E-02   -0.39469E-02  9180   0.442E-02 0.180E-03
CGA:   5    -0.425747375293E+03   -0.84314E-03   -0.84642E-03  9180   0.114E-02 0.466E-04
CGA:   6    -0.425747622123E+03   -0.24683E-03   -0.24701E-03  9180   0.308E-03 0.414E-05
CGA:   7    -0.425747695216E+03   -0.73093E-04   -0.73299E-04  9180   0.105E-03 0.124E-04
CGA:   8    -0.425747718655E+03   -0.23439E-04   -0.24369E-04  9180   0.379E-04 0.306E-04
CGA:   9    -0.425747727147E+03   -0.84922E-05   -0.96422E-05  9180   0.170E-04 0.211E-04
  46 F= -.42574773E+03 E0= -.42574773E+03  d E =0.596255E-03  mag=    18.0000
       N       E                     dE             d eps       ncg     rms          ort
SDA:   1    -0.425621641214E+03    0.12608E+00    0.00000E+00  9180   0.310E+00 0.000E+00
CGA:   2    -0.425712816946E+03   -0.91176E-01   -0.91183E-01  9180   0.157E+00-0.276E-03
CGA:   3    -0.425738272502E+03   -0.25456E-01   -0.25527E-01  9180   0.327E-01 0.707E-03
CGA:   4    -0.425744016888E+03   -0.57444E-02   -0.57643E-02  9180   0.674E-02 0.244E-03
CGA:   5    -0.425745286653E+03   -0.12698E-02   -0.12683E-02  9180   0.179E-02-0.245E-04
CGA:   6    -0.425745693019E+03   -0.40637E-03   -0.40413E-03  9180   0.534E-03-0.108E-03
CGA:   7    -0.425745807305E+03   -0.11429E-03   -0.11447E-03  9180   0.172E-03 0.101E-04
CGA:   8    -0.425745847085E+03   -0.39780E-04   -0.40373E-04  9180   0.608E-04 0.397E-04
CGA:   9    -0.425745868548E+03   -0.21463E-04   -0.20974E-04  9180   0.296E-04 0.139E-04
CGA:  10    -0.425745882310E+03   -0.13762E-04   -0.14844E-04  9180   0.241E-04-0.676E-05
CGA:  11    -0.425745887590E+03   -0.52804E-05   -0.53512E-05  9180   0.113E-04-0.215E-05
  47 F= -.42574589E+03 E0= -.42574589E+03  d E =0.183956E-02  mag=    18.0000
       N       E                     dE             d eps       ncg     rms          ort
SDA:   1    -0.425519521322E+03    0.22636E+00    0.00000E+00  9180   0.574E+00 0.000E+00
CGA:   2    -0.425680488727E+03   -0.16097E+00   -0.16096E+00  9180   0.291E+00 0.820E-04
CGA:   3    -0.425729760719E+03   -0.49272E-01   -0.49308E-01  9180   0.638E-01 0.345E-03
CGA:   4    -0.425740994042E+03   -0.11233E-01   -0.11247E-01  9180   0.126E-01 0.157E-03
CGA:   5    -0.425743369553E+03   -0.23755E-02   -0.23760E-02  9180   0.327E-02 0.426E-05
CGA:   6    -0.425744111377E+03   -0.74182E-03   -0.73874E-03  9180   0.964E-03-0.117E-03
CGA:   7    -0.425744325685E+03   -0.21431E-03   -0.21476E-03  9180   0.317E-03 0.224E-04
CGA:   8    -0.425744412844E+03   -0.87159E-04   -0.86526E-04  9180   0.125E-03 0.377E-04
CGA:   9    -0.425744462162E+03   -0.49318E-04   -0.49729E-04  9180   0.686E-04-0.403E-05
CGA:  10    -0.425744480090E+03   -0.17928E-04   -0.17800E-04  9180   0.255E-04 0.105E-04
CGA:  11    -0.425744490131E+03   -0.10041E-04   -0.10216E-04  9180   0.144E-04-0.196E-05
CGA:  12    -0.425744438988E+03    0.51144E-04   -0.27690E-04  9180   0.250E-03-0.517E-04
CGA:  13    -0.425744478908E+03   -0.39921E-04   -0.49553E-04  9180   0.273E-04 0.346E-04
CGA:  14    -0.425744494675E+03   -0.15766E-04   -0.17561E-04  9180   0.253E-04-0.176E-04
CGA:  15    -0.425744495171E+03   -0.49596E-06   -0.40027E-05  9180   0.606E-05 0.113E-04
  48 F= -.42574450E+03 E0= -.42574450E+03  d E =0.139242E-02  mag=    18.0000
       N       E                     dE             d eps       ncg     rms          ort
SDA:   1    -0.425382933516E+03    0.36156E+00    0.00000E+00  9180   0.899E+00 0.000E+00
CGA:   2    -0.425656167002E+03   -0.27323E+00   -0.27326E+00  9180   0.397E+00-0.124E-03
CGA:   3    -0.425723941910E+03   -0.67775E-01   -0.67699E-01  9180   0.903E-01-0.248E-03
CGA:   4    -0.425739772184E+03   -0.15830E-01   -0.15873E-01  9180   0.179E-01 0.159E-03
CGA:   5    -0.425743122744E+03   -0.33506E-02   -0.33875E-02  9180   0.462E-02 0.166E-03
CGA:   6    -0.425744120047E+03   -0.99730E-03   -0.10009E-02  9180   0.126E-02 0.190E-04
CGA:   7    -0.425744424344E+03   -0.30430E-03   -0.30843E-03  9180   0.450E-03 0.286E-04
CGA:   8    -0.425744565673E+03   -0.14133E-03   -0.14123E-03  9180   0.214E-03-0.143E-05
CGA:   9    -0.425744637297E+03   -0.71624E-04   -0.71368E-04  9180   0.941E-04-0.640E-05
CGA:  10    -0.425744652396E+03   -0.15099E-04   -0.19594E-04  9180   0.301E-04 0.282E-04
CGA:  11    -0.425744660196E+03   -0.78000E-05   -0.90867E-05  9180   0.137E-04 0.958E-05
CGA:  12    -0.425744518715E+03    0.14148E-03   -0.76183E-04  9180   0.578E-03-0.938E-04
CGA:  13    -0.425744620788E+03   -0.10207E-03   -0.13084E-03  9180   0.796E-04 0.669E-04
CGA:  14    -0.425744677152E+03   -0.56365E-04   -0.61850E-04  9180   0.137E-03-0.878E-04
CGA:  15    -0.425744669819E+03    0.73330E-05   -0.20554E-04  9180   0.309E-04 0.573E-04
  49 F= -.42574467E+03 E0= -.42574467E+03  d E =-.174649E-03  mag=    18.0000
       N       E                     dE             d eps       ncg     rms          ort
SDA:   1    -0.425700115990E+03    0.44561E-01    0.00000E+00  9180   0.119E+00 0.000E+00
CGA:   2    -0.425732587853E+03   -0.32472E-01   -0.32523E-01  9180   0.625E-01 0.149E-03
CGA:   3    -0.425743426777E+03   -0.10839E-01   -0.10670E-01  9180   0.137E-01-0.428E-03
CGA:   4    -0.425745987287E+03   -0.25605E-02   -0.24904E-02  9180   0.310E-02-0.192E-03
CGA:   5    -0.425746552268E+03   -0.56498E-03   -0.56886E-03  9180   0.774E-03 0.104E-04
CGA:   6    -0.425746698657E+03   -0.14639E-03   -0.16095E-03  9180   0.214E-03 0.467E-04
CGA:   7    -0.425746758157E+03   -0.59500E-04   -0.59251E-04  9180   0.859E-04-0.108E-05
CGA:   8    -0.425746796050E+03   -0.37893E-04   -0.35166E-04  9180   0.766E-04-0.346E-04
CGA:   9    -0.425746808551E+03   -0.12500E-04   -0.11129E-04  9180   0.323E-04-0.566E-05
CGA:  10    -0.425746813166E+03   -0.46157E-05   -0.58145E-05  9180   0.137E-04 0.427E-05
  50 F= -.42574681E+03 E0= -.42574681E+03  d E =-.214335E-02  mag=    18.0000
       N       E                     dE             d eps       ncg     rms          ort
SDA:   1    -0.425705501487E+03    0.41307E-01    0.00000E+00  9180   0.103E+00 0.000E+00
CGA:   2    -0.425734876154E+03   -0.29375E-01   -0.29366E-01  9180   0.470E-01-0.911E-04
CGA:   3    -0.425743095269E+03   -0.82191E-02   -0.82386E-02  9180   0.115E-01 0.668E-04
CGA:   4    -0.425745034814E+03   -0.19395E-02   -0.19594E-02  9180   0.210E-02 0.742E-04
CGA:   5    -0.425745439883E+03   -0.40507E-03   -0.40605E-03  9180   0.579E-03 0.394E-05
CGA:   6    -0.425745578591E+03   -0.13871E-03   -0.13190E-03  9180   0.177E-03-0.391E-04
CGA:   7    -0.425745619755E+03   -0.41164E-04   -0.40566E-04  9180   0.658E-04-0.410E-05
CGA:   8    -0.425745632846E+03   -0.13090E-04   -0.15064E-04  9180   0.234E-04 0.130E-04
CGA:   9    -0.425745639400E+03   -0.65544E-05   -0.73579E-05  9180   0.106E-04 0.689E-05
  51 F= -.42574564E+03 E0= -.42574564E+03  d E =0.117377E-02  mag=    18.0000
       N       E                     dE             d eps       ncg     rms          ort
SDA:   1    -0.425608745339E+03    0.13689E+00    0.00000E+00  9180   0.353E+00 0.000E+00
CGA:   2    -0.425703967654E+03   -0.95222E-01   -0.95284E-01  9180   0.190E+00 0.504E-03
CGA:   3    -0.425736783344E+03   -0.32816E-01   -0.32682E-01  9180   0.399E-01-0.690E-03
CGA:   4    -0.425743867432E+03   -0.70841E-02   -0.70549E-02  9180   0.832E-02-0.165E-03
CGA:   5    -0.425745390503E+03   -0.15231E-02   -0.15290E-02  9180   0.204E-02 0.337E-04
CGA:   6    -0.425745830419E+03   -0.43992E-03   -0.44124E-03  9180   0.553E-03 0.102E-04
CGA:   7    -0.425745955514E+03   -0.12509E-03   -0.12722E-03  9180   0.171E-03 0.201E-04
CGA:   8    -0.425746007412E+03   -0.51899E-04   -0.52009E-04  9180   0.738E-04 0.311E-05
CGA:   9    -0.425746032324E+03   -0.24912E-04   -0.24925E-04  9180   0.325E-04-0.303E-05
CGA:  10    -0.425746036696E+03   -0.43720E-05   -0.59736E-05  9180   0.111E-04 0.118E-04
  52 F= -.42574604E+03 E0= -.42574604E+03  d E =-.397296E-03  mag=    18.0000
       N       E                     dE             d eps       ncg     rms          ort
SDA:   1    -0.425061512918E+03    0.68452E+00    0.00000E+00  9180   0.174E+01 0.000E+00
CGA:   2    -0.425540245900E+03   -0.47873E+00   -0.47882E+00  9180   0.930E+00 0.157E-02
CGA:   3    -0.425699510377E+03   -0.15926E+00   -0.15897E+00  9180   0.192E+00-0.197E-02
CGA:   4    -0.425733740108E+03   -0.34230E-01   -0.34146E-01  9180   0.400E-01-0.680E-03
CGA:   5    -0.425741110694E+03   -0.73706E-02   -0.73875E-02  9180   0.991E-02 0.139E-03
CGA:   6    -0.425743230272E+03   -0.21196E-02   -0.21312E-02  9180   0.268E-02 0.148E-03
CGA:   7    -0.425743868733E+03   -0.63846E-03   -0.64222E-03  9180   0.890E-03 0.716E-04
CGA:   8    -0.425744154022E+03   -0.28529E-03   -0.28614E-03  9180   0.430E-03-0.309E-04
CGA:   9    -0.425744291375E+03   -0.13735E-03   -0.13854E-03  9180   0.188E-03-0.255E-04
CGA:  10    -0.425744330649E+03   -0.39274E-04   -0.41574E-04  9180   0.593E-04 0.421E-04
CGA:  11    -0.425744346832E+03   -0.16183E-04   -0.17103E-04  9180   0.246E-04 0.182E-04
CGA:  12    -0.425744360399E+03   -0.13567E-04   -0.16149E-04  9180   0.318E-04-0.119E-04
CGA:  13    -0.425744360997E+03   -0.59811E-06   -0.18403E-05  9180   0.264E-04 0.678E-05
  53 F= -.42574436E+03 E0= -.42574436E+03  d E =0.167570E-02  mag=    18.0000
       N       E                     dE             d eps       ncg     rms          ort
SDA:   1    -0.425557089974E+03    0.18727E+00    0.00000E+00  9180   0.465E+00 0.000E+00
CGA:   2    -0.425701770867E+03   -0.14468E+00   -0.14469E+00  9180   0.190E+00-0.328E-03
CGA:   3    -0.425734229911E+03   -0.32459E-01   -0.32440E-01  9180   0.473E-01-0.196E-03
CGA:   4    -0.425742398156E+03   -0.81682E-02   -0.82076E-02  9180   0.895E-02 0.385E-03
CGA:   5    -0.425744078132E+03   -0.16800E-02   -0.16985E-02  9180   0.238E-02 0.230E-03
CGA:   6    -0.425744612654E+03   -0.53452E-03   -0.53455E-03  9180   0.694E-03 0.733E-07
CGA:   7    -0.425744793147E+03   -0.18049E-03   -0.18046E-03  9180   0.279E-03-0.181E-04
CGA:   8    -0.425744870249E+03   -0.77102E-04   -0.76774E-04  9180   0.118E-03 0.162E-04
CGA:   9    -0.425744904510E+03   -0.34261E-04   -0.34045E-04  9180   0.420E-04 0.223E-04
CGA:  10    -0.425744914753E+03   -0.10243E-04   -0.11014E-04  9180   0.162E-04 0.178E-04
CGA:  11    -0.425744920906E+03   -0.61523E-05   -0.61294E-05  9180   0.884E-05 0.623E-05
CGA:  12    -0.425744889573E+03    0.31333E-04   -0.17450E-04  9180   0.154E-03-0.373E-04
CGA:  13    -0.425744915938E+03   -0.26365E-04   -0.32528E-04  9180   0.212E-04 0.231E-04
CGA:  14    -0.425744928215E+03   -0.12277E-04   -0.12939E-04  9180   0.173E-04-0.996E-05
CGA:  15    -0.425744929156E+03   -0.94036E-06   -0.16665E-05  9180   0.103E-04 0.253E-05
  54 F= -.42574493E+03 E0= -.42574493E+03  d E =-.568158E-03  mag=    18.0000
       N       E                     dE             d eps       ncg     rms          ort
SDA:   1    -0.425659868047E+03    0.85060E-01    0.00000E+00  9180   0.253E+00 0.000E+00
CGA:   2    -0.425712592650E+03   -0.52725E-01   -0.52740E-01  9180   0.126E+00-0.261E-04
CGA:   3    -0.425737705587E+03   -0.25113E-01   -0.25174E-01  9180   0.339E-01 0.233E-03
CGA:   4    -0.425743730244E+03   -0.60247E-02   -0.60481E-02  9180   0.746E-02 0.977E-04
CGA:   5    -0.425745156190E+03   -0.14259E-02   -0.14143E-02  9180   0.191E-02-0.566E-04
CGA:   6    -0.425745597427E+03   -0.44124E-03   -0.42733E-03  9180   0.594E-03-0.833E-04
CGA:   7    -0.425745742572E+03   -0.14515E-03   -0.14001E-03  9180   0.203E-03-0.370E-04
CGA:   8    -0.425745781771E+03   -0.39199E-04   -0.42977E-04  9180   0.584E-04 0.247E-04
CGA:   9    -0.425745793356E+03   -0.11584E-04   -0.14307E-04  9180   0.191E-04 0.178E-04
CGA:  10    -0.425745802828E+03   -0.94721E-05   -0.95687E-05  9180   0.163E-04-0.494E-05
CGA:  11    -0.425745799240E+03    0.35879E-05   -0.10101E-04  9180   0.614E-04-0.291E-04
CGA:  12    -0.425745808613E+03   -0.93734E-05   -0.11794E-04  9180   0.120E-04 0.123E-04
[...]
  66 F= -.42577181E+03 E0= -.42577181E+03  d E =-.965103E-02  mag=    18.0000
       N       E                     dE             d eps       ncg     rms          ort
SDA:   1    -0.422746233268E+03    0.30256E+01    0.00000E+00  9180   0.781E+01 0.000E+00
CGA:   2    -0.425054658447E+03   -0.23084E+01   -0.23087E+01  9180   0.277E+01 0.610E-02
CGA:   3    -0.425625153856E+03   -0.57050E+00   -0.57044E+00  9180   0.715E+00-0.145E-02
CGA:   4    -0.425737658492E+03   -0.11250E+00   -0.11267E+00  9180   0.133E+00 0.793E-03
CGA:   5    -0.425765320100E+03   -0.27662E-01   -0.27687E-01  9180   0.356E-01 0.259E-03
CGA:   6    -0.425772812558E+03   -0.74925E-02   -0.74695E-02  9180   0.110E-01-0.280E-03
CGA:   7    -0.425775801491E+03   -0.29889E-02   -0.29868E-02  9180   0.467E-02-0.124E-03
CGA:   8    -0.425777280127E+03   -0.14786E-02   -0.14788E-02  9180   0.251E-02-0.612E-05
CGA:   9    -0.425778121183E+03   -0.84106E-03   -0.84085E-03  9180   0.108E-02 0.355E-05
CGA:  10    -0.425778471890E+03   -0.35071E-03   -0.35042E-03  9180   0.423E-03 0.924E-05
CGA:  11    -0.425778636991E+03   -0.16510E-03   -0.17183E-03  9180   0.252E-03-0.636E-04
CGA:  12    -0.425778722563E+03   -0.85572E-04   -0.88050E-04  9180   0.127E-03-0.228E-04
CGA:  13    -0.425778761319E+03   -0.38756E-04   -0.38592E-04  9180   0.414E-04 0.590E-05
CGA:  14    -0.425778776312E+03   -0.14993E-04   -0.15061E-04  9180   0.131E-04-0.176E-05
CGA:  15    -0.425778781110E+03   -0.47978E-05   -0.49873E-05  9180   0.492E-05-0.214E-05
CGA:  16    -0.425778758268E+03    0.22842E-04   -0.12316E-04  9180   0.937E-04-0.182E-04
CGA:  17    -0.425778781611E+03   -0.23343E-04   -0.25223E-04  9180   0.824E-05 0.614E-05
CGA:  18    -0.425778782547E+03   -0.93606E-06   -0.94871E-05  9180   0.525E-04-0.164E-04
  67 F= -.42577878E+03 E0= -.42577878E+03  d E =-.697571E-02  mag=    18.0000
       N       E                     dE             d eps       ncg     rms          ort
SDA:   1    -0.415056615572E+03    0.10722E+02    0.00000E+00  9180   0.290E+02 0.000E+00
CGA:   2    -0.422495620942E+03   -0.74390E+01   -0.74644E+01  9180   0.138E+02 0.300E-01
CGA:   3    -0.424988784580E+03   -0.24932E+01   -0.24953E+01  9180   0.326E+01 0.246E+00
CGA:   4    -0.425581451101E+03   -0.59267E+00   -0.59243E+00  9180   0.633E+00 0.147E-01
CGA:   5    -0.425701576025E+03   -0.12012E+00   -0.12026E+00  9180   0.168E+00-0.415E-03
CGA:   6    -0.425738816484E+03   -0.37240E-01   -0.37244E-01  9180   0.488E-01-0.647E-04
CGA:   7    -0.425751266090E+03   -0.12450E-01   -0.12466E-01  9180   0.188E-01 0.455E-04
CGA:   8    -0.425757064052E+03   -0.57980E-02   -0.58146E-02  9180   0.867E-02 0.914E-04
CGA:   9    -0.425760070725E+03   -0.30067E-02   -0.29820E-02  9180   0.382E-02-0.209E-03
CGA:  10    -0.425761347440E+03   -0.12767E-02   -0.12545E-02  9180   0.159E-02-0.188E-03
CGA:  11    -0.425761844628E+03   -0.49719E-03   -0.50127E-03  9180   0.668E-03 0.335E-04
CGA:  12    -0.425762116061E+03   -0.27143E-03   -0.27145E-03  9180   0.361E-03-0.175E-06
CGA:  13    -0.425762262661E+03   -0.14660E-03   -0.14667E-03  9180   0.161E-03 0.148E-05
CGA:  14    -0.425762319595E+03   -0.56934E-04   -0.57274E-04  9180   0.493E-04 0.377E-05
CGA:  15    -0.425762339946E+03   -0.20351E-04   -0.20084E-04  9180   0.172E-04-0.694E-05
CGA:  16    -0.425762341351E+03   -0.14048E-05   -0.29627E-05  9180   0.668E-05 0.665E-05
  68 F= -.42576234E+03 E0= -.42576234E+03  d E =0.164412E-01  mag=    18.0000
       N       E                     dE             d eps       ncg     rms          ort
SDA:   1    -0.415164306740E+03    0.10598E+02    0.00000E+00  9180   0.266E+02 0.000E+00
CGA:   2    -0.423311289007E+03   -0.81470E+01   -0.81509E+01  9180   0.947E+01 0.428E-03
CGA:   3    -0.425181620013E+03   -0.18703E+01   -0.18729E+01  9180   0.242E+01 0.102E-01
CGA:   4    -0.425574206931E+03   -0.39259E+00   -0.39271E+00  9180   0.454E+00 0.128E-02
CGA:   5    -0.425668682847E+03   -0.94476E-01   -0.94481E-01  9180   0.126E+00-0.909E-04
CGA:   6    -0.425694943160E+03   -0.26260E-01   -0.26384E-01  9180   0.376E-01 0.683E-03
CGA:   7    -0.425705140294E+03   -0.10197E-01   -0.10219E-01  9180   0.156E-01 0.214E-03
CGA:   8    -0.425710145078E+03   -0.50048E-02   -0.50005E-02  9180   0.808E-02-0.101E-03
CGA:   9    -0.425712752680E+03   -0.26076E-02   -0.26082E-02  9180   0.321E-02 0.132E-04
CGA:  10    -0.425713825752E+03   -0.10731E-02   -0.10701E-02  9180   0.131E-02-0.125E-03
CGA:  11    -0.425714252114E+03   -0.42636E-03   -0.42667E-03  9180   0.581E-03 0.172E-04
CGA:  12    -0.425714474818E+03   -0.22270E-03   -0.22188E-03  9180   0.293E-03 0.380E-04
CGA:  13    -0.425714609938E+03   -0.13512E-03   -0.13690E-03  9180   0.151E-03-0.221E-04
CGA:  14    -0.425714645205E+03   -0.35267E-04   -0.37986E-04  9180   0.432E-04 0.304E-04
CGA:  15    -0.425714659804E+03   -0.14599E-04   -0.14856E-04  9180   0.133E-04 0.367E-05
CGA:  16    -0.425714666281E+03   -0.64773E-05   -0.74592E-05  9180   0.107E-04-0.602E-05
  69 F= -.42571467E+03 E0= -.42571467E+03  d E =0.476751E-01  mag=    18.0000
       N       E                     dE             d eps       ncg     rms          ort
SDA:   1    -0.413787664913E+03    0.11927E+02    0.00000E+00  9180   0.320E+02 0.000E+00
CGA:   2    -0.422296511211E+03   -0.85088E+01   -0.85199E+01  9180   0.144E+02 0.354E-01
CGA:   3    -0.424921242055E+03   -0.26247E+01   -0.26272E+01  9180   0.377E+01 0.310E-01
CGA:   4    -0.425572507969E+03   -0.65127E+00   -0.65127E+00  9180   0.686E+00 0.247E-02
CGA:   5    -0.425703914697E+03   -0.13141E+00   -0.13148E+00  9180   0.187E+00 0.531E-03
CGA:   6    -0.425744435139E+03   -0.40520E-01   -0.40574E-01  9180   0.533E-01 0.408E-03
CGA:   7    -0.425758392053E+03   -0.13957E-01   -0.13952E-01  9180   0.216E-01-0.120E-03
CGA:   8    -0.425765128514E+03   -0.67365E-02   -0.67368E-02  9180   0.104E-01-0.195E-03
CGA:   9    -0.425768574483E+03   -0.34460E-02   -0.34453E-02  9180   0.439E-02 0.243E-04
CGA:  10    -0.425769990097E+03   -0.14156E-02   -0.14155E-02  9180   0.173E-02 0.474E-05
CGA:  11    -0.425770608016E+03   -0.61792E-03   -0.62017E-03  9180   0.829E-03-0.510E-04
CGA:  12    -0.425770942795E+03   -0.33478E-03   -0.34055E-03  9180   0.469E-03-0.544E-04
CGA:  13    -0.425771120993E+03   -0.17820E-03   -0.18058E-03  9180   0.197E-03-0.266E-04
CGA:  14    -0.425771179976E+03   -0.58983E-04   -0.59094E-04  9180   0.531E-04 0.150E-04
CGA:  15    -0.425771201313E+03   -0.21337E-04   -0.21721E-04  9180   0.195E-04-0.702E-05
CGA:  16    -0.425771208222E+03   -0.69097E-05   -0.71664E-05  9180   0.816E-05-0.269E-05
  70 F= -.42577121E+03 E0= -.42577121E+03  d E =-.565419E-01  mag=    18.0000
       N       E                     dE             d eps       ncg     rms          ort
SDA:   1    -0.404782897418E+03    0.20988E+02    0.00000E+00  9180   0.535E+02 0.000E+00
CGA:   2    -0.420779945472E+03   -0.15997E+02   -0.16008E+02  9180   0.192E+02 0.861E-01
CGA:   3    -0.424623957459E+03   -0.38440E+01   -0.38477E+01  9180   0.500E+01 0.175E-01
CGA:   4    -0.425430864103E+03   -0.80691E+00   -0.80767E+00  9180   0.927E+00 0.431E-02
CGA:   5    -0.425624879702E+03   -0.19402E+00   -0.19413E+00  9180   0.265E+00 0.856E-03
CGA:   6    -0.425681114540E+03   -0.56235E-01   -0.56271E-01  9180   0.815E-01 0.125E-03
CGA:   7    -0.425703647285E+03   -0.22533E-01   -0.22520E-01  9180   0.352E-01-0.403E-03
CGA:   8    -0.425714687002E+03   -0.11040E-01   -0.11041E-01  9180   0.175E-01-0.284E-03
CGA:   9    -0.425720264912E+03   -0.55779E-02   -0.55765E-02  9180   0.674E-02 0.137E-03
CGA:  10    -0.425722484460E+03   -0.22195E-02   -0.22223E-02  9180   0.268E-02-0.175E-03
CGA:  11    -0.425723445203E+03   -0.96074E-03   -0.97060E-03  9180   0.140E-02-0.169E-03
CGA:  12    -0.425723978598E+03   -0.53340E-03   -0.53692E-03  9180   0.738E-03-0.383E-04
CGA:  13    -0.425724278581E+03   -0.29998E-03   -0.30775E-03  9180   0.331E-03-0.721E-04
CGA:  14    -0.425724357724E+03   -0.79143E-04   -0.82043E-04  9180   0.877E-04 0.575E-04
CGA:  15    -0.425724390366E+03   -0.32643E-04   -0.32639E-04  9180   0.292E-04-0.744E-06
CGA:  16    -0.425724402809E+03   -0.12442E-04   -0.13723E-04  9180   0.169E-04-0.846E-05
CGA:  17    -0.425724402363E+03    0.44555E-06   -0.13425E-05  9180   0.110E-04 0.818E-05
  71 F= -.42572440E+03 E0= -.42572440E+03  d E =0.468059E-01  mag=    18.0000
       N       E                     dE             d eps       ncg     rms          ort
SDA:   1    -0.417839204495E+03    0.78852E+01    0.00000E+00  9180   0.201E+02 0.000E+00
CGA:   2    -0.423710477614E+03   -0.58713E+01   -0.58717E+01  9180   0.898E+01 0.434E-02
CGA:   3    -0.425273291330E+03   -0.15628E+01   -0.15648E+01  9180   0.222E+01 0.103E-01
CGA:   4    -0.425657659975E+03   -0.38437E+00   -0.38452E+00  9180   0.416E+00 0.120E-02
CGA:   5    -0.425738642925E+03   -0.80983E-01   -0.80955E-01  9180   0.115E+00-0.515E-03
CGA:   6    -0.425763586610E+03   -0.24944E-01   -0.24942E-01  9180   0.329E-01-0.751E-04
CGA:   7    -0.425772079900E+03   -0.84933E-02   -0.84974E-02  9180   0.129E-01 0.138E-03
CGA:   8    -0.425776034423E+03   -0.39545E-02   -0.39531E-02  9180   0.584E-02 0.635E-04
CGA:   9    -0.425778037966E+03   -0.20035E-02   -0.20148E-02  9180   0.252E-02-0.198E-03
CGA:  10    -0.425778855869E+03   -0.81790E-03   -0.82838E-03  9180   0.106E-02-0.207E-03
CGA:  11    -0.425779179751E+03   -0.32388E-03   -0.32417E-03  9180   0.448E-03-0.753E-05
CGA:  12    -0.425779354484E+03   -0.17473E-03   -0.17416E-03  9180   0.235E-03 0.550E-05
CGA:  13    -0.425779451113E+03   -0.96629E-04   -0.96411E-04  9180   0.106E-03 0.173E-05
CGA:  14    -0.425779488439E+03   -0.37326E-04   -0.37115E-04  9180   0.325E-04 0.474E-05
CGA:  15    -0.425779502200E+03   -0.13761E-04   -0.14692E-04  9180   0.140E-04-0.739E-05
CGA:  16    -0.425779505011E+03   -0.28105E-05   -0.29188E-05  9180   0.473E-05 0.256E-05
  72 F= -.42577951E+03 E0= -.42577951E+03  d E =-.551026E-01  mag=    18.0000
       N       E                     dE             d eps       ncg     rms          ort
SDA:   1    -0.417637100756E+03    0.81424E+01    0.00000E+00  9180   0.209E+02 0.000E+00
CGA:   2    -0.423825438266E+03   -0.61883E+01   -0.61885E+01  9180   0.767E+01 0.273E-03
CGA:   3    -0.425330621862E+03   -0.15052E+01   -0.15059E+01  9180   0.202E+01 0.294E-02
CGA:   4    -0.425657075840E+03   -0.32645E+00   -0.32642E+00  9180   0.366E+00-0.128E-02
CGA:   5    -0.425732358995E+03   -0.75283E-01   -0.75260E-01  9180   0.101E+00-0.395E-03
CGA:   6    -0.425753359972E+03   -0.21001E-01   -0.21060E-01  9180   0.293E-01 0.694E-03
CGA:   7    -0.425761282736E+03   -0.79228E-02   -0.79265E-02  9180   0.122E-01 0.247E-03
CGA:   8    -0.425765248685E+03   -0.39659E-02   -0.39772E-02  9180   0.660E-02-0.277E-03
CGA:   9    -0.425767416966E+03   -0.21683E-02   -0.21766E-02  9180   0.281E-02-0.163E-03
CGA:  10    -0.425768312376E+03   -0.89541E-03   -0.89989E-03  9180   0.112E-02-0.110E-03
CGA:  11    -0.425768667028E+03   -0.35465E-03   -0.35321E-03  9180   0.472E-03 0.359E-04
CGA:  12    -0.425768839132E+03   -0.17210E-03   -0.16854E-03  9180   0.218E-03 0.648E-04
CGA:  13    -0.425768947412E+03   -0.10828E-03   -0.11182E-03  9180   0.130E-03-0.230E-04
CGA:  14    -0.425768977849E+03   -0.30437E-04   -0.31248E-04  9180   0.408E-04 0.245E-04
CGA:  15    -0.425768988093E+03   -0.10244E-04   -0.11015E-04  9180   0.120E-04 0.105E-04
CGA:  16    -0.425768993093E+03   -0.49993E-05   -0.49995E-05  9180   0.544E-05-0.160E-07
  73 F= -.42576899E+03 E0= -.42576899E+03  d E =0.105119E-01  mag=    18.0000
       N       E                     dE             d eps       ncg     rms          ort
SDA:   1    -0.424454749971E+03    0.13142E+01    0.00000E+00  9180   0.339E+01 0.000E+00
CGA:   2    -0.425431583332E+03   -0.97683E+00   -0.97684E+00  9180   0.146E+01 0.268E-02
CGA:   3    -0.425694105975E+03   -0.26252E+00   -0.26262E+00  9180   0.384E+00 0.161E-03
CGA:   4    -0.425759045367E+03   -0.64939E-01   -0.65012E-01  9180   0.698E-01 0.553E-03
CGA:   5    -0.425772725077E+03   -0.13680E-01   -0.13715E-01  9180   0.192E-01 0.420E-03
CGA:   6    -0.425776846003E+03   -0.41209E-02   -0.41303E-02  9180   0.549E-02 0.150E-03
CGA:   7    -0.425778327025E+03   -0.14810E-02   -0.14810E-02  9180   0.229E-02-0.237E-04
CGA:   8    -0.425779025019E+03   -0.69799E-03   -0.69805E-03  9180   0.108E-02-0.177E-05
CGA:   9    -0.425779357023E+03   -0.33200E-03   -0.32879E-03  9180   0.410E-03 0.945E-04
CGA:  10    -0.425779488524E+03   -0.13150E-03   -0.13048E-03  9180   0.157E-03 0.542E-04
CGA:  11    -0.425779561285E+03   -0.72761E-04   -0.77477E-04  9180   0.122E-03-0.296E-04
CGA:  12    -0.425779601625E+03   -0.40340E-04   -0.45766E-04  9180   0.838E-04-0.302E-04
CGA:  13    -0.425779624596E+03   -0.22971E-04   -0.24853E-04  9180   0.388E-04-0.185E-04
CGA:  14    -0.425779632640E+03   -0.80440E-05   -0.80912E-05  9180   0.137E-04 0.159E-05
  74 F= -.42577963E+03 E0= -.42577963E+03  d E =-.106395E-01  mag=    18.0000
       N       E                     dE             d eps       ncg     rms          ort
SDA:   1    -0.425264622475E+03    0.51500E+00    0.00000E+00  9180   0.136E+01 0.000E+00
CGA:   2    -0.425669858128E+03   -0.40524E+00   -0.40523E+00  9180   0.461E+00 0.125E-02
CGA:   3    -0.425764408827E+03   -0.94551E-01   -0.94511E-01  9180   0.124E+00-0.576E-03
CGA:   4    -0.425784681375E+03   -0.20273E-01   -0.20288E-01  9180   0.242E-01 0.827E-04
CGA:   5    -0.425789716699E+03   -0.50353E-02   -0.50292E-02  9180   0.657E-02-0.851E-04
CGA:   6    -0.425791149058E+03   -0.14324E-02   -0.14184E-02  9180   0.216E-02-0.225E-03
CGA:   7    -0.425791716879E+03   -0.56782E-03   -0.56744E-03  9180   0.883E-03-0.895E-04
CGA:   8    -0.425791958659E+03   -0.24178E-03   -0.24148E-03  9180   0.380E-03 0.320E-04
CGA:   9    -0.425792089483E+03   -0.13082E-03   -0.13150E-03  9180   0.162E-03-0.119E-04
CGA:  10    -0.425792147352E+03   -0.57869E-04   -0.62087E-04  9180   0.942E-04-0.361E-04
CGA:  11    -0.425792174402E+03   -0.27050E-04   -0.29494E-04  9180   0.541E-04-0.208E-04
CGA:  12    -0.425792190080E+03   -0.15679E-04   -0.16211E-04  9180   0.247E-04-0.573E-05
CGA:  13    -0.425792195073E+03   -0.49926E-05   -0.53518E-05  9180   0.842E-05 0.669E-05
  75 F= -.42579220E+03 E0= -.42579220E+03  d E =-.125624E-01  mag=    18.0000
       N       E                     dE             d eps       ncg     rms          ort
SDA:   1    -0.425454138221E+03    0.33805E+00    0.00000E+00  9180   0.910E+00 0.000E+00
CGA:   2    -0.425684496182E+03   -0.23036E+00   -0.23035E+00  9180   0.439E+00-0.639E-03
CGA:   3    -0.425762918198E+03   -0.78422E-01   -0.78519E-01  9180   0.114E+00 0.741E-03
CGA:   4    -0.425782665206E+03   -0.19747E-01   -0.19756E-01  9180   0.207E-01 0.390E-04
CGA:   5    -0.425786546980E+03   -0.38818E-02   -0.38756E-02  9180   0.539E-02-0.769E-04
CGA:   6    -0.425787703488E+03   -0.11565E-02   -0.11575E-02  9180   0.148E-02 0.150E-04
CGA:   7    -0.425788059288E+03   -0.35580E-03   -0.35761E-03  9180   0.527E-03 0.661E-04
CGA:   8    -0.425788224493E+03   -0.16520E-03   -0.16411E-03  9180   0.247E-03 0.357E-04
CGA:   9    -0.425788325820E+03   -0.10133E-03   -0.10463E-03  9180   0.157E-03-0.260E-04
CGA:  10    -0.425788371632E+03   -0.45812E-04   -0.46545E-04  9180   0.690E-04-0.131E-04
CGA:  11    -0.425788388021E+03   -0.16390E-04   -0.16546E-04  9180   0.248E-04 0.957E-05
CGA:  12    -0.425788394728E+03   -0.67070E-05   -0.69548E-05  9180   0.112E-04 0.806E-05
  76 F= -.42578839E+03 E0= -.42578839E+03  d E =0.380034E-02  mag=    18.0000
       N       E                     dE             d eps       ncg     rms          ort
SDA:   1    -0.425596394515E+03    0.19199E+00    0.00000E+00  9180   0.493E+00 0.000E+00
CGA:   2    -0.425732985811E+03   -0.13659E+00   -0.13659E+00  9180   0.228E+00-0.933E-03
CGA:   3    -0.425772321816E+03   -0.39336E-01   -0.39481E-01  9180   0.559E-01 0.131E-02
CGA:   4    -0.425782073305E+03   -0.97515E-02   -0.97756E-02  9180   0.105E-01 0.230E-03
CGA:   5    -0.425784089852E+03   -0.20165E-02   -0.20175E-02  9180   0.276E-02 0.984E-05
CGA:   6    -0.425784659169E+03   -0.56932E-03   -0.57449E-03  9180   0.734E-03 0.928E-04
CGA:   7    -0.425784836173E+03   -0.17700E-03   -0.17908E-03  9180   0.265E-03 0.854E-04
CGA:   8    -0.425784927211E+03   -0.91038E-04   -0.89765E-04  9180   0.141E-03 0.285E-04
CGA:   9    -0.425784983371E+03   -0.56160E-04   -0.55720E-04  9180   0.790E-04 0.455E-05
CGA:  10    -0.425785003463E+03   -0.20092E-04   -0.20379E-04  9180   0.284E-04 0.179E-04
CGA:  11    -0.425785012068E+03   -0.86050E-05   -0.87338E-05  9180   0.123E-04 0.885E-05
  77 F= -.42578501E+03 E0= -.42578501E+03  d E =0.338266E-02  mag=    18.0000
       N       E                     dE             d eps       ncg     rms          ort
SDA:   1    -0.425598382898E+03    0.18662E+00    0.00000E+00  9180   0.516E+00 0.000E+00
CGA:   2    -0.425730011900E+03   -0.13163E+00   -0.13166E+00  9180   0.243E+00 0.123E-02
CGA:   3    -0.425774155247E+03   -0.44143E-01   -0.44085E-01  9180   0.649E-01-0.744E-03
CGA:   4    -0.425785293509E+03   -0.11138E-01   -0.11116E-01  9180   0.116E-01-0.257E-03
CGA:   5    -0.425787435329E+03   -0.21418E-02   -0.21456E-02  9180   0.301E-02 0.450E-04
CGA:   6    -0.425788083668E+03   -0.64834E-03   -0.64968E-03  9180   0.810E-03 0.293E-04
CGA:   7    -0.425788298663E+03   -0.21500E-03   -0.21517E-03  9180   0.330E-03-0.306E-04
CGA:   8    -0.425788400082E+03   -0.10142E-03   -0.10287E-03  9180   0.170E-03-0.219E-04
CGA:   9    -0.425788448583E+03   -0.48500E-04   -0.47926E-04  9180   0.646E-04 0.137E-04
CGA:  10    -0.425788468923E+03   -0.20340E-04   -0.20112E-04  9180   0.243E-04 0.902E-05
CGA:  11    -0.425788479281E+03   -0.10358E-04   -0.10515E-04  9180   0.143E-04-0.137E-05
CGA:  12    -0.425788484885E+03   -0.56043E-05   -0.60057E-05  9180   0.940E-05-0.232E-05
  78 F= -.42578848E+03 E0= -.42578848E+03  d E =-.347282E-02  mag=    18.0000
       N       E                     dE             d eps       ncg     rms          ort
SDA:   1    -0.425768545346E+03    0.19934E-01    0.00000E+00  9180   0.517E-01 0.000E+00
CGA:   2    -0.425781673785E+03   -0.13128E-01   -0.13135E-01  9180   0.255E-01 0.201E-03
CGA:   3    -0.425786034123E+03   -0.43603E-02   -0.44117E-02  9180   0.614E-02 0.450E-03
CGA:   4    -0.425787201529E+03   -0.11674E-02   -0.11723E-02  9180   0.138E-02 0.524E-04
CGA:   5    -0.425787476794E+03   -0.27526E-03   -0.27076E-03  9180   0.364E-03-0.567E-04
CGA:   6    -0.425787557470E+03   -0.80676E-04   -0.79980E-04  9180   0.122E-03-0.172E-04
CGA:   7    -0.425787580199E+03   -0.22729E-04   -0.23838E-04  9180   0.346E-04 0.176E-04
CGA:   8    -0.425787584916E+03   -0.47173E-05   -0.65187E-05  9180   0.142E-04 0.180E-04
  79 F= -.42578758E+03 E0= -.42578758E+03  d E =0.899969E-03  mag=    18.0000
       N       E                     dE             d eps       ncg     rms          ort
SDA:   1    -0.425762319526E+03    0.25261E-01    0.00000E+00  9180   0.639E-01 0.000E+00
CGA:   2    -0.425779970355E+03   -0.17651E-01   -0.17659E-01  9180   0.304E-01-0.430E-03
CGA:   3    -0.425785219574E+03   -0.52492E-02   -0.52642E-02  9180   0.746E-02 0.167E-03
CGA:   4    -0.425786515438E+03   -0.12959E-02   -0.12972E-02  9180   0.139E-02 0.137E-04
CGA:   5    -0.425786785260E+03   -0.26982E-03   -0.26988E-03  9180   0.375E-03 0.679E-06
CGA:   6    -0.425786862345E+03   -0.77085E-04   -0.77695E-04  9180   0.998E-04 0.152E-04
CGA:   7    -0.425786887052E+03   -0.24707E-04   -0.24771E-04  9180   0.367E-04 0.101E-04
CGA:   8    -0.425786902065E+03   -0.15012E-04   -0.17683E-04  9180   0.385E-04-0.138E-04
CGA:   9    -0.425786903308E+03   -0.12436E-05   -0.14555E-04  9180   0.635E-04-0.378E-04
CGA:  10    -0.425786912557E+03   -0.92487E-05   -0.10929E-04  9180   0.137E-04 0.169E-04
  80 F= -.42578691E+03 E0= -.42578691E+03  d E =0.672359E-03  mag=    18.0000
