       N       E                     dE             d eps       ncg     rms          ort
DAV:   1     0.262701634879E+04    0.26270E+04   -0.14439E+05  6336   0.164E+03
DAV:   2    -0.102841199986E+03   -0.27299E+04   -0.25178E+04  6336   0.424E+02
DAV:   3    -0.429202155792E+03   -0.32636E+03   -0.31907E+03  6336   0.164E+02
DAV:   4    -0.442381376080E+03   -0.13179E+02   -0.13018E+02  6336   0.320E+01
DAV:   5    -0.443181386548E+03   -0.80001E+00   -0.79738E+00  6336   0.592E+00
SDA:   6    -0.359764603230E+03    0.83417E+02   -0.79738E+00  6336   0.184E+02 0.000E+00
CGA:   7    -0.362658039960E+03   -0.28934E+01   -0.29115E+01  6336   0.351E+01 0.115E+00
CGA:   8    -0.363257453433E+03   -0.59941E+00   -0.59948E+00  6336   0.101E+01-0.144E-01
CGA:   9    -0.363513411884E+03   -0.25596E+00   -0.25896E+00  6336   0.512E+00-0.487E-01
CGA:  10    -0.363615529919E+03   -0.10212E+00   -0.10256E+00  6336   0.206E+00-0.400E-01
CGA:  11    -0.363665108778E+03   -0.49579E-01   -0.51902E-01  6336   0.107E+00-0.313E-01
CGA:  12    -0.363687678162E+03   -0.22569E-01   -0.23354E-01  6336   0.435E-01-0.143E-01
CGA:  13    -0.363696368657E+03   -0.86905E-02   -0.87090E-02  6336   0.115E-01-0.670E-03
CGA:  14    -0.363699020077E+03   -0.26514E-02   -0.26212E-02  6336   0.365E-02 0.130E-02
CGA:  15    -0.363700231961E+03   -0.12119E-02   -0.11940E-02  6336   0.183E-02 0.228E-03
CGA:  16    -0.363700991596E+03   -0.75964E-03   -0.96519E-03  6336   0.221E-02-0.704E-03
CGA:  17    -0.363694560171E+03    0.64314E-02   -0.34884E-02  6336   0.235E-01-0.659E-02
CGA:  18    -0.363700440635E+03   -0.58805E-02   -0.58195E-02  6336   0.584E-02-0.369E-03
CGA:  19    -0.363702883940E+03   -0.24433E-02   -0.24454E-02  6336   0.235E-02-0.109E-03
CGA:  20    -0.363703985289E+03   -0.11013E-02   -0.11643E-02  6336   0.109E-02-0.648E-03
CGA:  21    -0.363704247708E+03   -0.26242E-03   -0.26524E-03  6336   0.338E-03 0.364E-04
CGA:  22    -0.363704076098E+03    0.17161E-03   -0.42476E-03  6336   0.275E-02-0.739E-03
CGA:  23    -0.363704496063E+03   -0.41996E-03   -0.54677E-03  6336   0.297E-03 0.506E-03
CGA:  24    -0.363704649952E+03   -0.15389E-03   -0.15429E-03  6336   0.216E-03-0.184E-03
CGA:  25    -0.363704669812E+03   -0.19859E-04   -0.39587E-04  6336   0.411E-04 0.779E-04
CGA:  26    -0.363704665909E+03    0.39030E-05   -0.51930E-04  6336   0.308E-03-0.111E-03
CGA:  27    -0.363704803966E+03   -0.13806E-03   -0.13788E-03  6336   0.950E-04-0.138E-03
CGA:  28    -0.363704804272E+03   -0.30570E-06   -0.92016E-05  6336   0.482E-04 0.325E-04
CGA:  29    -0.363704816931E+03   -0.12659E-04   -0.14815E-04  6336   0.153E-04 0.105E-04
CGA:  30    -0.363704886583E+03   -0.69653E-04    0.11581E-05  6336   0.192E-04-0.840E-06
CGA:  31    -0.363704960162E+03   -0.73579E-04    0.10230E-05  6336   0.291E-04 0.941E-05
CGA:  32    -0.363705039889E+03   -0.79726E-04    0.78689E-05  6336   0.181E-04 0.148E-04
CGA:  33    -0.363705097060E+03   -0.57171E-04    0.14070E-05  6336   0.831E-05-0.382E-05
CGA:  34    -0.363705095628E+03    0.14321E-05   -0.47808E-06  6336   0.605E-05 0.543E-05
   1 F= -.36370510E+03 E0= -.36370510E+03  d E =-.363705E+03  mag=    16.0000
       N       E                     dE             d eps       ncg     rms          ort
SDA:   1    -0.363683952436E+03    0.21145E-01    0.00000E+00  6336   0.534E-01 0.000E+00
CGA:   2    -0.363699256002E+03   -0.15304E-01   -0.15296E-01  6336   0.256E-01-0.798E-04
CGA:   3    -0.363703155580E+03   -0.38996E-02   -0.39973E-02  6336   0.713E-02 0.412E-03
CGA:   4    -0.363704457666E+03   -0.13021E-02   -0.13170E-02  6336   0.182E-02 0.763E-04
CGA:   5    -0.363704884705E+03   -0.42704E-03   -0.38275E-03  6336   0.682E-03-0.288E-03
CGA:   6    -0.363705030320E+03   -0.14561E-03   -0.13176E-03  6336   0.277E-03-0.111E-03
CGA:   7    -0.363705073109E+03   -0.42789E-04   -0.45617E-04  6336   0.799E-04 0.185E-04
CGA:   8    -0.363705090428E+03   -0.17319E-04   -0.18671E-04  6336   0.295E-04 0.111E-04
CGA:   9    -0.363705096705E+03   -0.62769E-05   -0.71929E-05  6336   0.112E-04 0.757E-05
CGA:  10    -0.363705106443E+03   -0.97383E-05    0.48205E-04  6336   0.726E-05-0.210E-05
   2 F= -.36370511E+03 E0= -.36370511E+03  d E =-.108151E-04  mag=    16.0000
       N       E                     dE             d eps       ncg     rms          ort
SDA:   1    -0.363701365897E+03    0.37308E-02    0.00000E+00  6336   0.101E-01 0.000E+00
CGA:   2    -0.363704218302E+03   -0.28524E-02   -0.28552E-02  6336   0.475E-02 0.567E-04
CGA:   3    -0.363705074594E+03   -0.85629E-03   -0.81580E-03  6336   0.153E-02-0.261E-03
CGA:   4    -0.363705339068E+03   -0.26447E-03   -0.25749E-03  6336   0.371E-03-0.499E-04
CGA:   5    -0.363705372097E+03   -0.33029E-04   -0.48317E-04  6336   0.843E-04 0.863E-04
CGA:   6    -0.363705377104E+03   -0.50067E-05   -0.12911E-04  6336   0.338E-04 0.442E-04
CGA:   7    -0.363705389898E+03   -0.12794E-04   -0.17528E-04  6336   0.800E-04-0.211E-04
CGA:   8    -0.363705394660E+03   -0.47623E-05   -0.81897E-05  6336   0.733E-05 0.169E-04
   3 F= -.36370539E+03 E0= -.36370539E+03  d E =-.299032E-03  mag=    16.0000
       N       E                     dE             d eps       ncg     rms          ort
SDA:   1    -0.363704987781E+03    0.40212E-03    0.00000E+00  6336   0.109E-02 0.000E+00
CGA:   2    -0.363705276658E+03   -0.28888E-03   -0.28964E-03  6336   0.598E-03 0.252E-04
CGA:   3    -0.363705385227E+03   -0.10857E-03   -0.97467E-04  6336   0.233E-03-0.831E-04
CGA:   4    -0.363705434743E+03   -0.49516E-04   -0.45782E-04  6336   0.829E-04-0.636E-04
CGA:   5    -0.363705435225E+03   -0.48229E-06   -0.52892E-05  6336   0.274E-04 0.245E-04
CGA:   6    -0.363705433130E+03    0.20947E-05   -0.20932E-05  6336   0.132E-04 0.195E-04
   4 F= -.36370543E+03 E0= -.36370543E+03  d E =-.337502E-03  mag=    16.0000
       N       E                     dE             d eps       ncg     rms          ort
SDA:   1    -0.363704460550E+03    0.97468E-03    0.00000E+00  6336   0.237E-02 0.000E+00
CGA:   2    -0.363705093415E+03   -0.63287E-03   -0.63203E-03  6336   0.106E-02 0.687E-04
CGA:   3    -0.363705322650E+03   -0.22924E-03   -0.21896E-03  6336   0.511E-03-0.192E-03
CGA:   4    -0.363705393808E+03   -0.71158E-04   -0.68334E-04  6336   0.112E-03-0.319E-04
CGA:   5    -0.363705397318E+03   -0.35100E-05   -0.10214E-04  6336   0.362E-04 0.445E-04
CGA:   6    -0.363705396405E+03    0.91313E-06   -0.36803E-05  6336   0.172E-04 0.274E-04
   5 F= -.36370540E+03 E0= -.36370540E+03  d E =-.300777E-03  mag=    16.0000
