 vasp.6.1.2 22Jul20 (build Apr 14 2021 21:39:43) complex                        
  
 executed on             LinuxIFC date 2022.04.20  06:55:33
 running on   64 total cores
 distrk:  each k-point on   64 cores,    1 groups
 distr:  one band on NCORE=  16 cores,    4 groups


--------------------------------------------------------------------------------------------------------


 INCAR:
 POTCAR:    PAW_PBE Ca_sv 06Sep2000               
 POTCAR:    PAW_PBE Fe_pv 02Aug2007               
 POTCAR:    PAW_PBE S 06Sep2000                   
 POTCAR:    PAW_PBE O 08Apr2002                   
 POTCAR:    PAW_PBE Ca_sv 06Sep2000               
   VRHFIN =Ca: 3s3p4s                                                                               
   LEXCH  = PE                                                                                      
   EATOM  =  1006.0909 eV,   73.9456 Ry                                                             
                                                                                                    
   TITEL  = PAW_PBE Ca_sv 06Sep2000                                                                 
   LULTRA =        F    use ultrasoft PP ?                                                          
   IUNSCR =        1    unscreen: 0-lin 1-nonlin 2-no                                               
   RPACOR =    2.000    partial core radius                                                         
   POMASS =   40.078; ZVAL   =   10.000    mass and valenz                                          
   RCORE  =    2.300    outmost cutoff radius                                                       
   RWIGS  =    2.500; RWIGS  =    1.323    wigner-seitz radius (au A)                               
   ENMAX  =  266.622; ENMIN  =  199.967 eV                                                          
   RCLOC  =    1.808    cutoff for local pot                                                        
   LCOR   =        T    correct aug charges                                                         
   LPAW   =        T    paw PP                                                                      
   EAUG   =  420.852                                                                                
   RMAX   =    2.359    core radius for proj-oper                                                   
   RAUG   =    1.300    factor for augmentation sphere                                              
   RDEP   =    2.392    radius for radial grids                                                     
   RDEPT  =    1.987    core radius for aug-charge                                                  
                                                                                                    
   Atomic configuration                                                                             
    7 entries                                                                                       
     n  l   j            E        occ.                                                              
     1  0  0.50     -3949.1705   2.0000                                                             
     2  0  0.50      -414.3434   2.0000                                                             
     2  1  1.50      -334.7047   6.0000                                                             
     3  0  0.50       -47.0896   2.0000                                                             
     4  0  0.50        -3.7663   2.0000                                                             
     3  1  1.50       -28.0061   6.0000                                                             
     3  2  1.50        -4.0817   0.0000                                                             
   Description                                                                                      
     l       E           TYP  RCUT    TYP  RCUT                                                     
     0    -47.0896403     23  2.300                                                                 
     0     -3.7663320     23  2.300                                                                 
     1    -28.0060855     23  2.300                                                                 
     1      6.8029130     23  2.300                                                                 
     2     -4.0817478     23  2.300                                                                 
     2      0.4464412     23  2.300                                                                 
  local pseudopotential read in
  partial core-charges read in
  partial kinetic energy density read in
  atomic valenz-charges read in
  non local Contribution for L=           0  read in
    real space projection operators read in
  non local Contribution for L=           0  read in
    real space projection operators read in
  non local Contribution for L=           1  read in
    real space projection operators read in
  non local Contribution for L=           1  read in
    real space projection operators read in
  non local Contribution for L=           2  read in
    real space projection operators read in
  non local Contribution for L=           2  read in
    real space projection operators read in
    PAW grid and wavefunctions read in
 
   number of l-projection  operators is LMAX  =           6
   number of lm-projection operators is LMMAX =          18
 
 POTCAR:    PAW_PBE Fe_pv 02Aug2007               
   VRHFIN =Fe:  3pd7s1                                                                              
   LEXCH  = PE                                                                                      
   EATOM  =  2457.4239 eV,  180.6156 Ry                                                             
                                                                                                    
   TITEL  = PAW_PBE Fe_pv 02Aug2007                                                                 
   LULTRA =        F    use ultrasoft PP ?                                                          
   IUNSCR =        1    unscreen: 0-lin 1-nonlin 2-no                                               
   RPACOR =    1.750    partial core radius                                                         
   POMASS =   55.847; ZVAL   =   14.000    mass and valenz                                          
   RCORE  =    2.200    outmost cutoff radius                                                       
   RWIGS  =    2.200; RWIGS  =    1.164    wigner-seitz radius (au A)                               
   ENMAX  =  293.238; ENMIN  =  219.928 eV                                                          
   ICORE  =        3    local potential                                                             
   LCOR   =        T    correct aug charges                                                         
   LPAW   =        T    paw PP                                                                      
   EAUG   =  578.342                                                                                
   DEXC   =    0.000                                                                                
   RMAX   =    2.249    core radius for proj-oper                                                   
   RAUG   =    1.300    factor for augmentation sphere                                              
   RDEP   =    2.296    radius for radial grids                                                     
   RDEPT  =    1.766    core radius for aug-charge                                                  
                                                                                                    
   Atomic configuration                                                                             
    8 entries                                                                                       
     n  l   j            E        occ.                                                              
     1  0  0.50     -6993.8440   2.0000                                                             
     2  0  0.50      -814.6047   2.0000                                                             
     2  1  1.50      -693.3689   6.0000                                                             
     3  0  0.50       -89.4732   2.0000                                                             
     3  1  1.50       -55.6373   6.0000                                                             
     3  2  2.50        -3.8151   7.0000                                                             
     4  0  0.50        -4.2551   1.0000                                                             
     4  3  2.50        -1.3606   0.0000                                                             
   Description                                                                                      
     l       E           TYP  RCUT    TYP  RCUT                                                     
     1    -55.6372668     23  2.000                                                                 
     1     -5.4423304     23  2.000                                                                 
     2     -3.8151096     23  2.200                                                                 
     2     -5.1756922     23  2.200                                                                 
     0     -4.2550951     23  2.200                                                                 
     0     27.2116520     23  2.200                                                                 
     3     -1.3605826     23  2.200                                                                 
  local pseudopotential read in
  partial core-charges read in
  partial kinetic energy density read in
  atomic valenz-charges read in
  non local Contribution for L=           1  read in
    real space projection operators read in
  non local Contribution for L=           1  read in
    real space projection operators read in
  non local Contribution for L=           2  read in
    real space projection operators read in
  non local Contribution for L=           2  read in
    real space projection operators read in
  non local Contribution for L=           0  read in
    real space projection operators read in
  non local Contribution for L=           0  read in
    real space projection operators read in
    PAW grid and wavefunctions read in
 
   number of l-projection  operators is LMAX  =           6
   number of lm-projection operators is LMMAX =          18
 
 POTCAR:    PAW_PBE S 06Sep2000                   
   VRHFIN =S : s2p4                                                                                 
   LEXCH  = PE                                                                                      
   EATOM  =   276.8230 eV,   20.3459 Ry                                                             
                                                                                                    
   TITEL  = PAW_PBE S 06Sep2000                                                                     
   LULTRA =        F    use ultrasoft PP ?                                                          
   IUNSCR =        1    unscreen: 0-lin 1-nonlin 2-no                                               
   RPACOR =    1.500    partial core radius                                                         
   POMASS =   32.066; ZVAL   =    6.000    mass and valenz                                          
   RCORE  =    1.900    outmost cutoff radius                                                       
   RWIGS  =    2.200; RWIGS  =    1.164    wigner-seitz radius (au A)                               
   ENMAX  =  258.689; ENMIN  =  194.016 eV                                                          
   ICORE  =        2    local potential                                                             
   LCOR   =        T    correct aug charges                                                         
   LPAW   =        T    paw PP                                                                      
   EAUG   =  335.092                                                                                
   DEXC   =    0.000                                                                                
   RMAX   =    1.942    core radius for proj-oper                                                   
   RAUG   =    1.300    factor for augmentation sphere                                              
   RDEP   =    1.954    radius for radial grids                                                     
   RDEPT  =    1.744    core radius for aug-charge                                                  
                                                                                                    
   Atomic configuration                                                                             
    6 entries                                                                                       
     n  l   j            E        occ.                                                              
     1  0  0.50     -2405.8406   2.0000                                                             
     2  0  0.50      -211.7007   2.0000                                                             
     2  1  1.50      -156.4958   6.0000                                                             
     3  0  0.50       -17.2562   2.0000                                                             
     3  1  0.50        -7.0085   4.0000                                                             
     3  2  1.50        -6.8029   0.0000                                                             
   Description                                                                                      
     l       E           TYP  RCUT    TYP  RCUT                                                     
     0    -17.2561641     23  1.900                                                                 
     0    -15.8743224     23  1.900                                                                 
     1     -7.0085400     23  1.900                                                                 
     1     -2.7779785     23  1.900                                                                 
     2     -6.8029130     23  1.900                                                                 
  local pseudopotential read in
  partial core-charges read in
  partial kinetic energy density read in
  atomic valenz-charges read in
  non local Contribution for L=           0  read in
    real space projection operators read in
  non local Contribution for L=           0  read in
    real space projection operators read in
  non local Contribution for L=           1  read in
    real space projection operators read in
  non local Contribution for L=           1  read in
    real space projection operators read in
    PAW grid and wavefunctions read in
 
   number of l-projection  operators is LMAX  =           4
   number of lm-projection operators is LMMAX =           8
 
 POTCAR:    PAW_PBE O 08Apr2002                   
   VRHFIN =O: s2p4                                                                                  
   LEXCH  = PE                                                                                      
   EATOM  =   432.3788 eV,   31.7789 Ry                                                             
                                                                                                    
   TITEL  = PAW_PBE O 08Apr2002                                                                     
   LULTRA =        F    use ultrasoft PP ?                                                          
   IUNSCR =        1    unscreen: 0-lin 1-nonlin 2-no                                               
   RPACOR =    1.200    partial core radius                                                         
   POMASS =   16.000; ZVAL   =    6.000    mass and valenz                                          
   RCORE  =    1.520    outmost cutoff radius                                                       
   RWIGS  =    1.550; RWIGS  =    0.820    wigner-seitz radius (au A)                               
   ENMAX  =  400.000; ENMIN  =  300.000 eV                                                          
   ICORE  =        2    local potential                                                             
   LCOR   =        T    correct aug charges                                                         
   LPAW   =        T    paw PP                                                                      
   EAUG   =  605.392                                                                                
   DEXC   =    0.000                                                                                
   RMAX   =    1.553    core radius for proj-oper                                                   
   RAUG   =    1.300    factor for augmentation sphere                                              
   RDEP   =    1.550    radius for radial grids                                                     
   RDEPT  =    1.329    core radius for aug-charge                                                  
                                                                                                    
   Atomic configuration                                                                             
    4 entries                                                                                       
     n  l   j            E        occ.                                                              
     1  0  0.50      -514.6923   2.0000                                                             
     2  0  0.50       -23.9615   2.0000                                                             
     2  1  0.50        -9.0305   4.0000                                                             
     3  2  1.50        -9.5241   0.0000                                                             
   Description                                                                                      
     l       E           TYP  RCUT    TYP  RCUT                                                     
     0    -23.9615318     23  1.200                                                                 
     0     -9.5240782     23  1.200                                                                 
     1     -9.0304911     23  1.520                                                                 
     1      8.1634956     23  1.520                                                                 
     2     -9.5240782      7  1.500                                                                 
  local pseudopotential read in
  partial core-charges read in
  partial kinetic energy density read in
  kinetic energy density of atom read in
  atomic valenz-charges read in
  non local Contribution for L=           0  read in
    real space projection operators read in
  non local Contribution for L=           0  read in
    real space projection operators read in
  non local Contribution for L=           1  read in
    real space projection operators read in
  non local Contribution for L=           1  read in
    real space projection operators read in
    PAW grid and wavefunctions read in
 
   number of l-projection  operators is LMAX  =           4
   number of lm-projection operators is LMMAX =           8
 
 Optimization of the real space projectors (new method)

 maximal supplied QI-value         = 16.25
 optimisation between [QCUT,QGAM] = [ 11.54, 23.24] = [ 37.28,151.24] Ry 
 Optimized for a Real-space Cutoff    1.58 Angstroem

   l    n(q)    QCUT    max X(q) W(low)/X(q) W(high)/X(q)  e(spline) 
   0     11    11.539    11.817    0.25E-04    0.22E-05    0.26E-07
   0     11    11.539     8.461    0.39E-04    0.49E-05    0.55E-07
   1     11    11.539     3.957    0.21E-05    0.44E-05    0.32E-07
   1     11    11.539     4.314    0.56E-04    0.44E-04    0.19E-06
   2     10    11.539    14.565    0.25E-03    0.21E-04    0.75E-06
   2     10    11.539    14.552    0.23E-03    0.22E-04    0.72E-06
 Optimization of the real space projectors (new method)

 maximal supplied QI-value         = 17.01
 optimisation between [QCUT,QGAM] = [ 11.57, 23.30] = [ 37.45,152.03] Ry 
 Optimized for a Real-space Cutoff    1.45 Angstroem

   l    n(q)    QCUT    max X(q) W(low)/X(q) W(high)/X(q)  e(spline) 
   1     10    11.565     4.267    0.91E-04    0.15E-03    0.13E-06
   1     10    11.565     5.750    0.14E-03    0.22E-03    0.20E-06
   2      9    11.565    53.656    0.13E-03    0.57E-04    0.16E-06
   2      9    11.565    49.521    0.13E-03    0.59E-04    0.16E-06
   0     10    11.565    31.246    0.61E-04    0.74E-05    0.89E-07
   0     10    11.565    12.201    0.44E-04    0.68E-05    0.74E-07
 Optimization of the real space projectors (new method)

 maximal supplied QI-value         = 19.84
 optimisation between [QCUT,QGAM] = [ 11.51, 23.22] = [ 37.09,150.92] Ry 
 Optimized for a Real-space Cutoff    1.21 Angstroem

   l    n(q)    QCUT    max X(q) W(low)/X(q) W(high)/X(q)  e(spline) 
   0      8    11.508   187.594    0.96E-04    0.18E-03    0.54E-07
   0      8    11.508   164.243    0.96E-04    0.18E-03    0.54E-07
   1      8    11.508    67.533    0.18E-03    0.65E-04    0.94E-07
   1      8    11.508    50.729    0.18E-03    0.63E-04    0.92E-07
 Optimization of the real space projectors (new method)

 maximal supplied QI-value         = 24.76
 optimisation between [QCUT,QGAM] = [ 11.64, 23.27] = [ 37.91,151.63] Ry 
 Optimized for a Real-space Cutoff    1.14 Angstroem

   l    n(q)    QCUT    max X(q) W(low)/X(q) W(high)/X(q)  e(spline) 
   0      8    11.635    20.381    0.10E-03    0.33E-03    0.24E-06
   0      8    11.635    15.268    0.11E-03    0.35E-03    0.26E-06
   1      7    11.635     5.964    0.24E-03    0.31E-03    0.30E-06
   1      7    11.635     5.382    0.22E-03    0.25E-03    0.26E-06
  PAW_PBE Ca_sv 06Sep2000               :
 energy of atom  1       EATOM=-1006.0909
 kinetic energy error for atom=    0.0022 (will be added to EATOM!!)
  PAW_PBE Fe_pv 02Aug2007               :
 energy of atom  2       EATOM=-2457.4239
 kinetic energy error for atom=    0.0062 (will be added to EATOM!!)
  PAW_PBE S 06Sep2000                   :
 energy of atom  3       EATOM= -276.8230
 kinetic energy error for atom=    0.0016 (will be added to EATOM!!)
  PAW_PBE O 08Apr2002                   :
 energy of atom  4       EATOM= -432.3788
 kinetic energy error for atom=    0.0208 (will be added to EATOM!!)
 
 
 POSCAR: Ca2 Fe4 S6 O24
  positions in direct lattice
  velocities in cartesian coordinates

 METAGGA = SCAN     LMAXTAU =  6    LMIXTAU =  F

 exchange correlation table for  LEXCH =        8
   RHO(1)=    0.500       N(1)  =     2000
   RHO(2)=  100.500       N(2)  =     4000
 


--------------------------------------------------------------------------------------------------------


 ion  position               nearest neighbor table
   1  0.498  0.497  0.497-  22 2.36  17 2.36  13 2.36  24 2.37  20 2.38  15 2.39
   2  0.997  0.997  0.998-  21 2.36  18 2.36  14 2.37  19 2.37  23 2.38  16 2.39
   3  0.646  0.648  0.648-  26 2.01  28 2.05  30 2.06  15 2.13  13 2.16  17 2.17
   4  0.148  0.147  0.146-  29 2.01  27 2.05  25 2.06  16 2.13  18 2.17  14 2.17
   5  0.848  0.847  0.847-  36 2.02  34 2.03  32 2.05  19 2.16  23 2.17  21 2.18
   6  0.347  0.347  0.348-  31 2.02  33 2.03  35 2.05  24 2.16  20 2.17  22 2.18
   7  0.949  0.249  0.547-  25 1.45  31 1.46  23 1.48  15 1.49
   8  0.449  0.046  0.747-  32 1.45  26 1.46  22 1.48  18 1.48
   9  0.547  0.948  0.247-  27 1.45  33 1.46  17 1.48  19 1.48
  10  0.747  0.448  0.047-  28 1.45  34 1.46  14 1.48  24 1.48
  11  0.247  0.546  0.949-  35 1.45  29 1.46  21 1.48  13 1.48
  12  0.047  0.749  0.449-  30 1.45  36 1.46  20 1.48  16 1.49
  13  0.404  0.564  0.768-  11 1.48   3 2.16   1 2.36
  14  0.904  0.269  0.065-  10 1.48   4 2.17   2 2.37
  15  0.768  0.406  0.568-   7 1.49   3 2.13   1 2.39
  16  0.068  0.906  0.268-  12 1.49   4 2.13   2 2.39
  17  0.565  0.769  0.404-   9 1.48   3 2.17   1 2.36
  18  0.268  0.063  0.904-   8 1.48   4 2.17   2 2.36
  19  0.727  0.929  0.089-   9 1.48   5 2.16   2 2.37
  20  0.227  0.591  0.430-  12 1.48   6 2.17   1 2.38
  21  0.090  0.726  0.930-  11 1.48   5 2.18   2 2.36
  22  0.430  0.226  0.590-   8 1.48   6 2.18   1 2.36
  23  0.930  0.091  0.727-   7 1.48   5 2.17   2 2.38
  24  0.589  0.428  0.227-  10 1.48   6 2.16   1 2.37
  25  0.982  0.195  0.398-   7 1.45   4 2.06
  26  0.484  0.896  0.692-   8 1.46   3 2.01
  27  0.397  0.982  0.194-   9 1.45   4 2.05
  28  0.694  0.482  0.897-  10 1.45   3 2.05
  29  0.192  0.396  0.984-  11 1.46   4 2.01
  30  0.898  0.695  0.482-  12 1.45   3 2.06
  31  0.098  0.304  0.514-   7 1.46   6 2.02
  32  0.597  0.013  0.802-   8 1.45   5 2.05
  33  0.515  0.098  0.300-   9 1.46   6 2.03
  34  0.800  0.599  0.016-  10 1.46   5 2.03
  35  0.302  0.514  0.097-  11 1.45   6 2.05
  36  0.014  0.804  0.598-  12 1.46   5 2.02
 

IMPORTANT INFORMATION: All symmetrisations will be switched off!
NOSYMM: (Re-)initialisation of all symmetry stuff for point group C_1.


----------------------------------------------------------------------------------------

                                     Primitive cell                                     

  volume of cell :     473.3090

  direct lattice vectors                    reciprocal lattice vectors
     7.602745272  0.000077558  4.363095698     0.132002138 -0.046299366 -0.000819382
     2.525623841  7.123936044  4.337445268    -0.000016223  0.140361898  0.000025773
     0.053870467 -0.001603941  8.769147054    -0.065669739 -0.046390314  0.114431112

  length of vectors
     8.765748099  8.714509281  8.769312667     0.139888767  0.140361901  0.139853692

  position of ions in fractional coordinates (direct lattice)
     0.498102143  0.496824266  0.497401689
     0.997180979  0.996886013  0.998243487
     0.646084059  0.647776649  0.647913177
     0.148056086  0.147489959  0.145987046
     0.847761109  0.846597740  0.846527301
     0.346689045  0.346650893  0.347530280
     0.948544564  0.248603219  0.547341364
     0.449016460  0.045837372  0.747007725
     0.546857275  0.948488810  0.246631289
     0.746832098  0.448389719  0.047042424
     0.247061109  0.546008607  0.948958619
     0.047325042  0.748534121  0.448593038
     0.403856207  0.563662479  0.768302859
     0.904314180  0.268508680  0.065437299
     0.768178749  0.406110722  0.567661672
     0.067563530  0.905899383  0.268125842
     0.565025466  0.768536442  0.403975139
     0.268403268  0.063352012  0.903804877
     0.727069177  0.928623369  0.089084541
     0.226921864  0.590848220  0.430031533
     0.090404394  0.726264901  0.929966951
     0.430003978  0.226055856  0.590371726
     0.929872327  0.090914848  0.726995134
     0.589248000  0.428483863  0.227287909
     0.981525578  0.195050542  0.398126950
     0.484007659  0.895513569  0.691733157
     0.396931296  0.982447974  0.193990822
     0.694280378  0.482029748  0.897288927
     0.191654824  0.395732599  0.984072329
     0.898006493  0.694858825  0.481779600
     0.097778972  0.303616034  0.513864616
     0.596813437  0.013390470  0.801675594
     0.515436670  0.098418475  0.299878100
     0.799891284  0.598551947  0.015588979
     0.301814294  0.513680888  0.096637726
     0.013888009  0.803760786  0.597540279

  ion indices of the primitive-cell ions
   primitive index   ion index
                 1           1
                 2           2
                 3           3
                 4           4
                 5           5
                 6           6
                 7           7
                 8           8
                 9           9
                10          10
                11          11
                12          12
                13          13
                14          14
                15          15
                16          16
                17          17
                18          18
                19          19
                20          20
                21          21
                22          22
                23          23
                24          24
                25          25
                26          26
                27          27
                28          28
                29          29
                30          30
                31          31
                32          32
                33          33
                34          34
                35          35
                36          36

----------------------------------------------------------------------------------------

 
 
 KPOINTS: Fully automatic kpoint scheme           

Automatic generation of k-mesh.
 generate k-points for:    4    4    4
Space group operators:
 irot       det(A)        alpha          n_x          n_y          n_z        tau_x        tau_y        tau_z
    1     1.000000     0.000000     1.000000     0.000000     0.000000     0.000000     0.000000     0.000000
 
 Subroutine IBZKPT returns following result:
 ===========================================
 
 Found     36 irreducible k-points:
 
 Following reciprocal coordinates:
            Coordinates               Weight
  0.000000  0.000000  0.000000      1.000000
  0.250000  0.000000 -0.000000      2.000000
  0.500000  0.000000 -0.000000      1.000000
 -0.000000  0.250000  0.000000      2.000000
  0.250000  0.250000 -0.000000      2.000000
  0.500000  0.250000 -0.000000      2.000000
 -0.250000  0.250000  0.000000      2.000000
 -0.000000  0.500000  0.000000      1.000000
  0.250000  0.500000  0.000000      2.000000
  0.500000  0.500000 -0.000000      1.000000
  0.000000 -0.000000  0.250000      2.000000
  0.250000 -0.000000  0.250000      2.000000
  0.500000  0.000000  0.250000      2.000000
 -0.250000 -0.000000  0.250000      2.000000
  0.000000  0.250000  0.250000      2.000000
  0.250000  0.250000  0.250000      2.000000
  0.500000  0.250000  0.250000      2.000000
 -0.250000  0.250000  0.250000      2.000000
 -0.000000  0.500000  0.250000      2.000000
  0.250000  0.500000  0.250000      2.000000
  0.500000  0.500000  0.250000      2.000000
 -0.250000  0.500000  0.250000      2.000000
  0.000000 -0.250000  0.250000      2.000000
  0.250000 -0.250000  0.250000      2.000000
  0.500000 -0.250000  0.250000      2.000000
 -0.250000 -0.250000  0.250000      2.000000
  0.000000 -0.000000  0.500000      1.000000
  0.250000 -0.000000  0.500000      2.000000
  0.500000 -0.000000  0.500000      1.000000
 -0.000000  0.250000  0.500000      2.000000
  0.250000  0.250000  0.500000      2.000000
  0.500000  0.250000  0.500000      2.000000
 -0.250000  0.250000  0.500000      2.000000
  0.000000  0.500000  0.500000      1.000000
  0.250000  0.500000  0.500000      2.000000
  0.500000  0.500000  0.500000      1.000000
 
 Following cartesian coordinates:
            Coordinates               Weight
  0.000000  0.000000  0.000000      1.000000
  0.033001 -0.011575 -0.000205      2.000000
  0.066001 -0.023150 -0.000410      1.000000
 -0.000004  0.035090  0.000006      2.000000
  0.032996  0.023516 -0.000198      2.000000
  0.065997  0.011941 -0.000403      2.000000
 -0.033005  0.046665  0.000211      2.000000
 -0.000008  0.070181  0.000013      1.000000
  0.032992  0.058606 -0.000192      2.000000
  0.065993  0.047031 -0.000397      1.000000
 -0.016417 -0.011598  0.028608      2.000000
  0.016583 -0.023172  0.028403      2.000000
  0.049584 -0.034747  0.028198      2.000000
 -0.049418 -0.000023  0.028813      2.000000
 -0.016421  0.023493  0.028614      2.000000
  0.016579  0.011918  0.028409      2.000000
  0.049580  0.000343  0.028205      2.000000
 -0.049422  0.035068  0.028819      2.000000
 -0.016426  0.058583  0.028621      2.000000
  0.016575  0.047009  0.028416      2.000000
  0.049576  0.035434  0.028211      2.000000
 -0.049426  0.070158  0.028826      2.000000
 -0.016413 -0.046688  0.028601      2.000000
  0.016587 -0.058263  0.028396      2.000000
  0.049588 -0.069838  0.028192      2.000000
 -0.049414 -0.035113  0.028806      2.000000
 -0.032835 -0.023195  0.057216      1.000000
  0.000166 -0.034770  0.057011      2.000000
  0.033166 -0.046345  0.056806      1.000000
 -0.032839  0.011895  0.057222      2.000000
  0.000162  0.000320  0.057017      2.000000
  0.033162 -0.011254  0.056812      2.000000
 -0.065839  0.023470  0.057427      2.000000
 -0.032843  0.046986  0.057228      1.000000
  0.000158  0.035411  0.057024      2.000000
  0.033158  0.023836  0.056819      1.000000
 


--------------------------------------------------------------------------------------------------------




 Dimension of arrays:
   k-points           NKPTS =     36   k-points in BZ     NKDIM =     36   number of bands    NBANDS=    176
   number of dos      NEDOS =    301   number of ions     NIONS =     36
   non local maximal  LDIM  =      6   non local SUM 2l+1 LMDIM =     18
   total plane-waves  NPLWV = 343000
   max r-space proj   IRMAX =  12019   max aug-charges    IRDMAX=  34771
   dimension x,y,z NGX =    70 NGY =   70 NGZ =   70
   dimension x,y,z NGXF=   140 NGYF=  140 NGZF=  140
   support grid    NGXF=   140 NGYF=  140 NGZF=  140
   ions per type =               2   4   6  24
   NGX,Y,Z   is equivalent  to a cutoff of  13.28, 13.35, 13.27 a.u.
   NGXF,Y,Z  is equivalent  to a cutoff of  26.55, 26.71, 26.54 a.u.

 SYSTEM =  unknown system                          
 POSCAR =  Ca2 Fe4 S6 O24                          

 Startparameter for this run:
   NWRITE =      2    write-flag & timer
   PREC   = accura    normal or accurate (medium, high low for compatibility)
   ISTART =      0    job   : 0-new  1-cont  2-samecut
   ICHARG =      1    charge: 1-file 2-atom 10-const
   ISPIN  =      2    spin polarized calculation?
   LNONCOLLINEAR =      F non collinear calculations
   LSORBIT =      F    spin-orbit coupling
   INIWAV =      1    electr: 0-lowe 1-rand  2-diag
   LASPH  =      T    aspherical Exc in radial PAW
   METAGGA=      F    non-selfconsistent MetaGGA calc.

 Electronic Relaxation 1
   ENCUT  =  520.0 eV  38.22 Ry    6.18 a.u.  16.30 16.20 16.31*2*pi/ulx,y,z
   ENINI  =  520.0     initial cutoff
   ENAUG  =  605.4 eV  augmentation charge cutoff
   NELM   =    150;   NELMIN=  6; NELMDL= -5     # of ELM steps 
   EDIFF  = 0.1E-04   stopping-criterion for ELM
   LREAL  =      T    real-space projection
   NLSPLINE    = F    spline interpolate recip. space projectors
   LCOMPAT=      F    compatible to vasp.4.4
   GGA_COMPAT  = T    GGA compatible to vasp.4.4-vasp.4.6
   LMAXPAW     = -100 max onsite density
   LMAXMIX     =    2 max onsite mixed and CHGCAR
   VOSKOWN=      0    Vosko Wilk Nusair interpolation
   ROPT   =   -0.00025  -0.00025  -0.00025  -0.00025
 Ionic relaxation
   EDIFFG = -.3E-01   stopping-criterion for IOM
   NSW    =    199    number of steps for IOM
   NBLOCK =      1;   KBLOCK =    199    inner block; outer block 
   IBRION =      2    ionic relax: 0-MD 1-quasi-New 2-CG
   NFREE  =      1    steps in history (QN), initial steepest desc. (CG)
   ISIF   =      3    stress and relaxation
   IWAVPR =     11    prediction:  0-non 1-charg 2-wave 3-comb
   ISYM   =      0    0-nonsym 1-usesym 2-fastsym
   LCORR  =      T    Harris-Foulkes like correction to forces

   POTIM  = 0.5000    time-step for ionic-motion
   TEIN   =    0.0    initial temperature
   TEBEG  =    0.0;   TEEND  =   0.0 temperature during run
   SMASS  =  -3.00    Nose mass-parameter (am)
   estimated Nose-frequenzy (Omega)   =  0.10E-29 period in steps = 0.13E+47 mass=  -0.176E-26a.u.
   SCALEE = 1.0000    scale energy and forces
   NPACO  =    256;   APACO  = 16.0  distance and # of slots for P.C.
   PSTRESS=    0.0 pullay stress

  Mass of Ions in am
   POMASS =  40.08 55.85 32.07 16.00
  Ionic Valenz
   ZVAL   =  10.00 14.00  6.00  6.00
  Atomic Wigner-Seitz radii
   RWIGS  =  -1.00 -1.00 -1.00 -1.00
  virtual crystal weights 
   VCA    =   1.00  1.00  1.00  1.00
   NELECT =     256.0000    total number of electrons
   NUPDOWN=      -1.0000    fix difference up-down

 DOS related values:
   EMIN   =  10.00;   EMAX   =-10.00  energy-range for DOS
   EFERMI =   0.00
   ISMEAR =     0;   SIGMA  =   0.05  broadening in eV -4-tet -1-fermi 0-gaus

 Electronic relaxation 2 (details)
   IALGO  =     58    algorithm
   LDIAG  =      T    sub-space diagonalisation (order eigenvalues)
   LSUBROT=      F    optimize rotation matrix (better conditioning)
   TURBO    =      0    0=normal 1=particle mesh
   IRESTART =      0    0=no restart 2=restart with 2 vectors
   NREBOOT  =      0    no. of reboots
   NMIN     =      0    reboot dimension
   EREF     =   0.00    reference energy to select bands
   IMIX   =      4    mixing-type and parameters
     AMIX     =   0.40;   BMIX     =  1.00
     AMIX_MAG =   1.60;   BMIX_MAG =  1.00
     AMIN     =   0.10
     WC   =   100.;   INIMIX=   1;  MIXPRE=   1;  MAXMIX= -45

 Intra band minimization:
   WEIMIN = 0.0010     energy-eigenvalue tresh-hold
   EBREAK =  0.14E-07  absolut break condition
   DEPER  =   0.30     relativ break condition  

   TIME   =   0.40     timestep for ELM

  volume/ion in A,a.u.               =      13.15        88.72
  Fermi-wavevector in a.u.,A,eV,Ry     =   1.333849  2.520609 24.206837  1.779152
  Thomas-Fermi vector in A             =   2.462675
 
 Write flags
   LWAVE        =      F    write WAVECAR
   LDOWNSAMPLE  =      F    k-point downsampling of WAVECAR
   LCHARG       =      T    write CHGCAR
   LVTOT        =      F    write LOCPOT, total local potential
   LVHAR        =      F    write LOCPOT, Hartree potential only
   LELF         =      F    write electronic localiz. function (ELF)
   LORBIT       =     11    0 simple, 1 ext, 2 COOP (PROOUT), +10 PAW based schemes


 Dipole corrections
   LMONO  =      F    monopole corrections only (constant potential shift)
   LDIPOL =      F    correct potential (dipole corrections)
   IDIPOL =      0    1-x, 2-y, 3-z, 4-all directions 
   EPSILON=  1.0000000 bulk dielectric constant

 Exchange correlation treatment:
   GGA     =    --    GGA type
   LEXCH   =     8    internal setting for exchange type
   VOSKOWN=      0    Vosko Wilk Nusair interpolation
   LHFCALC =     F    Hartree Fock is set to
   LHFONE  =     F    Hartree Fock one center treatment
   AEXX    =    0.0000 exact exchange contribution

 Linear response parameters
   LEPSILON=     F    determine dielectric tensor
   LRPA    =     F    only Hartree local field effects (RPA)
   LNABLA  =     F    use nabla operator in PAW spheres
   LVEL    =     F    velocity operator in full k-point grid
   LINTERFAST=   F  fast interpolation
   KINTER  =     0    interpolate to denser k-point grid
   CSHIFT  =0.1000    complex shift for real part using Kramers Kronig
   OMEGAMAX=  -1.0    maximum frequency
   DEG_THRESHOLD= 0.2000000E-02 threshold for treating states as degnerate
   RTIME   =   -0.100 relaxation time in fs
  (WPLASMAI=    0.000 imaginary part of plasma frequency in eV, 0.658/RTIME)
   DFIELD  = 0.0000000 0.0000000 0.0000000 field for delta impulse in time
 
 Orbital magnetization related:
   ORBITALMAG=     F  switch on orbital magnetization
   LCHIMAG   =     F  perturbation theory with respect to B field
   DQ        =  0.001000  dq finite difference perturbation B field
   LLRAUG    =     F  two centre corrections for induced B field



--------------------------------------------------------------------------------------------------------


 conjugate gradient relaxation of ions
 charge density and potential will be updated during run
 spin polarized calculation
 Conjugate gradient for all bands (Freysoldt, et al. PRB 79, 241103 (2009))
 preconditioned conjugated gradient                                        
 perform sub-space diagonalisation
    before iterative eigenvector-optimisation
 modified Broyden-mixing scheme, WC =      100.0
 initial mixing is a Kerker type mixing with AMIX =  0.4000 and BMIX =      1.0000
 Hartree-type preconditioning will be used
 using additional bands           48
 real space projection scheme for non local part
 use partial core corrections
 no Harris-corrections to forces 
 use gradient corrections 
 use of overlap-Matrix (Vanderbilt PP)
 Gauss-broadening in eV      SIGMA  =   0.05


--------------------------------------------------------------------------------------------------------


  energy-cutoff  :      520.00
  volume of cell :      473.31
      direct lattice vectors                 reciprocal lattice vectors
     7.602745272  0.000077558  4.363095698     0.132002138 -0.046299366 -0.000819382
     2.525623841  7.123936044  4.337445268    -0.000016223  0.140361898  0.000025773
     0.053870467 -0.001603941  8.769147054    -0.065669739 -0.046390314  0.114431112

  length of vectors
     8.765748099  8.714509281  8.769312667     0.139888767  0.140361901  0.139853692


 
 k-points in units of 2pi/SCALE and weight: Fully automatic kpoint scheme           
   0.00000000  0.00000000  0.00000000       0.016
   0.03300053 -0.01157484 -0.00020485       0.031
   0.06600107 -0.02314968 -0.00040969       0.016
  -0.00000406  0.03509047  0.00000644       0.031
   0.03299648  0.02351563 -0.00019840       0.031
   0.06599701  0.01194079 -0.00040325       0.031
  -0.03300459  0.04666532  0.00021129       0.031
  -0.00000811  0.07018095  0.00001289       0.016
   0.03299242  0.05860611 -0.00019196       0.031
   0.06599296  0.04703127 -0.00039680       0.016
  -0.01641743 -0.01159758  0.02860778       0.031
   0.01658310 -0.02317242  0.02840293       0.031
   0.04958363 -0.03474726  0.02819809       0.031
  -0.04941797 -0.00002274  0.02881262       0.031
  -0.01642149  0.02349290  0.02861422       0.031
   0.01657904  0.01191805  0.02840938       0.031
   0.04957958  0.00034321  0.02820453       0.031
  -0.04942202  0.03506774  0.02881907       0.031
  -0.01642555  0.05858337  0.02862066       0.031
   0.01657499  0.04700853  0.02841582       0.031
   0.04957552  0.03543369  0.02821097       0.031
  -0.04942608  0.07015821  0.02882551       0.031
  -0.01641338 -0.04668805  0.02860133       0.031
   0.01658716 -0.05826289  0.02839649       0.031
   0.04958769 -0.06983774  0.02819164       0.031
  -0.04941391 -0.03511321  0.02880618       0.031
  -0.03283487 -0.02319516  0.05721556       0.016
   0.00016567 -0.03477000  0.05701071       0.031
   0.03316620 -0.04634484  0.05680587       0.016
  -0.03283893  0.01189532  0.05722200       0.031
   0.00016161  0.00032048  0.05701715       0.031
   0.03316214 -0.01125437  0.05681231       0.031
  -0.06583946  0.02347016  0.05742684       0.031
  -0.03284298  0.04698579  0.05722844       0.016
   0.00015755  0.03541095  0.05702360       0.031
   0.03315809  0.02383611  0.05681875       0.016
 
 k-points in reciprocal lattice and weights: Fully automatic kpoint scheme           
   0.00000000  0.00000000  0.00000000       0.016
   0.25000000  0.00000000 -0.00000000       0.031
   0.50000000  0.00000000 -0.00000000       0.016
  -0.00000000  0.25000000  0.00000000       0.031
   0.25000000  0.25000000 -0.00000000       0.031
   0.50000000  0.25000000 -0.00000000       0.031
  -0.25000000  0.25000000  0.00000000       0.031
  -0.00000000  0.50000000  0.00000000       0.016
   0.25000000  0.50000000  0.00000000       0.031
   0.50000000  0.50000000 -0.00000000       0.016
   0.00000000 -0.00000000  0.25000000       0.031
   0.25000000 -0.00000000  0.25000000       0.031
   0.50000000  0.00000000  0.25000000       0.031
  -0.25000000 -0.00000000  0.25000000       0.031
   0.00000000  0.25000000  0.25000000       0.031
   0.25000000  0.25000000  0.25000000       0.031
   0.50000000  0.25000000  0.25000000       0.031
  -0.25000000  0.25000000  0.25000000       0.031
  -0.00000000  0.50000000  0.25000000       0.031
   0.25000000  0.50000000  0.25000000       0.031
   0.50000000  0.50000000  0.25000000       0.031
  -0.25000000  0.50000000  0.25000000       0.031
   0.00000000 -0.25000000  0.25000000       0.031
   0.25000000 -0.25000000  0.25000000       0.031
   0.50000000 -0.25000000  0.25000000       0.031
  -0.25000000 -0.25000000  0.25000000       0.031
   0.00000000 -0.00000000  0.50000000       0.016
   0.25000000 -0.00000000  0.50000000       0.031
   0.50000000 -0.00000000  0.50000000       0.016
  -0.00000000  0.25000000  0.50000000       0.031
   0.25000000  0.25000000  0.50000000       0.031
   0.50000000  0.25000000  0.50000000       0.031
  -0.25000000  0.25000000  0.50000000       0.031
   0.00000000  0.50000000  0.50000000       0.016
   0.25000000  0.50000000  0.50000000       0.031
   0.50000000  0.50000000  0.50000000       0.016
 
 position of ions in fractional coordinates (direct lattice) 
   0.49810214  0.49682427  0.49740169
   0.99718098  0.99688601  0.99824349
   0.64608406  0.64777665  0.64791318
   0.14805609  0.14748996  0.14598705
   0.84776111  0.84659774  0.84652730
   0.34668904  0.34665089  0.34753028
   0.94854456  0.24860322  0.54734136
   0.44901646  0.04583737  0.74700773
   0.54685727  0.94848881  0.24663129
   0.74683210  0.44838972  0.04704242
   0.24706111  0.54600861  0.94895862
   0.04732504  0.74853412  0.44859304
   0.40385621  0.56366248  0.76830286
   0.90431418  0.26850868  0.06543730
   0.76817875  0.40611072  0.56766167
   0.06756353  0.90589938  0.26812584
   0.56502547  0.76853644  0.40397514
   0.26840327  0.06335201  0.90380488
   0.72706918  0.92862337  0.08908454
   0.22692186  0.59084822  0.43003153
   0.09040439  0.72626490  0.92996695
   0.43000398  0.22605586  0.59037173
   0.92987233  0.09091485  0.72699513
   0.58924800  0.42848386  0.22728791
   0.98152558  0.19505054  0.39812695
   0.48400766  0.89551357  0.69173316
   0.39693130  0.98244797  0.19399082
   0.69428038  0.48202975  0.89728893
   0.19165482  0.39573260  0.98407233
   0.89800649  0.69485882  0.48177960
   0.09777897  0.30361603  0.51386462
   0.59681344  0.01339047  0.80167559
   0.51543667  0.09841847  0.29987810
   0.79989128  0.59855195  0.01558898
   0.30181429  0.51368089  0.09663773
   0.01388801  0.80376079  0.59754028
 
 position of ions in cartesian coordinates  (Angst):
   5.06853018  3.53858513  8.69000393
  10.15284789  7.10022841 17.42847849
   6.58295606  4.61373031 11.31026827
   1.50600126  1.05048637  2.56589437
   8.62910202  6.02981613 14.79425660
   3.53001987  2.46898826  6.06376088
   7.86890645  1.77022910 10.01661047
   3.56976738  0.32537918  8.70853947
   6.56642865  6.75662045  8.66275497
   6.81297216  3.19428215  5.61588771
   3.30847588  3.88822749 11.76779139
   2.27448178  5.33179336  7.38698779
   4.53540409  4.01429446 10.94427918
   7.55694741  1.91280384  5.68408031
   6.89653047  2.89225590 10.09102911
   2.81607345  6.45314445  6.57531008
   6.25854098  5.47440033  9.34126233
   2.24929342  0.44988685  9.37145291
   7.87787409  6.61536699  7.98132087
   3.24065548  4.20849279  7.32386338
   2.57169128  5.17238011 11.69959423
   3.87194637  1.60949389  8.03370989
   7.33836271  0.64657762 10.82658736
   5.57433561  3.05217278  6.42259181
   7.97636053  1.38896514  8.61974486
   5.97878135  6.37850943 12.06192260
   5.50951194  6.99861617  7.69429759
   6.54420006  3.43256374 12.98844793
   2.50958693  2.81761019 11.18215179
   8.60822033  4.94942673 11.15679655
   1.53789063  2.16212458  6.24969133
   4.61442646  0.09415330  9.69204574
   4.18345632  0.70068591  5.30545942
   7.59392653  4.26408283  6.22289058
   3.59718782  3.65929820  4.39233781
   2.16777417  5.72498309  8.78678171
 


--------------------------------------------------------------------------------------------------------


 k-point   1 :   0.0000 0.0000 0.0000  plane waves:   12719
 k-point   2 :   0.2500 0.0000-0.0000  plane waves:   12739
 k-point   3 :   0.5000 0.0000-0.0000  plane waves:   12778
 k-point   4 :  -0.0000 0.2500 0.0000  plane waves:   12742
 k-point   5 :   0.2500 0.2500-0.0000  plane waves:   12766
 k-point   6 :   0.5000 0.2500-0.0000  plane waves:   12742
 k-point   7 :  -0.2500 0.2500 0.0000  plane waves:   12727
 k-point   8 :  -0.0000 0.5000 0.0000  plane waves:   12762
 k-point   9 :   0.2500 0.5000 0.0000  plane waves:   12750
 k-point  10 :   0.5000 0.5000-0.0000  plane waves:   12750
 k-point  11 :   0.0000-0.0000 0.2500  plane waves:   12739
 k-point  12 :   0.2500-0.0000 0.2500  plane waves:   12746
 k-point  13 :   0.5000 0.0000 0.2500  plane waves:   12737
 k-point  14 :  -0.2500-0.0000 0.2500  plane waves:   12744
 k-point  15 :   0.0000 0.2500 0.2500  plane waves:   12763
 k-point  16 :   0.2500 0.2500 0.2500  plane waves:   12745
 k-point  17 :   0.5000 0.2500 0.2500  plane waves:   12738
 k-point  18 :  -0.2500 0.2500 0.2500  plane waves:   12752
 k-point  19 :  -0.0000 0.5000 0.2500  plane waves:   12747
 k-point  20 :   0.2500 0.5000 0.2500  plane waves:   12740
 k-point  21 :   0.5000 0.5000 0.2500  plane waves:   12749
 k-point  22 :  -0.2500 0.5000 0.2500  plane waves:   12729
 k-point  23 :   0.0000-0.2500 0.2500  plane waves:   12727
 k-point  24 :   0.2500-0.2500 0.2500  plane waves:   12747
 k-point  25 :   0.5000-0.2500 0.2500  plane waves:   12707
 k-point  26 :  -0.2500-0.2500 0.2500  plane waves:   12749
 k-point  27 :   0.0000-0.0000 0.5000  plane waves:   12776
 k-point  28 :   0.2500-0.0000 0.5000  plane waves:   12738
 k-point  29 :   0.5000-0.0000 0.5000  plane waves:   12744
 k-point  30 :  -0.0000 0.2500 0.5000  plane waves:   12742
 k-point  31 :   0.2500 0.2500 0.5000  plane waves:   12738
 k-point  32 :   0.5000 0.2500 0.5000  plane waves:   12733
 k-point  33 :  -0.2500 0.2500 0.5000  plane waves:   12701
 k-point  34 :   0.0000 0.5000 0.5000  plane waves:   12750
 k-point  35 :   0.2500 0.5000 0.5000  plane waves:   12745
 k-point  36 :   0.5000 0.5000 0.5000  plane waves:   12768

 maximum and minimum number of plane-waves per node :       821      771

 maximum number of plane-waves:     12778
 maximum index in each direction: 
   IXMAX=   16   IYMAX=   16   IZMAX=   16
   IXMIN=  -16   IYMIN=  -16   IZMIN=  -16


 real space projection operators:
  total allocation   :      16792.59 KBytes
  max/ min on nodes  :       1238.70        935.72


 parallel 3D FFT for wavefunctions:
    minimum data exchange during FFTs selected (reduces bandwidth)
 parallel 3D FFT for charge:
    minimum data exchange during FFTs selected (reduces bandwidth)


 total amount of memory used by VASP MPI-rank0   178901. kBytes
=======================================================================

   base      :      30000. kBytes
   nonlr-proj:       8866. kBytes
   fftplans  :       2612. kBytes
   grid      :      10205. kBytes
   one-center:         93. kBytes
   wavefun   :     127125. kBytes
 
     INWAV:  cpu time    0.0000: real time    0.0000
 Broyden mixing: mesh for mixing (old mesh)
   NGX = 33   NGY = 33   NGZ = 33
  (NGX  =140   NGY  =140   NGZ  =140)
  gives a total of  35937 points

 initial charge density was supplied:
 number of electron     256.0000014 magnetization      16.0000007
 keeping initial charge density in first step


--------------------------------------------------------------------------------------------------------


 Maximum index for non-local projection operator         1051
 Maximum index for augmentation-charges         1976 (set IRDMAX)


--------------------------------------------------------------------------------------------------------


 First call to EWALD:  gamma=   0.227
 Maximum number of real-space cells 3x 3x 3
 Maximum number of reciprocal cells 3x 3x 3

    FEWALD:  cpu time    0.0020: real time    0.0021


--------------------------------------- Iteration      1(   1)  ---------------------------------------


    POTLOK:  cpu time    0.1485: real time    0.1560
    SETDIJ:  cpu time    0.9144: real time    0.9221
    TRIAL :  cpu time   39.2805: real time   39.4774
    CORREC:  cpu time    0.0082: real time    0.0084
    --------------------------------------------
      LOOP:  cpu time   40.4126: real time   40.6334

 eigenvalue-minimisations  : 26544
 total energy-change (2. order) : 0.2627016E+04  (-0.1443927E+05)
 number of electron     256.0000014 magnetization      16.0000007
 augmentation part      256.0000014 magnetization      16.0000007

 Free energy of the ion-electron system (eV)
  ---------------------------------------------------
  alpha Z        PSCENC =       713.29773809
  Ewald energy   TEWEN  =    -13828.61083199
  -Hartree energ DENC   =     -8973.77353937
  -exchange      EXHF   =         0.00000000
  -V(xc)+E(xc)   XCENC  =      1355.37583797
  PAW double counting   =     47222.64238377   -47737.11467472
  entropy T*S    EENTRO =        -0.00913595
  eigenvalues    EBANDS =        -4.15993092
  atomic energy  EATOM  =     23879.36850190
  ---------------------------------------------------
  free energy    TOTEN  =      2627.01634879 eV

  energy without entropy =     2627.02548474  energy(sigma->0) =     2627.02091676


--------------------------------------------------------------------------------------------------------




--------------------------------------- Iteration      1(   2)  ---------------------------------------


    TRIAL :  cpu time   39.9033: real time   39.9101
    CORREC:  cpu time    0.0080: real time    0.0082
    --------------------------------------------
      LOOP:  cpu time   39.9163: real time   39.9629

 eigenvalue-minimisations  : 27264
 total energy-change (2. order) :-0.2729858E+04  (-0.2517771E+04)
 number of electron     256.0000014 magnetization      16.0000007
 augmentation part      256.0000014 magnetization      16.0000007

 Free energy of the ion-electron system (eV)
  ---------------------------------------------------
  alpha Z        PSCENC =       713.29773809
  Ewald energy   TEWEN  =    -13828.61083199
  -Hartree energ DENC   =     -8973.77353937
  -exchange      EXHF   =         0.00000000
  -V(xc)+E(xc)   XCENC  =      1355.37583797
  PAW double counting   =     47222.64238377   -47737.11467472
  entropy T*S    EENTRO =        -0.01391193
  eigenvalues    EBANDS =     -2734.01270371
  atomic energy  EATOM  =     23879.36850190
  ---------------------------------------------------
  free energy    TOTEN  =      -102.84119999 eV

  energy without entropy =     -102.82728805  energy(sigma->0) =     -102.83424402


--------------------------------------------------------------------------------------------------------




--------------------------------------- Iteration      1(   3)  ---------------------------------------


    TRIAL :  cpu time   38.1172: real time   38.1295
    CORREC:  cpu time    0.0078: real time    0.0081
    --------------------------------------------
      LOOP:  cpu time   38.1293: real time   38.1602

 eigenvalue-minimisations  : 28672
 total energy-change (2. order) :-0.3263610E+03  (-0.3190737E+03)
 number of electron     256.0000014 magnetization      16.0000007
 augmentation part      256.0000014 magnetization      16.0000007

 Free energy of the ion-electron system (eV)
  ---------------------------------------------------
  alpha Z        PSCENC =       713.29773809
  Ewald energy   TEWEN  =    -13828.61083199
  -Hartree energ DENC   =     -8973.77353937
  -exchange      EXHF   =         0.00000000
  -V(xc)+E(xc)   XCENC  =      1355.37583797
  PAW double counting   =     47222.64238377   -47737.11467472
  entropy T*S    EENTRO =        -0.00589009
  eigenvalues    EBANDS =     -3060.38168135
  atomic energy  EATOM  =     23879.36850190
  ---------------------------------------------------
  free energy    TOTEN  =      -429.20215579 eV

  energy without entropy =     -429.19626570  energy(sigma->0) =     -429.19921075


--------------------------------------------------------------------------------------------------------




--------------------------------------- Iteration      1(   4)  ---------------------------------------


    TRIAL :  cpu time   44.4926: real time   44.6109
    CORREC:  cpu time    0.0080: real time    0.0082
    --------------------------------------------
      LOOP:  cpu time   44.5084: real time   44.6622

 eigenvalue-minimisations  : 32560
 total energy-change (2. order) :-0.1317922E+02  (-0.1301821E+02)
 number of electron     256.0000014 magnetization      16.0000007
 augmentation part      256.0000014 magnetization      16.0000007

 Free energy of the ion-electron system (eV)
  ---------------------------------------------------
  alpha Z        PSCENC =       713.29773809
  Ewald energy   TEWEN  =    -13828.61083199
  -Hartree energ DENC   =     -8973.77353937
  -exchange      EXHF   =         0.00000000
  -V(xc)+E(xc)   XCENC  =      1355.37583797
  PAW double counting   =     47222.64238377   -47737.11467472
  entropy T*S    EENTRO =        -0.00618923
  eigenvalues    EBANDS =     -3073.56060251
  atomic energy  EATOM  =     23879.36850190
  ---------------------------------------------------
  free energy    TOTEN  =      -442.38137608 eV

  energy without entropy =     -442.37518685  energy(sigma->0) =     -442.37828147


--------------------------------------------------------------------------------------------------------




--------------------------------------- Iteration      1(   5)  ---------------------------------------


    TRIAL :  cpu time   52.8305: real time   52.8392
    CORREC:  cpu time    0.0079: real time    0.0081
    CHARGE:  cpu time    5.4171: real time    5.4181
    --------------------------------------------
      LOOP:  cpu time   58.2623: real time   58.3062

 eigenvalue-minimisations  : 41896
 total energy-change (2. order) :-0.8000105E+00  (-0.7973772E+00)
 number of electron     256.0000014 magnetization      16.0000007
 augmentation part       49.4400166 magnetization      11.0083953

 Free energy of the ion-electron system (eV)
  ---------------------------------------------------
  alpha Z        PSCENC =       713.29773809
  Ewald energy   TEWEN  =    -13828.61083199
  -Hartree energ DENC   =     -8973.77353937
  -exchange      EXHF   =         0.00000000
  -V(xc)+E(xc)   XCENC  =      1355.37583797
  PAW double counting   =     47222.64238377   -47737.11467472
  entropy T*S    EENTRO =        -0.00620595
  eigenvalues    EBANDS =     -3074.36059625
  atomic energy  EATOM  =     23879.36850190
  ---------------------------------------------------
  free energy    TOTEN  =      -443.18138655 eV

  energy without entropy =     -443.17518060  energy(sigma->0) =     -443.17828357


--------------------------------------------------------------------------------------------------------




--------------------------------------- Iteration      1(   6)  ---------------------------------------


    POTLOK:  cpu time    0.1577: real time    0.1577
    SETDIJ:  cpu time    0.9190: real time    0.9192
    TRIAL :  cpu time   31.0330: real time   31.0775
    CORREC:  cpu time   14.8915: real time   14.9152
    CHARGE:  cpu time    5.4314: real time    5.4341
    --------------------------------------------
      LOOP:  cpu time   52.4354: real time   52.5466

 eigenvalue-minimisations  :     0
 total energy-change (2. order) : 0.8341678E+02  (-0.2911457E+01)
 number of electron     256.0000014 magnetization      16.0000007
 augmentation part       50.6862136 magnetization      11.1499124

 Free energy of the ion-electron system (eV)
  ---------------------------------------------------
  alpha Z        PSCENC =       713.29773809
  Ewald energy   TEWEN  =    -13828.61083199
  -Hartree energ DENC   =     -8755.33375247
  -exchange      EXHF   =         0.00000000
  -V(xc)+E(xc)   XCENC  =      1374.44410648
  PAW double counting   =     46154.31622743   -46651.87012395
  entropy T*S    EENTRO =        -0.00036301
  eigenvalues    EBANDS =     -3245.37026278
  atomic energy  EATOM  =     23879.36850190
  ---------------------------------------------------
  free energy    TOTEN  =      -359.76460323 eV

  energy without entropy =     -359.76424022  energy(sigma->0) =     -359.76442172


--------------------------------------------------------------------------------------------------------




--------------------------------------- Iteration      1(   7)  ---------------------------------------


    POTLOK:  cpu time    0.1488: real time    0.1488
    SETDIJ:  cpu time    0.9205: real time    0.9204
    TRIAL :  cpu time   30.2611: real time   30.2611
    CORREC:  cpu time   14.8894: real time   14.8945
    CHARGE:  cpu time    5.4037: real time    5.4038
    --------------------------------------------
      LOOP:  cpu time   51.6279: real time   51.6606

 eigenvalue-minimisations  :     0
 total energy-change (2. order) :-0.2893437E+01  (-0.5994797E+00)
 number of electron     256.0000014 magnetization      16.0000007
 augmentation part       50.8668184 magnetization      11.1636792

 Free energy of the ion-electron system (eV)
  ---------------------------------------------------
  alpha Z        PSCENC =       713.29773809
  Ewald energy   TEWEN  =    -13828.61083199
  -Hartree energ DENC   =     -8952.79084331
  -exchange      EXHF   =         0.00000000
  -V(xc)+E(xc)   XCENC  =      1386.81683794
  PAW double counting   =     46574.15375140   -47091.86597815
  entropy T*S    EENTRO =        -0.00000131
  eigenvalues    EBANDS =     -3043.02685283
  atomic energy  EATOM  =     23879.36850190
  ---------------------------------------------------
  free energy    TOTEN  =      -362.65803996 eV

  energy without entropy =     -362.65803865  energy(sigma->0) =     -362.65803930


--------------------------------------------------------------------------------------------------------




--------------------------------------- Iteration      1(   8)  ---------------------------------------


    POTLOK:  cpu time    0.1513: real time    0.1518
    SETDIJ:  cpu time    0.9209: real time    0.9209
    TRIAL :  cpu time   31.0045: real time   31.0172
    CORREC:  cpu time   14.8813: real time   14.8816
    CHARGE:  cpu time    5.4272: real time    5.4270
    --------------------------------------------
      LOOP:  cpu time   52.3922: real time   52.4405

 eigenvalue-minimisations  :     0
 total energy-change (2. order) :-0.5994135E+00  (-0.2589589E+00)
 number of electron     256.0000014 magnetization      16.0000007
 augmentation part       50.9839909 magnetization      11.1578208

 Free energy of the ion-electron system (eV)
  ---------------------------------------------------
  alpha Z        PSCENC =       713.29773809
  Ewald energy   TEWEN  =    -13828.61083199
  -Hartree energ DENC   =     -8977.15093793
  -exchange      EXHF   =         0.00000000
  -V(xc)+E(xc)   XCENC  =      1389.20774551
  PAW double counting   =     46961.06018655   -47474.80820780
  entropy T*S    EENTRO =        -0.00000000
  eigenvalues    EBANDS =     -3025.62164646
  atomic energy  EATOM  =     23879.36850190
  ---------------------------------------------------
  free energy    TOTEN  =      -363.25745343 eV

  energy without entropy =     -363.25745343  energy(sigma->0) =     -363.25745343


--------------------------------------------------------------------------------------------------------




--------------------------------------- Iteration      1(   9)  ---------------------------------------


    POTLOK:  cpu time    0.1500: real time    0.1500
    SETDIJ:  cpu time    0.9192: real time    0.9192
    TRIAL :  cpu time   31.0004: real time   31.0027
    CORREC:  cpu time   14.8661: real time   14.8666
    CHARGE:  cpu time    5.4152: real time    5.4151
    --------------------------------------------
      LOOP:  cpu time   52.3524: real time   52.3836

 eigenvalue-minimisations  :     0
 total energy-change (2. order) :-0.2559585E+00  (-0.1025602E+00)
 number of electron     256.0000014 magnetization      16.0000007
 augmentation part       51.0503997 magnetization      11.1386867

 Free energy of the ion-electron system (eV)
  ---------------------------------------------------
  alpha Z        PSCENC =       713.29773809
  Ewald energy   TEWEN  =    -13828.61083199
  -Hartree energ DENC   =     -8970.11060584
  -exchange      EXHF   =         0.00000000
  -V(xc)+E(xc)   XCENC  =      1388.71458601
  PAW double counting   =     47425.29409276   -47939.17443260
  entropy T*S    EENTRO =        -0.00000000
  eigenvalues    EBANDS =     -3032.29246022
  atomic energy  EATOM  =     23879.36850190
  ---------------------------------------------------
  free energy    TOTEN  =      -363.51341188 eV

  energy without entropy =     -363.51341188  energy(sigma->0) =     -363.51341188


--------------------------------------------------------------------------------------------------------




--------------------------------------- Iteration      1(  10)  ---------------------------------------


    POTLOK:  cpu time    0.1504: real time    0.1562
    SETDIJ:  cpu time    0.9340: real time    0.9340
    TRIAL :  cpu time   31.0197: real time   31.0518
    CORREC:  cpu time   14.8267: real time   14.8283
    CHARGE:  cpu time    5.4231: real time    5.4231
    --------------------------------------------
      LOOP:  cpu time   52.3592: real time   52.4455

 eigenvalue-minimisations  :     0
 total energy-change (2. order) :-0.1021180E+00  (-0.5190211E-01)
 number of electron     256.0000014 magnetization      16.0000007
 augmentation part       51.0667079 magnetization      11.1210999

 Free energy of the ion-electron system (eV)
  ---------------------------------------------------
  alpha Z        PSCENC =       713.29773809
  Ewald energy   TEWEN  =    -13828.61083199
  -Hartree energ DENC   =     -8968.07866007
  -exchange      EXHF   =         0.00000000
  -V(xc)+E(xc)   XCENC  =      1388.39145306
  PAW double counting   =     47549.41854127   -48064.64729750
  entropy T*S    EENTRO =        -0.00000000
  eigenvalues    EBANDS =     -3032.75497468
  atomic energy  EATOM  =     23879.36850190
  ---------------------------------------------------
  free energy    TOTEN  =      -363.61552992 eV

  energy without entropy =     -363.61552992  energy(sigma->0) =     -363.61552992


--------------------------------------------------------------------------------------------------------




--------------------------------------- Iteration      1(  11)  ---------------------------------------


    POTLOK:  cpu time    0.1497: real time    0.1556
    SETDIJ:  cpu time    0.9110: real time    0.9170
    TRIAL :  cpu time   30.1524: real time   30.1560
    CORREC:  cpu time   14.7214: real time   14.7226
    CHARGE:  cpu time    5.3627: real time    5.3628
    --------------------------------------------
      LOOP:  cpu time   51.2997: real time   51.3526

 eigenvalue-minimisations  :     0
 total energy-change (2. order) :-0.4957886E-01  (-0.2335435E-01)
 number of electron     256.0000014 magnetization      16.0000007
 augmentation part       51.0673855 magnetization      11.1128513

 Free energy of the ion-electron system (eV)
  ---------------------------------------------------
  alpha Z        PSCENC =       713.29773809
  Ewald energy   TEWEN  =    -13828.61083199
  -Hartree energ DENC   =     -8971.48727791
  -exchange      EXHF   =         0.00000000
  -V(xc)+E(xc)   XCENC  =      1388.65397198
  PAW double counting   =     47447.41593634   -47962.74189903
  entropy T*S    EENTRO =        -0.00000000
  eigenvalues    EBANDS =     -3029.56124816
  atomic energy  EATOM  =     23879.36850190
  ---------------------------------------------------
  free energy    TOTEN  =      -363.66510878 eV

  energy without entropy =     -363.66510878  energy(sigma->0) =     -363.66510878


--------------------------------------------------------------------------------------------------------




--------------------------------------- Iteration      1(  12)  ---------------------------------------


    POTLOK:  cpu time    0.1484: real time    0.1484
    SETDIJ:  cpu time    0.9228: real time    0.9228
    TRIAL :  cpu time   29.9762: real time   29.9778
    CORREC:  cpu time   14.8111: real time   14.8122
    CHARGE:  cpu time    5.4150: real time    5.4151
    --------------------------------------------
      LOOP:  cpu time   51.2771: real time   51.3067

 eigenvalue-minimisations  :     0
 total energy-change (2. order) :-0.2256938E-01  (-0.8709043E-02)
 number of electron     256.0000014 magnetization      16.0000007
 augmentation part       51.0726651 magnetization      11.1137189

 Free energy of the ion-electron system (eV)
  ---------------------------------------------------
  alpha Z        PSCENC =       713.29773809
  Ewald energy   TEWEN  =    -13828.61083199
  -Hartree energ DENC   =     -8974.21524745
  -exchange      EXHF   =         0.00000000
  -V(xc)+E(xc)   XCENC  =      1388.89277274
  PAW double counting   =     47355.15427793   -47870.31864440
  entropy T*S    EENTRO =        -0.00000000
  eigenvalues    EBANDS =     -3027.25624498
  atomic energy  EATOM  =     23879.36850190
  ---------------------------------------------------
  free energy    TOTEN  =      -363.68767816 eV

  energy without entropy =     -363.68767816  energy(sigma->0) =     -363.68767816


--------------------------------------------------------------------------------------------------------




--------------------------------------- Iteration      1(  13)  ---------------------------------------


    POTLOK:  cpu time    0.1451: real time    0.1452
    SETDIJ:  cpu time    0.9121: real time    0.9121
    TRIAL :  cpu time   29.0714: real time   29.0736
    CORREC:  cpu time   14.8254: real time   14.8267
    CHARGE:  cpu time    5.4177: real time    5.4179
    --------------------------------------------
      LOOP:  cpu time   50.3742: real time   50.4004

 eigenvalue-minimisations  :     0
 total energy-change (2. order) :-0.8690495E-02  (-0.2621247E-02)
 number of electron     256.0000014 magnetization      16.0000007
 augmentation part       51.0747498 magnetization      11.1145441

 Free energy of the ion-electron system (eV)
  ---------------------------------------------------
  alpha Z        PSCENC =       713.29773809
  Ewald energy   TEWEN  =    -13828.61083199
  -Hartree energ DENC   =     -8974.53095283
  -exchange      EXHF   =         0.00000000
  -V(xc)+E(xc)   XCENC  =      1388.89143042
  PAW double counting   =     47318.54575869   -47833.89242120
  entropy T*S    EENTRO =        -0.00000000
  eigenvalues    EBANDS =     -3026.76559174
  atomic energy  EATOM  =     23879.36850190
  ---------------------------------------------------
  free energy    TOTEN  =      -363.69636866 eV

  energy without entropy =     -363.69636866  energy(sigma->0) =     -363.69636866


--------------------------------------------------------------------------------------------------------




--------------------------------------- Iteration      1(  14)  ---------------------------------------


    POTLOK:  cpu time    0.1450: real time    0.1450
    SETDIJ:  cpu time    0.9128: real time    0.9128
    TRIAL :  cpu time   29.0133: real time   29.0146
    CORREC:  cpu time   14.7939: real time   14.7951
    CHARGE:  cpu time    5.4156: real time    5.4158
    --------------------------------------------
      LOOP:  cpu time   50.2866: real time   50.3210

 eigenvalue-minimisations  :     0
 total energy-change (2. order) :-0.2651420E-02  (-0.1193979E-02)
 number of electron     256.0000014 magnetization      16.0000007
 augmentation part       51.0756192 magnetization      11.1140887

 Free energy of the ion-electron system (eV)
  ---------------------------------------------------
  alpha Z        PSCENC =       713.29773809
  Ewald energy   TEWEN  =    -13828.61083199
  -Hartree energ DENC   =     -8974.01965746
  -exchange      EXHF   =         0.00000000
  -V(xc)+E(xc)   XCENC  =      1388.85943195
  PAW double counting   =     47285.01506197   -47800.39052634
  entropy T*S    EENTRO =        -0.00000000
  eigenvalues    EBANDS =     -3027.21873820
  atomic energy  EATOM  =     23879.36850190
  ---------------------------------------------------
  free energy    TOTEN  =      -363.69902008 eV

  energy without entropy =     -363.69902008  energy(sigma->0) =     -363.69902008


--------------------------------------------------------------------------------------------------------




--------------------------------------- Iteration      1(  15)  ---------------------------------------


    POTLOK:  cpu time    0.1454: real time    0.1454
    SETDIJ:  cpu time    0.9125: real time    0.9125
    TRIAL :  cpu time   28.9955: real time   28.9968
    CORREC:  cpu time   14.8349: real time   14.8361
    CHARGE:  cpu time    5.4839: real time    5.4841
    --------------------------------------------
      LOOP:  cpu time   50.3768: real time   50.4085

 eigenvalue-minimisations  :     0
 total energy-change (2. order) :-0.1211884E-02  (-0.9651941E-03)
 number of electron     256.0000014 magnetization      16.0000007
 augmentation part       51.0771310 magnetization      11.1128351

 Free energy of the ion-electron system (eV)
  ---------------------------------------------------
  alpha Z        PSCENC =       713.29773809
  Ewald energy   TEWEN  =    -13828.61083199
  -Hartree energ DENC   =     -8973.95329934
  -exchange      EXHF   =         0.00000000
  -V(xc)+E(xc)   XCENC  =      1388.87822322
  PAW double counting   =     47241.88121109   -47757.21560819
  entropy T*S    EENTRO =        -0.00000000
  eigenvalues    EBANDS =     -3027.34616674
  atomic energy  EATOM  =     23879.36850190
  ---------------------------------------------------
  free energy    TOTEN  =      -363.70023196 eV

  energy without entropy =     -363.70023196  energy(sigma->0) =     -363.70023196


--------------------------------------------------------------------------------------------------------




--------------------------------------- Iteration      1(  16)  ---------------------------------------


    POTLOK:  cpu time    0.1448: real time    0.1448
    SETDIJ:  cpu time    0.9104: real time    0.9104
    TRIAL :  cpu time   28.9727: real time   28.9738
    CORREC:  cpu time   59.2017: real time   59.2046
    CHARGE:  cpu time    5.4079: real time    5.4080
    --------------------------------------------
      LOOP:  cpu time   94.6442: real time   94.6735

 eigenvalue-minimisations  :     0
 total energy-change (2. order) :-0.7596352E-03  (-0.3488381E-02)
 number of electron     256.0000014 magnetization      16.0000007
 augmentation part       51.0686012 magnetization      11.1035070

 Free energy of the ion-electron system (eV)
  ---------------------------------------------------
  alpha Z        PSCENC =       713.29773809
  Ewald energy   TEWEN  =    -13828.61083199
  -Hartree energ DENC   =     -8974.21676927
  -exchange      EXHF   =         0.00000000
  -V(xc)+E(xc)   XCENC  =      1388.89880949
  PAW double counting   =     47190.96328992   -47706.36492468
  entropy T*S    EENTRO =        -0.00000000
  eigenvalues    EBANDS =     -3027.03680507
  atomic energy  EATOM  =     23879.36850190
  ---------------------------------------------------
  free energy    TOTEN  =      -363.70099160 eV

  energy without entropy =     -363.70099160  energy(sigma->0) =     -363.70099160


--------------------------------------------------------------------------------------------------------




--------------------------------------- Iteration      1(  17)  ---------------------------------------


    POTLOK:  cpu time    0.1452: real time    0.1453
    SETDIJ:  cpu time    0.9138: real time    0.9138
    TRIAL :  cpu time   29.0380: real time   29.0395
    CORREC:  cpu time   14.8016: real time   14.8050
    CHARGE:  cpu time    5.4017: real time    5.4019
    --------------------------------------------
      LOOP:  cpu time   50.3060: real time   50.3447

 eigenvalue-minimisations  :     0
 total energy-change (2. order) : 0.6431425E-02  (-0.5819503E-02)
 number of electron     256.0000014 magnetization      16.0000007
 augmentation part       51.0757844 magnetization      11.1043519

 Free energy of the ion-electron system (eV)
  ---------------------------------------------------
  alpha Z        PSCENC =       713.29773809
  Ewald energy   TEWEN  =    -13828.61083199
  -Hartree energ DENC   =     -8971.65254845
  -exchange      EXHF   =         0.00000000
  -V(xc)+E(xc)   XCENC  =      1388.67161189
  PAW double counting   =     47077.84436163   -47593.38106893
  entropy T*S    EENTRO =        -0.00000000
  eigenvalues    EBANDS =     -3029.23232432
  atomic energy  EATOM  =     23879.36850190
  ---------------------------------------------------
  free energy    TOTEN  =      -363.69456017 eV

  energy without entropy =     -363.69456017  energy(sigma->0) =     -363.69456017


--------------------------------------------------------------------------------------------------------




--------------------------------------- Iteration      1(  18)  ---------------------------------------


    POTLOK:  cpu time    0.1458: real time    0.1458
    SETDIJ:  cpu time    0.9131: real time    0.9132
    TRIAL :  cpu time   28.9525: real time   28.9536
    CORREC:  cpu time   14.8326: real time   14.8337
    CHARGE:  cpu time    5.4052: real time    5.4054
    --------------------------------------------
      LOOP:  cpu time   50.2544: real time   50.2820

 eigenvalue-minimisations  :     0
 total energy-change (2. order) :-0.5880465E-02  (-0.2445433E-02)
 number of electron     256.0000014 magnetization      16.0000007
 augmentation part       51.0810553 magnetization      11.1071254

 Free energy of the ion-electron system (eV)
  ---------------------------------------------------
  alpha Z        PSCENC =       713.29773809
  Ewald energy   TEWEN  =    -13828.61083199
  -Hartree energ DENC   =     -8972.95489954
  -exchange      EXHF   =         0.00000000
  -V(xc)+E(xc)   XCENC  =      1388.80129686
  PAW double counting   =     47120.74420901   -47636.22759603
  entropy T*S    EENTRO =        -0.00000000
  eigenvalues    EBANDS =     -3028.11885893
  atomic energy  EATOM  =     23879.36850190
  ---------------------------------------------------
  free energy    TOTEN  =      -363.70044064 eV

  energy without entropy =     -363.70044064  energy(sigma->0) =     -363.70044064


--------------------------------------------------------------------------------------------------------




--------------------------------------- Iteration      1(  19)  ---------------------------------------


    POTLOK:  cpu time    0.1459: real time    0.1460
    SETDIJ:  cpu time    0.9103: real time    0.9104
    TRIAL :  cpu time   28.9466: real time   28.9487
    CORREC:  cpu time   14.8121: real time   14.8136
    CHARGE:  cpu time    5.3922: real time    5.3923
    --------------------------------------------
      LOOP:  cpu time   50.2116: real time   50.2407

 eigenvalue-minimisations  :     0
 total energy-change (2. order) :-0.2443305E-02  (-0.1164311E-02)
 number of electron     256.0000014 magnetization      16.0000007
 augmentation part       51.0771628 magnetization      11.1087817

 Free energy of the ion-electron system (eV)
  ---------------------------------------------------
  alpha Z        PSCENC =       713.29773809
  Ewald energy   TEWEN  =    -13828.61083199
  -Hartree energ DENC   =     -8973.54528156
  -exchange      EXHF   =         0.00000000
  -V(xc)+E(xc)   XCENC  =      1388.84087501
  PAW double counting   =     47203.47505055   -47719.00431588
  entropy T*S    EENTRO =        -0.00000000
  eigenvalues    EBANDS =     -3027.52462007
[...]
  0.000   0.000   0.000  -0.000   0.000  -0.000   0.000  -0.000  -0.000  -0.001  -0.001  -0.001  -0.000  -0.000   0.000   0.000
  0.000   0.000   0.000  -0.000   0.000  -0.000   0.000  -0.000  -0.001  -0.001  -0.002  -0.002  -0.001   0.000   0.000   0.000
  0.000   0.000   0.000  -0.000   0.000  -0.000   0.000  -0.000  -0.001  -0.002  -0.001  -0.003  -0.001   0.000   0.000   0.000
  0.000   0.001   0.000  -0.000   0.000  -0.000   0.000  -0.000  -0.001  -0.002  -0.003  -0.003  -0.000   0.000   0.001   0.001
  0.000   0.000   0.000   0.000   0.000  -0.000  -0.000  -0.000  -0.000  -0.001  -0.001  -0.000   0.000   0.000   0.000   0.000
 -0.000   0.000   0.000   0.000   0.000   0.000  -0.000   0.000  -0.000   0.000   0.000   0.000   0.000   0.000   0.000  -0.000
 -0.000   0.000  -0.000   0.000  -0.000   0.000  -0.000   0.000   0.000   0.000   0.000   0.001   0.000   0.000  -0.000  -0.000
 -0.000   0.000  -0.000   0.000  -0.000   0.000  -0.000   0.000   0.000   0.000   0.000   0.001   0.000  -0.000  -0.000  -0.000
 -0.000   0.000   0.000   0.000  -0.000   0.000  -0.000   0.000   0.000   0.001   0.001   0.001   0.000  -0.000  -0.000  -0.000
 -0.000   0.000  -0.000  -0.000   0.000   0.000   0.000   0.000   0.000   0.000   0.000   0.000  -0.000  -0.000  -0.000  -0.000


------------------------ aborting loop because EDIFF is reached ----------------------------------------


 


 total charge     
 
# of ion       s       p       d       tot
------------------------------------------
    1        2.016   5.866   0.186   8.069
    2        2.016   5.866   0.186   8.069
    3        0.186   6.197   5.931  12.314
    4        0.186   6.197   5.931  12.314
    5        0.186   6.197   5.930  12.313
    6        0.186   6.196   5.930  12.313
    7        1.221   2.295   0.000   3.516
    8        1.222   2.297   0.000   3.518
    9        1.221   2.296   0.000   3.517
   10        1.221   2.296   0.000   3.517
   11        1.222   2.297   0.000   3.518
   12        1.221   2.295   0.000   3.516
   13        1.583   3.643   0.000   5.227
   14        1.583   3.644   0.000   5.227
   15        1.582   3.644   0.000   5.226
   16        1.582   3.644   0.000   5.226
   17        1.583   3.644   0.000   5.227
   18        1.583   3.643   0.000   5.227
   19        1.583   3.644   0.000   5.227
   20        1.583   3.643   0.000   5.226
   21        1.584   3.643   0.000   5.227
   22        1.584   3.643   0.000   5.227
   23        1.583   3.643   0.000   5.226
   24        1.583   3.644   0.000   5.226
   25        1.587   3.644   0.000   5.231
   26        1.584   3.652   0.000   5.236
   27        1.585   3.648   0.000   5.233
   28        1.586   3.646   0.000   5.232
   29        1.584   3.652   0.000   5.236
   30        1.587   3.645   0.000   5.231
   31        1.585   3.648   0.000   5.233
   32        1.587   3.643   0.000   5.230
   33        1.585   3.648   0.000   5.233
   34        1.585   3.648   0.000   5.233
   35        1.586   3.643   0.000   5.230
   36        1.585   3.648   0.000   5.233
--------------------------------------------------
tot         50.126 137.781  24.094 212.001
 


 magnetization (x)
 
# of ion       s       p       d       tot
------------------------------------------
    1        0.000   0.000  -0.002  -0.002
    2        0.000   0.000  -0.002  -0.002
    3        0.009   0.013   3.645   3.667
    4        0.009   0.013   3.645   3.667
    5        0.009   0.013   3.645   3.666
    6        0.009   0.013   3.645   3.667
    7        0.004   0.010   0.000   0.014
    8        0.003   0.009   0.000   0.013
    9        0.004   0.010   0.000   0.014
   10        0.004   0.010   0.000   0.014
   11        0.003   0.009   0.000   0.013
   12        0.004   0.010   0.000   0.014
   13        0.005   0.026   0.000   0.032
   14        0.005   0.026   0.000   0.031
   15        0.005   0.028   0.000   0.034
   16        0.005   0.028   0.000   0.034
   17        0.005   0.026   0.000   0.031
   18        0.005   0.026   0.000   0.032
   19        0.005   0.027   0.000   0.032
   20        0.005   0.027   0.000   0.032
   21        0.005   0.026   0.000   0.031
   22        0.005   0.026   0.000   0.031
   23        0.005   0.027   0.000   0.032
   24        0.005   0.027   0.000   0.032
   25        0.007   0.024   0.000   0.031
   26        0.007   0.031   0.000   0.038
   27        0.007   0.025   0.000   0.032
   28        0.007   0.025   0.000   0.032
   29        0.007   0.030   0.000   0.037
   30        0.007   0.025   0.000   0.031
   31        0.007   0.029   0.000   0.036
   32        0.006   0.025   0.000   0.032
   33        0.007   0.028   0.000   0.035
   34        0.007   0.028   0.000   0.035
   35        0.006   0.025   0.000   0.032
   36        0.007   0.029   0.000   0.036
--------------------------------------------------
tot          0.203   0.756  14.575  15.534
 
    FORLOC:  cpu time    0.0055: real time    0.0055
    FORNL :  cpu time    3.1777: real time    3.1778
    STRESS:  cpu time  100.6685: real time  100.6792
    FORCOR:  cpu time    0.1431: real time    0.1478
    OFIELD:  cpu time    0.0004: real time    0.0004

  FORCE on cell =-STRESS in cart. coord.  units (eV):
  Direction    XX          YY          ZZ          XY          YZ          ZX
  --------------------------------------------------------------------------------------
  Alpha Z   713.34612   713.34612   713.34612
  Ewald   -4764.84346 -4868.72540 -4195.28224   231.67015   400.35471   511.38767
  Hartree  2897.12706  2827.13969  3249.42141   140.84534   243.08437   315.56611
  E(xc)   -1397.55665 -1397.53393 -1397.79637    -0.11914    -0.20087    -0.21956
  Local   -2329.32128 -2143.08038 -3268.65697  -376.00062  -648.60083  -841.41597
  n-local  -396.78746  -395.32589  -398.59438    -0.50076    -0.71686    -1.48913
  augment   738.45046   728.44602   759.46520     6.18903    10.05890    18.04228
  Kinetic  4539.63497  4535.84292  4538.12245    -2.05547    -3.93727    -1.87957
  Fock        0.00000     0.00000     0.00000     0.00000     0.00000     0.00000
  -------------------------------------------------------------------------------------
  Total       0.04974     0.10914     0.02523     0.02852     0.04216    -0.00817
  in kB       0.16840     0.36947     0.08540     0.09654     0.14271    -0.02767
  external pressure =        0.21 kB  Pullay stress =        0.00 kB


 VOLUME and BASIS-vectors are now :
 -----------------------------------------------------------------------------
  energy-cutoff  :      520.00
  volume of cell :      473.28
      direct lattice vectors                 reciprocal lattice vectors
     7.602509158  0.000208303  4.362900779     0.132005930 -0.046300942 -0.000817494
     2.525587962  7.123975075  4.337440278    -0.000017306  0.140362924  0.000023454
     0.053792617 -0.001458621  8.768844609    -0.065670420 -0.046392587  0.114435249

  length of vectors
     8.765446294  8.714528306  8.769009725     0.139892856  0.140362928  0.139858151


 FORCES acting on ions:
    Electron-Ion                     Ewald-Force                    Non-Local-Force
 -----------------------------------------------------------------------------------------------
   -.278E+01 0.268E+01 0.123E+01   0.258E+01 -.263E+01 -.120E+01   0.202E+00 -.533E-01 -.262E-01
   0.303E+01 0.192E+01 -.176E+01   -.290E+01 -.191E+01 0.159E+01   -.133E+00 -.161E-01 0.165E+00
   -.268E+02 -.154E+02 -.401E+02   0.278E+02 0.163E+02 0.421E+02   -.954E+00 -.891E+00 -.197E+01
   -.218E+02 -.162E+02 -.436E+02   0.231E+02 0.170E+02 0.454E+02   -.129E+01 -.844E+00 -.178E+01
   0.234E+02 0.139E+02 0.430E+02   -.245E+02 -.148E+02 -.448E+02   0.110E+01 0.938E+00 0.182E+01
   0.255E+02 0.137E+02 0.419E+02   -.266E+02 -.147E+02 -.438E+02   0.106E+01 0.928E+00 0.187E+01
   0.615E+01 -.226E+00 -.343E+01   -.403E+01 -.175E+00 0.159E+01   -.218E+01 0.409E+00 0.187E+01
   0.346E+01 -.605E+01 0.306E+00   -.174E+01 0.443E+01 0.218E+00   -.175E+01 0.164E+01 -.537E+00
   -.426E+01 0.643E+01 0.244E+00   0.261E+01 -.447E+01 -.344E+00   0.169E+01 -.200E+01 0.988E-01
   0.222E+01 0.640E+01 -.342E+01   -.153E+01 -.442E+01 0.185E+01   -.712E+00 -.203E+01 0.161E+01
   -.151E+01 -.569E+01 0.315E+01   0.109E+01 0.404E+01 -.141E+01   0.426E+00 0.168E+01 -.178E+01
   -.608E+01 -.815E-01 0.356E+01   0.349E+01 -.311E+00 -.258E+01   0.265E+01 0.401E+00 -.102E+01
   0.752E+01 0.218E+02 0.984E+02   0.254E+02 -.186E+02 -.122E+03   -.329E+02 -.326E+01 0.233E+02
   0.233E+02 0.695E+02 0.638E+02   -.353E+01 -.105E+03 -.627E+02   -.198E+02 0.352E+02 -.115E+01
   0.726E+02 0.659E+01 0.697E+02   -.995E+02 0.225E+02 -.690E+02   0.269E+02 -.292E+02 -.747E+00
   0.252E+02 0.665E+01 0.977E+02   -.113E+02 0.225E+02 -.121E+03   -.139E+02 -.291E+02 0.231E+02
   0.441E+02 0.702E+02 0.509E+02   -.529E+02 -.105E+03 -.330E+02   0.877E+01 0.353E+02 -.178E+02
   0.820E+02 0.216E+02 0.547E+02   -.118E+03 -.184E+02 -.375E+02   0.365E+02 -.320E+01 -.172E+02
   -.793E+02 -.191E+02 -.548E+02   0.115E+03 0.155E+02 0.374E+02   -.360E+02 0.366E+01 0.174E+02
   -.748E+02 0.174E+01 -.669E+02   0.102E+03 -.320E+02 0.660E+02   -.269E+02 0.302E+02 0.853E+00
   -.224E+02 -.708E+02 -.647E+02   0.263E+01 0.106E+03 0.634E+02   0.198E+02 -.356E+02 0.132E+01
   -.451E+02 -.710E+02 -.512E+02   0.537E+02 0.107E+03 0.333E+02   -.853E+01 -.356E+02 0.179E+02
   -.213E+02 0.110E+01 -.981E+02   0.734E+01 -.313E+02 0.121E+03   0.140E+02 0.302E+02 -.231E+02
   -.890E+01 -.190E+02 -.963E+02   -.239E+02 0.154E+02 0.119E+03   0.328E+02 0.367E+01 -.228E+02
   0.916E+02 0.398E+01 0.662E+02   -.941E+02 -.169E+02 -.110E+03   0.248E+01 0.129E+02 0.434E+02
   0.928E+02 -.596E+01 0.592E+02   -.101E+03 -.220E+02 -.910E+02   0.814E+01 0.279E+02 0.318E+02
   0.365E+02 0.842E+02 0.603E+02   -.671E+02 -.818E+02 -.926E+02   0.306E+02 -.237E+01 0.323E+02
   0.343E+02 0.840E+02 0.630E+02   -.473E+02 -.817E+02 -.106E+03   0.131E+02 -.235E+01 0.427E+02
   0.606E+01 -.538E+01 0.110E+03   -.298E+02 -.226E+02 -.132E+03   0.237E+02 0.280E+02 0.227E+02
   0.116E+02 0.422E+01 0.112E+03   -.480E+02 -.171E+02 -.136E+03   0.364E+02 0.129E+02 0.235E+02
   -.943E+00 -.550E+01 -.113E+03   0.356E+02 0.184E+02 0.137E+03   -.347E+02 -.129E+02 -.234E+02
   -.367E+02 -.864E+02 -.648E+02   0.672E+02 0.846E+02 0.979E+02   -.305E+02 0.175E+01 -.332E+02
   -.982E+02 -.830E+00 -.609E+02   0.107E+03 0.294E+02 0.933E+02   -.900E+01 -.286E+02 -.324E+02
   -.421E+01 -.721E+00 -.116E+03   0.278E+02 0.293E+02 0.139E+03   -.236E+02 -.286E+02 -.238E+02
   -.383E+02 -.863E+02 -.641E+02   0.521E+02 0.846E+02 0.107E+03   -.138E+02 0.171E+01 -.428E+02
   -.982E+02 -.586E+01 -.569E+02   0.102E+03 0.188E+02 0.986E+02   -.331E+01 -.129E+02 -.417E+02
 -----------------------------------------------------------------------------------------------
   -.383E+00 0.724E-01 -.651E+00   0.284E-13 0.355E-13 -.114E-12   0.269E+00 -.664E-01 0.449E+00
 
 
 POSITION                                       TOTAL-FORCE (eV/Angst)
 -----------------------------------------------------------------------------------
      5.06838      3.53873      8.68980         0.005936     -0.002664      0.002976
     10.15253      7.10049     17.42800        -0.000254     -0.005827      0.004358
      6.58248      4.61379     11.30987        -0.011592     -0.003234     -0.001003
      1.50592      1.05071      2.56566         0.001541      0.003827     -0.007242
      8.62894      6.03017     14.79382         0.010271      0.001209     -0.000649
      3.52979      2.46910      6.06372        -0.007504     -0.003119      0.010077
      7.86859      1.77053     10.01650        -0.007539     -0.001137     -0.002560
      3.56941      0.32548      8.70807        -0.000832     -0.002988      0.001946
      6.56619      6.75667      8.66256         0.007239     -0.003324      0.002557
      6.81280      3.19438      5.61580        -0.003450     -0.002397      0.009896
      3.30833      3.88845     11.76730         0.002301      0.001012      0.002140
      2.27464      5.33197      7.38688         0.003950      0.000292     -0.008785
      4.53510      4.01442     10.94385         0.001519     -0.001486     -0.007703
      7.55654      1.91304      5.68386        -0.002871     -0.001934     -0.001050
      6.89643      2.89235     10.09069        -0.002951      0.004475      0.000979
      2.81598      6.45315      6.57532         0.006156      0.006994     -0.002899
      6.25846      5.47465      9.34093         0.002327     -0.005448      0.001908
      2.24907      0.45000      9.37097        -0.008318     -0.001195     -0.001756
      7.87756      6.61550      7.98117         0.001294     -0.001568     -0.002269
      3.24062      4.20874      7.32391         0.006767     -0.001735      0.004861
      2.57171      5.17251     11.69932         0.002003      0.004375      0.000289
      3.87178      1.60964      8.03360        -0.000128      0.003773      0.003107
      7.33825      0.64693     10.82629         0.001932     -0.002543      0.006489
      5.57420      3.05227      6.42228        -0.005892     -0.002178     -0.000789
      7.97612      1.38930      8.61944         0.001437      0.007067      0.008262
      5.97848      6.37885     12.06161        -0.003620     -0.002935     -0.010059
      5.50965      6.99867      7.69426        -0.001965      0.002902     -0.004860
      6.54393      3.43277     12.98831        -0.001338      0.002756      0.000671
      2.50953      2.81793     11.18172        -0.002330      0.000491     -0.005972
      8.60794      4.94977     11.15649         0.005387      0.006295      0.004119
      1.53747      2.16222      6.24951         0.002747      0.005702      0.004784
      4.61438      0.09423      9.69166        -0.002696     -0.003806     -0.007741
      4.18341      0.70067      5.30515         0.001661     -0.000721     -0.003211
      7.59358      4.26405      6.22269        -0.000313      0.001934      0.000251
      3.59698      3.65923      4.39231        -0.004888     -0.006545     -0.002514
      2.16787      5.72509      8.78632         0.004013      0.003681      0.001394
 -----------------------------------------------------------------------------------
    total drift:                               -0.114189      0.005997     -0.201998


--------------------------------------------------------------------------------------------------------



  FREE ENERGIE OF THE ION-ELECTRON SYSTEM (eV)
  ---------------------------------------------------
  free  energy   TOTEN  =      -363.70539640 eV

  energy  without entropy=     -363.70539640  energy(sigma->0) =     -363.70539640
 
 d Force = 0.2894860E-04[-0.148E-04, 0.727E-04]  d Energy =-0.3672548E-04 0.657E-04
 d Force = 0.1380485E+00[ 0.138E+00, 0.138E+00]  d Ewald  =-0.1783574E+00 0.316E+00


--------------------------------------------------------------------------------------------------------


    POTLOK:  cpu time    1.0711: real time    1.0712


--------------------------------------------------------------------------------------------------------




--------------------------------------------------------------------------------------------------------


  
 reached required accuracy - stopping structural energy minimisation
     LOOP+:  cpu time  424.8561: real time  425.1010
    4ORBIT:  cpu time    0.0000: real time    0.0000
 


 total charge     
 
# of ion       s       p       d       tot
------------------------------------------
    1        2.016   5.866   0.186   8.069
    2        2.016   5.866   0.186   8.069
    3        0.186   6.197   5.931  12.314
    4        0.186   6.197   5.931  12.314
    5        0.186   6.197   5.930  12.313
    6        0.186   6.196   5.930  12.313
    7        1.221   2.295   0.000   3.516
    8        1.222   2.297   0.000   3.518
    9        1.221   2.296   0.000   3.517
   10        1.221   2.296   0.000   3.517
   11        1.222   2.297   0.000   3.518
   12        1.221   2.295   0.000   3.516
   13        1.583   3.643   0.000   5.227
   14        1.583   3.644   0.000   5.227
   15        1.582   3.644   0.000   5.226
   16        1.582   3.644   0.000   5.226
   17        1.583   3.644   0.000   5.227
   18        1.583   3.643   0.000   5.227
   19        1.583   3.644   0.000   5.227
   20        1.583   3.643   0.000   5.226
   21        1.584   3.643   0.000   5.227
   22        1.584   3.643   0.000   5.227
   23        1.583   3.643   0.000   5.226
   24        1.583   3.644   0.000   5.226
   25        1.587   3.644   0.000   5.231
   26        1.584   3.652   0.000   5.236
   27        1.585   3.648   0.000   5.233
   28        1.586   3.646   0.000   5.232
   29        1.584   3.652   0.000   5.236
   30        1.587   3.645   0.000   5.231
   31        1.585   3.648   0.000   5.233
   32        1.587   3.643   0.000   5.230
   33        1.585   3.648   0.000   5.233
   34        1.585   3.648   0.000   5.233
   35        1.586   3.643   0.000   5.230
   36        1.585   3.648   0.000   5.233
--------------------------------------------------
tot         50.126 137.781  24.094 212.001
 


 magnetization (x)
 
# of ion       s       p       d       tot
------------------------------------------
    1        0.000   0.000  -0.002  -0.002
    2        0.000   0.000  -0.002  -0.002
    3        0.009   0.013   3.645   3.667
    4        0.009   0.013   3.645   3.667
    5        0.009   0.013   3.645   3.666
    6        0.009   0.013   3.645   3.667
    7        0.004   0.010   0.000   0.014
    8        0.003   0.009   0.000   0.013
    9        0.004   0.010   0.000   0.014
   10        0.004   0.010   0.000   0.014
   11        0.003   0.009   0.000   0.013
   12        0.004   0.010   0.000   0.014
   13        0.005   0.026   0.000   0.032
   14        0.005   0.026   0.000   0.031
   15        0.005   0.028   0.000   0.034
   16        0.005   0.028   0.000   0.034
   17        0.005   0.026   0.000   0.031
   18        0.005   0.026   0.000   0.032
   19        0.005   0.027   0.000   0.032
   20        0.005   0.027   0.000   0.032
   21        0.005   0.026   0.000   0.031
   22        0.005   0.026   0.000   0.031
   23        0.005   0.027   0.000   0.032
   24        0.005   0.027   0.000   0.032
   25        0.007   0.024   0.000   0.031
   26        0.007   0.031   0.000   0.038
   27        0.007   0.025   0.000   0.032
   28        0.007   0.025   0.000   0.032
   29        0.007   0.030   0.000   0.037
   30        0.007   0.025   0.000   0.031
   31        0.007   0.029   0.000   0.036
   32        0.006   0.025   0.000   0.032
   33        0.007   0.028   0.000   0.035
   34        0.007   0.028   0.000   0.035
   35        0.006   0.025   0.000   0.032
   36        0.007   0.029   0.000   0.036
--------------------------------------------------
tot          0.203   0.756  14.575  15.534
 

 total amount of memory used by VASP MPI-rank0   178901. kBytes
=======================================================================

   base      :      30000. kBytes
   nonlr-proj:       8866. kBytes
   fftplans  :       2612. kBytes
   grid      :      10205. kBytes
   one-center:         93. kBytes
   wavefun   :     127125. kBytes
 
  
  
 General timing and accounting informations for this job:
 ========================================================
  
                  Total CPU time used (sec):     3964.610
                            User time (sec):     3929.623
                          System time (sec):       34.987
                         Elapsed time (sec):     3968.492
  
                   Maximum memory used (kb):      371280.
                   Average memory used (kb):           0.
  
                          Minor page faults:       428392
                          Major page faults:            0
                 Voluntary context switches:         3396
