       N       E                     dE             d eps       ncg     rms          rms(c)
DAV:   1     0.272321366664E+04    0.27232E+04   -0.13276E+05 25928   0.149E+03
DAV:   2     0.252125515609E+02   -0.26980E+04   -0.25170E+04 27088   0.411E+02
DAV:   3    -0.265649075466E+03   -0.29086E+03   -0.28708E+03 28218   0.150E+02
DAV:   4    -0.274783656040E+03   -0.91346E+01   -0.90230E+01 32848   0.261E+01
DAV:   5    -0.275346505164E+03   -0.56285E+00   -0.56182E+00 39504   0.495E+00    0.115E+02
DAV:   6    -0.239750190191E+03    0.35596E+02   -0.16881E+02 28280   0.351E+01    0.660E+01
DAV:   7    -0.242142991593E+03   -0.23928E+01   -0.19896E+01 27366   0.123E+01    0.225E+01
DAV:   8    -0.242616461353E+03   -0.47347E+00   -0.13542E+00 28280   0.384E+00    0.880E+00
DAV:   9    -0.242750135322E+03   -0.13367E+00   -0.18227E-01 33000   0.158E+00    0.285E+00
DAV:  10    -0.242760110854E+03   -0.99755E-02   -0.43428E-02 28560   0.680E-01    0.131E+00
DAV:  11    -0.242767404709E+03   -0.72939E-02   -0.14250E-02 28800   0.434E-01    0.448E-01
DAV:  12    -0.242768450499E+03   -0.10458E-02   -0.14018E-03 29496   0.136E-01    0.133E-01
DAV:  13    -0.242768710342E+03   -0.25984E-03   -0.41482E-04 29384   0.588E-02    0.658E-02
DAV:  14    -0.242768839789E+03   -0.12945E-03   -0.68895E-05 27512   0.282E-02    0.323E-02
DAV:  15    -0.242768887015E+03   -0.47226E-04   -0.44845E-05 24232   0.228E-02    0.193E-02
DAV:  16    -0.242768891176E+03   -0.41612E-05   -0.83422E-06 18824   0.977E-03
   1 F= -.24276889E+03 E0= -.24276889E+03  d E =-.242769E+03  mag=    19.9990
       N       E                     dE             d eps       ncg     rms          rms(c)
DAV:   1    -0.242777263957E+03   -0.83769E-02   -0.63099E-03 27608   0.300E-01    0.642E-02
DAV:   2    -0.242777292473E+03   -0.28516E-04   -0.37749E-04 28024   0.592E-02    0.325E-02
DAV:   3    -0.242777290494E+03    0.19794E-05   -0.18026E-05 22768   0.147E-02    0.186E-02
DAV:   4    -0.242777289825E+03    0.66900E-06   -0.51225E-06 16408   0.808E-03
   2 F= -.24277729E+03 E0= -.24277729E+03  d E =-.839865E-02  mag=    20.0000
       N       E                     dE             d eps       ncg     rms          rms(c)
DAV:   1    -0.242975872469E+03   -0.19858E+00   -0.76675E+00 26048   0.105E+01    0.220E+00
DAV:   2    -0.243011767381E+03   -0.35895E-01   -0.46506E-01 28008   0.207E+00    0.111E+00
DAV:   3    -0.243009788701E+03    0.19787E-02   -0.24146E-02 31040   0.509E-01    0.626E-01
DAV:   4    -0.243009048932E+03    0.73977E-03   -0.50467E-03 31928   0.240E-01    0.348E-01
DAV:   5    -0.243008932429E+03    0.11650E-03   -0.62502E-04 30048   0.102E-01    0.119E-01
DAV:   6    -0.243008917480E+03    0.14949E-04   -0.38032E-04 30152   0.686E-02    0.473E-02
DAV:   7    -0.243008916038E+03    0.14420E-05   -0.50881E-05 27848   0.251E-02
   3 F= -.24300892E+03 E0= -.24300892E+03  d E =-.231626E+00  mag=    20.0000
       N       E                     dE             d eps       ncg     rms          rms(c)
DAV:   1    -0.243114920114E+03   -0.10600E+00   -0.22180E+01 26160   0.187E+01    0.255E+00
DAV:   2    -0.243238475141E+03   -0.12356E+00   -0.14751E+00 27838   0.354E+00    0.139E+00
DAV:   3    -0.243237475430E+03    0.99971E-03   -0.62337E-02 33864   0.773E-01    0.744E-01
DAV:   4    -0.243235647744E+03    0.18277E-02   -0.13722E-02 31968   0.388E-01    0.358E-01
DAV:   5    -0.243235481530E+03    0.16621E-03   -0.16201E-03 31288   0.154E-01    0.150E-01
DAV:   6    -0.243235457903E+03    0.23627E-04   -0.10134E-03 30400   0.101E-01    0.675E-02
DAV:   7    -0.243235455069E+03    0.28345E-05   -0.99293E-05 28696   0.316E-02
   4 F= -.24323546E+03 E0= -.24323546E+03  d E =-.226539E+00  mag=    20.0000
       N       E                     dE             d eps       ncg     rms          rms(c)
DAV:   1    -0.243239672058E+03   -0.42142E-02   -0.16140E+01 26248   0.166E+01    0.207E+00
DAV:   2    -0.243342556275E+03   -0.10288E+00   -0.11324E+00 26754   0.308E+00    0.935E-01
DAV:   3    -0.243343195492E+03   -0.63922E-03   -0.39082E-02 34400   0.612E-01    0.551E-01
DAV:   4    -0.243341889674E+03    0.13058E-02   -0.63159E-03 31654   0.281E-01    0.320E-01
DAV:   5    -0.243341735305E+03    0.15437E-03   -0.11109E-03 32728   0.126E-01    0.100E-01
DAV:   6    -0.243341714998E+03    0.20307E-04   -0.46818E-04 32182   0.770E-02    0.490E-02
DAV:   7    -0.243341719762E+03   -0.47635E-05   -0.62389E-05 27680   0.236E-02
   5 F= -.24334172E+03 E0= -.24334172E+03  d E =-.106265E+00  mag=    20.0000
       N       E                     dE             d eps       ncg     rms          rms(c)
DAV:   1    -0.243209583401E+03    0.13213E+00   -0.28654E+01 26160   0.235E+01    0.261E+00
DAV:   2    -0.243412442677E+03   -0.20286E+00   -0.21205E+00 26714   0.429E+00    0.126E+00
DAV:   3    -0.243416360726E+03   -0.39180E-02   -0.67670E-02 32144   0.816E-01    0.695E-01
DAV:   4    -0.243414555942E+03    0.18048E-02   -0.90111E-03 32430   0.335E-01    0.407E-01
DAV:   5    -0.243414213123E+03    0.34282E-03   -0.14685E-03 32040   0.162E-01    0.139E-01
DAV:   6    -0.243414213454E+03   -0.33077E-06   -0.65765E-04 31648   0.918E-02    0.595E-02
DAV:   7    -0.243414220078E+03   -0.66240E-05   -0.89277E-05 29352   0.302E-02
   6 F= -.24341422E+03 E0= -.24341422E+03  d E =-.725003E-01  mag=    20.0000
       N       E                     dE             d eps       ncg     rms          rms(c)
DAV:   1    -0.242944553158E+03    0.46966E+00   -0.73172E+01 26144   0.370E+01    0.419E+00
DAV:   2    -0.243458963746E+03   -0.51441E+00   -0.52529E+00 26488   0.677E+00    0.184E+00
DAV:   3    -0.243468854888E+03   -0.98911E-02   -0.16073E-01 31080   0.127E+00    0.977E-01
DAV:   4    -0.243464343510E+03    0.45114E-02   -0.17073E-02 33128   0.468E-01    0.608E-01
DAV:   5    -0.243462677514E+03    0.16660E-02   -0.37445E-03 31336   0.281E-01    0.208E-01
DAV:   6    -0.243462712384E+03   -0.34870E-04   -0.16736E-03 31728   0.145E-01    0.815E-02
DAV:   7    -0.243462725652E+03   -0.13269E-04   -0.22699E-04 29320   0.494E-02    0.454E-02
DAV:   8    -0.243462719779E+03    0.58730E-05   -0.24013E-05 22440   0.216E-02
   7 F= -.24346272E+03 E0= -.24346272E+03  d E =-.484997E-01  mag=    20.0000
       N       E                     dE             d eps       ncg     rms          rms(c)
DAV:   1    -0.243464267811E+03   -0.15422E-02   -0.39541E+00 25968   0.829E+00    0.153E+00
DAV:   2    -0.243488429921E+03   -0.24162E-01   -0.26457E-01 27136   0.157E+00    0.610E-01
DAV:   3    -0.243488043729E+03    0.38619E-03   -0.10445E-02 31080   0.348E-01    0.359E-01
DAV:   4    -0.243487704171E+03    0.33956E-03   -0.13375E-03 31872   0.138E-01    0.202E-01
DAV:   5    -0.243487597854E+03    0.10632E-03   -0.33247E-04 30864   0.787E-02    0.573E-02
DAV:   6    -0.243487601987E+03   -0.41327E-05   -0.15222E-04 29960   0.452E-02    0.366E-02
DAV:   7    -0.243487600997E+03    0.98945E-06   -0.20086E-05 22064   0.166E-02
   8 F= -.24348760E+03 E0= -.24348760E+03  d E =-.248812E-01  mag=    20.0000
       N       E                     dE             d eps       ncg     rms          rms(c)
DAV:   1    -0.243496516835E+03   -0.89148E-02   -0.12686E+00 25664   0.461E+00    0.901E-01
DAV:   2    -0.243504307849E+03   -0.77910E-02   -0.81812E-02 27680   0.859E-01    0.294E-01
DAV:   3    -0.243504126729E+03    0.18112E-03   -0.28654E-03 31640   0.186E-01    0.139E-01
DAV:   4    -0.243504042478E+03    0.84251E-04   -0.45072E-04 31224   0.797E-02    0.811E-02
DAV:   5    -0.243504024787E+03    0.17691E-04   -0.80597E-05 30384   0.341E-02    0.357E-02
DAV:   6    -0.243504023014E+03    0.17724E-05   -0.15557E-05 18704   0.153E-02
   9 F= -.24350402E+03 E0= -.24350402E+03  d E =-.164220E-01  mag=    20.0000
       N       E                     dE             d eps       ncg     rms          rms(c)
DAV:   1    -0.243473440286E+03    0.30585E-01   -0.78009E+00 25712   0.119E+01    0.133E+00
DAV:   2    -0.243524190016E+03   -0.50750E-01   -0.49858E-01 27302   0.211E+00    0.534E-01
DAV:   3    -0.243525222202E+03   -0.10322E-02   -0.14563E-02 31232   0.380E-01    0.253E-01
DAV:   4    -0.243524795584E+03    0.42662E-03   -0.16076E-03 31384   0.146E-01    0.152E-01
DAV:   5    -0.243524693197E+03    0.10239E-03   -0.33491E-04 30296   0.831E-02    0.564E-02
DAV:   6    -0.243524700182E+03   -0.69846E-05   -0.11683E-04 29808   0.366E-02    0.269E-02
DAV:   7    -0.243524700442E+03   -0.26044E-06   -0.86105E-06 17232   0.112E-02
  10 F= -.24352470E+03 E0= -.24352470E+03  d E =-.206774E-01  mag=    20.0000
       N       E                     dE             d eps       ncg     rms          rms(c)
DAV:   1    -0.243281398428E+03    0.24330E+00   -0.45244E+01 25784   0.280E+01    0.270E+00
DAV:   2    -0.243559034580E+03   -0.27764E+00   -0.27407E+00 26210   0.495E+00    0.127E+00
DAV:   3    -0.243565151567E+03   -0.61170E-02   -0.78864E-02 30120   0.873E-01    0.636E-01
DAV:   4    -0.243562732711E+03    0.24189E-02   -0.80759E-03 31176   0.327E-01    0.409E-01
DAV:   5    -0.243561875878E+03    0.85683E-03   -0.17534E-03 30200   0.203E-01    0.154E-01
DAV:   6    -0.243561914746E+03   -0.38869E-04   -0.83897E-04 29752   0.972E-02    0.570E-02
DAV:   7    -0.243561920659E+03   -0.59124E-05   -0.61640E-05 28608   0.292E-02
  11 F= -.24356192E+03 E0= -.24356192E+03  d E =-.372202E-01  mag=    20.0000
       N       E                     dE             d eps       ncg     rms          rms(c)
DAV:   1    -0.241924918684E+03    0.16370E+01   -0.12173E+02 26848   0.387E+01    0.156E+01
DAV:   2    -0.242571345796E+03   -0.64643E+00   -0.79290E+00 29880   0.833E+00    0.505E+00
DAV:   3    -0.242514515840E+03    0.56830E-01   -0.34534E-01 29136   0.191E+00    0.353E+00
DAV:   4    -0.242486540649E+03    0.27975E-01   -0.40796E-02 31176   0.772E-01    0.249E+00
DAV:   5    -0.242471676326E+03    0.14864E-01   -0.29675E-02 29600   0.740E-01    0.545E-01
DAV:   6    -0.242472613247E+03   -0.93692E-03   -0.16477E-02 29912   0.452E-01    0.311E-01
DAV:   7    -0.242472607172E+03    0.60747E-05   -0.15376E-03 30048   0.125E-01    0.165E-01
DAV:   8    -0.242472572627E+03    0.34545E-04   -0.44280E-04 29968   0.709E-02    0.946E-02
DAV:   9    -0.242472591380E+03   -0.18752E-04   -0.10367E-04 28000   0.351E-02    0.352E-02
DAV:  10    -0.242472601382E+03   -0.10002E-04   -0.54177E-05 28368   0.277E-02    0.192E-02
DAV:  11    -0.242472602923E+03   -0.15410E-05   -0.14899E-05 17912   0.126E-02
  12 F= -.24247260E+03 E0= -.24247260E+03  d E =0.108932E+01  mag=    20.0000
       N       E                     dE             d eps       ncg     rms          rms(c)
DAV:   1    -0.243293472310E+03   -0.82087E+00   -0.25170E+01 26216   0.138E+01    0.664E+00
DAV:   2    -0.243385525027E+03   -0.92053E-01   -0.14289E+00 31600   0.349E+00    0.348E+00
DAV:   3    -0.243366089907E+03    0.19435E-01   -0.55036E-02 29176   0.727E-01    0.265E+00
DAV:   4    -0.243354012216E+03    0.12078E-01   -0.12619E-02 30344   0.427E-01    0.162E+00
DAV:   5    -0.243351041722E+03    0.29705E-02   -0.11267E-02 29384   0.393E-01    0.254E-01
DAV:   6    -0.243351293819E+03   -0.25210E-03   -0.51204E-03 31136   0.233E-01    0.231E-01
DAV:   7    -0.243351266226E+03    0.27593E-04   -0.34864E-04 30784   0.623E-02    0.141E-01
DAV:   8    -0.243351243045E+03    0.23181E-04   -0.14817E-04 29064   0.388E-02    0.653E-02
DAV:   9    -0.243351250064E+03   -0.70187E-05   -0.44744E-05 26040   0.210E-02
  13 F= -.24335125E+03 E0= -.24335125E+03  d E =-.878647E+00  mag=    20.0000
       N       E                     dE             d eps       ncg     rms          rms(c)
DAV:   1    -0.243547002306E+03   -0.19576E+00   -0.10084E+01 26148   0.827E+00    0.388E+00
DAV:   2    -0.243579920667E+03   -0.32918E-01   -0.52069E-01 30864   0.212E+00    0.162E+00
DAV:   3    -0.243571656523E+03    0.82641E-02   -0.20222E-02 29304   0.460E-01    0.964E-01
DAV:   4    -0.243568499994E+03    0.31565E-02   -0.45566E-03 29496   0.225E-01    0.587E-01
DAV:   5    -0.243567658889E+03    0.84111E-03   -0.21276E-03 30720   0.203E-01    0.118E-01
DAV:   6    -0.243567735468E+03   -0.76579E-04   -0.10919E-03 29872   0.101E-01    0.780E-02
DAV:   7    -0.243567727382E+03    0.80860E-05   -0.86508E-05 29392   0.305E-02
  14 F= -.24356773E+03 E0= -.24356773E+03  d E =-.216477E+00  mag=    20.0000
       N       E                     dE             d eps       ncg     rms          rms(c)
DAV:   1    -0.243590821585E+03   -0.23086E-01   -0.12538E+00 26372   0.295E+00    0.149E+00
DAV:   2    -0.243595539651E+03   -0.47181E-02   -0.62364E-02 29632   0.646E-01    0.485E-01
DAV:   3    -0.243594524923E+03    0.10147E-02   -0.24987E-03 29476   0.166E-01    0.214E-01
DAV:   4    -0.243594366838E+03    0.15809E-03   -0.50866E-04 29856   0.662E-02    0.121E-01
DAV:   5    -0.243594315118E+03    0.51720E-04   -0.12390E-04 29008   0.404E-02    0.494E-02
DAV:   6    -0.243594313161E+03    0.19567E-05   -0.47560E-05 27792   0.217E-02
  15 F= -.24359431E+03 E0= -.24359431E+03  d E =-.265858E-01  mag=    20.0000
       N       E                     dE             d eps       ncg     rms          rms(c)
DAV:   1    -0.243601860141E+03   -0.75450E-02   -0.56855E-01 25574   0.243E+00    0.842E-01
DAV:   2    -0.243604177639E+03   -0.23175E-02   -0.28056E-02 29168   0.482E-01    0.325E-01
DAV:   3    -0.243603843136E+03    0.33450E-03   -0.12823E-03 30492   0.130E-01    0.161E-01
DAV:   4    -0.243603793919E+03    0.49217E-04   -0.27966E-04 30232   0.558E-02    0.912E-02
DAV:   5    -0.243603784662E+03    0.92571E-05   -0.49822E-05 28670   0.246E-02
  16 F= -.24360378E+03 E0= -.24360378E+03  d E =-.947150E-02  mag=    20.0000
       N       E                     dE             d eps       ncg     rms          rms(c)
DAV:   1    -0.243607537628E+03   -0.37437E-02   -0.22165E-01 25854   0.184E+00    0.427E-01
DAV:   2    -0.243608700987E+03   -0.11634E-02   -0.13065E-02 28680   0.351E-01    0.183E-01
DAV:   3    -0.243608644691E+03    0.56295E-04   -0.60219E-04 30414   0.876E-02    0.993E-02
DAV:   4    -0.243608628972E+03    0.15719E-04   -0.10084E-04 30544   0.383E-02    0.541E-02
DAV:   5    -0.243608624588E+03    0.43838E-05   -0.15732E-05 20846   0.170E-02
  17 F= -.24360862E+03 E0= -.24360862E+03  d E =-.483993E-02  mag=    20.0000
       N       E                     dE             d eps       ncg     rms          rms(c)
DAV:   1    -0.243612226763E+03   -0.35978E-02   -0.44661E-01 25736   0.290E+00    0.425E-01
DAV:   2    -0.243615208691E+03   -0.29819E-02   -0.30971E-02 27872   0.525E-01    0.201E-01
DAV:   3    -0.243615251920E+03   -0.43229E-04   -0.12086E-03 30392   0.114E-01    0.109E-01
DAV:   4    -0.243615222851E+03    0.29069E-04   -0.18519E-04 31416   0.502E-02    0.595E-02
DAV:   5    -0.243615219267E+03    0.35842E-05   -0.25072E-05 23728   0.218E-02
  18 F= -.24361522E+03 E0= -.24361522E+03  d E =-.659468E-02  mag=    20.0000
       N       E                     dE             d eps       ncg     rms          rms(c)
DAV:   1    -0.243612632432E+03    0.25904E-02   -0.21404E+00 25848   0.654E+00    0.680E-01
DAV:   2    -0.243628423791E+03   -0.15791E-01   -0.15732E-01 27060   0.117E+00    0.310E-01
DAV:   3    -0.243628910765E+03   -0.48697E-03   -0.51811E-03 29456   0.220E-01    0.154E-01
DAV:   4    -0.243628781288E+03    0.12948E-03   -0.53312E-04 31768   0.836E-02    0.932E-02
DAV:   5    -0.243628743258E+03    0.38029E-04   -0.10489E-04 29232   0.491E-02    0.333E-02
DAV:   6    -0.243628743887E+03   -0.62864E-06   -0.44757E-05 28824   0.238E-02
  19 F= -.24362874E+03 E0= -.24362874E+03  d E =-.135246E-01  mag=    20.0000
       N       E                     dE             d eps       ncg     rms          rms(c)
DAV:   1    -0.243505104238E+03    0.12364E+00   -0.22539E+01 25792   0.202E+01    0.208E+00
DAV:   2    -0.243655553275E+03   -0.15045E+00   -0.14756E+00 26196   0.357E+00    0.911E-01
DAV:   3    -0.243659272819E+03   -0.37195E-02   -0.43231E-02 29720   0.634E-01    0.441E-01
DAV:   4    -0.243658064342E+03    0.12085E-02   -0.42178E-03 31624   0.240E-01    0.277E-01
DAV:   5    -0.243657677920E+03    0.38642E-03   -0.98718E-04 30240   0.150E-01    0.102E-01
DAV:   6    -0.243657700956E+03   -0.23035E-04   -0.37830E-04 29912   0.640E-02    0.412E-02
DAV:   7    -0.243657701961E+03   -0.10056E-05   -0.27972E-05 24384   0.194E-02
  20 F= -.24365770E+03 E0= -.24365770E+03  d E =-.289581E-01  mag=    20.0000
       N       E                     dE             d eps       ncg     rms          rms(c)
DAV:   1    -0.242162003802E+03    0.14957E+01   -0.22110E+02 25816   0.625E+01    0.641E+00
DAV:   2    -0.243683161297E+03   -0.15212E+01   -0.14954E+01 26384   0.112E+01    0.330E+00
DAV:   3    -0.243716262370E+03   -0.33101E-01   -0.37073E-01 29608   0.187E+00    0.158E+00
DAV:   4    -0.243705706072E+03    0.10556E-01   -0.36082E-02 32280   0.659E-01    0.109E+00
DAV:   5    -0.243700359248E+03    0.53468E-02   -0.83090E-03 30160   0.460E-01    0.444E-01
DAV:   6    -0.243700555623E+03   -0.19638E-03   -0.48283E-03 30272   0.234E-01    0.136E-01
DAV:   7    -0.243700620956E+03   -0.65333E-04   -0.47228E-04 29280   0.728E-02    0.657E-02
DAV:   8    -0.243700610634E+03    0.10322E-04   -0.84064E-05 31984   0.393E-02    0.357E-02
DAV:   9    -0.243700607471E+03    0.31628E-05   -0.21537E-05 21040   0.212E-02
  21 F= -.24370061E+03 E0= -.24370061E+03  d E =-.429055E-01  mag=    20.0000
       N       E                     dE             d eps       ncg     rms          rms(c)
DAV:   1    -0.242843286626E+03    0.85732E+00   -0.12782E+02 25632   0.446E+01    0.696E+00
DAV:   2    -0.243555791531E+03   -0.71250E+00   -0.71417E+00 27424   0.792E+00    0.250E+00
DAV:   3    -0.243555894961E+03   -0.10343E-03   -0.23151E-01 29912   0.157E+00    0.129E+00
DAV:   4    -0.243548195996E+03    0.76990E-02   -0.24641E-02 31936   0.609E-01    0.691E-01
DAV:   5    -0.243545284590E+03    0.29114E-02   -0.65115E-03 29472   0.376E-01    0.237E-01
DAV:   6    -0.243545393932E+03   -0.10934E-03   -0.30701E-03 29208   0.182E-01    0.154E-01
DAV:   7    -0.243545354232E+03    0.39700E-04   -0.23535E-04 31104   0.634E-02    0.772E-02
DAV:   8    -0.243545344202E+03    0.10030E-04   -0.80309E-05 29528   0.351E-02    0.320E-02
DAV:   9    -0.243545345083E+03   -0.88088E-06   -0.26727E-05 22272   0.218E-02
  22 F= -.24354535E+03 E0= -.24354535E+03  d E =0.155262E+00  mag=    20.0000
       N       E                     dE             d eps       ncg     rms          rms(c)
DAV:   1    -0.242883723870E+03    0.66162E+00   -0.13266E+02 25632   0.472E+01    0.651E+00
DAV:   2    -0.243718585831E+03   -0.83486E+00   -0.84056E+00 27282   0.862E+00    0.289E+00
DAV:   3    -0.243727482548E+03   -0.88967E-02   -0.27083E-01 29528   0.167E+00    0.186E+00
DAV:   4    -0.243719167618E+03    0.83149E-02   -0.25247E-02 32728   0.576E-01    0.134E+00
DAV:   5    -0.243713189564E+03    0.59781E-02   -0.80054E-03 30480   0.494E-01    0.421E-01
DAV:   6    -0.243713450901E+03   -0.26134E-03   -0.60941E-03 29432   0.270E-01    0.134E-01
DAV:   7    -0.243713463298E+03   -0.12396E-04   -0.69861E-04 28952   0.868E-02    0.767E-02
DAV:   8    -0.243713443399E+03    0.19899E-04   -0.10207E-04 30768   0.384E-02    0.374E-02
DAV:   9    -0.243713441002E+03    0.23967E-05   -0.25989E-05 21392   0.221E-02
  23 F= -.24371344E+03 E0= -.24371344E+03  d E =-.168096E+00  mag=    20.0000
       N       E                     dE             d eps       ncg     rms          rms(c)
DAV:   1    -0.243677870769E+03    0.35573E-01   -0.68067E+00 25640   0.101E+01    0.142E+00
DAV:   2    -0.243713924465E+03   -0.36054E-01   -0.36617E-01 27744   0.180E+00    0.614E-01
DAV:   3    -0.243714039523E+03   -0.11506E-03   -0.12049E-02 29936   0.358E-01    0.355E-01
DAV:   4    -0.243713601147E+03    0.43838E-03   -0.13651E-03 32184   0.145E-01    0.213E-01
DAV:   5    -0.243713467084E+03    0.13406E-03   -0.37977E-04 30040   0.944E-02    0.642E-02
DAV:   6    -0.243713480221E+03   -0.13137E-04   -0.19244E-04 29736   0.482E-02    0.381E-02
DAV:   7    -0.243713478507E+03    0.17136E-05   -0.14524E-05 18680   0.151E-02
  24 F= -.24371348E+03 E0= -.24371348E+03  d E =-.375049E-04  mag=    20.0000
       N       E                     dE             d eps       ncg     rms          rms(c)
DAV:   1    -0.243532043219E+03    0.18144E+00   -0.32851E+01 25640   0.227E+01    0.235E+00
DAV:   2    -0.243718616254E+03   -0.18657E+00   -0.18368E+00 26842   0.396E+00    0.108E+00
DAV:   3    -0.243721812447E+03   -0.31962E-02   -0.47106E-02 29848   0.686E-01    0.571E-01
DAV:   4    -0.243720136999E+03    0.16754E-02   -0.49761E-03 31384   0.261E-01    0.365E-01
DAV:   5    -0.243719585527E+03    0.55147E-03   -0.13422E-03 30208   0.173E-01    0.129E-01
DAV:   6    -0.243719626607E+03   -0.41080E-04   -0.64437E-04 29408   0.889E-02    0.561E-02
DAV:   7    -0.243719630838E+03   -0.42310E-05   -0.62530E-05 28616   0.289E-02
  25 F= -.24371963E+03 E0= -.24371963E+03  d E =-.615233E-02  mag=    20.0000
       N       E                     dE             d eps       ncg     rms          rms(c)
DAV:   1    -0.243093829226E+03    0.62580E+00   -0.96293E+01 25648   0.387E+01    0.596E+00
DAV:   2    -0.243633359118E+03   -0.53953E+00   -0.53753E+00 28040   0.679E+00    0.233E+00
DAV:   3    -0.243635946946E+03   -0.25878E-02   -0.17656E-01 29968   0.138E+00    0.120E+00
DAV:   4    -0.243631024381E+03    0.49226E-02   -0.20839E-02 31752   0.532E-01    0.642E-01
DAV:   5    -0.243629789717E+03    0.12347E-02   -0.41430E-03 29352   0.276E-01    0.220E-01
DAV:   6    -0.243629871168E+03   -0.81452E-04   -0.14797E-03 30608   0.133E-01    0.122E-01
DAV:   7    -0.243629855909E+03    0.15259E-04   -0.16105E-04 30672   0.500E-02    0.570E-02
DAV:   8    -0.243629853817E+03    0.20920E-05   -0.42511E-05 27784   0.252E-02
  26 F= -.24362985E+03 E0= -.24362985E+03  d E =0.897770E-01  mag=    20.0000
       N       E                     dE             d eps       ncg     rms          rms(c)
DAV:   1    -0.243507740076E+03    0.12212E+00   -0.41991E+01 25640   0.250E+01    0.432E+00
DAV:   2    -0.243735175747E+03   -0.22744E+00   -0.23425E+00 28408   0.453E+00    0.182E+00
DAV:   3    -0.243733397525E+03    0.17782E-02   -0.77841E-02 29440   0.929E-01    0.119E+00
DAV:   4    -0.243730225605E+03    0.31719E-02   -0.90783E-03 32208   0.364E-01    0.790E-01
DAV:   5    -0.243728893500E+03    0.13321E-02   -0.31358E-03 29976   0.269E-01    0.177E-01
DAV:   6    -0.243729046509E+03   -0.15301E-03   -0.16047E-03 29976   0.146E-01    0.912E-02
DAV:   7    -0.243729031813E+03    0.14696E-04   -0.14149E-04 30168   0.430E-02    0.474E-02
DAV:   8    -0.243729025480E+03    0.63327E-05   -0.35088E-05 26312   0.219E-02
  27 F= -.24372903E+03 E0= -.24372903E+03  d E =-.991717E-01  mag=    20.0000
       N       E                     dE             d eps       ncg     rms          rms(c)
DAV:   1    -0.243717222919E+03    0.11809E-01   -0.28885E+00 25648   0.624E+00    0.129E+00
DAV:   2    -0.243731078118E+03   -0.13855E-01   -0.15361E-01 29104   0.117E+00    0.644E-01
DAV:   3    -0.243730529131E+03    0.54899E-03   -0.65616E-03 30320   0.287E-01    0.350E-01
DAV:   4    -0.243730338237E+03    0.19089E-03   -0.13163E-03 31176   0.128E-01    0.189E-01
DAV:   5    -0.243730314554E+03    0.23684E-04   -0.16521E-04 29560   0.517E-02    0.679E-02
DAV:   6    -0.243730313023E+03    0.15303E-05   -0.77199E-05 29968   0.319E-02
  28 F= -.24373031E+03 E0= -.24373031E+03  d E =-.128754E-02  mag=    20.0000
       N       E                     dE             d eps       ncg     rms          rms(c)
DAV:   1    -0.243729064237E+03    0.12503E-02   -0.11172E+00 25640   0.411E+00    0.694E-01
DAV:   2    -0.243735078809E+03   -0.60146E-02   -0.62219E-02 28696   0.743E-01    0.286E-01
DAV:   3    -0.243735026894E+03    0.51915E-04   -0.22867E-03 29536   0.163E-01    0.155E-01
DAV:   4    -0.243734961292E+03    0.65602E-04   -0.34463E-04 31472   0.680E-02    0.871E-02
DAV:   5    -0.243734942803E+03    0.18489E-04   -0.48793E-05 28472   0.312E-02    0.281E-02
DAV:   6    -0.243734942062E+03    0.74037E-06   -0.25983E-05 21504   0.194E-02
  29 F= -.24373494E+03 E0= -.24373494E+03  d E =-.462904E-02  mag=    20.0000
       N       E                     dE             d eps       ncg     rms          rms(c)
DAV:   1    -0.243732240722E+03    0.27021E-02   -0.10975E+00 25640   0.417E+00    0.444E-01
DAV:   2    -0.243738501051E+03   -0.62603E-02   -0.61628E-02 27774   0.723E-01    0.209E-01
DAV:   3    -0.243738639619E+03   -0.13857E-03   -0.19236E-03 30392   0.135E-01    0.112E-01
DAV:   4    -0.243738581463E+03    0.58156E-04   -0.24336E-04 31432   0.575E-02    0.675E-02
DAV:   5    -0.243738568607E+03    0.12855E-04   -0.44617E-05 28120   0.302E-02    0.238E-02
DAV:   6    -0.243738568953E+03   -0.34582E-06   -0.17733E-05 18680   0.157E-02
  30 F= -.24373857E+03 E0= -.24373857E+03  d E =-.362689E-02  mag=    20.0000
       N       E                     dE             d eps       ncg     rms          rms(c)
DAV:   1    -0.242663376919E+03    0.10752E+01   -0.17134E+02 25640   0.529E+01    0.560E+00
DAV:   2    -0.243721939618E+03   -0.10586E+01   -0.10356E+01 26454   0.928E+00    0.263E+00
DAV:   3    -0.243747247075E+03   -0.25307E-01   -0.31671E-01 29944   0.171E+00    0.136E+00
DAV:   4    -0.243738935848E+03    0.83112E-02   -0.29337E-02 31392   0.596E-01    0.967E-01
DAV:   5    -0.243734869753E+03    0.40661E-02   -0.59016E-03 29984   0.384E-01    0.419E-01
DAV:   6    -0.243734778342E+03    0.91411E-04   -0.41866E-03 30160   0.224E-01    0.118E-01
DAV:   7    -0.243734830254E+03   -0.51911E-04   -0.53464E-04 29256   0.780E-02    0.610E-02
DAV:   8    -0.243734820357E+03    0.98963E-05   -0.83672E-05 30688   0.348E-02
  31 F= -.24373482E+03 E0= -.24373482E+03  d E =0.374860E-02  mag=    20.0000
       N       E                     dE             d eps       ncg     rms          rms(c)
DAV:   1    -0.243674730020E+03    0.60100E-01   -0.17199E+01 25632   0.166E+01    0.237E+00
DAV:   2    -0.243771225751E+03   -0.96496E-01   -0.10042E+00 26862   0.303E+00    0.960E-01
DAV:   3    -0.243771270302E+03   -0.44551E-04   -0.30000E-02 29544   0.577E-01    0.556E-01
DAV:   4    -0.243770109446E+03    0.11609E-02   -0.34745E-03 31592   0.228E-01    0.350E-01
DAV:   5    -0.243769688258E+03    0.42119E-03   -0.92127E-04 29640   0.143E-01    0.108E-01
DAV:   6    -0.243769719698E+03   -0.31441E-04   -0.50715E-04 30344   0.804E-02    0.536E-02
DAV:   7    -0.243769716712E+03    0.29860E-05   -0.50492E-05 28528   0.255E-02
  32 F= -.24376972E+03 E0= -.24376972E+03  d E =-.348964E-01  mag=    20.0000
       N       E                     dE             d eps       ncg     rms          rms(c)
DAV:   1    -0.243681603763E+03    0.88116E-01   -0.14811E+01 25640   0.156E+01    0.219E+00
DAV:   2    -0.243772351595E+03   -0.90748E-01   -0.90348E-01 28090   0.280E+00    0.885E-01
DAV:   3    -0.243773124387E+03   -0.77279E-03   -0.26552E-02 29912   0.541E-01    0.465E-01
DAV:   4    -0.243772224334E+03    0.90005E-03   -0.34686E-03 31200   0.218E-01    0.267E-01
DAV:   5    -0.243771954971E+03    0.26936E-03   -0.68029E-04 29352   0.118E-01    0.883E-02
DAV:   6    -0.243771961945E+03   -0.69743E-05   -0.34006E-04 29848   0.659E-02    0.443E-02
DAV:   7    -0.243771962158E+03   -0.21331E-06   -0.33089E-05 24280   0.222E-02
  33 F= -.24377196E+03 E0= -.24377196E+03  d E =-.224545E-02  mag=    20.0000
       N       E                     dE             d eps       ncg     rms          rms(c)
DAV:   1    -0.243762673779E+03    0.92882E-02   -0.25206E+00 25640   0.632E+00    0.910E-01
DAV:   2    -0.243777043563E+03   -0.14370E-01   -0.14568E-01 27720   0.114E+00    0.346E-01
DAV:   3    -0.243777119868E+03   -0.76305E-04   -0.49354E-03 30032   0.226E-01    0.188E-01
DAV:   4    -0.243776947894E+03    0.17197E-03   -0.53801E-04 31408   0.899E-02    0.108E-01
DAV:   5    -0.243776884645E+03    0.63249E-04   -0.12039E-04 29656   0.517E-02    0.374E-02
DAV:   6    -0.243776883918E+03    0.72787E-06   -0.69881E-05 28752   0.302E-02
  34 F= -.24377688E+03 E0= -.24377688E+03  d E =-.492176E-02  mag=    20.0000
       N       E                     dE             d eps       ncg     rms          rms(c)
DAV:   1    -0.243770429728E+03    0.64549E-02   -0.17023E+00 25632   0.539E+00    0.668E-01
DAV:   2    -0.243781121026E+03   -0.10691E-01   -0.10607E-01 27456   0.959E-01    0.281E-01
DAV:   3    -0.243781294216E+03   -0.17319E-03   -0.29163E-03 29968   0.175E-01    0.148E-01
DAV:   4    -0.243781202777E+03    0.91439E-04   -0.36037E-04 30896   0.714E-02    0.893E-02
DAV:   5    -0.243781183108E+03    0.19669E-04   -0.68880E-05 29504   0.371E-02    0.325E-02
DAV:   6    -0.243781184803E+03   -0.16957E-05   -0.28608E-05 22536   0.195E-02
  35 F= -.24378118E+03 E0= -.24378118E+03  d E =-.430089E-02  mag=    20.0000
       N       E                     dE             d eps       ncg     rms          rms(c)
DAV:   1    -0.243779069732E+03    0.21134E-02   -0.10395E+00 25624   0.418E+00    0.548E-01
DAV:   2    -0.243785135558E+03   -0.60658E-02   -0.62709E-02 26566   0.760E-01    0.212E-01
DAV:   3    -0.243785163884E+03   -0.28325E-04   -0.18204E-03 29528   0.141E-01    0.117E-01
DAV:   4    -0.243785103050E+03    0.60833E-04   -0.19572E-04 31592   0.546E-02    0.689E-02
DAV:   5    -0.243785083143E+03    0.19907E-04   -0.50335E-05 28016   0.317E-02    0.221E-02
DAV:   6    -0.243785083915E+03   -0.77226E-06   -0.19735E-05 20608   0.166E-02
  36 F= -.24378508E+03 E0= -.24378508E+03  d E =-.389911E-02  mag=    20.0000
       N       E                     dE             d eps       ncg     rms          rms(c)
DAV:   1    -0.243732439650E+03    0.52643E-01   -0.11127E+01 25624   0.135E+01    0.155E+00
DAV:   2    -0.243795029871E+03   -0.62590E-01   -0.65542E-01 26138   0.244E+00    0.662E-01
DAV:   3    -0.243795597157E+03   -0.56729E-03   -0.18713E-02 30504   0.450E-01    0.380E-01
DAV:   4    -0.243795027431E+03    0.56973E-03   -0.18932E-03 32464   0.167E-01    0.218E-01
DAV:   5    -0.243794823147E+03    0.20428E-03   -0.47795E-04 30376   0.103E-01    0.640E-02
DAV:   6    -0.243794835058E+03   -0.11910E-04   -0.22855E-04 29976   0.538E-02    0.360E-02
DAV:   7    -0.243794834931E+03    0.12683E-06   -0.19989E-05 21264   0.172E-02
  37 F= -.24379483E+03 E0= -.24379483E+03  d E =-.975102E-02  mag=    20.0000
       N       E                     dE             d eps       ncg     rms          rms(c)
DAV:   1    -0.243564962240E+03    0.22987E+00   -0.40870E+01 25632   0.256E+01    0.288E+00
DAV:   2    -0.243801016644E+03   -0.23605E+00   -0.24266E+00 25848   0.463E+00    0.125E+00
DAV:   3    -0.243803980310E+03   -0.29637E-02   -0.65227E-02 30144   0.822E-01    0.670E-01
DAV:   4    -0.243802064797E+03    0.19155E-02   -0.81028E-03 31568   0.325E-01    0.404E-01
DAV:   5    -0.243801602538E+03    0.46226E-03   -0.13488E-03 30336   0.163E-01    0.152E-01
DAV:   6    -0.243801640805E+03   -0.38268E-04   -0.62733E-04 31952   0.867E-02    0.605E-02
DAV:   7    -0.243801642716E+03   -0.19104E-05   -0.57109E-05 28536   0.279E-02
  38 F= -.24380164E+03 E0= -.24380164E+03  d E =-.680778E-02  mag=    20.0000
       N       E                     dE             d eps       ncg     rms          rms(c)
DAV:   1    -0.243718432019E+03    0.83209E-01   -0.13899E+01 25632   0.156E+01    0.217E+00
DAV:   2    -0.243809948362E+03   -0.91516E-01   -0.89976E-01 27512   0.277E+00    0.789E-01
DAV:   3    -0.243811237779E+03   -0.12894E-02   -0.28131E-02 30184   0.532E-01    0.385E-01
DAV:   4    -0.243810368987E+03    0.86879E-03   -0.28727E-03 32160   0.207E-01    0.228E-01
DAV:   5    -0.243810084173E+03    0.28481E-03   -0.67173E-04 29736   0.121E-01    0.830E-02
DAV:   6    -0.243810093410E+03   -0.92370E-05   -0.27464E-04 30688   0.568E-02    0.418E-02
DAV:   7    -0.243810089876E+03    0.35342E-05   -0.22673E-05 23168   0.194E-02
  39 F= -.24381009E+03 E0= -.24381009E+03  d E =-.844716E-02  mag=    20.0000
       N       E                     dE             d eps       ncg     rms          rms(c)
DAV:   1    -0.243735428505E+03    0.74665E-01   -0.13239E+01 25632   0.149E+01    0.175E+00
DAV:   2    -0.243813129078E+03   -0.77701E-01   -0.78504E-01 26836   0.268E+00    0.761E-01
DAV:   3    -0.243814150069E+03   -0.10210E-02   -0.23566E-02 29808   0.504E-01    0.389E-01
DAV:   4    -0.243813472091E+03    0.67798E-03   -0.30332E-03 31432   0.204E-01    0.237E-01
DAV:   5    -0.243813334352E+03    0.13774E-03   -0.51881E-04 30296   0.101E-01    0.108E-01
DAV:   6    -0.243813345067E+03   -0.10716E-04   -0.21043E-04 31560   0.501E-02    0.512E-02
DAV:   7    -0.243813343510E+03    0.15576E-05   -0.17557E-05 20816   0.177E-02
  40 F= -.24381334E+03 E0= -.24381334E+03  d E =-.325363E-02  mag=    20.0000
       N       E                     dE             d eps       ncg     rms          rms(c)
DAV:   1    -0.243804720373E+03    0.86247E-02   -0.21233E+00 25632   0.528E+00    0.934E-01
DAV:   2    -0.243813645469E+03   -0.89251E-02   -0.96502E-02 28840   0.943E-01    0.424E-01
DAV:   3    -0.243813354065E+03    0.29140E-03   -0.34933E-03 30128   0.211E-01    0.242E-01
DAV:   4    -0.243813212213E+03    0.14185E-03   -0.69995E-04 30656   0.969E-02    0.140E-01
DAV:   5    -0.243813195900E+03    0.16312E-04   -0.11545E-04 29928   0.424E-02    0.440E-02
DAV:   6    -0.243813194697E+03    0.12028E-05   -0.45621E-05 26688   0.253E-02
  41 F= -.24381319E+03 E0= -.24381319E+03  d E =0.148812E-03  mag=    20.0000
       N       E                     dE             d eps       ncg     rms          rms(c)
DAV:   1    -0.243806423339E+03    0.67726E-02   -0.19967E+00 25632   0.567E+00    0.788E-01
DAV:   2    -0.243817027215E+03   -0.10604E-01   -0.11132E-01 27540   0.102E+00    0.391E-01
DAV:   3    -0.243817020373E+03    0.68422E-05   -0.38038E-03 30104   0.213E-01    0.214E-01
DAV:   4    -0.243816911325E+03    0.10905E-03   -0.61184E-04 31488   0.916E-02    0.111E-01
DAV:   5    -0.243816901412E+03    0.99137E-05   -0.92978E-05 30280   0.378E-02
  42 F= -.24381690E+03 E0= -.24381690E+03  d E =-.370671E-02  mag=    20.0000
       N       E                     dE             d eps       ncg     rms          rms(c)
DAV:   1    -0.243806772642E+03    0.10139E-01   -0.20361E+00 25632   0.558E+00    0.500E-01
DAV:   2    -0.243817432392E+03   -0.10660E-01   -0.10565E-01 26426   0.973E-01    0.249E-01
DAV:   3    -0.243817639282E+03   -0.20689E-03   -0.29034E-03 29456   0.167E-01    0.130E-01
DAV:   4    -0.243817537777E+03    0.10150E-03   -0.36196E-04 31456   0.728E-02    0.781E-02
DAV:   5    -0.243817518303E+03    0.19474E-04   -0.83941E-05 28712   0.406E-02    0.289E-02
DAV:   6    -0.243817519955E+03   -0.16517E-05   -0.30415E-05 23256   0.190E-02
  43 F= -.24381752E+03 E0= -.24381752E+03  d E =-.618543E-03  mag=    20.0000
       N       E                     dE             d eps       ncg     rms          rms(c)
DAV:   1    -0.243209699899E+03    0.60782E+00   -0.13570E+02 25920   0.433E+01    0.403E+00
DAV:   2    -0.243812687588E+03   -0.60299E+00   -0.61082E+00 26232   0.751E+00    0.190E+00
DAV:   3    -0.243816243463E+03   -0.35559E-02   -0.15747E-01 29312   0.128E+00    0.103E+00
DAV:   4    -0.243809925369E+03    0.63181E-02   -0.24114E-02 30720   0.559E-01    0.663E-01
DAV:   5    -0.243808402670E+03    0.15227E-02   -0.47399E-03 30208   0.292E-01    0.264E-01
DAV:   6    -0.243808445466E+03   -0.42796E-04   -0.21895E-03 29432   0.170E-01    0.106E-01
DAV:   7    -0.243808483432E+03   -0.37965E-04   -0.24131E-04 29616   0.546E-02    0.447E-02
DAV:   8    -0.243808477166E+03    0.62653E-05   -0.53009E-05 27320   0.284E-02
  44 F= -.24380848E+03 E0= -.24380848E+03  d E =0.904279E-02  mag=    20.0000
       N       E                     dE             d eps       ncg     rms          rms(c)
DAV:   1    -0.243673128549E+03    0.13535E+00   -0.29011E+01 25912   0.208E+01    0.236E+00
DAV:   2    -0.243818367335E+03   -0.14524E+00   -0.14976E+00 26662   0.365E+00    0.112E+00
DAV:   3    -0.243818966789E+03   -0.59945E-03   -0.41206E-02 29840   0.671E-01    0.682E-01
DAV:   4    -0.243817300191E+03    0.16666E-02   -0.56743E-03 31224   0.280E-01    0.439E-01
DAV:   5    -0.243816873269E+03    0.42692E-03   -0.13423E-03 29648   0.162E-01    0.126E-01
DAV:   6    -0.243816905943E+03   -0.32674E-04   -0.60634E-04 30880   0.891E-02    0.582E-02
DAV:   7    -0.243816904977E+03    0.96563E-06   -0.62337E-05 28720   0.293E-02
  45 F= -.24381690E+03 E0= -.24381690E+03  d E =-.842781E-02  mag=    20.0000
       N       E                     dE             d eps       ncg     rms          rms(c)
DAV:   1    -0.243554032200E+03    0.26287E+00   -0.57766E+01 25608   0.275E+01    0.369E+00
DAV:   2    -0.243804768857E+03   -0.25074E+00   -0.26435E+00 27098   0.494E+00    0.151E+00
DAV:   3    -0.243803390858E+03    0.13780E-02   -0.81712E-02 30240   0.955E-01    0.896E-01
DAV:   4    -0.243800369535E+03    0.30213E-02   -0.11425E-02 31088   0.399E-01    0.536E-01
DAV:   5    -0.243799312122E+03    0.10574E-02   -0.21596E-03 30168   0.218E-01    0.186E-01
DAV:   6    -0.243799288279E+03    0.23842E-04   -0.14079E-03 30312   0.144E-01    0.824E-02
DAV:   7    -0.243799308602E+03   -0.20323E-04   -0.23501E-04 29368   0.494E-02    0.437E-02
DAV:   8    -0.243799302103E+03    0.64994E-05   -0.28349E-05 23664   0.201E-02
  46 F= -.24379930E+03 E0= -.24379930E+03  d E =0.176029E-01  mag=    20.0000
       N       E                     dE             d eps       ncg     rms          rms(c)
DAV:   1    -0.243761351448E+03    0.37957E-01   -0.12811E+01 25520   0.132E+01    0.272E+00
DAV:   2    -0.243820818048E+03   -0.59467E-01   -0.66966E-01 27464   0.254E+00    0.980E-01
DAV:   3    -0.243817299184E+03    0.35189E-02   -0.23516E-02 29656   0.548E-01    0.579E-01
DAV:   4    -0.243816141009E+03    0.11582E-02   -0.31995E-03 31248   0.235E-01    0.289E-01
DAV:   5    -0.243815561699E+03    0.57931E-03   -0.85500E-04 30648   0.150E-01    0.897E-02
DAV:   6    -0.243815561331E+03    0.36847E-06   -0.66990E-04 29912   0.875E-02    0.705E-02
DAV:   7    -0.243815557873E+03    0.34582E-05   -0.71730E-05 29608   0.305E-02
  47 F= -.24381556E+03 E0= -.24381556E+03  d E =-.162558E-01  mag=    20.0000
       N       E                     dE             d eps       ncg     rms          rms(c)
DAV:   1    -0.243702300457E+03    0.11326E+00   -0.30171E+01 25536   0.197E+01    0.205E+00
DAV:   2    -0.243830486565E+03   -0.12819E+00   -0.13213E+00 25936   0.341E+00    0.904E-01
DAV:   3    -0.243830686480E+03   -0.19991E-03   -0.34602E-02 29704   0.600E-01    0.514E-01
DAV:   4    -0.243829193849E+03    0.14926E-02   -0.55577E-03 30976   0.278E-01    0.323E-01
DAV:   5    -0.243828902816E+03    0.29103E-03   -0.12654E-03 29792   0.146E-01    0.113E-01
DAV:   6    -0.243828902597E+03    0.21906E-06   -0.50728E-04 30312   0.805E-02    0.508E-02
DAV:   7    -0.243828907631E+03   -0.50340E-05   -0.62267E-05 28656   0.266E-02
  48 F= -.24382891E+03 E0= -.24382891E+03  d E =-.133498E-01  mag=    20.0000
       N       E                     dE             d eps       ncg     rms          rms(c)
DAV:   1    -0.243810158966E+03    0.18744E-01   -0.22871E+00 25632   0.531E+00    0.131E+00
DAV:   2    -0.243820191620E+03   -0.10033E-01   -0.12184E-01 28952   0.108E+00    0.543E-01
DAV:   3    -0.243819210388E+03    0.98123E-03   -0.51457E-03 29688   0.258E-01    0.316E-01
DAV:   4    -0.243818984653E+03    0.22573E-03   -0.84982E-04 30592   0.112E-01    0.154E-01
DAV:   5    -0.243818888396E+03    0.96257E-04   -0.15806E-04 29680   0.625E-02    0.487E-02
DAV:   6    -0.243818888815E+03   -0.41900E-06   -0.13015E-04 29744   0.391E-02    0.308E-02
DAV:   7    -0.243818888901E+03   -0.86162E-07   -0.13026E-05 18784   0.133E-02
  49 F= -.24381889E+03 E0= -.24381889E+03  d E =0.100187E-01  mag=    20.0000
       N       E                     dE             d eps       ncg     rms          rms(c)
DAV:   1    -0.243814549301E+03    0.43395E-02   -0.34628E+00 25512   0.653E+00    0.121E+00
DAV:   2    -0.243829155056E+03   -0.14606E-01   -0.16385E-01 27400   0.122E+00    0.465E-01
DAV:   3    -0.243828521196E+03    0.63386E-03   -0.53774E-03 29440   0.256E-01    0.265E-01
DAV:   4    -0.243828304791E+03    0.21641E-03   -0.91916E-04 30488   0.114E-01    0.136E-01
DAV:   5    -0.243828223377E+03    0.81414E-04   -0.14519E-04 30104   0.575E-02    0.450E-02
DAV:   6    -0.243828221189E+03    0.21883E-05   -0.10809E-04 29856   0.363E-02    0.275E-02
DAV:   7    -0.243828221329E+03   -0.14015E-06   -0.11525E-05 18744   0.127E-02
  50 F= -.24382822E+03 E0= -.24382822E+03  d E =-.933243E-02  mag=    20.0000
       N       E                     dE             d eps       ncg     rms          rms(c)
DAV:   1    -0.243827641755E+03    0.57943E-03   -0.95082E-02 25648   0.127E+00    0.118E-01
DAV:   2    -0.243828227520E+03   -0.58577E-03   -0.56513E-03 26752   0.218E-01    0.550E-02
DAV:   3    -0.243828244281E+03   -0.16761E-04   -0.16881E-04 29648   0.384E-02    0.266E-02
DAV:   4    -0.243828239593E+03    0.46879E-05   -0.12868E-05 18664   0.139E-02
  51 F= -.24382824E+03 E0= -.24382824E+03  d E =-.182646E-04  mag=    20.0000
