       N       E                     dE             d eps       ncg     rms          ort
DAV:   1     0.221937321706E+04    0.22194E+04   -0.13314E+05  9828   0.153E+03
DAV:   2    -0.254846344056E+03   -0.24742E+04   -0.23674E+04  9828   0.407E+02
DAV:   3    -0.476569925427E+03   -0.22172E+03   -0.21764E+03  9828   0.142E+02
DAV:   4    -0.484966047069E+03   -0.83961E+01   -0.83045E+01  9828   0.307E+01
DAV:   5    -0.485334120618E+03   -0.36807E+00   -0.36736E+00  9828   0.462E+00
SDA:   6    -0.252649422538E+03    0.23268E+03   -0.36736E+00  9828   0.736E+03 0.000E+00
CGA:   7    -0.319998358612E+03   -0.67349E+02   -0.83292E+02  9828   0.569E+03-0.791E+01
CGA:   8    -0.331935389923E+03   -0.11937E+02   -0.42031E+02  9828   0.366E+03-0.107E+03
CGA:   9    -0.346832170434E+03   -0.14897E+02   -0.17122E+02  9828   0.396E+03-0.492E+03
CGA:  10    -0.347971721740E+03   -0.11396E+01   -0.31466E+02  9828   0.318E+03-0.139E+03
CGA:  11    -0.356545565106E+03   -0.85738E+01   -0.14178E+02  9828   0.515E+03-0.397E+03
CGA:  12    -0.345958388143E+03    0.10587E+02   -0.35730E+02  9828   0.347E+03-0.202E+03
CGA:  13    -0.359290064488E+03   -0.13332E+02   -0.14982E+02  9828   0.345E+03-0.360E+03
CGA:  14    -0.355640490955E+03    0.36496E+01   -0.20057E+02  9828   0.235E+03-0.203E+03
CGA:  15    -0.349803901929E+03    0.58366E+01   -0.12917E+02  9828   0.184E+03-0.150E+03
CGA:  16    -0.356749839523E+03   -0.69459E+01   -0.99966E+01  9828   0.989E+02-0.101E+03
CGA:  17    -0.373829472612E+03   -0.17080E+02   -0.37164E+01  9828   0.624E+02-0.232E+03
CGA:  18    -0.374762832255E+03   -0.93336E+00   -0.19148E+01  9828   0.217E+02-0.218E+02
CGA:  19    -0.375346528009E+03   -0.58370E+00   -0.52706E+00  9828   0.564E+01 0.685E+00
CGA:  20    -0.375675506742E+03   -0.32898E+00   -0.33043E+00  9828   0.683E+01 0.656E-01
CGA:  21    -0.376145648592E+03   -0.47014E+00   -0.51239E+00  9828   0.117E+02 0.725E-01
CGA:  22    -0.376787549635E+03   -0.64190E+00   -0.47049E+00  9828   0.502E+01 0.276E+01
CGA:  23    -0.376962874267E+03   -0.17532E+00   -0.22505E+00  9828   0.240E+01-0.110E+01
CGA:  24    -0.377064970736E+03   -0.10210E+00   -0.10693E+00  9828   0.236E+01-0.681E-01
CGA:  25    -0.377157365437E+03   -0.92395E-01   -0.10167E+00  9828   0.106E+01-0.175E+00
CGA:  26    -0.377224680084E+03   -0.67315E-01   -0.69687E-01  9828   0.111E+01-0.248E-01
CGA:  27    -0.377276465091E+03   -0.51785E-01   -0.48030E-01  9828   0.745E+00 0.125E-01
CGA:  28    -0.377332711067E+03   -0.56246E-01   -0.42963E-01  9828   0.370E+00 0.107E+00
CGA:  29    -0.377373613721E+03   -0.40903E-01   -0.41093E-01  9828   0.114E+01-0.541E-02
CGA:  30    -0.377411150420E+03   -0.37537E-01   -0.19830E-01  9828   0.738E+00 0.824E+00
CGA:  31    -0.377432609066E+03   -0.21459E-01   -0.20520E-01  9828   0.154E+00 0.379E-02
CGA:  32    -0.377509129715E+03   -0.76521E-01   -0.71706E-01  9828   0.104E+01 0.196E-01
CGA:  33    -0.377621176463E+03   -0.11205E+00   -0.11107E+00  9828   0.283E+00-0.140E+00
CGA:  34    -0.377656536870E+03   -0.35360E-01   -0.37831E-01  9828   0.425E+00-0.571E-01
CGA:  35    -0.377714522349E+03   -0.57985E-01   -0.63636E-01  9828   0.228E+00-0.843E-01
CGA:  36    -0.377749124284E+03   -0.34602E-01   -0.34673E-01  9828   0.125E+00-0.123E-01
CGA:  37    -0.377781050852E+03   -0.31927E-01   -0.40267E-01  9828   0.110E+00-0.377E-01
CGA:  38    -0.377799782824E+03   -0.18732E-01   -0.20581E-01  9828   0.519E-01-0.121E-01
CGA:  39    -0.377811604653E+03   -0.11822E-01   -0.11266E-01  9828   0.335E-01 0.557E-02
CGA:  40    -0.377822506929E+03   -0.10902E-01   -0.95002E-02  9828   0.217E-01 0.127E-01
CGA:  41    -0.377829835250E+03   -0.73283E-02   -0.65836E-02  9828   0.102E-01 0.108E-01
CGA:  42    -0.377832978512E+03   -0.31433E-02   -0.28803E-02  9828   0.553E-02 0.760E-02
CGA:  43    -0.377834190749E+03   -0.12122E-02   -0.10803E-02  9828   0.324E-02 0.332E-02
CGA:  44    -0.377834954018E+03   -0.76327E-03   -0.65060E-03  9828   0.245E-02 0.258E-02
CGA:  45    -0.377835370951E+03   -0.41693E-03   -0.40471E-03  9828   0.203E-02 0.215E-02
CGA:  46    -0.377835751678E+03   -0.38073E-03   -0.35413E-03  9828   0.174E-02 0.185E-02
CGA:  47    -0.377836020607E+03   -0.26893E-03   -0.27360E-03  9828   0.153E-02 0.162E-02
CGA:  48    -0.377836256335E+03   -0.23573E-03   -0.24043E-03  9828   0.137E-02 0.144E-02
CGA:  49    -0.377836449023E+03   -0.19269E-03   -0.20529E-03  9828   0.123E-02 0.129E-02
CGA:  50    -0.377836616867E+03   -0.16784E-03   -0.18195E-03  9828   0.112E-02 0.117E-02
CGA:  51    -0.377836763413E+03   -0.14655E-03   -0.16216E-03  9828   0.103E-02 0.107E-02
CGA:  52    -0.377836894616E+03   -0.13120E-03   -0.14675E-03  9828   0.950E-03 0.986E-03
CGA:  53    -0.377837013179E+03   -0.11856E-03   -0.13375E-03  9828   0.880E-03 0.912E-03
CGA:  54    -0.377837121688E+03   -0.10851E-03   -0.12292E-03  9828   0.819E-03 0.847E-03
CGA:  55    -0.377837221956E+03   -0.10027E-03   -0.11372E-03  9828   0.766E-03 0.791E-03
CGA:  56    -0.377837315473E+03   -0.93517E-04   -0.10586E-03  9828   0.718E-03 0.740E-03
CGA:  57    -0.377837403382E+03   -0.87909E-04   -0.99075E-04  9828   0.675E-03 0.695E-03
CGA:  58    -0.377837486601E+03   -0.83219E-04   -0.93171E-04  9828   0.636E-03 0.654E-03
CGA:  59    -0.377837565852E+03   -0.79251E-04   -0.87992E-04  9828   0.600E-03 0.617E-03
CGA:  60    -0.377837641717E+03   -0.75865E-04   -0.83414E-04  9828   0.568E-03 0.584E-03
CGA:  61    -0.377837714659E+03   -0.72942E-04   -0.79335E-04  9828   0.538E-03 0.553E-03
CGA:  62    -0.377837785048E+03   -0.70389E-04   -0.75675E-04  9828   0.511E-03 0.524E-03
CGA:  63    -0.377837853179E+03   -0.68131E-04   -0.72364E-04  9828   0.485E-03 0.498E-03
CGA:  64    -0.377837919292E+03   -0.66113E-04   -0.69351E-04  9828   0.462E-03 0.473E-03
CGA:  65    -0.377837983579E+03   -0.64288E-04   -0.66594E-04  9828   0.440E-03 0.450E-03
CGA:  66    -0.377838046205E+03   -0.62626E-04   -0.64059E-04  9828   0.419E-03 0.429E-03
CGA:  67    -0.377838107307E+03   -0.61103E-04   -0.61721E-04  9828   0.399E-03 0.409E-03
CGA:  68    -0.377838167010E+03   -0.59703E-04   -0.59560E-04  9828   0.381E-03 0.390E-03
CGA:  69    -0.377838225422E+03   -0.58412E-04   -0.57560E-04  9828   0.364E-03 0.372E-03
CGA:  70    -0.377838282642E+03   -0.57220E-04   -0.55705E-04  9828   0.347E-03 0.355E-03
CGA:  71    -0.377838338759E+03   -0.56117E-04   -0.53981E-04  9828   0.332E-03 0.339E-03
CGA:  72    -0.377838393855E+03   -0.55096E-04   -0.52379E-04  9828   0.317E-03 0.324E-03
CGA:  73    -0.377838447999E+03   -0.54144E-04   -0.50885E-04  9828   0.303E-03 0.310E-03
CGA:  74    -0.377838501259E+03   -0.53260E-04   -0.49489E-04  9828   0.290E-03 0.297E-03
CGA:  75    -0.377838553690E+03   -0.52430E-04   -0.48180E-04  9828   0.278E-03 0.284E-03
CGA:  76    -0.377838605345E+03   -0.51656E-04   -0.46952E-04  9828   0.266E-03 0.272E-03
CGA:  77    -0.377838656280E+03   -0.50934E-04   -0.45798E-04  9828   0.254E-03 0.260E-03
CGA:  78    -0.377838706537E+03   -0.50258E-04   -0.44708E-04  9828   0.243E-03 0.249E-03
CGA:  79    -0.377838756158E+03   -0.49621E-04   -0.43676E-04  9828   0.232E-03 0.238E-03
CGA:  80    -0.377838805178E+03   -0.49020E-04   -0.42694E-04  9828   0.222E-03 0.227E-03
CGA:  81    -0.377838853626E+03   -0.48448E-04   -0.41754E-04  9828   0.212E-03 0.217E-03
CGA:  82    -0.377838901522E+03   -0.47896E-04   -0.40850E-04  9828   0.202E-03 0.207E-03
CGA:  83    -0.377838948874E+03   -0.47352E-04   -0.39970E-04  9828   0.192E-03 0.197E-03
CGA:  84    -0.377838995676E+03   -0.46803E-04   -0.39105E-04  9828   0.183E-03 0.188E-03
CGA:  85    -0.377839041906E+03   -0.46230E-04   -0.38242E-04  9828   0.174E-03 0.178E-03
CGA:  86    -0.377839087524E+03   -0.45618E-04   -0.37372E-04  9828   0.165E-03 0.169E-03
CGA:  87    -0.377839132478E+03   -0.44954E-04   -0.36484E-04  9828   0.156E-03 0.160E-03
CGA:  88    -0.377839176702E+03   -0.44225E-04   -0.35572E-04  9828   0.147E-03 0.151E-03
CGA:  89    -0.377839220122E+03   -0.43420E-04   -0.34628E-04  9828   0.138E-03 0.143E-03
CGA:  90    -0.377839262654E+03   -0.42531E-04   -0.33649E-04  9828   0.130E-03 0.134E-03
CGA:  91    -0.377839304207E+03   -0.41553E-04   -0.32630E-04  9828   0.122E-03 0.126E-03
CGA:  92    -0.377839344677E+03   -0.40470E-04   -0.31564E-04  9828   0.114E-03 0.118E-03
CGA:  93    -0.377839383962E+03   -0.39286E-04   -0.30453E-04  9828   0.106E-03 0.110E-03
CGA:  94    -0.377839421927E+03   -0.37964E-04   -0.29279E-04  9828   0.986E-04 0.102E-03
CGA:  95    -0.377839458487E+03   -0.36561E-04   -0.28071E-04  9828   0.914E-04 0.949E-04
CGA:  96    -0.377839493434E+03   -0.34947E-04   -0.26763E-04  9828   0.846E-04 0.879E-04
CGA:  97    -0.377839526820E+03   -0.33386E-04   -0.25493E-04  9828   0.782E-04 0.812E-04
CGA:  98    -0.377839558062E+03   -0.31242E-04   -0.23950E-04  9828   0.723E-04 0.748E-04
CGA:  99    -0.377839587720E+03   -0.29658E-04   -0.22766E-04  9828   0.677E-04 0.682E-04
CGA: 100    -0.377839612977E+03   -0.25257E-04   -0.20327E-04  9828   0.657E-04 0.608E-04
CGA: 101    -0.377839636920E+03   -0.23943E-04   -0.19857E-04  9828   0.674E-04 0.513E-04
CGA: 102    -0.377839653502E+03   -0.16582E-04   -0.16091E-04  9828   0.619E-04 0.444E-04
CGA: 103    -0.377839675558E+03   -0.22056E-04   -0.18978E-04  9828   0.642E-04 0.387E-04
CGA: 104    -0.377839687163E+03   -0.11605E-04   -0.12892E-04  9828   0.496E-04 0.405E-04
CGA: 105    -0.377839717700E+03   -0.30537E-04   -0.22364E-04  9828   0.576E-04 0.362E-04
CGA: 106    -0.377839720982E+03   -0.32819E-05   -0.77136E-05  9828   0.403E-04 0.409E-04
CGA: 107    -0.377839754608E+03   -0.33626E-04   -0.22249E-04  9828   0.415E-04 0.352E-04
CGA: 108    -0.377839754049E+03    0.55956E-06   -0.44485E-05  9828   0.339E-04 0.344E-04
CGA: 109    -0.377839768432E+03   -0.14383E-04   -0.11393E-04  9828   0.312E-04 0.322E-04
CGA: 110    -0.377839778436E+03   -0.10004E-04   -0.89051E-05  9828   0.291E-04 0.299E-04
CGA: 111    -0.377839794332E+03   -0.15896E-04   -0.11689E-04  9828   0.268E-04 0.274E-04
CGA: 112    -0.377839797590E+03   -0.32581E-05   -0.50589E-05  9828   0.255E-04 0.254E-04
CGA: 113    -0.377839824119E+03   -0.26530E-04   -0.17138E-04  9828   0.295E-04 0.218E-04
CGA: 114    -0.377839821826E+03    0.22929E-05   -0.23203E-05  9828   0.217E-04 0.233E-04
   1 F= -.37783982E+03 E0= -.37783982E+03  d E =-.377840E+03  mag=     4.0000
       N       E                     dE             d eps       ncg     rms          ort
SDA:   1    -0.377873557839E+03   -0.33734E-01    0.00000E+00  9828   0.721E-02 0.000E+00
CGA:   2    -0.377874999582E+03   -0.14417E-02   -0.14919E-02  9828   0.150E-02 0.920E-03
CGA:   3    -0.377875544957E+03   -0.54538E-03   -0.56399E-03  9828   0.703E-03-0.250E-03
CGA:   4    -0.377875656756E+03   -0.11180E-03   -0.10817E-03  9828   0.204E-03-0.468E-04
CGA:   5    -0.377875708880E+03   -0.52123E-04   -0.83676E-04  9828   0.337E-03-0.176E-03
CGA:   6    -0.377875740383E+03   -0.31503E-04   -0.43444E-04  9828   0.628E-04 0.867E-04
CGA:   7    -0.377875749712E+03   -0.93287E-05   -0.12363E-04  9828   0.261E-04 0.291E-04
   2 F= -.37787575E+03 E0= -.37787575E+03  d E =-.359279E-01  mag=     4.0000
       N       E                     dE             d eps       ncg     rms          ort
SDA:   1    -0.373193589173E+03    0.46822E+01    0.00000E+00  9828   0.189E+02 0.000E+00
CGA:   2    -0.377720596547E+03   -0.45270E+01   -0.45275E+01  9828   0.458E+01 0.167E-01
CGA:   3    -0.378914176957E+03   -0.11936E+01   -0.11938E+01  9828   0.131E+01-0.250E-01
CGA:   4    -0.379175192177E+03   -0.26102E+00   -0.26069E+00  9828   0.312E+00-0.652E-02
CGA:   5    -0.379243379591E+03   -0.68187E-01   -0.68105E-01  9828   0.938E-01-0.290E-02
CGA:   6    -0.379269332051E+03   -0.25952E-01   -0.25977E-01  9828   0.406E-01-0.750E-03
CGA:   7    -0.379281956753E+03   -0.12625E-01   -0.12600E-01  9828   0.172E-01 0.360E-03
CGA:   8    -0.379287366032E+03   -0.54093E-02   -0.53843E-02  9828   0.593E-02 0.419E-03
CGA:   9    -0.379289330708E+03   -0.19647E-02   -0.19637E-02  9828   0.211E-02 0.902E-05
CGA:  10    -0.379290098672E+03   -0.76796E-03   -0.80064E-03  9828   0.111E-02-0.270E-03
CGA:  11    -0.379290399615E+03   -0.30094E-03   -0.29772E-03  9828   0.495E-03 0.724E-04
CGA:  12    -0.379290583396E+03   -0.18378E-03   -0.18679E-03  9828   0.288E-03-0.348E-04
CGA:  13    -0.379290652803E+03   -0.69406E-04   -0.69967E-04  9828   0.114E-03 0.615E-04
CGA:  14    -0.379290709541E+03   -0.56739E-04   -0.57504E-04  9828   0.978E-04-0.701E-05
CGA:  15    -0.379290747561E+03   -0.38020E-04   -0.36502E-04  9828   0.105E-03 0.984E-05
CGA:  16    -0.379290777661E+03   -0.30100E-04   -0.30881E-04  9828   0.681E-04 0.468E-04
CGA:  17    -0.379290824949E+03   -0.47287E-04   -0.43780E-04  9828   0.833E-04 0.170E-04
CGA:  18    -0.379290827366E+03   -0.24177E-05   -0.10636E-03  9828   0.733E-03-0.162E-03
CGA:  19    -0.379290930657E+03   -0.10329E-03   -0.11644E-03  9828   0.133E-03 0.823E-04
CGA:  20    -0.379290975426E+03   -0.44769E-04   -0.44954E-04  9828   0.224E-04 0.131E-04
CGA:  21    -0.379290984883E+03   -0.94571E-05   -0.12667E-04  9828   0.557E-04-0.163E-04
   3 F= -.37929098E+03 E0= -.37929098E+03  d E =-.141524E+01  mag=     4.0000
       N       E                     dE             d eps       ncg     rms          ort
SDA:   1    -0.370448115971E+03    0.88429E+01    0.00000E+00  9828   0.327E+02 0.000E+00
CGA:   2    -0.377736083404E+03   -0.72880E+01   -0.73141E+01  9828   0.717E+01 0.685E-01
CGA:   3    -0.379645393299E+03   -0.19093E+01   -0.19072E+01  9828   0.210E+01-0.397E-01
CGA:   4    -0.380066372799E+03   -0.42098E+00   -0.41999E+00  9828   0.512E+00-0.945E-02
CGA:   5    -0.380175492129E+03   -0.10912E+00   -0.10913E+00  9828   0.148E+00 0.330E-04
CGA:   6    -0.380217034980E+03   -0.41543E-01   -0.41562E-01  9828   0.650E-01 0.946E-03
CGA:   7    -0.380238576043E+03   -0.21541E-01   -0.21548E-01  9828   0.304E-01-0.225E-03
CGA:   8    -0.380248402614E+03   -0.98266E-02   -0.98412E-02  9828   0.108E-01-0.586E-03
CGA:   9    -0.380251843905E+03   -0.34413E-02   -0.34474E-02  9828   0.359E-02-0.275E-03
CGA:  10    -0.380253033801E+03   -0.11899E-02   -0.11941E-02  9828   0.131E-02-0.112E-03
CGA:  11    -0.380253513739E+03   -0.47994E-03   -0.47865E-03  9828   0.547E-03 0.167E-04
CGA:  12    -0.380253762495E+03   -0.24876E-03   -0.27707E-03  9828   0.412E-03-0.148E-03
CGA:  13    -0.380253863746E+03   -0.10125E-03   -0.10306E-03  9828   0.250E-03-0.721E-04
CGA:  14    -0.380253942382E+03   -0.78636E-04   -0.94530E-04  9828   0.269E-03-0.115E-03
CGA:  15    -0.380254001475E+03   -0.59093E-04   -0.68645E-04  9828   0.265E-03-0.677E-04
CGA:  16    -0.380254058486E+03   -0.57011E-04   -0.16640E-03  9828   0.686E-03-0.223E-03
CGA:  17    -0.380254236407E+03   -0.17792E-03   -0.17338E-03  9828   0.209E-03-0.407E-04
CGA:  18    -0.380254281323E+03   -0.44916E-04   -0.44893E-04  9828   0.573E-04 0.674E-06
CGA:  19    -0.380254305040E+03   -0.23717E-04   -0.23040E-04  9828   0.229E-04 0.127E-04
CGA:  20    -0.380254242747E+03    0.62293E-04   -0.44522E-04  9828   0.675E-03-0.861E-04
CGA:  21    -0.380254328149E+03   -0.85401E-04   -0.96764E-04  9828   0.387E-04 0.473E-04
CGA:  22    -0.380254339157E+03   -0.11009E-04   -0.11905E-04  9828   0.141E-04 0.806E-05
CGA:  23    -0.380254272507E+03    0.66650E-04   -0.28780E-04  9828   0.515E-03-0.733E-04
CGA:  24    -0.380254344143E+03   -0.71636E-04   -0.81044E-04  9828   0.480E-04 0.347E-04
CGA:  25    -0.380254364743E+03   -0.20600E-04   -0.20382E-04  9828   0.153E-04-0.486E-05
CGA:  26    -0.380254103061E+03    0.26168E-03   -0.14235E-03  9828   0.165E-02-0.126E-03
CGA:  27    -0.380254342910E+03   -0.23985E-03   -0.27118E-03  9828   0.768E-04 0.594E-04
CGA:  28    -0.380254376378E+03   -0.33468E-04   -0.34422E-04  9828   0.478E-04 0.291E-05
CGA:  29    -0.380254397350E+03   -0.20972E-04   -0.15849E-04  9828   0.113E-04-0.117E-04
CGA:  30    -0.380254396913E+03    0.43724E-06   -0.14720E-05  9828   0.344E-05 0.342E-05
   4 F= -.38025440E+03 E0= -.38025440E+03  d E =-.963412E+00  mag=     4.0000
       N       E                     dE             d eps       ncg     rms          ort
SDA:   1    -0.375984497887E+03    0.42699E+01    0.00000E+00  9828   0.151E+02 0.000E+00
CGA:   2    -0.379395514825E+03   -0.34110E+01   -0.34590E+01  9828   0.320E+01 0.231E+00
CGA:   3    -0.380283959404E+03   -0.88844E+00   -0.88515E+00  9828   0.925E+00 0.100E-01
CGA:   4    -0.380471269153E+03   -0.18731E+00   -0.18711E+00  9828   0.232E+00 0.251E-03
CGA:   5    -0.380519858168E+03   -0.48589E-01   -0.48655E-01  9828   0.654E-01-0.105E-03
CGA:   6    -0.380538577081E+03   -0.18719E-01   -0.18765E-01  9828   0.306E-01 0.138E-03
CGA:   7    -0.380548723358E+03   -0.10146E-01   -0.10160E-01  9828   0.152E-01 0.463E-04
CGA:   8    -0.380553570861E+03   -0.48475E-02   -0.48369E-02  9828   0.546E-02-0.428E-04
CGA:   9    -0.380555236642E+03   -0.16658E-02   -0.16704E-02  9828   0.171E-02 0.209E-04
CGA:  10    -0.380555764916E+03   -0.52827E-03   -0.52408E-03  9828   0.569E-03-0.172E-04
CGA:  11    -0.380555923907E+03   -0.15899E-03   -0.16771E-03  9828   0.216E-03 0.389E-04
CGA:  12    -0.380556004145E+03   -0.80237E-04   -0.79097E-04  9828   0.107E-03-0.627E-05
CGA:  13    -0.380556036999E+03   -0.32854E-04   -0.32871E-04  9828   0.461E-04 0.351E-06
CGA:  14    -0.380556056770E+03   -0.19771E-04   -0.18928E-04  9828   0.344E-04-0.932E-05
CGA:  15    -0.380556066954E+03   -0.10183E-04   -0.10155E-04  9828   0.249E-04-0.175E-06
CGA:  16    -0.380556082541E+03   -0.15588E-04   -0.19753E-04  9828   0.582E-04-0.136E-04
CGA:  17    -0.380556100607E+03   -0.18066E-04   -0.16910E-04  9828   0.232E-04-0.526E-05
CGA:  18    -0.380556110019E+03   -0.94116E-05   -0.81185E-05  9828   0.305E-04-0.118E-04
   5 F= -.38055611E+03 E0= -.38055611E+03  d E =-.301713E+00  mag=     4.0000
       N       E                     dE             d eps       ncg     rms          ort
SDA:   1    -0.376699685081E+03    0.38564E+01    0.00000E+00  9828   0.130E+02 0.000E+00
CGA:   2    -0.379600750103E+03   -0.29011E+01   -0.29178E+01  9828   0.316E+01 0.295E-02
CGA:   3    -0.380417458287E+03   -0.81671E+00   -0.81646E+00  9828   0.885E+00 0.307E-02
CGA:   4    -0.380589481204E+03   -0.17202E+00   -0.17253E+00  9828   0.211E+00 0.128E-02
CGA:   5    -0.380633515515E+03   -0.44034E-01   -0.44160E-01  9828   0.566E-01 0.421E-03
CGA:   6    -0.380649555991E+03   -0.16040E-01   -0.16010E-01  9828   0.266E-01-0.190E-03
CGA:   7    -0.380658487152E+03   -0.89312E-02   -0.89059E-02  9828   0.140E-01-0.313E-03
CGA:   8    -0.380662971532E+03   -0.44844E-02   -0.44825E-02  9828   0.523E-02-0.286E-04
CGA:   9    -0.380664518090E+03   -0.15466E-02   -0.15596E-02  9828   0.149E-02 0.118E-03
CGA:  10    -0.380664993259E+03   -0.47517E-03   -0.47248E-03  9828   0.448E-03-0.285E-04
CGA:  11    -0.380665149318E+03   -0.15606E-03   -0.15503E-03  9828   0.178E-03-0.224E-04
CGA:  12    -0.380665207285E+03   -0.57967E-04   -0.57860E-04  9828   0.780E-04-0.193E-05
CGA:  13    -0.380665228166E+03   -0.20881E-04   -0.21732E-04  9828   0.287E-04 0.765E-05
CGA:  14    -0.380665241863E+03   -0.13697E-04   -0.14071E-04  9828   0.212E-04-0.644E-05
CGA:  15    -0.380665248894E+03   -0.70306E-05   -0.70653E-05  9828   0.175E-04-0.103E-05
   6 F= -.38066525E+03 E0= -.38066525E+03  d E =-.109139E+00  mag=     4.0000
       N       E                     dE             d eps       ncg     rms          ort
SDA:   1    -0.373608596769E+03    0.70566E+01    0.00000E+00  9828   0.195E+02 0.000E+00
CGA:   2    -0.378627214094E+03   -0.50186E+01   -0.50189E+01  9828   0.691E+01 0.430E-02
CGA:   3    -0.380197528049E+03   -0.15703E+01   -0.15712E+01  9828   0.165E+01 0.734E-02
CGA:   4    -0.380501530997E+03   -0.30400E+00   -0.30372E+00  9828   0.325E+00 0.123E-01
CGA:   5    -0.380570801194E+03   -0.69270E-01   -0.69468E-01  9828   0.858E-01 0.113E-02
CGA:   6    -0.380592734179E+03   -0.21933E-01   -0.21853E-01  9828   0.337E-01-0.675E-03
CGA:   7    -0.380602746779E+03   -0.10013E-01   -0.10002E-01  9828   0.154E-01-0.138E-03
CGA:   8    -0.380607792747E+03   -0.50460E-02   -0.50375E-02  9828   0.729E-02-0.278E-03
CGA:   9    -0.380609781552E+03   -0.19888E-02   -0.20153E-02  9828   0.249E-02 0.363E-03
CGA:  10    -0.380610572829E+03   -0.79128E-03   -0.78913E-03  9828   0.933E-03-0.403E-04
CGA:  11    -0.380610836096E+03   -0.26327E-03   -0.26700E-03  9828   0.373E-03 0.635E-04
CGA:  12    -0.380610963862E+03   -0.12777E-03   -0.12856E-03  9828   0.181E-03 0.308E-04
CGA:  13    -0.380611022251E+03   -0.58389E-04   -0.60451E-04  9828   0.854E-04 0.529E-04
CGA:  14    -0.380611060583E+03   -0.38332E-04   -0.38263E-04  9828   0.496E-04 0.375E-04
CGA:  15    -0.380611091241E+03   -0.30659E-04   -0.28791E-04  9828   0.447E-04 0.307E-04
CGA:  16    -0.380611104566E+03   -0.13325E-04   -0.13946E-04  9828   0.296E-04 0.170E-04
CGA:  17    -0.380611131495E+03   -0.26929E-04   -0.24622E-04  9828   0.647E-04 0.807E-05
CGA:  18    -0.380611168608E+03   -0.37113E-04   -0.34548E-04  9828   0.575E-04 0.380E-04
CGA:  19    -0.380611200837E+03   -0.32229E-04   -0.37707E-04  9828   0.527E-04-0.190E-04
CGA:  20    -0.380611200726E+03    0.11093E-06   -0.45559E-05  9828   0.328E-04 0.188E-04
   7 F= -.38061120E+03 E0= -.38061120E+03  d E =0.540482E-01  mag=     4.0000
       N       E                     dE             d eps       ncg     rms          ort
SDA:   1    -0.378854882394E+03    0.17563E+01    0.00000E+00  9828   0.456E+01 0.000E+00
CGA:   2    -0.380281818273E+03   -0.14269E+01   -0.14269E+01  9828   0.169E+01-0.220E-02
CGA:   3    -0.380629552531E+03   -0.34773E+00   -0.34774E+00  9828   0.367E+00-0.292E-03
CGA:   4    -0.380698649261E+03   -0.69097E-01   -0.69053E-01  9828   0.735E-01-0.259E-03
CGA:   5    -0.380713915369E+03   -0.15266E-01   -0.15257E-01  9828   0.194E-01-0.575E-04
CGA:   6    -0.380718733015E+03   -0.48176E-02   -0.48173E-02  9828   0.655E-02-0.411E-05
CGA:   7    -0.380720582081E+03   -0.18491E-02   -0.18434E-02  9828   0.248E-02-0.124E-03
CGA:   8    -0.380721430425E+03   -0.84834E-03   -0.85563E-03  9828   0.116E-02-0.262E-03
CGA:   9    -0.380721763079E+03   -0.33265E-03   -0.33194E-03  9828   0.407E-03-0.116E-03
CGA:  10    -0.380721888667E+03   -0.12559E-03   -0.12752E-03  9828   0.185E-03-0.839E-04
CGA:  11    -0.380721940998E+03   -0.52330E-04   -0.53833E-04  9828   0.122E-03-0.381E-04
CGA:  12    -0.380721907576E+03    0.33422E-04   -0.91947E-04  9828   0.849E-03-0.202E-03
CGA:  13    -0.380722031870E+03   -0.12429E-03   -0.13083E-03  9828   0.111E-03 0.367E-04
CGA:  14    -0.380722070030E+03   -0.38160E-04   -0.37886E-04  9828   0.328E-04-0.127E-04
CGA:  15    -0.380722082007E+03   -0.11977E-04   -0.11803E-04  9828   0.129E-04 0.292E-05
CGA:  16    -0.380722090191E+03   -0.81845E-05   -0.85430E-05  9828   0.155E-04-0.158E-05
   8 F= -.38072209E+03 E0= -.38072209E+03  d E =-.110889E+00  mag=     4.0000
       N       E                     dE             d eps       ncg     rms          ort
SDA:   1    -0.379871163341E+03    0.85092E+00    0.00000E+00  9828   0.239E+01 0.000E+00
CGA:   2    -0.380556554004E+03   -0.68539E+00   -0.68500E+00  9828   0.706E+00-0.612E-02
CGA:   3    -0.380727619437E+03   -0.17107E+00   -0.17149E+00  9828   0.140E+00 0.322E-02
CGA:   4    -0.380754747629E+03   -0.27128E-01   -0.27269E-01  9828   0.321E-01 0.798E-03
CGA:   5    -0.380761293408E+03   -0.65458E-02   -0.65643E-02  9828   0.805E-02 0.141E-03
CGA:   6    -0.380763487545E+03   -0.21941E-02   -0.21893E-02  9828   0.316E-02-0.604E-04
CGA:   7    -0.380764475636E+03   -0.98809E-03   -0.98528E-03  9828   0.157E-02-0.904E-04
CGA:   8    -0.380764977539E+03   -0.50190E-03   -0.50214E-03  9828   0.656E-03 0.165E-04
CGA:   9    -0.380765180282E+03   -0.20274E-03   -0.20359E-03  9828   0.212E-03 0.242E-04
CGA:  10    -0.380765253806E+03   -0.73523E-04   -0.73438E-04  9828   0.825E-04-0.127E-04
CGA:  11    -0.380765286940E+03   -0.33134E-04   -0.41540E-04  9828   0.105E-03-0.431E-04
CGA:  12    -0.380765304767E+03   -0.17827E-04   -0.19167E-04  9828   0.221E-04 0.822E-05
CGA:  13    -0.380765314588E+03   -0.98207E-05   -0.11429E-04  9828   0.301E-04-0.116E-04
   9 F= -.38076531E+03 E0= -.38076531E+03  d E =-.432244E-01  mag=     4.0000
       N       E                     dE             d eps       ncg     rms          ort
SDA:   1    -0.378258272764E+03    0.25070E+01    0.00000E+00  9828   0.613E+01 0.000E+00
CGA:   2    -0.380288657707E+03   -0.20304E+01   -0.20303E+01  9828   0.189E+01-0.103E-01
CGA:   3    -0.380686370492E+03   -0.39771E+00   -0.39854E+00  9828   0.366E+00 0.585E-02
CGA:   4    -0.380756308242E+03   -0.69938E-01   -0.70197E-01  9828   0.772E-01 0.183E-02
CGA:   5    -0.380772682887E+03   -0.16375E-01   -0.16352E-01  9828   0.189E-01-0.161E-03
CGA:   6    -0.380777357632E+03   -0.46747E-02   -0.46459E-02  9828   0.614E-02-0.372E-03
CGA:   7    -0.380779073250E+03   -0.17156E-02   -0.17115E-02  9828   0.241E-02-0.115E-03
CGA:   8    -0.380779836398E+03   -0.76315E-03   -0.76283E-03  9828   0.977E-03 0.717E-04
CGA:   9    -0.380780181751E+03   -0.34535E-03   -0.34657E-03  9828   0.380E-03-0.462E-04
CGA:  10    -0.380780320839E+03   -0.13909E-03   -0.14807E-03  9828   0.226E-03-0.101E-03
CGA:  11    -0.380780380210E+03   -0.59371E-04   -0.10259E-03  9828   0.388E-03-0.148E-03
CGA:  12    -0.380780455269E+03   -0.75059E-04   -0.77298E-04  9828   0.952E-04 0.169E-04
CGA:  13    -0.380780496648E+03   -0.41380E-04   -0.43850E-04  9828   0.879E-04-0.224E-04
CGA:  14    -0.380780501146E+03   -0.44976E-05   -0.63457E-04  9828   0.343E-03-0.977E-04
CGA:  15    -0.380780578104E+03   -0.76958E-04   -0.73834E-04  9828   0.114E-03-0.191E-04
CGA:  16    -0.380780617621E+03   -0.39517E-04   -0.39638E-04  9828   0.508E-04-0.162E-04
CGA:  17    -0.380780633788E+03   -0.16167E-04   -0.30768E-04  9828   0.128E-03-0.422E-04
CGA:  18    -0.380780660589E+03   -0.26801E-04   -0.25667E-04  9828   0.347E-04-0.593E-05
CGA:  19    -0.380780674541E+03   -0.13951E-04   -0.14946E-04  9828   0.375E-04-0.119E-04
CGA:  20    -0.380780695604E+03   -0.21063E-04    0.30946E-04  9828   0.212E-04 0.483E-05
CGA:  21    -0.380780718139E+03   -0.22535E-04    0.17012E-04  9828   0.189E-04 0.871E-05
CGA:  22    -0.380780744145E+03   -0.26006E-04    0.15953E-04  9828   0.186E-04 0.100E-04
CGA:  23    -0.380780751243E+03   -0.70982E-05   -0.71927E-05  9828   0.235E-04-0.676E-05
CGA:  24    -0.380780744808E+03    0.64351E-05   -0.14649E-04  9828   0.161E-03-0.349E-04
CGA:  25    -0.380780784151E+03   -0.39343E-04   -0.36958E-04  9828   0.477E-04-0.129E-04
CGA:  26    -0.380780795592E+03   -0.11440E-04   -0.10576E-04  9828   0.658E-05-0.543E-05
CGA:  27    -0.380780802560E+03   -0.69683E-05    0.20796E-05  9828   0.386E-05 0.404E-05
  10 F= -.38078080E+03 E0= -.38078080E+03  d E =-.154880E-01  mag=     4.0000
       N       E                     dE             d eps       ncg     rms          ort
SDA:   1    -0.346523192563E+03    0.34258E+02    0.00000E+00  9828   0.781E+02 0.000E+00
CGA:   2    -0.370644869765E+03   -0.24122E+02   -0.23218E+02  9828   0.297E+02 0.162E+01
CGA:   3    -0.376085315278E+03   -0.54404E+01   -0.59599E+01  9828   0.110E+02-0.299E+00
CGA:   4    -0.376983771412E+03   -0.89846E+00   -0.49044E+00  9828   0.653E+01 0.932E+01
CGA:   5    -0.377359573755E+03   -0.37580E+00   -0.20785E+00  9828   0.350E+01 0.517E+01
CGA:   6    -0.377611383550E+03   -0.25181E+00   -0.15869E+00  9828   0.173E+01 0.194E+01
CGA:   7    -0.378188561326E+03   -0.57718E+00   -0.57700E+00  9828   0.111E+01 0.133E-01
CGA:   8    -0.378258528889E+03   -0.69968E-01   -0.49107E-01  9828   0.515E+00 0.501E+00
CGA:   9    -0.378340880360E+03   -0.82351E-01   -0.68123E-01  9828   0.939E+00 0.152E+00
CGA:  10    -0.378415708916E+03   -0.74829E-01   -0.82209E-01  9828   0.472E+00-0.105E+00
CGA:  11    -0.378444989008E+03   -0.29280E-01   -0.31369E-01  9828   0.536E+00-0.254E-01
CGA:  12    -0.378456371833E+03   -0.11383E-01   -0.68407E-02  9828   0.376E+00 0.379E+00
CGA:  13    -0.378474606998E+03   -0.18235E-01   -0.16270E-01  9828   0.163E+00 0.770E-01
CGA:  14    -0.378502501762E+03   -0.27895E-01   -0.28032E-01  9828   0.802E-01 0.151E-02
CGA:  15    -0.378507705487E+03   -0.52037E-02   -0.52417E-02  9828   0.746E-01-0.947E-02
CGA:  16    -0.378512823326E+03   -0.51178E-02   -0.50562E-02  9828   0.563E-01 0.103E-01
CGA:  17    -0.378519104915E+03   -0.62816E-02   -0.66223E-02  9828   0.107E+00 0.832E-02
CGA:  18    -0.378527450007E+03   -0.83451E-02   -0.86863E-02  9828   0.531E-01-0.755E-04
CGA:  19    -0.378532005644E+03   -0.45556E-02   -0.46503E-02  9828   0.620E-01 0.449E-03
CGA:  20    -0.378534591710E+03   -0.25861E-02   -0.28074E-02  9828   0.348E-01 0.101E-01
CGA:  21    -0.378536981958E+03   -0.23902E-02   -0.24715E-02  9828   0.300E-01 0.581E-02
CGA:  22    -0.378538747042E+03   -0.17651E-02   -0.17409E-02  9828   0.176E-01-0.128E-02
CGA:  23    -0.378540046049E+03   -0.12990E-02   -0.13960E-02  9828   0.216E-01 0.757E-03
CGA:  24    -0.378540594136E+03   -0.54809E-03   -0.92272E-03  9828   0.103E-01 0.278E-02
CGA:  25    -0.378541158630E+03   -0.56449E-03   -0.86345E-03  9828   0.156E-01 0.280E-02
CGA:  26    -0.378542210202E+03   -0.10516E-02   -0.12461E-02  9828   0.833E-02 0.171E-02
CGA:  27    -0.378542742345E+03   -0.53214E-03   -0.65858E-03  9828   0.791E-02 0.134E-02
CGA:  28    -0.378542918305E+03   -0.17596E-03   -0.41075E-03  9828   0.390E-02 0.218E-02
CGA:  29    -0.378543155661E+03   -0.23736E-03   -0.37688E-03  9828   0.614E-02 0.174E-02
CGA:  30    -0.378543818392E+03   -0.66273E-03   -0.73778E-03  9828   0.406E-02 0.101E-02
CGA:  31    -0.378544029978E+03   -0.21159E-03   -0.28789E-03  9828   0.180E-02 0.884E-03
CGA:  32    -0.378544033305E+03   -0.33274E-05   -0.90577E-04  9828   0.104E-02 0.845E-03
CGA:  33    -0.378544077604E+03   -0.44299E-04   -0.10259E-03  9828   0.122E-02 0.811E-03
CGA:  34    -0.378544208649E+03   -0.13104E-03   -0.93680E-04  9828   0.212E-02-0.657E-03
CGA:  35    -0.378544211819E+03   -0.31706E-05   -0.56882E-04  9828   0.383E-03 0.496E-03
CGA:  36    -0.378544209779E+03    0.20404E-05   -0.20952E-04  9828   0.504E-03 0.278E-03
CGA:  37    -0.378544135351E+03    0.74428E-04   -0.14684E-03  9828   0.146E-01-0.132E-02
CGA:  38    -0.378544377768E+03   -0.24242E-03   -0.38952E-03  9828   0.284E-03 0.116E-02
CGA:  39    -0.378544372756E+03    0.50126E-05   -0.10803E-04  9828   0.240E-03 0.174E-03
CGA:  40    -0.378544441322E+03   -0.68566E-04    0.81587E-04  9828   0.440E-03 0.133E-03
CGA:  41    -0.378544434052E+03    0.72694E-05   -0.12109E-04  9828   0.200E-03 0.205E-03
CGA:  42    -0.378544433274E+03    0.77812E-06   -0.13350E-04  9828   0.327E-03 0.197E-03
CGA:  43    -0.378544508017E+03   -0.74743E-04    0.13009E-02  9828   0.139E-02-0.218E-03
CGA:  44    -0.378544504170E+03    0.38474E-05   -0.32265E-04  9828   0.219E-03 0.395E-03
  11 F= -.37854450E+03 E0= -.37853745E+03  d E =0.223630E+01  mag=     4.0000
       N       E                     dE             d eps       ncg     rms          ort
SDA:   1    -0.361924524917E+03    0.16620E+02    0.00000E+00  9828   0.593E+02 0.000E+00
CGA:   2    -0.371214442282E+03   -0.92899E+01   -0.10799E+02  9828   0.113E+03-0.296E+02
CGA:   3    -0.375074452553E+03   -0.38600E+01   -0.38196E+01  9828   0.707E+02-0.869E+00
CGA:   4    -0.377483157146E+03   -0.24087E+01   -0.32640E+01  9828   0.141E+02-0.246E+01
CGA:   5    -0.379735165151E+03   -0.22520E+01   -0.22468E+01  9828   0.277E+01 0.341E-01
CGA:   6    -0.380166068353E+03   -0.43090E+00   -0.43965E+00  9828   0.172E+01-0.175E+00
CGA:   7    -0.380349543050E+03   -0.18347E+00   -0.18232E+00  9828   0.477E+00 0.125E+00
CGA:   8    -0.380445442370E+03   -0.95899E-01   -0.94165E-01  9828   0.222E+00 0.191E-01
CGA:   9    -0.380493331323E+03   -0.47889E-01   -0.48254E-01  9828   0.127E+00-0.311E-02
CGA:  10    -0.380515865163E+03   -0.22534E-01   -0.23052E-01  9828   0.521E-01-0.847E-02
CGA:  11    -0.380528675643E+03   -0.12810E-01   -0.17540E-01  9828   0.385E-01-0.184E-01
CGA:  12    -0.380534240856E+03   -0.55652E-02   -0.70216E-02  9828   0.222E-01-0.960E-02
CGA:  13    -0.380538026188E+03   -0.37853E-02   -0.52761E-02  9828   0.186E-01-0.802E-02
CGA:  14    -0.380540889997E+03   -0.28638E-02   -0.38417E-02  9828   0.987E-02-0.543E-02
CGA:  15    -0.380542944064E+03   -0.20541E-02   -0.23543E-02  9828   0.780E-02-0.165E-02
CGA:  16    -0.380544721283E+03   -0.17772E-02   -0.19174E-02  9828   0.369E-02-0.106E-02
CGA:  17    -0.380545588795E+03   -0.86751E-03   -0.81812E-03  9828   0.193E-02 0.595E-03
CGA:  18    -0.380546058847E+03   -0.47005E-03   -0.45181E-03  9828   0.852E-03 0.777E-03
CGA:  19    -0.380546253849E+03   -0.19500E-03   -0.20081E-03  9828   0.432E-03 0.544E-03
CGA:  20    -0.380546323976E+03   -0.70127E-04   -0.72781E-04  9828   0.249E-03 0.279E-03
CGA:  21    -0.380546352671E+03   -0.28695E-04   -0.35925E-04  9828   0.199E-03 0.217E-03
CGA:  22    -0.380546373947E+03   -0.21276E-04   -0.27835E-04  9828   0.170E-03 0.182E-03
CGA:  23    -0.380546390001E+03   -0.16054E-04   -0.22633E-04  9828   0.151E-03 0.159E-03
CGA:  24    -0.380546403301E+03   -0.13300E-04   -0.19462E-04  9828   0.136E-03 0.142E-03
CGA:  25    -0.380546414811E+03   -0.11509E-04   -0.17197E-04  9828   0.125E-03 0.130E-03
CGA:  26    -0.380546425153E+03   -0.10342E-04   -0.15519E-04  9828   0.115E-03 0.119E-03
CGA:  27    -0.380546434740E+03   -0.95876E-05   -0.14243E-04  9828   0.107E-03 0.111E-03
CGA:  28    -0.380546443882E+03   -0.91421E-05   -0.13266E-04  9828   0.100E-03 0.103E-03
CGA:  29    -0.380546452821E+03   -0.89384E-05   -0.12523E-04  9828   0.945E-04 0.972E-04
CGA:  30    -0.380546461755E+03   -0.89345E-05   -0.11970E-04  9828   0.893E-04 0.917E-04
CGA:  31    -0.380546470859E+03   -0.91037E-05   -0.11577E-04  9828   0.847E-04 0.869E-04
CGA:  32    -0.380546480293E+03   -0.94345E-05   -0.11326E-04  9828   0.805E-04 0.825E-04
CGA:  33    -0.380546490223E+03   -0.99301E-05   -0.11209E-04  9828   0.767E-04 0.785E-04
CGA:  34    -0.380546500825E+03   -0.10602E-04   -0.11226E-04  9828   0.732E-04 0.749E-04
CGA:  35    -0.380546512300E+03   -0.11475E-04   -0.11382E-04  9828   0.699E-04 0.715E-04
CGA:  36    -0.380546524896E+03   -0.12596E-04   -0.11698E-04  9828   0.667E-04 0.682E-04
CGA:  37    -0.380546538944E+03   -0.14048E-04   -0.12212E-04  9828   0.636E-04 0.651E-04
CGA:  38    -0.380546554924E+03   -0.15980E-04   -0.12997E-04  9828   0.606E-04 0.620E-04
CGA:  39    -0.380546573581E+03   -0.18657E-04   -0.14190E-04  9828   0.575E-04 0.590E-04
CGA:  40    -0.380546596200E+03   -0.22619E-04   -0.16067E-04  9828   0.542E-04 0.558E-04
CGA:  41    -0.380546625332E+03   -0.29132E-04   -0.19284E-04  9828   0.505E-04 0.523E-04
CGA:  42    -0.380546667520E+03   -0.42187E-04   -0.25929E-04  9828   0.460E-04 0.482E-04
CGA:  43    -0.380546768412E+03   -0.10089E-03   -0.42534E-03  9828   0.394E-04 0.408E-04
CGA:  44    -0.380546800884E+03   -0.32471E-04   -0.48299E-05  9828   0.154E-02-0.337E-04
CGA:  45    -0.380546944987E+03   -0.14410E-03   -0.14377E-03  9828   0.525E-04-0.197E-05
CGA:  46    -0.380546957324E+03   -0.12337E-04   -0.10661E-04  9828   0.565E-04-0.412E-05
CGA:  47    -0.380547019735E+03   -0.62411E-04    0.22280E-01  9828   0.120E-03 0.272E-04
CGA:  48    -0.380547126162E+03   -0.10643E-03   -0.10641E-03  9828   0.475E-03-0.662E-04
CGA:  49    -0.380547181244E+03   -0.55082E-04   -0.63802E-04  9828   0.669E-04-0.746E-06
CGA:  50    -0.380547188957E+03   -0.77127E-05   -0.16829E-04  9828   0.548E-04 0.882E-05
CGA:  51    -0.380547167687E+03    0.21270E-04   -0.10357E-04  9828   0.146E-03 0.386E-04
CGA:  52    -0.380547130644E+03    0.37044E-04   -0.28205E-04  9828   0.277E-03 0.661E-04
CGA:  53    -0.380546424302E+03    0.70634E-03   -0.31488E-04  9828   0.252E-02 0.728E-03
CGA:  54    -0.380545840459E+03    0.58384E-03   -0.45468E-03  9828   0.451E-02 0.111E-02
CGA:  55    -0.380538769976E+03    0.70705E-02   -0.57852E-03  9828   0.252E-01 0.101E-01
CGA:  56    -0.380537934945E+03    0.83503E-03   -0.49934E-02  9828   0.280E-01 0.899E-02
CGA:  57    -0.380523631063E+03    0.14304E-01   -0.47318E-02  9828   0.554E-01 0.366E-01
CGA:  58    -0.380535007376E+03   -0.11376E-01   -0.14619E-01  9828   0.259E-01 0.194E-01
CGA:  59    -0.380539319381E+03   -0.43120E-02   -0.78107E-02  9828   0.155E-01 0.114E-01
CGA:  60    -0.380537713707E+03    0.16057E-02   -0.32704E-02  9828   0.193E-01 0.145E-01
CGA:  61    -0.380541315538E+03   -0.36018E-02   -0.49153E-02  9828   0.874E-02 0.764E-02
CGA:  62    -0.380545001068E+03   -0.36855E-02   -0.39279E-02  9828   0.192E-02 0.620E-03
CGA:  63    -0.380545987511E+03   -0.98644E-03   -0.99780E-03  9828   0.545E-03-0.838E-04
CGA:  64    -0.380546350222E+03   -0.36271E-03   -0.45336E-03  9828   0.570E-03-0.164E-03
CGA:  65    -0.380546365768E+03   -0.15546E-04   -0.53591E-04  9828   0.511E-03 0.113E-03
CGA:  66    -0.380546448187E+03   -0.82419E-04   -0.12626E-03  9828   0.350E-03 0.150E-03
CGA:  67    -0.380546581432E+03   -0.13325E-03   -0.14355E-03  9828   0.308E-03 0.157E-03
CGA:  68    -0.380546715877E+03   -0.13445E-03   -0.14195E-03  9828   0.275E-03 0.125E-03
CGA:  69    -0.380546811975E+03   -0.96097E-04   -0.10333E-03  9828   0.259E-03 0.815E-04
CGA:  70    -0.380546874619E+03   -0.62644E-04   -0.68003E-04  9828   0.252E-03 0.541E-04
CGA:  71    -0.380546919495E+03   -0.44876E-04   -0.46995E-04  9828   0.247E-03 0.371E-04
CGA:  72    -0.380546955061E+03   -0.35566E-04   -0.34689E-04  9828   0.241E-03 0.246E-04
CGA:  73    -0.380546984588E+03   -0.29527E-04   -0.26667E-04  9828   0.233E-03 0.152E-04
CGA:  74    -0.380547009460E+03   -0.24872E-04   -0.21136E-04  9828   0.222E-03 0.873E-05
CGA:  75    -0.380547030456E+03   -0.20996E-04   -0.17203E-04  9828   0.209E-03 0.473E-05
CGA:  76    -0.380547048246E+03   -0.17790E-04   -0.14356E-04  9828   0.195E-03 0.244E-05
CGA:  77    -0.380547063510E+03   -0.15264E-04   -0.12275E-04  9828   0.182E-03 0.105E-05
CGA:  78    -0.380547076932E+03   -0.13423E-04   -0.10757E-04  9828   0.171E-03-0.640E-07
CGA:  79    -0.380547089157E+03   -0.12224E-04   -0.96781E-05  9828   0.163E-03-0.136E-05
CGA:  80    -0.380547100700E+03   -0.11543E-04   -0.89177E-05  9828   0.157E-03-0.298E-05
CGA:  81    -0.380547111885E+03   -0.11185E-04   -0.83590E-05  9828   0.155E-03-0.479E-05
CGA:  82    -0.380547122822E+03   -0.10937E-04   -0.79019E-05  9828   0.153E-03-0.642E-05
CGA:  83    -0.380547133436E+03   -0.10614E-04   -0.74831E-05  9828   0.152E-03-0.742E-05
CGA:  84    -0.380547143571E+03   -0.10135E-04   -0.70842E-05  9828   0.150E-03-0.746E-05
CGA:  85    -0.380547153077E+03   -0.95062E-05   -0.67165E-05  9828   0.148E-03-0.647E-05
  12 F= -.38054715E+03 E0= -.38054715E+03  d E =-.200265E+01  mag=     4.0000
       N       E                     dE             d eps       ncg     rms          ort
SDA:   1    -0.380487535651E+03    0.59608E-01    0.00000E+00  9828   0.355E+00 0.000E+00
CGA:   2    -0.380608649063E+03   -0.12111E+00   -0.12188E+00  9828   0.106E+00-0.538E-02
CGA:   3    -0.380631525525E+03   -0.22876E-01   -0.22843E-01  9828   0.262E-01 0.311E-02
CGA:   4    -0.380636615678E+03   -0.50902E-02   -0.51004E-02  9828   0.508E-02 0.545E-03
CGA:   5    -0.380637771085E+03   -0.11554E-02   -0.11534E-02  9828   0.162E-02 0.134E-03
CGA:   6    -0.380638251725E+03   -0.48064E-03   -0.49781E-03  9828   0.752E-03-0.191E-03
CGA:   7    -0.380638450055E+03   -0.19833E-03   -0.20876E-03  9828   0.344E-03-0.103E-03
CGA:   8    -0.380638507961E+03   -0.57906E-04   -0.59348E-04  9828   0.104E-03 0.799E-04
CGA:   9    -0.380638533735E+03   -0.25774E-04   -0.26173E-04  9828   0.422E-04 0.335E-04
CGA:  10    -0.380638550036E+03   -0.16301E-04   -0.16068E-04  9828   0.215E-04 0.311E-05
CGA:  11    -0.380638555929E+03   -0.58927E-05   -0.57203E-05  9828   0.129E-04 0.616E-05
CGA:  12    -0.380638528232E+03    0.27696E-04   -0.15523E-04  9828   0.199E-03-0.450E-04
CGA:  13    -0.380638564337E+03   -0.36104E-04   -0.42376E-04  9828   0.252E-04 0.328E-04
CGA:  14    -0.380638565817E+03   -0.14802E-05   -0.48131E-05  9828   0.980E-05 0.145E-04
  13 F= -.38063857E+03 E0= -.38063857E+03  d E =-.914127E-01  mag=     4.0000
       N       E                     dE             d eps       ncg     rms          ort
SDA:   1    -0.378738754260E+03    0.18998E+01    0.00000E+00  9828   0.490E+01 0.000E+00
CGA:   2    -0.380333143858E+03   -0.15944E+01   -0.15939E+01  9828   0.154E+01-0.125E-01
CGA:   3    -0.380672755078E+03   -0.33961E+00   -0.34082E+00  9828   0.413E+00 0.661E-02
CGA:   4    -0.380749323062E+03   -0.76568E-01   -0.77094E-01  9828   0.787E-01 0.287E-02
CGA:   5    -0.380766451123E+03   -0.17128E-01   -0.17164E-01  9828   0.236E-01 0.234E-03
CGA:   6    -0.380772768667E+03   -0.63175E-02   -0.62880E-02  9828   0.891E-02-0.361E-03
CGA:   7    -0.380775379727E+03   -0.26111E-02   -0.25998E-02  9828   0.365E-02-0.235E-03
CGA:   8    -0.380776400271E+03   -0.10205E-02   -0.10304E-02  9828   0.125E-02 0.190E-03
CGA:   9    -0.380776797182E+03   -0.39691E-03   -0.39980E-03  9828   0.447E-03 0.811E-04
CGA:  10    -0.380776950967E+03   -0.15378E-03   -0.15434E-03  9828   0.205E-03 0.407E-04
CGA:  11    -0.380777058689E+03   -0.10772E-03   -0.10844E-03  9828   0.211E-03-0.604E-05
CGA:  12    -0.380777147722E+03   -0.89033E-04   -0.86034E-04  9828   0.186E-03 0.374E-04
CGA:  13    -0.380777229942E+03   -0.82219E-04   -0.80713E-04  9828   0.115E-03 0.707E-04
CGA:  14    -0.380777289378E+03   -0.59436E-04   -0.58266E-04  9828   0.646E-04 0.589E-04
CGA:  15    -0.380777316059E+03   -0.26681E-04   -0.26394E-04  9828   0.454E-04 0.482E-05
CGA:  16    -0.380777331278E+03   -0.15219E-04   -0.15736E-04  9828   0.322E-04 0.170E-04
CGA:  17    -0.380777344807E+03   -0.13529E-04   -0.14279E-04  9828   0.177E-04 0.260E-04
CGA:  18    -0.380777356858E+03   -0.12052E-04   -0.12985E-04  9828   0.505E-04-0.253E-05
CGA:  19    -0.380777371412E+03   -0.14553E-04   -0.14931E-04  9828   0.387E-04 0.155E-04
CGA:  20    -0.380777382660E+03   -0.11248E-04   -0.13514E-04  9828   0.308E-04 0.222E-04
CGA:  21    -0.380777390865E+03   -0.82052E-05   -0.81080E-05  9828   0.177E-04-0.873E-06
  14 F= -.38077739E+03 E0= -.38077739E+03  d E =-.138825E+00  mag=     4.0000
       N       E                     dE             d eps       ncg     rms          ort
SDA:   1    -0.380739418537E+03    0.37964E-01    0.00000E+00  9828   0.122E+00 0.000E+00
CGA:   2    -0.380777570190E+03   -0.38152E-01   -0.38134E-01  9828   0.465E-01-0.418E-03
CGA:   3    -0.380787257426E+03   -0.96872E-02   -0.96989E-02  9828   0.102E-01 0.679E-04
CGA:   4    -0.380789233178E+03   -0.19758E-02   -0.19692E-02  9828   0.211E-02-0.387E-04
CGA:   5    -0.380789679054E+03   -0.44588E-03   -0.44385E-03  9828   0.586E-03-0.157E-04
CGA:   6    -0.380789827058E+03   -0.14800E-03   -0.14825E-03  9828   0.199E-03 0.318E-05
CGA:   7    -0.380789886399E+03   -0.59341E-04   -0.59078E-04  9828   0.792E-04-0.802E-05
CGA:   8    -0.380789912233E+03   -0.25835E-04   -0.25938E-04  9828   0.346E-04-0.689E-05
CGA:   9    -0.380789924073E+03   -0.11839E-04   -0.12597E-04  9828   0.200E-04-0.105E-04
CGA:  10    -0.380789927994E+03   -0.39211E-05   -0.39017E-05  9828   0.752E-05-0.391E-06
  15 F= -.38078993E+03 E0= -.38078993E+03  d E =-.125371E-01  mag=     4.0000
       N       E                     dE             d eps       ncg     rms          ort
SDA:   1    -0.380620553095E+03    0.16937E+00    0.00000E+00  9828   0.478E+00 0.000E+00
CGA:   2    -0.380754450574E+03   -0.13390E+00   -0.13376E+00  9828   0.184E+00-0.261E-02
CGA:   3    -0.380794020713E+03   -0.39570E-01   -0.39663E-01  9828   0.410E-01 0.806E-03
CGA:   4    -0.380801506924E+03   -0.74862E-02   -0.75740E-02  9828   0.788E-02 0.619E-03
CGA:   5    -0.380803123430E+03   -0.16165E-02   -0.16305E-02  9828   0.194E-02 0.123E-03
CGA:   6    -0.380803639602E+03   -0.51617E-03   -0.51362E-03  9828   0.682E-03-0.481E-04
CGA:   7    -0.380803837833E+03   -0.19823E-03   -0.19777E-03  9828   0.279E-03-0.344E-04
CGA:   8    -0.380803917119E+03   -0.79286E-04   -0.79440E-04  9828   0.103E-03 0.153E-04
CGA:   9    -0.380803945251E+03   -0.28132E-04   -0.29027E-04  9828   0.313E-04 0.215E-04
CGA:  10    -0.380803956193E+03   -0.10942E-04   -0.11050E-04  9828   0.120E-04 0.695E-05
CGA:  11    -0.380803961699E+03   -0.55064E-05   -0.54022E-05  9828   0.678E-05 0.170E-05
  16 F= -.38080396E+03 E0= -.38080396E+03  d E =-.140337E-01  mag=     4.0000
       N       E                     dE             d eps       ncg     rms          ort
SDA:   1    -0.380443120228E+03    0.36084E+00    0.00000E+00  9828   0.971E+00 0.000E+00
CGA:   2    -0.380718346052E+03   -0.27523E+00   -0.27511E+00  9828   0.365E+00-0.313E-02
CGA:   3    -0.380796332747E+03   -0.77987E-01   -0.78061E-01  9828   0.781E-01 0.660E-03
CGA:   4    -0.380810652875E+03   -0.14320E-01   -0.14403E-01  9828   0.154E-01 0.628E-03
CGA:   5    -0.380813849080E+03   -0.31962E-02   -0.32002E-02  9828   0.386E-02 0.443E-04
CGA:   6    -0.380814801356E+03   -0.95228E-03   -0.94869E-03  9828   0.125E-02-0.636E-04
CGA:   7    -0.380815140514E+03   -0.33916E-03   -0.33975E-03  9828   0.457E-03 0.265E-04
CGA:   8    -0.380815296764E+03   -0.15625E-03   -0.15590E-03  9828   0.205E-03 0.932E-05
CGA:   9    -0.380815361257E+03   -0.64493E-04   -0.64336E-04  9828   0.713E-04 0.183E-04
CGA:  10    -0.380815386269E+03   -0.25012E-04   -0.24916E-04  9828   0.277E-04 0.442E-05
CGA:  11    -0.380815393932E+03   -0.76632E-05   -0.79337E-05  9828   0.116E-04 0.901E-05
  17 F= -.38081539E+03 E0= -.38081539E+03  d E =-.114322E-01  mag=     4.0000
       N       E                     dE             d eps       ncg     rms          ort
SDA:   1    -0.380334054910E+03    0.48133E+00    0.00000E+00  9828   0.119E+01 0.000E+00
CGA:   2    -0.380711807401E+03   -0.37775E+00   -0.37782E+00  9828   0.449E+00-0.400E-02
CGA:   3    -0.380800398414E+03   -0.88591E-01   -0.88716E-01  9828   0.870E-01 0.108E-02
CGA:   4    -0.380816229523E+03   -0.15831E-01   -0.15917E-01  9828   0.179E-01 0.766E-03
CGA:   5    -0.380819932286E+03   -0.37028E-02   -0.37079E-02  9828   0.433E-02 0.637E-04
CGA:   6    -0.380820985726E+03   -0.10534E-02   -0.10483E-02  9828   0.127E-02-0.114E-03
CGA:   7    -0.380821322402E+03   -0.33668E-03   -0.33659E-03  9828   0.437E-03-0.685E-05
CGA:   8    -0.380821456876E+03   -0.13447E-03   -0.13374E-03  9828   0.167E-03 0.302E-04
CGA:   9    -0.380821512936E+03   -0.56060E-04   -0.55626E-04  9828   0.574E-04 0.156E-04
CGA:  10    -0.380821533907E+03   -0.20971E-04   -0.20733E-04  9828   0.224E-04 0.532E-05
CGA:  11    -0.380821543117E+03   -0.92101E-05   -0.88727E-05  9828   0.125E-04 0.442E-05
  18 F= -.38082154E+03 E0= -.38082154E+03  d E =-.614919E-02  mag=     4.0000
       N       E                     dE             d eps       ncg     rms          ort
SDA:   1    -0.370420590515E+03    0.10401E+02    0.00000E+00  9828   0.244E+02 0.000E+00
CGA:   2    -0.378787400241E+03   -0.83668E+01   -0.83677E+01  9828   0.815E+01-0.194E-01
CGA:   3    -0.380387170411E+03   -0.15998E+01   -0.16020E+01  9828   0.151E+01 0.475E-02
CGA:   4    -0.380672217467E+03   -0.28505E+00   -0.28556E+00  9828   0.325E+00 0.495E-02
CGA:   5    -0.380741076907E+03   -0.68859E-01   -0.68887E-01  9828   0.829E-01 0.330E-03
CGA:   6    -0.380761142979E+03   -0.20066E-01   -0.19997E-01  9828   0.248E-01-0.141E-02
CGA:   7    -0.380768246673E+03   -0.71037E-02   -0.71066E-02  9828   0.974E-02-0.706E-03
CGA:   8    -0.380771416661E+03   -0.31700E-02   -0.31791E-02  9828   0.403E-02-0.187E-03
CGA:   9    -0.380772727655E+03   -0.13110E-02   -0.13211E-02  9828   0.142E-02-0.232E-03
CGA:  10    -0.380773206008E+03   -0.47835E-03   -0.49936E-03  9828   0.639E-03-0.264E-03
CGA:  11    -0.380773420705E+03   -0.21470E-03   -0.25435E-03  9828   0.584E-03-0.207E-03
CGA:  12    -0.380773583148E+03   -0.16244E-03   -0.21500E-03  9828   0.847E-03-0.221E-03
CGA:  13    -0.380773777465E+03   -0.19432E-03   -0.21401E-03  9828   0.678E-03-0.226E-03
CGA:  14    -0.380773974503E+03   -0.19704E-03   -0.20544E-03  9828   0.343E-03-0.958E-04
CGA:  15    -0.380774094538E+03   -0.12003E-03   -0.12090E-03  9828   0.218E-03-0.121E-04
CGA:  16    -0.380774153865E+03   -0.59327E-04   -0.60809E-04  9828   0.122E-03 0.348E-04
CGA:  17    -0.380774202500E+03   -0.48634E-04   -0.48213E-04  9828   0.628E-04 0.354E-04
CGA:  18    -0.380774229572E+03   -0.27072E-04   -0.26995E-04  9828   0.392E-04 0.212E-04
CGA:  19    -0.380774238096E+03   -0.85246E-05   -0.11304E-04  9828   0.163E-04 0.242E-04
  19 F= -.38077424E+03 E0= -.38077424E+03  d E =0.473050E-01  mag=     4.0000
       N       E                     dE             d eps       ncg     rms          ort
SDA:   1    -0.378033589554E+03    0.27406E+01    0.00000E+00  9828   0.644E+01 0.000E+00
CGA:   2    -0.380269139073E+03   -0.22355E+01   -0.22355E+01  9828   0.202E+01 0.158E-02
CGA:   3    -0.380678723566E+03   -0.40958E+00   -0.40925E+00  9828   0.422E+00-0.331E-02
CGA:   4    -0.380759622865E+03   -0.80899E-01   -0.80680E-01  9828   0.827E-01 0.131E-02
CGA:   5    -0.380777970452E+03   -0.18348E-01   -0.18377E-01  9828   0.231E-01 0.334E-03
CGA:   6    -0.380783464867E+03   -0.54944E-02   -0.54982E-02  9828   0.770E-02 0.559E-04
CGA:   7    -0.380785594519E+03   -0.21297E-02   -0.21336E-02  9828   0.299E-02 0.155E-03
CGA:   8    -0.380786648746E+03   -0.10542E-02   -0.10608E-02  9828   0.144E-02-0.144E-03
CGA:   9    -0.380787038835E+03   -0.39009E-03   -0.39159E-03  9828   0.486E-03 0.816E-04
CGA:  10    -0.380787217785E+03   -0.17895E-03   -0.17936E-03  9828   0.243E-03-0.100E-04
CGA:  11    -0.380787316859E+03   -0.99073E-04   -0.95986E-04  9828   0.181E-03 0.307E-04
CGA:  12    -0.380787439647E+03   -0.12279E-03   -0.12363E-03  9828   0.274E-03-0.575E-05
CGA:  13    -0.380787580235E+03   -0.14059E-03   -0.14071E-03  9828   0.308E-03-0.802E-05
CGA:  14    -0.380787708147E+03   -0.12791E-03   -0.13006E-03  9828   0.206E-03-0.292E-04
CGA:  15    -0.380787789814E+03   -0.81667E-04   -0.85242E-04  9828   0.147E-03-0.370E-04
CGA:  16    -0.380787841649E+03   -0.51835E-04   -0.65769E-04  9828   0.176E-03-0.741E-04
CGA:  17    -0.380787875854E+03   -0.34205E-04   -0.36529E-04  9828   0.602E-04 0.163E-04
CGA:  18    -0.380787901767E+03   -0.25913E-04   -0.26219E-04  9828   0.363E-04-0.603E-05
CGA:  19    -0.380787921106E+03   -0.19339E-04   -0.22599E-04  9828   0.369E-04-0.970E-05
CGA:  20    -0.380787929399E+03   -0.82931E-05   -0.17836E-04  9828   0.779E-04-0.329E-04
CGA:  21    -0.380787939664E+03   -0.10265E-04   -0.12093E-04  9828   0.124E-04 0.835E-05
CGA:  22    -0.380787937176E+03    0.24880E-05   -0.15576E-04  9828   0.796E-04-0.238E-04
CGA:  23    -0.380787951057E+03   -0.13882E-04   -0.15900E-04  9828   0.904E-05 0.968E-05
CGA:  24    -0.380787808642E+03    0.14242E-03   -0.77096E-04  9828   0.620E-03-0.780E-04
CGA:  25    -0.380787916439E+03   -0.10780E-03   -0.13336E-03  9828   0.125E-03 0.528E-04
CGA:  26    -0.380787954386E+03   -0.37947E-04   -0.33792E-04  9828   0.125E-04-0.867E-05
CGA:  27    -0.380787957360E+03   -0.29735E-05   -0.29409E-05  9828   0.334E-05-0.261E-07
  20 F= -.38078796E+03 E0= -.38078796E+03  d E =-.137193E-01  mag=     4.0000
       N       E                     dE             d eps       ncg     rms          ort
SDA:   1    -0.379683971924E+03    0.11040E+01    0.00000E+00  9828   0.288E+01 0.000E+00
CGA:   2    -0.380559970121E+03   -0.87600E+00   -0.87920E+00  9828   0.108E+01 0.612E-03
CGA:   3    -0.380776621017E+03   -0.21665E+00   -0.21496E+00  9828   0.228E+00 0.453E-02
CGA:   4    -0.380823695890E+03   -0.47075E-01   -0.46684E-01  9828   0.451E-01-0.123E-02
CGA:   5    -0.380833009977E+03   -0.93141E-02   -0.92958E-02  9828   0.122E-01-0.235E-04
CGA:   6    -0.380835836071E+03   -0.28261E-02   -0.28648E-02  9828   0.377E-02 0.114E-03
CGA:   7    -0.380836931307E+03   -0.10952E-02   -0.10870E-02  9828   0.136E-02-0.285E-04
CGA:   8    -0.380837426856E+03   -0.49555E-03   -0.47260E-03  9828   0.629E-03-0.113E-03
CGA:   9    -0.380837632712E+03   -0.20586E-03   -0.18902E-03  9828   0.226E-03-0.778E-04
CGA:  10    -0.380837700020E+03   -0.67308E-04   -0.64050E-04  9828   0.732E-04-0.156E-04
CGA:  11    -0.380837728033E+03   -0.28013E-04   -0.27542E-04  9828   0.405E-04-0.411E-05
CGA:  12    -0.380837746696E+03   -0.18663E-04   -0.18619E-04  9828   0.330E-04-0.164E-05
CGA:  13    -0.380837758661E+03   -0.11965E-04   -0.12511E-04  9828   0.209E-04 0.433E-05
CGA:  14    -0.380837762375E+03   -0.37140E-05   -0.61312E-05  9828   0.930E-05 0.959E-05
  21 F= -.38083776E+03 E0= -.38083776E+03  d E =-.498050E-01  mag=     4.0000
       N       E                     dE             d eps       ncg     rms          ort
SDA:   1    -0.380374944047E+03    0.46281E+00    0.00000E+00  9828   0.110E+01 0.000E+00
CGA:   2    -0.380757382004E+03   -0.38244E+00   -0.38230E+00  9828   0.339E+00-0.109E-02
CGA:   3    -0.380827042223E+03   -0.69660E-01   -0.69765E-01  9828   0.621E-01 0.408E-03
CGA:   4    -0.380838703369E+03   -0.11661E-01   -0.11775E-01  9828   0.133E-01 0.433E-03
CGA:   5    -0.380841537053E+03   -0.28337E-02   -0.28462E-02  9828   0.339E-02 0.552E-04
CGA:   6    -0.380842396458E+03   -0.85941E-03   -0.84268E-03  9828   0.109E-02-0.885E-04
CGA:   7    -0.380842706992E+03   -0.31053E-03   -0.30742E-03  9828   0.461E-03-0.224E-04
CGA:   8    -0.380842849993E+03   -0.14300E-03   -0.14485E-03  9828   0.188E-03 0.189E-04
CGA:   9    -0.380842907415E+03   -0.57422E-04   -0.59630E-04  9828   0.621E-04 0.203E-04
CGA:  10    -0.380842934126E+03   -0.26711E-04   -0.26587E-04  9828   0.338E-04-0.558E-05
CGA:  11    -0.380842949242E+03   -0.15116E-04   -0.20187E-04  9828   0.608E-04-0.207E-04
CGA:  12    -0.380842960195E+03   -0.10953E-04   -0.12347E-04  9828   0.145E-04 0.652E-05
CGA:  13    -0.380842965925E+03   -0.57296E-05   -0.57660E-05  9828   0.976E-05 0.726E-06
  22 F= -.38084297E+03 E0= -.38084297E+03  d E =-.520355E-02  mag=     4.0000
       N       E                     dE             d eps       ncg     rms          ort
SDA:   1    -0.367535005029E+03    0.13308E+02    0.00000E+00  9828   0.307E+02 0.000E+00
CGA:   2    -0.378642130255E+03   -0.11107E+02   -0.11107E+02  9828   0.861E+01 0.312E-03
CGA:   3    -0.380390462164E+03   -0.17483E+01   -0.17496E+01  9828   0.155E+01 0.560E-03
CGA:   4    -0.380693546999E+03   -0.30308E+00   -0.30348E+00  9828   0.344E+00 0.502E-02
CGA:   5    -0.380767972144E+03   -0.74425E-01   -0.74507E-01  9828   0.912E-01 0.373E-03
CGA:   6    -0.380790131117E+03   -0.22159E-01   -0.21995E-01  9828   0.284E-01-0.117E-02
CGA:   7    -0.380798693863E+03   -0.85627E-02   -0.85087E-02  9828   0.125E-01-0.770E-03
CGA:   8    -0.380802843543E+03   -0.41497E-02   -0.41354E-02  9828   0.537E-02-0.464E-03
CGA:   9    -0.380804564672E+03   -0.17211E-02   -0.17074E-02  9828   0.193E-02-0.349E-03
CGA:  10    -0.380805192028E+03   -0.62736E-03   -0.62201E-03  9828   0.804E-03-0.238E-03
CGA:  11    -0.380805511663E+03   -0.31963E-03   -0.34713E-03  9828   0.774E-03-0.219E-03
CGA:  12    -0.380805776643E+03   -0.26498E-03   -0.31074E-03  9828   0.107E-02-0.256E-03
CGA:  13    -0.380806058388E+03   -0.28174E-03   -0.28463E-03  9828   0.745E-03-0.207E-03
CGA:  14    -0.380806271412E+03   -0.21302E-03   -0.21298E-03  9828   0.316E-03-0.205E-05
CGA:  15    -0.380806375430E+03   -0.10402E-03   -0.10644E-03  9828   0.174E-03 0.550E-04
CGA:  16    -0.380806426484E+03   -0.51055E-04   -0.56918E-04  9828   0.998E-04 0.580E-04
CGA:  17    -0.380806454354E+03   -0.27870E-04   -0.34989E-04  9828   0.537E-04 0.639E-04
CGA:  18    -0.380806469625E+03   -0.15271E-04   -0.16582E-04  9828   0.287E-04 0.219E-04
CGA:  19    -0.380806476459E+03   -0.68338E-05   -0.98100E-05  9828   0.173E-04 0.243E-04
  23 F= -.38080648E+03 E0= -.38080648E+03  d E =0.364895E-01  mag=     4.0000
       N       E                     dE             d eps       ncg     rms          ort
SDA:   1    -0.343377700952E+03    0.37429E+02    0.00000E+00  9828   0.818E+02 0.000E+00
CGA:   2    -0.364993143545E+03   -0.21615E+02   -0.16877E+02  9828   0.475E+02 0.132E+02
CGA:   3    -0.372745792196E+03   -0.77526E+01   -0.99942E+01  9828   0.169E+02-0.304E+00
CGA:   4    -0.374281263540E+03   -0.15355E+01   -0.82683E+00  9828   0.115E+02 0.159E+02
CGA:   5    -0.375066457788E+03   -0.78519E+00   -0.42282E+00  9828   0.466E+01 0.744E+01
CGA:   6    -0.375689452138E+03   -0.62299E+00   -0.52155E+00  9828   0.944E+01 0.544E+00
CGA:   7    -0.376372391760E+03   -0.68294E+00   -0.87293E+00  9828   0.283E+01-0.162E+01
CGA:   8    -0.376495927179E+03   -0.12354E+00   -0.87831E-01  9828   0.111E+01 0.852E+00
CGA:   9    -0.376611280606E+03   -0.11535E+00   -0.90496E-01  9828   0.232E+01 0.353E+00
CGA:  10    -0.376823477768E+03   -0.21220E+00   -0.23547E+00  9828   0.148E+01-0.215E+00
CGA:  11    -0.376876133369E+03   -0.52656E-01   -0.52667E-01  9828   0.105E+01 0.717E-02
CGA:  12    -0.376899087974E+03   -0.22955E-01   -0.14741E-01  9828   0.570E+00 0.623E+00
CGA:  13    -0.376922475971E+03   -0.23388E-01   -0.23023E-01  9828   0.397E+00 0.406E-01
CGA:  14    -0.376968435354E+03   -0.45959E-01   -0.45727E-01  9828   0.287E+00 0.136E-03
CGA:  15    -0.376984568794E+03   -0.16133E-01   -0.18300E-01  9828   0.894E-01-0.301E-01
CGA:  16    -0.376989946016E+03   -0.53772E-02   -0.57400E-02  9828   0.174E+00 0.536E-02
CGA:  17    -0.377013202188E+03   -0.23256E-01   -0.22854E-01  9828   0.147E+00 0.379E-02
CGA:  18    -0.377024370134E+03   -0.11168E-01   -0.11330E-01  9828   0.493E-01 0.194E-03
CGA:  19    -0.377032621801E+03   -0.82517E-02   -0.82818E-02  9828   0.598E-01 0.316E-02
CGA:  20    -0.377038538554E+03   -0.59168E-02   -0.60999E-02  9828   0.297E-01-0.240E-03
CGA:  21    -0.377040739256E+03   -0.22007E-02   -0.24974E-02  9828   0.243E-01 0.275E-02
CGA:  22    -0.377042122573E+03   -0.13833E-02   -0.14253E-02  9828   0.218E-01 0.275E-03
CGA:  23    -0.377043952802E+03   -0.18302E-02   -0.19850E-02  9828   0.130E-01 0.158E-02
CGA:  24    -0.377045207472E+03   -0.12547E-02   -0.14106E-02  9828   0.992E-02 0.257E-02
CGA:  25    -0.377046911659E+03   -0.17042E-02   -0.17432E-02  9828   0.106E-01 0.168E-02
CGA:  26    -0.377047562454E+03   -0.65080E-03   -0.88202E-03  9828   0.968E-02 0.167E-02
CGA:  27    -0.377048149106E+03   -0.58665E-03   -0.69340E-03  9828   0.944E-02 0.130E-02
CGA:  28    -0.377049327136E+03   -0.11780E-02   -0.12559E-02  9828   0.491E-02 0.160E-02
CGA:  29    -0.377049635356E+03   -0.30822E-03   -0.40496E-03  9828   0.345E-02 0.108E-02
CGA:  30    -0.377050031189E+03   -0.39583E-03   -0.41915E-03  9828   0.831E-02 0.541E-03
CGA:  31    -0.377050817649E+03   -0.78646E-03   -0.88194E-03  9828   0.288E-02 0.103E-02
CGA:  32    -0.377050940991E+03   -0.12334E-03   -0.18282E-03  9828   0.215E-02 0.576E-03
CGA:  33    -0.377051138193E+03   -0.19720E-03   -0.22133E-03  9828   0.404E-02 0.496E-03
CGA:  34    -0.377051730265E+03   -0.59207E-03   -0.60522E-03  9828   0.216E-02 0.633E-03
CGA:  35    -0.377051828073E+03   -0.97808E-04   -0.12580E-03  9828   0.199E-02 0.140E-03
CGA:  36    -0.377052087614E+03   -0.25954E-03   -0.26099E-03  9828   0.324E-02 0.170E-03
CGA:  37    -0.377052544172E+03   -0.45656E-03   -0.45280E-03  9828   0.376E-02-0.112E-02
CGA:  38    -0.377052651590E+03   -0.10742E-03   -0.10709E-03  9828   0.162E-02-0.619E-03
CGA:  39    -0.377052729884E+03   -0.78294E-04   -0.75653E-04  9828   0.102E-02-0.397E-04
CGA:  40    -0.377052567034E+03    0.16285E-03   -0.35480E-03  9828   0.271E-01-0.237E-02
CGA:  41    -0.377053190666E+03   -0.62363E-03   -0.65155E-03  9828   0.511E-03-0.541E-03
CGA:  42    -0.377052020683E+03    0.11700E-02   -0.62825E-03  9828   0.416E-01-0.222E-02
CGA:  43    -0.377053112389E+03   -0.10917E-02   -0.13730E-02  9828   0.594E-02-0.360E-02
CGA:  44    -0.377053304870E+03   -0.19248E-03   -0.22948E-03  9828   0.189E-02 0.132E-03
CGA:  45    -0.377053513202E+03   -0.20833E-03   -0.21296E-03  9828   0.362E-03 0.432E-04
CGA:  46    -0.377053516811E+03   -0.36095E-05   -0.15600E-04  9828   0.111E-03 0.700E-04
  24 F= -.37705352E+03 E0= -.37704637E+03  d E =0.375296E+01  mag=     4.0000
       N       E                     dE             d eps       ncg     rms          ort
SDA:   1    -0.361389850196E+03    0.15664E+02    0.00000E+00  9828   0.577E+02 0.000E+00
CGA:   2    -0.367494077678E+03   -0.61042E+01   -0.73460E+01  9828   0.100E+03-0.144E+02
CGA:   3    -0.372603397762E+03   -0.51093E+01   -0.33950E+01  9828   0.632E+02 0.410E+02
CGA:   4    -0.376635310399E+03   -0.40319E+01   -0.37954E+01  9828   0.180E+02-0.630E+01
CGA:   5    -0.378931451764E+03   -0.22961E+01   -0.18304E+01  9828   0.524E+01 0.224E+01
CGA:   6    -0.379455383662E+03   -0.52393E+00   -0.43730E+00  9828   0.750E+01 0.102E+01
CGA:   7    -0.379726352970E+03   -0.27097E+00   -0.35864E+00  9828   0.402E+01-0.226E+01
CGA:   8    -0.379881601719E+03   -0.15525E+00   -0.18436E+00  9828   0.323E+01-0.339E+00
CGA:   9    -0.380025713005E+03   -0.14411E+00   -0.12545E+00  9828   0.620E+00 0.400E+00
CGA:  10    -0.380052607391E+03   -0.26894E-01   -0.21619E-01  9828   0.439E+00 0.180E+00
CGA:  11    -0.380118062499E+03   -0.65455E-01   -0.65108E-01  9828   0.135E+01 0.754E-03
CGA:  12    -0.380154550495E+03   -0.36488E-01   -0.41388E-01  9828   0.321E+00-0.188E+00
CGA:  13    -0.380161995044E+03   -0.74445E-02   -0.10874E-01  9828   0.290E+00-0.985E-01
CGA:  14    -0.380180267394E+03   -0.18272E-01   -0.17497E-01  9828   0.317E+00-0.657E-03
CGA:  15    -0.380195009110E+03   -0.14742E-01   -0.13813E-01  9828   0.209E+00 0.251E-01
CGA:  16    -0.380208029483E+03   -0.13020E-01   -0.13345E-01  9828   0.932E-01-0.171E-01
CGA:  17    -0.380213236957E+03   -0.52075E-02   -0.47984E-02  9828   0.102E+00-0.145E-01
CGA:  18    -0.380222255931E+03   -0.90190E-02   -0.88737E-02  9828   0.419E-01-0.538E-02
CGA:  19    -0.380223479494E+03   -0.12236E-02   -0.14336E-02  9828   0.218E-01 0.435E-02
CGA:  20    -0.380227081728E+03   -0.36022E-02   -0.36136E-02  9828   0.550E-01-0.264E-03
CGA:  21    -0.380230301190E+03   -0.32195E-02   -0.28335E-02  9828   0.223E-01-0.110E-01
CGA:  22    -0.380232385756E+03   -0.20846E-02   -0.20992E-02  9828   0.257E-01-0.498E-02
CGA:  23    -0.380233414311E+03   -0.10286E-02   -0.10673E-02  9828   0.211E-01 0.109E-02
CGA:  24    -0.380236125650E+03   -0.27113E-02   -0.27877E-02  9828   0.286E-01-0.494E-02
CGA:  25    -0.380237866856E+03   -0.17412E-02   -0.13111E-02  9828   0.141E-01-0.122E-01
CGA:  26    -0.380239788289E+03   -0.19214E-02    0.53002E-02  9828   0.136E-01 0.201E-02
CGA:  27    -0.380241208164E+03   -0.14199E-02   -0.14098E-02  9828   0.122E-01-0.901E-04
CGA:  28    -0.380233686972E+03    0.75212E-02   -0.64765E-02  9828   0.578E-01-0.325E-01
CGA:  29    -0.380244111491E+03   -0.10425E-01   -0.10894E-01  9828   0.580E-01-0.826E-02
CGA:  30    -0.380247872277E+03   -0.37608E-02   -0.40177E-02  9828   0.872E-02 0.792E-02
CGA:  31    -0.380248207400E+03   -0.33512E-03   -0.53629E-03  9828   0.419E-02 0.325E-02
CGA:  32    -0.380248847424E+03   -0.64002E-03   -0.66007E-03  9828   0.529E-02 0.175E-02
CGA:  33    -0.380249867647E+03   -0.10202E-02   -0.10795E-02  9828   0.420E-02-0.326E-02
CGA:  34    -0.380250155435E+03   -0.28779E-03   -0.36138E-03  9828   0.167E-02 0.187E-02
CGA:  35    -0.380250532873E+03   -0.37744E-03   -0.37405E-03  9828   0.738E-03 0.132E-03
CGA:  36    -0.380250760141E+03   -0.22727E-03    0.39029E-03  9828   0.855E-03 0.577E-03
CGA:  37    -0.380250859817E+03   -0.99676E-04   -0.10259E-03  9828   0.544E-03 0.470E-03
CGA:  38    -0.380251085091E+03   -0.22527E-03    0.53312E-04  9828   0.549E-03 0.312E-03
CGA:  39    -0.380251081855E+03    0.32359E-05   -0.27455E-04  9828   0.404E-03 0.414E-03
CGA:  40    -0.380251565726E+03   -0.48387E-03   -0.20438E-03  9828   0.879E-03 0.272E-03
CGA:  41    -0.380239732651E+03    0.11833E-01   -0.83420E-02  9828   0.233E+00-0.938E-02
CGA:  42    -0.380246368558E+03   -0.66359E-02   -0.41013E-02  9828   0.129E+00 0.178E+00
CGA:  43    -0.380250812431E+03   -0.44439E-02   -0.31113E-02  9828   0.495E-01 0.822E-01
CGA:  44    -0.380252628279E+03   -0.18158E-02   -0.16783E-02  9828   0.907E-02 0.215E-01
CGA:  45    -0.380252796449E+03   -0.16817E-03   -0.36980E-03  9828   0.104E-02 0.382E-02
CGA:  46    -0.380252757001E+03    0.39448E-04   -0.53840E-04  9828   0.390E-03 0.398E-03
CGA:  47    -0.380252765786E+03   -0.87849E-05   -0.42723E-04  9828   0.637E-03 0.151E-03
CGA:  48    -0.380253000709E+03   -0.23492E-03   -0.15841E-03  9828   0.172E-02-0.515E-03
CGA:  49    -0.380253456679E+03   -0.45597E-03   -0.36095E-03  9828   0.294E-02-0.103E-02
CGA:  50    -0.380253445067E+03    0.11612E-04   -0.13121E-03  9828   0.345E-03 0.794E-03
CGA:  51    -0.380253423664E+03    0.21403E-04   -0.20768E-04  9828   0.227E-03 0.187E-03
CGA:  52    -0.380253668689E+03   -0.24502E-03    0.31820E-04  9828   0.404E-03 0.127E-03
CGA:  53    -0.380253646627E+03    0.22061E-04   -0.21167E-04  9828   0.190E-03 0.203E-03
CGA:  54    -0.380253769291E+03   -0.12266E-03    0.10947E-03  9828   0.191E-03 0.176E-03
CGA:  55    -0.380253974011E+03   -0.20472E-03    0.24158E-04  9828   0.314E-03 0.136E-03
CGA:  56    -0.380253956887E+03    0.17125E-04   -0.17407E-04  9828   0.171E-03 0.172E-03
CGA:  57    -0.380254082161E+03   -0.12527E-03    0.47230E-04  9828   0.164E-03 0.166E-03
CGA:  58    -0.380254213543E+03   -0.13138E-03    0.35247E-04  9828   0.159E-03 0.158E-03
CGA:  59    -0.380254305247E+03   -0.91704E-04    0.14135E-03  9828   0.172E-03 0.146E-03
CGA:  60    -0.380254491518E+03   -0.18627E-03    0.18765E-04  9828   0.373E-03 0.795E-04
CGA:  61    -0.380254748527E+03   -0.25701E-03   -0.31940E-03  9828   0.339E-02-0.838E-04
CGA:  62    -0.380254955578E+03   -0.20705E-03   -0.96176E-04  9828   0.490E-02 0.118E-02
CGA:  63    -0.380255806970E+03   -0.85139E-03   -0.50722E-03  9828   0.257E-02 0.632E-03
CGA:  64    -0.380256278089E+03   -0.47112E-03   -0.31117E-03  9828   0.859E-03-0.177E-02
CGA:  65    -0.380256252327E+03    0.25762E-04   -0.38151E-04  9828   0.201E-03 0.345E-03
CGA:  66    -0.380256233681E+03    0.18646E-04   -0.11140E-04  9828   0.136E-03 0.158E-03
CGA:  67    -0.380256297559E+03   -0.63878E-04    0.25567E-03  9828   0.111E-03 0.869E-04
CGA:  68    -0.380256286603E+03    0.10956E-04   -0.48198E-05  9828   0.820E-04 0.890E-04
CGA:  69    -0.380256283619E+03    0.29843E-05   -0.67379E-05  9828   0.729E-04 0.747E-04
CGA:  70    -0.380256302699E+03   -0.19080E-04   -0.17230E-04  9828   0.581E-04 0.620E-04
CGA:  71    -0.380256298151E+03    0.45480E-05   -0.34403E-05  9828   0.529E-04 0.540E-04
  25 F= -.38025630E+03 E0= -.38025594E+03  d E =-.320278E+01  mag=     4.0000
       N       E                     dE             d eps       ncg     rms          ort
SDA:   1    -0.378308859450E+03    0.19474E+01    0.00000E+00  9828   0.575E+01 0.000E+00
CGA:   2    -0.380119545722E+03   -0.18107E+01   -0.18137E+01  9828   0.200E+01-0.263E-01
CGA:   3    -0.380552195323E+03   -0.43265E+00   -0.43257E+00  9828   0.543E+00 0.567E-02
CGA:   4    -0.380649461420E+03   -0.97266E-01   -0.97609E-01  9828   0.103E+00 0.406E-02
CGA:   5    -0.380672549552E+03   -0.23088E-01   -0.23082E-01  9828   0.296E-01 0.342E-03
CGA:   6    -0.380681276834E+03   -0.87273E-02   -0.89885E-02  9828   0.138E-01-0.262E-02
CGA:   7    -0.380684997163E+03   -0.37203E-02   -0.39826E-02  9828   0.717E-02-0.238E-02
CGA:   8    -0.380686722671E+03   -0.17255E-02   -0.18147E-02  9828   0.308E-02-0.953E-03
CGA:   9    -0.380687443983E+03   -0.72131E-03   -0.13191E-02  9828   0.398E-02-0.213E-02
CGA:  10    -0.380688057488E+03   -0.61351E-03   -0.63644E-03  9828   0.613E-03 0.339E-03
CGA:  11    -0.380688196358E+03   -0.13887E-03   -0.40573E-03  9828   0.161E-02-0.694E-03
CGA:  12    -0.380688443117E+03   -0.24676E-03   -0.26617E-03  9828   0.224E-03 0.243E-03
CGA:  13    -0.380688521527E+03   -0.78410E-04   -0.10004E-03  9828   0.207E-03-0.149E-03
CGA:  14    -0.380688558527E+03   -0.37000E-04   -0.39385E-04  9828   0.485E-04 0.403E-04
CGA:  15    -0.380688598024E+03   -0.39497E-04    0.18981E-04  9828   0.296E-04 0.191E-04
CGA:  16    -0.380688634248E+03   -0.36224E-04    0.66231E-05  9828   0.330E-04 0.326E-04
CGA:  17    -0.380688642792E+03   -0.85446E-05   -0.84272E-05  9828   0.217E-04 0.154E-04
  26 F= -.38068864E+03 E0= -.38068864E+03  d E =-.432345E+00  mag=     4.0000
       N       E                     dE             d eps       ncg     rms          ort
SDA:   1    -0.379855352595E+03    0.83328E+00    0.00000E+00  9828   0.239E+01 0.000E+00
CGA:   2    -0.380590134157E+03   -0.73478E+00   -0.73536E+00  9828   0.945E+00-0.112E-01
CGA:   3    -0.380783205345E+03   -0.19307E+00   -0.19328E+00  9828   0.231E+00 0.532E-02
CGA:   4    -0.380828717759E+03   -0.45512E-01   -0.45726E-01  9828   0.397E-01 0.412E-02
CGA:   5    -0.380837171830E+03   -0.84541E-02   -0.84688E-02  9828   0.129E-01 0.399E-03
CGA:   6    -0.380840613440E+03   -0.34416E-02   -0.34540E-02  9828   0.502E-02-0.572E-03
CGA:   7    -0.380842083778E+03   -0.14703E-02   -0.15120E-02  9828   0.211E-02-0.594E-03
CGA:   8    -0.380842602271E+03   -0.51849E-03   -0.51606E-03  9828   0.652E-03 0.858E-04
CGA:   9    -0.380842779276E+03   -0.17701E-03   -0.17602E-03  9828   0.188E-03 0.104E-03
CGA:  10    -0.380842850912E+03   -0.71636E-04   -0.71244E-04  9828   0.849E-04 0.532E-05
CGA:  11    -0.380842886723E+03   -0.35811E-04   -0.42336E-04  9828   0.911E-04-0.284E-04
CGA:  12    -0.380842888246E+03   -0.15232E-05   -0.50614E-04  9828   0.264E-03-0.858E-04
CGA:  13    -0.380842927581E+03   -0.39336E-04   -0.48004E-04  9828   0.701E-04 0.772E-04
CGA:  14    -0.380842941145E+03   -0.13563E-04   -0.17637E-04  9828   0.321E-04 0.432E-04
CGA:  15    -0.380842951498E+03   -0.10353E-04   -0.10038E-04  9828   0.194E-04 0.112E-04
CGA:  16    -0.380842951967E+03   -0.46936E-06   -0.34710E-05  9828   0.110E-04 0.196E-04
  27 F= -.38084295E+03 E0= -.38084295E+03  d E =-.154309E+00  mag=     4.0000
       N       E                     dE             d eps       ncg     rms          ort
SDA:   1    -0.380633985273E+03    0.20897E+00    0.00000E+00  9828   0.630E+00 0.000E+00
CGA:   2    -0.380841813974E+03   -0.20783E+00   -0.20802E+00  9828   0.200E+00-0.320E-02
CGA:   3    -0.380885853945E+03   -0.44040E-01   -0.44166E-01  9828   0.495E-01 0.251E-02
CGA:   4    -0.380895174212E+03   -0.93203E-02   -0.94334E-02  9828   0.935E-02 0.139E-02
CGA:   5    -0.380897236182E+03   -0.20620E-02   -0.20726E-02  9828   0.294E-02 0.214E-03
CGA:   6    -0.380898082980E+03   -0.84680E-03   -0.85122E-03  9828   0.127E-02-0.223E-03
CGA:   7    -0.380898434062E+03   -0.35108E-03   -0.35576E-03  9828   0.526E-03-0.122E-03
CGA:   8    -0.380898542510E+03   -0.10845E-03   -0.11155E-03  9828   0.155E-03 0.994E-04
CGA:   9    -0.380898567585E+03   -0.25076E-04   -0.32291E-04  9828   0.615E-04 0.813E-04
CGA:  10    -0.380898581264E+03   -0.13679E-04   -0.14421E-04  9828   0.278E-04 0.290E-04
CGA:  11    -0.380898587102E+03   -0.58385E-05   -0.77232E-05  9828   0.180E-04 0.270E-04
  28 F= -.38089859E+03 E0= -.38089859E+03  d E =-.556351E-01  mag=     4.0000
       N       E                     dE             d eps       ncg     rms          ort
SDA:   1    -0.380310281701E+03    0.58830E+00    0.00000E+00  9828   0.147E+01 0.000E+00
CGA:   2    -0.380771031697E+03   -0.46075E+00   -0.46062E+00  9828   0.472E+00 0.164E-02
CGA:   3    -0.380881318077E+03   -0.11029E+00   -0.11031E+00  9828   0.107E+00 0.863E-03
CGA:   4    -0.380901868138E+03   -0.20550E-01   -0.20625E-01  9828   0.230E-01 0.118E-02
CGA:   5    -0.380906799592E+03   -0.49315E-02   -0.49500E-02  9828   0.654E-02 0.484E-03
CGA:   6    -0.380908628855E+03   -0.18293E-02   -0.18332E-02  9828   0.277E-02-0.155E-03
CGA:   7    -0.380909443059E+03   -0.81420E-03   -0.82443E-03  9828   0.118E-02-0.188E-03
CGA:   8    -0.380909754425E+03   -0.31137E-03   -0.30850E-03  9828   0.390E-03 0.109E-03
CGA:   9    -0.380909843246E+03   -0.88820E-04   -0.93670E-04  9828   0.130E-03 0.140E-03
CGA:  10    -0.380909882346E+03   -0.39100E-04   -0.40578E-04  9828   0.649E-04 0.651E-04
CGA:  11    -0.380909905181E+03   -0.22835E-04   -0.60714E-04  9828   0.315E-03-0.558E-04
CGA:  12    -0.380909941964E+03   -0.36783E-04   -0.46978E-04  9828   0.418E-04 0.748E-04
CGA:  13    -0.380909943745E+03   -0.17807E-05   -0.64179E-05  9828   0.231E-04 0.299E-04
  29 F= -.38090994E+03 E0= -.38090994E+03  d E =-.113566E-01  mag=     4.0000
       N       E                     dE             d eps       ncg     rms          ort
SDA:   1    -0.380810991322E+03    0.98951E-01    0.00000E+00  9828   0.258E+00 0.000E+00
CGA:   2    -0.380876036679E+03   -0.65045E-01   -0.65106E-01  9828   0.826E-01 0.385E-02
CGA:   3    -0.380897236211E+03   -0.21200E-01   -0.21190E-01  9828   0.179E-01-0.701E-03
CGA:   4    -0.380900573723E+03   -0.33375E-02   -0.32889E-02  9828   0.399E-02-0.600E-03
CGA:   5    -0.380901394688E+03   -0.82096E-03   -0.81648E-03  9828   0.103E-02-0.899E-04
CGA:   6    -0.380901623581E+03   -0.22889E-03   -0.23134E-03  9828   0.334E-03 0.823E-04
CGA:   7    -0.380901728117E+03   -0.10454E-03   -0.10325E-03  9828   0.151E-03 0.455E-04
CGA:   8    -0.380901789092E+03   -0.60975E-04   -0.59118E-04  9828   0.849E-04 0.213E-04
CGA:   9    -0.380901819263E+03   -0.30171E-04   -0.29448E-04  9828   0.350E-04 0.179E-04
CGA:  10    -0.380901831903E+03   -0.12640E-04   -0.12342E-04  9828   0.152E-04 0.115E-04
CGA:  11    -0.380901836952E+03   -0.50482E-05   -0.51562E-05  9828   0.830E-05 0.940E-05
  30 F= -.38090184E+03 E0= -.38090184E+03  d E =0.810679E-02  mag=     4.0000
       N       E                     dE             d eps       ncg     rms          ort
SDA:   1    -0.378721278023E+03    0.21806E+01    0.00000E+00  9828   0.611E+01 0.000E+00
CGA:   2    -0.380254962372E+03   -0.15337E+01   -0.15341E+01  9828   0.195E+01 0.268E-01
CGA:   3    -0.380748310985E+03   -0.49335E+00   -0.49328E+00  9828   0.400E+00-0.711E-02
CGA:   4    -0.380820121097E+03   -0.71810E-01   -0.71488E-01  9828   0.843E-01-0.383E-02
CGA:   5    -0.380837943509E+03   -0.17822E-01   -0.17777E-01  9828   0.214E-01-0.102E-02
CGA:   6    -0.380843104486E+03   -0.51610E-02   -0.51647E-02  9828   0.752E-02 0.338E-03
CGA:   7    -0.380845422986E+03   -0.23185E-02   -0.23055E-02  9828   0.350E-02 0.276E-03
CGA:   8    -0.380846850839E+03   -0.14279E-02   -0.14646E-02  9828   0.216E-02-0.252E-03
CGA:   9    -0.380847523945E+03   -0.67311E-03   -0.68680E-03  9828   0.819E-03-0.176E-03
CGA:  10    -0.380847760362E+03   -0.23642E-03   -0.23818E-03  9828   0.264E-03-0.367E-04
CGA:  11    -0.380847838717E+03   -0.78356E-04   -0.77481E-04  9828   0.934E-04 0.243E-04
CGA:  12    -0.380847881030E+03   -0.42313E-04   -0.43479E-04  9828   0.555E-04-0.765E-05
CGA:  13    -0.380847893614E+03   -0.12584E-04   -0.12994E-04  9828   0.224E-04 0.161E-04
CGA:  14    -0.380847897684E+03   -0.40704E-05   -0.53281E-05  9828   0.985E-05 0.132E-04
  31 F= -.38084790E+03 E0= -.38084790E+03  d E =0.539393E-01  mag=     4.0000
       N       E                     dE             d eps       ncg     rms          ort
SDA:   1    -0.380178339048E+03    0.66955E+00    0.00000E+00  9828   0.168E+01 0.000E+00
CGA:   2    -0.380657932709E+03   -0.47959E+00   -0.47948E+00  9828   0.591E+00 0.839E-02
CGA:   3    -0.380795007667E+03   -0.13707E+00   -0.13695E+00  9828   0.118E+00-0.300E-02
CGA:   4    -0.380816652930E+03   -0.21645E-01   -0.21538E-01  9828   0.241E-01-0.123E-02
CGA:   5    -0.380821778544E+03   -0.51256E-02   -0.51304E-02  9828   0.609E-02 0.928E-04
CGA:   6    -0.380823228232E+03   -0.14497E-02   -0.14540E-02  9828   0.211E-02 0.161E-03
CGA:   7    -0.380823870417E+03   -0.64219E-03   -0.64342E-03  9828   0.929E-03-0.359E-04
CGA:   8    -0.380824192816E+03   -0.32240E-03   -0.32460E-03  9828   0.452E-03-0.244E-04
CGA:   9    -0.380824335822E+03   -0.14301E-03   -0.14350E-03  9828   0.167E-03-0.876E-05
CGA:  10    -0.380824392322E+03   -0.56500E-04   -0.56802E-04  9828   0.675E-04-0.416E-05
CGA:  11    -0.380824421290E+03   -0.28968E-04   -0.30715E-04  9828   0.496E-04-0.935E-05
CGA:  12    -0.380824438508E+03   -0.17217E-04   -0.32862E-04  9828   0.101E-03-0.327E-04
CGA:  13    -0.380824454696E+03   -0.16188E-04   -0.18413E-04  9828   0.204E-04 0.175E-04
CGA:  14    -0.380824458768E+03   -0.40722E-05   -0.49924E-05  9828   0.855E-05 0.976E-05
  32 F= -.38082446E+03 E0= -.38082446E+03  d E =0.234389E-01  mag=     4.0000
       N       E                     dE             d eps       ncg     rms          ort
SDA:   1    -0.380752566255E+03    0.71888E-01    0.00000E+00  9828   0.190E+00 0.000E+00
CGA:   2    -0.380812023079E+03   -0.59457E-01   -0.59427E-01  9828   0.755E-01 0.174E-02
CGA:   3    -0.380827367057E+03   -0.15344E-01   -0.15236E-01  9828   0.153E-01-0.114E-02
CGA:   4    -0.380830370602E+03   -0.30035E-02   -0.29782E-02  9828   0.299E-02-0.251E-03
CGA:   5    -0.380830968993E+03   -0.59839E-03   -0.60461E-03  9828   0.793E-03 0.781E-04
CGA:   6    -0.380831147187E+03   -0.17819E-03   -0.18174E-03  9828   0.235E-03 0.611E-04
CGA:   7    -0.380831214327E+03   -0.67141E-04   -0.67457E-04  9828   0.838E-04 0.264E-04
CGA:   8    -0.380831250658E+03   -0.36330E-04   -0.38997E-04  9828   0.649E-04-0.190E-04
CGA:   9    -0.380831260367E+03   -0.97097E-05   -0.10386E-04  9828   0.231E-04 0.867E-05
  33 F= -.38083126E+03 E0= -.38083126E+03  d E =-.680160E-02  mag=     4.0000
       N       E                     dE             d eps       ncg     rms          ort
SDA:   1    -0.380398208453E+03    0.43304E+00    0.00000E+00  9828   0.104E+01 0.000E+00
CGA:   2    -0.380730137608E+03   -0.33193E+00   -0.33168E+00  9828   0.362E+00 0.553E-02
CGA:   3    -0.380807027885E+03   -0.76890E-01   -0.76651E-01  9828   0.647E-01-0.373E-02
CGA:   4    -0.380818834218E+03   -0.11806E-01   -0.11762E-01  9828   0.138E-01-0.468E-03
CGA:   5    -0.380821703600E+03   -0.28694E-02   -0.28793E-02  9828   0.323E-02 0.173E-03
CGA:   6    -0.380822446382E+03   -0.74278E-03   -0.74637E-03  9828   0.949E-03 0.968E-04
CGA:   7    -0.380822717367E+03   -0.27098E-03   -0.27051E-03  9828   0.368E-03 0.369E-04
CGA:   8    -0.380822869420E+03   -0.15205E-03   -0.16379E-03  9828   0.269E-03-0.715E-04
CGA:   9    -0.380822928309E+03   -0.58889E-04   -0.58895E-04  9828   0.905E-04 0.115E-04
CGA:  10    -0.380822949306E+03   -0.20997E-04   -0.21836E-04  9828   0.332E-04 0.202E-04
CGA:  11    -0.380822960523E+03   -0.11217E-04   -0.11182E-04  9828   0.178E-04 0.761E-05
CGA:  12    -0.380822968713E+03   -0.81896E-05   -0.78333E-05  9828   0.137E-04 0.393E-05
  34 F= -.38082297E+03 E0= -.38082297E+03  d E =0.829165E-02  mag=     4.0000
       N       E                     dE             d eps       ncg     rms          ort
SDA:   1    -0.374536483341E+03    0.62865E+01    0.00000E+00  9828   0.147E+02 0.000E+00
CGA:   2    -0.379623392054E+03   -0.50869E+01   -0.50867E+01  9828   0.460E+01 0.690E-02
CGA:   3    -0.380576559990E+03   -0.95317E+00   -0.95252E+00  9828   0.769E+00-0.129E-01
CGA:   4    -0.380720600423E+03   -0.14404E+00   -0.14397E+00  9828   0.172E+00 0.117E-02
CGA:   5    -0.380757419227E+03   -0.36819E-01   -0.36872E-01  9828   0.403E-01 0.838E-03
CGA:   6    -0.380767010607E+03   -0.95914E-02   -0.95827E-02  9828   0.127E-01-0.241E-03
CGA:   7    -0.380770534310E+03   -0.35237E-02   -0.35257E-02  9828   0.511E-02-0.204E-03
CGA:   8    -0.380772371924E+03   -0.18376E-02   -0.18955E-02  9828   0.283E-02-0.544E-03
CGA:   9    -0.380773115845E+03   -0.74392E-03   -0.74419E-03  9828   0.932E-03-0.130E-04
CGA:  10    -0.380773421561E+03   -0.30572E-03   -0.31087E-03  9828   0.361E-03-0.899E-04
CGA:  11    -0.380773549035E+03   -0.12747E-03   -0.13059E-03  9828   0.202E-03-0.268E-04
[...]
       N       E                     dE             d eps       ncg     rms          ort
SDA:   1    -0.380600510042E+03    0.15771E-01    0.00000E+00  9828   0.399E-01 0.000E+00
CGA:   2    -0.380612160625E+03   -0.11651E-01   -0.11647E-01  9828   0.155E-01 0.452E-03
CGA:   3    -0.380615473847E+03   -0.33132E-02   -0.33019E-02  9828   0.307E-02-0.154E-03
CGA:   4    -0.380616045716E+03   -0.57187E-03   -0.56663E-03  9828   0.623E-03-0.551E-04
CGA:   5    -0.380616166499E+03   -0.12078E-03   -0.12194E-03  9828   0.143E-03 0.151E-04
CGA:   6    -0.380616199021E+03   -0.32522E-04   -0.33186E-04  9828   0.398E-04 0.144E-04
CGA:   7    -0.380616212105E+03   -0.13084E-04   -0.13029E-04  9828   0.190E-04 0.198E-05
CGA:   8    -0.380616217784E+03   -0.56792E-05   -0.56264E-05  9828   0.879E-05 0.487E-05
  94 F= -.38061622E+03 E0= -.38061622E+03  d E =0.663000E-04  mag=     4.0000
       N       E                     dE             d eps       ncg     rms          ort
SDA:   1    -0.380464191906E+03    0.15202E+00    0.00000E+00  9828   0.367E+00 0.000E+00
CGA:   2    -0.380581043696E+03   -0.11685E+00   -0.11676E+00  9828   0.130E+00 0.185E-02
CGA:   3    -0.380608751594E+03   -0.27708E-01   -0.27652E-01  9828   0.227E-01-0.941E-03
CGA:   4    -0.380612858984E+03   -0.41074E-02   -0.40992E-02  9828   0.491E-02-0.961E-04
CGA:   5    -0.380613875438E+03   -0.10165E-02   -0.10204E-02  9828   0.115E-02 0.722E-04
CGA:   6    -0.380614153178E+03   -0.27774E-03   -0.27829E-03  9828   0.347E-03 0.237E-04
CGA:   7    -0.380614257127E+03   -0.10395E-03   -0.10401E-03  9828   0.153E-03-0.165E-05
CGA:   8    -0.380614306119E+03   -0.48992E-04   -0.48027E-04  9828   0.660E-04 0.182E-04
CGA:   9    -0.380614327691E+03   -0.21572E-04   -0.21191E-04  9828   0.251E-04 0.171E-04
CGA:  10    -0.380614337204E+03   -0.95131E-05   -0.92630E-05  9828   0.117E-04 0.897E-05
  95 F= -.38061434E+03 E0= -.38061434E+03  d E =0.188058E-02  mag=     4.0000
       N       E                     dE             d eps       ncg     rms          ort
SDA:   1    -0.379489358666E+03    0.11250E+01    0.00000E+00  9828   0.267E+01 0.000E+00
CGA:   2    -0.380384728428E+03   -0.89537E+00   -0.89498E+00  9828   0.895E+00 0.534E-02
CGA:   3    -0.380570237645E+03   -0.18551E+00   -0.18524E+00  9828   0.150E+00-0.441E-02
CGA:   4    -0.380598148803E+03   -0.27911E-01   -0.27857E-01  9828   0.341E-01-0.625E-03
CGA:   5    -0.380605211666E+03   -0.70629E-02   -0.70689E-02  9828   0.803E-02 0.113E-03
CGA:   6    -0.380607117067E+03   -0.19054E-02   -0.19074E-02  9828   0.231E-02 0.845E-04
CGA:   7    -0.380607805038E+03   -0.68797E-03   -0.68844E-03  9828   0.995E-03-0.128E-04
CGA:   8    -0.380608173430E+03   -0.36839E-03   -0.37723E-03  9828   0.557E-03-0.735E-04
CGA:   9    -0.380608359146E+03   -0.18572E-03   -0.19229E-03  9828   0.253E-03-0.625E-04
CGA:  10    -0.380608429170E+03   -0.70024E-04   -0.69489E-04  9828   0.964E-04 0.141E-04
CGA:  11    -0.380608464057E+03   -0.34887E-04   -0.33398E-04  9828   0.551E-04 0.276E-04
CGA:  12    -0.380608488382E+03   -0.24325E-04   -0.22851E-04  9828   0.377E-04 0.321E-04
CGA:  13    -0.380608501151E+03   -0.12769E-04   -0.12099E-04  9828   0.195E-04 0.160E-04
CGA:  14    -0.380608508045E+03   -0.68942E-05   -0.73006E-05  9828   0.167E-04 0.215E-04
  96 F= -.38060851E+03 E0= -.38060851E+03  d E =0.582916E-02  mag=     4.0000
       N       E                     dE             d eps       ncg     rms          ort
SDA:   1    -0.380545320278E+03    0.63181E-01    0.00000E+00  9828   0.168E+00 0.000E+00
CGA:   2    -0.380594844038E+03   -0.49524E-01   -0.49547E-01  9828   0.625E-01-0.141E-02
CGA:   3    -0.380608348303E+03   -0.13504E-01   -0.13545E-01  9828   0.131E-01 0.675E-03
CGA:   4    -0.380610696727E+03   -0.23484E-02   -0.23782E-02  9828   0.274E-02 0.311E-03
CGA:   5    -0.380611303694E+03   -0.60697E-03   -0.60831E-03  9828   0.715E-03 0.248E-04
CGA:   6    -0.380611499822E+03   -0.19613E-03   -0.19629E-03  9828   0.298E-03-0.428E-04
CGA:   7    -0.380611574305E+03   -0.74483E-04   -0.74518E-04  9828   0.102E-03 0.133E-04
CGA:   8    -0.380611601938E+03   -0.27633E-04   -0.27818E-04  9828   0.357E-04 0.241E-04
CGA:   9    -0.380611611462E+03   -0.95243E-05   -0.10135E-04  9828   0.147E-04 0.160E-04
  97 F= -.38061161E+03 E0= -.38061161E+03  d E =-.310342E-02  mag=     4.0000
       N       E                     dE             d eps       ncg     rms          ort
SDA:   1    -0.380511487354E+03    0.10011E+00    0.00000E+00  9828   0.240E+00 0.000E+00
CGA:   2    -0.380593981877E+03   -0.82495E-01   -0.82654E-01  9828   0.822E-01-0.198E-02
CGA:   3    -0.380609890472E+03   -0.15909E-01   -0.15981E-01  9828   0.135E-01 0.102E-02
CGA:   4    -0.380612386900E+03   -0.24964E-02   -0.25284E-02  9828   0.292E-02 0.407E-03
CGA:   5    -0.380613026644E+03   -0.63974E-03   -0.64074E-03  9828   0.737E-03 0.218E-04
CGA:   6    -0.380613223590E+03   -0.19695E-03   -0.19768E-03  9828   0.256E-03-0.802E-04
CGA:   7    -0.380613286792E+03   -0.63202E-04   -0.63395E-04  9828   0.955E-04-0.956E-05
CGA:   8    -0.380613308454E+03   -0.21662E-04   -0.22099E-04  9828   0.306E-04 0.241E-04
CGA:   9    -0.380613316129E+03   -0.76755E-05   -0.82689E-05  9828   0.118E-04 0.142E-04
  98 F= -.38061332E+03 E0= -.38061332E+03  d E =-.170467E-02  mag=     4.0000
       N       E                     dE             d eps       ncg     rms          ort
SDA:   1    -0.380602364449E+03    0.10944E-01    0.00000E+00  9828   0.292E-01 0.000E+00
CGA:   2    -0.380611028249E+03   -0.86638E-02   -0.86828E-02  9828   0.120E-01-0.436E-03
CGA:   3    -0.380613417559E+03   -0.23893E-02   -0.23838E-02  9828   0.230E-02-0.102E-03
CGA:   4    -0.380613798177E+03   -0.38062E-03   -0.38976E-03  9828   0.424E-03 0.111E-03
CGA:   5    -0.380613878668E+03   -0.80491E-04   -0.83917E-04  9828   0.931E-04 0.561E-04
CGA:   6    -0.380613904785E+03   -0.26117E-04   -0.26114E-04  9828   0.311E-04 0.320E-05
CGA:   7    -0.380613915291E+03   -0.10506E-04   -0.11157E-04  9828   0.189E-04-0.650E-05
CGA:   8    -0.380613917861E+03   -0.25699E-05   -0.28703E-05  9828   0.802E-05 0.502E-05
  99 F= -.38061392E+03 E0= -.38061392E+03  d E =-.601732E-03  mag=     4.0000
       N       E                     dE             d eps       ncg     rms          ort
SDA:   1    -0.380531318814E+03    0.82596E-01    0.00000E+00  9828   0.196E+00 0.000E+00
CGA:   2    -0.380598707534E+03   -0.67389E-01   -0.67456E-01  9828   0.662E-01-0.655E-03
CGA:   3    -0.380611613970E+03   -0.12906E-01   -0.12897E-01  9828   0.119E-01-0.173E-03
CGA:   4    -0.380613771721E+03   -0.21578E-02   -0.21725E-02  9828   0.250E-02 0.238E-03
CGA:   5    -0.380614290525E+03   -0.51880E-03   -0.52164E-03  9828   0.578E-03 0.761E-04
CGA:   6    -0.380614444965E+03   -0.15444E-03   -0.15526E-03  9828   0.190E-03-0.405E-04
CGA:   7    -0.380614496883E+03   -0.51918E-04   -0.52842E-04  9828   0.807E-04-0.162E-04
CGA:   8    -0.380614516439E+03   -0.19556E-04   -0.19312E-04  9828   0.269E-04 0.141E-04
CGA:   9    -0.380614525013E+03   -0.85734E-05   -0.84150E-05  9828   0.102E-04 0.757E-05
 100 F= -.38061453E+03 E0= -.38061453E+03  d E =-.607152E-03  mag=     4.0000
       N       E                     dE             d eps       ncg     rms          ort
SDA:   1    -0.380088266941E+03    0.52625E+00    0.00000E+00  9828   0.123E+01 0.000E+00
CGA:   2    -0.380519687920E+03   -0.43142E+00   -0.43148E+00  9828   0.393E+00-0.552E-03
CGA:   3    -0.380596768482E+03   -0.77081E-01   -0.77021E-01  9828   0.703E-01-0.102E-02
CGA:   4    -0.380609944294E+03   -0.13176E-01   -0.13192E-01  9828   0.155E-01 0.262E-03
CGA:   5    -0.380613139242E+03   -0.31949E-02   -0.31989E-02  9828   0.366E-02 0.946E-04
CGA:   6    -0.380614037780E+03   -0.89854E-03   -0.89824E-03  9828   0.106E-02-0.953E-04
CGA:   7    -0.380614342909E+03   -0.30513E-03   -0.30779E-03  9828   0.443E-03-0.526E-04
CGA:   8    -0.380614489142E+03   -0.14623E-03   -0.14916E-03  9828   0.209E-03-0.279E-04
CGA:   9    -0.380614558434E+03   -0.69292E-04   -0.72743E-04  9828   0.933E-04-0.298E-04
CGA:  10    -0.380614584505E+03   -0.26072E-04   -0.26503E-04  9828   0.375E-04-0.615E-05
CGA:  11    -0.380614595662E+03   -0.11156E-04   -0.10869E-04  9828   0.189E-04 0.619E-05
CGA:  12    -0.380614600260E+03   -0.45984E-05   -0.50454E-05  9828   0.107E-04 0.120E-04
 101 F= -.38061460E+03 E0= -.38061460E+03  d E =-.752474E-04  mag=     4.0000
       N       E                     dE             d eps       ncg     rms          ort
SDA:   1    -0.380245105959E+03    0.36949E+00    0.00000E+00  9828   0.853E+00 0.000E+00
CGA:   2    -0.380546769939E+03   -0.30166E+00   -0.30154E+00  9828   0.262E+00 0.143E-02
CGA:   3    -0.380600290709E+03   -0.53521E-01   -0.53408E-01  9828   0.486E-01-0.174E-02
CGA:   4    -0.380609631397E+03   -0.93407E-02   -0.92899E-02  9828   0.112E-01-0.693E-03
CGA:   5    -0.380611909790E+03   -0.22784E-02   -0.22782E-02  9828   0.270E-02-0.124E-05
CGA:   6    -0.380612528460E+03   -0.61867E-03   -0.62214E-03  9828   0.744E-03 0.126E-03
CGA:   7    -0.380612759741E+03   -0.23128E-03   -0.23146E-03  9828   0.326E-03-0.416E-05
CGA:   8    -0.380612883892E+03   -0.12415E-03   -0.14096E-03  9828   0.246E-03-0.952E-04
CGA:   9    -0.380612940879E+03   -0.56988E-04   -0.66539E-04  9828   0.128E-03-0.839E-04
CGA:  10    -0.380612962701E+03   -0.21822E-04   -0.21855E-04  9828   0.510E-04 0.207E-05
CGA:  11    -0.380612975799E+03   -0.13098E-04   -0.13304E-04  9828   0.298E-04 0.129E-04
CGA:  12    -0.380612987941E+03   -0.12142E-04   -0.11754E-04  9828   0.194E-04 0.892E-05
CGA:  13    -0.380612996836E+03   -0.88956E-05   -0.85667E-05  9828   0.116E-04 0.492E-05
 102 F= -.38061300E+03 E0= -.38061300E+03  d E =0.160342E-02  mag=     4.0000
       N       E                     dE             d eps       ncg     rms          ort
SDA:   1    -0.380437087254E+03    0.17590E+00    0.00000E+00  9828   0.422E+00 0.000E+00
CGA:   2    -0.380580724974E+03   -0.14364E+00   -0.14372E+00  9828   0.148E+00-0.133E-02
CGA:   3    -0.380608952907E+03   -0.28228E-01   -0.28316E-01  9828   0.267E-01 0.983E-03
CGA:   4    -0.380613909618E+03   -0.49567E-02   -0.50079E-02  9828   0.559E-02 0.551E-03
CGA:   5    -0.380615128305E+03   -0.12187E-02   -0.12195E-02  9828   0.140E-02 0.144E-04
CGA:   6    -0.380615494434E+03   -0.36613E-03   -0.36446E-03  9828   0.489E-03-0.128E-03
CGA:   7    -0.380615611764E+03   -0.11733E-03   -0.11728E-03  9828   0.166E-03-0.624E-05
CGA:   8    -0.380615655191E+03   -0.43427E-04   -0.43603E-04  9828   0.531E-04 0.287E-04
CGA:   9    -0.380615670053E+03   -0.14862E-04   -0.15304E-04  9828   0.176E-04 0.176E-04
CGA:  10    -0.380615676079E+03   -0.60259E-05   -0.60870E-05  9828   0.650E-05 0.581E-05
 103 F= -.38061568E+03 E0= -.38061568E+03  d E =-.267924E-02  mag=     4.0000
       N       E                     dE             d eps       ncg     rms          ort
SDA:   1    -0.380599305052E+03    0.16365E-01    0.00000E+00  9828   0.385E-01 0.000E+00
CGA:   2    -0.380612643814E+03   -0.13339E-01   -0.13380E-01  9828   0.144E-01-0.572E-03
CGA:   3    -0.380615246328E+03   -0.26025E-02   -0.26255E-02  9828   0.286E-02 0.252E-03
CGA:   4    -0.380615777538E+03   -0.53121E-03   -0.55053E-03  9828   0.474E-03 0.225E-03
CGA:   5    -0.380615897034E+03   -0.11950E-03   -0.12007E-03  9828   0.157E-03 0.156E-04
CGA:   6    -0.380615947605E+03   -0.50571E-04   -0.55188E-04  9828   0.128E-03-0.646E-04
CGA:   7    -0.380615966634E+03   -0.19029E-04   -0.18371E-04  9828   0.525E-04-0.219E-04
CGA:   8    -0.380615971093E+03   -0.44586E-05   -0.65103E-05  9828   0.269E-04 0.168E-04
 104 F= -.38061597E+03 E0= -.38061597E+03  d E =-.295014E-03  mag=     4.0000
       N       E                     dE             d eps       ncg     rms          ort
SDA:   1    -0.380593194900E+03    0.22772E-01    0.00000E+00  9828   0.530E-01 0.000E+00
CGA:   2    -0.380612200174E+03   -0.19005E-01   -0.18967E-01  9828   0.154E-01 0.389E-03
CGA:   3    -0.380615424831E+03   -0.32247E-02   -0.32045E-02  9828   0.283E-02-0.352E-03
CGA:   4    -0.380615953257E+03   -0.52843E-03   -0.52462E-03  9828   0.664E-03-0.530E-04
CGA:   5    -0.380616083193E+03   -0.12994E-03   -0.13071E-03  9828   0.145E-03 0.138E-04
CGA:   6    -0.380616115152E+03   -0.31959E-04   -0.32441E-04  9828   0.374E-04 0.137E-04
CGA:   7    -0.380616126786E+03   -0.11635E-04   -0.11556E-04  9828   0.160E-04 0.263E-05
CGA:   8    -0.380616133295E+03   -0.65086E-05   -0.96208E-05  9828   0.237E-04-0.101E-04
 105 F= -.38061613E+03 E0= -.38061613E+03  d E =-.162202E-03  mag=     4.0000
       N       E                     dE             d eps       ncg     rms          ort
SDA:   1    -0.374487416465E+03    0.61287E+01    0.00000E+00  9828   0.142E+02 0.000E+00
CGA:   2    -0.379554910694E+03   -0.50675E+01   -0.50682E+01  9828   0.433E+01-0.439E-02
CGA:   3    -0.380410446259E+03   -0.85554E+00   -0.85514E+00  9828   0.752E+00-0.860E-02
CGA:   4    -0.380554535616E+03   -0.14409E+00   -0.14410E+00  9828   0.171E+00 0.580E-03
CGA:   5    -0.380590483271E+03   -0.35948E-01   -0.35959E-01  9828   0.410E-01 0.256E-03
CGA:   6    -0.380600326998E+03   -0.98437E-02   -0.98358E-02  9828   0.119E-01-0.387E-03
CGA:   7    -0.380603773712E+03   -0.34467E-02   -0.34574E-02  9828   0.491E-02-0.296E-03
CGA:   8    -0.380605483091E+03   -0.17094E-02   -0.17702E-02  9828   0.256E-02-0.551E-03
CGA:   9    -0.380606210410E+03   -0.72732E-03   -0.74533E-03  9828   0.961E-03-0.290E-03
CGA:  10    -0.380606474784E+03   -0.26437E-03   -0.27121E-03  9828   0.373E-03-0.138E-03
CGA:  11    -0.380606569272E+03   -0.94488E-04   -0.94181E-04  9828   0.158E-03 0.132E-04
CGA:  12    -0.380606642382E+03   -0.73111E-04   -0.76106E-04  9828   0.134E-03-0.160E-04
CGA:  13    -0.380606697429E+03   -0.55046E-04   -0.53619E-04  9828   0.890E-04 0.826E-05
CGA:  14    -0.380606735400E+03   -0.37971E-04   -0.36596E-04  9828   0.517E-04 0.136E-04
CGA:  15    -0.380606756348E+03   -0.20948E-04   -0.19959E-04  9828   0.336E-04 0.244E-04
CGA:  16    -0.380606776644E+03   -0.20296E-04   -0.18486E-04  9828   0.280E-04 0.234E-04
CGA:  17    -0.380606792913E+03   -0.16269E-04   -0.16876E-04  9828   0.330E-04-0.211E-05
CGA:  18    -0.380606806645E+03   -0.13732E-04   -0.12741E-04  9828   0.301E-04 0.961E-05
CGA:  19    -0.380606824817E+03   -0.18172E-04   -0.16651E-04  9828   0.194E-04 0.139E-04
CGA:  20    -0.380606833422E+03   -0.86048E-05   -0.88650E-05  9828   0.130E-04 0.184E-04
CGA:  21    -0.380606836945E+03   -0.35233E-05   -0.15676E-04  9828   0.906E-04-0.140E-04
CGA:  22    -0.380606846378E+03   -0.94334E-05   -0.14247E-04  9828   0.126E-04 0.227E-04
 106 F= -.38060685E+03 E0= -.38060685E+03  d E =0.928692E-02  mag=     4.0000
       N       E                     dE             d eps       ncg     rms          ort
SDA:   1    -0.380379672913E+03    0.22716E+00    0.00000E+00  9828   0.594E+00 0.000E+00
CGA:   2    -0.380557850120E+03   -0.17818E+00   -0.17794E+00  9828   0.231E+00-0.473E-02
CGA:   3    -0.380605572225E+03   -0.47722E-01   -0.48054E-01  9828   0.485E-01 0.241E-02
CGA:   4    -0.380614575836E+03   -0.90036E-02   -0.91852E-02  9828   0.953E-02 0.121E-02
CGA:   5    -0.380616662795E+03   -0.20870E-02   -0.21024E-02  9828   0.264E-02 0.132E-03
CGA:   6    -0.380617408443E+03   -0.74565E-03   -0.73320E-03  9828   0.114E-02-0.236E-03
CGA:   7    -0.380617726151E+03   -0.31771E-03   -0.31466E-03  9828   0.494E-03-0.137E-03
CGA:   8    -0.380617827024E+03   -0.10087E-03   -0.10694E-03  9828   0.155E-03 0.786E-04
CGA:   9    -0.380617864067E+03   -0.37044E-04   -0.41675E-04  9828   0.585E-04 0.526E-04
CGA:  10    -0.380617886175E+03   -0.22108E-04   -0.22497E-04  9828   0.316E-04 0.140E-04
CGA:  11    -0.380617900478E+03   -0.14303E-04   -0.14010E-04  9828   0.250E-04 0.643E-05
CGA:  12    -0.380617911541E+03   -0.11064E-04   -0.10683E-04  9828   0.221E-04 0.972E-05
CGA:  13    -0.380617918202E+03   -0.66607E-05   -0.78199E-05  9828   0.168E-04 0.181E-04
 107 F= -.38061792E+03 E0= -.38061792E+03  d E =-.110718E-01  mag=     4.0000
       N       E                     dE             d eps       ncg     rms          ort
SDA:   1    -0.378454572961E+03    0.21633E+01    0.00000E+00  9828   0.499E+01 0.000E+00
CGA:   2    -0.380255372358E+03   -0.18008E+01   -0.18008E+01  9828   0.149E+01-0.428E-03
CGA:   3    -0.380550798682E+03   -0.29543E+00   -0.29535E+00  9828   0.260E+00-0.914E-03
CGA:   4    -0.380600259450E+03   -0.49461E-01   -0.49479E-01  9828   0.592E-01 0.262E-03
CGA:   5    -0.380612760887E+03   -0.12501E-01   -0.12491E-01  9828   0.141E-01-0.103E-03
CGA:   6    -0.380616127760E+03   -0.33669E-02   -0.33563E-02  9828   0.407E-02-0.182E-03
CGA:   7    -0.380617280552E+03   -0.11528E-02   -0.11526E-02  9828   0.161E-02-0.368E-04
CGA:   8    -0.380617847430E+03   -0.56688E-03   -0.57381E-03  9828   0.772E-03-0.102E-03
CGA:   9    -0.380618083474E+03   -0.23604E-03   -0.23766E-03  9828   0.268E-03-0.491E-04
CGA:  10    -0.380618166577E+03   -0.83103E-04   -0.84782E-04  9828   0.105E-03-0.422E-04
CGA:  11    -0.380618195443E+03   -0.28865E-04   -0.29119E-04  9828   0.515E-04-0.842E-05
CGA:  12    -0.380618210475E+03   -0.15032E-04   -0.32568E-04  9828   0.143E-03-0.453E-04
CGA:  13    -0.380618232589E+03   -0.22114E-04   -0.23915E-04  9828   0.233E-04 0.123E-04
CGA:  14    -0.380618240628E+03   -0.80394E-05   -0.80423E-05  9828   0.920E-05-0.529E-06
 108 F= -.38061824E+03 E0= -.38061824E+03  d E =-.322426E-03  mag=     4.0000
       N       E                     dE             d eps       ncg     rms          ort
SDA:   1    -0.380518888793E+03    0.99344E-01    0.00000E+00  9828   0.250E+00 0.000E+00
CGA:   2    -0.380587309894E+03   -0.68421E-01   -0.68476E-01  9828   0.106E+00 0.100E-02
CGA:   3    -0.380609659605E+03   -0.22350E-01   -0.22259E-01  9828   0.227E-01-0.762E-03
CGA:   4    -0.380614043641E+03   -0.43840E-02   -0.42991E-02  9828   0.479E-02-0.649E-03
CGA:   5    -0.380615021789E+03   -0.97815E-03   -0.96322E-03  9828   0.120E-02-0.139E-03
CGA:   6    -0.380615265036E+03   -0.24325E-03   -0.25223E-03  9828   0.316E-03 0.978E-04
CGA:   7    -0.380615341890E+03   -0.76853E-04   -0.80912E-04  9828   0.977E-04 0.599E-04
CGA:   8    -0.380615385970E+03   -0.44080E-04   -0.45711E-04  9828   0.724E-04-0.176E-04
CGA:   9    -0.380615405834E+03   -0.19864E-04   -0.26934E-04  9828   0.664E-04-0.475E-04
CGA:  10    -0.380615418123E+03   -0.12289E-04   -0.13113E-04  9828   0.128E-04 0.716E-05
CGA:  11    -0.380615421248E+03   -0.31248E-05   -0.34496E-05  9828   0.378E-05 0.515E-05
CGA:  12    -0.380615394582E+03    0.26666E-04   -0.14394E-04  9828   0.124E-03-0.224E-04
CGA:  13    -0.380615422762E+03   -0.28180E-04   -0.28343E-04  9828   0.186E-04 0.528E-06
CGA:  14    -0.380615428399E+03   -0.56374E-05   -0.65103E-05  9828   0.323E-05 0.463E-05
 109 F= -.38061543E+03 E0= -.38061543E+03  d E =0.281223E-02  mag=     4.0000
       N       E                     dE             d eps       ncg     rms          ort
SDA:   1    -0.380495667657E+03    0.11976E+00    0.00000E+00  9828   0.294E+00 0.000E+00
CGA:   2    -0.380591915089E+03   -0.96247E-01   -0.96136E-01  9828   0.110E+00-0.519E-03
CGA:   3    -0.380613258309E+03   -0.21343E-01   -0.21458E-01  9828   0.213E-01 0.330E-03
CGA:   4    -0.380617089637E+03   -0.38313E-02   -0.39282E-02  9828   0.440E-02 0.318E-03
CGA:   5    -0.380618003887E+03   -0.91425E-03   -0.93269E-03  9828   0.110E-02 0.677E-04
CGA:   6    -0.380618306588E+03   -0.30270E-03   -0.28914E-03  9828   0.381E-03-0.642E-04
CGA:   7    -0.380618410020E+03   -0.10343E-03   -0.10015E-03  9828   0.139E-03-0.180E-04
CGA:   8    -0.380618444551E+03   -0.34531E-04   -0.37173E-04  9828   0.459E-04 0.157E-04
CGA:   9    -0.380618454352E+03   -0.98013E-05   -0.12525E-04  9828   0.141E-04 0.139E-04
 110 F= -.38061845E+03 E0= -.38061845E+03  d E =-.302595E-02  mag=     4.0000
