       N       E                     dE             d eps       ncg     rms          ort
DAV:   1     0.242448880721E+04    0.24245E+04   -0.14148E+05  7056   0.152E+03
DAV:   2    -0.218579281081E+03   -0.26431E+04   -0.25469E+04  7056   0.411E+02
DAV:   3    -0.454330471011E+03   -0.23575E+03   -0.22928E+03  7056   0.140E+02
DAV:   4    -0.464954043471E+03   -0.10624E+02   -0.10350E+02  7056   0.316E+01
DAV:   5    -0.465556569781E+03   -0.60253E+00   -0.59468E+00  7056   0.496E+00
SDA:   6    -0.304060383290E+03    0.16150E+03   -0.59468E+00  7056   0.453E+03 0.000E+00
CGA:   7    -0.351954038478E+03   -0.47894E+02   -0.58817E+02  7056   0.468E+02 0.262E+02
CGA:   8    -0.361998448024E+03   -0.10044E+02   -0.10046E+02  7056   0.118E+02-0.119E+00
CGA:   9    -0.365032110135E+03   -0.30337E+01   -0.30299E+01  7056   0.383E+01 0.428E-01
CGA:  10    -0.366005940401E+03   -0.97383E+00   -0.97375E+00  7056   0.136E+01-0.807E-02
CGA:  11    -0.366359962894E+03   -0.35402E+00   -0.35516E+00  7056   0.437E+00-0.190E-01
CGA:  12    -0.366482468983E+03   -0.12251E+00   -0.12299E+00  7056   0.131E+00-0.603E-02
CGA:  13    -0.366518587473E+03   -0.36118E-01   -0.36117E-01  7056   0.390E-01 0.927E-05
CGA:  14    -0.366531668307E+03   -0.13081E-01   -0.13039E-01  7056   0.137E-01 0.348E-03
CGA:  15    -0.366536476578E+03   -0.48083E-02   -0.47443E-02  7056   0.535E-02 0.508E-03
CGA:  16    -0.366538503784E+03   -0.20272E-02   -0.19750E-02  7056   0.200E-02 0.398E-03
CGA:  17    -0.366539366867E+03   -0.86308E-03   -0.87300E-03  7056   0.981E-03-0.583E-04
CGA:  18    -0.366539760353E+03   -0.39349E-03   -0.49543E-03  7056   0.771E-03-0.365E-03
CGA:  19    -0.366539918620E+03   -0.15827E-03   -0.18067E-03  7056   0.398E-03-0.190E-03
CGA:  20    -0.366539988072E+03   -0.69452E-04   -0.70753E-04  7056   0.155E-03 0.526E-04
CGA:  21    -0.366540015906E+03   -0.27833E-04   -0.32688E-04  7056   0.813E-04 0.666E-04
CGA:  22    -0.366540033786E+03   -0.17880E-04   -0.21480E-04  7056   0.431E-04 0.509E-04
CGA:  23    -0.366540053950E+03   -0.20164E-04   -0.19622E-04  7056   0.348E-04 0.268E-05
CGA:  24    -0.366540058908E+03   -0.49572E-05   -0.65400E-05  7056   0.121E-04 0.186E-04
   1 F= -.36654006E+03 E0= -.36654006E+03  d E =-.366540E+03  mag=    12.0000
       N       E                     dE             d eps       ncg     rms          ort
SDA:   1    -0.366551356566E+03   -0.11303E-01    0.00000E+00  7056   0.315E-02 0.000E+00
CGA:   2    -0.366552129470E+03   -0.77290E-03   -0.77357E-03  7056   0.872E-03 0.691E-04
CGA:   3    -0.366552368699E+03   -0.23923E-03   -0.23996E-03  7056   0.269E-03-0.501E-04
CGA:   4    -0.366552415383E+03   -0.46684E-04   -0.46996E-04  7056   0.517E-04 0.431E-05
CGA:   5    -0.366552425013E+03   -0.96306E-05   -0.10181E-04  7056   0.133E-04 0.944E-05
   2 F= -.36655243E+03 E0= -.36655243E+03  d E =-.123661E-01  mag=    12.0000
       N       E                     dE             d eps       ncg     rms          ort
SDA:   1    -0.365270599674E+03    0.12818E+01    0.00000E+00  7056   0.484E+01 0.000E+00
CGA:   2    -0.366490386655E+03   -0.12198E+01   -0.12198E+01  7056   0.137E+01 0.206E-02
CGA:   3    -0.366835073589E+03   -0.34469E+00   -0.34464E+00  7056   0.359E+00-0.601E-02
CGA:   4    -0.366906557324E+03   -0.71484E-01   -0.71469E-01  7056   0.748E-01-0.316E-03
CGA:   5    -0.366923682215E+03   -0.17125E-01   -0.17157E-01  7056   0.208E-01 0.113E-02
CGA:   6    -0.366929997709E+03   -0.63155E-02   -0.63186E-02  7056   0.944E-02-0.776E-04
CGA:   7    -0.366933186774E+03   -0.31891E-02   -0.32541E-02  7056   0.509E-02-0.735E-03
CGA:   8    -0.366934695092E+03   -0.15083E-02   -0.15188E-02  7056   0.188E-02-0.167E-03
CGA:   9    -0.366935243847E+03   -0.54875E-03   -0.54409E-03  7056   0.594E-03 0.139E-03
CGA:  10    -0.366935443943E+03   -0.20010E-03   -0.19685E-03  7056   0.215E-03 0.780E-04
CGA:  11    -0.366935532706E+03   -0.88762E-04   -0.86062E-04  7056   0.959E-04 0.316E-04
CGA:  12    -0.366935575287E+03   -0.42581E-04   -0.41785E-04  7056   0.394E-04 0.754E-05
CGA:  13    -0.366935588031E+03   -0.12744E-04   -0.12573E-04  7056   0.122E-04 0.100E-04
CGA:  14    -0.366935591406E+03   -0.33752E-05   -0.36124E-05  7056   0.438E-05 0.558E-05
   3 F= -.36693559E+03 E0= -.36693559E+03  d E =-.383166E+00  mag=    12.0000
       N       E                     dE             d eps       ncg     rms          ort
SDA:   1    -0.361201346543E+03    0.57342E+01    0.00000E+00  7056   0.184E+02 0.000E+00
CGA:   2    -0.365688725379E+03   -0.44874E+01   -0.44882E+01  7056   0.511E+01-0.722E-02
CGA:   3    -0.366947968974E+03   -0.12592E+01   -0.12589E+01  7056   0.136E+01-0.132E-01
CGA:   4    -0.367217375237E+03   -0.26941E+00   -0.26942E+00  7056   0.278E+00-0.607E-03
CGA:   5    -0.367281649947E+03   -0.64275E-01   -0.64346E-01  7056   0.809E-01 0.208E-02
CGA:   6    -0.367305908901E+03   -0.24259E-01   -0.24245E-01  7056   0.378E-01 0.485E-03
CGA:   7    -0.367318884420E+03   -0.12976E-01   -0.13057E-01  7056   0.199E-01-0.108E-02
CGA:   8    -0.367325207181E+03   -0.63228E-02   -0.63451E-02  7056   0.750E-02-0.389E-03
CGA:   9    -0.367327492566E+03   -0.22854E-02   -0.22769E-02  7056   0.233E-02 0.242E-03
CGA:  10    -0.367328266916E+03   -0.77435E-03   -0.76737E-03  7056   0.806E-03 0.165E-03
CGA:  11    -0.367328597075E+03   -0.33016E-03   -0.32413E-03  7056   0.343E-03 0.621E-04
CGA:  12    -0.367328746135E+03   -0.14906E-03   -0.14984E-03  7056   0.137E-03-0.636E-05
CGA:  13    -0.367328789948E+03   -0.43812E-04   -0.43308E-04  7056   0.361E-04 0.150E-04
CGA:  14    -0.367328802267E+03   -0.12319E-04   -0.12228E-04  7056   0.107E-04 0.648E-05
CGA:  15    -0.367328805445E+03   -0.31779E-05   -0.33127E-05  7056   0.390E-05 0.450E-05
   4 F= -.36732881E+03 E0= -.36732881E+03  d E =-.393214E+00  mag=    12.0000
       N       E                     dE             d eps       ncg     rms          ort
SDA:   1    -0.365001949111E+03    0.23269E+01    0.00000E+00  7056   0.712E+01 0.000E+00
CGA:   2    -0.366776672407E+03   -0.17747E+01   -0.17749E+01  7056   0.215E+01-0.182E-02
CGA:   3    -0.367296066695E+03   -0.51939E+00   -0.51925E+00  7056   0.552E+00-0.257E-02
CGA:   4    -0.367402329371E+03   -0.10626E+00   -0.10626E+00  7056   0.107E+00-0.530E-03
CGA:   5    -0.367427275631E+03   -0.24946E-01   -0.24965E-01  7056   0.315E-01 0.422E-03
CGA:   6    -0.367436536218E+03   -0.92606E-02   -0.92562E-02  7056   0.145E-01 0.383E-03
CGA:   7    -0.367441593004E+03   -0.50568E-02   -0.50610E-02  7056   0.792E-02-0.669E-04
CGA:   8    -0.367444258579E+03   -0.26656E-02   -0.26696E-02  7056   0.320E-02-0.742E-04
CGA:   9    -0.367445263054E+03   -0.10045E-02   -0.10034E-02  7056   0.984E-03 0.360E-04
CGA:  10    -0.367445584538E+03   -0.32148E-03   -0.32069E-03  7056   0.332E-03 0.244E-04
CGA:  11    -0.367445716955E+03   -0.13242E-03   -0.13228E-03  7056   0.142E-03 0.143E-05
CGA:  12    -0.367445777832E+03   -0.60877E-04   -0.64710E-04  7056   0.661E-04-0.241E-04
CGA:  13    -0.367445792712E+03   -0.14880E-04   -0.15135E-04  7056   0.175E-04 0.925E-05
CGA:  14    -0.367445797052E+03   -0.43399E-05   -0.46631E-05  7056   0.526E-05 0.471E-05
   5 F= -.36744580E+03 E0= -.36744580E+03  d E =-.116992E+00  mag=    12.0000
       N       E                     dE             d eps       ncg     rms          ort
SDA:   1    -0.362083387116E+03    0.53624E+01    0.00000E+00  7056   0.143E+02 0.000E+00
CGA:   2    -0.366085433940E+03   -0.40020E+01   -0.40020E+01  7056   0.522E+01-0.954E-02
CGA:   3    -0.367207759584E+03   -0.11223E+01   -0.11224E+01  7056   0.117E+01-0.137E-02
CGA:   4    -0.367428254729E+03   -0.22050E+00   -0.22061E+00  7056   0.213E+00 0.117E-03
CGA:   5    -0.367478521817E+03   -0.50267E-01   -0.50266E-01  7056   0.603E-01-0.588E-04
CGA:   6    -0.367495047030E+03   -0.16525E-01   -0.16526E-01  7056   0.240E-01 0.876E-04
CGA:   7    -0.367502916951E+03   -0.78699E-02   -0.78698E-02  7056   0.124E-01-0.437E-06
CGA:   8    -0.367507261241E+03   -0.43443E-02   -0.43518E-02  7056   0.541E-02-0.116E-03
CGA:   9    -0.367509026711E+03   -0.17655E-02   -0.17691E-02  7056   0.182E-02-0.867E-04
CGA:  10    -0.367509624971E+03   -0.59826E-03   -0.59983E-03  7056   0.642E-03-0.351E-04
CGA:  11    -0.367509870090E+03   -0.24512E-03   -0.24647E-03  7056   0.280E-03-0.137E-04
CGA:  12    -0.367509983426E+03   -0.11334E-03   -0.11473E-03  7056   0.113E-03-0.116E-04
CGA:  13    -0.367510016550E+03   -0.33125E-04   -0.33087E-04  7056   0.289E-04 0.185E-04
CGA:  14    -0.367510027129E+03   -0.10578E-04   -0.10542E-04  7056   0.860E-05 0.385E-05
CGA:  15    -0.367510030292E+03   -0.31634E-05   -0.31315E-05  7056   0.289E-05 0.185E-05
   6 F= -.36751003E+03 E0= -.36751003E+03  d E =-.642332E-01  mag=    12.0000
       N       E                     dE             d eps       ncg     rms          ort
SDA:   1    -0.362465530957E+03    0.50445E+01    0.00000E+00  7056   0.125E+02 0.000E+00
CGA:   2    -0.366388949387E+03   -0.39234E+01   -0.39234E+01  7056   0.487E+01-0.363E-02
CGA:   3    -0.367335729691E+03   -0.94678E+00   -0.94714E+00  7056   0.936E+00-0.188E-02
CGA:   4    -0.367516460782E+03   -0.18073E+00   -0.18079E+00  7056   0.174E+00-0.131E-03
CGA:   5    -0.367557351358E+03   -0.40891E-01   -0.40898E-01  7056   0.460E-01 0.777E-04
CGA:   6    -0.367569204892E+03   -0.11854E-01   -0.11850E-01  7056   0.159E-01-0.112E-03
CGA:   7    -0.367574178383E+03   -0.49735E-02   -0.49772E-02  7056   0.745E-02-0.148E-03
CGA:   8    -0.367576756852E+03   -0.25785E-02   -0.25862E-02  7056   0.327E-02-0.127E-03
CGA:   9    -0.367577824008E+03   -0.10672E-02   -0.10710E-02  7056   0.113E-02-0.960E-04
CGA:  10    -0.367578189778E+03   -0.36577E-03   -0.36701E-03  7056   0.393E-03-0.308E-04
CGA:  11    -0.367578338894E+03   -0.14912E-03   -0.14986E-03  7056   0.184E-03-0.796E-05
CGA:  12    -0.367578412510E+03   -0.73617E-04   -0.72772E-04  7056   0.789E-04 0.818E-05
CGA:  13    -0.367578442526E+03   -0.30016E-04   -0.29568E-04  7056   0.263E-04 0.864E-05
CGA:  14    -0.367578450868E+03   -0.83420E-05   -0.84750E-05  7056   0.759E-05 0.675E-05
   7 F= -.36757845E+03 E0= -.36757845E+03  d E =-.684206E-01  mag=    12.0000
       N       E                     dE             d eps       ncg     rms          ort
SDA:   1    -0.367131773142E+03    0.44667E+00    0.00000E+00  7056   0.125E+01 0.000E+00
CGA:   2    -0.367472601795E+03   -0.34083E+00   -0.34088E+00  7056   0.459E+00 0.414E-03
CGA:   3    -0.367569999888E+03   -0.97398E-01   -0.97524E-01  7056   0.108E+00 0.706E-03
CGA:   4    -0.367591240275E+03   -0.21240E-01   -0.21224E-01  7056   0.203E-01-0.217E-03
CGA:   5    -0.367595917100E+03   -0.46768E-02   -0.46769E-02  7056   0.562E-02 0.317E-05
CGA:   6    -0.367597404928E+03   -0.14878E-02   -0.14893E-02  7056   0.213E-02 0.418E-04
CGA:   7    -0.367598083963E+03   -0.67903E-03   -0.67871E-03  7056   0.996E-03 0.173E-04
CGA:   8    -0.367598431336E+03   -0.34737E-03   -0.34735E-03  7056   0.428E-03-0.225E-07
CGA:   9    -0.367598573569E+03   -0.14223E-03   -0.14240E-03  7056   0.151E-03-0.518E-05
CGA:  10    -0.367598618991E+03   -0.45422E-04   -0.45407E-04  7056   0.480E-04 0.136E-04
CGA:  11    -0.367598636131E+03   -0.17140E-04   -0.16942E-04  7056   0.196E-04 0.934E-05
CGA:  12    -0.367598643693E+03   -0.75625E-05   -0.74652E-05  7056   0.812E-05 0.646E-05
   8 F= -.36759864E+03 E0= -.36759864E+03  d E =-.201928E-01  mag=    12.0000
       N       E                     dE             d eps       ncg     rms          ort
SDA:   1    -0.367186947228E+03    0.41169E+00    0.00000E+00  7056   0.110E+01 0.000E+00
CGA:   2    -0.367516288690E+03   -0.32934E+00   -0.32935E+00  7056   0.425E+00 0.840E-03
CGA:   3    -0.367601708552E+03   -0.85420E-01   -0.85505E-01  7056   0.865E-01 0.344E-03
CGA:   4    -0.367618455226E+03   -0.16747E-01   -0.16714E-01  7056   0.163E-01-0.370E-03
CGA:   5    -0.367622192808E+03   -0.37376E-02   -0.37342E-02  7056   0.428E-02-0.522E-04
CGA:   6    -0.367623266362E+03   -0.10736E-02   -0.10753E-02  7056   0.145E-02 0.441E-04
CGA:   7    -0.367623714968E+03   -0.44861E-03   -0.44801E-03  7056   0.647E-03 0.361E-04
CGA:   8    -0.367623953461E+03   -0.23849E-03   -0.23879E-03  7056   0.298E-03-0.456E-05
CGA:   9    -0.367624055278E+03   -0.10182E-03   -0.10247E-03  7056   0.109E-03-0.125E-04
CGA:  10    -0.367624084420E+03   -0.29142E-04   -0.29343E-04  7056   0.321E-04 0.137E-04
CGA:  11    -0.367624096831E+03   -0.12411E-04   -0.12229E-04  7056   0.152E-04 0.427E-05
CGA:  12    -0.367624102658E+03   -0.58270E-05   -0.56910E-05  7056   0.676E-05 0.426E-05
   9 F= -.36762410E+03 E0= -.36762410E+03  d E =-.254590E-01  mag=    12.0000
       N       E                     dE             d eps       ncg     rms          ort
SDA:   1    -0.364954667881E+03    0.26694E+01    0.00000E+00  7056   0.651E+01 0.000E+00
CGA:   2    -0.367079883877E+03   -0.21252E+01   -0.21251E+01  7056   0.243E+01 0.372E-02
CGA:   3    -0.367537091308E+03   -0.45721E+00   -0.45753E+00  7056   0.453E+00-0.224E-03
CGA:   4    -0.367624798405E+03   -0.87707E-01   -0.87571E-01  7056   0.855E-01-0.163E-02
CGA:   5    -0.367644251402E+03   -0.19453E-01   -0.19444E-01  7056   0.209E-01-0.171E-03
CGA:   6    -0.367649244849E+03   -0.49934E-02   -0.50031E-02  7056   0.624E-02 0.190E-03
CGA:   7    -0.367651132355E+03   -0.18875E-02   -0.18865E-02  7056   0.267E-02 0.698E-04
CGA:   8    -0.367652091142E+03   -0.95879E-03   -0.96213E-03  7056   0.123E-02-0.477E-04
CGA:   9    -0.367652499265E+03   -0.40812E-03   -0.41090E-03  7056   0.425E-03-0.556E-04
CGA:  10    -0.367652623650E+03   -0.12438E-03   -0.12424E-03  7056   0.125E-03 0.107E-04
CGA:  11    -0.367652671726E+03   -0.48076E-04   -0.47938E-04  7056   0.603E-04 0.174E-05
CGA:  12    -0.367652694069E+03   -0.22343E-04   -0.21620E-04  7056   0.282E-04 0.128E-04
CGA:  13    -0.367652706507E+03   -0.12437E-04   -0.12044E-04  7056   0.125E-04 0.751E-05
CGA:  14    -0.367652709878E+03   -0.33711E-05   -0.38242E-05  7056   0.493E-05 0.737E-05
  10 F= -.36765271E+03 E0= -.36765271E+03  d E =-.286072E-01  mag=    12.0000
       N       E                     dE             d eps       ncg     rms          ort
SDA:   1    -0.353425163138E+03    0.14228E+02    0.00000E+00  7056   0.368E+02 0.000E+00
CGA:   2    -0.363570511221E+03   -0.10145E+02   -0.10148E+02  7056   0.159E+02 0.254E-01
CGA:   3    -0.366644013470E+03   -0.30735E+01   -0.30780E+01  7056   0.316E+01 0.952E-02
CGA:   4    -0.367284964757E+03   -0.64095E+00   -0.64089E+00  7056   0.608E+00-0.875E-03
CGA:   5    -0.367420204513E+03   -0.13524E+00   -0.13524E+00  7056   0.163E+00-0.380E-03
CGA:   6    -0.367462325792E+03   -0.42121E-01   -0.42124E-01  7056   0.567E-01 0.200E-04
CGA:   7    -0.367479674855E+03   -0.17349E-01   -0.17352E-01  7056   0.243E-01-0.126E-03
CGA:   8    -0.367487915068E+03   -0.82402E-02   -0.82521E-02  7056   0.979E-02-0.224E-03
CGA:   9    -0.367491085066E+03   -0.31700E-02   -0.31802E-02  7056   0.321E-02-0.254E-03
CGA:  10    -0.367492134676E+03   -0.10496E-02   -0.10556E-02  7056   0.110E-02-0.125E-03
CGA:  11    -0.367492541766E+03   -0.40709E-03   -0.40808E-03  7056   0.504E-03-0.107E-04
CGA:  12    -0.367492733396E+03   -0.19163E-03   -0.18709E-03  7056   0.216E-03 0.580E-04
CGA:  13    -0.367492821435E+03   -0.88039E-04   -0.85975E-04  7056   0.816E-04 0.365E-04
CGA:  14    -0.367492854495E+03   -0.33060E-04   -0.32417E-04  7056   0.277E-04 0.176E-04
CGA:  15    -0.367492865506E+03   -0.11011E-04   -0.10860E-04  7056   0.946E-05 0.854E-05
CGA:  16    -0.367492868629E+03   -0.31226E-05   -0.33266E-05  7056   0.410E-05 0.547E-05
  11 F= -.36749287E+03 E0= -.36749287E+03  d E =0.159841E+00  mag=    12.0000
       N       E                     dE             d eps       ncg     rms          ort
SDA:   1    -0.365999816974E+03    0.14930E+01    0.00000E+00  7056   0.394E+01 0.000E+00
CGA:   2    -0.367286119020E+03   -0.12863E+01   -0.12864E+01  7056   0.132E+01-0.426E-02
CGA:   3    -0.367578823078E+03   -0.29270E+00   -0.29294E+00  7056   0.308E+00 0.170E-02
CGA:   4    -0.367641692263E+03   -0.62869E-01   -0.62865E-01  7056   0.740E-01-0.306E-03
CGA:   5    -0.367659541230E+03   -0.17849E-01   -0.17846E-01  7056   0.220E-01-0.504E-04
CGA:   6    -0.367665742433E+03   -0.62012E-02   -0.62011E-02  7056   0.870E-02-0.127E-04
CGA:   7    -0.367668184969E+03   -0.24425E-02   -0.24426E-02  7056   0.321E-02 0.439E-05
CGA:   8    -0.367669189015E+03   -0.10040E-02   -0.10031E-02  7056   0.101E-02 0.503E-04
CGA:   9    -0.367669509495E+03   -0.32048E-03   -0.32058E-03  7056   0.318E-03-0.552E-05
CGA:  10    -0.367669611200E+03   -0.10171E-03   -0.10195E-03  7056   0.994E-04-0.908E-05
CGA:  11    -0.367669646289E+03   -0.35089E-04   -0.35131E-04  7056   0.406E-04-0.669E-06
CGA:  12    -0.367669662144E+03   -0.15855E-04   -0.15826E-04  7056   0.209E-04 0.319E-06
CGA:  13    -0.367669668815E+03   -0.66708E-05   -0.66460E-05  7056   0.992E-05 0.219E-05
  12 F= -.36766967E+03 E0= -.36766967E+03  d E =-.176800E+00  mag=    12.0000
       N       E                     dE             d eps       ncg     rms          ort
SDA:   1    -0.367647314021E+03    0.22348E-01    0.00000E+00  7056   0.864E-01 0.000E+00
CGA:   2    -0.367672253961E+03   -0.24940E-01   -0.24949E-01  7056   0.343E-01 0.302E-03
CGA:   3    -0.367679092918E+03   -0.68390E-02   -0.68388E-02  7056   0.767E-02-0.395E-04
CGA:   4    -0.367680695762E+03   -0.16028E-02   -0.15894E-02  7056   0.155E-02-0.137E-03
CGA:   5    -0.367681049154E+03   -0.35339E-03   -0.35221E-03  7056   0.423E-03-0.162E-04
CGA:   6    -0.367681151336E+03   -0.10218E-03   -0.10356E-03  7056   0.135E-03 0.261E-04
CGA:   7    -0.367681190172E+03   -0.38836E-04   -0.39293E-04  7056   0.494E-04 0.190E-04
CGA:   8    -0.367681211490E+03   -0.21317E-04   -0.21548E-04  7056   0.261E-04-0.270E-05
CGA:   9    -0.367681219458E+03   -0.79686E-05   -0.80171E-05  7056   0.909E-05-0.203E-05
  13 F= -.36768122E+03 E0= -.36768122E+03  d E =-.115506E-01  mag=    12.0000
       N       E                     dE             d eps       ncg     rms          ort
SDA:   1    -0.367506272024E+03    0.17494E+00    0.00000E+00  7056   0.495E+00 0.000E+00
CGA:   2    -0.367647626311E+03   -0.14135E+00   -0.14136E+00  7056   0.206E+00 0.478E-03
CGA:   3    -0.367687138129E+03   -0.39512E-01   -0.39545E-01  7056   0.422E-01 0.661E-04
CGA:   4    -0.367695874120E+03   -0.87360E-02   -0.87143E-02  7056   0.816E-02-0.271E-03
CGA:   5    -0.367697690135E+03   -0.18160E-02   -0.18126E-02  7056   0.217E-02-0.526E-04
CGA:   6    -0.367698219703E+03   -0.52957E-03   -0.53181E-03  7056   0.698E-03 0.557E-04
CGA:   7    -0.367698425613E+03   -0.20591E-03   -0.20576E-03  7056   0.272E-03 0.540E-04
CGA:   8    -0.367698530675E+03   -0.10506E-03   -0.10493E-03  7056   0.125E-03 0.169E-05
CGA:   9    -0.367698573421E+03   -0.42747E-04   -0.43149E-04  7056   0.458E-04-0.736E-05
CGA:  10    -0.367698587167E+03   -0.13746E-04   -0.13762E-04  7056   0.150E-04-0.576E-06
CGA:  11    -0.367698593230E+03   -0.60634E-05   -0.64836E-05  7056   0.100E-04-0.287E-05
CGA:  12    -0.367698577971E+03    0.15259E-04   -0.11486E-04  7056   0.986E-04-0.239E-04
CGA:  13    -0.367698595945E+03   -0.17974E-04   -0.19121E-04  7056   0.127E-04 0.705E-05
CGA:  14    -0.367698598964E+03   -0.30187E-05   -0.33546E-05  7056   0.346E-05 0.330E-05
  14 F= -.36769860E+03 E0= -.36769860E+03  d E =-.173795E-01  mag=    12.0000
       N       E                     dE             d eps       ncg     rms          ort
SDA:   1    -0.367684660310E+03    0.13936E-01    0.00000E+00  7056   0.464E-01 0.000E+00
CGA:   2    -0.367697886963E+03   -0.13227E-01   -0.13233E-01  7056   0.205E-01 0.872E-04
CGA:   3    -0.367701733455E+03   -0.38465E-02   -0.38543E-02  7056   0.378E-02 0.282E-04
CGA:   4    -0.367702513965E+03   -0.78051E-03   -0.77637E-03  7056   0.728E-03-0.355E-04
CGA:   5    -0.367702671334E+03   -0.15737E-03   -0.15684E-03  7056   0.177E-03-0.520E-05
CGA:   6    -0.367702710815E+03   -0.39481E-04   -0.40371E-04  7056   0.486E-04 0.101E-04
CGA:   7    -0.367702723246E+03   -0.12431E-04   -0.12978E-04  7056   0.169E-04 0.917E-05
CGA:   8    -0.367702729397E+03   -0.61512E-05   -0.61618E-05  7056   0.773E-05 0.368E-05
  15 F= -.36770273E+03 E0= -.36770273E+03  d E =-.413043E-02  mag=    12.0000
       N       E                     dE             d eps       ncg     rms          ort
SDA:   1    -0.367444649360E+03    0.25807E+00    0.00000E+00  7056   0.681E+00 0.000E+00
CGA:   2    -0.367643437598E+03   -0.19879E+00   -0.19879E+00  7056   0.301E+00-0.153E-03
CGA:   3    -0.367699036875E+03   -0.55599E-01   -0.55673E-01  7056   0.542E-01 0.220E-03
CGA:   4    -0.367710130449E+03   -0.11094E-01   -0.11093E-01  7056   0.103E-01-0.377E-04
CGA:   5    -0.367712401925E+03   -0.22715E-02   -0.22690E-02  7056   0.257E-02-0.337E-04
CGA:   6    -0.367713024672E+03   -0.62275E-03   -0.62363E-03  7056   0.774E-03 0.168E-04
CGA:   7    -0.367713250461E+03   -0.22579E-03   -0.22587E-03  7056   0.305E-03 0.337E-04
CGA:   8    -0.367713359348E+03   -0.10889E-03   -0.10819E-03  7056   0.132E-03 0.146E-04
CGA:   9    -0.367713407234E+03   -0.47886E-04   -0.48049E-04  7056   0.493E-04-0.312E-05
CGA:  10    -0.367713424392E+03   -0.17157E-04   -0.17491E-04  7056   0.196E-04-0.502E-05
CGA:  11    -0.367713430538E+03   -0.61462E-05   -0.61440E-05  7056   0.856E-05 0.375E-07
  16 F= -.36771343E+03 E0= -.36771343E+03  d E =-.107011E-01  mag=    12.0000
       N       E                     dE             d eps       ncg     rms          ort
SDA:   1    -0.367503087901E+03    0.21034E+00    0.00000E+00  7056   0.520E+00 0.000E+00
CGA:   2    -0.367671771514E+03   -0.16868E+00   -0.16869E+00  7056   0.208E+00-0.376E-03
CGA:   3    -0.367709077868E+03   -0.37306E-01   -0.37367E-01  7056   0.368E-01 0.200E-03
CGA:   4    -0.367716494124E+03   -0.74163E-02   -0.74284E-02  7056   0.704E-02 0.973E-04
CGA:   5    -0.367718072712E+03   -0.15786E-02   -0.15773E-02  7056   0.173E-02-0.176E-04
CGA:   6    -0.367718487827E+03   -0.41512E-03   -0.41432E-03  7056   0.509E-03-0.142E-04
CGA:   7    -0.367718633917E+03   -0.14609E-03   -0.14613E-03  7056   0.198E-03 0.752E-05
CGA:   8    -0.367718698737E+03   -0.64821E-04   -0.64407E-04  7056   0.771E-04 0.164E-04
CGA:   9    -0.367718726592E+03   -0.27855E-04   -0.27754E-04  7056   0.270E-04 0.278E-05
CGA:  10    -0.367718737566E+03   -0.10973E-04   -0.11941E-04  7056   0.157E-04-0.749E-05
CGA:  11    -0.367718739979E+03   -0.24136E-05   -0.26099E-05  7056   0.623E-05 0.263E-05
  17 F= -.36771874E+03 E0= -.36771874E+03  d E =-.530944E-02  mag=    12.0000
       N       E                     dE             d eps       ncg     rms          ort
SDA:   1    -0.367144847378E+03    0.57389E+00    0.00000E+00  7056   0.136E+01 0.000E+00
CGA:   2    -0.367621376661E+03   -0.47653E+00   -0.47653E+00  7056   0.447E+00-0.149E-03
CGA:   3    -0.367704634383E+03   -0.83258E-01   -0.83333E-01  7056   0.809E-01 0.229E-03
CGA:   4    -0.367720659661E+03   -0.16025E-01   -0.16023E-01  7056   0.163E-01-0.644E-04
CGA:   5    -0.367724356858E+03   -0.36972E-02   -0.36947E-02  7056   0.388E-02-0.420E-04
CGA:   6    -0.367725286210E+03   -0.92935E-03   -0.93034E-03  7056   0.115E-02 0.207E-04
CGA:   7    -0.367725626133E+03   -0.33992E-03   -0.33977E-03  7056   0.483E-03 0.166E-04
CGA:   8    -0.367725788122E+03   -0.16199E-03   -0.16072E-03  7056   0.197E-03 0.292E-04
CGA:   9    -0.367725857405E+03   -0.69283E-04   -0.69159E-04  7056   0.696E-04 0.274E-05
CGA:  10    -0.367725883607E+03   -0.26202E-04   -0.27644E-04  7056   0.333E-04-0.140E-04
CGA:  11    -0.367725889634E+03   -0.60271E-05   -0.63922E-05  7056   0.122E-04 0.680E-05
  18 F= -.36772589E+03 E0= -.36772589E+03  d E =-.714966E-02  mag=    12.0000
       N       E                     dE             d eps       ncg     rms          ort
SDA:   1    -0.364016766386E+03    0.37091E+01    0.00000E+00  7056   0.870E+01 0.000E+00
CGA:   2    -0.367071810162E+03   -0.30550E+01   -0.30550E+01  7056   0.280E+01-0.361E-03
CGA:   3    -0.367610735123E+03   -0.53892E+00   -0.53918E+00  7056   0.493E+00 0.868E-04
CGA:   4    -0.367707683049E+03   -0.96948E-01   -0.96894E-01  7056   0.104E+00-0.942E-03
CGA:   5    -0.367731248722E+03   -0.23566E-01   -0.23558E-01  7056   0.255E-01-0.155E-03
CGA:   6    -0.367737524387E+03   -0.62757E-02   -0.62815E-02  7056   0.811E-02 0.169E-03
CGA:   7    -0.367740013180E+03   -0.24888E-02   -0.24879E-02  7056   0.379E-02 0.334E-04
CGA:   8    -0.367741343543E+03   -0.13304E-02   -0.13309E-02  7056   0.169E-02-0.659E-05
CGA:   9    -0.367741909155E+03   -0.56561E-03   -0.56937E-03  7056   0.602E-03-0.690E-04
CGA:  10    -0.367742105128E+03   -0.19597E-03   -0.19896E-03  7056   0.220E-03-0.508E-04
CGA:  11    -0.367742173782E+03   -0.68655E-04   -0.67917E-04  7056   0.895E-04 0.148E-04
CGA:  12    -0.367742210989E+03   -0.37207E-04   -0.36147E-04  7056   0.466E-04 0.121E-04
CGA:  13    -0.367742226354E+03   -0.15365E-04   -0.15427E-04  7056   0.179E-04 0.179E-04
CGA:  14    -0.367742233276E+03   -0.69213E-05   -0.70103E-05  7056   0.679E-05 0.798E-05
  19 F= -.36774223E+03 E0= -.36774223E+03  d E =-.163436E-01  mag=    12.0000
       N       E                     dE             d eps       ncg     rms          ort
SDA:   1    -0.350310863169E+03    0.17431E+02    0.00000E+00  7056   0.415E+02 0.000E+00
CGA:   2    -0.364362454681E+03   -0.14052E+02   -0.14051E+02  7056   0.142E+02-0.639E-02
CGA:   3    -0.367081852602E+03   -0.27194E+01   -0.27225E+01  7056   0.258E+01 0.436E-02
CGA:   4    -0.367582667310E+03   -0.50081E+00   -0.50089E+00  7056   0.539E+00-0.170E-02
CGA:   5    -0.367707340337E+03   -0.12467E+00   -0.12464E+00  7056   0.143E+00-0.709E-03
CGA:   6    -0.367743621291E+03   -0.36281E-01   -0.36285E-01  7056   0.488E-01 0.314E-04
CGA:   7    -0.367758694752E+03   -0.15073E-01   -0.15077E-01  7056   0.230E-01-0.141E-03
CGA:   8    -0.367766647572E+03   -0.79528E-02   -0.79756E-02  7056   0.973E-02-0.372E-03
CGA:   9    -0.367769758091E+03   -0.31105E-02   -0.31247E-02  7056   0.321E-02-0.372E-03
CGA:  10    -0.367770778899E+03   -0.10208E-02   -0.10279E-02  7056   0.110E-02-0.168E-03
CGA:  11    -0.367771169411E+03   -0.39051E-03   -0.38841E-03  7056   0.493E-03 0.253E-04
CGA:  12    -0.367771379843E+03   -0.21043E-03   -0.20371E-03  7056   0.240E-03 0.624E-04
CGA:  13    -0.367771476121E+03   -0.96278E-04   -0.93436E-04  7056   0.889E-04 0.639E-04
CGA:  14    -0.367771518316E+03   -0.42195E-04   -0.41148E-04  7056   0.340E-04 0.169E-04
CGA:  15    -0.367771529055E+03   -0.10739E-04   -0.11216E-04  7056   0.127E-04 0.159E-04
CGA:  16    -0.367771535771E+03   -0.67164E-05   -0.65182E-05  7056   0.714E-05 0.451E-05
  20 F= -.36777154E+03 E0= -.36777154E+03  d E =-.293025E-01  mag=    12.0000
       N       E                     dE             d eps       ncg     rms          ort
SDA:   1    -0.366995883871E+03    0.77565E+00    0.00000E+00  7056   0.211E+01 0.000E+00
CGA:   2    -0.367539933747E+03   -0.54405E+00   -0.54416E+00  7056   0.103E+01-0.221E-03
CGA:   3    -0.367737081626E+03   -0.19715E+00   -0.19731E+00  7056   0.179E+00-0.334E-03
CGA:   4    -0.367772553607E+03   -0.35472E-01   -0.35460E-01  7056   0.341E-01-0.172E-03
CGA:   5    -0.367779817230E+03   -0.72636E-02   -0.72585E-02  7056   0.812E-02-0.751E-04
CGA:   6    -0.367781799758E+03   -0.19825E-02   -0.19805E-02  7056   0.243E-02-0.406E-04
CGA:   7    -0.367782501624E+03   -0.70187E-03   -0.70201E-03  7056   0.981E-03 0.303E-04
CGA:   8    -0.367782847577E+03   -0.34595E-03   -0.34494E-03  7056   0.444E-03 0.189E-04
CGA:   9    -0.367783006975E+03   -0.15940E-03   -0.16057E-03  7056   0.175E-03-0.204E-04
CGA:  10    -0.367783062251E+03   -0.55276E-04   -0.55354E-04  7056   0.565E-04-0.254E-05
CGA:  11    -0.367783082337E+03   -0.20086E-04   -0.20024E-04  7056   0.240E-04 0.104E-05
CGA:  12    -0.367783088391E+03   -0.60541E-05   -0.64389E-05  7056   0.964E-05 0.941E-05
  21 F= -.36778309E+03 E0= -.36778309E+03  d E =-.115526E-01  mag=    12.0000
       N       E                     dE             d eps       ncg     rms          ort
SDA:   1    -0.367359719288E+03    0.42336E+00    0.00000E+00  7056   0.998E+00 0.000E+00
CGA:   2    -0.367707077684E+03   -0.34736E+00   -0.34738E+00  7056   0.328E+00-0.584E-03
CGA:   3    -0.367770621116E+03   -0.63543E-01   -0.63554E-01  7056   0.598E-01-0.160E-03
CGA:   4    -0.367782336540E+03   -0.11715E-01   -0.11720E-01  7056   0.123E-01 0.983E-05
CGA:   5    -0.367785152177E+03   -0.28156E-02   -0.28156E-02  7056   0.306E-02-0.232E-05
CGA:   6    -0.367785921750E+03   -0.76957E-03   -0.76806E-03  7056   0.996E-03-0.414E-04
CGA:   7    -0.367786222397E+03   -0.30065E-03   -0.30185E-03  7056   0.461E-03-0.587E-04
CGA:   8    -0.367786376937E+03   -0.15454E-03   -0.15943E-03  7056   0.220E-03-0.610E-04
CGA:   9    -0.367786435778E+03   -0.58841E-04   -0.59139E-04  7056   0.686E-04-0.164E-04
CGA:  10    -0.367786452967E+03   -0.17189E-04   -0.17285E-04  7056   0.185E-04 0.472E-05
CGA:  11    -0.367786459836E+03   -0.68690E-05   -0.68205E-05  7056   0.866E-05 0.897E-06
  22 F= -.36778646E+03 E0= -.36778646E+03  d E =-.337144E-02  mag=    12.0000
       N       E                     dE             d eps       ncg     rms          ort
SDA:   1    -0.367474123053E+03    0.31233E+00    0.00000E+00  7056   0.752E+00 0.000E+00
CGA:   2    -0.367723535177E+03   -0.24941E+00   -0.24942E+00  7056   0.300E+00-0.470E-03
CGA:   3    -0.367777139930E+03   -0.53605E-01   -0.53687E-01  7056   0.512E-01 0.211E-03
CGA:   4    -0.367787224608E+03   -0.10085E-01   -0.10084E-01  7056   0.986E-02-0.369E-04
CGA:   5    -0.367789455113E+03   -0.22305E-02   -0.22282E-02  7056   0.244E-02-0.379E-04
CGA:   6    -0.367790037361E+03   -0.58225E-03   -0.58261E-03  7056   0.716E-03 0.638E-05
CGA:   7    -0.367790246655E+03   -0.20929E-03   -0.20923E-03  7056   0.297E-03 0.209E-04
CGA:   8    -0.367790351371E+03   -0.10472E-03   -0.10369E-03  7056   0.127E-03 0.200E-04
CGA:   9    -0.367790398838E+03   -0.47466E-04   -0.47472E-04  7056   0.483E-04-0.108E-06
CGA:  10    -0.367790416613E+03   -0.17776E-04   -0.18432E-04  7056   0.205E-04-0.750E-05
CGA:  11    -0.367790421715E+03   -0.51014E-05   -0.51105E-05  7056   0.708E-05 0.252E-05
  23 F= -.36779042E+03 E0= -.36779042E+03  d E =-.396188E-02  mag=    12.0000
       N       E                     dE             d eps       ncg     rms          ort
SDA:   1    -0.356051577631E+03    0.11739E+02    0.00000E+00  7056   0.280E+02 0.000E+00
CGA:   2    -0.365245457814E+03   -0.91939E+01   -0.91937E+01  7056   0.117E+02-0.129E-01
CGA:   3    -0.367282956321E+03   -0.20375E+01   -0.20416E+01  7056   0.191E+01 0.810E-02
CGA:   4    -0.367666769530E+03   -0.38381E+00   -0.38385E+00  7056   0.384E+00-0.971E-03
CGA:   5    -0.367754268313E+03   -0.87499E-01   -0.87469E-01  7056   0.994E-01-0.728E-03
CGA:   6    -0.367778401369E+03   -0.24133E-01   -0.24136E-01  7056   0.309E-01 0.229E-04
CGA:   7    -0.367787807339E+03   -0.94060E-02   -0.94050E-02  7056   0.135E-01 0.333E-04
CGA:   8    -0.367792541245E+03   -0.47339E-02   -0.47509E-02  7056   0.581E-02-0.246E-03
CGA:   9    -0.367794431036E+03   -0.18898E-02   -0.19032E-02  7056   0.191E-02-0.287E-03
CGA:  10    -0.367795033868E+03   -0.60283E-03   -0.60918E-03  7056   0.622E-03-0.139E-03
CGA:  11    -0.367795242617E+03   -0.20875E-03   -0.20838E-03  7056   0.263E-03 0.478E-05
CGA:  12    -0.367795355175E+03   -0.11256E-03   -0.11024E-03  7056   0.141E-03 0.188E-04
CGA:  13    -0.367795407678E+03   -0.52503E-04   -0.51109E-04  7056   0.551E-04 0.360E-04
CGA:  14    -0.367795438440E+03   -0.30762E-04   -0.31839E-04  7056   0.337E-04-0.696E-05
CGA:  15    -0.367795444681E+03   -0.62411E-05   -0.69930E-05  7056   0.138E-04 0.102E-04
  24 F= -.36779544E+03 E0= -.36779544E+03  d E =-.502297E-02  mag=    12.0000
       N       E                     dE             d eps       ncg     rms          ort
SDA:   1    -0.362069633905E+03    0.57258E+01    0.00000E+00  7056   0.136E+02 0.000E+00
CGA:   2    -0.366552249839E+03   -0.44826E+01   -0.44823E+01  7056   0.576E+01 0.140E-02
CGA:   3    -0.367546894322E+03   -0.99464E+00   -0.99645E+00  7056   0.940E+00 0.183E-02
CGA:   4    -0.367737030128E+03   -0.19014E+00   -0.19006E+00  7056   0.189E+00-0.123E-02
CGA:   5    -0.367779360686E+03   -0.42331E-01   -0.42289E-01  7056   0.476E-01-0.682E-03
CGA:   6    -0.367790676901E+03   -0.11316E-01   -0.11325E-01  7056   0.140E-01 0.140E-03
CGA:   7    -0.367794820681E+03   -0.41438E-02   -0.41423E-02  7056   0.569E-02 0.233E-03
CGA:   8    -0.367796855132E+03   -0.20345E-02   -0.20408E-02  7056   0.247E-02-0.100E-03
CGA:   9    -0.367797680438E+03   -0.82531E-03   -0.83435E-03  7056   0.837E-03-0.175E-03
CGA:  10    -0.367797934676E+03   -0.25424E-03   -0.25664E-03  7056   0.254E-03-0.680E-04
CGA:  11    -0.367798020755E+03   -0.86079E-04   -0.87202E-04  7056   0.114E-03-0.146E-04
CGA:  12    -0.367798070038E+03   -0.49283E-04   -0.51193E-04  7056   0.838E-04-0.111E-04
CGA:  13    -0.367798097927E+03   -0.27889E-04   -0.27588E-04  7056   0.401E-04 0.524E-05
CGA:  14    -0.367798113547E+03   -0.15619E-04   -0.15611E-04  7056   0.158E-04 0.112E-06
CGA:  15    -0.367798120403E+03   -0.68562E-05   -0.72983E-05  7056   0.806E-05-0.309E-05
  25 F= -.36779812E+03 E0= -.36779812E+03  d E =-.267572E-02  mag=    12.0000
       N       E                     dE             d eps       ncg     rms          ort
SDA:   1    -0.363766250349E+03    0.40319E+01    0.00000E+00  7056   0.971E+01 0.000E+00
CGA:   2    -0.366858565186E+03   -0.30923E+01   -0.30923E+01  7056   0.428E+01-0.745E-02
CGA:   3    -0.367614509243E+03   -0.75594E+00   -0.75723E+00  7056   0.711E+00-0.148E-02
CGA:   4    -0.367755831416E+03   -0.14132E+00   -0.14157E+00  7056   0.136E+00 0.183E-02
CGA:   5    -0.367786376717E+03   -0.30545E-01   -0.30590E-01  7056   0.346E-01 0.450E-03
CGA:   6    -0.367795014537E+03   -0.86378E-02   -0.85947E-02  7056   0.107E-01-0.693E-03
CGA:   7    -0.367798248020E+03   -0.32335E-02   -0.32345E-02  7056   0.477E-02-0.630E-03
CGA:   8    -0.367799806022E+03   -0.15580E-02   -0.15674E-02  7056   0.202E-02-0.227E-03
CGA:   9    -0.367800424325E+03   -0.61830E-03   -0.61883E-03  7056   0.640E-03-0.441E-04
CGA:  10    -0.367800628674E+03   -0.20435E-03   -0.20459E-03  7056   0.201E-03-0.144E-04
CGA:  11    -0.367800704646E+03   -0.75973E-04   -0.76650E-04  7056   0.974E-04-0.873E-05
CGA:  12    -0.367800733446E+03   -0.28799E-04   -0.28917E-04  7056   0.407E-04 0.257E-04
CGA:  13    -0.367800749929E+03   -0.16483E-04   -0.16420E-04  7056   0.185E-04 0.131E-04
CGA:  14    -0.367800757279E+03   -0.73492E-05   -0.74363E-05  7056   0.789E-05 0.835E-05
  26 F= -.36780076E+03 E0= -.36780076E+03  d E =-.263688E-02  mag=    12.0000
       N       E                     dE             d eps       ncg     rms          ort
SDA:   1    -0.367515975329E+03    0.28477E+00    0.00000E+00  7056   0.755E+00 0.000E+00
CGA:   2    -0.367716771590E+03   -0.20080E+00   -0.20084E+00  7056   0.382E+00 0.141E-03
CGA:   3    -0.367790165701E+03   -0.73394E-01   -0.73408E-01  7056   0.673E-01-0.637E-03
CGA:   4    -0.367803643159E+03   -0.13477E-01   -0.13494E-01  7056   0.133E-01 0.135E-03
CGA:   5    -0.367806607007E+03   -0.29638E-02   -0.29775E-02  7056   0.342E-02 0.178E-03
CGA:   6    -0.367807478119E+03   -0.87111E-03   -0.87040E-03  7056   0.115E-02-0.181E-04
CGA:   7    -0.367807835949E+03   -0.35783E-03   -0.36027E-03  7056   0.493E-03-0.986E-04
CGA:   8    -0.367807985095E+03   -0.14915E-03   -0.15029E-03  7056   0.183E-03-0.282E-04
CGA:   9    -0.367808032368E+03   -0.47273E-04   -0.47492E-04  7056   0.468E-04 0.112E-04
CGA:  10    -0.367808046098E+03   -0.13730E-04   -0.13825E-04  7056   0.125E-04 0.615E-05
CGA:  11    -0.367808050660E+03   -0.45624E-05   -0.45293E-05  7056   0.489E-05 0.122E-05
  27 F= -.36780805E+03 E0= -.36780805E+03  d E =-.729338E-02  mag=    12.0000
       N       E                     dE             d eps       ncg     rms          ort
SDA:   1    -0.367471259178E+03    0.33679E+00    0.00000E+00  7056   0.814E+00 0.000E+00
CGA:   2    -0.367734237440E+03   -0.26298E+00   -0.26295E+00  7056   0.356E+00 0.462E-03
CGA:   3    -0.367795799021E+03   -0.61562E-01   -0.61709E-01  7056   0.578E-01 0.516E-03
CGA:   4    -0.367807580949E+03   -0.11782E-01   -0.11737E-01  7056   0.115E-01-0.528E-03
CGA:   5    -0.367810135522E+03   -0.25546E-02   -0.25428E-02  7056   0.288E-02-0.189E-03
CGA:   6    -0.367810767331E+03   -0.63181E-03   -0.63849E-03  7056   0.750E-03 0.112E-03
CGA:   7    -0.367810965661E+03   -0.19833E-03   -0.20093E-03  7056   0.263E-03 0.110E-03
CGA:   8    -0.367811070942E+03   -0.10528E-03   -0.10383E-03  7056   0.128E-03 0.227E-04
CGA:   9    -0.367811122582E+03   -0.51639E-04   -0.53413E-04  7056   0.613E-04-0.177E-04
CGA:  10    -0.367811137997E+03   -0.15415E-04   -0.15423E-04  7056   0.174E-04-0.223E-05
CGA:  11    -0.367811143149E+03   -0.51524E-05   -0.51404E-05  7056   0.689E-05 0.666E-06
CGA:  12    -0.367811114219E+03    0.28930E-04   -0.15682E-04  7056   0.138E-03-0.265E-04
CGA:  13    -0.367811147498E+03   -0.33279E-04   -0.33824E-04  7056   0.186E-04 0.189E-05
CGA:  14    -0.367811152007E+03   -0.45090E-05   -0.50401E-05  7056   0.525E-05 0.215E-05
  28 F= -.36781115E+03 E0= -.36781115E+03  d E =-.310135E-02  mag=    12.0000
       N       E                     dE             d eps       ncg     rms          ort
SDA:   1    -0.367441475308E+03    0.36967E+00    0.00000E+00  7056   0.902E+00 0.000E+00
CGA:   2    -0.367725793889E+03   -0.28432E+00   -0.28455E+00  7056   0.412E+00 0.717E-03
CGA:   3    -0.367797922360E+03   -0.72128E-01   -0.72143E-01  7056   0.646E-01-0.641E-03
CGA:   4    -0.367810945324E+03   -0.13023E-01   -0.12951E-01  7056   0.128E-01-0.299E-03
CGA:   5    -0.367813783103E+03   -0.28378E-02   -0.28275E-02  7056   0.314E-02-0.501E-04
CGA:   6    -0.367814500091E+03   -0.71699E-03   -0.72815E-03  7056   0.880E-03 0.523E-04
CGA:   7    -0.367814746517E+03   -0.24643E-03   -0.25440E-03  7056   0.351E-03 0.541E-04
CGA:   8    -0.367814881005E+03   -0.13449E-03   -0.13468E-03  7056   0.171E-03 0.300E-05
CGA:   9    -0.367814945465E+03   -0.64459E-04   -0.63653E-04  7056   0.697E-04-0.154E-04
CGA:  10    -0.367814965688E+03   -0.20224E-04   -0.19991E-04  7056   0.211E-04-0.228E-05
CGA:  11    -0.367814975313E+03   -0.96250E-05   -0.10536E-04  7056   0.199E-04-0.896E-05
CGA:  12    -0.367814975805E+03   -0.49196E-06   -0.10072E-04  7056   0.521E-04-0.209E-04
CGA:  13    -0.367814986979E+03   -0.11173E-04   -0.11699E-04  7056   0.116E-04 0.240E-05
CGA:  14    -0.367814988404E+03   -0.14252E-05   -0.24071E-05  7056   0.296E-05 0.422E-05
  29 F= -.36781499E+03 E0= -.36781499E+03  d E =-.383640E-02  mag=    12.0000
       N       E                     dE             d eps       ncg     rms          ort
SDA:   1    -0.343341587781E+03    0.24473E+02    0.00000E+00  7056   0.590E+02 0.000E+00
CGA:   2    -0.362136811747E+03   -0.18795E+02   -0.18807E+02  7056   0.262E+02 0.589E-02
CGA:   3    -0.366723231048E+03   -0.45864E+01   -0.46103E+01  7056   0.402E+01 0.789E-01
CGA:   4    -0.367540095314E+03   -0.81686E+00   -0.81714E+00  7056   0.836E+00 0.101E-02
CGA:   5    -0.367728285128E+03   -0.18819E+00   -0.18822E+00  7056   0.215E+00-0.286E-03
CGA:   6    -0.367780893581E+03   -0.52608E-01   -0.52548E-01  7056   0.679E-01-0.602E-03
CGA:   7    -0.367801877983E+03   -0.20984E-01   -0.20958E-01  7056   0.306E-01-0.471E-03
CGA:   8    -0.367812445726E+03   -0.10568E-01   -0.10557E-01  7056   0.130E-01-0.603E-03
CGA:   9    -0.367816708175E+03   -0.42624E-02   -0.42459E-02  7056   0.423E-02-0.513E-03
CGA:  10    -0.367818057291E+03   -0.13491E-02   -0.13420E-02  7056   0.138E-02-0.213E-03
CGA:  11    -0.367818584942E+03   -0.52765E-03   -0.53263E-03  7056   0.729E-03-0.112E-03
CGA:  12    -0.367818871617E+03   -0.28667E-03   -0.28563E-03  7056   0.400E-03 0.157E-04
CGA:  13    -0.367819037359E+03   -0.16574E-03   -0.16578E-03  7056   0.201E-03-0.119E-05
CGA:  14    -0.367819097866E+03   -0.60506E-04   -0.61876E-04  7056   0.691E-04 0.221E-04
CGA:  15    -0.367819133336E+03   -0.35470E-04   -0.42778E-04  7056   0.687E-04-0.381E-04
CGA:  16    -0.367819150613E+03   -0.17277E-04   -0.17861E-04  7056   0.109E-04 0.501E-05
CGA:  17    -0.367819161472E+03   -0.10859E-04    0.83134E-05  7056   0.708E-05 0.602E-06
CGA:  18    -0.367819169100E+03   -0.76282E-05    0.36366E-05  7056   0.333E-05 0.295E-05
  30 F= -.36781917E+03 E0= -.36781917E+03  d E =-.418070E-02  mag=    12.0000
       N       E                     dE             d eps       ncg     rms          ort
SDA:   1    -0.340317236134E+03    0.27502E+02    0.00000E+00  7056   0.656E+02 0.000E+00
CGA:   2    -0.362133211694E+03   -0.21816E+02   -0.21817E+02  7056   0.254E+02-0.339E-01
CGA:   3    -0.366625899915E+03   -0.44927E+01   -0.45116E+01  7056   0.440E+01 0.352E-01
CGA:   4    -0.367513383229E+03   -0.88748E+00   -0.88831E+00  7056   0.894E+00 0.176E-02
CGA:   5    -0.367717391519E+03   -0.20401E+00   -0.20395E+00  7056   0.235E+00-0.862E-03
CGA:   6    -0.367775671587E+03   -0.58280E-01   -0.58201E-01  7056   0.759E-01-0.101E-02
CGA:   7    -0.367798917954E+03   -0.23246E-01   -0.23223E-01  7056   0.335E-01-0.749E-03
CGA:   8    -0.367810281598E+03   -0.11364E-01   -0.11367E-01  7056   0.136E-01-0.658E-03
CGA:   9    -0.367814658288E+03   -0.43767E-02   -0.43710E-02  7056   0.435E-02-0.497E-03
CGA:  10    -0.367816062120E+03   -0.14038E-02   -0.14030E-02  7056   0.146E-02-0.326E-03
CGA:  11    -0.367816588412E+03   -0.52629E-03   -0.53222E-03  7056   0.735E-03-0.106E-03
CGA:  12    -0.367816883515E+03   -0.29510E-03   -0.29607E-03  7056   0.441E-03-0.108E-04
CGA:  13    -0.367817056269E+03   -0.17275E-03   -0.17211E-03  7056   0.211E-03 0.133E-04
CGA:  14    -0.367817147525E+03   -0.91257E-04   -0.94092E-04  7056   0.110E-03-0.333E-04
CGA:  15    -0.367817186545E+03   -0.39020E-04   -0.42234E-04  7056   0.613E-04-0.303E-04
CGA:  16    -0.367817188995E+03   -0.24497E-05   -0.38390E-04  7056   0.172E-03-0.704E-04
CGA:  17    -0.367817227618E+03   -0.38623E-04   -0.38503E-04  7056   0.274E-04-0.515E-06
CGA:  18    -0.367817238329E+03   -0.10711E-04   -0.10813E-04  7056   0.106E-04-0.487E-05
CGA:  19    -0.367817243206E+03   -0.48773E-05   -0.52257E-05  7056   0.472E-05-0.154E-05
  31 F= -.36781724E+03 E0= -.36781724E+03  d E =0.192589E-02  mag=    12.0000
       N       E                     dE             d eps       ncg     rms          ort
SDA:   1    -0.354932762701E+03    0.12884E+02    0.00000E+00  7056   0.335E+02 0.000E+00
CGA:   2    -0.363788573608E+03   -0.88558E+01   -0.88694E+01  7056   0.177E+02-0.269E-02
CGA:   3    -0.367146131382E+03   -0.33576E+01   -0.33712E+01  7056   0.260E+01 0.377E-01
CGA:   4    -0.367653456870E+03   -0.50733E+00   -0.50730E+00  7056   0.519E+00 0.513E-03
CGA:   5    -0.367768648437E+03   -0.11519E+00   -0.11519E+00  7056   0.132E+00-0.350E-03
CGA:   6    -0.367799957398E+03   -0.31309E-01   -0.31321E-01  7056   0.386E-01 0.412E-04
CGA:   7    -0.367811549189E+03   -0.11592E-01   -0.11579E-01  7056   0.165E-01-0.268E-03
CGA:   8    -0.367817371880E+03   -0.58227E-02   -0.58270E-02  7056   0.751E-02-0.545E-03
CGA:   9    -0.367819793469E+03   -0.24216E-02   -0.24175E-02  7056   0.251E-02-0.276E-03
CGA:  10    -0.367820549659E+03   -0.75619E-03   -0.75653E-03  7056   0.727E-03 0.920E-05
CGA:  11    -0.367820792662E+03   -0.24300E-03   -0.24365E-03  7056   0.286E-03 0.591E-04
CGA:  12    -0.367820914797E+03   -0.12214E-03   -0.12031E-03  7056   0.151E-03 0.406E-04
CGA:  13    -0.367820974658E+03   -0.59861E-04   -0.59838E-04  7056   0.659E-04 0.434E-04
CGA:  14    -0.367820996676E+03   -0.22018E-04   -0.23998E-04  7056   0.261E-04 0.308E-04
CGA:  15    -0.367821003792E+03   -0.71161E-05   -0.90917E-05  7056   0.122E-04 0.186E-04
  32 F= -.36782100E+03 E0= -.36782100E+03  d E =-.376059E-02  mag=    12.0000
       N       E                     dE             d eps       ncg     rms          ort
SDA:   1    -0.365149038553E+03    0.26720E+01    0.00000E+00  7056   0.824E+01 0.000E+00
CGA:   2    -0.366797308495E+03   -0.16483E+01   -0.16515E+01  7056   0.386E+01-0.118E-02
CGA:   3    -0.367675218169E+03   -0.87791E+00   -0.87903E+00  7056   0.719E+00 0.209E-02
CGA:   4    -0.367807029801E+03   -0.13181E+00   -0.13184E+00  7056   0.122E+00-0.253E-03
CGA:   5    -0.367833415139E+03   -0.26385E-01   -0.26424E-01  7056   0.309E-01 0.309E-03
CGA:   6    -0.367840621325E+03   -0.72062E-02   -0.71999E-02  7056   0.795E-02-0.886E-04
CGA:   7    -0.367842839635E+03   -0.22183E-02   -0.22107E-02  7056   0.290E-02-0.262E-03
CGA:   8    -0.367843779290E+03   -0.93965E-03   -0.94375E-03  7056   0.127E-02-0.139E-03
CGA:   9    -0.367844174849E+03   -0.39556E-03   -0.39629E-03  7056   0.436E-03-0.378E-04
CGA:  10    -0.367844313503E+03   -0.13865E-03   -0.13882E-03  7056   0.132E-03-0.844E-05
CGA:  11    -0.367844359793E+03   -0.46290E-04   -0.46492E-04  7056   0.525E-04-0.407E-05
CGA:  12    -0.367844376158E+03   -0.16365E-04   -0.16275E-04  7056   0.221E-04 0.115E-04
CGA:  13    -0.367844382590E+03   -0.64323E-05   -0.70114E-05  7056   0.103E-04 0.110E-04
  33 F= -.36784438E+03 E0= -.36784438E+03  d E =-.233788E-01  mag=    12.0000
       N       E                     dE             d eps       ncg     rms          ort
SDA:   1    -0.366311081619E+03    0.15333E+01    0.00000E+00  7056   0.361E+01 0.000E+00
CGA:   2    -0.367553686751E+03   -0.12426E+01   -0.12426E+01  7056   0.131E+01-0.135E-02
CGA:   3    -0.367789139363E+03   -0.23545E+00   -0.23550E+00  7056   0.232E+00-0.145E-02
CGA:   4    -0.367834579982E+03   -0.45441E-01   -0.45499E-01  7056   0.458E-01 0.439E-03
CGA:   5    -0.367844805634E+03   -0.10226E-01   -0.10228E-01  7056   0.111E-01 0.193E-04
CGA:   6    -0.367847508098E+03   -0.27025E-02   -0.26945E-02  7056   0.333E-02-0.169E-03
CGA:   7    -0.367848485885E+03   -0.97779E-03   -0.97803E-03  7056   0.143E-02-0.276E-04
CGA:   8    -0.367848975064E+03   -0.48918E-03   -0.49009E-03  7056   0.622E-03-0.162E-04
CGA:   9    -0.367849191251E+03   -0.21619E-03   -0.21914E-03  7056   0.230E-03-0.466E-04
CGA:  10    -0.367849266052E+03   -0.74801E-04   -0.77595E-04  7056   0.909E-04-0.405E-04
CGA:  11    -0.367849295660E+03   -0.29608E-04   -0.39654E-04  7056   0.928E-04-0.437E-04
CGA:  12    -0.367849311504E+03   -0.15844E-04   -0.16007E-04  7056   0.514E-04-0.797E-05
CGA:  13    -0.367849326732E+03   -0.15229E-04   -0.15290E-04  7056   0.228E-04-0.451E-05
CGA:  14    -0.367849334792E+03   -0.80595E-05   -0.89803E-05  7056   0.148E-04-0.773E-05
  34 F= -.36784933E+03 E0= -.36784933E+03  d E =-.495220E-02  mag=    12.0000
       N       E                     dE             d eps       ncg     rms          ort
SDA:   1    -0.362786126006E+03    0.50632E+01    0.00000E+00  7056   0.120E+02 0.000E+00
CGA:   2    -0.366875032224E+03   -0.40889E+01   -0.40889E+01  7056   0.432E+01-0.465E-02
CGA:   3    -0.367659379296E+03   -0.78435E+00   -0.78524E+00  7056   0.778E+00-0.296E-03
CGA:   4    -0.367810347753E+03   -0.15097E+00   -0.15113E+00  7056   0.153E+00 0.839E-03
CGA:   5    -0.367844673165E+03   -0.34325E-01   -0.34312E-01  7056   0.372E-01-0.190E-03
CGA:   6    -0.367853691617E+03   -0.90185E-02   -0.89995E-02  7056   0.113E-01-0.330E-03
CGA:   7    -0.367857030893E+03   -0.33393E-02   -0.33392E-02  7056   0.490E-02-0.208E-03
CGA:   8    -0.367858713891E+03   -0.16830E-02   -0.16931E-02  7056   0.219E-02-0.193E-03
CGA:   9    -0.367859414067E+03   -0.70018E-03   -0.70391E-03  7056   0.740E-03-0.115E-03
CGA:  10    -0.367859653239E+03   -0.23917E-03   -0.24328E-03  7056   0.268E-03-0.952E-04
CGA:  11    -0.367859747631E+03   -0.94392E-04   -0.10200E-03  7056   0.166E-03-0.580E-04
CGA:  12    -0.367859806467E+03   -0.58836E-04   -0.66482E-04  7056   0.136E-03-0.386E-04
CGA:  13    -0.367859845366E+03   -0.38899E-04   -0.39958E-04  7056   0.680E-04-0.172E-04
CGA:  14    -0.367859868228E+03   -0.22862E-04   -0.24907E-04  7056   0.344E-04-0.218E-04
CGA:  15    -0.367859874799E+03   -0.65708E-05   -0.14955E-04  7056   0.462E-04-0.271E-04
CGA:  16    -0.367859885582E+03   -0.10783E-04   -0.10791E-04  7056   0.953E-05 0.772E-07
CGA:  17    -0.367859889300E+03   -0.37177E-05   -0.38361E-05  7056   0.478E-05-0.191E-05
CGA:  18    -0.367859868147E+03    0.21153E-04   -0.11418E-04  7056   0.992E-04-0.156E-04
CGA:  19    -0.367859887989E+03   -0.19843E-04   -0.21576E-04  7056   0.130E-04 0.429E-05
CGA:  20    -0.367859892615E+03   -0.46259E-05   -0.48028E-05  7056   0.349E-05 0.700E-06
  35 F= -.36785989E+03 E0= -.36785989E+03  d E =-.105578E-01  mag=    12.0000
       N       E                     dE             d eps       ncg     rms          ort
SDA:   1    -0.361071717223E+03    0.67882E+01    0.00000E+00  7056   0.151E+02 0.000E+00
CGA:   2    -0.365816736484E+03   -0.47450E+01   -0.47722E+01  7056   0.511E+01-0.152E-01
CGA:   3    -0.366996550993E+03   -0.11798E+01   -0.11819E+01  7056   0.112E+01 0.677E-02
CGA:   4    -0.367224207678E+03   -0.22766E+00   -0.22754E+00  7056   0.273E+00-0.236E-03
CGA:   5    -0.367289245853E+03   -0.65038E-01   -0.65039E-01  7056   0.806E-01-0.220E-03
CGA:   6    -0.367311789022E+03   -0.22543E-01   -0.22608E-01  7056   0.316E-01 0.239E-03
CGA:   7    -0.367320613965E+03   -0.88249E-02   -0.88500E-02  7056   0.120E-01 0.113E-03
CGA:   8    -0.367324415862E+03   -0.38019E-02   -0.37968E-02  7056   0.394E-02-0.343E-04
CGA:   9    -0.367325627380E+03   -0.12115E-02   -0.12027E-02  7056   0.116E-02-0.512E-04
CGA:  10    -0.367325991355E+03   -0.36397E-03   -0.35777E-03  7056   0.344E-03-0.388E-04
CGA:  11    -0.367326109387E+03   -0.11803E-03   -0.11691E-03  7056   0.136E-03-0.992E-05
CGA:  12    -0.367326169920E+03   -0.60533E-04   -0.60470E-04  7056   0.982E-04-0.256E-04
CGA:  13    -0.367326191169E+03   -0.21249E-04   -0.22737E-04  7056   0.428E-04 0.845E-05
CGA:  14    -0.367326207268E+03   -0.16099E-04   -0.15990E-04  7056   0.186E-04-0.106E-05
CGA:  15    -0.367326215528E+03   -0.82593E-05   -0.83047E-05  7056   0.130E-04-0.383E-05
  36 F= -.36732622E+03 E0= -.36732622E+03  d E =0.533677E+00  mag=    12.0000
       N       E                     dE             d eps       ncg     rms          ort
SDA:   1    -0.365583509703E+03    0.17427E+01    0.00000E+00  7056   0.532E+01 0.000E+00
CGA:   2    -0.367301764158E+03   -0.17183E+01   -0.17165E+01  7056   0.168E+01-0.659E-02
CGA:   3    -0.367720818078E+03   -0.41905E+00   -0.41958E+00  7056   0.304E+00 0.138E-03
CGA:   4    -0.367792405828E+03   -0.71588E-01   -0.71709E-01  7056   0.836E-01 0.639E-03
CGA:   5    -0.367811628695E+03   -0.19223E-01   -0.19203E-01  7056   0.276E-01-0.117E-03
CGA:   6    -0.367819543834E+03   -0.79151E-02   -0.78863E-02  7056   0.102E-01-0.252E-03
CGA:   7    -0.367822555194E+03   -0.30114E-02   -0.30020E-02  7056   0.402E-02-0.945E-04
CGA:   8    -0.367823744168E+03   -0.11890E-02   -0.11878E-02  7056   0.126E-02-0.134E-04
CGA:   9    -0.367824120066E+03   -0.37590E-03   -0.37658E-03  7056   0.345E-03 0.766E-05
CGA:  10    -0.367824229893E+03   -0.10983E-03   -0.10982E-03  7056   0.104E-03-0.121E-06
CGA:  11    -0.367824268335E+03   -0.38442E-04   -0.38391E-04  7056   0.446E-04-0.455E-05
CGA:  12    -0.367824285021E+03   -0.16686E-04   -0.16675E-04  7056   0.193E-04 0.896E-06
CGA:  13    -0.367824293900E+03   -0.88787E-05   -0.90667E-05  7056   0.120E-04-0.232E-05
  37 F= -.36782429E+03 E0= -.36782429E+03  d E =-.498078E+00  mag=    12.0000
       N       E                     dE             d eps       ncg     rms          ort
SDA:   1    -0.367263396769E+03    0.56089E+00    0.00000E+00  7056   0.142E+01 0.000E+00
CGA:   2    -0.367723912410E+03   -0.46052E+00   -0.46030E+00  7056   0.451E+00-0.269E-02
CGA:   3    -0.367834420574E+03   -0.11051E+00   -0.11062E+00  7056   0.877E-01 0.493E-03
CGA:   4    -0.367853710697E+03   -0.19290E-01   -0.19382E-01  7056   0.239E-01 0.549E-03
CGA:   5    -0.367859231604E+03   -0.55209E-02   -0.55221E-02  7056   0.746E-02 0.659E-05
CGA:   6    -0.367861461352E+03   -0.22297E-02   -0.22178E-02  7056   0.294E-02-0.183E-03
CGA:   7    -0.367862305451E+03   -0.84410E-03   -0.83908E-03  7056   0.117E-02-0.760E-04
CGA:   8    -0.367862642208E+03   -0.33676E-03   -0.33680E-03  7056   0.356E-03 0.606E-06
CGA:   9    -0.367862744373E+03   -0.10216E-03   -0.10305E-03  7056   0.957E-04 0.139E-04
CGA:  10    -0.367862774275E+03   -0.29902E-04   -0.30095E-04  7056   0.284E-04 0.411E-05
CGA:  11    -0.367862785729E+03   -0.11454E-04   -0.11565E-04  7056   0.139E-04-0.261E-05
CGA:  12    -0.367862789507E+03   -0.37776E-05   -0.38876E-05  7056   0.532E-05 0.264E-05
  38 F= -.36786279E+03 E0= -.36786279E+03  d E =-.384956E-01  mag=    12.0000
       N       E                     dE             d eps       ncg     rms          ort
SDA:   1    -0.367844518969E+03    0.18267E-01    0.00000E+00  7056   0.590E-01 0.000E+00
CGA:   2    -0.367862701491E+03   -0.18183E-01   -0.18152E-01  7056   0.201E-01-0.649E-03
CGA:   3    -0.367867150274E+03   -0.44488E-02   -0.44537E-02  7056   0.546E-02 0.195E-04
CGA:   4    -0.367868120893E+03   -0.97062E-03   -0.10111E-02  7056   0.103E-02 0.248E-03
CGA:   5    -0.367868365837E+03   -0.24494E-03   -0.25147E-03  7056   0.320E-03 0.629E-04
CGA:   6    -0.367868483143E+03   -0.11731E-03   -0.11863E-03  7056   0.211E-03-0.781E-04
CGA:   7    -0.367868532603E+03   -0.49460E-04   -0.48045E-04  7056   0.925E-04-0.435E-04
CGA:   8    -0.367868550570E+03   -0.17967E-04   -0.18350E-04  7056   0.306E-04 0.464E-05
CGA:   9    -0.367868555132E+03   -0.45620E-05   -0.59528E-05  7056   0.108E-04 0.974E-05
  39 F= -.36786856E+03 E0= -.36786856E+03  d E =-.576563E-02  mag=    12.0000
       N       E                     dE             d eps       ncg     rms          ort
SDA:   1    -0.367822964226E+03    0.45586E-01    0.00000E+00  7056   0.125E+00 0.000E+00
CGA:   2    -0.367860492657E+03   -0.37528E-01   -0.37519E-01  7056   0.453E-01-0.733E-03
CGA:   3    -0.367870310163E+03   -0.98175E-02   -0.98179E-02  7056   0.118E-01-0.448E-04
CGA:   4    -0.367872531915E+03   -0.22218E-02   -0.22586E-02  7056   0.228E-02 0.312E-03
CGA:   5    -0.367873085572E+03   -0.55366E-03   -0.55902E-03  7056   0.674E-03 0.865E-04
CGA:   6    -0.367873308402E+03   -0.22283E-03   -0.22501E-03  7056   0.360E-03-0.919E-04
CGA:   7    -0.367873402561E+03   -0.94159E-04   -0.94425E-04  7056   0.154E-03-0.581E-04
CGA:   8    -0.367873437851E+03   -0.35289E-04   -0.35371E-04  7056   0.457E-04 0.323E-05
CGA:   9    -0.367873446626E+03   -0.87751E-05   -0.98452E-05  7056   0.137E-04 0.123E-04
  40 F= -.36787345E+03 E0= -.36787345E+03  d E =-.489149E-02  mag=    12.0000
       N       E                     dE             d eps       ncg     rms          ort
SDA:   1    -0.367871251030E+03    0.21868E-02    0.00000E+00  7056   0.671E-02 0.000E+00
CGA:   2    -0.367873261777E+03   -0.20107E-02   -0.20083E-02  7056   0.230E-02 0.219E-03
CGA:   3    -0.367873801344E+03   -0.53957E-03   -0.53539E-03  7056   0.644E-03-0.690E-04
CGA:   4    -0.367873935332E+03   -0.13399E-03   -0.12932E-03  7056   0.150E-03-0.603E-04
CGA:   5    -0.367873968130E+03   -0.32797E-04   -0.32335E-04  7056   0.462E-04-0.108E-04
CGA:   6    -0.367873975052E+03   -0.69221E-05   -0.79314E-05  7056   0.130E-04 0.107E-04
  41 F= -.36787398E+03 E0= -.36787398E+03  d E =-.528426E-03  mag=    12.0000
       N       E                     dE             d eps       ncg     rms          ort
SDA:   1    -0.367870841384E+03    0.31267E-02    0.00000E+00  7056   0.941E-02 0.000E+00
CGA:   2    -0.367873482983E+03   -0.26416E-02   -0.26402E-02  7056   0.416E-02 0.102E-03
CGA:   3    -0.367874314500E+03   -0.83152E-03   -0.82836E-03  7056   0.827E-03-0.506E-04
CGA:   4    -0.367874482981E+03   -0.16848E-03   -0.16656E-03  7056   0.163E-03-0.319E-04
CGA:   5    -0.367874519645E+03   -0.36664E-04   -0.36476E-04  7056   0.445E-04-0.644E-05
CGA:   6    -0.367874529300E+03   -0.96546E-05   -0.97818E-05  7056   0.128E-04 0.398E-05
  42 F= -.36787453E+03 E0= -.36787453E+03  d E =-.554248E-03  mag=    12.0000
       N       E                     dE             d eps       ncg     rms          ort
SDA:   1    -0.367866386572E+03    0.81331E-02    0.00000E+00  7056   0.231E-01 0.000E+00
CGA:   2    -0.367872871523E+03   -0.64850E-02   -0.64836E-02  7056   0.106E-01 0.476E-04
CGA:   3    -0.367874915707E+03   -0.20442E-02   -0.20406E-02  7056   0.191E-02-0.686E-04
CGA:   4    -0.367875282284E+03   -0.36658E-03   -0.36612E-03  7056   0.355E-03-0.823E-05
CGA:   5    -0.367875359210E+03   -0.76926E-04   -0.77007E-04  7056   0.884E-04 0.220E-05
CGA:   6    -0.367875381512E+03   -0.22302E-04   -0.22301E-04  7056   0.296E-04-0.237E-05
CGA:   7    -0.367875391007E+03   -0.94945E-05   -0.99264E-05  7056   0.174E-04-0.467E-05
  43 F= -.36787539E+03 E0= -.36787539E+03  d E =-.861707E-03  mag=    12.0000
       N       E                     dE             d eps       ncg     rms          ort
SDA:   1    -0.367834006222E+03    0.41375E-01    0.00000E+00  7056   0.110E+00 0.000E+00
CGA:   2    -0.367865475755E+03   -0.31470E-01   -0.31469E-01  7056   0.500E-01-0.233E-05
CGA:   3    -0.367874944864E+03   -0.94691E-02   -0.94615E-02  7056   0.895E-02-0.161E-03
CGA:   4    -0.367876621185E+03   -0.16763E-02   -0.16788E-02  7056   0.155E-02 0.259E-04
CGA:   5    -0.367876968413E+03   -0.34723E-03   -0.34773E-03  7056   0.367E-03 0.112E-04
CGA:   6    -0.367877063623E+03   -0.95210E-04   -0.95088E-04  7056   0.119E-03-0.163E-04
CGA:   7    -0.367877100240E+03   -0.36617E-04   -0.37764E-04  7056   0.650E-04-0.166E-04
CGA:   8    -0.367877121209E+03   -0.20970E-04   -0.24126E-04  7056   0.482E-04-0.193E-04
CGA:   9    -0.367877130758E+03   -0.95489E-05   -0.95725E-05  7056   0.162E-04-0.373E-05
  44 F= -.36787713E+03 E0= -.36787713E+03  d E =-.173975E-02  mag=    12.0000
       N       E                     dE             d eps       ncg     rms          ort
SDA:   1    -0.364803938835E+03    0.30732E+01    0.00000E+00  7056   0.763E+01 0.000E+00
CGA:   2    -0.367174309886E+03   -0.23704E+01   -0.23701E+01  7056   0.302E+01 0.169E-02
CGA:   3    -0.367750185316E+03   -0.57588E+00   -0.57621E+00  7056   0.553E+00-0.430E-03
CGA:   4    -0.367854349582E+03   -0.10416E+00   -0.10422E+00  7056   0.103E+00 0.320E-03
CGA:   5    -0.367877436019E+03   -0.23086E-01   -0.23092E-01  7056   0.252E-01 0.878E-04
CGA:   6    -0.367883635995E+03   -0.62000E-02   -0.61951E-02  7056   0.794E-02-0.253E-03
CGA:   7    -0.367886001928E+03   -0.23659E-02   -0.23763E-02  7056   0.369E-02-0.278E-03
CGA:   8    -0.367887288539E+03   -0.12866E-02   -0.13101E-02  7056   0.182E-02-0.232E-03
CGA:   9    -0.367887847202E+03   -0.55866E-03   -0.56277E-03  7056   0.627E-03-0.715E-04
CGA:  10    -0.367888042394E+03   -0.19519E-03   -0.19656E-03  7056   0.208E-03-0.267E-04
CGA:  11    -0.367888120169E+03   -0.77775E-04   -0.80026E-04  7056   0.108E-03-0.180E-04
CGA:  12    -0.367888164374E+03   -0.44205E-04   -0.45760E-04  7056   0.646E-04-0.867E-05
CGA:  13    -0.367888188059E+03   -0.23684E-04   -0.24196E-04  7056   0.284E-04-0.443E-05
CGA:  14    -0.367888197293E+03   -0.92338E-05   -0.93671E-05  7056   0.982E-05-0.241E-05
  45 F= -.36788820E+03 E0= -.36788820E+03  d E =-.110665E-01  mag=    12.0000
       N       E                     dE             d eps       ncg     rms          ort
SDA:   1    -0.363625170800E+03    0.42630E+01    0.00000E+00  7056   0.104E+02 0.000E+00
CGA:   2    -0.366987337448E+03   -0.33622E+01   -0.33622E+01  7056   0.375E+01 0.958E-03
CGA:   3    -0.367722468179E+03   -0.73513E+00   -0.73566E+00  7056   0.694E+00 0.122E-03
CGA:   4    -0.367853021646E+03   -0.13055E+00   -0.13063E+00  7056   0.136E+00 0.379E-04
CGA:   5    -0.367883472538E+03   -0.30451E-01   -0.30461E-01  7056   0.335E-01 0.760E-04
CGA:   6    -0.367891787280E+03   -0.83147E-02   -0.83010E-02  7056   0.108E-01-0.239E-03
CGA:   7    -0.367895007870E+03   -0.32206E-02   -0.32182E-02  7056   0.505E-02-0.339E-03
CGA:   8    -0.367896735875E+03   -0.17280E-02   -0.17405E-02  7056   0.230E-02-0.250E-03
CGA:   9    -0.367897447107E+03   -0.71123E-03   -0.71226E-03  7056   0.760E-03-0.582E-04
CGA:  10    -0.367897690874E+03   -0.24377E-03   -0.24466E-03  7056   0.259E-03-0.430E-04
CGA:  11    -0.367897789371E+03   -0.98498E-04   -0.10149E-03  7056   0.139E-03-0.284E-04
CGA:  12    -0.367897846470E+03   -0.57098E-04   -0.59567E-04  7056   0.863E-04-0.148E-04
CGA:  13    -0.367897873218E+03   -0.26748E-04   -0.26612E-04  7056   0.318E-04 0.648E-05
CGA:  14    -0.367897886160E+03   -0.12942E-04   -0.13294E-04  7056   0.144E-04-0.553E-05
CGA:  15    -0.367897889572E+03   -0.34114E-05   -0.34524E-05  7056   0.450E-05 0.109E-05
CGA:  16    -0.367897855216E+03    0.34356E-04   -0.18499E-04  7056   0.142E-03-0.251E-04
CGA:  17    -0.367897897749E+03   -0.42533E-04   -0.41896E-04  7056   0.103E-04-0.215E-05
CGA:  18    -0.367897898907E+03   -0.11575E-05   -0.22246E-05  7056   0.268E-05 0.296E-05
  46 F= -.36789790E+03 E0= -.36789790E+03  d E =-.970161E-02  mag=    12.0000
       N       E                     dE             d eps       ncg     rms          ort
SDA:   1    -0.367629714671E+03    0.26818E+00    0.00000E+00  7056   0.660E+00 0.000E+00
CGA:   2    -0.367819521166E+03   -0.18981E+00   -0.19014E+00  7056   0.273E+00 0.625E-03
CGA:   3    -0.367875964540E+03   -0.56443E-01   -0.56450E-01  7056   0.650E-01-0.315E-03
CGA:   4    -0.367889201916E+03   -0.13237E-01   -0.13172E-01  7056   0.132E-01-0.246E-03
CGA:   5    -0.367892341312E+03   -0.31394E-02   -0.31227E-02  7056   0.399E-02-0.655E-04
CGA:   6    -0.367893360565E+03   -0.10193E-02   -0.10370E-02  7056   0.148E-02 0.764E-04
CGA:   7    -0.367893752372E+03   -0.39181E-03   -0.41039E-03  7056   0.506E-03 0.902E-04
CGA:   8    -0.367893925126E+03   -0.17275E-03   -0.17546E-03  7056   0.189E-03 0.189E-04
CGA:   9    -0.367893992413E+03   -0.67287E-04   -0.65644E-04  7056   0.699E-04-0.130E-04
CGA:  10    -0.367894015058E+03   -0.22645E-04   -0.21826E-04  7056   0.232E-04-0.684E-05
CGA:  11    -0.367894022978E+03   -0.79204E-05   -0.77828E-05  7056   0.972E-05-0.179E-05
  47 F= -.36789402E+03 E0= -.36789402E+03  d E =0.387593E-02  mag=    12.0000
       N       E                     dE             d eps       ncg     rms          ort
SDA:   1    -0.367635450231E+03    0.25856E+00    0.00000E+00  7056   0.660E+00 0.000E+00
CGA:   2    -0.367837519589E+03   -0.20207E+00   -0.20197E+00  7056   0.257E+00-0.778E-03
CGA:   3    -0.367888126960E+03   -0.50607E-01   -0.50711E-01  7056   0.526E-01 0.173E-03
CGA:   4    -0.367898271428E+03   -0.10144E-01   -0.10180E-01  7056   0.102E-01 0.112E-03
CGA:   5    -0.367900633759E+03   -0.23623E-02   -0.23666E-02  7056   0.272E-02 0.219E-04
CGA:   6    -0.367901360128E+03   -0.72637E-03   -0.71951E-03  7056   0.987E-03-0.474E-04
CGA:   7    -0.367901653898E+03   -0.29377E-03   -0.28850E-03  7056   0.424E-03-0.495E-04
CGA:   8    -0.367901784581E+03   -0.13068E-03   -0.13063E-03  7056   0.156E-03-0.729E-06
CGA:   9    -0.367901830987E+03   -0.46406E-04   -0.46837E-04  7056   0.477E-04 0.458E-05
CGA:  10    -0.367901847176E+03   -0.16189E-04   -0.16149E-04  7056   0.164E-04-0.653E-06
CGA:  11    -0.367901851838E+03   -0.46620E-05   -0.49220E-05  7056   0.611E-05 0.313E-05
  48 F= -.36790185E+03 E0= -.36790185E+03  d E =-.782886E-02  mag=    12.0000
       N       E                     dE             d eps       ncg     rms          ort
SDA:   1    -0.367315513589E+03    0.58633E+00    0.00000E+00  7056   0.144E+01 0.000E+00
CGA:   2    -0.367778963142E+03   -0.46345E+00   -0.46345E+00  7056   0.534E+00-0.599E-03
CGA:   3    -0.367882428252E+03   -0.10347E+00   -0.10353E+00  7056   0.974E-01-0.157E-03
CGA:   4    -0.367900642017E+03   -0.18214E-01   -0.18249E-01  7056   0.185E-01 0.129E-03
CGA:   5    -0.367904747228E+03   -0.41052E-02   -0.41110E-02  7056   0.440E-02 0.398E-04
CGA:   6    -0.367905834276E+03   -0.10870E-02   -0.10811E-02  7056   0.136E-02-0.598E-04
CGA:   7    -0.367906243147E+03   -0.40887E-03   -0.40607E-03  7056   0.643E-03-0.703E-04
CGA:   8    -0.367906464358E+03   -0.22121E-03   -0.22229E-03  7056   0.313E-03-0.459E-04
CGA:   9    -0.367906556946E+03   -0.92588E-04   -0.92559E-04  7056   0.101E-03-0.125E-05
CGA:  10    -0.367906590089E+03   -0.33143E-04   -0.33090E-04  7056   0.341E-04-0.438E-05
CGA:  11    -0.367906604032E+03   -0.13943E-04   -0.14770E-04  7056   0.220E-04-0.733E-05
CGA:  12    -0.367906612233E+03   -0.82017E-05   -0.96355E-05  7056   0.180E-04-0.675E-05
  49 F= -.36790661E+03 E0= -.36790661E+03  d E =-.476040E-02  mag=    12.0000
       N       E                     dE             d eps       ncg     rms          ort
SDA:   1    -0.357747575485E+03    0.10159E+02    0.00000E+00  7056   0.270E+02 0.000E+00
CGA:   2    -0.364546577422E+03   -0.67990E+01   -0.68057E+01  7056   0.134E+02-0.813E-03
CGA:   3    -0.367215062883E+03   -0.26685E+01   -0.26737E+01  7056   0.226E+01 0.952E-02
CGA:   4    -0.367654287833E+03   -0.43922E+00   -0.43943E+00  7056   0.424E+00 0.165E-02
CGA:   5    -0.367747528011E+03   -0.93240E-01   -0.93334E-01  7056   0.109E+00 0.612E-03
CGA:   6    -0.367774171300E+03   -0.26643E-01   -0.26623E-01  7056   0.335E-01-0.288E-03
CGA:   7    -0.367784102392E+03   -0.99311E-02   -0.99231E-02  7056   0.140E-01-0.292E-03
CGA:   8    -0.367788919342E+03   -0.48169E-02   -0.48216E-02  7056   0.631E-02-0.216E-03
CGA:   9    -0.367790995857E+03   -0.20765E-02   -0.20777E-02  7056   0.225E-02-0.132E-03
CGA:  10    -0.367791737374E+03   -0.74152E-03   -0.74243E-03  7056   0.789E-03-0.800E-04
CGA:  11    -0.367792032986E+03   -0.29561E-03   -0.29775E-03  7056   0.377E-03-0.330E-04
CGA:  12    -0.367792177226E+03   -0.14424E-03   -0.14238E-03  7056   0.169E-03 0.287E-04
CGA:  13    -0.367792246087E+03   -0.68862E-04   -0.68134E-04  7056   0.669E-04 0.172E-04
CGA:  14    -0.367792267824E+03   -0.21737E-04   -0.22276E-04  7056   0.219E-04 0.164E-04
CGA:  15    -0.367792278771E+03   -0.10947E-04   -0.10993E-04  7056   0.105E-04-0.667E-06
CGA:  16    -0.367792281688E+03   -0.29172E-05   -0.30329E-05  7056   0.411E-05 0.303E-05
  50 F= -.36779228E+03 E0= -.36779228E+03  d E =0.114331E+00  mag=    12.0000
       N       E                     dE             d eps       ncg     rms          ort
SDA:   1    -0.361649505178E+03    0.61428E+01    0.00000E+00  7056   0.144E+02 0.000E+00
CGA:   2    -0.366204649063E+03   -0.45551E+01   -0.45540E+01  7056   0.499E+01-0.336E-01
CGA:   3    -0.367307767302E+03   -0.11031E+01   -0.11043E+01  7056   0.118E+01 0.351E-02
CGA:   4    -0.367544875942E+03   -0.23711E+00   -0.23734E+00  7056   0.278E+00-0.176E-03
CGA:   5    -0.367612526808E+03   -0.67651E-01   -0.67628E-01  7056   0.833E-01-0.729E-04
CGA:   6    -0.367635678200E+03   -0.23151E-01   -0.23141E-01  7056   0.328E-01-0.278E-03
CGA:   7    -0.367644916029E+03   -0.92378E-02   -0.92244E-02  7056   0.120E-01-0.376E-03
CGA:   8    -0.367648717796E+03   -0.38018E-02   -0.38020E-02  7056   0.394E-02-0.605E-04
CGA:   9    -0.367649920162E+03   -0.12024E-02   -0.12025E-02  7056   0.116E-02 0.165E-04
CGA:  10    -0.367650297178E+03   -0.37702E-03   -0.37740E-03  7056   0.360E-03-0.438E-04
CGA:  11    -0.367650427544E+03   -0.13037E-03   -0.13247E-03  7056   0.152E-03-0.322E-04
CGA:  12    -0.367650483630E+03   -0.56087E-04   -0.57337E-04  7056   0.759E-04-0.131E-04
CGA:  13    -0.367650507943E+03   -0.24312E-04   -0.24244E-04  7056   0.344E-04 0.261E-05
CGA:  14    -0.367650521246E+03   -0.13304E-04   -0.13393E-04  7056   0.169E-04-0.177E-05
CGA:  15    -0.367650525492E+03   -0.42455E-05   -0.44528E-05  7056   0.545E-05 0.408E-05
  51 F= -.36765053E+03 E0= -.36765053E+03  d E =0.141756E+00  mag=    12.0000
       N       E                     dE             d eps       ncg     rms          ort
SDA:   1    -0.366232811198E+03    0.14177E+01    0.00000E+00  7056   0.396E+01 0.000E+00
CGA:   2    -0.367502457584E+03   -0.12696E+01   -0.12697E+01  7056   0.130E+01 0.724E-02
CGA:   3    -0.367817520034E+03   -0.31506E+00   -0.31507E+00  7056   0.278E+00-0.768E-03
CGA:   4    -0.367876389248E+03   -0.58869E-01   -0.58904E-01  7056   0.743E-01 0.175E-03
CGA:   5    -0.367893946340E+03   -0.17557E-01   -0.17545E-01  7056   0.226E-01-0.191E-03
CGA:   6    -0.367900424881E+03   -0.64785E-02   -0.64808E-02  7056   0.866E-02 0.102E-03
CGA:   7    -0.367902822828E+03   -0.23979E-02   -0.24043E-02  7056   0.314E-02 0.207E-03
CGA:   8    -0.367903827603E+03   -0.10048E-02   -0.10047E-02  7056   0.102E-02 0.126E-04
CGA:   9    -0.367904155302E+03   -0.32770E-03   -0.32819E-03  7056   0.305E-03-0.330E-04
CGA:  10    -0.367904243750E+03   -0.88449E-04   -0.88494E-04  7056   0.802E-04 0.666E-05
CGA:  11    -0.367904268909E+03   -0.25159E-04   -0.25155E-04  7056   0.272E-04 0.108E-04
CGA:  12    -0.367904279139E+03   -0.10230E-04   -0.10094E-04  7056   0.124E-04 0.642E-05
CGA:  13    -0.367904284184E+03   -0.50448E-05   -0.49787E-05  7056   0.607E-05 0.375E-05
  52 F= -.36790428E+03 E0= -.36790428E+03  d E =-.253759E+00  mag=    12.0000
       N       E                     dE             d eps       ncg     rms          ort
SDA:   1    -0.367858456266E+03    0.45823E-01    0.00000E+00  7056   0.129E+00 0.000E+00
CGA:   2    -0.367896723634E+03   -0.38267E-01   -0.38274E-01  7056   0.534E-01 0.439E-03
CGA:   3    -0.367907971313E+03   -0.11248E-01   -0.11276E-01  7056   0.127E-01 0.221E-03
CGA:   4    -0.367910574194E+03   -0.26029E-02   -0.25907E-02  7056   0.279E-02-0.127E-03
CGA:   5    -0.367911249152E+03   -0.67496E-03   -0.67334E-03  7056   0.861E-03-0.293E-04
CGA:   6    -0.367911459423E+03   -0.21027E-03   -0.21248E-03  7056   0.303E-03 0.466E-04
CGA:   7    -0.367911538856E+03   -0.79433E-04   -0.81137E-04  7056   0.951E-04 0.424E-04
CGA:   8    -0.367911572975E+03   -0.34120E-04   -0.33888E-04  7056   0.374E-04 0.113E-04
CGA:   9    -0.367911587102E+03   -0.14127E-04   -0.14255E-04  7056   0.159E-04-0.270E-05
CGA:  10    -0.367911591107E+03   -0.40047E-05   -0.40282E-05  7056   0.421E-05 0.106E-05
  53 F= -.36791159E+03 E0= -.36791159E+03  d E =-.730692E-02  mag=    12.0000
       N       E                     dE             d eps       ncg     rms          ort
SDA:   1    -0.367887792874E+03    0.23794E-01    0.00000E+00  7056   0.846E-01 0.000E+00
CGA:   2    -0.367905079938E+03   -0.17287E-01   -0.17304E-01  7056   0.376E-01 0.110E-03
CGA:   3    -0.367913511432E+03   -0.84315E-02   -0.84599E-02  7056   0.779E-02 0.429E-03
CGA:   4    -0.367915024698E+03   -0.15133E-02   -0.15111E-02  7056   0.145E-02-0.288E-04
CGA:   5    -0.367915342433E+03   -0.31773E-03   -0.31525E-03  7056   0.378E-03-0.424E-04
CGA:   6    -0.367915425113E+03   -0.82679E-04   -0.83607E-04  7056   0.104E-03 0.197E-04
CGA:   7    -0.367915449220E+03   -0.24107E-04   -0.25139E-04  7056   0.348E-04 0.243E-04
CGA:   8    -0.367915461197E+03   -0.11977E-04   -0.11897E-04  7056   0.170E-04 0.102E-04
CGA:   9    -0.367915469042E+03   -0.78455E-05   -0.77647E-05  7056   0.934E-05 0.966E-06
  54 F= -.36791547E+03 E0= -.36791547E+03  d E =-.387794E-02  mag=    12.0000
       N       E                     dE             d eps       ncg     rms          ort
SDA:   1    -0.367767745910E+03    0.14772E+00    0.00000E+00  7056   0.481E+00 0.000E+00
CGA:   2    -0.367863835241E+03   -0.96089E-01   -0.96131E-01  7056   0.206E+00 0.403E-04
CGA:   3    -0.367910699840E+03   -0.46865E-01   -0.46918E-01  7056   0.441E-01 0.996E-03
CGA:   4    -0.367919146700E+03   -0.84469E-02   -0.84473E-02  7056   0.798E-02-0.176E-04
CGA:   5    -0.367920833166E+03   -0.16865E-02   -0.16834E-02  7056   0.197E-02-0.610E-04
CGA:   6    -0.367921299964E+03   -0.46680E-03   -0.46765E-03  7056   0.584E-03 0.366E-04
CGA:   7    -0.367921462913E+03   -0.16295E-03   -0.16246E-03  7056   0.224E-03 0.422E-04
CGA:   8    -0.367921546471E+03   -0.83558E-04   -0.82438E-04  7056   0.109E-03 0.136E-04
CGA:   9    -0.367921587757E+03   -0.41286E-04   -0.41355E-04  7056   0.474E-04-0.849E-06
CGA:  10    -0.367921603257E+03   -0.15500E-04   -0.15474E-04  7056   0.165E-04 0.415E-06
CGA:  11    -0.367921609042E+03   -0.57853E-05   -0.57456E-05  7056   0.657E-05 0.543E-06
  55 F= -.36792161E+03 E0= -.36792161E+03  d E =-.614000E-02  mag=    12.0000
       N       E                     dE             d eps       ncg     rms          ort
SDA:   1    -0.367756268180E+03    0.16534E+00    0.00000E+00  7056   0.524E+00 0.000E+00
CGA:   2    -0.367865016107E+03   -0.10875E+00   -0.10877E+00  7056   0.215E+00-0.273E-03
CGA:   3    -0.367912271598E+03   -0.47255E-01   -0.47326E-01  7056   0.490E-01 0.711E-03
CGA:   4    -0.367921853686E+03   -0.95821E-02   -0.95931E-02  7056   0.896E-02 0.906E-04
CGA:   5    -0.367923736738E+03   -0.18831E-02   -0.18849E-02  7056   0.223E-02 0.201E-04
CGA:   6    -0.367924292870E+03   -0.55613E-03   -0.55686E-03  7056   0.749E-03 0.223E-04
CGA:   7    -0.367924526257E+03   -0.23339E-03   -0.23368E-03  7056   0.354E-03-0.101E-04
CGA:   8    -0.367924652575E+03   -0.12632E-03   -0.12684E-03  7056   0.177E-03-0.658E-05
CGA:   9    -0.367924707706E+03   -0.55131E-04   -0.54841E-04  7056   0.613E-04 0.936E-05
CGA:  10    -0.367924728790E+03   -0.21084E-04   -0.20967E-04  7056   0.217E-04 0.304E-05
CGA:  11    -0.367924737953E+03   -0.91640E-05   -0.94321E-05  7056   0.116E-04-0.215E-05
  56 F= -.36792474E+03 E0= -.36792474E+03  d E =-.312891E-02  mag=    12.0000
       N       E                     dE             d eps       ncg     rms          ort
SDA:   1    -0.367731625647E+03    0.19310E+00    0.00000E+00  7056   0.525E+00 0.000E+00
CGA:   2    -0.367862017413E+03   -0.13039E+00   -0.13041E+00  7056   0.215E+00-0.977E-04
CGA:   3    -0.367906990728E+03   -0.44973E-01   -0.45087E-01  7056   0.513E-01 0.969E-03
CGA:   4    -0.367917163811E+03   -0.10173E-01   -0.10178E-01  7056   0.999E-02 0.222E-04
CGA:   5    -0.367919382451E+03   -0.22186E-02   -0.22231E-02  7056   0.276E-02 0.610E-04
CGA:   6    -0.367920084344E+03   -0.70189E-03   -0.70449E-03  7056   0.101E-02 0.760E-04
CGA:   7    -0.367920402345E+03   -0.31800E-03   -0.31797E-03  7056   0.448E-03 0.148E-05
CGA:   8    -0.367920554626E+03   -0.15228E-03   -0.15176E-03  7056   0.188E-03 0.100E-04
CGA:   9    -0.367920611552E+03   -0.56926E-04   -0.56814E-04  7056   0.620E-04 0.204E-04
CGA:  10    -0.367920634931E+03   -0.23379E-04   -0.23202E-04  7056   0.258E-04 0.370E-05
CGA:  11    -0.367920645609E+03   -0.10678E-04   -0.10585E-04  7056   0.128E-04 0.962E-06
CGA:  12    -0.367920650722E+03   -0.51126E-05   -0.50068E-05  7056   0.557E-05 0.134E-05
  57 F= -.36792065E+03 E0= -.36792065E+03  d E =0.408723E-02  mag=    12.0000
       N       E                     dE             d eps       ncg     rms          ort
SDA:   1    -0.367869856837E+03    0.50789E-01    0.00000E+00  7056   0.142E+00 0.000E+00
CGA:   2    -0.367910335846E+03   -0.40479E-01   -0.40469E-01  7056   0.636E-01-0.455E-03
CGA:   3    -0.367923444335E+03   -0.13108E-01   -0.13107E-01  7056   0.147E-01-0.973E-04
CGA:   4    -0.367926373884E+03   -0.29295E-02   -0.29355E-02  7056   0.309E-02 0.491E-04
CGA:   5    -0.367927123653E+03   -0.74977E-03   -0.74962E-03  7056   0.936E-03-0.299E-05
CGA:   6    -0.367927376960E+03   -0.25331E-03   -0.25259E-03  7056   0.375E-03-0.301E-04
CGA:   7    -0.367927487093E+03   -0.11013E-03   -0.11049E-03  7056   0.144E-03-0.315E-04
CGA:   8    -0.367927530840E+03   -0.43747E-04   -0.44350E-04  7056   0.542E-04-0.142E-04
CGA:   9    -0.367927545261E+03   -0.14421E-04   -0.14421E-04  7056   0.151E-04-0.168E-05
CGA:  10    -0.367927549936E+03   -0.46749E-05   -0.46869E-05  7056   0.455E-05-0.493E-06
  58 F= -.36792755E+03 E0= -.36792755E+03  d E =-.689921E-02  mag=    12.0000
       N       E                     dE             d eps       ncg     rms          ort
SDA:   1    -0.367925165170E+03    0.23801E-02    0.00000E+00  7056   0.779E-02 0.000E+00
CGA:   2    -0.367927037890E+03   -0.18727E-02   -0.18662E-02  7056   0.371E-02-0.961E-04
CGA:   3    -0.367927773854E+03   -0.73596E-03   -0.74138E-03  7056   0.712E-03 0.462E-04
CGA:   4    -0.367927909545E+03   -0.13569E-03   -0.13814E-03  7056   0.125E-03 0.216E-04
CGA:   5    -0.367927936223E+03   -0.26678E-04   -0.27241E-04  7056   0.290E-04 0.643E-05
CGA:   6    -0.367927944317E+03   -0.80941E-05   -0.80730E-05  7056   0.107E-04-0.737E-06
  59 F= -.36792794E+03 E0= -.36792794E+03  d E =-.394381E-03  mag=    12.0000
       N       E                     dE             d eps       ncg     rms          ort
SDA:   1    -0.367888640544E+03    0.39296E-01    0.00000E+00  7056   0.111E+00 0.000E+00
CGA:   2    -0.367917907944E+03   -0.29267E-01   -0.29254E-01  7056   0.425E-01-0.342E-03
CGA:   3    -0.367926710326E+03   -0.88024E-02   -0.88526E-02  7056   0.946E-02 0.428E-03
CGA:   4    -0.367928494189E+03   -0.17839E-02   -0.17855E-02  7056   0.180E-02 0.777E-05
CGA:   5    -0.367928861136E+03   -0.36695E-03   -0.36980E-03  7056   0.452E-03 0.287E-04
CGA:   6    -0.367928969057E+03   -0.10792E-03   -0.10904E-03  7056   0.152E-03 0.181E-04
CGA:   7    -0.367929025178E+03   -0.56121E-04   -0.58429E-04  7056   0.110E-03-0.313E-04
CGA:   8    -0.367929054661E+03   -0.29483E-04   -0.29870E-04  7056   0.538E-04-0.923E-05
CGA:   9    -0.367929065032E+03   -0.10372E-04   -0.11184E-04  7056   0.179E-04 0.110E-04
CGA:  10    -0.367929069386E+03   -0.43540E-05   -0.47676E-05  7056   0.670E-05 0.544E-05
  60 F= -.36792907E+03 E0= -.36792907E+03  d E =-.112507E-02  mag=    12.0000
       N       E                     dE             d eps       ncg     rms          ort
SDA:   1    -0.367755338146E+03    0.17373E+00    0.00000E+00  7056   0.460E+00 0.000E+00
CGA:   2    -0.367885868519E+03   -0.13053E+00   -0.13053E+00  7056   0.163E+00-0.274E-03
CGA:   3    -0.367921378104E+03   -0.35510E-01   -0.35560E-01  7056   0.340E-01 0.552E-03
CGA:   4    -0.367927785575E+03   -0.64075E-02   -0.64054E-02  7056   0.677E-02-0.440E-04
CGA:   5    -0.367929230201E+03   -0.14446E-02   -0.14502E-02  7056   0.174E-02 0.766E-04
CGA:   6    -0.367929676739E+03   -0.44654E-03   -0.44721E-03  7056   0.612E-03 0.230E-04
CGA:   7    -0.367929870558E+03   -0.19382E-03   -0.19499E-03  7056   0.320E-03-0.359E-04
CGA:   8    -0.367929969077E+03   -0.98519E-04   -0.98294E-04  7056   0.132E-03 0.512E-05
CGA:   9    -0.367930006078E+03   -0.37002E-04   -0.37169E-04  7056   0.416E-04 0.210E-04
CGA:  10    -0.367930022238E+03   -0.16160E-04   -0.16064E-04  7056   0.182E-04 0.199E-05
CGA:  11    -0.367930030048E+03   -0.78093E-05   -0.81118E-05  7056   0.117E-04-0.218E-05
  61 F= -.36793003E+03 E0= -.36793003E+03  d E =-.960661E-03  mag=    12.0000
       N       E                     dE             d eps       ncg     rms          ort
SDA:   1    -0.366938845857E+03    0.99118E+00    0.00000E+00  7056   0.260E+01 0.000E+00
CGA:   2    -0.367686612439E+03   -0.74777E+00   -0.74779E+00  7056   0.944E+00-0.322E-04
CGA:   3    -0.367888699171E+03   -0.20209E+00   -0.20220E+00  7056   0.191E+00 0.771E-03
CGA:   4    -0.367924124572E+03   -0.35425E-01   -0.35447E-01  7056   0.361E-01 0.841E-04
CGA:   5    -0.367931921648E+03   -0.77971E-02   -0.78089E-02  7056   0.911E-02 0.158E-03
CGA:   6    -0.367934217583E+03   -0.22959E-02   -0.22950E-02  7056   0.311E-02-0.309E-04
CGA:   7    -0.367935164633E+03   -0.94705E-03   -0.95004E-03  7056   0.157E-02-0.128E-03
CGA:   8    -0.367935693306E+03   -0.52867E-03   -0.53216E-03  7056   0.748E-03-0.517E-04
CGA:   9    -0.367935920403E+03   -0.22710E-03   -0.22643E-03  7056   0.248E-03 0.263E-04
CGA:  10    -0.367936006083E+03   -0.85680E-04   -0.85828E-04  7056   0.922E-04-0.331E-05
CGA:  11    -0.367936043197E+03   -0.37114E-04   -0.38373E-04  7056   0.520E-04-0.969E-05
[...]
CGA:  12    -0.367962462290E+03   -0.25958E-03   -0.25686E-03  7056   0.302E-03 0.205E-04
CGA:  13    -0.367962575575E+03   -0.11329E-03   -0.11118E-03  7056   0.972E-04 0.392E-04
CGA:  14    -0.367962619667E+03   -0.44092E-04   -0.44696E-04  7056   0.366E-04-0.595E-05
CGA:  15    -0.367962631915E+03   -0.12247E-04   -0.12082E-04  7056   0.114E-04 0.398E-05
CGA:  16    -0.367962576278E+03    0.55637E-04   -0.30164E-04  7056   0.237E-03-0.474E-04
CGA:  17    -0.367962644486E+03   -0.68209E-04   -0.69721E-04  7056   0.186E-04 0.546E-05
CGA:  18    -0.367962654374E+03   -0.98879E-05   -0.93177E-05  7056   0.168E-04-0.875E-05
  82 F= -.36796265E+03 E0= -.36796265E+03  d E =0.341085E-02  mag=    12.0000
       N       E                     dE             d eps       ncg     rms          ort
SDA:   1    -0.365056494969E+03    0.29061E+01    0.00000E+00  7056   0.703E+01 0.000E+00
CGA:   2    -0.367303488537E+03   -0.22470E+01   -0.22489E+01  7056   0.285E+01 0.252E-02
CGA:   3    -0.367831019224E+03   -0.52753E+00   -0.52791E+00  7056   0.513E+00-0.731E-03
CGA:   4    -0.367931154500E+03   -0.10014E+00   -0.99912E-01  7056   0.978E-01-0.986E-03
CGA:   5    -0.367953288179E+03   -0.22134E-01   -0.22091E-01  7056   0.261E-01-0.202E-03
CGA:   6    -0.367959582697E+03   -0.62945E-02   -0.63090E-02  7056   0.826E-02 0.497E-04
CGA:   7    -0.367962044305E+03   -0.24616E-02   -0.24759E-02  7056   0.367E-02 0.849E-04
CGA:   8    -0.367963390155E+03   -0.13458E-02   -0.13418E-02  7056   0.176E-02-0.441E-04
CGA:   9    -0.367963992099E+03   -0.60194E-03   -0.59303E-03  7056   0.654E-03-0.811E-04
CGA:  10    -0.367964195888E+03   -0.20379E-03   -0.20303E-03  7056   0.225E-03-0.664E-05
CGA:  11    -0.367964282487E+03   -0.86599E-04   -0.86438E-04  7056   0.114E-03-0.326E-05
CGA:  12    -0.367964325831E+03   -0.43344E-04   -0.43893E-04  7056   0.532E-04 0.116E-04
CGA:  13    -0.367964346503E+03   -0.20672E-04   -0.21185E-04  7056   0.197E-04 0.702E-05
CGA:  14    -0.367964350491E+03   -0.39885E-05   -0.55115E-05  7056   0.607E-05 0.829E-05
  83 F= -.36796435E+03 E0= -.36796435E+03  d E =-.169612E-02  mag=    12.0000
       N       E                     dE             d eps       ncg     rms          ort
SDA:   1    -0.364024290286E+03    0.39401E+01    0.00000E+00  7056   0.941E+01 0.000E+00
CGA:   2    -0.367116127379E+03   -0.30918E+01   -0.30921E+01  7056   0.372E+01-0.123E-02
CGA:   3    -0.367791586445E+03   -0.67546E+00   -0.67627E+00  7056   0.665E+00-0.215E-02
CGA:   4    -0.367920434397E+03   -0.12885E+00   -0.12895E+00  7056   0.127E+00 0.210E-03
CGA:   5    -0.367949432881E+03   -0.28998E-01   -0.28996E-01  7056   0.337E-01-0.693E-04
CGA:   6    -0.367957738292E+03   -0.83054E-02   -0.82803E-02  7056   0.110E-01-0.207E-03
CGA:   7    -0.367961087563E+03   -0.33493E-02   -0.33505E-02  7056   0.512E-02 0.161E-04
CGA:   8    -0.367962946440E+03   -0.18589E-02   -0.18588E-02  7056   0.247E-02-0.173E-04
CGA:   9    -0.367963799589E+03   -0.85315E-03   -0.85049E-03  7056   0.938E-03-0.115E-03
CGA:  10    -0.367964094786E+03   -0.29520E-03   -0.29447E-03  7056   0.329E-03-0.199E-04
CGA:  11    -0.367964213014E+03   -0.11823E-03   -0.11821E-03  7056   0.151E-03 0.887E-05
CGA:  12    -0.367964266452E+03   -0.53438E-04   -0.53953E-04  7056   0.634E-04 0.307E-04
CGA:  13    -0.367964292587E+03   -0.26135E-04   -0.26405E-04  7056   0.242E-04 0.146E-04
CGA:  14    -0.367964299074E+03   -0.64869E-05   -0.77045E-05  7056   0.821E-05 0.117E-04
  84 F= -.36796430E+03 E0= -.36796430E+03  d E =0.514172E-04  mag=    12.0000
       N       E                     dE             d eps       ncg     rms          ort
SDA:   1    -0.367298422635E+03    0.66587E+00    0.00000E+00  7056   0.160E+01 0.000E+00
CGA:   2    -0.367816304603E+03   -0.51788E+00   -0.51784E+00  7056   0.638E+00-0.244E-02
CGA:   3    -0.367935455194E+03   -0.11915E+00   -0.11939E+00  7056   0.119E+00 0.827E-03
CGA:   4    -0.367958230370E+03   -0.22775E-01   -0.22873E-01  7056   0.223E-01 0.583E-03
CGA:   5    -0.367963350097E+03   -0.51197E-02   -0.51349E-02  7056   0.613E-02 0.140E-03
CGA:   6    -0.367964909357E+03   -0.15593E-02   -0.15521E-02  7056   0.207E-02-0.965E-04
CGA:   7    -0.367965567008E+03   -0.65765E-03   -0.65724E-03  7056   0.103E-02-0.168E-03
CGA:   8    -0.367965887102E+03   -0.32009E-03   -0.32038E-03  7056   0.420E-03-0.211E-04
CGA:   9    -0.367966006746E+03   -0.11964E-03   -0.12061E-03  7056   0.126E-03 0.303E-04
CGA:  10    -0.367966054761E+03   -0.48015E-04   -0.48263E-04  7056   0.546E-04-0.744E-05
CGA:  11    -0.367966074246E+03   -0.19485E-04   -0.19505E-04  7056   0.266E-04-0.395E-06
CGA:  12    -0.367966086013E+03   -0.11767E-04   -0.12082E-04  7056   0.163E-04-0.246E-05
CGA:  13    -0.367966091965E+03   -0.59522E-05   -0.60345E-05  7056   0.659E-05-0.111E-05
CGA:  14    -0.367966096123E+03   -0.41573E-05    0.46049E-03  7056   0.198E-05-0.130E-06
  85 F= -.36796610E+03 E0= -.36796610E+03  d E =-.179705E-02  mag=    12.0000
       N       E                     dE             d eps       ncg     rms          ort
SDA:   1    -0.367830723677E+03    0.13537E+00    0.00000E+00  7056   0.336E+00 0.000E+00
CGA:   2    -0.367936132230E+03   -0.10541E+00   -0.10542E+00  7056   0.138E+00 0.283E-03
CGA:   3    -0.367961771079E+03   -0.25639E-01   -0.25709E-01  7056   0.269E-01 0.285E-03
CGA:   4    -0.367967183590E+03   -0.54125E-02   -0.53669E-02  7056   0.538E-02-0.386E-03
CGA:   5    -0.367968408688E+03   -0.12251E-02   -0.12185E-02  7056   0.151E-02-0.782E-04
CGA:   6    -0.367968754435E+03   -0.34575E-03   -0.35150E-03  7056   0.466E-03 0.757E-04
CGA:   7    -0.367968901304E+03   -0.14687E-03   -0.14698E-03  7056   0.208E-03 0.147E-04
CGA:   8    -0.367968988877E+03   -0.87573E-04   -0.93629E-04  7056   0.145E-03-0.476E-04
CGA:   9    -0.367969020766E+03   -0.31889E-04   -0.31710E-04  7056   0.477E-04-0.571E-05
CGA:  10    -0.367969032232E+03   -0.11467E-04   -0.11737E-04  7056   0.174E-04 0.476E-05
CGA:  11    -0.367969039316E+03   -0.70833E-05   -0.72447E-05  7056   0.115E-04-0.239E-05
CGA:  12    -0.367969028076E+03    0.11240E-04   -0.12024E-04  7056   0.747E-04-0.260E-04
CGA:  13    -0.367969045565E+03   -0.17489E-04   -0.18085E-04  7056   0.123E-04 0.512E-05
CGA:  14    -0.367969047474E+03   -0.19099E-05   -0.27241E-05  7056   0.396E-05 0.564E-05
  86 F= -.36796905E+03 E0= -.36796905E+03  d E =-.295135E-02  mag=    12.0000
       N       E                     dE             d eps       ncg     rms          ort
SDA:   1    -0.367929701940E+03    0.39344E-01    0.00000E+00  7056   0.938E-01 0.000E+00
CGA:   2    -0.367959963496E+03   -0.30262E-01   -0.30276E-01  7056   0.374E-01 0.604E-03
CGA:   3    -0.367967026750E+03   -0.70633E-02   -0.70253E-02  7056   0.688E-02-0.283E-03
CGA:   4    -0.367968377788E+03   -0.13510E-02   -0.13314E-02  7056   0.134E-02-0.143E-03
CGA:   5    -0.367968676771E+03   -0.29898E-03   -0.29687E-03  7056   0.352E-03-0.209E-04
CGA:   6    -0.367968753024E+03   -0.76253E-04   -0.78137E-04  7056   0.985E-04 0.189E-04
CGA:   7    -0.367968776885E+03   -0.23861E-04   -0.25469E-04  7056   0.367E-04 0.217E-04
CGA:   8    -0.367968791343E+03   -0.14458E-04   -0.14410E-04  7056   0.199E-04 0.798E-05
CGA:   9    -0.367968801308E+03   -0.99648E-05   -0.10498E-04  7056   0.147E-04-0.453E-05
  87 F= -.36796880E+03 E0= -.36796880E+03  d E =0.246166E-03  mag=    12.0000
       N       E                     dE             d eps       ncg     rms          ort
SDA:   1    -0.367954650891E+03    0.14140E-01    0.00000E+00  7056   0.347E-01 0.000E+00
CGA:   2    -0.367965580114E+03   -0.10929E-01   -0.10929E-01  7056   0.136E-01 0.234E-03
CGA:   3    -0.367968200188E+03   -0.26201E-02   -0.26217E-02  7056   0.251E-02-0.335E-05
CGA:   4    -0.367968695229E+03   -0.49504E-03   -0.48434E-03  7056   0.508E-03-0.936E-04
CGA:   5    -0.367968801232E+03   -0.10600E-03   -0.10634E-03  7056   0.120E-03 0.380E-05
CGA:   6    -0.367968826053E+03   -0.24821E-04   -0.25946E-04  7056   0.319E-04 0.131E-04
CGA:   7    -0.367968839345E+03   -0.13293E-04   -0.14272E-04  7056   0.283E-04-0.903E-05
CGA:   8    -0.367968845881E+03   -0.65359E-05   -0.66378E-05  7056   0.152E-04-0.382E-05
  88 F= -.36796885E+03 E0= -.36796885E+03  d E =-.445731E-04  mag=    12.0000
       N       E                     dE             d eps       ncg     rms          ort
SDA:   1    -0.365865238805E+03    0.21036E+01    0.00000E+00  7056   0.518E+01 0.000E+00
CGA:   2    -0.367465844309E+03   -0.16006E+01   -0.16005E+01  7056   0.211E+01 0.594E-02
CGA:   3    -0.367869482249E+03   -0.40364E+00   -0.40373E+00  7056   0.380E+00-0.183E-02
CGA:   4    -0.367940592888E+03   -0.71111E-01   -0.70966E-01  7056   0.716E-01-0.162E-02
CGA:   5    -0.367956579410E+03   -0.15987E-01   -0.15987E-01  7056   0.181E-01-0.748E-05
CGA:   6    -0.367960884909E+03   -0.43055E-02   -0.43138E-02  7056   0.547E-02 0.170E-03
CGA:   7    -0.367962622762E+03   -0.17379E-02   -0.17412E-02  7056   0.273E-02-0.101E-03
CGA:   8    -0.367963607049E+03   -0.98429E-03   -0.99246E-03  7056   0.143E-02-0.937E-04
CGA:   9    -0.367964062457E+03   -0.45541E-03   -0.45509E-03  7056   0.503E-03 0.712E-05
CGA:  10    -0.367964234035E+03   -0.17158E-03   -0.17233E-03  7056   0.190E-03-0.150E-04
CGA:  11    -0.367964304989E+03   -0.70954E-04   -0.71051E-04  7056   0.902E-04-0.105E-05
CGA:  12    -0.367964342058E+03   -0.37069E-04   -0.36387E-04  7056   0.427E-04 0.627E-05
CGA:  13    -0.367964355594E+03   -0.13536E-04   -0.13598E-04  7056   0.140E-04 0.126E-04
CGA:  14    -0.367964362552E+03   -0.69588E-05   -0.69647E-05  7056   0.619E-05-0.667E-07
  89 F= -.36796436E+03 E0= -.36796436E+03  d E =0.448333E-02  mag=    12.0000
       N       E                     dE             d eps       ncg     rms          ort
SDA:   1    -0.358524670604E+03    0.94397E+01    0.00000E+00  7056   0.229E+02 0.000E+00
CGA:   2    -0.365805949982E+03   -0.72813E+01   -0.72807E+01  7056   0.899E+01 0.268E-01
CGA:   3    -0.367521550525E+03   -0.17156E+01   -0.17166E+01  7056   0.159E+01-0.562E-02
CGA:   4    -0.367824350030E+03   -0.30280E+00   -0.30233E+00  7056   0.311E+00-0.552E-02
CGA:   5    -0.367894294340E+03   -0.69944E-01   -0.69923E-01  7056   0.796E-01-0.376E-03
CGA:   6    -0.367913154801E+03   -0.18860E-01   -0.18899E-01  7056   0.241E-01 0.657E-03
CGA:   7    -0.367920539821E+03   -0.73850E-02   -0.73846E-02  7056   0.109E-01 0.161E-04
CGA:   8    -0.367924443743E+03   -0.39039E-02   -0.39270E-02  7056   0.527E-02-0.329E-03
CGA:   9    -0.367926151014E+03   -0.17073E-02   -0.17142E-02  7056   0.183E-02-0.166E-03
CGA:  10    -0.367926737100E+03   -0.58609E-03   -0.58828E-03  7056   0.643E-03-0.614E-04
CGA:  11    -0.367926978627E+03   -0.24153E-03   -0.24201E-03  7056   0.320E-03-0.536E-05
CGA:  12    -0.367927118685E+03   -0.14006E-03   -0.13774E-03  7056   0.177E-03 0.174E-04
CGA:  13    -0.367927175660E+03   -0.56976E-04   -0.57121E-04  7056   0.627E-04 0.517E-04
CGA:  14    -0.367927200015E+03   -0.24355E-04   -0.24468E-04  7056   0.211E-04 0.184E-04
CGA:  15    -0.367927207943E+03   -0.79280E-05   -0.80457E-05  7056   0.816E-05 0.910E-05
  90 F= -.36792721E+03 E0= -.36792721E+03  d E =0.371546E-01  mag=    12.0000
       N       E                     dE             d eps       ncg     rms          ort
SDA:   1    -0.364330235125E+03    0.35970E+01    0.00000E+00  7056   0.888E+01 0.000E+00
CGA:   2    -0.367064508024E+03   -0.27343E+01   -0.27343E+01  7056   0.366E+01-0.582E-02
CGA:   3    -0.367768764268E+03   -0.70426E+00   -0.70481E+00  7056   0.706E+00 0.495E-03
CGA:   4    -0.367902436676E+03   -0.13367E+00   -0.13386E+00  7056   0.136E+00 0.113E-02
CGA:   5    -0.367933487232E+03   -0.31051E-01   -0.31044E-01  7056   0.376E-01-0.153E-03
CGA:   6    -0.367943077856E+03   -0.95906E-02   -0.95763E-02  7056   0.131E-01-0.431E-03
CGA:   7    -0.367947083184E+03   -0.40053E-02   -0.40074E-02  7056   0.607E-02-0.101E-03
CGA:   8    -0.367949177865E+03   -0.20947E-02   -0.20964E-02  7056   0.274E-02-0.306E-04
CGA:   9    -0.367950106328E+03   -0.92846E-03   -0.93531E-03  7056   0.104E-02-0.135E-03
CGA:  10    -0.367950437793E+03   -0.33147E-03   -0.33288E-03  7056   0.386E-03-0.334E-04
CGA:  11    -0.367950575998E+03   -0.13820E-03   -0.13713E-03  7056   0.173E-03 0.152E-04
CGA:  12    -0.367950639441E+03   -0.63444E-04   -0.61824E-04  7056   0.709E-04 0.372E-04
CGA:  13    -0.367950671520E+03   -0.32079E-04   -0.31338E-04  7056   0.293E-04 0.119E-04
CGA:  14    -0.367950679327E+03   -0.78071E-05   -0.85579E-05  7056   0.996E-05 0.136E-04
  91 F= -.36795068E+03 E0= -.36795068E+03  d E =-.234714E-01  mag=    12.0000
       N       E                     dE             d eps       ncg     rms          ort
SDA:   1    -0.358186010352E+03    0.97647E+01    0.00000E+00  7056   0.237E+02 0.000E+00
CGA:   2    -0.365819838296E+03   -0.76338E+01   -0.76334E+01  7056   0.902E+01-0.319E-02
CGA:   3    -0.367541497328E+03   -0.17217E+01   -0.17239E+01  7056   0.161E+01 0.799E-02
CGA:   4    -0.367847679062E+03   -0.30618E+00   -0.30653E+00  7056   0.318E+00 0.212E-02
CGA:   5    -0.367919539927E+03   -0.71861E-01   -0.71856E-01  7056   0.809E-01-0.135E-03
CGA:   6    -0.367939058950E+03   -0.19519E-01   -0.19493E-01  7056   0.250E-01-0.624E-03
CGA:   7    -0.367946562630E+03   -0.75037E-02   -0.75142E-02  7056   0.113E-01-0.572E-03
CGA:   8    -0.367950451823E+03   -0.38892E-02   -0.39207E-02  7056   0.524E-02-0.446E-03
CGA:   9    -0.367952139649E+03   -0.16878E-02   -0.17013E-02  7056   0.185E-02-0.276E-03
CGA:  10    -0.367952724395E+03   -0.58475E-03   -0.59021E-03  7056   0.647E-03-0.121E-03
CGA:  11    -0.367952951834E+03   -0.22744E-03   -0.22725E-03  7056   0.293E-03 0.224E-05
CGA:  12    -0.367953085612E+03   -0.13378E-03   -0.13342E-03  7056   0.171E-03 0.233E-05
CGA:  13    -0.367953149707E+03   -0.64095E-04   -0.62712E-04  7056   0.638E-04 0.236E-04
CGA:  14    -0.367953181000E+03   -0.31294E-04   -0.34523E-04  7056   0.416E-04-0.193E-04
CGA:  15    -0.367953185047E+03   -0.40467E-05   -0.54566E-05  7056   0.189E-04 0.110E-04
  92 F= -.36795319E+03 E0= -.36795319E+03  d E =-.250572E-02  mag=    12.0000
       N       E                     dE             d eps       ncg     rms          ort
SDA:   1    -0.366746689187E+03    0.12065E+01    0.00000E+00  7056   0.288E+01 0.000E+00
CGA:   2    -0.367685618929E+03   -0.93893E+00   -0.93902E+00  7056   0.101E+01-0.376E-02
CGA:   3    -0.367894620824E+03   -0.20900E+00   -0.20910E+00  7056   0.216E+00 0.181E-04
CGA:   4    -0.367935912031E+03   -0.41291E-01   -0.41376E-01  7056   0.446E-01 0.614E-03
CGA:   5    -0.367946468344E+03   -0.10556E-01   -0.10571E-01  7056   0.128E-01 0.255E-03
CGA:   6    -0.367949940249E+03   -0.34719E-02   -0.34670E-02  7056   0.487E-02-0.239E-03
CGA:   7    -0.367951411246E+03   -0.14710E-02   -0.14770E-02  7056   0.220E-02-0.325E-03
CGA:   8    -0.367952064966E+03   -0.65372E-03   -0.65405E-03  7056   0.760E-03-0.118E-04
CGA:   9    -0.367952276396E+03   -0.21143E-03   -0.21228E-03  7056   0.220E-03 0.716E-04
CGA:  10    -0.367952358466E+03   -0.82069E-04   -0.82191E-04  7056   0.911E-04-0.253E-05
CGA:  11    -0.367952394499E+03   -0.36034E-04   -0.36726E-04  7056   0.509E-04-0.614E-05
CGA:  12    -0.367952414710E+03   -0.20210E-04   -0.20629E-04  7056   0.297E-04-0.314E-05
CGA:  13    -0.367952423007E+03   -0.82970E-05   -0.83400E-05  7056   0.114E-04 0.541E-05
  93 F= -.36795242E+03 E0= -.36795242E+03  d E =0.762040E-03  mag=    12.0000
       N       E                     dE             d eps       ncg     rms          ort
SDA:   1    -0.364269936040E+03    0.36825E+01    0.00000E+00  7056   0.890E+01 0.000E+00
CGA:   2    -0.367165778999E+03   -0.28958E+01   -0.28958E+01  7056   0.339E+01 0.117E-01
CGA:   3    -0.367808184866E+03   -0.64241E+00   -0.64233E+00  7056   0.614E+00-0.484E-02
CGA:   4    -0.367925806498E+03   -0.11762E+00   -0.11735E+00  7056   0.121E+00-0.256E-02
CGA:   5    -0.367952880423E+03   -0.27074E-01   -0.27057E-01  7056   0.310E-01-0.234E-03
CGA:   6    -0.367960206221E+03   -0.73258E-02   -0.73479E-02  7056   0.929E-02 0.302E-03
CGA:   7    -0.367962984713E+03   -0.27785E-02   -0.27795E-02  7056   0.403E-02 0.149E-03
CGA:   8    -0.367964460751E+03   -0.14760E-02   -0.14814E-02  7056   0.192E-02-0.924E-04
CGA:   9    -0.367965094437E+03   -0.63369E-03   -0.63668E-03  7056   0.683E-03-0.907E-04
CGA:  10    -0.367965302812E+03   -0.20838E-03   -0.20851E-03  7056   0.223E-03-0.102E-04
CGA:  11    -0.367965388540E+03   -0.85728E-04   -0.86209E-04  7056   0.115E-03-0.574E-05
CGA:  12    -0.367965432966E+03   -0.44426E-04   -0.43218E-04  7056   0.562E-04 0.162E-04
CGA:  13    -0.367965454293E+03   -0.21327E-04   -0.21124E-04  7056   0.220E-04 0.154E-04
CGA:  14    -0.367965459677E+03   -0.53843E-05   -0.64627E-05  7056   0.808E-05 0.126E-04
  94 F= -.36796546E+03 E0= -.36796546E+03  d E =-.130367E-01  mag=    12.0000
       N       E                     dE             d eps       ncg     rms          ort
SDA:   1    -0.367835842953E+03    0.12961E+00    0.00000E+00  7056   0.316E+00 0.000E+00
CGA:   2    -0.367932749411E+03   -0.96906E-01   -0.96913E-01  7056   0.134E+00 0.104E-02
CGA:   3    -0.367957874003E+03   -0.25125E-01   -0.25188E-01  7056   0.258E-01 0.328E-03
CGA:   4    -0.367963118384E+03   -0.52444E-02   -0.51851E-02  7056   0.508E-02-0.580E-03
CGA:   5    -0.367964256404E+03   -0.11380E-02   -0.11318E-02  7056   0.141E-02-0.873E-04
CGA:   6    -0.367964557961E+03   -0.30156E-03   -0.31083E-03  7056   0.397E-03 0.127E-03
CGA:   7    -0.367964672356E+03   -0.11440E-03   -0.11600E-03  7056   0.157E-03 0.644E-04
CGA:   8    -0.367964742350E+03   -0.69994E-04   -0.70642E-04  7056   0.974E-04-0.677E-05
CGA:   9    -0.367964769799E+03   -0.27450E-04   -0.27453E-04  7056   0.332E-04 0.166E-05
CGA:  10    -0.367964779089E+03   -0.92893E-05   -0.93500E-05  7056   0.114E-04 0.308E-05
  95 F= -.36796478E+03 E0= -.36796478E+03  d E =0.680589E-03  mag=    12.0000
       N       E                     dE             d eps       ncg     rms          ort
SDA:   1    -0.367945529318E+03    0.19240E-01    0.00000E+00  7056   0.480E-01 0.000E+00
CGA:   2    -0.367961211785E+03   -0.15682E-01   -0.15688E-01  7056   0.172E-01-0.217E-03
CGA:   3    -0.367964737754E+03   -0.35260E-02   -0.35288E-02  7056   0.372E-02 0.129E-04
CGA:   4    -0.367965436144E+03   -0.69839E-03   -0.70427E-03  7056   0.762E-03 0.522E-04
CGA:   5    -0.367965609718E+03   -0.17357E-03   -0.17615E-03  7056   0.207E-03 0.412E-04
CGA:   6    -0.367965676269E+03   -0.66551E-04   -0.67034E-04  7056   0.101E-03-0.243E-04
CGA:   7    -0.367965704842E+03   -0.28573E-04   -0.44745E-04  7056   0.146E-03-0.754E-04
CGA:   8    -0.367965722580E+03   -0.17737E-04   -0.21593E-04  7056   0.182E-04 0.255E-04
CGA:   9    -0.367965724042E+03   -0.14622E-05   -0.30797E-05  7056   0.779E-05 0.110E-04
  96 F= -.36796572E+03 E0= -.36796572E+03  d E =-.944953E-03  mag=    12.0000
       N       E                     dE             d eps       ncg     rms          ort
SDA:   1    -0.367927423999E+03    0.38299E-01    0.00000E+00  7056   0.907E-01 0.000E+00
CGA:   2    -0.367957251340E+03   -0.29827E-01   -0.29802E-01  7056   0.342E-01 0.503E-03
CGA:   3    -0.367963745036E+03   -0.64937E-02   -0.64721E-02  7056   0.626E-02-0.262E-03
CGA:   4    -0.367964947125E+03   -0.12021E-02   -0.11977E-02  7056   0.121E-02-0.546E-04
CGA:   5    -0.367965213502E+03   -0.26638E-03   -0.26670E-03  7056   0.298E-03 0.585E-05
CGA:   6    -0.367965286498E+03   -0.72996E-04   -0.72866E-04  7056   0.927E-04-0.463E-05
CGA:   7    -0.367965312652E+03   -0.26154E-04   -0.26108E-04  7056   0.381E-04 0.302E-05
CGA:   8    -0.367965323855E+03   -0.11203E-04   -0.11112E-04  7056   0.142E-04 0.857E-05
CGA:   9    -0.367965329101E+03   -0.52461E-05   -0.51601E-05  7056   0.559E-05 0.356E-05
  97 F= -.36796533E+03 E0= -.36796533E+03  d E =0.394941E-03  mag=    12.0000
