       N       E                     dE             d eps       ncg     rms          rms(c)
DAV:   1     0.232044348038E+04    0.23204E+04   -0.12020E+05 39912   0.147E+03
DAV:   2    -0.882923373702E+02   -0.24087E+04   -0.23257E+04 42528   0.401E+02
DAV:   3    -0.314487281213E+03   -0.22619E+03   -0.22187E+03 45184   0.139E+02
DAV:   4    -0.323250817275E+03   -0.87635E+01   -0.86150E+01 57248   0.303E+01
DAV:   5    -0.323661517906E+03   -0.41070E+00   -0.40927E+00 62192   0.482E+00    0.851E+01
DAV:   6    -0.297692788602E+03    0.25969E+02   -0.48896E+02 53240   0.672E+01    0.912E+01
DAV:   7    -0.286213302520E+03    0.11479E+02   -0.23343E+02 55184   0.136E+02    0.437E+01
DAV:   8    -0.276069298795E+03    0.10144E+02   -0.10617E+02 54976   0.354E+01    0.283E+01
DAV:   9    -0.270896415327E+03    0.51729E+01   -0.68710E+01 52920   0.171E+01    0.285E+01
DAV:  10    -0.268205810846E+03    0.26906E+01   -0.57614E+01 54488   0.138E+01    0.234E+01
DAV:  11    -0.266924848033E+03    0.12810E+01   -0.41501E+01 54896   0.116E+01    0.227E+01
DAV:  12    -0.268133356879E+03   -0.12085E+01   -0.35181E+01 54648   0.705E+00    0.268E+01
DAV:  13    -0.265603509265E+03    0.25298E+01   -0.23822E+00 53512   0.591E+00    0.146E+01
DAV:  14    -0.265790630464E+03   -0.18712E+00   -0.24121E-01 47056   0.122E+00    0.158E+01
DAV:  15    -0.265851330599E+03   -0.60700E-01   -0.61342E-02 57248   0.480E-01    0.165E+01
DAV:  16    -0.265847590911E+03    0.37397E-02   -0.66077E-03 50448   0.211E-01    0.165E+01
DAV:  17    -0.265869609167E+03   -0.22018E-01   -0.91460E-03 52384   0.314E-01    0.171E+01
DAV:  18    -0.265826569041E+03    0.43040E-01   -0.13559E-01 52776   0.131E+00    0.142E+01
DAV:  19    -0.265699331868E+03    0.12724E+00   -0.48546E-01 53936   0.275E+00    0.886E+00
DAV:  20    -0.265719879229E+03   -0.20547E-01   -0.46677E-01 53040   0.186E+00    0.716E+00
DAV:  21    -0.265838115613E+03   -0.11824E+00   -0.58702E-01 53352   0.128E+00    0.840E+00
DAV:  22    -0.265807799666E+03    0.30316E-01   -0.14165E-01 52936   0.992E-01    0.682E+00
DAV:  23    -0.265846270229E+03   -0.38471E-01   -0.15172E-01 53976   0.106E+00    0.472E+00
DAV:  24    -0.265909045202E+03   -0.62775E-01   -0.77277E-01 53824   0.211E+00    0.566E+00
DAV:  25    -0.265959024911E+03   -0.49980E-01   -0.11740E-01 50448   0.105E+00    0.736E+00
DAV:  26    -0.265876491946E+03    0.82533E-01   -0.85529E-02 55832   0.146E+00    0.660E+00
DAV:  27    -0.265861418958E+03    0.15073E-01   -0.65094E-02 54408   0.634E-01    0.556E+00
DAV:  28    -0.265887859757E+03   -0.26441E-01   -0.35020E-02 52544   0.965E-01    0.432E+00
DAV:  29    -0.265877764479E+03    0.10095E-01   -0.78234E-02 54136   0.974E-01    0.251E+00
DAV:  30    -0.265889766596E+03   -0.12002E-01   -0.45082E-02 53880   0.664E-01    0.202E+00
DAV:  31    -0.265892850181E+03   -0.30836E-02   -0.13857E-02 53936   0.499E-01    0.116E+00
DAV:  32    -0.265899612024E+03   -0.67618E-02   -0.15719E-02 52768   0.360E-01    0.915E-01
DAV:  33    -0.265903793378E+03   -0.41814E-02   -0.90531E-03 53776   0.260E-01    0.941E-01
DAV:  34    -0.265904438659E+03   -0.64528E-03   -0.13107E-03 49480   0.124E-01    0.891E-01
DAV:  35    -0.265904112992E+03    0.32567E-03   -0.18352E-03 52488   0.147E-01    0.720E-01
DAV:  36    -0.265904583119E+03   -0.47013E-03   -0.33388E-03 51440   0.206E-01    0.220E-01
DAV:  37    -0.265904930725E+03   -0.34761E-03   -0.12311E-03 51912   0.131E-01    0.188E-01
DAV:  38    -0.265905023632E+03   -0.92907E-04   -0.41495E-04 53928   0.713E-02    0.189E-01
DAV:  39    -0.265905101922E+03   -0.78290E-04   -0.10291E-04 39384   0.391E-02    0.174E-01
DAV:  40    -0.265905110045E+03   -0.81225E-05   -0.99406E-05 39648   0.434E-02
   1 F= -.26590511E+03 E0= -.26589584E+03  d E =-.265905E+03  mag=     4.0016
       N       E                     dE             d eps       ncg     rms          rms(c)
DAV:   1    -0.265961473717E+03   -0.56372E-01   -0.32453E-02 40696   0.625E-01    0.139E-01
DAV:   2    -0.265963067408E+03   -0.15937E-02   -0.12344E-02 53416   0.266E-01    0.937E-01
DAV:   3    -0.265961313765E+03    0.17536E-02   -0.79372E-03 53312   0.218E-01    0.122E-01
DAV:   4    -0.265961577017E+03   -0.26325E-03   -0.30593E-04 40848   0.441E-02    0.114E-01
DAV:   5    -0.265961574705E+03    0.23117E-05   -0.18936E-04 33136   0.381E-02    0.770E-02
DAV:   6    -0.265961585475E+03   -0.10770E-04   -0.22069E-04 38568   0.347E-02    0.136E-01
DAV:   7    -0.265961561752E+03    0.23723E-04   -0.27612E-04 32000   0.371E-02    0.564E-02
DAV:   8    -0.265961572802E+03   -0.11050E-04   -0.58529E-05 26304   0.188E-02    0.332E-02
DAV:   9    -0.265961573620E+03   -0.81766E-06   -0.87761E-06 22184   0.112E-02
   2 F= -.26596157E+03 E0= -.26595232E+03  d E =-.564636E-01  mag=     4.0000
       N       E                     dE             d eps       ncg     rms          rms(c)
DAV:   1    -0.267136766713E+03   -0.11752E+01   -0.23301E+01 38808   0.168E+01    0.285E+00
DAV:   2    -0.267791748993E+03   -0.65498E+00   -0.40540E+00 52176   0.551E+00    0.170E+01
DAV:   3    -0.267169035799E+03    0.62271E+00   -0.30170E+00 53376   0.416E+00    0.143E+00
DAV:   4    -0.267268885247E+03   -0.99849E-01   -0.35207E-01 57624   0.134E+00    0.587E+00
DAV:   5    -0.267213806826E+03    0.55078E-01   -0.31075E-01 54864   0.116E+00    0.100E+00
DAV:   6    -0.267236125495E+03   -0.22319E-01   -0.11743E-01 54560   0.691E-01    0.309E+00
DAV:   7    -0.267220430454E+03    0.15695E-01   -0.78705E-02 53344   0.627E-01    0.454E-01
DAV:   8    -0.267223788138E+03   -0.33577E-02   -0.39923E-03 51032   0.205E-01    0.397E-01
DAV:   9    -0.267223797304E+03   -0.91662E-05   -0.13089E-03 55256   0.104E-01    0.423E-01
DAV:  10    -0.267223408418E+03    0.38889E-03   -0.13742E-03 54192   0.116E-01    0.182E-01
DAV:  11    -0.267223510791E+03   -0.10237E-03   -0.98074E-04 56864   0.898E-02    0.230E-01
DAV:  12    -0.267223523128E+03   -0.12338E-04   -0.41069E-04 51584   0.747E-02    0.121E-01
DAV:  13    -0.267223546495E+03   -0.23366E-04   -0.12841E-04 34728   0.420E-02    0.946E-02
DAV:  14    -0.267223548515E+03   -0.20204E-05   -0.70454E-05 38928   0.317E-02
   3 F= -.26722355E+03 E0= -.26721416E+03  d E =-.126197E+01  mag=     4.0000
       N       E                     dE             d eps       ncg     rms          rms(c)
DAV:   1    -0.267879154911E+03   -0.65561E+00   -0.14358E+02 39528   0.443E+01    0.748E+00
DAV:   2    -0.272559668168E+03   -0.46805E+01   -0.24373E+01 51528   0.154E+01    0.300E+01
DAV:   3    -0.268885370079E+03    0.36743E+01   -0.12321E+01 55224   0.123E+01    0.892E+00
DAV:   4    -0.269102517136E+03   -0.21715E+00   -0.28337E+00 56104   0.321E+00    0.135E+01
DAV:   5    -0.268816493915E+03    0.28602E+00   -0.21514E+00 55536   0.276E+00    0.528E+00
DAV:   6    -0.268925471926E+03   -0.10898E+00   -0.80760E-01 53440   0.169E+00    0.750E+00
DAV:   7    -0.268891647076E+03    0.33825E-01   -0.41430E-01 53360   0.142E+00    0.456E+00
DAV:   8    -0.268895185861E+03   -0.35388E-02   -0.10439E-01 55000   0.105E+00    0.279E+00
DAV:   9    -0.268885515925E+03    0.96699E-02   -0.75653E-02 55616   0.796E-01    0.148E+00
DAV:  10    -0.268885988616E+03   -0.47269E-03   -0.34666E-02 58024   0.547E-01    0.891E-01
DAV:  11    -0.268887129105E+03   -0.11405E-02   -0.18710E-02 56768   0.357E-01    0.886E-01
DAV:  12    -0.268887470676E+03   -0.34157E-03   -0.94487E-03 56552   0.247E-01    0.789E-01
DAV:  13    -0.268886961302E+03    0.50937E-03   -0.45693E-03 53696   0.176E-01    0.503E-01
DAV:  14    -0.268886946698E+03    0.14604E-04   -0.21237E-03 54104   0.121E-01    0.349E-01
DAV:  15    -0.268887109127E+03   -0.16243E-03   -0.13794E-03 54920   0.926E-02    0.159E-01
DAV:  16    -0.268887194355E+03   -0.85228E-04   -0.32564E-04 50664   0.586E-02    0.118E-01
DAV:  17    -0.268887213923E+03   -0.19569E-04   -0.16742E-04 43792   0.478E-02    0.111E-01
DAV:  18    -0.268887211194E+03    0.27293E-05   -0.10807E-04 38328   0.424E-02    0.956E-02
DAV:  19    -0.268887232237E+03   -0.21043E-04   -0.78795E-05 36392   0.312E-02    0.770E-02
DAV:  20    -0.268887240644E+03   -0.84065E-05   -0.45983E-05 29504   0.292E-02
   4 F= -.26888724E+03 E0= -.26887737E+03  d E =-.166369E+01  mag=     4.0002
       N       E                     dE             d eps       ncg     rms          rms(c)
DAV:   1    -0.268990037349E+03   -0.10281E+00   -0.36125E+01 39312   0.233E+01    0.275E+00
DAV:   2    -0.269714235734E+03   -0.72420E+00   -0.51687E+00 49856   0.640E+00    0.171E+01
DAV:   3    -0.269155019752E+03    0.55922E+00   -0.29847E+00 54832   0.393E+00    0.218E+00
DAV:   4    -0.269256027849E+03   -0.10101E+00   -0.54299E-01 54248   0.147E+00    0.591E+00
DAV:   5    -0.269194362410E+03    0.61665E-01   -0.25353E-01 55344   0.121E+00    0.101E+00
DAV:   6    -0.269221557803E+03   -0.27195E-01   -0.15775E-01 55248   0.805E-01    0.392E+00
DAV:   7    -0.269196859925E+03    0.24698E-01   -0.11164E-01 55496   0.793E-01    0.742E-01
DAV:   8    -0.269202063931E+03   -0.52040E-02   -0.81966E-03 54816   0.333E-01    0.689E-01
DAV:   9    -0.269201745928E+03    0.31800E-03   -0.26379E-03 55504   0.185E-01    0.499E-01
DAV:  10    -0.269201320442E+03    0.42549E-03   -0.13303E-03 54352   0.147E-01    0.275E-01
DAV:  11    -0.269201418799E+03   -0.98357E-04   -0.22967E-03 57248   0.115E-01    0.205E-01
DAV:  12    -0.269201526291E+03   -0.10749E-03   -0.99011E-04 52648   0.797E-02    0.169E-01
DAV:  13    -0.269201544917E+03   -0.18626E-04   -0.26808E-04 49032   0.520E-02    0.126E-01
DAV:  14    -0.269201533141E+03    0.11776E-04   -0.17053E-04 35080   0.378E-02    0.797E-02
DAV:  15    -0.269201526923E+03    0.62181E-05   -0.12537E-04 37536   0.328E-02    0.533E-02
DAV:  16    -0.269201537898E+03   -0.10975E-04   -0.83366E-05 27416   0.250E-02    0.375E-02
DAV:  17    -0.269201542220E+03   -0.43224E-05   -0.21052E-05 24712   0.167E-02
   5 F= -.26920154E+03 E0= -.26919155E+03  d E =-.314302E+00  mag=     4.0000
       N       E                     dE             d eps       ncg     rms          rms(c)
DAV:   1    -0.269128550998E+03    0.72987E-01   -0.31831E+01 39312   0.250E+01    0.216E+00
DAV:   2    -0.269519520914E+03   -0.39097E+00   -0.35215E+00 44752   0.553E+00    0.111E+01
DAV:   3    -0.269325209096E+03    0.19431E+00   -0.14198E+00 54360   0.256E+00    0.179E+00
DAV:   4    -0.269396144030E+03   -0.70935E-01   -0.41192E-01 55520   0.127E+00    0.636E+00
DAV:   5    -0.269335158578E+03    0.60985E-01   -0.32733E-01 53816   0.112E+00    0.106E+00
DAV:   6    -0.269356676366E+03   -0.21518E-01   -0.11527E-01 54352   0.652E-01    0.312E+00
DAV:   7    -0.269341264498E+03    0.15412E-01   -0.58928E-02 54512   0.617E-01    0.496E-01
DAV:   8    -0.269344432387E+03   -0.31679E-02   -0.58685E-03 54832   0.269E-01    0.516E-01
DAV:   9    -0.269344492044E+03   -0.59657E-04   -0.21043E-03 56304   0.161E-01    0.417E-01
DAV:  10    -0.269344402374E+03    0.89670E-04   -0.74575E-04 53720   0.110E-01    0.349E-01
DAV:  11    -0.269344227976E+03    0.17440E-03   -0.17473E-03 56896   0.115E-01    0.177E-01
DAV:  12    -0.269344308573E+03   -0.80597E-04   -0.67787E-04 52400   0.704E-02    0.133E-01
DAV:  13    -0.269344340379E+03   -0.31806E-04   -0.27984E-04 48360   0.473E-02    0.857E-02
DAV:  14    -0.269344344818E+03   -0.44393E-05   -0.60177E-05 32688   0.295E-02
   6 F= -.26934434E+03 E0= -.26933422E+03  d E =-.142803E+00  mag=     4.0000
       N       E                     dE             d eps       ncg     rms          rms(c)
DAV:   1    -0.269156259780E+03    0.18808E+00   -0.52671E+01 40320   0.322E+01    0.258E+00
DAV:   2    -0.269556571790E+03   -0.40031E+00   -0.39001E+00 41216   0.612E+00    0.969E+00
DAV:   3    -0.269432974237E+03    0.12360E+00   -0.16507E+00 53416   0.265E+00    0.370E+00
DAV:   4    -0.269487132613E+03   -0.54158E-01   -0.60534E-01 55424   0.150E+00    0.631E+00
DAV:   5    -0.269419647311E+03    0.67485E-01   -0.29033E-01 54248   0.122E+00    0.925E-01
DAV:   6    -0.269446918623E+03   -0.27271E-01   -0.15025E-01 53552   0.787E-01    0.398E+00
DAV:   7    -0.269422811749E+03    0.24107E-01   -0.89669E-02 54000   0.704E-01    0.712E-01
DAV:   8    -0.269427769661E+03   -0.49579E-02   -0.78682E-03 53624   0.359E-01    0.623E-01
DAV:   9    -0.269428255270E+03   -0.48561E-03   -0.77193E-03 55584   0.208E-01    0.470E-01
DAV:  10    -0.269428483681E+03   -0.22841E-03   -0.15054E-03 54864   0.133E-01    0.372E-01
DAV:  11    -0.269428313544E+03    0.17014E-03   -0.12515E-03 54560   0.116E-01    0.301E-01
DAV:  12    -0.269428245062E+03    0.68482E-04   -0.16516E-03 55152   0.100E-01    0.189E-01
DAV:  13    -0.269428383176E+03   -0.13811E-03   -0.41718E-04 48528   0.646E-02    0.168E-01
DAV:  14    -0.269428369098E+03    0.14078E-04   -0.33708E-04 48232   0.580E-02    0.757E-02
DAV:  15    -0.269428380241E+03   -0.11143E-04   -0.60233E-05 33936   0.271E-02    0.686E-02
DAV:  16    -0.269428382497E+03   -0.22560E-05   -0.55765E-05 28880   0.257E-02
   7 F= -.26942838E+03 E0= -.26941825E+03  d E =-.840377E-01  mag=     4.0000
       N       E                     dE             d eps       ncg     rms          rms(c)
DAV:   1    -0.269057084152E+03    0.37130E+00   -0.98215E+01 40320   0.396E+01    0.340E+00
DAV:   2    -0.269572787678E+03   -0.51570E+00   -0.52611E+00 42256   0.735E+00    0.861E+00
DAV:   3    -0.269502674802E+03    0.70113E-01   -0.12073E+00 54744   0.313E+00    0.686E+00
DAV:   4    -0.269466210782E+03    0.36464E-01   -0.60097E-01 54912   0.165E+00    0.432E+00
DAV:   5    -0.269447541887E+03    0.18669E-01   -0.20461E-01 53424   0.909E-01    0.155E+00
DAV:   6    -0.269461548314E+03   -0.14006E-01   -0.13272E-01 54256   0.845E-01    0.338E+00
DAV:   7    -0.269444594131E+03    0.16954E-01   -0.13110E-01 54192   0.789E-01    0.127E+00
DAV:   8    -0.269446089854E+03   -0.14957E-02   -0.34317E-02 55776   0.554E-01    0.103E+00
DAV:   9    -0.269446019395E+03    0.70459E-04   -0.85577E-03 54192   0.310E-01    0.623E-01
DAV:  10    -0.269446309745E+03   -0.29035E-03   -0.31127E-03 53584   0.157E-01    0.520E-01
DAV:  11    -0.269446445035E+03   -0.13529E-03   -0.35007E-03 55672   0.169E-01    0.644E-01
DAV:  12    -0.269445946751E+03    0.49828E-03   -0.21466E-03 54568   0.139E-01    0.291E-01
DAV:  13    -0.269446276222E+03   -0.32947E-03   -0.29950E-03 54064   0.104E-01    0.299E-01
DAV:  14    -0.269446291603E+03   -0.15381E-04   -0.73787E-04 50600   0.806E-02    0.131E-01
DAV:  15    -0.269446322900E+03   -0.31297E-04   -0.14857E-04 47000   0.458E-02    0.837E-02
DAV:  16    -0.269446330547E+03   -0.76475E-05   -0.41786E-05 33248   0.258E-02
   8 F= -.26944633E+03 E0= -.26943610E+03  d E =-.179481E-01  mag=     4.0000
       N       E                     dE             d eps       ncg     rms          rms(c)
DAV:   1    -0.269468307909E+03   -0.21985E-01   -0.94482E+00 39312   0.130E+01    0.171E+00
DAV:   2    -0.269535032008E+03   -0.66724E-01   -0.67214E-01 42960   0.261E+00    0.399E+00
DAV:   3    -0.269527795186E+03    0.72368E-02   -0.42316E-01 53736   0.146E+00    0.361E+00
DAV:   4    -0.269524524945E+03    0.32702E-02   -0.20863E-01 54616   0.937E-01    0.308E+00
DAV:   5    -0.269509331009E+03    0.15194E-01   -0.92001E-02 53944   0.692E-01    0.498E-01
DAV:   6    -0.269512893769E+03   -0.35628E-02   -0.18184E-02 54136   0.318E-01    0.129E+00
DAV:   7    -0.269511044559E+03    0.18492E-02   -0.24008E-02 53408   0.298E-01    0.614E-01
DAV:   8    -0.269511299292E+03   -0.25473E-03   -0.45846E-03 52592   0.175E-01    0.287E-01
DAV:   9    -0.269511565727E+03   -0.26644E-03   -0.20831E-03 54760   0.117E-01    0.275E-01
DAV:  10    -0.269511625519E+03   -0.59792E-04   -0.45527E-04 52280   0.761E-02    0.242E-01
DAV:  11    -0.269511607616E+03    0.17903E-04   -0.44557E-04 53352   0.771E-02    0.200E-01
DAV:  12    -0.269511503586E+03    0.10403E-03   -0.34196E-04 53680   0.857E-02    0.101E-01
DAV:  13    -0.269511543001E+03   -0.39414E-04   -0.22775E-04 47648   0.445E-02    0.118E-01
DAV:  14    -0.269511562450E+03   -0.19449E-04   -0.20404E-04 34456   0.496E-02    0.861E-02
DAV:  15    -0.269511565861E+03   -0.34112E-05   -0.82773E-05 40184   0.329E-02
   9 F= -.26951157E+03 E0= -.26950153E+03  d E =-.652353E-01  mag=     4.0000
       N       E                     dE             d eps       ncg     rms          rms(c)
DAV:   1    -0.269522078612E+03   -0.10516E-01   -0.41336E+00 40320   0.811E+00    0.873E-01
DAV:   2    -0.269548644487E+03   -0.26566E-01   -0.25679E-01 45440   0.162E+00    0.298E+00
DAV:   3    -0.269538943563E+03    0.97009E-02   -0.14679E-01 54488   0.844E-01    0.167E+00
DAV:   4    -0.269541299689E+03   -0.23561E-02   -0.47652E-02 54352   0.506E-01    0.163E+00
DAV:   5    -0.269536526232E+03    0.47735E-02   -0.29897E-02 54072   0.415E-01    0.364E-01
DAV:   6    -0.269537516918E+03   -0.99069E-03   -0.69071E-03 54584   0.235E-01    0.773E-01
DAV:   7    -0.269536788271E+03    0.72865E-03   -0.91863E-03 54328   0.186E-01    0.361E-01
DAV:   8    -0.269536720955E+03    0.67316E-04   -0.12804E-03 54424   0.132E-01    0.119E-01
DAV:   9    -0.269536771120E+03   -0.50164E-04   -0.31851E-04 48760   0.448E-02    0.114E-01
DAV:  10    -0.269536770168E+03    0.95112E-06   -0.47688E-05 29896   0.204E-02
  10 F= -.26953677E+03 E0= -.26952684E+03  d E =-.252043E-01  mag=     4.0000
       N       E                     dE             d eps       ncg     rms          rms(c)
DAV:   1    -0.269511737407E+03    0.25034E-01   -0.14315E+01 39816   0.135E+01    0.851E-01
DAV:   2    -0.269554680064E+03   -0.42943E-01   -0.46319E-01 42336   0.226E+00    0.870E-01
DAV:   3    -0.269563223339E+03   -0.85433E-02   -0.87199E-02 56280   0.675E-01    0.285E+00
DAV:   4    -0.269550628021E+03    0.12595E-01   -0.54323E-02 54240   0.523E-01    0.439E-01
DAV:   5    -0.269553786064E+03   -0.31580E-02   -0.13986E-02 53856   0.294E-01    0.100E+00
DAV:   6    -0.269551760842E+03    0.20252E-02   -0.99923E-03 54264   0.272E-01    0.290E-01
DAV:   7    -0.269552381210E+03   -0.62037E-03   -0.75032E-03 54264   0.231E-01    0.818E-01
DAV:   8    -0.269551514284E+03    0.86693E-03   -0.86170E-03 54096   0.181E-01    0.281E-01
DAV:   9    -0.269551794003E+03   -0.27972E-03   -0.19687E-03 51224   0.995E-02    0.164E-01
DAV:  10    -0.269551872955E+03   -0.78952E-04   -0.21922E-04 42992   0.468E-02    0.157E-01
DAV:  11    -0.269551879891E+03   -0.69367E-05   -0.94830E-05 38528   0.296E-02
  11 F= -.26955188E+03 E0= -.26954210E+03  d E =-.151097E-01  mag=     4.0000
       N       E                     dE             d eps       ncg     rms          rms(c)
DAV:   1    -0.269132379839E+03    0.41949E+00   -0.11009E+02 39864   0.373E+01    0.369E+00
DAV:   2    -0.269515688553E+03   -0.38331E+00   -0.38944E+00 43592   0.641E+00    0.672E+00
DAV:   3    -0.269564707334E+03   -0.49019E-01   -0.23844E+00 53272   0.295E+00    0.718E+00
DAV:   4    -0.269457897016E+03    0.10681E+00   -0.19573E-01 53888   0.166E+00    0.293E+00
DAV:   5    -0.269466839903E+03   -0.89429E-02   -0.20152E-01 53552   0.913E-01    0.343E+00
DAV:   6    -0.269464311561E+03    0.25283E-02   -0.20221E-01 54408   0.939E-01    0.324E+00
DAV:   7    -0.269449791371E+03    0.14520E-01   -0.15483E-01 54408   0.827E-01    0.108E+00
DAV:   8    -0.269452780864E+03   -0.29895E-02   -0.17042E-02 53776   0.387E-01    0.134E+00
DAV:   9    -0.269451170866E+03    0.16100E-02   -0.17192E-02 54664   0.326E-01    0.372E-01
DAV:  10    -0.269452283999E+03   -0.11131E-02   -0.38968E-03 52888   0.189E-01    0.410E-01
DAV:  11    -0.269452882833E+03   -0.59883E-03   -0.27560E-03 54320   0.141E-01    0.742E-01
DAV:  12    -0.269452438634E+03    0.44420E-03   -0.55563E-04 52728   0.857E-02    0.577E-01
DAV:  13    -0.269452111280E+03    0.32735E-03   -0.20540E-03 54160   0.124E-01    0.141E-01
DAV:  14    -0.269452310646E+03   -0.19937E-03   -0.39680E-04 49720   0.693E-02    0.206E-01
DAV:  15    -0.269452302575E+03    0.80705E-05   -0.29737E-04 38000   0.401E-02    0.100E-01
DAV:  16    -0.269452316446E+03   -0.13871E-04   -0.11426E-04 34864   0.313E-02    0.484E-02
DAV:  17    -0.269452321547E+03   -0.51009E-05   -0.25886E-05 27688   0.191E-02
  12 F= -.26945232E+03 E0= -.26944276E+03  d E =0.995583E-01  mag=     4.0000
       N       E                     dE             d eps       ncg     rms          rms(c)
DAV:   1    -0.269381542997E+03    0.70773E-01   -0.48314E+01 41320   0.240E+01    0.422E+00
DAV:   2    -0.269642153719E+03   -0.26061E+00   -0.24727E+00 46368   0.494E+00    0.876E+00
DAV:   3    -0.269630032348E+03    0.12121E-01   -0.30823E+00 53520   0.329E+00    0.831E+00
DAV:   4    -0.269606382945E+03    0.23649E-01   -0.10834E+00 53624   0.207E+00    0.822E+00
DAV:   5    -0.269506389830E+03    0.99993E-01   -0.62802E-01 54648   0.158E+00    0.184E+00
DAV:   6    -0.269524381231E+03   -0.17991E-01   -0.82500E-02 53048   0.826E-01    0.169E+00
DAV:   7    -0.269537509030E+03   -0.13128E-01   -0.14209E-01 53888   0.790E-01    0.312E+00
DAV:   8    -0.269524804932E+03    0.12704E-01   -0.82825E-02 53248   0.713E-01    0.952E-01
DAV:   9    -0.269527133241E+03   -0.23283E-02   -0.10499E-02 52648   0.345E-01    0.709E-01
DAV:  10    -0.269527178539E+03   -0.45298E-04   -0.32030E-03 53744   0.187E-01    0.591E-01
DAV:  11    -0.269526829631E+03    0.34891E-03   -0.32588E-03 53440   0.199E-01    0.379E-01
DAV:  12    -0.269526798078E+03    0.31552E-04   -0.23360E-03 54480   0.125E-01    0.194E-01
DAV:  13    -0.269526925514E+03   -0.12744E-03   -0.86287E-04 52256   0.897E-02    0.167E-01
DAV:  14    -0.269526923430E+03    0.20840E-05   -0.45405E-04 49408   0.576E-02    0.764E-02
DAV:  15    -0.269526941982E+03   -0.18552E-04   -0.13306E-04 33352   0.309E-02    0.624E-02
DAV:  16    -0.269526945212E+03   -0.32306E-05   -0.71383E-05 29472   0.241E-02
  13 F= -.26952695E+03 E0= -.26951763E+03  d E =-.746237E-01  mag=     4.0000
       N       E                     dE             d eps       ncg     rms          rms(c)
DAV:   1    -0.269509197274E+03    0.17745E-01   -0.25168E+01 39816   0.182E+01    0.247E+00
DAV:   2    -0.269636357631E+03   -0.12716E+00   -0.11965E+00 46144   0.338E+00    0.637E+00
DAV:   3    -0.269608851882E+03    0.27506E-01   -0.10476E+00 52456   0.204E+00    0.431E+00
DAV:   4    -0.269589971718E+03    0.18880E-01   -0.12712E-01 52432   0.103E+00    0.250E+00
DAV:   5    -0.269582488185E+03    0.74835E-02   -0.61855E-02 53488   0.584E-01    0.105E+00
DAV:   6    -0.269591077648E+03   -0.85895E-02   -0.74337E-02 53576   0.495E-01    0.267E+00
DAV:   7    -0.269580090687E+03    0.10987E-01   -0.71162E-02 53760   0.518E-01    0.541E-01
DAV:   8    -0.269582634735E+03   -0.25440E-02   -0.91680E-03 51664   0.221E-01    0.567E-01
DAV:   9    -0.269582884435E+03   -0.24970E-03   -0.40735E-03 53224   0.157E-01    0.309E-01
DAV:  10    -0.269583056586E+03   -0.17215E-03   -0.94378E-04 53656   0.938E-02    0.282E-01
DAV:  11    -0.269583084007E+03   -0.27421E-04   -0.98518E-04 53968   0.113E-01    0.297E-01
DAV:  12    -0.269583025805E+03    0.58203E-04   -0.46688E-04 53976   0.845E-02    0.236E-01
DAV:  13    -0.269583006683E+03    0.19121E-04   -0.49196E-04 49432   0.569E-02    0.819E-02
DAV:  14    -0.269583032487E+03   -0.25804E-04   -0.95335E-05 32512   0.351E-02    0.656E-02
DAV:  15    -0.269583033571E+03   -0.10837E-05   -0.34597E-05 30032   0.218E-02
  14 F= -.26958303E+03 E0= -.26957363E+03  d E =-.560884E-01  mag=     4.0000
       N       E                     dE             d eps       ncg     rms          rms(c)
DAV:   1    -0.269584306287E+03   -0.12738E-02   -0.15561E+00 40320   0.430E+00    0.706E-01
DAV:   2    -0.269591219389E+03   -0.69131E-02   -0.70503E-02 47128   0.836E-01    0.135E+00
DAV:   3    -0.269592426225E+03   -0.12068E-02   -0.75198E-02 54024   0.568E-01    0.171E+00
DAV:   4    -0.269588256763E+03    0.41695E-02   -0.23998E-02 53968   0.368E-01    0.630E-01
DAV:   5    -0.269588624219E+03   -0.36746E-03   -0.89684E-03 54312   0.202E-01    0.520E-01
DAV:   6    -0.269589028436E+03   -0.40422E-03   -0.75799E-03 53944   0.199E-01    0.751E-01
DAV:   7    -0.269588143774E+03    0.88466E-03   -0.51454E-03 53632   0.170E-01    0.169E-01
DAV:   8    -0.269588267714E+03   -0.12394E-03   -0.60661E-04 53616   0.990E-02    0.851E-02
DAV:   9    -0.269588348914E+03   -0.81200E-04   -0.35778E-04 41328   0.442E-02    0.122E-01
DAV:  10    -0.269588344852E+03    0.40617E-05   -0.31589E-05 28616   0.186E-02
  15 F= -.26958834E+03 E0= -.26957886E+03  d E =-.531128E-02  mag=     4.0000
       N       E                     dE             d eps       ncg     rms          rms(c)
DAV:   1    -0.269583513146E+03    0.48358E-02   -0.28795E+00 39312   0.570E+00    0.361E-01
DAV:   2    -0.269590944922E+03   -0.74318E-02   -0.79384E-02 40504   0.925E-01    0.437E-01
DAV:   3    -0.269591965516E+03   -0.10206E-02   -0.15140E-02 55528   0.289E-01    0.972E-01
DAV:   4    -0.269590378232E+03    0.15873E-02   -0.72732E-03 53600   0.205E-01    0.351E-01
DAV:   5    -0.269590462253E+03   -0.84021E-04   -0.22651E-03 54480   0.112E-01    0.227E-01
DAV:   6    -0.269590275219E+03    0.18703E-03   -0.10291E-03 53648   0.112E-01    0.101E-01
DAV:   7    -0.269590327390E+03   -0.52171E-04   -0.37144E-04 53616   0.638E-02    0.103E-01
DAV:   8    -0.269590418544E+03   -0.91154E-04   -0.71410E-04 34736   0.544E-02    0.259E-01
DAV:   9    -0.269590336930E+03    0.81614E-04   -0.42069E-04 32384   0.463E-02    0.876E-02
DAV:  10    -0.269590353988E+03   -0.17058E-04   -0.20627E-05 27912   0.225E-02    0.792E-02
DAV:  11    -0.269590353776E+03    0.21285E-06   -0.39393E-05 32016   0.250E-02
  16 F= -.26959035E+03 E0= -.26958084E+03  d E =-.200892E-02  mag=     4.0000
       N       E                     dE             d eps       ncg     rms          rms(c)
DAV:   1    -0.265966278726E+03    0.36241E+01   -0.30149E+02 40320   0.639E+01    0.151E+01
DAV:   2    -0.267476453281E+03   -0.15102E+01   -0.16036E+01 47312   0.129E+01    0.182E+01
DAV:   3    -0.268038674626E+03   -0.56222E+00   -0.24981E+01 54208   0.101E+01    0.164E+01
DAV:   4    -0.268060424513E+03   -0.21750E-01   -0.12875E+01 55424   0.693E+00    0.204E+01
DAV:   5    -0.266946890834E+03    0.11135E+01   -0.34286E+00 53880   0.504E+00    0.878E+00
DAV:   6    -0.267169492680E+03   -0.22260E+00   -0.31306E+00 53560   0.302E+00    0.152E+01
DAV:   7    -0.266819736042E+03    0.34976E+00   -0.13929E+00 54024   0.269E+00    0.312E+00
DAV:   8    -0.266885213139E+03   -0.65477E-01   -0.25884E-01 53240   0.126E+00    0.296E+00
DAV:   9    -0.266885634856E+03   -0.42172E-03   -0.16216E-01 53896   0.113E+00    0.199E+00
DAV:  10    -0.266885687144E+03   -0.52289E-04   -0.28063E-02 54224   0.566E-01    0.167E+00
DAV:  11    -0.266881610788E+03    0.40764E-02   -0.17376E-02 53984   0.463E-01    0.801E-01
DAV:  12    -0.266882647589E+03   -0.10368E-02   -0.22045E-02 54408   0.356E-01    0.987E-01
DAV:  13    -0.266882689069E+03   -0.41480E-04   -0.60329E-03 52328   0.244E-01    0.634E-01
DAV:  14    -0.266882528466E+03    0.16060E-03   -0.34182E-03 53904   0.145E-01    0.260E-01
DAV:  15    -0.266882673859E+03   -0.14539E-03   -0.11577E-03 53512   0.899E-02    0.152E-01
DAV:  16    -0.266882803893E+03   -0.13003E-03   -0.57444E-04 44488   0.533E-02    0.122E-01
DAV:  17    -0.266882832922E+03   -0.29029E-04   -0.19754E-04 34120   0.362E-02    0.769E-02
DAV:  18    -0.266882839441E+03   -0.65189E-05   -0.59084E-05 36528   0.263E-02
  17 F= -.26688284E+03 E0= -.26687351E+03  d E =0.270751E+01  mag=     4.0000
       N       E                     dE             d eps       ncg     rms          rms(c)
DAV:   1    -0.268157629431E+03   -0.12748E+01   -0.28390E+02 40320   0.458E+01    0.147E+01
DAV:   2    -0.270780051633E+03   -0.26224E+01   -0.22499E+01 46600   0.129E+01    0.252E+01
DAV:   3    -0.270022995106E+03    0.75706E+00   -0.24390E+01 53848   0.122E+01    0.167E+01
DAV:   4    -0.269576724441E+03    0.44627E+00   -0.52110E+00 54232   0.537E+00    0.164E+01
DAV:   5    -0.269132543033E+03    0.44418E+00   -0.22254E+00 53752   0.348E+00    0.853E+00
DAV:   6    -0.269398181377E+03   -0.26564E+00   -0.29983E+00 53872   0.320E+00    0.131E+01
DAV:   7    -0.269103951278E+03    0.29423E+00   -0.23371E+00 54904   0.344E+00    0.648E+00
DAV:   8    -0.269072457170E+03    0.31494E-01   -0.26129E-01 52216   0.177E+00    0.449E+00
DAV:   9    -0.269060481959E+03    0.11975E-01   -0.38838E-01 54360   0.149E+00    0.265E+00
DAV:  10    -0.269073479141E+03   -0.12997E-01   -0.15627E-01 53704   0.119E+00    0.207E+00
DAV:  11    -0.269074611644E+03   -0.11325E-02   -0.45670E-02 53272   0.619E-01    0.149E+00
DAV:  12    -0.269074969145E+03   -0.35750E-03   -0.23766E-02 53896   0.399E-01    0.130E+00
DAV:  13    -0.269075878605E+03   -0.90946E-03   -0.26066E-02 53448   0.439E-01    0.141E+00
DAV:  14    -0.269072989954E+03    0.28887E-02   -0.22820E-02 54536   0.390E-01    0.449E-01
DAV:  15    -0.269074860219E+03   -0.18703E-02   -0.59290E-03 51896   0.198E-01    0.344E-01
DAV:  16    -0.269075152463E+03   -0.29224E-03   -0.20015E-03 52864   0.156E-01    0.250E-01
DAV:  17    -0.269075232068E+03   -0.79605E-04   -0.59887E-04 53592   0.813E-02    0.180E-01
DAV:  18    -0.269075267724E+03   -0.35656E-04   -0.26003E-04 43792   0.465E-02    0.152E-01
DAV:  19    -0.269075275292E+03   -0.75678E-05   -0.10189E-04 32784   0.317E-02    0.102E-01
DAV:  20    -0.269075275762E+03   -0.47046E-06   -0.44562E-05 34600   0.296E-02
  18 F= -.26907528E+03 E0= -.26906606E+03  d E =-.219244E+01  mag=     4.0000
       N       E                     dE             d eps       ncg     rms          rms(c)
DAV:   1    -0.269278182665E+03   -0.20291E+00   -0.36924E+00 40320   0.583E+00    0.124E+00
DAV:   2    -0.269289909314E+03   -0.11727E-01   -0.15169E-01 48672   0.141E+00    0.109E+00
DAV:   3    -0.269305851956E+03   -0.15943E-01   -0.17219E-01 53128   0.826E-01    0.370E+00
DAV:   4    -0.269284460828E+03    0.21391E-01   -0.11196E-01 54360   0.672E-01    0.652E-01
DAV:   5    -0.269290863846E+03   -0.64030E-02   -0.35201E-02 53128   0.432E-01    0.157E+00
DAV:   6    -0.269286878002E+03    0.39858E-02   -0.21550E-02 54760   0.359E-01    0.712E-01
DAV:   7    -0.269287674357E+03   -0.79636E-03   -0.14606E-02 54576   0.257E-01    0.900E-01
DAV:   8    -0.269286484522E+03    0.11898E-02   -0.51524E-03 53616   0.238E-01    0.232E-01
DAV:   9    -0.269287021584E+03   -0.53706E-03   -0.23529E-03 52848   0.104E-01    0.230E-01
DAV:  10    -0.269287103719E+03   -0.82135E-04   -0.34778E-04 45280   0.588E-02    0.199E-01
DAV:  11    -0.269287094961E+03    0.87579E-05   -0.35345E-04 52744   0.711E-02    0.161E-01
DAV:  12    -0.269287067720E+03    0.27241E-04   -0.12665E-04 42224   0.404E-02    0.652E-02
DAV:  13    -0.269287074472E+03   -0.67520E-05   -0.65535E-05 35944   0.224E-02
  19 F= -.26928707E+03 E0= -.26927782E+03  d E =-.211799E+00  mag=     4.0000
       N       E                     dE             d eps       ncg     rms          rms(c)
DAV:   1    -0.269347948212E+03   -0.60880E-01   -0.66883E+01 40000   0.233E+01    0.778E+00
DAV:   2    -0.269582324199E+03   -0.23438E+00   -0.30044E+00 48208   0.546E+00    0.706E+00
DAV:   3    -0.270156404493E+03   -0.57408E+00   -0.71217E+00 53816   0.532E+00    0.163E+01
DAV:   4    -0.269616624662E+03    0.53978E+00   -0.29650E+00 54512   0.408E+00    0.110E+01
DAV:   5    -0.269463876565E+03    0.15275E+00   -0.84844E-01 53960   0.200E+00    0.272E+00
DAV:   6    -0.269487357625E+03   -0.23481E-01   -0.13613E-01 53064   0.114E+00    0.232E+00
DAV:   7    -0.269503248029E+03   -0.15890E-01   -0.26430E-01 54272   0.110E+00    0.356E+00
DAV:   8    -0.269486391144E+03    0.16857E-01   -0.12883E-01 53792   0.870E-01    0.214E+00
DAV:   9    -0.269485145909E+03    0.12452E-02   -0.48862E-02 54064   0.564E-01    0.863E-01
DAV:  10    -0.269487087161E+03   -0.19413E-02   -0.91177E-03 52208   0.286E-01    0.698E-01
DAV:  11    -0.269487454194E+03   -0.36703E-03   -0.67925E-03 53936   0.240E-01    0.734E-01
DAV:  12    -0.269486782230E+03    0.67196E-03   -0.45980E-03 53584   0.198E-01    0.352E-01
DAV:  13    -0.269486871537E+03   -0.89307E-04   -0.14054E-03 53832   0.127E-01    0.197E-01
DAV:  14    -0.269487086309E+03   -0.21477E-03   -0.12548E-03 50736   0.785E-02    0.175E-01
DAV:  15    -0.269487156382E+03   -0.70073E-04   -0.32892E-04 46560   0.586E-02    0.128E-01
DAV:  16    -0.269487161671E+03   -0.52886E-05   -0.10053E-04 37168   0.376E-02    0.955E-02
DAV:  17    -0.269487147896E+03    0.13774E-04   -0.79195E-05 38944   0.324E-02    0.595E-02
DAV:  18    -0.269487148540E+03   -0.64382E-06   -0.73612E-05 31752   0.224E-02
  20 F= -.26948715E+03 E0= -.26947758E+03  d E =-.200074E+00  mag=     4.0000
       N       E                     dE             d eps       ncg     rms          rms(c)
DAV:   1    -0.269561364644E+03   -0.74217E-01   -0.94434E+00 40352   0.884E+00    0.270E+00
DAV:   2    -0.269631371408E+03   -0.70007E-01   -0.67650E-01 47424   0.236E+00    0.588E+00
DAV:   3    -0.269620697762E+03    0.10674E-01   -0.10933E+00 53752   0.199E+00    0.558E+00
DAV:   4    -0.269607312608E+03    0.13385E-01   -0.44199E-01 54000   0.132E+00    0.473E+00
DAV:   5    -0.269575763898E+03    0.31549E-01   -0.22774E-01 53632   0.988E-01    0.109E+00
DAV:   6    -0.269595795310E+03   -0.20031E-01   -0.11975E-01 53656   0.732E-01    0.362E+00
DAV:   7    -0.269576088529E+03    0.19707E-01   -0.79585E-02 52992   0.667E-01    0.558E-01
DAV:   8    -0.269581217556E+03   -0.51290E-02   -0.82232E-03 52040   0.326E-01    0.531E-01
DAV:   9    -0.269581940358E+03   -0.72280E-03   -0.42546E-03 53520   0.176E-01    0.510E-01
DAV:  10    -0.269581952943E+03   -0.12585E-04   -0.86473E-04 53008   0.917E-02    0.418E-01
DAV:  11    -0.269581850591E+03    0.10235E-03   -0.79643E-04 53808   0.103E-01    0.317E-01
DAV:  12    -0.269581749955E+03    0.10064E-03   -0.10214E-03 53840   0.821E-02    0.122E-01
DAV:  13    -0.269581849393E+03   -0.99438E-04   -0.24149E-04 42840   0.442E-02    0.136E-01
DAV:  14    -0.269581839095E+03    0.10299E-04   -0.10531E-04 33512   0.326E-02    0.613E-02
DAV:  15    -0.269581844972E+03   -0.58777E-05   -0.44575E-05 31816   0.235E-02
  21 F= -.26958184E+03 E0= -.26957234E+03  d E =-.946964E-01  mag=     4.0000
       N       E                     dE             d eps       ncg     rms          rms(c)
DAV:   1    -0.269586792207E+03   -0.49531E-02   -0.33992E-01 39816   0.195E+00    0.453E-01
DAV:   2    -0.269588293733E+03   -0.15015E-02   -0.17383E-02 48168   0.456E-01    0.663E-01
DAV:   3    -0.269589645392E+03   -0.13517E-02   -0.28427E-02 53632   0.308E-01    0.125E+00
DAV:   4    -0.269587296609E+03    0.23488E-02   -0.10106E-02 54008   0.230E-01    0.188E-01
DAV:   5    -0.269587957233E+03   -0.66062E-03   -0.31723E-03 53792   0.133E-01    0.508E-01
DAV:   6    -0.269587558611E+03    0.39862E-03   -0.24310E-03 53656   0.116E-01    0.197E-01
DAV:   7    -0.269587674455E+03   -0.11584E-03   -0.13705E-03 47376   0.782E-02    0.249E-01
DAV:   8    -0.269587578296E+03    0.96158E-04   -0.56407E-04 47088   0.671E-02    0.710E-02
DAV:   9    -0.269587605749E+03   -0.27452E-04   -0.75706E-05 31752   0.235E-02    0.598E-02
DAV:  10    -0.269587606657E+03   -0.90861E-06   -0.12107E-05 23304   0.114E-02
  22 F= -.26958761E+03 E0= -.26957807E+03  d E =-.576169E-02  mag=     4.0000
       N       E                     dE             d eps       ncg     rms          rms(c)
DAV:   1    -0.269586941874E+03    0.66387E-03   -0.11052E+00 39816   0.428E+00    0.604E-01
DAV:   2    -0.269592619450E+03   -0.56776E-02   -0.63024E-02 43648   0.860E-01    0.772E-01
DAV:   3    -0.269593953187E+03   -0.13337E-02   -0.33297E-02 54568   0.407E-01    0.128E+00
DAV:   4    -0.269592645109E+03    0.13081E-02   -0.24869E-02 53400   0.322E-01    0.105E+00
DAV:   5    -0.269591290095E+03    0.13550E-02   -0.10523E-02 53688   0.212E-01    0.205E-01
DAV:   6    -0.269591499294E+03   -0.20920E-03   -0.83305E-04 53424   0.124E-01    0.196E-01
DAV:   7    -0.269591717132E+03   -0.21784E-03   -0.28582E-03 54040   0.106E-01    0.479E-01
DAV:   8    -0.269591331461E+03    0.38567E-03   -0.17685E-03 52664   0.101E-01    0.600E-02
DAV:   9    -0.269591428508E+03   -0.97047E-04   -0.22772E-04 39320   0.400E-02    0.585E-02
DAV:  10    -0.269591446496E+03   -0.17988E-04   -0.61145E-05 28728   0.209E-02    0.577E-02
DAV:  11    -0.269591447684E+03   -0.11884E-05   -0.21037E-05 26592   0.167E-02
  23 F= -.26959145E+03 E0= -.26958187E+03  d E =-.384103E-02  mag=     4.0000
       N       E                     dE             d eps       ncg     rms          rms(c)
DAV:   1    -0.269582938442E+03    0.85081E-02   -0.22649E+00 39312   0.667E+00    0.428E-01
DAV:   2    -0.269596507710E+03   -0.13569E-01   -0.14221E-01 40600   0.123E+00    0.104E+00
DAV:   3    -0.269595094284E+03    0.14134E-02   -0.22517E-02 55744   0.367E-01    0.537E-01
DAV:   4    -0.269595960760E+03   -0.86648E-03   -0.12624E-02 54568   0.226E-01    0.968E-01
DAV:   5    -0.269594428196E+03    0.15326E-02   -0.71366E-03 54200   0.175E-01    0.185E-01
DAV:   6    -0.269595158963E+03   -0.73077E-03   -0.38299E-03 54072   0.134E-01    0.697E-01
DAV:   7    -0.269594377671E+03    0.78129E-03   -0.31426E-03 53336   0.127E-01    0.121E-01
DAV:   8    -0.269594505240E+03   -0.12757E-03   -0.25054E-04 53872   0.666E-02    0.818E-02
DAV:   9    -0.269594553399E+03   -0.48159E-04   -0.27553E-04 35376   0.477E-02    0.832E-02
DAV:  10    -0.269594572531E+03   -0.19132E-04   -0.83782E-05 31616   0.343E-02    0.795E-02
DAV:  11    -0.269594579171E+03   -0.66408E-05   -0.46570E-05 29800   0.242E-02
  24 F= -.26959458E+03 E0= -.26958502E+03  d E =-.313149E-02  mag=     4.0000
       N       E                     dE             d eps       ncg     rms          rms(c)
DAV:   1    -0.269577984090E+03    0.16588E-01   -0.57486E+00 40320   0.975E+00    0.556E-01
DAV:   2    -0.269601363722E+03   -0.23380E-01   -0.24364E-01 41320   0.165E+00    0.127E+00
DAV:   3    -0.269600087850E+03    0.12759E-02   -0.45108E-02 54168   0.506E-01    0.976E-01
DAV:   4    -0.269600226370E+03   -0.13852E-03   -0.20341E-02 54264   0.307E-01    0.107E+00
DAV:   5    -0.269598301945E+03    0.19244E-02   -0.88053E-03 54544   0.214E-01    0.268E-01
DAV:   6    -0.269599158536E+03   -0.85659E-03   -0.54808E-03 54496   0.154E-01    0.803E-01
DAV:   7    -0.269598118453E+03    0.10401E-02   -0.41253E-03 53952   0.149E-01    0.197E-01
DAV:   8    -0.269598175026E+03   -0.56573E-04   -0.53488E-04 53880   0.109E-01    0.125E-01
DAV:   9    -0.269598294664E+03   -0.11964E-03   -0.88465E-04 53888   0.768E-02    0.138E-01
DAV:  10    -0.269598346826E+03   -0.52161E-04   -0.21889E-04 43296   0.504E-02    0.122E-01
DAV:  11    -0.269598357988E+03   -0.11162E-04   -0.94899E-05 36568   0.362E-02    0.107E-01
DAV:  12    -0.269598352373E+03    0.56145E-05   -0.76303E-05 37680   0.319E-02
  25 F= -.26959835E+03 E0= -.26958894E+03  d E =-.377320E-02  mag=     4.0000
       N       E                     dE             d eps       ncg     rms          rms(c)
DAV:   1    -0.269529718381E+03    0.68640E-01   -0.21865E+01 40320   0.175E+01    0.114E+00
DAV:   2    -0.269601168557E+03   -0.71450E-01   -0.74671E-01 40912   0.287E+00    0.194E+00
DAV:   3    -0.269605264239E+03   -0.40957E-02   -0.16258E-01 54704   0.963E-01    0.269E+00
DAV:   4    -0.269597481693E+03    0.77825E-02   -0.74019E-02 54000   0.621E-01    0.170E+00
DAV:   5    -0.269593571733E+03    0.39100E-02   -0.22939E-02 53776   0.393E-01    0.528E-01
DAV:   6    -0.269595865905E+03   -0.22942E-02   -0.19500E-02 54504   0.293E-01    0.137E+00
DAV:   7    -0.269592469030E+03    0.33969E-02   -0.22254E-02 54128   0.311E-01    0.472E-01
DAV:   8    -0.269592666837E+03   -0.19781E-03   -0.35711E-03 53808   0.183E-01    0.243E-01
DAV:   9    -0.269593243696E+03   -0.57686E-03   -0.28510E-03 52976   0.113E-01    0.249E-01
DAV:  10    -0.269593386123E+03   -0.14243E-03   -0.57789E-04 53624   0.908E-02    0.238E-01
DAV:  11    -0.269593397715E+03   -0.11592E-04   -0.28166E-04 53928   0.692E-02    0.187E-01
DAV:  12    -0.269593380266E+03    0.17449E-04   -0.21323E-04 50552   0.635E-02    0.825E-02
DAV:  13    -0.269593396325E+03   -0.16060E-04   -0.86685E-05 37408   0.380E-02    0.460E-02
DAV:  14    -0.269593406279E+03   -0.99540E-05   -0.39014E-05 27184   0.215E-02
  26 F= -.26959341E+03 E0= -.26958421E+03  d E =0.494609E-02  mag=     4.0000
       N       E                     dE             d eps       ncg     rms          rms(c)
DAV:   1    -0.269596608101E+03   -0.32118E-02   -0.15098E+00 40320   0.505E+00    0.581E-01
DAV:   2    -0.269604694715E+03   -0.80866E-02   -0.85040E-02 43376   0.950E-01    0.101E+00
DAV:   3    -0.269604699251E+03   -0.45358E-05   -0.35871E-02 56400   0.419E-01    0.109E+00
DAV:   4    -0.269604293294E+03    0.40596E-03   -0.16030E-02 53648   0.296E-01    0.102E+00
DAV:   5    -0.269602617216E+03    0.16761E-02   -0.85127E-03 53656   0.226E-01    0.259E-01
DAV:   6    -0.269603485965E+03   -0.86875E-03   -0.60402E-03 53592   0.147E-01    0.742E-01
DAV:   7    -0.269602584918E+03    0.90105E-03   -0.50329E-03 53928   0.153E-01    0.154E-01
DAV:   8    -0.269602694986E+03   -0.11007E-03   -0.42060E-04 53512   0.980E-02    0.931E-02
DAV:   9    -0.269602808370E+03   -0.11338E-03   -0.56625E-04 43960   0.601E-02    0.109E-01
DAV:  10    -0.269602832490E+03   -0.24120E-04   -0.83825E-05 33040   0.319E-02    0.105E-01
DAV:  11    -0.269602833103E+03   -0.61245E-06   -0.77430E-05 41968   0.351E-02
  27 F= -.26960283E+03 E0= -.26959354E+03  d E =-.942682E-02  mag=     4.0000
       N       E                     dE             d eps       ncg     rms          rms(c)
DAV:   1    -0.269602790209E+03    0.42281E-04   -0.89405E-01 40320   0.344E+00    0.254E-01
DAV:   2    -0.269605800695E+03   -0.30105E-02   -0.31764E-02 41712   0.582E-01    0.559E-01
DAV:   3    -0.269605757063E+03    0.43632E-04   -0.92602E-03 55432   0.209E-01    0.566E-01
DAV:   4    -0.269605491214E+03    0.26585E-03   -0.36659E-03 53248   0.136E-01    0.360E-01
DAV:   5    -0.269605317075E+03    0.17414E-03   -0.17816E-03 53920   0.984E-02    0.124E-01
DAV:   6    -0.269605449377E+03   -0.13230E-03   -0.11759E-03 54088   0.781E-02    0.343E-01
DAV:   7    -0.269605250400E+03    0.19898E-03   -0.11160E-03 53784   0.719E-02    0.745E-02
DAV:   8    -0.269605272234E+03   -0.21834E-04   -0.59183E-05 35888   0.445E-02    0.346E-02
DAV:   9    -0.269605281033E+03   -0.87996E-05   -0.76544E-05 26176   0.263E-02
  28 F= -.26960528E+03 E0= -.26959597E+03  d E =-.244793E-02  mag=     4.0000
       N       E                     dE             d eps       ncg     rms          rms(c)
DAV:   1    -0.269560333509E+03    0.44939E-01   -0.21872E+01 39816   0.151E+01    0.773E-01
DAV:   2    -0.269610666091E+03   -0.50333E-01   -0.53330E-01 41480   0.234E+00    0.876E-01
DAV:   3    -0.269617968146E+03   -0.73021E-02   -0.97569E-02 54896   0.656E-01    0.262E+00
DAV:   4    -0.269607110932E+03    0.10857E-01   -0.58748E-02 53552   0.490E-01    0.663E-01
DAV:   5    -0.269608603428E+03   -0.14925E-02   -0.92917E-03 53144   0.231E-01    0.642E-01
DAV:   6    -0.269608985778E+03   -0.38235E-03   -0.14607E-02 54744   0.294E-01    0.107E+00
DAV:   7    -0.269606880968E+03    0.21048E-02   -0.11978E-02 53880   0.265E-01    0.277E-01
DAV:   8    -0.269606969563E+03   -0.88595E-04   -0.82066E-04 53136   0.154E-01    0.170E-01
DAV:   9    -0.269607162792E+03   -0.19323E-03   -0.19127E-03 54128   0.110E-01    0.169E-01
DAV:  10    -0.269607243699E+03   -0.80907E-04   -0.34060E-04 52872   0.713E-02    0.153E-01
DAV:  11    -0.269607257317E+03   -0.13618E-04   -0.14078E-04 50960   0.405E-02    0.130E-01
DAV:  12    -0.269607246373E+03    0.10944E-04   -0.66444E-05 34024   0.410E-02    0.751E-02
DAV:  13    -0.269607246612E+03   -0.23890E-06   -0.10498E-04 46392   0.407E-02    0.363E-02
DAV:  14    -0.269607251636E+03   -0.50248E-05   -0.22033E-05 27072   0.184E-02
  29 F= -.26960725E+03 E0= -.26959797E+03  d E =-.197060E-02  mag=     4.0000
       N       E                     dE             d eps       ncg     rms          rms(c)
DAV:   1    -0.268395651164E+03    0.12116E+01   -0.16486E+02 40320   0.493E+01    0.860E+00
DAV:   2    -0.269386975158E+03   -0.99132E+00   -0.10956E+01 43888   0.102E+01    0.122E+01
DAV:   3    -0.269562358268E+03   -0.17538E+00   -0.53921E+00 53456   0.610E+00    0.167E+01
DAV:   4    -0.269137485462E+03    0.42487E+00   -0.37346E+00 53640   0.401E+00    0.107E+01
DAV:   5    -0.269024040266E+03    0.11345E+00   -0.10908E+00 53248   0.194E+00    0.317E+00
DAV:   6    -0.269119796644E+03   -0.95756E-01   -0.65324E-01 55032   0.170E+00    0.827E+00
DAV:   7    -0.269016244224E+03    0.10355E+00   -0.41243E-01 52904   0.147E+00    0.153E+00
DAV:   8    -0.269042491516E+03   -0.26247E-01   -0.92163E-02 53368   0.901E-01    0.190E+00
DAV:   9    -0.269043958085E+03   -0.14666E-02   -0.72812E-02 53688   0.728E-01    0.122E+00
DAV:  10    -0.269047241947E+03   -0.32839E-02   -0.12434E-02 52792   0.313E-01    0.121E+00
DAV:  11    -0.269046588487E+03    0.65346E-03   -0.13327E-02 53976   0.345E-01    0.902E-01
DAV:  12    -0.269045898047E+03    0.69044E-03   -0.78731E-03 53032   0.314E-01    0.599E-01
DAV:  13    -0.269045764679E+03    0.13337E-03   -0.70993E-03 54952   0.271E-01    0.598E-01
DAV:  14    -0.269046099934E+03   -0.33525E-03   -0.54998E-03 51160   0.199E-01    0.412E-01
DAV:  15    -0.269046199930E+03   -0.99996E-04   -0.19452E-03 52688   0.138E-01    0.196E-01
DAV:  16    -0.269046308904E+03   -0.10897E-03   -0.65977E-04 53480   0.736E-02    0.162E-01
DAV:  17    -0.269046299869E+03    0.90343E-05   -0.30993E-04 48312   0.593E-02    0.118E-01
DAV:  18    -0.269046284186E+03    0.15683E-04   -0.28820E-04 43160   0.542E-02    0.128E-01
DAV:  19    -0.269046328823E+03   -0.44637E-04   -0.30430E-04 34208   0.464E-02    0.891E-02
DAV:  20    -0.269046341354E+03   -0.12531E-04   -0.86195E-05 37176   0.357E-02    0.452E-02
DAV:  21    -0.269046344547E+03   -0.31923E-05   -0.24202E-05 26456   0.162E-02
  30 F= -.26904634E+03 E0= -.26903584E+03  d E =0.560907E+00  mag=     4.0000
       N       E                     dE             d eps       ncg     rms          rms(c)
DAV:   1    -0.269404604242E+03   -0.35826E+00   -0.15636E+01 40320   0.119E+01    0.360E+00
DAV:   2    -0.269466174564E+03   -0.61570E-01   -0.77785E-01 47752   0.293E+00    0.365E+00
DAV:   3    -0.269602223165E+03   -0.13605E+00   -0.17642E+00 53744   0.245E+00    0.108E+01
DAV:   4    -0.269418135243E+03    0.18409E+00   -0.79262E-01 53424   0.193E+00    0.277E+00
DAV:   5    -0.269446094991E+03   -0.27960E-01   -0.20620E-01 52480   0.944E-01    0.318E+00
DAV:   6    -0.269443073210E+03    0.30218E-02   -0.13185E-01 54024   0.904E-01    0.280E+00
DAV:   7    -0.269434252842E+03    0.88204E-02   -0.89163E-02 53304   0.596E-01    0.886E-01
DAV:   8    -0.269435958222E+03   -0.17054E-02   -0.10771E-02 52040   0.384E-01    0.629E-01
DAV:   9    -0.269436685103E+03   -0.72688E-03   -0.74402E-03 52376   0.188E-01    0.474E-01
DAV:  10    -0.269437172261E+03   -0.48716E-03   -0.15515E-03 51344   0.956E-02    0.516E-01
DAV:  11    -0.269437075524E+03    0.96737E-04   -0.16204E-03 53776   0.118E-01    0.466E-01
DAV:  12    -0.269436865480E+03    0.21004E-03   -0.97004E-04 53896   0.109E-01    0.250E-01
DAV:  13    -0.269436877911E+03   -0.12431E-04   -0.99382E-04 53080   0.103E-01    0.178E-01
DAV:  14    -0.269436951689E+03   -0.73778E-04   -0.61665E-04 50472   0.740E-02    0.125E-01
DAV:  15    -0.269436990641E+03   -0.38953E-04   -0.18611E-04 43824   0.504E-02    0.740E-02
DAV:  16    -0.269437000740E+03   -0.10099E-04   -0.65750E-05 33576   0.250E-02    0.584E-02
DAV:  17    -0.269437001815E+03   -0.10750E-05   -0.17744E-05 25272   0.145E-02
  31 F= -.26943700E+03 E0= -.26942672E+03  d E =-.390657E+00  mag=     4.0000
       N       E                     dE             d eps       ncg     rms          rms(c)
DAV:   1    -0.269473862331E+03   -0.36862E-01   -0.65951E-01 40400   0.309E+00    0.658E-01
DAV:   2    -0.269476788548E+03   -0.29262E-02   -0.35263E-02 47544   0.700E-01    0.765E-01
DAV:   3    -0.269481014274E+03   -0.42257E-02   -0.50466E-02 54168   0.467E-01    0.203E+00
DAV:   4    -0.269475298873E+03    0.57154E-02   -0.28872E-02 52704   0.379E-01    0.652E-01
DAV:   5    -0.269475910347E+03   -0.61147E-03   -0.94352E-03 52600   0.210E-01    0.425E-01
DAV:   6    -0.269475934737E+03   -0.24390E-04   -0.33907E-03 53976   0.156E-01    0.441E-01
DAV:   7    -0.269475713676E+03    0.22106E-03   -0.26324E-03 53640   0.101E-01    0.192E-01
DAV:   8    -0.269475686024E+03    0.27653E-04   -0.36642E-04 53680   0.746E-02    0.785E-02
DAV:   9    -0.269475712716E+03   -0.26693E-04   -0.26450E-04 37928   0.361E-02    0.710E-02
DAV:  10    -0.269475729742E+03   -0.17026E-04   -0.85386E-05 29840   0.235E-02    0.633E-02
DAV:  11    -0.269475730922E+03   -0.11793E-05   -0.50221E-05 30728   0.243E-02
  32 F= -.26947573E+03 E0= -.26946557E+03  d E =-.387291E-01  mag=     4.0000
       N       E                     dE             d eps       ncg     rms          rms(c)
DAV:   1    -0.269495950212E+03   -0.20220E-01   -0.19686E+01 40320   0.191E+01    0.299E+00
DAV:   2    -0.269632600984E+03   -0.13665E+00   -0.14516E+00 48464   0.423E+00    0.659E+00
DAV:   3    -0.269628044558E+03    0.45564E-02   -0.13847E+00 53920   0.224E+00    0.585E+00
DAV:   4    -0.269586479184E+03    0.41565E-01   -0.22146E-01 54056   0.143E+00    0.289E+00
DAV:   5    -0.269583152444E+03    0.33267E-02   -0.20018E-01 54296   0.104E+00    0.227E+00
DAV:   6    -0.269576069128E+03    0.70833E-02   -0.50587E-02 54088   0.760E-01    0.877E-01
DAV:   7    -0.269584539289E+03   -0.84702E-02   -0.77334E-02 54464   0.541E-01    0.262E+00
DAV:   8    -0.269573903956E+03    0.10635E-01   -0.53638E-02 53616   0.497E-01    0.528E-01
DAV:   9    -0.269576216478E+03   -0.23125E-02   -0.53376E-03 51248   0.186E-01    0.393E-01
DAV:  10    -0.269576528652E+03   -0.31217E-03   -0.14860E-03 51656   0.105E-01    0.334E-01
DAV:  11    -0.269576574795E+03   -0.46143E-04   -0.23048E-03 53928   0.116E-01    0.352E-01
DAV:  12    -0.269576458605E+03    0.11619E-03   -0.58071E-04 53336   0.813E-02    0.171E-01
DAV:  13    -0.269576510737E+03   -0.52132E-04   -0.82066E-04 54328   0.703E-02    0.130E-01
DAV:  14    -0.269576533679E+03   -0.22942E-04   -0.43224E-04 41744   0.526E-02    0.927E-02
DAV:  15    -0.269576536189E+03   -0.25104E-05   -0.39417E-05 29456   0.219E-02
  33 F= -.26957654E+03 E0= -.26956691E+03  d E =-.100805E+00  mag=     4.0000
       N       E                     dE             d eps       ncg     rms          rms(c)
DAV:   1    -0.269580016347E+03   -0.34827E-02   -0.33668E-01 40448   0.212E+00    0.455E-01
DAV:   2    -0.269581559105E+03   -0.15428E-02   -0.18427E-02 50672   0.523E-01    0.712E-01
DAV:   3    -0.269583008297E+03   -0.14492E-02   -0.27061E-02 54048   0.337E-01    0.139E+00
DAV:   4    -0.269580372939E+03    0.26354E-02   -0.11879E-02 52440   0.244E-01    0.320E-01
DAV:   5    -0.269581053207E+03   -0.68027E-03   -0.49571E-03 53856   0.138E-01    0.523E-01
DAV:   6    -0.269580740635E+03    0.31257E-03   -0.31153E-03 54208   0.129E-01    0.283E-01
DAV:   7    -0.269580710557E+03    0.30078E-04   -0.14415E-03 53736   0.865E-02    0.176E-01
DAV:   8    -0.269580674266E+03    0.36291E-04   -0.36643E-04 51952   0.681E-02    0.748E-02
DAV:   9    -0.269580711038E+03   -0.36772E-04   -0.21672E-04 34640   0.315E-02    0.677E-02
DAV:  10    -0.269580722953E+03   -0.11915E-04   -0.38099E-05 27240   0.175E-02    0.751E-02
DAV:  11    -0.269580719472E+03    0.34813E-05   -0.35981E-05 27776   0.211E-02
  34 F= -.26958072E+03 E0= -.26957106E+03  d E =-.418328E-02  mag=     4.0000
       N       E                     dE             d eps       ncg     rms          rms(c)
DAV:   1    -0.269586821132E+03   -0.60982E-02   -0.24924E-01 40320   0.245E+00    0.206E-01
DAV:   2    -0.269590266554E+03   -0.34454E-02   -0.31987E-02 44512   0.516E-01    0.120E+00
DAV:   3    -0.269588155324E+03    0.21112E-02   -0.13935E-02 53536   0.254E-01    0.239E-01
DAV:   4    -0.269588811010E+03   -0.65569E-03   -0.31338E-03 55472   0.127E-01    0.421E-01
DAV:   5    -0.269588462775E+03    0.34823E-03   -0.16336E-03 53416   0.102E-01    0.102E-01
DAV:   6    -0.269588569647E+03   -0.10687E-03   -0.76701E-04 42448   0.557E-02    0.249E-01
DAV:   7    -0.269588460897E+03    0.10875E-03   -0.52267E-04 46472   0.571E-02    0.408E-02
DAV:   8    -0.269588483950E+03   -0.23053E-04   -0.51557E-05 29744   0.217E-02    0.361E-02
DAV:   9    -0.269588486372E+03   -0.24211E-05   -0.21594E-05 23136   0.161E-02
  35 F= -.26958849E+03 E0= -.26957885E+03  d E =-.776690E-02  mag=     4.0000
       N       E                     dE             d eps       ncg     rms          rms(c)
DAV:   1    -0.269593145152E+03   -0.46612E-02   -0.15578E+00 40320   0.572E+00    0.464E-01
DAV:   2    -0.269608686804E+03   -0.15542E-01   -0.15474E-01 42776   0.116E+00    0.225E+00
DAV:   3    -0.269601249807E+03    0.74370E-02   -0.56187E-02 54304   0.522E-01    0.589E-01
DAV:   4    -0.269603991330E+03   -0.27415E-02   -0.18074E-02 55320   0.291E-01    0.104E+00
DAV:   5    -0.269601965358E+03    0.20260E-02   -0.10087E-02 54624   0.244E-01    0.303E-01
DAV:   6    -0.269602348263E+03   -0.38290E-03   -0.35619E-03 53576   0.124E-01    0.442E-01
DAV:   7    -0.269601985292E+03    0.36297E-03   -0.16627E-03 56032   0.114E-01    0.895E-02
DAV:   8    -0.269602051049E+03   -0.65757E-04   -0.19596E-04 52032   0.531E-02    0.664E-02
DAV:   9    -0.269602055287E+03   -0.42375E-05   -0.74042E-05 32464   0.318E-02
  36 F= -.26960206E+03 E0= -.26959257E+03  d E =-.135689E-01  mag=     4.0000
       N       E                     dE             d eps       ncg     rms          rms(c)
DAV:   1    -0.269604494311E+03   -0.24433E-02   -0.25160E-01 39312   0.199E+00    0.178E-01
DAV:   2    -0.269606700592E+03   -0.22063E-02   -0.21077E-02 45464   0.406E-01    0.952E-01
DAV:   3    -0.269605383592E+03    0.13170E-02   -0.92079E-03 54720   0.204E-01    0.204E-01
DAV:   4    -0.269605808617E+03   -0.42502E-03   -0.21860E-03 54192   0.107E-01    0.366E-01
DAV:   5    -0.269605545148E+03    0.26347E-03   -0.13406E-03 52528   0.898E-02    0.940E-02
DAV:   6    -0.269605643897E+03   -0.98749E-04   -0.74308E-04 37184   0.551E-02    0.247E-01
DAV:   7    -0.269605541006E+03    0.10289E-03   -0.49736E-04 48816   0.575E-02    0.399E-02
DAV:   8    -0.269605556739E+03   -0.15733E-04   -0.29243E-05 29400   0.283E-02    0.326E-02
DAV:   9    -0.269605558494E+03   -0.17557E-05   -0.20721E-05 23280   0.165E-02
  37 F= -.26960556E+03 E0= -.26959603E+03  d E =-.350321E-02  mag=     4.0000
       N       E                     dE             d eps       ncg     rms          rms(c)
DAV:   1    -0.269603098884E+03    0.24579E-02   -0.23429E+00 39312   0.552E+00    0.463E-01
DAV:   2    -0.269613535628E+03   -0.10437E-01   -0.11239E-01 42352   0.101E+00    0.140E+00
DAV:   3    -0.269611168749E+03    0.23669E-02   -0.31781E-02 57520   0.398E-01    0.691E-01
DAV:   4    -0.269612658824E+03   -0.14901E-02   -0.18277E-02 54936   0.282E-01    0.107E+00
DAV:   5    -0.269610418345E+03    0.22405E-02   -0.10742E-02 54808   0.245E-01    0.162E-01
DAV:   6    -0.269611533646E+03   -0.11153E-02   -0.66271E-03 54376   0.163E-01    0.834E-01
DAV:   7    -0.269610365814E+03    0.11678E-02   -0.51756E-03 56224   0.159E-01    0.112E-01
DAV:   8    -0.269610589876E+03   -0.22406E-03   -0.18496E-04 46968   0.534E-02    0.697E-02
DAV:   9    -0.269610603114E+03   -0.13238E-04   -0.68271E-05 32488   0.269E-02    0.633E-02
DAV:  10    -0.269610603868E+03   -0.75337E-06   -0.28242E-05 26944   0.210E-02
  38 F= -.26961060E+03 E0= -.26960113E+03  d E =-.504537E-02  mag=     4.0000
       N       E                     dE             d eps       ncg     rms          rms(c)
DAV:   1    -0.269609210696E+03    0.13924E-02   -0.47011E-01 40336   0.261E+00    0.289E-01
DAV:   2    -0.269611221300E+03   -0.20106E-02   -0.20523E-02 42480   0.472E-01    0.544E-01
DAV:   3    -0.269611190234E+03    0.31066E-04   -0.99838E-03 53688   0.214E-01    0.574E-01
DAV:   4    -0.269611302730E+03   -0.11250E-03   -0.64871E-03 53424   0.167E-01    0.628E-01
DAV:   5    -0.269610639456E+03    0.66327E-03   -0.32151E-03 53136   0.136E-01    0.760E-02
DAV:   6    -0.269610734531E+03   -0.95076E-04   -0.14916E-04 52352   0.553E-02    0.654E-02
DAV:   7    -0.269610782212E+03   -0.47681E-04   -0.42776E-04 37696   0.483E-02    0.200E-01
DAV:   8    -0.269610720627E+03    0.61585E-04   -0.35667E-04 32792   0.418E-02    0.471E-02
DAV:   9    -0.269610735770E+03   -0.15143E-04   -0.34538E-05 27088   0.199E-02    0.405E-02
DAV:  10    -0.269610736973E+03   -0.12026E-05   -0.10846E-05 22336   0.108E-02
  39 F= -.26961074E+03 E0= -.26960123E+03  d E =-.133105E-03  mag=     4.0000
       N       E                     dE             d eps       ncg     rms          rms(c)
DAV:   1    -0.269572416004E+03    0.38320E-01   -0.11767E+01 40320   0.133E+01    0.737E-01
DAV:   2    -0.269617238708E+03   -0.44823E-01   -0.45551E-01 40688   0.222E+00    0.229E+00
DAV:   3    -0.269610944215E+03    0.62945E-02   -0.97607E-02 54056   0.687E-01    0.111E+00
DAV:   4    -0.269612642129E+03   -0.16979E-02   -0.30708E-02 54752   0.394E-01    0.137E+00
DAV:   5    -0.269609386728E+03    0.32554E-02   -0.17415E-02 54944   0.300E-01    0.421E-01
DAV:   6    -0.269610339616E+03   -0.95289E-03   -0.75537E-03 54056   0.190E-01    0.788E-01
DAV:   7    -0.269608953833E+03    0.13858E-02   -0.55186E-03 54560   0.215E-01    0.176E-01
DAV:   8    -0.269609166297E+03   -0.21246E-03   -0.86946E-04 53848   0.107E-01    0.125E-01
DAV:   9    -0.269609233506E+03   -0.67209E-04   -0.52505E-04 53664   0.715E-02    0.966E-02
DAV:  10    -0.269609265036E+03   -0.31529E-04   -0.15538E-04 33952   0.443E-02    0.949E-02
DAV:  11    -0.269609278297E+03   -0.13261E-04   -0.12105E-04 39624   0.357E-02    0.905E-02
DAV:  12    -0.269609273041E+03    0.52562E-05   -0.48293E-05 29512   0.227E-02
  40 F= -.26960927E+03 E0= -.26959984E+03  d E =0.146393E-02  mag=     4.0000
       N       E                     dE             d eps       ncg     rms          rms(c)
DAV:   1    -0.269153466858E+03    0.45581E+00   -0.11915E+02 40320   0.398E+01    0.308E+00
DAV:   2    -0.269559669248E+03   -0.40620E+00   -0.43412E+00 40608   0.673E+00    0.391E+00
DAV:   3    -0.269608358079E+03   -0.48689E-01   -0.12060E+00 54936   0.214E+00    0.742E+00
DAV:   4    -0.269552346715E+03    0.56011E-01   -0.74578E-01 53688   0.169E+00    0.468E+00
DAV:   5    -0.269525497399E+03    0.26849E-01   -0.26893E-01 53960   0.118E+00    0.154E+00
DAV:   6    -0.269542624556E+03   -0.17127E-01   -0.13211E-01 54656   0.841E-01    0.387E+00
DAV:   7    -0.269519993421E+03    0.22631E-01   -0.13534E-01 52656   0.774E-01    0.108E+00
DAV:   8    -0.269521192659E+03   -0.11992E-02   -0.10641E-02 53648   0.494E-01    0.610E-01
DAV:   9    -0.269522271349E+03   -0.10787E-02   -0.16071E-02 54144   0.342E-01    0.551E-01
DAV:  10    -0.269523786250E+03   -0.15149E-02   -0.85932E-03 52608   0.217E-01    0.543E-01
DAV:  11    -0.269523975922E+03   -0.18967E-03   -0.24621E-03 53552   0.166E-01    0.444E-01
DAV:  12    -0.269523871238E+03    0.10468E-03   -0.15946E-03 54512   0.160E-01    0.280E-01
DAV:  13    -0.269523634868E+03    0.23637E-03   -0.11723E-03 53384   0.184E-01    0.214E-01
DAV:  14    -0.269523929684E+03   -0.29482E-03   -0.84465E-04 48528   0.948E-02    0.201E-01
DAV:  15    -0.269524026269E+03   -0.96585E-04   -0.44837E-04 52072   0.993E-02    0.953E-02
DAV:  16    -0.269524054720E+03   -0.28452E-04   -0.17290E-04 48056   0.400E-02    0.772E-02
DAV:  17    -0.269524055972E+03   -0.12520E-05   -0.32528E-05 27736   0.181E-02
  41 F= -.26952406E+03 E0= -.26951444E+03  d E =0.852171E-01  mag=     4.0000
       N       E                     dE             d eps       ncg     rms          rms(c)
DAV:   1    -0.269553990735E+03   -0.29936E-01   -0.12834E+01 40320   0.144E+01    0.241E+00
DAV:   2    -0.269632810185E+03   -0.78819E-01   -0.81330E-01 46264   0.279E+00    0.432E+00
DAV:   3    -0.269650924672E+03   -0.18114E-01   -0.81911E-01 53408   0.182E+00    0.611E+00
DAV:   4    -0.269611911456E+03    0.39013E-01   -0.37855E-01 53528   0.118E+00    0.371E+00
DAV:   5    -0.269600403031E+03    0.11508E-01   -0.13992E-01 52184   0.713E-01    0.955E-01
DAV:   6    -0.269610201168E+03   -0.97981E-02   -0.60117E-02 53552   0.562E-01    0.218E+00
DAV:   7    -0.269601307963E+03    0.88932E-02   -0.47854E-02 53960   0.529E-01    0.514E-01
DAV:   8    -0.269603370088E+03   -0.20621E-02   -0.84466E-03 52984   0.245E-01    0.463E-01
DAV:   9    -0.269604137417E+03   -0.76733E-03   -0.43203E-03 53504   0.168E-01    0.453E-01
DAV:  10    -0.269604276234E+03   -0.13882E-03   -0.11971E-03 53328   0.108E-01    0.408E-01
DAV:  11    -0.269604231362E+03    0.44871E-04   -0.83113E-04 54048   0.100E-01    0.307E-01
DAV:  12    -0.269604152168E+03    0.79194E-04   -0.69444E-04 53888   0.937E-02    0.173E-01
DAV:  13    -0.269604163011E+03   -0.10843E-04   -0.35486E-04 52928   0.772E-02    0.113E-01
DAV:  14    -0.269604180634E+03   -0.17623E-04   -0.15305E-04 38848   0.404E-02    0.925E-02
DAV:  15    -0.269604199836E+03   -0.19201E-04   -0.11153E-04 36704   0.398E-02    0.500E-02
DAV:  16    -0.269604206680E+03   -0.68443E-05   -0.40213E-05 33824   0.244E-02
  42 F= -.26960421E+03 E0= -.26959464E+03  d E =-.801507E-01  mag=     4.0000
       N       E                     dE             d eps       ncg     rms          rms(c)
DAV:   1    -0.269607302632E+03   -0.31028E-02   -0.30348E-01 40368   0.207E+00    0.428E-01
DAV:   2    -0.269609198285E+03   -0.18957E-02   -0.20134E-02 48144   0.482E-01    0.833E-01
DAV:   3    -0.269609478618E+03   -0.28033E-03   -0.25565E-02 52840   0.330E-01    0.100E+00
DAV:   4    -0.269608600962E+03    0.87766E-03   -0.90198E-03 53536   0.227E-01    0.660E-01
DAV:   5    -0.269608138730E+03    0.46223E-03   -0.51293E-03 53576   0.147E-01    0.221E-01
DAV:   6    -0.269608404766E+03   -0.26604E-03   -0.25101E-03 52608   0.103E-01    0.381E-01
DAV:   7    -0.269608141903E+03    0.26286E-03   -0.13765E-03 54664   0.937E-02    0.777E-02
DAV:   8    -0.269608165224E+03   -0.23321E-04   -0.92622E-05 40896   0.448E-02    0.596E-02
DAV:   9    -0.269608165740E+03   -0.51580E-06   -0.68344E-05 29968   0.250E-02
  43 F= -.26960817E+03 E0= -.26959863E+03  d E =-.395906E-02  mag=     4.0000
       N       E                     dE             d eps       ncg     rms          rms(c)
DAV:   1    -0.269604778028E+03    0.33872E-02   -0.12902E+00 40304   0.403E+00    0.237E-01
DAV:   2    -0.269609131846E+03   -0.43538E-02   -0.44467E-02 41784   0.663E-01    0.787E-01
DAV:   3    -0.269608418148E+03    0.71370E-03   -0.10007E-02 53320   0.227E-01    0.392E-01
DAV:   4    -0.269608389851E+03    0.28297E-04   -0.14629E-03 53240   0.106E-01    0.264E-01
DAV:   5    -0.269608307292E+03    0.82559E-04   -0.10956E-03 51824   0.744E-02    0.167E-01
DAV:   6    -0.269608415139E+03   -0.10785E-03   -0.12587E-03 50224   0.789E-02    0.336E-01
DAV:   7    -0.269608178905E+03    0.23623E-03   -0.10450E-03 54224   0.814E-02    0.646E-02
DAV:   8    -0.269608223186E+03   -0.44281E-04   -0.16368E-04 32496   0.330E-02    0.568E-02
DAV:   9    -0.269608242803E+03   -0.19617E-04   -0.93626E-05 30520   0.258E-02    0.525E-02
DAV:  10    -0.269608247203E+03   -0.43997E-05   -0.24963E-05 26672   0.197E-02
  44 F= -.26960825E+03 E0= -.26959863E+03  d E =-.814628E-04  mag=     4.0000
       N       E                     dE             d eps       ncg     rms          rms(c)
DAV:   1    -0.268486598916E+03    0.11216E+01   -0.14915E+02 40320   0.500E+01    0.658E+00
DAV:   2    -0.269471396970E+03   -0.98480E+00   -0.97532E+00 45408   0.100E+01    0.147E+01
DAV:   3    -0.269300012103E+03    0.17138E+00   -0.59043E+00 53504   0.523E+00    0.106E+01
DAV:   4    -0.269263633259E+03    0.36379E-01   -0.19645E+00 54360   0.304E+00    0.103E+01
DAV:   5    -0.269095091254E+03    0.16854E+00   -0.62061E-01 53640   0.219E+00    0.366E+00
DAV:   6    -0.269111407438E+03   -0.16316E-01   -0.18196E-01 54000   0.128E+00    0.287E+00
DAV:   7    -0.269145084450E+03   -0.33677E-01   -0.45043E-01 54024   0.141E+00    0.546E+00
DAV:   8    -0.269105936076E+03    0.39148E-01   -0.36553E-01 53272   0.120E+00    0.197E+00
DAV:   9    -0.269113378242E+03   -0.74422E-02   -0.44020E-02 52304   0.702E-01    0.108E+00
DAV:  10    -0.269116213752E+03   -0.28355E-02   -0.31971E-02 53792   0.423E-01    0.775E-01
DAV:  11    -0.269119030827E+03   -0.28171E-02   -0.13225E-02 51760   0.285E-01    0.788E-01
DAV:  12    -0.269119214123E+03   -0.18330E-03   -0.33180E-03 53224   0.174E-01    0.725E-01
DAV:  13    -0.269118681397E+03    0.53273E-03   -0.44315E-03 53912   0.245E-01    0.577E-01
DAV:  14    -0.269118440904E+03    0.24049E-03   -0.40816E-03 53520   0.248E-01    0.412E-01
DAV:  15    -0.269118987602E+03   -0.54670E-03   -0.20856E-03 51064   0.191E-01    0.352E-01
DAV:  16    -0.269119116892E+03   -0.12929E-03   -0.15576E-03 53936   0.145E-01    0.283E-01
DAV:  17    -0.269119113914E+03    0.29788E-05   -0.37126E-04 50848   0.569E-02    0.182E-01
DAV:  18    -0.269119132188E+03   -0.18274E-04   -0.19801E-04 43176   0.495E-02    0.106E-01
DAV:  19    -0.269119127212E+03    0.49756E-05   -0.91552E-05 34000   0.350E-02
  45 F= -.26911913E+03 E0= -.26910843E+03  d E =0.489120E+00  mag=     4.0000
       N       E                     dE             d eps       ncg     rms          rms(c)
DAV:   1    -0.268996217185E+03    0.12292E+00   -0.92146E+01 41328   0.319E+01    0.850E+00
DAV:   2    -0.269787991125E+03   -0.79177E+00   -0.70090E+00 47008   0.750E+00    0.167E+01
DAV:   3    -0.269751069825E+03    0.36921E-01   -0.11775E+01 53464   0.661E+00    0.128E+01
DAV:   4    -0.269662533075E+03    0.88537E-01   -0.32577E+00 53792   0.373E+00    0.147E+01
DAV:   5    -0.269313854649E+03    0.34868E+00   -0.20034E+00 53536   0.277E+00    0.497E+00
DAV:   6    -0.269425182756E+03   -0.11133E+00   -0.80041E-01 54048   0.182E+00    0.960E+00
DAV:   7    -0.269323619350E+03    0.10156E+00   -0.10019E+00 53656   0.176E+00    0.274E+00
DAV:   8    -0.269355294983E+03   -0.31676E-01   -0.10708E-01 50704   0.885E-01    0.242E+00
DAV:   9    -0.269348835928E+03    0.64591E-02   -0.53822E-02 54496   0.671E-01    0.133E+00
DAV:  10    -0.269347622037E+03    0.12139E-02   -0.14937E-02 53936   0.482E-01    0.903E-01
DAV:  11    -0.269347064988E+03    0.55705E-03   -0.15950E-02 53928   0.438E-01    0.756E-01
DAV:  12    -0.269346974243E+03    0.90745E-04   -0.99420E-03 53744   0.290E-01    0.489E-01
DAV:  13    -0.269347215096E+03   -0.24085E-03   -0.25841E-03 54032   0.174E-01    0.382E-01
DAV:  14    -0.269347234211E+03   -0.19115E-04   -0.33443E-03 53784   0.135E-01    0.219E-01
DAV:  15    -0.269347465543E+03   -0.23133E-03   -0.89268E-04 50608   0.786E-02    0.188E-01
DAV:  16    -0.269347490547E+03   -0.25004E-04   -0.22145E-04 42208   0.465E-02    0.180E-01
DAV:  17    -0.269347493349E+03   -0.28017E-05   -0.83730E-05 35272   0.320E-02
  46 F= -.26934749E+03 E0= -.26933713E+03  d E =-.228366E+00  mag=     4.0000
       N       E                     dE             d eps       ncg     rms          rms(c)
DAV:   1    -0.269511319822E+03   -0.16383E+00   -0.64413E+00 39816   0.872E+00    0.196E+00
DAV:   2    -0.269540281103E+03   -0.28961E-01   -0.33138E-01 46848   0.180E+00    0.192E+00
DAV:   3    -0.269579900204E+03   -0.39619E-01   -0.48146E-01 53704   0.133E+00    0.553E+00
DAV:   4    -0.269526696321E+03    0.53204E-01   -0.22005E-01 53640   0.106E+00    0.110E+00
DAV:   5    -0.269536622954E+03   -0.99266E-02   -0.51955E-02 52672   0.439E-01    0.187E+00
DAV:   6    -0.269531877680E+03    0.47453E-02   -0.19212E-02 52624   0.354E-01    0.463E-01
DAV:   7    -0.269534885755E+03   -0.30081E-02   -0.19713E-02 53648   0.320E-01    0.120E+00
DAV:   8    -0.269532467314E+03    0.24184E-02   -0.12534E-02 53392   0.284E-01    0.389E-01
DAV:   9    -0.269532968401E+03   -0.50109E-03   -0.20212E-03 51840   0.113E-01    0.240E-01
DAV:  10    -0.269533045119E+03   -0.76719E-04   -0.53476E-04 53584   0.882E-02    0.210E-01
DAV:  11    -0.269533059364E+03   -0.14245E-04   -0.52910E-04 53944   0.749E-02    0.172E-01
DAV:  12    -0.269533069471E+03   -0.10107E-04   -0.29545E-04 34280   0.453E-02    0.114E-01
DAV:  13    -0.269533082321E+03   -0.12850E-04   -0.49870E-05 35208   0.251E-02    0.114E-01
DAV:  14    -0.269533078598E+03    0.37234E-05   -0.27958E-05 29096   0.184E-02
  47 F= -.26953308E+03 E0= -.26952264E+03  d E =-.185585E+00  mag=     4.0000
       N       E                     dE             d eps       ncg     rms          rms(c)
DAV:   1    -0.269507112577E+03    0.25970E-01   -0.12657E+01 40328   0.123E+01    0.331E+00
DAV:   2    -0.269569584333E+03   -0.62472E-01   -0.70953E-01 47200   0.257E+00    0.417E+00
DAV:   3    -0.269653967145E+03   -0.84383E-01   -0.15022E+00 53672   0.223E+00    0.845E+00
DAV:   4    -0.269536862820E+03    0.11710E+00   -0.56850E-01 53984   0.166E+00    0.295E+00
DAV:   5    -0.269540963961E+03   -0.41011E-02   -0.12351E-01 52520   0.703E-01    0.141E+00
DAV:   6    -0.269550088528E+03   -0.91246E-02   -0.73034E-02 53192   0.639E-01    0.255E+00
DAV:   7    -0.269539389265E+03    0.10699E-01   -0.61709E-02 53912   0.583E-01    0.631E-01
DAV:   8    -0.269541852694E+03   -0.24634E-02   -0.85863E-03 52448   0.291E-01    0.546E-01
DAV:   9    -0.269542026088E+03   -0.17339E-03   -0.31166E-03 54032   0.197E-01    0.449E-01
DAV:  10    -0.269541918910E+03    0.10718E-03   -0.15737E-03 53536   0.124E-01    0.280E-01
DAV:  11    -0.269541897799E+03    0.21112E-04   -0.15639E-03 53888   0.110E-01    0.251E-01
DAV:  12    -0.269541942809E+03   -0.45010E-04   -0.56114E-04 47440   0.586E-02    0.123E-01
DAV:  13    -0.269541987135E+03   -0.44326E-04   -0.17343E-04 37712   0.328E-02    0.960E-02
DAV:  14    -0.269541991556E+03   -0.44209E-05   -0.27400E-05 28152   0.179E-02
  48 F= -.26954199E+03 E0= -.26953158E+03  d E =-.891296E-02  mag=     4.0000
       N       E                     dE             d eps       ncg     rms          rms(c)
DAV:   1    -0.269579907530E+03   -0.37920E-01   -0.27459E+00 40792   0.512E+00    0.152E+00
DAV:   2    -0.269603643757E+03   -0.23736E-01   -0.22328E-01 47488   0.128E+00    0.339E+00
DAV:   3    -0.269599335596E+03    0.43082E-02   -0.33398E-01 53160   0.114E+00    0.323E+00
DAV:   4    -0.269594969158E+03    0.43664E-02   -0.14681E-01 53152   0.740E-01    0.273E+00
DAV:   5    -0.269585215249E+03    0.97539E-02   -0.68358E-02 53016   0.529E-01    0.700E-01
DAV:   6    -0.269588800482E+03   -0.35852E-02   -0.23404E-02 52696   0.328E-01    0.125E+00
DAV:   7    -0.269586265166E+03    0.25353E-02   -0.11326E-02 53640   0.291E-01    0.228E-01
DAV:   8    -0.269587073416E+03   -0.80825E-03   -0.26283E-03 53144   0.150E-01    0.262E-01
DAV:   9    -0.269587288394E+03   -0.21498E-03   -0.97542E-04 53400   0.954E-02    0.281E-01
DAV:  10    -0.269587256349E+03    0.32046E-04   -0.19932E-04 42160   0.474E-02    0.238E-01
DAV:  11    -0.269587239620E+03    0.16729E-04   -0.22488E-04 42504   0.498E-02    0.181E-01
DAV:  12    -0.269587187312E+03    0.52308E-04   -0.22938E-04 40888   0.456E-02    0.652E-02
DAV:  13    -0.269587214111E+03   -0.26799E-04   -0.11268E-04 36224   0.309E-02    0.530E-02
DAV:  14    -0.269587220285E+03   -0.61740E-05   -0.39921E-05 27656   0.207E-02
  49 F= -.26958722E+03 E0= -.26957691E+03  d E =-.452287E-01  mag=     4.0000
       N       E                     dE             d eps       ncg     rms          rms(c)
DAV:   1    -0.269590129115E+03   -0.29150E-02   -0.24552E-01 40352   0.222E+00    0.208E-01
DAV:   2    -0.269591425384E+03   -0.12963E-02   -0.14665E-02 42352   0.417E-01    0.283E-01
DAV:   3    -0.269591712097E+03   -0.28671E-03   -0.55751E-03 54080   0.156E-01    0.534E-01
DAV:   4    -0.269591303826E+03    0.40827E-03   -0.28109E-03 54488   0.116E-01    0.223E-01
DAV:   5    -0.269591286688E+03    0.17137E-04   -0.49352E-04 38224   0.554E-02    0.103E-01
DAV:   6    -0.269591281264E+03    0.54246E-05   -0.10936E-04 43648   0.423E-02    0.841E-02
DAV:   7    -0.269591308017E+03   -0.26753E-04   -0.38674E-04 36936   0.506E-02    0.218E-01
DAV:   8    -0.269591247865E+03    0.60152E-04   -0.58995E-04 34072   0.523E-02    0.968E-02
DAV:   9    -0.269591270266E+03   -0.22401E-04   -0.20715E-04 30464   0.337E-02    0.490E-02
DAV:  10    -0.269591278766E+03   -0.85003E-05   -0.29157E-05 26000   0.198E-02
  50 F= -.26959128E+03 E0= -.26958104E+03  d E =-.405848E-02  mag=     4.0000
       N       E                     dE             d eps       ncg     rms          rms(c)
DAV:   1    -0.269585714394E+03    0.55559E-02   -0.34151E+00 40320   0.821E+00    0.598E-01
DAV:   2    -0.269603692175E+03   -0.17978E-01   -0.19513E-01 41880   0.149E+00    0.114E+00
DAV:   3    -0.269603148005E+03    0.54417E-03   -0.42865E-02 54808   0.487E-01    0.103E+00
DAV:   4    -0.269602975547E+03    0.17246E-03   -0.21330E-02 54848   0.315E-01    0.104E+00
DAV:   5    -0.269601207507E+03    0.17680E-02   -0.75773E-03 54944   0.207E-01    0.308E-01
DAV:   6    -0.269601642132E+03   -0.43463E-03   -0.30783E-03 54416   0.135E-01    0.604E-01
DAV:   7    -0.269601180870E+03    0.46126E-03   -0.55973E-03 54128   0.141E-01    0.383E-01
DAV:   8    -0.269601008379E+03    0.17249E-03   -0.10313E-03 53768   0.128E-01    0.166E-01
DAV:   9    -0.269601169993E+03   -0.16161E-03   -0.12879E-03 54128   0.926E-02    0.147E-01
DAV:  10    -0.269601240746E+03   -0.70753E-04   -0.32276E-04 49888   0.662E-02    0.147E-01
DAV:  11    -0.269601259412E+03   -0.18666E-04   -0.17671E-04 48648   0.460E-02    0.125E-01
DAV:  12    -0.269601252521E+03    0.68910E-05   -0.77818E-05 33856   0.358E-02
  51 F= -.26960125E+03 E0= -.26959123E+03  d E =-.997375E-02  mag=     4.0000
       N       E                     dE             d eps       ncg     rms          rms(c)
DAV:   1    -0.269598419032E+03    0.28404E-02   -0.15590E+00 40320   0.550E+00    0.330E-01
DAV:   2    -0.269606228271E+03   -0.78092E-02   -0.81920E-02 42088   0.959E-01    0.731E-01
DAV:   3    -0.269605669779E+03    0.55849E-03   -0.11895E-02 56712   0.264E-01    0.487E-01
DAV:   4    -0.269606144275E+03   -0.47450E-03   -0.73682E-03 54320   0.187E-01    0.757E-01
DAV:   5    -0.269605201927E+03    0.94235E-03   -0.42252E-03 54152   0.156E-01    0.178E-01
DAV:   6    -0.269605551720E+03   -0.34979E-03   -0.24636E-03 54280   0.950E-02    0.436E-01
DAV:   7    -0.269605196741E+03    0.35498E-03   -0.24175E-03 54792   0.109E-01    0.130E-01
DAV:   8    -0.269605249312E+03   -0.52571E-04   -0.17042E-04 48704   0.507E-02    0.747E-02
DAV:   9    -0.269605251509E+03   -0.21973E-05   -0.93857E-05 31952   0.322E-02
  52 F= -.26960525E+03 E0= -.26959532E+03  d E =-.399899E-02  mag=     4.0000
       N       E                     dE             d eps       ncg     rms          rms(c)
DAV:   1    -0.269581243911E+03    0.24005E-01   -0.49020E+00 40320   0.953E+00    0.763E-01
DAV:   2    -0.269607282437E+03   -0.26039E-01   -0.26909E-01 42080   0.169E+00    0.158E+00
DAV:   3    -0.269606515027E+03    0.76741E-03   -0.84004E-02 53792   0.646E-01    0.148E+00
DAV:   4    -0.269605449791E+03    0.10652E-02   -0.33419E-02 53832   0.415E-01    0.122E+00
DAV:   5    -0.269602894651E+03    0.25551E-02   -0.14413E-02 54400   0.288E-01    0.255E-01
DAV:   6    -0.269603063557E+03   -0.16891E-03   -0.18525E-03 48872   0.144E-01    0.305E-01
DAV:   7    -0.269603399767E+03   -0.33621E-03   -0.48271E-03 53712   0.134E-01    0.600E-01
DAV:   8    -0.269602960004E+03    0.43976E-03   -0.30663E-03 53008   0.117E-01    0.111E-01
DAV:   9    -0.269603131568E+03   -0.17156E-03   -0.37359E-04 43840   0.526E-02    0.102E-01
DAV:  10    -0.269603150412E+03   -0.18844E-04   -0.87372E-05 33168   0.326E-02    0.108E-01
DAV:  11    -0.269603145310E+03    0.51022E-05   -0.63848E-05 32008   0.286E-02
  53 F= -.26960315E+03 E0= -.26959329E+03  d E =0.210620E-02  mag=     4.0000
       N       E                     dE             d eps       ncg     rms          rms(c)
DAV:   1    -0.269606017608E+03   -0.28672E-02   -0.78246E-01 40320   0.318E+00    0.656E-01
DAV:   2    -0.269610797503E+03   -0.47799E-02   -0.48769E-02 47272   0.655E-01    0.123E+00
DAV:   3    -0.269611643651E+03   -0.84615E-03   -0.60935E-02 53320   0.482E-01    0.153E+00
DAV:   4    -0.269609386292E+03    0.22574E-02   -0.24258E-02 52872   0.335E-01    0.971E-01
DAV:   5    -0.269608371198E+03    0.10151E-02   -0.99439E-03 53080   0.219E-01    0.280E-01
DAV:   6    -0.269609029442E+03   -0.65824E-03   -0.44931E-03 53784   0.150E-01    0.573E-01
DAV:   7    -0.269608401554E+03    0.62789E-03   -0.28878E-03 53888   0.139E-01    0.946E-02
DAV:   8    -0.269608530705E+03   -0.12915E-03   -0.34517E-04 52432   0.548E-02    0.766E-02
DAV:   9    -0.269608554756E+03   -0.24051E-04   -0.94554E-05 31920   0.334E-02    0.844E-02
DAV:  10    -0.269608553300E+03    0.14560E-05   -0.24753E-05 27168   0.193E-02
  54 F= -.26960855E+03 E0= -.26959859E+03  d E =-.540799E-02  mag=     4.0000
       N       E                     dE             d eps       ncg     rms          rms(c)
DAV:   1    -0.269608793391E+03   -0.23863E-03   -0.15579E-01 40416   0.173E+00    0.150E-01
DAV:   2    -0.269609606204E+03   -0.81281E-03   -0.85942E-03 42280   0.303E-01    0.297E-01
DAV:   3    -0.269609661399E+03   -0.55195E-04   -0.37674E-03 54280   0.133E-01    0.365E-01
DAV:   4    -0.269609474820E+03    0.18658E-03   -0.98861E-04 50808   0.765E-02    0.137E-01
DAV:   5    -0.269609480170E+03   -0.53493E-05   -0.30007E-04 33304   0.400E-02    0.978E-02
DAV:   6    -0.269609513349E+03   -0.33179E-04   -0.34102E-04 32936   0.402E-02    0.187E-01
DAV:   7    -0.269609461627E+03    0.51722E-04   -0.28433E-04 31648   0.425E-02    0.612E-02
DAV:   8    -0.269609469843E+03   -0.82159E-05   -0.31402E-05 28096   0.195E-02
  55 F= -.26960947E+03 E0= -.26959947E+03  d E =-.916543E-03  mag=     4.0000
       N       E                     dE             d eps       ncg     rms          rms(c)
DAV:   1    -0.269608994517E+03    0.46711E-03   -0.35618E-01 40320   0.227E+00    0.182E-01
DAV:   2    -0.269610552369E+03   -0.15579E-02   -0.15695E-02 44752   0.403E-01    0.594E-01
DAV:   3    -0.269610113033E+03    0.43934E-03   -0.51979E-03 55608   0.160E-01    0.283E-01
DAV:   4    -0.269610243542E+03   -0.13051E-03   -0.15794E-03 53248   0.958E-02    0.331E-01
DAV:   5    -0.269610028205E+03    0.21534E-03   -0.87910E-04 47400   0.772E-02    0.113E-01
DAV:   6    -0.269610007472E+03    0.20732E-04   -0.13686E-04 48984   0.461E-02    0.970E-02
DAV:   7    -0.269610130811E+03   -0.12334E-03   -0.11777E-03 36576   0.655E-02    0.326E-01
DAV:   8    -0.269609983359E+03    0.14745E-03   -0.90403E-04 38872   0.655E-02    0.678E-02
DAV:   9    -0.269610033400E+03   -0.50041E-04   -0.75202E-05 30104   0.289E-02    0.685E-02
DAV:  10    -0.269610034188E+03   -0.78741E-06   -0.19352E-05 27192   0.204E-02
  56 F= -.26961003E+03 E0= -.26959997E+03  d E =-.564345E-03  mag=     4.0000
       N       E                     dE             d eps       ncg     rms          rms(c)
DAV:   1    -0.269602197459E+03    0.78359E-02   -0.25921E+00 40320   0.550E+00    0.523E-01
DAV:   2    -0.269609719055E+03   -0.75216E-02   -0.79968E-02 43720   0.907E-01    0.808E-01
DAV:   3    -0.269611045184E+03   -0.13261E-02   -0.38170E-02 54480   0.406E-01    0.130E+00
DAV:   4    -0.269608142645E+03    0.29025E-02   -0.12597E-02 53592   0.263E-01    0.213E-01
[...]
DAV:   1    -0.269608485408E+03    0.39138E-03   -0.12896E+00 40320   0.416E+00    0.527E-01
DAV:   2    -0.269615958967E+03   -0.74736E-02   -0.70305E-02 47632   0.790E-01    0.177E+00
DAV:   3    -0.269612371293E+03    0.35877E-02   -0.51496E-02 52864   0.457E-01    0.850E-01
DAV:   4    -0.269612963624E+03   -0.59233E-03   -0.81845E-03 52064   0.224E-01    0.804E-01
DAV:   5    -0.269611999753E+03    0.96387E-03   -0.39593E-03 53472   0.140E-01    0.344E-01
DAV:   6    -0.269612058049E+03   -0.58296E-04   -0.33974E-04 48864   0.575E-02    0.336E-01
DAV:   7    -0.269612020295E+03    0.37754E-04   -0.13379E-03 51624   0.919E-02    0.367E-01
DAV:   8    -0.269611776754E+03    0.24354E-03   -0.24071E-03 54168   0.135E-01    0.181E-01
DAV:   9    -0.269612027142E+03   -0.25039E-03   -0.11287E-03 51672   0.750E-02    0.179E-01
DAV:  10    -0.269612043079E+03   -0.15938E-04   -0.28988E-04 51696   0.588E-02    0.140E-01
DAV:  11    -0.269612046773E+03   -0.36934E-05   -0.70196E-05 36184   0.325E-02
  60 F= -.26961205E+03 E0= -.26960198E+03  d E =-.316560E-02  mag=     4.0000
       N       E                     dE             d eps       ncg     rms          rms(c)
DAV:   1    -0.269610745497E+03    0.12976E-02   -0.60791E-01 39816   0.282E+00    0.205E-01
DAV:   2    -0.269612936005E+03   -0.21905E-02   -0.22319E-02 41512   0.475E-01    0.554E-01
DAV:   3    -0.269612686596E+03    0.24941E-03   -0.61754E-03 53592   0.175E-01    0.387E-01
DAV:   4    -0.269612611547E+03    0.75049E-04   -0.14620E-03 52360   0.101E-01    0.254E-01
DAV:   5    -0.269612516826E+03    0.94721E-04   -0.83404E-04 51416   0.724E-02    0.911E-02
DAV:   6    -0.269612640353E+03   -0.12353E-03   -0.10247E-03 40096   0.633E-02    0.304E-01
DAV:   7    -0.269612481259E+03    0.15909E-03   -0.81290E-04 42960   0.629E-02    0.398E-02
DAV:   8    -0.269612510922E+03   -0.29664E-04   -0.31553E-05 27816   0.204E-02    0.426E-02
DAV:   9    -0.269612510634E+03    0.28842E-06   -0.79955E-06 23640   0.126E-02
  61 F= -.26961251E+03 E0= -.26960245E+03  d E =-.463861E-03  mag=     4.0000
       N       E                     dE             d eps       ncg     rms          rms(c)
DAV:   1    -0.269608878648E+03    0.36323E-02   -0.12216E+00 40320   0.426E+00    0.319E-01
DAV:   2    -0.269614151046E+03   -0.52724E-02   -0.54913E-02 40992   0.733E-01    0.929E-01
DAV:   3    -0.269613152720E+03    0.99833E-03   -0.16007E-02 53456   0.277E-01    0.492E-01
DAV:   4    -0.269613445722E+03   -0.29300E-03   -0.47645E-03 53728   0.157E-01    0.588E-01
DAV:   5    -0.269612909484E+03    0.53624E-03   -0.32092E-03 53560   0.120E-01    0.190E-01
DAV:   6    -0.269613028157E+03   -0.11867E-03   -0.81518E-04 42880   0.676E-02    0.250E-01
DAV:   7    -0.269612895995E+03    0.13216E-03   -0.50865E-04 49128   0.660E-02    0.122E-01
DAV:   8    -0.269612858218E+03    0.37777E-04   -0.18184E-04 48392   0.504E-02    0.750E-02
DAV:   9    -0.269612894698E+03   -0.36480E-04   -0.29514E-04 32584   0.356E-02    0.780E-02
DAV:  10    -0.269612909462E+03   -0.14764E-04   -0.10522E-04 38768   0.411E-02    0.621E-02
DAV:  11    -0.269612911922E+03   -0.24602E-05   -0.27757E-05 27784   0.218E-02
  62 F= -.26961291E+03 E0= -.26960280E+03  d E =-.401288E-03  mag=     4.0000
       N       E                     dE             d eps       ncg     rms          rms(c)
DAV:   1    -0.269487343731E+03    0.12557E+00   -0.28655E+01 39328   0.216E+01    0.145E+00
DAV:   2    -0.269654372639E+03   -0.16703E+00   -0.17191E+00 40800   0.389E+00    0.531E+00
DAV:   3    -0.269611808135E+03    0.42565E-01   -0.31078E-01 52512   0.144E+00    0.175E+00
DAV:   4    -0.269613821970E+03   -0.20138E-02   -0.29785E-02 52496   0.568E-01    0.118E+00
DAV:   5    -0.269613433670E+03    0.38830E-03   -0.37315E-02 54424   0.399E-01    0.116E+00
DAV:   6    -0.269613775473E+03   -0.34180E-03   -0.29516E-02 53800   0.423E-01    0.131E+00
DAV:   7    -0.269610862499E+03    0.29130E-02   -0.26009E-02 55360   0.377E-01    0.507E-01
DAV:   8    -0.269611040407E+03   -0.17791E-03   -0.23560E-03 52640   0.180E-01    0.216E-01
DAV:   9    -0.269611126284E+03   -0.85877E-04   -0.86823E-04 56064   0.976E-02    0.162E-01
DAV:  10    -0.269611215830E+03   -0.89546E-04   -0.44194E-04 42784   0.591E-02    0.160E-01
DAV:  11    -0.269611243841E+03   -0.28012E-04   -0.23057E-04 42840   0.477E-02    0.161E-01
DAV:  12    -0.269611215933E+03    0.27908E-04   -0.16197E-04 40968   0.472E-02    0.945E-02
DAV:  13    -0.269611209860E+03    0.60734E-05   -0.20802E-04 47888   0.520E-02    0.875E-02
DAV:  14    -0.269611228954E+03   -0.19095E-04   -0.11220E-04 31280   0.332E-02    0.558E-02
DAV:  15    -0.269611234689E+03   -0.57341E-05   -0.46803E-05 29872   0.269E-02
  63 F= -.26961123E+03 E0= -.26960096E+03  d E =0.167723E-02  mag=     4.0000
       N       E                     dE             d eps       ncg     rms          rms(c)
DAV:   1    -0.269599611819E+03    0.11617E-01   -0.23253E+00 40320   0.672E+00    0.805E-01
DAV:   2    -0.269612467318E+03   -0.12855E-01   -0.14132E-01 43120   0.128E+00    0.115E+00
DAV:   3    -0.269617380801E+03   -0.49135E-02   -0.84245E-02 53880   0.598E-01    0.224E+00
DAV:   4    -0.269610851990E+03    0.65288E-02   -0.38273E-02 53304   0.424E-01    0.101E+00
DAV:   5    -0.269610542631E+03    0.30936E-03   -0.91449E-03 52400   0.203E-01    0.426E-01
DAV:   6    -0.269610684286E+03   -0.14166E-03   -0.12274E-03 54840   0.100E-01    0.456E-01
DAV:   7    -0.269610406433E+03    0.27785E-03   -0.10742E-03 53928   0.848E-02    0.384E-01
DAV:   8    -0.269609950920E+03    0.45551E-03   -0.13955E-03 53224   0.175E-01    0.188E-01
DAV:   9    -0.269610394070E+03   -0.44315E-03   -0.32475E-03 52352   0.120E-01    0.227E-01
DAV:  10    -0.269610502772E+03   -0.10870E-03   -0.59686E-04 52832   0.941E-02    0.202E-01
DAV:  11    -0.269610509480E+03   -0.67080E-05   -0.30493E-04 54864   0.706E-02    0.139E-01
DAV:  12    -0.269610507433E+03    0.20463E-05   -0.15841E-04 41520   0.479E-02    0.658E-02
DAV:  13    -0.269610515475E+03   -0.80415E-05   -0.71675E-05 38600   0.348E-02
  64 F= -.26961052E+03 E0= -.26960047E+03  d E =0.719214E-03  mag=     4.0000
       N       E                     dE             d eps       ncg     rms          rms(c)
DAV:   1    -0.269609730168E+03    0.77727E-03   -0.12534E+00 39312   0.415E+00    0.611E-01
DAV:   2    -0.269620951592E+03   -0.11221E-01   -0.97254E-02 46936   0.873E-01    0.241E+00
DAV:   3    -0.269614127530E+03    0.68241E-02   -0.80816E-02 51864   0.581E-01    0.972E-01
DAV:   4    -0.269614388217E+03   -0.26069E-03   -0.62371E-03 48632   0.231E-01    0.337E-01
DAV:   5    -0.269614519202E+03   -0.13098E-03   -0.26060E-03 53848   0.127E-01    0.430E-01
DAV:   6    -0.269614160923E+03    0.35828E-03   -0.10537E-03 53776   0.987E-02    0.246E-01
DAV:   7    -0.269614430842E+03   -0.26992E-03   -0.34433E-03 54288   0.126E-01    0.569E-01
DAV:   8    -0.269614011711E+03    0.41913E-03   -0.43856E-03 53872   0.134E-01    0.237E-01
DAV:   9    -0.269614197539E+03   -0.18583E-03   -0.15135E-03 48856   0.783E-02    0.131E-01
DAV:  10    -0.269614257411E+03   -0.59872E-04   -0.25118E-04 45360   0.541E-02    0.106E-01
DAV:  11    -0.269614260934E+03   -0.35238E-05   -0.92043E-05 34856   0.358E-02
  65 F= -.26961426E+03 E0= -.26960413E+03  d E =-.374546E-02  mag=     4.0000
       N       E                     dE             d eps       ncg     rms          rms(c)
DAV:   1    -0.269613664255E+03    0.59316E-03   -0.13540E-01 40320   0.162E+00    0.213E-01
DAV:   2    -0.269616173993E+03   -0.25097E-02   -0.20853E-02 49424   0.382E-01    0.121E+00
DAV:   3    -0.269613984929E+03    0.21891E-02   -0.12374E-02 52960   0.239E-01    0.165E-01
DAV:   4    -0.269614552512E+03   -0.56758E-03   -0.13776E-03 50096   0.938E-02    0.359E-01
DAV:   5    -0.269614346206E+03    0.20631E-03   -0.12146E-03 42608   0.731E-02    0.928E-02
DAV:   6    -0.269614383069E+03   -0.36863E-04   -0.75039E-05 31864   0.337E-02    0.983E-02
DAV:   7    -0.269614382539E+03    0.53001E-06   -0.98004E-05 31320   0.280E-02
  66 F= -.26961438E+03 E0= -.26960415E+03  d E =-.121605E-03  mag=     4.0000
       N       E                     dE             d eps       ncg     rms          rms(c)
DAV:   1    -0.269608120210E+03    0.62629E-02   -0.13692E+00 40320   0.491E+00    0.439E-01
DAV:   2    -0.269623848085E+03   -0.15728E-01   -0.14225E-01 47600   0.101E+00    0.267E+00
DAV:   3    -0.269612907005E+03    0.10941E-01   -0.55315E-02 51832   0.539E-01    0.338E-01
DAV:   4    -0.269615918813E+03   -0.30118E-02   -0.89998E-03 51256   0.226E-01    0.928E-01
DAV:   5    -0.269614465761E+03    0.14531E-02   -0.77266E-03 53136   0.189E-01    0.229E-01
DAV:   6    -0.269614962927E+03   -0.49717E-03   -0.30127E-03 52784   0.123E-01    0.445E-01
DAV:   7    -0.269614581361E+03    0.38157E-03   -0.19241E-03 56152   0.117E-01    0.124E-01
DAV:   8    -0.269614666650E+03   -0.85289E-04   -0.46309E-04 46800   0.489E-02    0.114E-01
DAV:   9    -0.269614684298E+03   -0.17648E-04   -0.80715E-05 30528   0.272E-02    0.107E-01
DAV:  10    -0.269614673146E+03    0.11152E-04   -0.11300E-05 24264   0.137E-02    0.108E-01
DAV:  11    -0.269614654392E+03    0.18755E-04   -0.46064E-06 23384   0.102E-02    0.109E-01
DAV:  12    -0.269614666277E+03   -0.11885E-04   -0.65568E-06 25360   0.172E-02    0.850E-02
DAV:  13    -0.269614673642E+03   -0.73650E-05   -0.88999E-05 43968   0.462E-02
  67 F= -.26961467E+03 E0= -.26960440E+03  d E =-.291102E-03  mag=     4.0000
       N       E                     dE             d eps       ncg     rms          rms(c)
DAV:   1    -0.269301658990E+03    0.31301E+00   -0.55213E+01 40320   0.294E+01    0.237E+00
DAV:   2    -0.269723133763E+03   -0.42147E+00   -0.43677E+00 41632   0.559E+00    0.834E+00
DAV:   3    -0.269607370765E+03    0.11576E+00   -0.73041E-01 52320   0.232E+00    0.273E+00
DAV:   4    -0.269624492218E+03   -0.17121E-01   -0.16571E-01 53408   0.106E+00    0.355E+00
DAV:   5    -0.269604722889E+03    0.19769E-01   -0.16629E-01 54744   0.870E-01    0.131E+00
DAV:   6    -0.269623133051E+03   -0.18410E-01   -0.13913E-01 55040   0.749E-01    0.341E+00
DAV:   7    -0.269601970628E+03    0.21162E-01   -0.89919E-02 54360   0.714E-01    0.567E-01
DAV:   8    -0.269605326429E+03   -0.33558E-02   -0.47404E-03 50296   0.190E-01    0.376E-01
DAV:   9    -0.269605462752E+03   -0.13632E-03   -0.14870E-03 55344   0.913E-02    0.310E-01
DAV:  10    -0.269605459883E+03    0.28691E-05   -0.15008E-03 53424   0.966E-02    0.266E-01
DAV:  11    -0.269605372514E+03    0.87368E-04   -0.68621E-04 54208   0.796E-02    0.149E-01
DAV:  12    -0.269605404528E+03   -0.32014E-04   -0.42570E-04 53272   0.699E-02    0.107E-01
DAV:  13    -0.269605465323E+03   -0.60795E-04   -0.25184E-04 37912   0.569E-02    0.101E-01
DAV:  14    -0.269605477131E+03   -0.11808E-04   -0.10384E-04 35104   0.385E-02    0.838E-02
DAV:  15    -0.269605478870E+03   -0.17398E-05   -0.52124E-05 32928   0.258E-02
  68 F= -.26960548E+03 E0= -.26959537E+03  d E =0.919477E-02  mag=     4.0000
       N       E                     dE             d eps       ncg     rms          rms(c)
DAV:   1    -0.269588617371E+03    0.16860E-01   -0.39307E+00 39824   0.844E+00    0.139E+00
DAV:   2    -0.269611275033E+03   -0.22658E-01   -0.25660E-01 43112   0.168E+00    0.205E+00
DAV:   3    -0.269620959935E+03   -0.96849E-02   -0.25026E-01 54080   0.921E-01    0.348E+00
DAV:   4    -0.269605501674E+03    0.15458E-01   -0.80058E-02 53768   0.683E-01    0.142E+00
DAV:   5    -0.269604977135E+03    0.52454E-03   -0.29615E-02 53320   0.403E-01    0.622E-01
DAV:   6    -0.269606963183E+03   -0.19860E-02   -0.19900E-02 54448   0.309E-01    0.117E+00
DAV:   7    -0.269604673124E+03    0.22901E-02   -0.14706E-02 53768   0.263E-01    0.233E-01
DAV:   8    -0.269605018518E+03   -0.34539E-03   -0.94623E-04 53152   0.128E-01    0.238E-01
DAV:   9    -0.269604980668E+03    0.37850E-04   -0.40135E-04 53208   0.638E-02    0.154E-01
DAV:  10    -0.269604966175E+03    0.14493E-04   -0.14777E-04 37384   0.384E-02    0.109E-01
DAV:  11    -0.269604987110E+03   -0.20935E-04   -0.45378E-04 42216   0.439E-02    0.108E-01
DAV:  12    -0.269605009175E+03   -0.22065E-04   -0.19440E-04 31656   0.344E-02    0.553E-02
DAV:  13    -0.269605017639E+03   -0.84635E-05   -0.30719E-05 28624   0.195E-02
  69 F= -.26960502E+03 E0= -.26959489E+03  d E =0.461232E-03  mag=     4.0000
       N       E                     dE             d eps       ncg     rms          rms(c)
DAV:   1    -0.269565894591E+03    0.39115E-01   -0.10595E+01 39816   0.137E+01    0.122E+00
DAV:   2    -0.269638885460E+03   -0.72991E-01   -0.74538E-01 42000   0.256E+00    0.429E+00
DAV:   3    -0.269616667880E+03    0.22218E-01   -0.28654E-01 52464   0.110E+00    0.173E+00
DAV:   4    -0.269626858209E+03   -0.10190E-01   -0.88651E-02 53336   0.641E-01    0.265E+00
DAV:   5    -0.269615138913E+03    0.11719E-01   -0.53507E-02 54136   0.513E-01    0.407E-01
DAV:   6    -0.269616361323E+03   -0.12224E-02   -0.34994E-03 55064   0.226E-01    0.300E-01
DAV:   7    -0.269617570735E+03   -0.12094E-02   -0.10197E-02 53648   0.243E-01    0.856E-01
DAV:   8    -0.269616249446E+03    0.13213E-02   -0.73551E-03 54360   0.210E-01    0.212E-01
DAV:   9    -0.269616611665E+03   -0.36222E-03   -0.11331E-03 52704   0.918E-02    0.194E-01
DAV:  10    -0.269616675177E+03   -0.63512E-04   -0.33427E-04 47568   0.606E-02    0.194E-01
DAV:  11    -0.269616664777E+03    0.10400E-04   -0.27199E-04 39832   0.515E-02    0.161E-01
DAV:  12    -0.269616639091E+03    0.25686E-04   -0.17958E-04 46320   0.508E-02    0.835E-02
DAV:  13    -0.269616633224E+03    0.58674E-05   -0.84850E-05 36480   0.362E-02
  70 F= -.26961663E+03 E0= -.26960652E+03  d E =-.116156E-01  mag=     4.0000
       N       E                     dE             d eps       ncg     rms          rms(c)
DAV:   1    -0.269607443909E+03    0.91952E-02   -0.20286E+00 39312   0.570E+00    0.468E-01
DAV:   2    -0.269619113283E+03   -0.11669E-01   -0.12081E-01 41576   0.103E+00    0.156E+00
DAV:   3    -0.269616142315E+03    0.29710E-02   -0.32924E-02 53464   0.401E-01    0.621E-01
DAV:   4    -0.269616979047E+03   -0.83673E-03   -0.81853E-03 54560   0.224E-01    0.693E-01
DAV:   5    -0.269616105796E+03    0.87325E-03   -0.54793E-03 54080   0.175E-01    0.206E-01
DAV:   6    -0.269616775929E+03   -0.67013E-03   -0.53017E-03 54632   0.143E-01    0.696E-01
DAV:   7    -0.269615892829E+03    0.88310E-03   -0.43097E-03 55584   0.146E-01    0.906E-02
DAV:   8    -0.269616083503E+03   -0.19067E-03   -0.36762E-04 52432   0.641E-02    0.952E-02
DAV:   9    -0.269616118781E+03   -0.35278E-04   -0.18974E-04 33216   0.415E-02    0.917E-02
DAV:  10    -0.269616126936E+03   -0.81553E-05   -0.61803E-05 29928   0.266E-02
  71 F= -.26961613E+03 E0= -.26960592E+03  d E =0.506288E-03  mag=     4.0000
       N       E                     dE             d eps       ncg     rms          rms(c)
DAV:   1    -0.269573923100E+03    0.42196E-01   -0.56871E+00 38808   0.956E+00    0.117E+00
DAV:   2    -0.269621140088E+03   -0.47217E-01   -0.47811E-01 43712   0.195E+00    0.372E+00
DAV:   3    -0.269605227436E+03    0.15913E-01   -0.22585E-01 53368   0.967E-01    0.162E+00
DAV:   4    -0.269614571913E+03   -0.93445E-02   -0.77710E-02 54240   0.635E-01    0.256E+00
DAV:   5    -0.269603183280E+03    0.11389E-01   -0.53899E-02 53480   0.527E-01    0.558E-01
DAV:   6    -0.269606041559E+03   -0.28583E-02   -0.17690E-02 53960   0.282E-01    0.110E+00
DAV:   7    -0.269603814200E+03    0.22274E-02   -0.98183E-03 55336   0.253E-01    0.347E-01
DAV:   8    -0.269603716004E+03    0.98196E-04   -0.11552E-03 55088   0.179E-01    0.251E-01
DAV:   9    -0.269604036775E+03   -0.32077E-03   -0.34078E-03 53840   0.135E-01    0.229E-01
DAV:  10    -0.269604300311E+03   -0.26354E-03   -0.78140E-04 51632   0.849E-02    0.250E-01
DAV:  11    -0.269604304228E+03   -0.39174E-05   -0.47744E-04 53352   0.813E-02    0.161E-01
DAV:  12    -0.269604303041E+03    0.11868E-05   -0.20850E-04 51840   0.633E-02    0.860E-02
DAV:  13    -0.269604305649E+03   -0.26078E-05   -0.86084E-05 36584   0.309E-02
  72 F= -.26960431E+03 E0= -.26959381E+03  d E =0.118213E-01  mag=     4.0000
       N       E                     dE             d eps       ncg     rms          rms(c)
DAV:   1    -0.269589700626E+03    0.14602E-01   -0.57842E+00 38808   0.952E+00    0.108E+00
DAV:   2    -0.269634494202E+03   -0.44794E-01   -0.45565E-01 43296   0.190E+00    0.352E+00
DAV:   3    -0.269616955380E+03    0.17539E-01   -0.16198E-01 52864   0.944E-01    0.133E+00
DAV:   4    -0.269621688184E+03   -0.47328E-02   -0.41522E-02 53288   0.484E-01    0.184E+00
DAV:   5    -0.269616194627E+03    0.54936E-02   -0.27642E-02 52744   0.368E-01    0.466E-01
DAV:   6    -0.269618366113E+03   -0.21715E-02   -0.15064E-02 54008   0.260E-01    0.101E+00
DAV:   7    -0.269616228705E+03    0.21374E-02   -0.88414E-03 56040   0.247E-01    0.258E-01
DAV:   8    -0.269616485892E+03   -0.25719E-03   -0.13725E-03 54112   0.125E-01    0.211E-01
DAV:   9    -0.269616743465E+03   -0.25757E-03   -0.14838E-03 53952   0.983E-02    0.206E-01
DAV:  10    -0.269616817729E+03   -0.74264E-04   -0.28336E-04 48464   0.636E-02    0.216E-01
DAV:  11    -0.269616818510E+03   -0.78127E-06   -0.19902E-04 46024   0.546E-02    0.172E-01
DAV:  12    -0.269616803629E+03    0.14881E-04   -0.11593E-04 41768   0.485E-02    0.103E-01
DAV:  13    -0.269616805863E+03   -0.22343E-05   -0.10512E-04 37408   0.305E-02    0.439E-02
DAV:  14    -0.269616813571E+03   -0.77073E-05   -0.31398E-05 26512   0.193E-02
  73 F= -.26961681E+03 E0= -.26960654E+03  d E =-.125079E-01  mag=     4.0000
       N       E                     dE             d eps       ncg     rms          rms(c)
DAV:   1    -0.269615042459E+03    0.17634E-02   -0.48879E-01 39816   0.249E+00    0.316E-01
DAV:   2    -0.269616772345E+03   -0.17299E-02   -0.18663E-02 44624   0.479E-01    0.483E-01
DAV:   3    -0.269617319084E+03   -0.54674E-03   -0.11516E-02 53200   0.235E-01    0.828E-01
DAV:   4    -0.269616476428E+03    0.84266E-03   -0.57143E-03 53736   0.170E-01    0.401E-01
DAV:   5    -0.269616389878E+03    0.86550E-04   -0.21201E-03 52920   0.977E-02    0.188E-01
DAV:   6    -0.269616500297E+03   -0.11042E-03   -0.13195E-03 49888   0.808E-02    0.311E-01
DAV:   7    -0.269616340500E+03    0.15980E-03   -0.92982E-04 46208   0.706E-02    0.129E-01
DAV:   8    -0.269616300899E+03    0.39600E-04   -0.16043E-04 50920   0.607E-02    0.698E-02
DAV:   9    -0.269616344579E+03   -0.43680E-04   -0.42951E-04 33088   0.397E-02    0.778E-02
DAV:  10    -0.269616366981E+03   -0.22402E-04   -0.76683E-05 29960   0.282E-02    0.686E-02
DAV:  11    -0.269616366729E+03    0.25217E-06   -0.51075E-05 35416   0.283E-02
  74 F= -.26961637E+03 E0= -.26960621E+03  d E =0.446842E-03  mag=     4.0000
       N       E                     dE             d eps       ncg     rms          rms(c)
DAV:   1    -0.269616908570E+03   -0.54159E-03   -0.13925E-01 40320   0.141E+00    0.215E-01
DAV:   2    -0.269617636563E+03   -0.72799E-03   -0.77462E-03 46824   0.286E-01    0.418E-01
DAV:   3    -0.269617617531E+03    0.19032E-04   -0.59721E-03 53704   0.163E-01    0.431E-01
DAV:   4    -0.269617351596E+03    0.26593E-03   -0.15257E-03 53240   0.102E-01    0.128E-01
DAV:   5    -0.269617414974E+03   -0.63378E-04   -0.64775E-04 36824   0.507E-02    0.219E-01
DAV:   6    -0.269617345936E+03    0.69038E-04   -0.40670E-04 38000   0.529E-02    0.775E-02
DAV:   7    -0.269617372107E+03   -0.26171E-04   -0.23004E-04 33216   0.408E-02    0.132E-01
DAV:   8    -0.269617336416E+03    0.35691E-04   -0.21385E-04 32760   0.428E-02    0.491E-02
DAV:   9    -0.269617349517E+03   -0.13101E-04   -0.10221E-04 28504   0.233E-02    0.401E-02
DAV:  10    -0.269617356124E+03   -0.66063E-05   -0.27195E-05 24632   0.145E-02
  75 F= -.26961736E+03 E0= -.26960710E+03  d E =-.989395E-03  mag=     4.0000
