       N       E                     dE             d eps       ncg     rms          rms(c)
DAV:   1     0.229467827649E+04    0.22947E+04   -0.12812E+05 24472   0.159E+03
DAV:   2    -0.126672898371E+03   -0.24214E+04   -0.22591E+04 25288   0.422E+02
DAV:   3    -0.396149467932E+03   -0.26948E+03   -0.26347E+03 25984   0.159E+02
DAV:   4    -0.404445258241E+03   -0.82958E+01   -0.82124E+01 27120   0.288E+01
DAV:   5    -0.404676705862E+03   -0.23145E+00   -0.23025E+00 29008   0.451E+00    0.834E+00
DAV:   6    -0.331949755177E+03    0.72727E+02   -0.14267E+01 27080   0.129E+01    0.116E+01
DAV:   7    -0.328533219141E+03    0.34165E+01   -0.21617E+00 24952   0.626E+00    0.318E+00
DAV:   8    -0.328528295315E+03    0.49238E-02   -0.12812E-01 27864   0.139E+00    0.198E+00
DAV:   9    -0.328502690519E+03    0.25605E-01   -0.12495E-01 26432   0.104E+00    0.103E+00
DAV:  10    -0.328509610843E+03   -0.69203E-02   -0.11500E-02 27472   0.433E-01    0.591E-01
DAV:  11    -0.328505155000E+03    0.44558E-02   -0.64838E-03 26552   0.250E-01    0.347E-01
DAV:  12    -0.328505136937E+03    0.18063E-04   -0.57338E-04 27176   0.786E-02    0.242E-01
DAV:  13    -0.328505141273E+03   -0.43355E-05   -0.28969E-04 26608   0.538E-02    0.196E-01
DAV:  14    -0.328504809683E+03    0.33159E-03   -0.18791E-03 27048   0.131E-01    0.590E-02
DAV:  15    -0.328504873644E+03   -0.63960E-04   -0.84197E-05 25544   0.290E-02    0.195E-02
DAV:  16    -0.328504861907E+03    0.11736E-04   -0.85825E-06 14768   0.114E-02    0.100E-02
DAV:  17    -0.328504885887E+03   -0.23980E-04   -0.44252E-06 13288   0.926E-03    0.122E-02
DAV:  18    -0.328504866658E+03    0.19228E-04   -0.10198E-06 13208   0.540E-03    0.225E-03
DAV:  19    -0.328504867009E+03   -0.35016E-06   -0.17420E-07 13224   0.161E-03
   1 F= -.32850487E+03 E0= -.32850487E+03  d E =-.328505E+03  mag=    20.0000
