       N       E                     dE             d eps       ncg     rms          ort
DAV:   1     0.270625223399E+04    0.27063E+04   -0.15045E+05  6336   0.164E+03
DAV:   2    -0.163364431117E+03   -0.28696E+04   -0.26732E+04  6336   0.446E+02
DAV:   3    -0.492629316238E+03   -0.32926E+03   -0.32148E+03  6336   0.158E+02
DAV:   4    -0.505551379841E+03   -0.12922E+02   -0.12826E+02  6336   0.303E+01
DAV:   5    -0.506714298067E+03   -0.11629E+01   -0.11613E+01  6336   0.581E+00
SDA:   6    -0.420107605703E+03    0.86607E+02   -0.11613E+01  6336   0.720E+02 0.000E+00
CGA:   7    -0.423771663391E+03   -0.36641E+01   -0.78935E+01  6336   0.663E+01 0.540E+00
CGA:   8    -0.424792225179E+03   -0.10206E+01   -0.10181E+01  6336   0.123E+01 0.430E-01
CGA:   9    -0.425063759812E+03   -0.27153E+00   -0.27069E+00  6336   0.532E+00 0.312E-01
CGA:  10    -0.425177084513E+03   -0.11332E+00   -0.11319E+00  6336   0.228E+00 0.866E-02
CGA:  11    -0.425230825550E+03   -0.53741E-01   -0.53892E-01  6336   0.111E+00-0.425E-02
CGA:  12    -0.425260954192E+03   -0.30129E-01   -0.30587E-01  6336   0.565E-01-0.568E-02
CGA:  13    -0.425273936412E+03   -0.12982E-01   -0.12878E-01  6336   0.207E-01 0.259E-02
CGA:  14    -0.425278871747E+03   -0.49353E-02   -0.48491E-02  6336   0.715E-02 0.404E-02
CGA:  15    -0.425281204799E+03   -0.23331E-02   -0.22336E-02  6336   0.345E-02 0.173E-02
CGA:  16    -0.425282457323E+03   -0.12525E-02   -0.11830E-02  6336   0.180E-02 0.100E-02
CGA:  17    -0.425283131069E+03   -0.67375E-03   -0.63683E-03  6336   0.831E-03 0.579E-03
CGA:  18    -0.425282879077E+03    0.25199E-03   -0.10161E-02  6336   0.473E-02-0.179E-02
CGA:  19    -0.425283692839E+03   -0.81376E-03   -0.85996E-03  6336   0.512E-03 0.682E-03
CGA:  20    -0.425283788276E+03   -0.95437E-04   -0.11004E-03  6336   0.177E-03 0.252E-03
CGA:  21    -0.425283812480E+03   -0.24204E-04   -0.38362E-04  6336   0.873E-04 0.145E-03
CGA:  22    -0.425283824438E+03   -0.11959E-04   -0.15685E-04  6336   0.518E-04 0.638E-04
CGA:  23    -0.425283831683E+03   -0.72451E-05   -0.94624E-05  6336   0.349E-04 0.423E-04
   1 F= -.42528383E+03 E0= -.42528383E+03  d E =-.425284E+03  mag=    18.0000
