 vasp.6.1.2 22Jul20 (build Mar 19 2021 09:51:12) complex                        
  
 executed on             LinuxIFC date 2021.07.25  12:18:07
 running on   12 total cores
 distrk:  each k-point on   12 cores,    1 groups
 distr:  one band on NCORE=   4 cores,    3 groups


--------------------------------------------------------------------------------------------------------


 INCAR:
 POTCAR:    PAW_PBE Fe_pv 02Aug2007               
 POTCAR:    PAW_PBE Si 05Jan2001                  
 POTCAR:    PAW_PBE O 08Apr2002                   
 POTCAR:    PAW_PBE Fe_pv 02Aug2007               
   VRHFIN =Fe:  3pd7s1                                                                              
   LEXCH  = PE                                                                                      
   EATOM  =  2457.4239 eV,  180.6156 Ry                                                             
                                                                                                    
   TITEL  = PAW_PBE Fe_pv 02Aug2007                                                                 
   LULTRA =        F    use ultrasoft PP ?                                                          
   IUNSCR =        1    unscreen: 0-lin 1-nonlin 2-no                                               
   RPACOR =    1.750    partial core radius                                                         
   POMASS =   55.847; ZVAL   =   14.000    mass and valenz                                          
   RCORE  =    2.200    outmost cutoff radius                                                       
   RWIGS  =    2.200; RWIGS  =    1.164    wigner-seitz radius (au A)                               
   ENMAX  =  293.238; ENMIN  =  219.928 eV                                                          
   ICORE  =        3    local potential                                                             
   LCOR   =        T    correct aug charges                                                         
   LPAW   =        T    paw PP                                                                      
   EAUG   =  578.342                                                                                
   DEXC   =    0.000                                                                                
   RMAX   =    2.249    core radius for proj-oper                                                   
   RAUG   =    1.300    factor for augmentation sphere                                              
   RDEP   =    2.296    radius for radial grids                                                     
   RDEPT  =    1.766    core radius for aug-charge                                                  
                                                                                                    
   Atomic configuration                                                                             
    8 entries                                                                                       
     n  l   j            E        occ.                                                              
     1  0  0.50     -6993.8440   2.0000                                                             
     2  0  0.50      -814.6047   2.0000                                                             
     2  1  1.50      -693.3689   6.0000                                                             
     3  0  0.50       -89.4732   2.0000                                                             
     3  1  1.50       -55.6373   6.0000                                                             
     3  2  2.50        -3.8151   7.0000                                                             
     4  0  0.50        -4.2551   1.0000                                                             
     4  3  2.50        -1.3606   0.0000                                                             
   Description                                                                                      
     l       E           TYP  RCUT    TYP  RCUT                                                     
     1    -55.6372668     23  2.000                                                                 
     1     -5.4423304     23  2.000                                                                 
     2     -3.8151096     23  2.200                                                                 
     2     -5.1756922     23  2.200                                                                 
     0     -4.2550951     23  2.200                                                                 
     0     27.2116520     23  2.200                                                                 
     3     -1.3605826     23  2.200                                                                 
  local pseudopotential read in
  partial core-charges read in
  partial kinetic energy density read in
  atomic valenz-charges read in
  non local Contribution for L=           1  read in
    real space projection operators read in
  non local Contribution for L=           1  read in
    real space projection operators read in
  non local Contribution for L=           2  read in
    real space projection operators read in
  non local Contribution for L=           2  read in
    real space projection operators read in
  non local Contribution for L=           0  read in
    real space projection operators read in
  non local Contribution for L=           0  read in
    real space projection operators read in
    PAW grid and wavefunctions read in
 
   number of l-projection  operators is LMAX  =           6
   number of lm-projection operators is LMMAX =          18
 
 POTCAR:    PAW_PBE Si 05Jan2001                  
   VRHFIN =Si: s2p2                                                                                 
   LEXCH  = PE                                                                                      
   EATOM  =   103.0669 eV,    7.5752 Ry                                                             
                                                                                                    
   TITEL  = PAW_PBE Si 05Jan2001                                                                    
   LULTRA =        F    use ultrasoft PP ?                                                          
   IUNSCR =        1    unscreen: 0-lin 1-nonlin 2-no                                               
   RPACOR =    1.500    partial core radius                                                         
   POMASS =   28.085; ZVAL   =    4.000    mass and valenz                                          
   RCORE  =    1.900    outmost cutoff radius                                                       
   RWIGS  =    2.480; RWIGS  =    1.312    wigner-seitz radius (au A)                               
   ENMAX  =  245.345; ENMIN  =  184.009 eV                                                          
   ICORE  =        2    local potential                                                             
   LCOR   =        T    correct aug charges                                                         
   LPAW   =        T    paw PP                                                                      
   EAUG   =  322.069                                                                                
   DEXC   =    0.000                                                                                
   RMAX   =    1.950    core radius for proj-oper                                                   
   RAUG   =    1.300    factor for augmentation sphere                                              
   RDEP   =    1.993    radius for radial grids                                                     
   RDEPT  =    1.837    core radius for aug-charge                                                  
                                                                                                    
   Atomic configuration                                                                             
    6 entries                                                                                       
     n  l   j            E        occ.                                                              
     1  0  0.50     -1785.8828   2.0000                                                             
     2  0  0.50      -139.4969   2.0000                                                             
     2  1  1.50       -95.5546   6.0000                                                             
     3  0  0.50       -10.8127   2.0000                                                             
     3  1  0.50        -4.0811   2.0000                                                             
     3  2  1.50        -4.0817   0.0000                                                             
   Description                                                                                      
     l       E           TYP  RCUT    TYP  RCUT                                                     
     0    -10.8127223     23  1.900                                                                 
     0     -7.6451159     23  1.900                                                                 
     1     -4.0811372     23  1.900                                                                 
     1      2.4879257     23  1.900                                                                 
     2     -4.0817478      7  1.900                                                                 
  local pseudopotential read in
  partial core-charges read in
  partial kinetic energy density read in
  atomic valenz-charges read in
  non local Contribution for L=           0  read in
    real space projection operators read in
  non local Contribution for L=           0  read in
    real space projection operators read in
  non local Contribution for L=           1  read in
    real space projection operators read in
  non local Contribution for L=           1  read in
    real space projection operators read in
    PAW grid and wavefunctions read in
 
   number of l-projection  operators is LMAX  =           4
   number of lm-projection operators is LMMAX =           8
 
 POTCAR:    PAW_PBE O 08Apr2002                   
   VRHFIN =O: s2p4                                                                                  
   LEXCH  = PE                                                                                      
   EATOM  =   432.3788 eV,   31.7789 Ry                                                             
                                                                                                    
   TITEL  = PAW_PBE O 08Apr2002                                                                     
   LULTRA =        F    use ultrasoft PP ?                                                          
   IUNSCR =        1    unscreen: 0-lin 1-nonlin 2-no                                               
   RPACOR =    1.200    partial core radius                                                         
   POMASS =   16.000; ZVAL   =    6.000    mass and valenz                                          
   RCORE  =    1.520    outmost cutoff radius                                                       
   RWIGS  =    1.550; RWIGS  =    0.820    wigner-seitz radius (au A)                               
   ENMAX  =  400.000; ENMIN  =  300.000 eV                                                          
   ICORE  =        2    local potential                                                             
   LCOR   =        T    correct aug charges                                                         
   LPAW   =        T    paw PP                                                                      
   EAUG   =  605.392                                                                                
   DEXC   =    0.000                                                                                
   RMAX   =    1.553    core radius for proj-oper                                                   
   RAUG   =    1.300    factor for augmentation sphere                                              
   RDEP   =    1.550    radius for radial grids                                                     
   RDEPT  =    1.329    core radius for aug-charge                                                  
                                                                                                    
   Atomic configuration                                                                             
    4 entries                                                                                       
     n  l   j            E        occ.                                                              
     1  0  0.50      -514.6923   2.0000                                                             
     2  0  0.50       -23.9615   2.0000                                                             
     2  1  0.50        -9.0305   4.0000                                                             
     3  2  1.50        -9.5241   0.0000                                                             
   Description                                                                                      
     l       E           TYP  RCUT    TYP  RCUT                                                     
     0    -23.9615318     23  1.200                                                                 
     0     -9.5240782     23  1.200                                                                 
     1     -9.0304911     23  1.520                                                                 
     1      8.1634956     23  1.520                                                                 
     2     -9.5240782      7  1.500                                                                 
  local pseudopotential read in
  partial core-charges read in
  partial kinetic energy density read in
  kinetic energy density of atom read in
  atomic valenz-charges read in
  non local Contribution for L=           0  read in
    real space projection operators read in
  non local Contribution for L=           0  read in
    real space projection operators read in
  non local Contribution for L=           1  read in
    real space projection operators read in
  non local Contribution for L=           1  read in
    real space projection operators read in
    PAW grid and wavefunctions read in
 
   number of l-projection  operators is LMAX  =           4
   number of lm-projection operators is LMMAX =           8
 
 Optimization of the real space projectors (new method)

 maximal supplied QI-value         = 17.01
 optimisation between [QCUT,QGAM] = [ 11.57, 23.30] = [ 37.45,152.03] Ry 
 Optimized for a Real-space Cutoff    1.45 Angstroem

   l    n(q)    QCUT    max X(q) W(low)/X(q) W(high)/X(q)  e(spline) 
   1     10    11.565     4.267    0.91E-04    0.15E-03    0.13E-06
   1     10    11.565     5.750    0.14E-03    0.22E-03    0.20E-06
   2      9    11.565    53.656    0.13E-03    0.57E-04    0.16E-06
   2      9    11.565    49.521    0.13E-03    0.59E-04    0.16E-06
   0     10    11.565    31.246    0.61E-04    0.74E-05    0.89E-07
   0     10    11.565    12.201    0.44E-04    0.68E-05    0.74E-07
 Optimization of the real space projectors (new method)

 maximal supplied QI-value         = 19.84
 optimisation between [QCUT,QGAM] = [ 11.51, 23.22] = [ 37.09,150.92] Ry 
 Optimized for a Real-space Cutoff    1.21 Angstroem

   l    n(q)    QCUT    max X(q) W(low)/X(q) W(high)/X(q)  e(spline) 
   0      8    11.508   159.560    0.71E-04    0.15E-03    0.51E-07
   0      8    11.508   115.863    0.70E-04    0.15E-03    0.51E-07
   1      8    11.508    88.339    0.16E-03    0.38E-04    0.82E-07
   1      8    11.508    48.592    0.15E-03    0.36E-04    0.79E-07
 Optimization of the real space projectors (new method)

 maximal supplied QI-value         = 24.76
 optimisation between [QCUT,QGAM] = [ 11.64, 23.27] = [ 37.91,151.63] Ry 
 Optimized for a Real-space Cutoff    1.14 Angstroem

   l    n(q)    QCUT    max X(q) W(low)/X(q) W(high)/X(q)  e(spline) 
   0      8    11.635    20.381    0.10E-03    0.33E-03    0.24E-06
   0      8    11.635    15.268    0.11E-03    0.35E-03    0.26E-06
   1      7    11.635     5.964    0.24E-03    0.31E-03    0.30E-06
   1      7    11.635     5.382    0.22E-03    0.25E-03    0.26E-06
  PAW_PBE Fe_pv 02Aug2007               :
 energy of atom  1       EATOM=-2457.4239
 kinetic energy error for atom=    0.0062 (will be added to EATOM!!)
  PAW_PBE Si 05Jan2001                  :
 energy of atom  2       EATOM= -103.0669
 kinetic energy error for atom=    0.0005 (will be added to EATOM!!)
  PAW_PBE O 08Apr2002                   :
 energy of atom  3       EATOM= -432.3788
 kinetic energy error for atom=    0.0208 (will be added to EATOM!!)
 
 
 POSCAR: Fe8 Si4 O16
  positions in direct lattice
  velocities in cartesian coordinates

 METAGGA = SCAN     LMAXTAU =  6    LMIXTAU =  F

 exchange correlation table for  LEXCH =        8
   RHO(1)=    0.500       N(1)  =     2000
   RHO(2)=  100.500       N(2)  =     4000
 


--------------------------------------------------------------------------------------------------------


 ion  position               nearest neighbor table
   1  0.500  0.500  1.000-  15 2.11  13 2.12  20 2.13  18 2.13  21 2.24  25 2.24  11 2.77   9 2.77

   2  1.000  1.000  0.500-  14 2.11  16 2.12  17 2.13  19 2.13  26 2.24  22 2.24  10 2.77  12 2.77

   3  0.500  0.500  0.500-  15 2.11  13 2.12  20 2.13  18 2.13  27 2.24  23 2.24  11 2.77   9 2.77

   4  1.000  1.000  0.000-  14 2.11  16 2.12  17 2.13  19 2.13  24 2.24  28 2.24  10 2.77  12 2.77

   5  0.514  0.779  0.250-  26 2.06  24 2.06  17 2.11  13 2.23  21 2.29  27 2.29   9 2.87
   6  0.986  0.279  0.250-  23 2.06  25 2.06  18 2.11  14 2.23  28 2.29  22 2.29  10 2.87
   7  0.486  0.221  0.750-  28 2.06  22 2.06  19 2.11  15 2.23  25 2.29  23 2.29  11 2.87
   8  0.014  0.721  0.750-  27 2.06  21 2.06  20 2.11  16 2.23  24 2.29  26 2.29  12 2.87
   9  0.069  0.597  0.250-  13 1.63  21 1.64  27 1.64  18 1.65   1 2.77   3 2.77   5 2.87
  10  0.431  0.097  0.250-  14 1.63  22 1.64  28 1.64  17 1.65   2 2.77   4 2.77   6 2.87
  11  0.931  0.403  0.750-  15 1.63  25 1.64  23 1.64  20 1.65   3 2.77   1 2.77   7 2.87
  12  0.569  0.903  0.750-  16 1.63  26 1.64  24 1.64  19 1.65   4 2.77   2 2.77   8 2.87
  13  0.732  0.591  0.250-   9 1.63   1 2.12   3 2.12   5 2.23
  14  0.768  0.091  0.250-  10 1.63   2 2.11   4 2.11   6 2.23
  15  0.268  0.409  0.750-  11 1.63   3 2.11   1 2.11   7 2.23
  16  0.232  0.909  0.750-  12 1.63   4 2.12   2 2.12   8 2.23
  17  0.291  0.953  0.250-  10 1.65   5 2.11   2 2.13   4 2.13
  18  0.209  0.453  0.250-   9 1.65   6 2.11   1 2.13   3 2.13
  19  0.709  0.047  0.750-  12 1.65   7 2.11   4 2.13   2 2.13
  20  0.791  0.547  0.750-  11 1.65   8 2.11   3 2.13   1 2.13
  21  0.210  0.666  0.036-   9 1.64   8 2.06   1 2.24   5 2.29
  22  0.291  0.166  0.464-  10 1.64   7 2.06   2 2.24   6 2.29
  23  0.791  0.334  0.536-  11 1.64   6 2.06   3 2.24   7 2.29
  24  0.710  0.834  0.964-  12 1.64   5 2.06   4 2.24   8 2.29
  25  0.791  0.334  0.964-  11 1.64   6 2.06   1 2.24   7 2.29
  26  0.710  0.834  0.536-  12 1.64   5 2.06   2 2.24   8 2.29
  27  0.210  0.666  0.464-   9 1.64   8 2.06   3 2.24   5 2.29
  28  0.291  0.166  0.036-  10 1.64   7 2.06   4 2.24   6 2.29
 

IMPORTANT INFORMATION: All symmetrisations will be switched off!
NOSYMM: (Re-)initialisation of all symmetry stuff for point group C_1.


----------------------------------------------------------------------------------------

                                     Primitive cell                                     

  volume of cell :     307.2196

  direct lattice vectors                    reciprocal lattice vectors
     4.825176688  0.000000226  0.000000160     0.207246297 -0.000000005 -0.000000006
     0.000000277 10.457384758 -0.000000923    -0.000000004  0.095626203  0.000000007
     0.000000166 -0.000000418  6.088533043    -0.000000005  0.000000014  0.164243175

  length of vectors
     4.825176688 10.457384758  6.088533043     0.207246297  0.095626203  0.164243175

  position of ions in fractional coordinates (direct lattice)
     0.499924186  0.500016526  0.999852334
     0.999923866  0.999983439  0.499851811
     0.499923970  0.500016548  0.500148072
     0.999924010  0.999983459  0.000147859
     0.513879143  0.779136335  0.249999915
     0.986154547  0.279188105  0.249999943
     0.486154541  0.220811903  0.750000027
     0.013879210  0.720863703  0.750000096
     0.068839036  0.597191400  0.250000075
     0.431157932  0.097203108  0.249999995
     0.931157924  0.402796900  0.749999979
     0.568839110  0.902808577  0.749999936
     0.732041788  0.590936678  0.250000001
     0.767924663  0.090936258  0.249999967
     0.267924719  0.409063746  0.750000046
     0.232041732  0.909063342  0.749999988
     0.290875877  0.953069541  0.249999989
     0.209101253  0.453066869  0.250000021
     0.709101197  0.046933121  0.749999956
     0.790875866  0.546930455  0.750000014
     0.209572043  0.666289682  0.036367228
     0.290516869  0.166273441  0.463659790
     0.790516933  0.333726573  0.536340166
     0.709572051  0.833710337  0.963632802
     0.790516895  0.333726567  0.963659738
     0.709571902  0.833710345  0.536366986
     0.209571864  0.666289633  0.463633076
     0.290516872  0.166273410  0.036340192

  ion indices of the primitive-cell ions
   primitive index   ion index
                 1           1
                 2           2
                 3           3
                 4           4
                 5           5
                 6           6
                 7           7
                 8           8
                 9           9
                10          10
                11          11
                12          12
                13          13
                14          14
                15          15
                16          16
                17          17
                18          18
                19          19
                20          20
                21          21
                22          22
                23          23
                24          24
                25          25
                26          26
                27          27
                28          28

----------------------------------------------------------------------------------------

 
 
 KPOINTS: K-points file                           

Automatic generation of k-mesh.
Space group operators:
 irot       det(A)        alpha          n_x          n_y          n_z        tau_x        tau_y        tau_z
    1     1.000000     0.000001     1.000000     0.000000     0.000000     0.000000     0.000000     0.000000
 
 Subroutine IBZKPT returns following result:
 ===========================================
 
 Found     86 irreducible k-points:
 
 Following reciprocal coordinates:
            Coordinates               Weight
  0.000000  0.000000  0.000000      1.000000
  0.142857  0.000000 -0.000000      2.000000
  0.285714  0.000000 -0.000000      2.000000
  0.428571  0.000000 -0.000000      2.000000
 -0.000000  0.250000  0.000000      2.000000
  0.142857  0.250000  0.000000      2.000000
  0.142857 -0.250000 -0.000000      2.000000
  0.285714  0.250000  0.000000      2.000000
  0.285714 -0.250000 -0.000000      2.000000
  0.428571  0.250000  0.000000      2.000000
  0.428571 -0.250000 -0.000000      2.000000
 -0.000000  0.500000  0.000000      1.000000
  0.142857  0.500000  0.000000      2.000000
  0.285714  0.500000  0.000000      2.000000
  0.428571  0.500000  0.000000      2.000000
 -0.000000 -0.000000  0.166667      2.000000
  0.142857  0.000000  0.166667      2.000000
  0.142857  0.000000 -0.166667      2.000000
  0.285714  0.000000  0.166667      2.000000
  0.285714  0.000000 -0.166667      2.000000
  0.428571  0.000000  0.166667      2.000000
  0.428571  0.000000 -0.166667      2.000000
 -0.000000  0.250000  0.166667      2.000000
 -0.000000 -0.250000  0.166667      2.000000
  0.142857  0.250000  0.166667      2.000000
  0.142857 -0.250000 -0.166667      2.000000
 -0.142857 -0.250000  0.166667      2.000000
 -0.142857  0.250000 -0.166667      2.000000
  0.285714  0.250000  0.166667      2.000000
  0.285714 -0.250000 -0.166667      2.000000
 -0.285714 -0.250000  0.166667      2.000000
 -0.285714  0.250000 -0.166667      2.000000
  0.428571  0.250000  0.166667      2.000000
  0.428571 -0.250000 -0.166667      2.000000
 -0.428571 -0.250000  0.166667      2.000000
 -0.428571  0.250000 -0.166667      2.000000
  0.000000  0.500000  0.166667      2.000000
  0.142857  0.500000  0.166667      2.000000
  0.142857  0.500000 -0.166667      2.000000
  0.285714  0.500000  0.166667      2.000000
  0.285714  0.500000 -0.166667      2.000000
  0.428571  0.500000  0.166667      2.000000
  0.428571  0.500000 -0.166667      2.000000
 -0.000000 -0.000000  0.333333      2.000000
  0.142857  0.000000  0.333333      2.000000
  0.142857  0.000000 -0.333333      2.000000
  0.285714  0.000000  0.333333      2.000000
  0.285714 -0.000000 -0.333333      2.000000
  0.428571  0.000000  0.333333      2.000000
  0.428571  0.000000 -0.333333      2.000000
 -0.000000  0.250000  0.333333      2.000000
  0.000000 -0.250000  0.333333      2.000000
  0.142857  0.250000  0.333333      2.000000
  0.142857 -0.250000 -0.333333      2.000000
 -0.142857 -0.250000  0.333333      2.000000
 -0.142857  0.250000 -0.333333      2.000000
  0.285714  0.250000  0.333333      2.000000
  0.285714 -0.250000 -0.333333      2.000000
 -0.285714 -0.250000  0.333333      2.000000
 -0.285714  0.250000 -0.333333      2.000000
  0.428571  0.250000  0.333333      2.000000
  0.428571 -0.250000 -0.333333      2.000000
 -0.428571 -0.250000  0.333333      2.000000
 -0.428571  0.250000 -0.333333      2.000000
 -0.000000  0.500000  0.333333      2.000000
  0.142857  0.500000  0.333333      2.000000
  0.142857  0.500000 -0.333333      2.000000
  0.285714  0.500000  0.333333      2.000000
  0.285714  0.500000 -0.333333      2.000000
  0.428571  0.500000  0.333333      2.000000
  0.428571  0.500000 -0.333333      2.000000
 -0.000000  0.000000  0.500000      1.000000
  0.142857  0.000000  0.500000      2.000000
  0.285714  0.000000  0.500000      2.000000
  0.428571  0.000000  0.500000      2.000000
 -0.000000  0.250000  0.500000      2.000000
  0.142857  0.250000  0.500000      2.000000
  0.142857 -0.250000  0.500000      2.000000
  0.285714  0.250000  0.500000      2.000000
  0.285714 -0.250000  0.500000      2.000000
  0.428571  0.250000  0.500000      2.000000
  0.428571 -0.250000  0.500000      2.000000
 -0.000000  0.500000  0.500000      1.000000
  0.142857  0.500000  0.500000      2.000000
  0.285714  0.500000  0.500000      2.000000
  0.428571  0.500000  0.500000      2.000000
 
 Following cartesian coordinates:
            Coordinates               Weight
  0.000000  0.000000  0.000000      1.000000
  0.029607 -0.000000 -0.000000      2.000000
  0.059213 -0.000000 -0.000000      2.000000
  0.088820 -0.000000 -0.000000      2.000000
 -0.000000  0.023907  0.000000      2.000000
  0.029607  0.023907  0.000000      2.000000
  0.029607 -0.023907 -0.000000      2.000000
  0.059213  0.023907  0.000000      2.000000
  0.059213 -0.023907 -0.000000      2.000000
  0.088820  0.023907 -0.000000      2.000000
  0.088820 -0.023907 -0.000000      2.000000
 -0.000000  0.047813  0.000000      1.000000
  0.029607  0.047813  0.000000      2.000000
  0.059213  0.047813  0.000000      2.000000
  0.088820  0.047813  0.000000      2.000000
 -0.000000  0.000000  0.027374      2.000000
  0.029607  0.000000  0.027374      2.000000
  0.029607 -0.000000 -0.027374      2.000000
  0.059213  0.000000  0.027374      2.000000
  0.059213 -0.000000 -0.027374      2.000000
  0.088820  0.000000  0.027374      2.000000
  0.088820 -0.000000 -0.027374      2.000000
 -0.000000  0.023907  0.027374      2.000000
  0.000000 -0.023907  0.027374      2.000000
  0.029607  0.023907  0.027374      2.000000
  0.029607 -0.023907 -0.027374      2.000000
 -0.029607 -0.023907  0.027374      2.000000
 -0.029607  0.023907 -0.027374      2.000000
  0.059213  0.023907  0.027374      2.000000
  0.059213 -0.023907 -0.027374      2.000000
 -0.059213 -0.023907  0.027374      2.000000
 -0.059213  0.023907 -0.027374      2.000000
  0.088820  0.023907  0.027374      2.000000
  0.088820 -0.023907 -0.027374      2.000000
 -0.088820 -0.023907  0.027374      2.000000
 -0.088820  0.023907 -0.027374      2.000000
 -0.000000  0.047813  0.027374      2.000000
  0.029607  0.047813  0.027374      2.000000
  0.029607  0.047813 -0.027374      2.000000
  0.059213  0.047813  0.027374      2.000000
  0.059213  0.047813 -0.027374      2.000000
  0.088820  0.047813  0.027374      2.000000
  0.088820  0.047813 -0.027374      2.000000
 -0.000000  0.000000  0.054748      2.000000
  0.029607  0.000000  0.054748      2.000000
  0.029607 -0.000000 -0.054748      2.000000
  0.059213  0.000000  0.054748      2.000000
  0.059213 -0.000000 -0.054748      2.000000
  0.088820  0.000000  0.054748      2.000000
  0.088820 -0.000000 -0.054748      2.000000
 -0.000000  0.023907  0.054748      2.000000
 -0.000000 -0.023907  0.054748      2.000000
  0.029607  0.023907  0.054748      2.000000
  0.029607 -0.023907 -0.054748      2.000000
 -0.029607 -0.023907  0.054748      2.000000
 -0.029607  0.023907 -0.054748      2.000000
  0.059213  0.023907  0.054748      2.000000
  0.059213 -0.023907 -0.054748      2.000000
 -0.059213 -0.023907  0.054748      2.000000
 -0.059213  0.023907 -0.054748      2.000000
  0.088820  0.023907  0.054748      2.000000
  0.088820 -0.023907 -0.054748      2.000000
 -0.088820 -0.023907  0.054748      2.000000
 -0.088820  0.023907 -0.054748      2.000000
 -0.000000  0.047813  0.054748      2.000000
  0.029607  0.047813  0.054748      2.000000
  0.029607  0.047813 -0.054748      2.000000
  0.059213  0.047813  0.054748      2.000000
  0.059213  0.047813 -0.054748      2.000000
  0.088820  0.047813  0.054748      2.000000
  0.088820  0.047813 -0.054748      2.000000
 -0.000000  0.000000  0.082122      1.000000
  0.029607  0.000000  0.082122      2.000000
  0.059213  0.000000  0.082122      2.000000
  0.088820  0.000000  0.082122      2.000000
 -0.000000  0.023907  0.082122      2.000000
  0.029607  0.023907  0.082122      2.000000
  0.029607 -0.023907  0.082122      2.000000
  0.059213  0.023907  0.082122      2.000000
  0.059213 -0.023907  0.082122      2.000000
  0.088820  0.023907  0.082122      2.000000
  0.088820 -0.023907  0.082122      2.000000
 -0.000000  0.047813  0.082122      1.000000
  0.029607  0.047813  0.082122      2.000000
  0.059213  0.047813  0.082122      2.000000
  0.088820  0.047813  0.082122      2.000000
 


--------------------------------------------------------------------------------------------------------




 Dimension of arrays:
   k-points           NKPTS =     86   k-points in BZ     NKDIM =     86   number of bands    NBANDS=    153
   number of dos      NEDOS =    301   number of ions     NIONS =     28
   non local maximal  LDIM  =      6   non local SUM 2l+1 LMDIM =     18
   total plane-waves  NPLWV = 138240
   max r-space proj   IRMAX =   5745   max aug-charges    IRDMAX=  15242
   dimension x,y,z NGX =    36 NGY =   80 NGZ =   48
   dimension x,y,z NGXF=    72 NGYF=  160 NGZF=   96
   support grid    NGXF=    72 NGYF=  160 NGZF=   96
   ions per type =               8   4  16
   NGX,Y,Z   is equivalent  to a cutoff of  12.40, 12.72, 13.11 a.u.
   NGXF,Y,Z  is equivalent  to a cutoff of  24.81, 25.44, 26.21 a.u.

 SYSTEM =  unknown system                          
 POSCAR =  Fe8 Si4 O16                             

 Startparameter for this run:
   NWRITE =      2    write-flag & timer
   PREC   = accura    normal or accurate (medium, high low for compatibility)
   ISTART =      0    job   : 0-new  1-cont  2-samecut
   ICHARG =      1    charge: 1-file 2-atom 10-const
   ISPIN  =      2    spin polarized calculation?
   LNONCOLLINEAR =      F non collinear calculations
   LSORBIT =      F    spin-orbit coupling
   INIWAV =      1    electr: 0-lowe 1-rand  2-diag
   LASPH  =      T    aspherical Exc in radial PAW
   METAGGA=      F    non-selfconsistent MetaGGA calc.

 Electronic Relaxation 1
   ENCUT  =  520.0 eV  38.22 Ry    6.18 a.u.   8.97 19.44 11.32*2*pi/ulx,y,z
   ENINI  =  520.0     initial cutoff
   ENAUG  =  605.4 eV  augmentation charge cutoff
   NELM   =    100;   NELMIN=  6; NELMDL= -5     # of ELM steps 
   EDIFF  = 0.1E-04   stopping-criterion for ELM
   LREAL  =      T    real-space projection
   NLSPLINE    = F    spline interpolate recip. space projectors
   LCOMPAT=      F    compatible to vasp.4.4
   GGA_COMPAT  = T    GGA compatible to vasp.4.4-vasp.4.6
   LMAXPAW     = -100 max onsite density
   LMAXMIX     =    4 max onsite mixed and CHGCAR
   VOSKOWN=      0    Vosko Wilk Nusair interpolation
   ROPT   =   -0.00025  -0.00025  -0.00025
 Ionic relaxation
   EDIFFG = -.3E-01   stopping-criterion for IOM
   NSW    =     99    number of steps for IOM
   NBLOCK =      1;   KBLOCK =     99    inner block; outer block 
   IBRION =      2    ionic relax: 0-MD 1-quasi-New 2-CG
   NFREE  =      1    steps in history (QN), initial steepest desc. (CG)
   ISIF   =      3    stress and relaxation
   IWAVPR =     11    prediction:  0-non 1-charg 2-wave 3-comb
   ISYM   =      0    0-nonsym 1-usesym 2-fastsym
   LCORR  =      T    Harris-Foulkes like correction to forces

   POTIM  = 0.5000    time-step for ionic-motion
   TEIN   =    0.0    initial temperature
   TEBEG  =    0.0;   TEEND  =   0.0 temperature during run
   SMASS  =  -3.00    Nose mass-parameter (am)
   estimated Nose-frequenzy (Omega)   =  0.10E-29 period in steps = 0.13E+47 mass=  -0.532E-27a.u.
   SCALEE = 1.0000    scale energy and forces
   NPACO  =    256;   APACO  = 16.0  distance and # of slots for P.C.
   PSTRESS=    0.0 pullay stress

  Mass of Ions in am
   POMASS =  55.85 28.09 16.00
  Ionic Valenz
   ZVAL   =  14.00  4.00  6.00
  Atomic Wigner-Seitz radii
   RWIGS  =  -1.00 -1.00 -1.00
  virtual crystal weights 
   VCA    =   1.00  1.00  1.00
   NELECT =     224.0000    total number of electrons
   NUPDOWN=      -1.0000    fix difference up-down

 DOS related values:
   EMIN   =  10.00;   EMAX   =-10.00  energy-range for DOS
   EFERMI =   0.00
   ISMEAR =     0;   SIGMA  =   0.05  broadening in eV -4-tet -1-fermi 0-gaus

 Electronic relaxation 2 (details)
   IALGO  =     38    algorithm
   LDIAG  =      T    sub-space diagonalisation (order eigenvalues)
   LSUBROT=      F    optimize rotation matrix (better conditioning)
   TURBO    =      0    0=normal 1=particle mesh
   IRESTART =      0    0=no restart 2=restart with 2 vectors
   NREBOOT  =      0    no. of reboots
   NMIN     =      0    reboot dimension
   EREF     =   0.00    reference energy to select bands
   IMIX   =      4    mixing-type and parameters
     AMIX     =   0.40;   BMIX     =  1.00
     AMIX_MAG =   1.60;   BMIX_MAG =  1.00
     AMIN     =   0.10
     WC   =   100.;   INIMIX=   1;  MIXPRE=   1;  MAXMIX= -45

 Intra band minimization:
   WEIMIN = 0.0010     energy-eigenvalue tresh-hold
   EBREAK =  0.16E-07  absolut break condition
   DEPER  =   0.30     relativ break condition  

   TIME   =   0.40     timestep for ELM

  volume/ion in A,a.u.               =      10.97        74.04
  Fermi-wavevector in a.u.,A,eV,Ry     =   1.473470  2.784454 29.539781  2.171113
  Thomas-Fermi vector in A             =   2.588359
 
 Write flags
   LWAVE        =      F    write WAVECAR
   LDOWNSAMPLE  =      F    k-point downsampling of WAVECAR
   LCHARG       =      T    write CHGCAR
   LVTOT        =      F    write LOCPOT, total local potential
   LVHAR        =      F    write LOCPOT, Hartree potential only
   LELF         =      F    write electronic localiz. function (ELF)
   LORBIT       =     11    0 simple, 1 ext, 2 COOP (PROOUT), +10 PAW based schemes


 Dipole corrections
   LMONO  =      F    monopole corrections only (constant potential shift)
   LDIPOL =      F    correct potential (dipole corrections)
   IDIPOL =      0    1-x, 2-y, 3-z, 4-all directions 
   EPSILON=  1.0000000 bulk dielectric constant

 LDA+U is selected, type is set to LDAUTYPE =  2
   angular momentum for each species LDAUL =     2   -1   -1
   U (eV)           for each species LDAUU =   3.1  0.0  0.0
   J (eV)           for each species LDAUJ =   0.0  0.0  0.0
 Exchange correlation treatment:
   GGA     =    --    GGA type
   LEXCH   =     8    internal setting for exchange type
   VOSKOWN=      0    Vosko Wilk Nusair interpolation
   LHFCALC =     F    Hartree Fock is set to
   LHFONE  =     F    Hartree Fock one center treatment
   AEXX    =    0.0000 exact exchange contribution

 Linear response parameters
   LEPSILON=     F    determine dielectric tensor
   LRPA    =     F    only Hartree local field effects (RPA)
   LNABLA  =     F    use nabla operator in PAW spheres
   LVEL    =     F    velocity operator in full k-point grid
   LINTERFAST=   F  fast interpolation
   KINTER  =     0    interpolate to denser k-point grid
   CSHIFT  =0.1000    complex shift for real part using Kramers Kronig
   OMEGAMAX=  -1.0    maximum frequency
   DEG_THRESHOLD= 0.2000000E-02 threshold for treating states as degnerate
   RTIME   =   -0.100 relaxation time in fs
  (WPLASMAI=    0.000 imaginary part of plasma frequency in eV, 0.658/RTIME)
   DFIELD  = 0.0000000 0.0000000 0.0000000 field for delta impulse in time
 
 Orbital magnetization related:
   ORBITALMAG=     F  switch on orbital magnetization
   LCHIMAG   =     F  perturbation theory with respect to B field
   DQ        =  0.001000  dq finite difference perturbation B field
   LLRAUG    =     F  two centre corrections for induced B field



--------------------------------------------------------------------------------------------------------


 conjugate gradient relaxation of ions
 charge density and potential will be updated during run
 spin polarized calculation
 Variant of blocked Davidson
 Davidson routine will perform the subspace rotation
 perform sub-space diagonalisation
    after iterative eigenvector-optimisation
 modified Broyden-mixing scheme, WC =      100.0
 initial mixing is a Kerker type mixing with AMIX =  0.4000 and BMIX =      1.0000
 Hartree-type preconditioning will be used
 using additional bands           41
 real space projection scheme for non local part
 use partial core corrections
 calculate Harris-corrections to forces 
   (improved forces if not selfconsistent)
 use gradient corrections 
 use of overlap-Matrix (Vanderbilt PP)
 Gauss-broadening in eV      SIGMA  =   0.05


--------------------------------------------------------------------------------------------------------


  energy-cutoff  :      520.00
  volume of cell :      307.22
      direct lattice vectors                 reciprocal lattice vectors
     4.825176688  0.000000226  0.000000160     0.207246297 -0.000000005 -0.000000006
     0.000000277 10.457384758 -0.000000923    -0.000000004  0.095626203  0.000000007
     0.000000166 -0.000000418  6.088533043    -0.000000005  0.000000014  0.164243175

  length of vectors
     4.825176688 10.457384758  6.088533043     0.207246297  0.095626203  0.164243175


 
 k-points in units of 2pi/SCALE and weight: K-points file                           
   0.00000000  0.00000000  0.00000000       0.006
   0.02960661 -0.00000000 -0.00000000       0.012
   0.05921323 -0.00000000 -0.00000000       0.012
   0.08881984 -0.00000000 -0.00000000       0.012
  -0.00000000  0.02390655  0.00000000       0.012
   0.02960661  0.02390655  0.00000000       0.012
   0.02960661 -0.02390655 -0.00000000       0.012
   0.05921323  0.02390655  0.00000000       0.012
   0.05921323 -0.02390655 -0.00000000       0.012
   0.08881984  0.02390655 -0.00000000       0.012
   0.08881984 -0.02390655 -0.00000000       0.012
  -0.00000000  0.04781310  0.00000000       0.006
   0.02960661  0.04781310  0.00000000       0.012
   0.05921323  0.04781310  0.00000000       0.012
   0.08881984  0.04781310  0.00000000       0.012
  -0.00000000  0.00000000  0.02737386       0.012
   0.02960661  0.00000000  0.02737386       0.012
   0.02960661 -0.00000000 -0.02737386       0.012
   0.05921323  0.00000000  0.02737386       0.012
   0.05921323 -0.00000000 -0.02737386       0.012
   0.08881984  0.00000000  0.02737386       0.012
   0.08881984 -0.00000000 -0.02737386       0.012
  -0.00000000  0.02390655  0.02737386       0.012
   0.00000000 -0.02390655  0.02737386       0.012
   0.02960661  0.02390655  0.02737386       0.012
   0.02960662 -0.02390655 -0.02737387       0.012
  -0.02960661 -0.02390655  0.02737386       0.012
  -0.02960661  0.02390655 -0.02737386       0.012
   0.05921323  0.02390655  0.02737386       0.012
   0.05921323 -0.02390655 -0.02737387       0.012
  -0.05921323 -0.02390655  0.02737386       0.012
  -0.05921323  0.02390655 -0.02737386       0.012
   0.08881984  0.02390655  0.02737386       0.012
   0.08881984 -0.02390656 -0.02737387       0.012
  -0.08881984 -0.02390655  0.02737386       0.012
  -0.08881984  0.02390655 -0.02737386       0.012
  -0.00000000  0.04781310  0.02737387       0.012
   0.02960661  0.04781310  0.02737387       0.012
   0.02960661  0.04781310 -0.02737386       0.012
   0.05921322  0.04781310  0.02737386       0.012
   0.05921323  0.04781310 -0.02737386       0.012
   0.08881984  0.04781310  0.02737386       0.012
   0.08881984  0.04781310 -0.02737386       0.012
  -0.00000000  0.00000000  0.05474773       0.012
   0.02960661  0.00000000  0.05474772       0.012
   0.02960662 -0.00000001 -0.05474773       0.012
   0.05921323  0.00000000  0.05474772       0.012
   0.05921323 -0.00000001 -0.05474773       0.012
   0.08881984  0.00000000  0.05474772       0.012
   0.08881984 -0.00000001 -0.05474773       0.012
  -0.00000000  0.02390656  0.05474773       0.012
  -0.00000000 -0.02390655  0.05474772       0.012
   0.02960661  0.02390655  0.05474773       0.012
   0.02960662 -0.02390656 -0.05474773       0.012
  -0.02960661 -0.02390655  0.05474772       0.012
  -0.02960661  0.02390655 -0.05474772       0.012
   0.05921322  0.02390655  0.05474773       0.012
   0.05921323 -0.02390656 -0.05474773       0.012
  -0.05921323 -0.02390654  0.05474773       0.012
  -0.05921323  0.02390655 -0.05474772       0.012
   0.08881984  0.02390655  0.05474772       0.012
   0.08881984 -0.02390656 -0.05474773       0.012
  -0.08881984 -0.02390654  0.05474773       0.012
  -0.08881984  0.02390655 -0.05474772       0.012
  -0.00000000  0.04781311  0.05474773       0.012
   0.02960661  0.04781311  0.05474773       0.012
   0.02960661  0.04781310 -0.05474772       0.012
   0.05921322  0.04781310  0.05474773       0.012
   0.05921323  0.04781310 -0.05474772       0.012
   0.08881984  0.04781310  0.05474773       0.012
   0.08881984  0.04781309 -0.05474772       0.012
  -0.00000000  0.00000001  0.08212159       0.006
   0.02960661  0.00000001  0.08212159       0.012
   0.05921322  0.00000001  0.08212159       0.012
   0.08881984  0.00000000  0.08212159       0.012
  -0.00000000  0.02390656  0.08212159       0.012
   0.02960661  0.02390656  0.08212159       0.012
   0.02960661 -0.02390654  0.08212159       0.012
   0.05921322  0.02390656  0.08212159       0.012
   0.05921323 -0.02390655  0.08212158       0.012
   0.08881984  0.02390656  0.08212159       0.012
   0.08881984 -0.02390655  0.08212158       0.012
  -0.00000000  0.04781311  0.08212159       0.006
   0.02960661  0.04781311  0.08212159       0.012
   0.05921322  0.04781311  0.08212159       0.012
   0.08881984  0.04781311  0.08212159       0.012
 
 k-points in reciprocal lattice and weights: K-points file                           
   0.00000000  0.00000000  0.00000000       0.006
   0.14285714  0.00000000 -0.00000000       0.012
   0.28571429  0.00000000 -0.00000000       0.012
   0.42857143  0.00000000 -0.00000000       0.012
  -0.00000000  0.25000000  0.00000000       0.012
   0.14285714  0.25000000  0.00000000       0.012
   0.14285714 -0.25000000 -0.00000000       0.012
   0.28571429  0.25000000  0.00000000       0.012
   0.28571429 -0.25000000 -0.00000000       0.012
   0.42857143  0.25000000  0.00000000       0.012
   0.42857143 -0.25000000 -0.00000000       0.012
  -0.00000000  0.50000000  0.00000000       0.006
   0.14285714  0.50000000  0.00000000       0.012
   0.28571429  0.50000000  0.00000000       0.012
   0.42857143  0.50000000  0.00000000       0.012
  -0.00000000 -0.00000000  0.16666667       0.012
   0.14285714  0.00000000  0.16666667       0.012
   0.14285714  0.00000000 -0.16666667       0.012
   0.28571429  0.00000000  0.16666667       0.012
   0.28571429  0.00000000 -0.16666667       0.012
   0.42857143  0.00000000  0.16666667       0.012
   0.42857143  0.00000000 -0.16666667       0.012
  -0.00000000  0.25000000  0.16666667       0.012
  -0.00000000 -0.25000000  0.16666667       0.012
   0.14285714  0.25000000  0.16666667       0.012
   0.14285714 -0.25000000 -0.16666667       0.012
  -0.14285714 -0.25000000  0.16666667       0.012
  -0.14285714  0.25000000 -0.16666667       0.012
   0.28571429  0.25000000  0.16666667       0.012
   0.28571429 -0.25000000 -0.16666667       0.012
  -0.28571429 -0.25000000  0.16666667       0.012
  -0.28571429  0.25000000 -0.16666667       0.012
   0.42857143  0.25000000  0.16666667       0.012
   0.42857143 -0.25000000 -0.16666667       0.012
  -0.42857143 -0.25000000  0.16666667       0.012
  -0.42857143  0.25000000 -0.16666667       0.012
   0.00000000  0.50000000  0.16666667       0.012
   0.14285714  0.50000000  0.16666667       0.012
   0.14285714  0.50000000 -0.16666667       0.012
   0.28571429  0.50000000  0.16666667       0.012
   0.28571429  0.50000000 -0.16666667       0.012
   0.42857143  0.50000000  0.16666667       0.012
   0.42857143  0.50000000 -0.16666667       0.012
  -0.00000000 -0.00000000  0.33333333       0.012
   0.14285714  0.00000000  0.33333333       0.012
   0.14285714  0.00000000 -0.33333333       0.012
   0.28571429  0.00000000  0.33333333       0.012
   0.28571429 -0.00000000 -0.33333333       0.012
   0.42857143  0.00000000  0.33333333       0.012
   0.42857143  0.00000000 -0.33333333       0.012
  -0.00000000  0.25000000  0.33333333       0.012
   0.00000000 -0.25000000  0.33333333       0.012
   0.14285714  0.25000000  0.33333333       0.012
   0.14285714 -0.25000000 -0.33333333       0.012
  -0.14285714 -0.25000000  0.33333333       0.012
  -0.14285714  0.25000000 -0.33333333       0.012
   0.28571429  0.25000000  0.33333333       0.012
   0.28571429 -0.25000000 -0.33333333       0.012
  -0.28571429 -0.25000000  0.33333333       0.012
  -0.28571429  0.25000000 -0.33333333       0.012
   0.42857143  0.25000000  0.33333333       0.012
   0.42857143 -0.25000000 -0.33333333       0.012
  -0.42857143 -0.25000000  0.33333333       0.012
  -0.42857143  0.25000000 -0.33333333       0.012
  -0.00000000  0.50000000  0.33333333       0.012
   0.14285714  0.50000000  0.33333333       0.012
   0.14285714  0.50000000 -0.33333333       0.012
   0.28571429  0.50000000  0.33333333       0.012
   0.28571429  0.50000000 -0.33333333       0.012
   0.42857143  0.50000000  0.33333333       0.012
   0.42857143  0.50000000 -0.33333333       0.012
  -0.00000000  0.00000000  0.50000000       0.006
   0.14285714  0.00000000  0.50000000       0.012
   0.28571429  0.00000000  0.50000000       0.012
   0.42857143  0.00000000  0.50000000       0.012
  -0.00000000  0.25000000  0.50000000       0.012
   0.14285714  0.25000000  0.50000000       0.012
   0.14285714 -0.25000000  0.50000000       0.012
   0.28571429  0.25000000  0.50000000       0.012
   0.28571429 -0.25000000  0.50000000       0.012
   0.42857143  0.25000000  0.50000000       0.012
   0.42857143 -0.25000000  0.50000000       0.012
  -0.00000000  0.50000000  0.50000000       0.006
   0.14285714  0.50000000  0.50000000       0.012
   0.28571429  0.50000000  0.50000000       0.012
   0.42857143  0.50000000  0.50000000       0.012
 
 position of ions in fractional coordinates (direct lattice) 
   0.49992419  0.50001653  0.99985233
   0.99992387  0.99998344  0.49985181
   0.49992397  0.50001655  0.50014807
   0.99992401  0.99998346  0.00014786
   0.51387914  0.77913633  0.24999992
   0.98615455  0.27918811  0.24999994
   0.48615454  0.22081190  0.75000003
   0.01387921  0.72086370  0.75000010
   0.06883904  0.59719140  0.25000007
   0.43115793  0.09720311  0.24999999
   0.93115792  0.40279690  0.74999998
   0.56883911  0.90280858  0.74999994
   0.73204179  0.59093668  0.25000000
   0.76792466  0.09093626  0.24999997
   0.26792472  0.40906375  0.75000005
   0.23204173  0.90906334  0.74999999
   0.29087588  0.95306954  0.24999999
   0.20910125  0.45306687  0.25000002
   0.70910120  0.04693312  0.74999996
   0.79087587  0.54693046  0.75000001
   0.20957204  0.66628968  0.03636723
   0.29051687  0.16627344  0.46365979
   0.79051693  0.33372657  0.53634017
   0.70957205  0.83371034  0.96363280
   0.79051689  0.33372657  0.96365974
   0.70957190  0.83371034  0.53636699
   0.20957186  0.66628963  0.46363308
   0.29051687  0.16627341  0.03634019
 
 position of ions in cartesian coordinates  (Angst):
   2.41222283  5.22886489  6.08763359
   4.82480969 10.45721159  3.04336351
   2.41222171  5.22886533  3.04516768
   4.82481030 10.45721201  0.00089948
   2.47955792  8.14772844  1.52213211
   4.75837005  2.91957756  1.52213281
   2.34578175  2.30911483  4.56639982
   0.06696997  7.53834878  4.56639970
   0.33216072  6.24506016  1.52213318
   2.08041327  1.01649029  1.52213321
   4.49300175  4.21220206  4.56639943
   2.74474959  9.44101646  4.56639865
   3.53223118  6.17965227  1.52213284
   3.70537225  0.95095551  1.52213310
   1.29278434  4.27773673  4.56639972
   1.11964273  9.50642487  4.56639891
   1.40352781  9.96661486  1.52213236
   1.00895066  4.73789451  1.52213300
   3.42153870  0.49079755  4.56639959
   3.81611607  5.71946207  4.56639949
   1.01122233  6.96764759  0.22142249
   1.40179535  1.73878522  2.82300784
   3.81438406  3.48990713  3.26552464
   3.42381091  8.71842953  5.86710950
   3.81438395  3.48990689  5.86727397
   3.42381012  8.71842979  3.26568746
   1.01122153  6.96764691  2.82284472
   1.40179529  1.73878507  0.22125835
 


--------------------------------------------------------------------------------------------------------


 k-point   1 :   0.0000 0.0000 0.0000  plane waves:    8293
 k-point   2 :   0.1429 0.0000-0.0000  plane waves:    8284
 k-point   3 :   0.2857 0.0000-0.0000  plane waves:    8278
 k-point   4 :   0.4286 0.0000-0.0000  plane waves:    8282
 k-point   5 :  -0.0000 0.2500 0.0000  plane waves:    8259
 k-point   6 :   0.1429 0.2500 0.0000  plane waves:    8279
 k-point   7 :   0.1429-0.2500-0.0000  plane waves:    8279
 k-point   8 :   0.2857 0.2500 0.0000  plane waves:    8285
 k-point   9 :   0.2857-0.2500-0.0000  plane waves:    8285
 k-point  10 :   0.4286 0.2500 0.0000  plane waves:    8278
 k-point  11 :   0.4286-0.2500-0.0000  plane waves:    8278
 k-point  12 :  -0.0000 0.5000 0.0000  plane waves:    8290
 k-point  13 :   0.1429 0.5000 0.0000  plane waves:    8272
 k-point  14 :   0.2857 0.5000 0.0000  plane waves:    8266
 k-point  15 :   0.4286 0.5000 0.0000  plane waves:    8270
 k-point  16 :  -0.0000-0.0000 0.1667  plane waves:    8263
 k-point  17 :   0.1429 0.0000 0.1667  plane waves:    8292
 k-point  18 :   0.1429 0.0000-0.1667  plane waves:    8292
 k-point  19 :   0.2857 0.0000 0.1667  plane waves:    8281
 k-point  20 :   0.2857 0.0000-0.1667  plane waves:    8281
 k-point  21 :   0.4286 0.0000 0.1667  plane waves:    8289
 k-point  22 :   0.4286 0.0000-0.1667  plane waves:    8289
 k-point  23 :  -0.0000 0.2500 0.1667  plane waves:    8259
 k-point  24 :  -0.0000-0.2500 0.1667  plane waves:    8259
 k-point  25 :   0.1429 0.2500 0.1667  plane waves:    8271
 k-point  26 :   0.1429-0.2500-0.1667  plane waves:    8271
 k-point  27 :  -0.1429-0.2500 0.1667  plane waves:    8271
 k-point  28 :  -0.1429 0.2500-0.1667  plane waves:    8271
 k-point  29 :   0.2857 0.2500 0.1667  plane waves:    8274
 k-point  30 :   0.2857-0.2500-0.1667  plane waves:    8274
 k-point  31 :  -0.2857-0.2500 0.1667  plane waves:    8274
 k-point  32 :  -0.2857 0.2500-0.1667  plane waves:    8274
 k-point  33 :   0.4286 0.2500 0.1667  plane waves:    8282
 k-point  34 :   0.4286-0.2500-0.1667  plane waves:    8282
 k-point  35 :  -0.4286-0.2500 0.1667  plane waves:    8282
 k-point  36 :  -0.4286 0.2500-0.1667  plane waves:    8282
 k-point  37 :   0.0000 0.5000 0.1667  plane waves:    8232
 k-point  38 :   0.1429 0.5000 0.1667  plane waves:    8254
 k-point  39 :   0.1429 0.5000-0.1667  plane waves:    8254
 k-point  40 :   0.2857 0.5000 0.1667  plane waves:    8278
 k-point  41 :   0.2857 0.5000-0.1667  plane waves:    8278
 k-point  42 :   0.4286 0.5000 0.1667  plane waves:    8274
 k-point  43 :   0.4286 0.5000-0.1667  plane waves:    8274
 k-point  44 :  -0.0000-0.0000 0.3333  plane waves:    8250
 k-point  45 :   0.1429 0.0000 0.3333  plane waves:    8258
 k-point  46 :   0.1429 0.0000-0.3333  plane waves:    8258
 k-point  47 :   0.2857 0.0000 0.3333  plane waves:    8275
 k-point  48 :   0.2857-0.0000-0.3333  plane waves:    8275
 k-point  49 :   0.4286 0.0000 0.3333  plane waves:    8286
 k-point  50 :   0.4286 0.0000-0.3333  plane waves:    8286
 k-point  51 :  -0.0000 0.2500 0.3333  plane waves:    8244
 k-point  52 :   0.0000-0.2500 0.3333  plane waves:    8244
 k-point  53 :   0.1429 0.2500 0.3333  plane waves:    8251
 k-point  54 :   0.1429-0.2500-0.3333  plane waves:    8251
 k-point  55 :  -0.1429-0.2500 0.3333  plane waves:    8251
 k-point  56 :  -0.1429 0.2500-0.3333  plane waves:    8251
 k-point  57 :   0.2857 0.2500 0.3333  plane waves:    8280
 k-point  58 :   0.2857-0.2500-0.3333  plane waves:    8280
 k-point  59 :  -0.2857-0.2500 0.3333  plane waves:    8280
 k-point  60 :  -0.2857 0.2500-0.3333  plane waves:    8280
 k-point  61 :   0.4286 0.2500 0.3333  plane waves:    8288
 k-point  62 :   0.4286-0.2500-0.3333  plane waves:    8288
 k-point  63 :  -0.4286-0.2500 0.3333  plane waves:    8288
 k-point  64 :  -0.4286 0.2500-0.3333  plane waves:    8288
 k-point  65 :  -0.0000 0.5000 0.3333  plane waves:    8224
 k-point  66 :   0.1429 0.5000 0.3333  plane waves:    8264
 k-point  67 :   0.1429 0.5000-0.3333  plane waves:    8264
 k-point  68 :   0.2857 0.5000 0.3333  plane waves:    8268
 k-point  69 :   0.2857 0.5000-0.3333  plane waves:    8268
 k-point  70 :   0.4286 0.5000 0.3333  plane waves:    8286
 k-point  71 :   0.4286 0.5000-0.3333  plane waves:    8286
 k-point  72 :  -0.0000 0.0000 0.5000  plane waves:    8226
 k-point  73 :   0.1429 0.0000 0.5000  plane waves:    8250
 k-point  74 :   0.2857 0.0000 0.5000  plane waves:    8270
 k-point  75 :   0.4286 0.0000 0.5000  plane waves:    8302
 k-point  76 :  -0.0000 0.2500 0.5000  plane waves:    8244
 k-point  77 :   0.1429 0.2500 0.5000  plane waves:    8268
 k-point  78 :   0.1429-0.2500 0.5000  plane waves:    8268
 k-point  79 :   0.2857 0.2500 0.5000  plane waves:    8282
 k-point  80 :   0.2857-0.2500 0.5000  plane waves:    8282
 k-point  81 :   0.4286 0.2500 0.5000  plane waves:    8268
 k-point  82 :   0.4286-0.2500 0.5000  plane waves:    8268
 k-point  83 :  -0.0000 0.5000 0.5000  plane waves:    8224
 k-point  84 :   0.1429 0.5000 0.5000  plane waves:    8260
 k-point  85 :   0.2857 0.5000 0.5000  plane waves:    8292
 k-point  86 :   0.4286 0.5000 0.5000  plane waves:    8304

 maximum and minimum number of plane-waves per node :      2112     2034

 maximum number of plane-waves:      8304
 maximum index in each direction: 
   IXMAX=    9   IYMAX=   19   IZMAX=   11
   IXMIN=   -9   IYMIN=  -19   IZMIN=  -11


 real space projection operators:
  total allocation   :       9736.88 KBytes
  max/ min on nodes  :       2437.97       2430.47


 parallel 3D FFT for wavefunctions:
    minimum data exchange during FFTs selected (reduces bandwidth)
 parallel 3D FFT for charge:
    minimum data exchange during FFTs selected (reduces bandwidth)


 total amount of memory used by VASP MPI-rank0   358036. kBytes
=======================================================================

   base      :      30000. kBytes
   nonlr-proj:       5719. kBytes
   fftplans  :       4179. kBytes
   grid      :      14761. kBytes
   one-center:        217. kBytes
   wavefun   :     303160. kBytes
 
     INWAV:  cpu time    0.0000: real time    0.0000
 Broyden mixing: mesh for mixing (old mesh)
   NGX = 17   NGY = 39   NGZ = 23
  (NGX  = 72   NGY  =160   NGZ  = 96)
  gives a total of  15249 points

 initial charge density was supplied:
 number of electron     224.0000038 magnetization      32.0000008
 keeping initial charge density in first step


--------------------------------------------------------------------------------------------------------


 Maximum index for non-local projection operator         1403
 Maximum index for augmentation-charges         1218 (set IRDMAX)


--------------------------------------------------------------------------------------------------------


 First call to EWALD:  gamma=   0.263
 Maximum number of real-space cells 4x 2x 3
 Maximum number of reciprocal cells 2x 4x 3

    FEWALD:  cpu time    0.0012: real time    0.0012


--------------------------------------- Iteration      1(   1)  ---------------------------------------


    POTLOK:  cpu time    0.3627: real time    0.3629
    SETDIJ:  cpu time    1.8648: real time    1.8648
atom =   1  type =  1  l = 2
 
 onsite density matrix
 
spin component  1
 
  0.9746  0.0026  0.0110  0.0033  0.0065
  0.0026  0.9550 -0.0009  0.0207 -0.0061
  0.0110 -0.0009  0.9621  0.0003  0.0030
  0.0033  0.0207  0.0003  0.9821 -0.0028
  0.0065 -0.0061  0.0030 -0.0028  0.9564
 
spin component  2
 
  0.0718 -0.0838  0.0159  0.0521 -0.0174
 -0.0838  0.6860  0.0231 -0.2873  0.2164
  0.0159  0.0231  0.0325 -0.0117  0.0132
  0.0521 -0.2873 -0.0117  0.2435 -0.1187
 -0.0174  0.2164  0.0132 -0.1187  0.0986
 
 occupancies and eigenvectors
 
  o =  0.0174  v =  0.0000  0.0000  0.0000  0.0000  0.0000  0.3607  0.2094 -0.1678 -0.2721 -0.8508      0.0000  0.0000  0.0000  0.0000  0.0000  0.0000  0.0000  0.0000  0.0000  0.0000
  o =  0.0224  v =  0.0000  0.0000  0.0000  0.0000  0.0000 -0.3454  0.0235  0.8846 -0.0089 -0.3123      0.0000  0.0000  0.0000  0.0000  0.0000  0.0000  0.0000  0.0000  0.0000  0.0000
  o =  0.0723  v =  0.0000  0.0000  0.0000  0.0000  0.0000  0.8363 -0.0736  0.4319 -0.1427  0.2969      0.0000  0.0000  0.0000  0.0000  0.0000  0.0000  0.0000  0.0000  0.0000  0.0000
  o =  0.1050  v =  0.0000  0.0000  0.0000  0.0000  0.0000  0.1940  0.4777  0.0430  0.8519 -0.0811      0.0000  0.0000  0.0000  0.0000  0.0000  0.0000  0.0000  0.0000  0.0000  0.0000
  o =  0.9154  v =  0.0000  0.0000  0.0000  0.0000  0.0000 -0.1160  0.8497  0.0301 -0.4240  0.2897      0.0000  0.0000  0.0000  0.0000  0.0000  0.0000  0.0000  0.0000  0.0000  0.0000
  o =  0.9423  v = -0.1121  0.8439  0.0582 -0.4075  0.3254  0.0000  0.0000  0.0000  0.0000  0.0000      0.0000  0.0000  0.0000  0.0000  0.0000  0.0000  0.0000  0.0000  0.0000  0.0000
  o =  0.9546  v = -0.4217 -0.2301  0.2710  0.2997  0.7784  0.0000  0.0000  0.0000  0.0000  0.0000      0.0000  0.0000  0.0000  0.0000  0.0000  0.0000  0.0000  0.0000  0.0000  0.0000
  o =  0.9560  v =  0.3339 -0.0437 -0.8318  0.0491  0.4386  0.0000  0.0000  0.0000  0.0000  0.0000      0.0000  0.0000  0.0000  0.0000  0.0000  0.0000  0.0000  0.0000  0.0000  0.0000
  o =  0.9826  v =  0.8127 -0.0979  0.4784 -0.1243  0.2927  0.0000  0.0000  0.0000  0.0000  0.0000      0.0000  0.0000  0.0000  0.0000  0.0000  0.0000  0.0000  0.0000  0.0000  0.0000
  o =  0.9947  v = -0.1940 -0.4727 -0.0502 -0.8522  0.1008  0.0000  0.0000  0.0000  0.0000  0.0000      0.0000  0.0000  0.0000  0.0000  0.0000  0.0000  0.0000  0.0000  0.0000  0.0000
atom =   2  type =  1  l = 2
 
 onsite density matrix
 
spin component  1
 
  0.9746  0.0026 -0.0110 -0.0033 -0.0065
  0.0026  0.9550  0.0009 -0.0207  0.0061
 -0.0110  0.0009  0.9621  0.0003  0.0030
 -0.0033 -0.0207  0.0003  0.9821 -0.0028
 -0.0065  0.0061  0.0030 -0.0028  0.9564
 
spin component  2
 
  0.0718 -0.0838 -0.0159 -0.0521  0.0174
 -0.0838  0.6860 -0.0231  0.2873 -0.2164
 -0.0159 -0.0231  0.0325 -0.0117  0.0132
 -0.0521  0.2873 -0.0117  0.2435 -0.1187
  0.0174 -0.2164  0.0132 -0.1187  0.0986
 
 occupancies and eigenvectors
 
  o =  0.0174  v =  0.0000  0.0000  0.0000  0.0000  0.0000  0.3607  0.2094  0.1678  0.2721  0.8508      0.0000  0.0000  0.0000  0.0000  0.0000  0.0000  0.0000  0.0000  0.0000  0.0000
  o =  0.0224  v =  0.0000  0.0000  0.0000  0.0000  0.0000  0.3454 -0.0235  0.8846 -0.0089 -0.3123      0.0000  0.0000  0.0000  0.0000  0.0000  0.0000  0.0000  0.0000  0.0000  0.0000
  o =  0.0723  v =  0.0000  0.0000  0.0000  0.0000  0.0000  0.8364 -0.0736 -0.4319  0.1427 -0.2969      0.0000  0.0000  0.0000  0.0000  0.0000  0.0000  0.0000  0.0000  0.0000  0.0000
  o =  0.1050  v =  0.0000  0.0000  0.0000  0.0000  0.0000  0.1940  0.4777 -0.0430 -0.8519  0.0811      0.0000  0.0000  0.0000  0.0000  0.0000  0.0000  0.0000  0.0000  0.0000  0.0000
  o =  0.9154  v =  0.0000  0.0000  0.0000  0.0000  0.0000 -0.1160  0.8497 -0.0301  0.4240 -0.2897      0.0000  0.0000  0.0000  0.0000  0.0000  0.0000  0.0000  0.0000  0.0000  0.0000
  o =  0.9423  v = -0.1121  0.8439 -0.0582  0.4075 -0.3254  0.0000  0.0000  0.0000  0.0000  0.0000      0.0000  0.0000  0.0000  0.0000  0.0000  0.0000  0.0000  0.0000  0.0000  0.0000
  o =  0.9546  v =  0.4218  0.2301  0.2712  0.2997  0.7783  0.0000  0.0000  0.0000  0.0000  0.0000      0.0000  0.0000  0.0000  0.0000  0.0000  0.0000  0.0000  0.0000  0.0000  0.0000
  o =  0.9560  v =  0.3337 -0.0438  0.8317 -0.0492 -0.4388  0.0000  0.0000  0.0000  0.0000  0.0000      0.0000  0.0000  0.0000  0.0000  0.0000  0.0000  0.0000  0.0000  0.0000  0.0000
  o =  0.9826  v =  0.8127 -0.0979 -0.4784  0.1242 -0.2927  0.0000  0.0000  0.0000  0.0000  0.0000      0.0000  0.0000  0.0000  0.0000  0.0000  0.0000  0.0000  0.0000  0.0000  0.0000
  o =  0.9947  v = -0.1940 -0.4727  0.0502  0.8522 -0.1008  0.0000  0.0000  0.0000  0.0000  0.0000      0.0000  0.0000  0.0000  0.0000  0.0000  0.0000  0.0000  0.0000  0.0000  0.0000
atom =   3  type =  1  l = 2
 
 onsite density matrix
 
spin component  1
 
  0.9746 -0.0026  0.0110 -0.0033  0.0065
 -0.0026  0.9550  0.0009  0.0207  0.0061
  0.0110  0.0009  0.9621 -0.0003  0.0030
 -0.0033  0.0207 -0.0003  0.9821  0.0028
  0.0065  0.0061  0.0030  0.0028  0.9564
 
spin component  2
 
  0.0718  0.0838  0.0159 -0.0521 -0.0174
  0.0838  0.6860 -0.0231 -0.2873 -0.2164
  0.0159 -0.0231  0.0325  0.0117  0.0132
 -0.0521 -0.2873  0.0117  0.2435  0.1187
 -0.0174 -0.2164  0.0132  0.1187  0.0986
 
 occupancies and eigenvectors
 
  o =  0.0174  v =  0.0000  0.0000  0.0000  0.0000  0.0000 -0.3607  0.2094  0.1678 -0.2721  0.8508      0.0000  0.0000  0.0000  0.0000  0.0000  0.0000  0.0000  0.0000  0.0000  0.0000
  o =  0.0224  v =  0.0000  0.0000  0.0000  0.0000  0.0000  0.3454  0.0235 -0.8846 -0.0089  0.3123      0.0000  0.0000  0.0000  0.0000  0.0000  0.0000  0.0000  0.0000  0.0000  0.0000
  o =  0.0723  v =  0.0000  0.0000  0.0000  0.0000  0.0000 -0.8364 -0.0736 -0.4319 -0.1427 -0.2969      0.0000  0.0000  0.0000  0.0000  0.0000  0.0000  0.0000  0.0000  0.0000  0.0000
  o =  0.1050  v =  0.0000  0.0000  0.0000  0.0000  0.0000 -0.1940  0.4777 -0.0430  0.8519  0.0811      0.0000  0.0000  0.0000  0.0000  0.0000  0.0000  0.0000  0.0000  0.0000  0.0000
  o =  0.9154  v =  0.0000  0.0000  0.0000  0.0000  0.0000 -0.1160 -0.8497  0.0301  0.4240  0.2897      0.0000  0.0000  0.0000  0.0000  0.0000  0.0000  0.0000  0.0000  0.0000  0.0000
  o =  0.9423  v = -0.1121 -0.8439  0.0582  0.4075  0.3254  0.0000  0.0000  0.0000  0.0000  0.0000      0.0000  0.0000  0.0000  0.0000  0.0000  0.0000  0.0000  0.0000  0.0000  0.0000
  o =  0.9546  v = -0.4218  0.2301  0.2711 -0.2997  0.7783  0.0000  0.0000  0.0000  0.0000  0.0000      0.0000  0.0000  0.0000  0.0000  0.0000  0.0000  0.0000  0.0000  0.0000  0.0000
  o =  0.9560  v =  0.3338  0.0437 -0.8317 -0.0491  0.4388  0.0000  0.0000  0.0000  0.0000  0.0000      0.0000  0.0000  0.0000  0.0000  0.0000  0.0000  0.0000  0.0000  0.0000  0.0000
  o =  0.9826  v =  0.8127  0.0979  0.4784  0.1242  0.2927  0.0000  0.0000  0.0000  0.0000  0.0000      0.0000  0.0000  0.0000  0.0000  0.0000  0.0000  0.0000  0.0000  0.0000  0.0000
  o =  0.9947  v = -0.1940  0.4727 -0.0502  0.8522  0.1008  0.0000  0.0000  0.0000  0.0000  0.0000      0.0000  0.0000  0.0000  0.0000  0.0000  0.0000  0.0000  0.0000  0.0000  0.0000
atom =   4  type =  1  l = 2
 
 onsite density matrix
 
spin component  1
 
  0.9746 -0.0026 -0.0110  0.0033 -0.0065
 -0.0026  0.9550 -0.0009 -0.0207 -0.0061
 -0.0110 -0.0009  0.9621 -0.0003  0.0030
  0.0033 -0.0207 -0.0003  0.9821  0.0028
 -0.0065 -0.0061  0.0030  0.0028  0.9564
 
spin component  2
 
  0.0718  0.0838 -0.0159  0.0521  0.0174
  0.0838  0.6860  0.0231  0.2873  0.2164
 -0.0159  0.0231  0.0325  0.0117  0.0132
  0.0521  0.2873  0.0117  0.2435  0.1187
  0.0174  0.2164  0.0132  0.1187  0.0986
 
 occupancies and eigenvectors
 
  o =  0.0174  v =  0.0000  0.0000  0.0000  0.0000  0.0000 -0.3607  0.2094 -0.1678  0.2721 -0.8508      0.0000  0.0000  0.0000  0.0000  0.0000  0.0000  0.0000  0.0000  0.0000  0.0000
  o =  0.0224  v =  0.0000  0.0000  0.0000  0.0000  0.0000 -0.3454 -0.0235 -0.8846 -0.0089  0.3123      0.0000  0.0000  0.0000  0.0000  0.0000  0.0000  0.0000  0.0000  0.0000  0.0000
  o =  0.0723  v =  0.0000  0.0000  0.0000  0.0000  0.0000 -0.8363 -0.0736  0.4319  0.1427  0.2969      0.0000  0.0000  0.0000  0.0000  0.0000  0.0000  0.0000  0.0000  0.0000  0.0000
  o =  0.1050  v =  0.0000  0.0000  0.0000  0.0000  0.0000 -0.1940  0.4777  0.0430 -0.8519 -0.0811      0.0000  0.0000  0.0000  0.0000  0.0000  0.0000  0.0000  0.0000  0.0000  0.0000
  o =  0.9154  v =  0.0000  0.0000  0.0000  0.0000  0.0000 -0.1160 -0.8497 -0.0301 -0.4240 -0.2897      0.0000  0.0000  0.0000  0.0000  0.0000  0.0000  0.0000  0.0000  0.0000  0.0000
  o =  0.9423  v = -0.1121 -0.8439 -0.0582 -0.4075 -0.3254  0.0000  0.0000  0.0000  0.0000  0.0000      0.0000  0.0000  0.0000  0.0000  0.0000  0.0000  0.0000  0.0000  0.0000  0.0000
  o =  0.9546  v =  0.4217 -0.2301  0.2710 -0.2997  0.7784  0.0000  0.0000  0.0000  0.0000  0.0000      0.0000  0.0000  0.0000  0.0000  0.0000  0.0000  0.0000  0.0000  0.0000  0.0000
  o =  0.9560  v =  0.3339  0.0437  0.8318  0.0491 -0.4386  0.0000  0.0000  0.0000  0.0000  0.0000      0.0000  0.0000  0.0000  0.0000  0.0000  0.0000  0.0000  0.0000  0.0000  0.0000
  o =  0.9826  v =  0.8127  0.0979 -0.4784 -0.1242 -0.2927  0.0000  0.0000  0.0000  0.0000  0.0000      0.0000  0.0000  0.0000  0.0000  0.0000  0.0000  0.0000  0.0000  0.0000  0.0000
  o =  0.9947  v = -0.1940  0.4726  0.0502 -0.8522 -0.1008  0.0000  0.0000  0.0000  0.0000  0.0000      0.0000  0.0000  0.0000  0.0000  0.0000  0.0000  0.0000  0.0000  0.0000  0.0000
atom =   5  type =  1  l = 2
 
 onsite density matrix
 
spin component  1
 
  0.9696  0.0000  0.0127  0.0000  0.0111
  0.0000  0.9651  0.0000  0.0121 -0.0000
  0.0127  0.0000  0.9691 -0.0000  0.0085
  0.0000  0.0121 -0.0000  0.9729  0.0000
  0.0111 -0.0000  0.0085  0.0000  0.9506
 
spin component  2
 
  0.1825 -0.0000  0.0470  0.0000 -0.3136
 -0.0000  0.0392 -0.0000  0.0284  0.0000
  0.0470 -0.0000  0.0600  0.0000 -0.0444
  0.0000  0.0284  0.0000  0.0566 -0.0000
 -0.3136  0.0000 -0.0444 -0.0000  0.7857
 
 occupancies and eigenvectors
 
  o =  0.0182  v =  0.0000  0.0000  0.0000  0.0000  0.0000 -0.0000 -0.8045 -0.0000  0.5940  0.0000      0.0000  0.0000  0.0000  0.0000  0.0000  0.0000  0.0000  0.0000  0.0000  0.0000
  o =  0.0264  v =  0.0000  0.0000  0.0000  0.0000  0.0000 -0.7095 -0.0000  0.6571  0.0000 -0.2546      0.0000  0.0000  0.0000  0.0000  0.0000  0.0000  0.0000  0.0000  0.0000  0.0000
  o =  0.0776  v =  0.0000  0.0000  0.0000  0.0000  0.0000  0.0001 -0.5940  0.0002 -0.8045  0.0001      0.0000  0.0000  0.0000  0.0000  0.0000  0.0000  0.0000  0.0000  0.0000  0.0000
  o =  0.0784  v =  0.0000  0.0000  0.0000  0.0000  0.0000  0.5852  0.0001  0.7507  0.0002  0.3066      0.0000  0.0000  0.0000  0.0000  0.0000  0.0000  0.0000  0.0000  0.0000  0.0000
  o =  0.9232  v =  0.0000  0.0000  0.0000  0.0000  0.0000 -0.3926  0.0000 -0.0685 -0.0000  0.9171      0.0000  0.0000  0.0000  0.0000  0.0000  0.0000  0.0000  0.0000  0.0000  0.0000
  o =  0.9451  v = -0.3430  0.0000 -0.1489 -0.0000  0.9274  0.0000  0.0000  0.0000  0.0000  0.0000      0.0000  0.0000  0.0000  0.0000  0.0000  0.0000  0.0000  0.0000  0.0000  0.0000
  o =  0.9563  v =  0.0000 -0.8091 -0.0000  0.5877  0.0000  0.0000  0.0000  0.0000  0.0000  0.0000      0.0000  0.0000  0.0000  0.0000  0.0000  0.0000  0.0000  0.0000  0.0000  0.0000
  o =  0.9569  v =  0.6467  0.0000 -0.7535 -0.0000  0.1183  0.0000  0.0000  0.0000  0.0000  0.0000      0.0000  0.0000  0.0000  0.0000  0.0000  0.0000  0.0000  0.0000  0.0000  0.0000
  o =  0.9817  v =  0.0000 -0.5877  0.0000 -0.8091  0.0000  0.0000  0.0000  0.0000  0.0000  0.0000      0.0000  0.0000  0.0000  0.0000  0.0000  0.0000  0.0000  0.0000  0.0000  0.0000
  o =  0.9873  v = -0.6812 -0.0000 -0.6404 -0.0000 -0.3548  0.0000  0.0000  0.0000  0.0000  0.0000      0.0000  0.0000  0.0000  0.0000  0.0000  0.0000  0.0000  0.0000  0.0000  0.0000
atom =   6  type =  1  l = 2
 
 onsite density matrix
 
spin component  1
 
  0.9696 -0.0000 -0.0127  0.0000 -0.0111
 -0.0000  0.9651 -0.0000 -0.0121 -0.0000
 -0.0127 -0.0000  0.9691  0.0000  0.0085
  0.0000 -0.0121  0.0000  0.9729 -0.0000
 -0.0111 -0.0000  0.0085 -0.0000  0.9506
 
spin component  2
 
  0.1784  0.0000 -0.0469  0.0000  0.3097
  0.0000  0.0391 -0.0000 -0.0283  0.0000
 -0.0469 -0.0000  0.0601 -0.0000 -0.0452
  0.0000 -0.0283 -0.0000  0.0566  0.0000
  0.3097  0.0000 -0.0452  0.0000  0.7896
 
 occupancies and eigenvectors
 
  o =  0.0182  v =  0.0000  0.0000  0.0000  0.0000  0.0000  0.0000 -0.8045 -0.0000 -0.5939  0.0000      0.0000  0.0000  0.0000  0.0000  0.0000  0.0000  0.0000  0.0000  0.0000  0.0000
  o =  0.0264  v =  0.0000  0.0000  0.0000  0.0000  0.0000 -0.7119 -0.0000 -0.6562  0.0000  0.2500      0.0000  0.0000  0.0000  0.0000  0.0000  0.0000  0.0000  0.0000  0.0000  0.0000
  o =  0.0775  v =  0.0000  0.0000  0.0000  0.0000  0.0000  0.0000  0.5939 -0.0000 -0.8045 -0.0000      0.0000  0.0000  0.0000  0.0000  0.0000  0.0000  0.0000  0.0000  0.0000  0.0000
  o =  0.0785  v =  0.0000  0.0000  0.0000  0.0000  0.0000  0.5862 -0.0000 -0.7514  0.0000 -0.3030      0.0000  0.0000  0.0000  0.0000  0.0000  0.0000  0.0000  0.0000  0.0000  0.0000
  o =  0.9232  v =  0.0000  0.0000  0.0000  0.0000  0.0000 -0.3867 -0.0000  0.0692 -0.0000 -0.9196      0.0000  0.0000  0.0000  0.0000  0.0000  0.0000  0.0000  0.0000  0.0000  0.0000
  o =  0.9451  v = -0.3431 -0.0000  0.1488 -0.0000 -0.9275  0.0000  0.0000  0.0000  0.0000  0.0000      0.0000  0.0000  0.0000  0.0000  0.0000  0.0000  0.0000  0.0000  0.0000  0.0000
  o =  0.9563  v = -0.0000 -0.8090 -0.0000 -0.5877  0.0000  0.0000  0.0000  0.0000  0.0000  0.0000      0.0000  0.0000  0.0000  0.0000  0.0000  0.0000  0.0000  0.0000  0.0000  0.0000
  o =  0.9569  v =  0.6469 -0.0000  0.7533 -0.0000 -0.1185  0.0000  0.0000  0.0000  0.0000  0.0000      0.0000  0.0000  0.0000  0.0000  0.0000  0.0000  0.0000  0.0000  0.0000  0.0000
  o =  0.9817  v =  0.0000  0.5877 -0.0000 -0.8090 -0.0000  0.0000  0.0000  0.0000  0.0000  0.0000      0.0000  0.0000  0.0000  0.0000  0.0000  0.0000  0.0000  0.0000  0.0000  0.0000
  o =  0.9873  v = -0.6811  0.0000  0.6406 -0.0000  0.3547  0.0000  0.0000  0.0000  0.0000  0.0000      0.0000  0.0000  0.0000  0.0000  0.0000  0.0000  0.0000  0.0000  0.0000  0.0000
atom =   7  type =  1  l = 2
 
 onsite density matrix
 
spin component  1
 
  0.9696  0.0000  0.0127  0.0000  0.0111
  0.0000  0.9651 -0.0000  0.0121 -0.0000
  0.0127 -0.0000  0.9691 -0.0000  0.0085
  0.0000  0.0121 -0.0000  0.9729  0.0000
  0.0111 -0.0000  0.0085  0.0000  0.9506
 
spin component  2
 
  0.1784 -0.0000  0.0469  0.0000 -0.3097
 -0.0000  0.0391 -0.0000  0.0283  0.0000
  0.0469 -0.0000  0.0601  0.0000 -0.0452
  0.0000  0.0283  0.0000  0.0566 -0.0000
 -0.3097  0.0000 -0.0452 -0.0000  0.7896
 
 occupancies and eigenvectors
 
  o =  0.0182  v =  0.0000  0.0000  0.0000  0.0000  0.0000 -0.0000 -0.8045 -0.0000  0.5939  0.0000      0.0000  0.0000  0.0000  0.0000  0.0000  0.0000  0.0000  0.0000  0.0000  0.0000
  o =  0.0264  v =  0.0000  0.0000  0.0000  0.0000  0.0000 -0.7119  0.0000  0.6562  0.0000 -0.2500      0.0000  0.0000  0.0000  0.0000  0.0000  0.0000  0.0000  0.0000  0.0000  0.0000
  o =  0.0775  v =  0.0000  0.0000  0.0000  0.0000  0.0000  0.0000 -0.5939  0.0000 -0.8045  0.0000      0.0000  0.0000  0.0000  0.0000  0.0000  0.0000  0.0000  0.0000  0.0000  0.0000
  o =  0.0785  v =  0.0000  0.0000  0.0000  0.0000  0.0000  0.5862  0.0000  0.7514  0.0000  0.3030      0.0000  0.0000  0.0000  0.0000  0.0000  0.0000  0.0000  0.0000  0.0000  0.0000
  o =  0.9232  v =  0.0000  0.0000  0.0000  0.0000  0.0000 -0.3867  0.0000 -0.0692 -0.0000  0.9196      0.0000  0.0000  0.0000  0.0000  0.0000  0.0000  0.0000  0.0000  0.0000  0.0000
  o =  0.9451  v = -0.3431  0.0000 -0.1488 -0.0000  0.9275  0.0000  0.0000  0.0000  0.0000  0.0000      0.0000  0.0000  0.0000  0.0000  0.0000  0.0000  0.0000  0.0000  0.0000  0.0000
  o =  0.9563  v =  0.0000 -0.8090 -0.0000  0.5877  0.0000  0.0000  0.0000  0.0000  0.0000  0.0000      0.0000  0.0000  0.0000  0.0000  0.0000  0.0000  0.0000  0.0000  0.0000  0.0000
  o =  0.9569  v =  0.6469  0.0000 -0.7533 -0.0000  0.1185  0.0000  0.0000  0.0000  0.0000  0.0000      0.0000  0.0000  0.0000  0.0000  0.0000  0.0000  0.0000  0.0000  0.0000  0.0000
  o =  0.9817  v =  0.0000 -0.5877  0.0000 -0.8090  0.0000  0.0000  0.0000  0.0000  0.0000  0.0000      0.0000  0.0000  0.0000  0.0000  0.0000  0.0000  0.0000  0.0000  0.0000  0.0000
  o =  0.9873  v = -0.6811 -0.0000 -0.6406 -0.0000 -0.3547  0.0000  0.0000  0.0000  0.0000  0.0000      0.0000  0.0000  0.0000  0.0000  0.0000  0.0000  0.0000  0.0000  0.0000  0.0000
atom =   8  type =  1  l = 2
 
 onsite density matrix
 
spin component  1
 
  0.9696 -0.0000 -0.0126  0.0000 -0.0111
 -0.0000  0.9651  0.0000 -0.0121 -0.0000
 -0.0126  0.0000  0.9691  0.0000  0.0085
  0.0000 -0.0121  0.0000  0.9729 -0.0000
 -0.0111 -0.0000  0.0085 -0.0000  0.9506
 
spin component  2
 
  0.1825  0.0000 -0.0470  0.0000  0.3136
  0.0000  0.0392 -0.0000 -0.0284  0.0000
 -0.0470 -0.0000  0.0600 -0.0000 -0.0444
  0.0000 -0.0284 -0.0000  0.0566  0.0000
  0.3136  0.0000 -0.0444  0.0000  0.7857
 
 occupancies and eigenvectors
 
  o =  0.0182  v =  0.0000  0.0000  0.0000  0.0000  0.0000  0.0000 -0.8045 -0.0000 -0.5940  0.0000      0.0000  0.0000  0.0000  0.0000  0.0000  0.0000  0.0000  0.0000  0.0000  0.0000
  o =  0.0264  v =  0.0000  0.0000  0.0000  0.0000  0.0000 -0.7095  0.0000 -0.6570  0.0000  0.2546      0.0000  0.0000  0.0000  0.0000  0.0000  0.0000  0.0000  0.0000  0.0000  0.0000
  o =  0.0776  v =  0.0000  0.0000  0.0000  0.0000  0.0000  0.0001  0.5940 -0.0002 -0.8045 -0.0001      0.0000  0.0000  0.0000  0.0000  0.0000  0.0000  0.0000  0.0000  0.0000  0.0000
  o =  0.0784  v =  0.0000  0.0000  0.0000  0.0000  0.0000  0.5852 -0.0001 -0.7507  0.0002 -0.3066      0.0000  0.0000  0.0000  0.0000  0.0000  0.0000  0.0000  0.0000  0.0000  0.0000
  o =  0.9232  v =  0.0000  0.0000  0.0000  0.0000  0.0000 -0.3926 -0.0000  0.0685 -0.0000 -0.9171      0.0000  0.0000  0.0000  0.0000  0.0000  0.0000  0.0000  0.0000  0.0000  0.0000
  o =  0.9451  v = -0.3430 -0.0000  0.1489 -0.0000 -0.9274  0.0000  0.0000  0.0000  0.0000  0.0000      0.0000  0.0000  0.0000  0.0000  0.0000  0.0000  0.0000  0.0000  0.0000  0.0000
  o =  0.9563  v = -0.0000 -0.8091 -0.0000 -0.5877  0.0000  0.0000  0.0000  0.0000  0.0000  0.0000      0.0000  0.0000  0.0000  0.0000  0.0000  0.0000  0.0000  0.0000  0.0000  0.0000
  o =  0.9569  v =  0.6467 -0.0000  0.7535 -0.0000 -0.1182  0.0000  0.0000  0.0000  0.0000  0.0000      0.0000  0.0000  0.0000  0.0000  0.0000  0.0000  0.0000  0.0000  0.0000  0.0000
  o =  0.9817  v =  0.0000  0.5877 -0.0000 -0.8091 -0.0000  0.0000  0.0000  0.0000  0.0000  0.0000      0.0000  0.0000  0.0000  0.0000  0.0000  0.0000  0.0000  0.0000  0.0000  0.0000
  o =  0.9873  v = -0.6812  0.0000  0.6404 -0.0000  0.3548  0.0000  0.0000  0.0000  0.0000  0.0000      0.0000  0.0000  0.0000  0.0000  0.0000  0.0000  0.0000  0.0000  0.0000  0.0000
     EDDAV:  cpu time  360.5986: real time  360.6372
       DOS:  cpu time    0.0191: real time    0.0191
    --------------------------------------------
      LOOP:  cpu time  362.8452: real time  362.8839

 eigenvalue-minimisations  : 53910
 total energy-change (2. order) : 0.2942532E+04  (-0.1159433E+05)
 number of electron     224.0000038 magnetization      32.0000008
 augmentation part      224.0000038 magnetization      32.0000008

 Free energy of the ion-electron system (eV)
  ---------------------------------------------------
  alpha Z        PSCENC =       816.95274383
  Ewald energy   TEWEN  =    -17717.08076060
  -Hartree energ DENC   =     -8232.87488790
  -exchange      EXHF   =         0.00000000
  -V(xc)+E(xc)   XCENC  =      1202.75136789
  PAW double counting   =     34167.54875569   -34922.07985140
  entropy T*S    EENTRO =        -0.00492547
  eigenvalues    EBANDS =       637.98408317
  atomic energy  EATOM  =     26989.33513692
  Solvation  Ediel_sol  =         0.00000000
  ---------------------------------------------------
  free energy    TOTEN  =      2942.53166213 eV

  energy without entropy =     2942.53658760  energy(sigma->0) =     2942.53412486


--------------------------------------------------------------------------------------------------------




--------------------------------------- Iteration      1(   2)  ---------------------------------------


     EDDAV:  cpu time  362.6220: real time  362.6458
       DOS:  cpu time    0.0196: real time    0.0196
    --------------------------------------------
      LOOP:  cpu time  362.6416: real time  362.6654

 eigenvalue-minimisations  : 52695
 total energy-change (2. order) :-0.2843662E+04  (-0.2646679E+04)
 number of electron     224.0000038 magnetization      32.0000008
 augmentation part      224.0000038 magnetization      32.0000008

 Free energy of the ion-electron system (eV)
  ---------------------------------------------------
  alpha Z        PSCENC =       816.95274383
  Ewald energy   TEWEN  =    -17717.08076060
  -Hartree energ DENC   =     -8232.87488790
  -exchange      EXHF   =         0.00000000
  -V(xc)+E(xc)   XCENC  =      1202.75136789
  PAW double counting   =     34167.54875569   -34922.07985140
  entropy T*S    EENTRO =        -0.01314167
  eigenvalues    EBANDS =     -2205.66997397
  atomic energy  EATOM  =     26989.33513692
  Solvation  Ediel_sol  =         0.00000000
  ---------------------------------------------------
  free energy    TOTEN  =        98.86938879 eV

  energy without entropy =       98.88253046  energy(sigma->0) =       98.87595962


--------------------------------------------------------------------------------------------------------




--------------------------------------- Iteration      1(   3)  ---------------------------------------


     EDDAV:  cpu time  380.6976: real time  380.7209
       DOS:  cpu time    0.0046: real time    0.0046
    --------------------------------------------
      LOOP:  cpu time  380.7023: real time  380.7255

 eigenvalue-minimisations  : 57069
 total energy-change (2. order) :-0.4638056E+03  (-0.4174901E+03)
[...]
 -0.000  -0.000  -0.000  -0.001  -0.001   0.000  -5.231  -0.368  -1.663  -0.606  -0.947   4.413   0.319   1.625   0.608   0.908
  0.000  -0.001  -0.000  -0.001  -0.000  -0.001  -0.359  -3.499  -0.051  -2.702   0.542   0.319   2.867   0.060   2.555  -0.499
 -0.000   0.000  -0.000  -0.000  -0.000   0.000  -1.637  -0.059  -3.611   0.028  -0.490   1.625   0.060   2.895  -0.047   0.490
 -0.000   0.000   0.000  -0.001   0.000  -0.002  -0.607  -2.703   0.034  -7.028   0.736   0.608   2.555  -0.047   6.243  -0.758
 -0.001   0.000   0.000  -0.000  -0.000   0.001  -0.943   0.548  -0.495   0.728  -2.777   0.908  -0.499   0.490  -0.758   2.044
  0.000   0.001   0.000   0.000  -0.001   0.000  -0.338  -0.583  -0.154   0.121  -0.521   0.254   0.442   0.201  -0.138   0.419
 -0.000  -0.000  -0.000  -0.000   0.000  -0.000   0.076   0.065  -0.021   0.046   0.064  -0.045  -0.048  -0.004  -0.020  -0.041
 total augmentation occupancy for first ion, spin component:           2
 -0.005   0.000   0.000  -0.019   0.001   0.001  -0.000   0.000  -0.001  -0.000  -0.001   0.000  -0.000   0.001   0.000   0.001
  0.000  -0.005   0.000   0.001  -0.020   0.001  -0.000  -0.001   0.000   0.000   0.000   0.000   0.001  -0.000  -0.000  -0.000
  0.000   0.000  -0.005   0.001   0.001  -0.017  -0.000  -0.000  -0.000   0.000   0.000   0.000   0.000   0.000  -0.000  -0.000
 -0.019   0.001   0.001   0.008   0.002   0.001   0.000   0.000   0.000   0.000   0.000  -0.000  -0.000   0.000  -0.000   0.000
  0.001  -0.020   0.001   0.002   0.009  -0.000   0.000   0.000   0.000   0.000   0.000  -0.000  -0.000  -0.000  -0.000   0.000
  0.001   0.001  -0.017   0.001  -0.000   0.012   0.000   0.000   0.000   0.000  -0.000  -0.000  -0.000  -0.000  -0.000   0.000
 -0.000  -0.000  -0.000   0.000   0.000   0.000   5.384   0.463   0.856   0.270   0.644  -3.045  -0.278  -0.668  -0.265  -0.473
  0.000  -0.001  -0.000   0.000   0.000   0.000   0.463   2.905  -0.052   2.380  -0.741  -0.274  -1.762   0.018  -1.558   0.357
 -0.001   0.000  -0.000   0.000   0.000   0.000   0.856  -0.052   4.114   0.079   0.209  -0.661   0.006  -2.049  -0.052  -0.172
 -0.000   0.000   0.000   0.000   0.000   0.000   0.270   2.380   0.079   6.055  -0.109  -0.264  -1.553  -0.050  -3.759   0.207
 -0.001   0.000   0.000   0.000   0.000  -0.000   0.644  -0.741   0.209  -0.109   3.716  -0.472   0.366  -0.169   0.197  -1.809
  0.000   0.000   0.000  -0.000  -0.000  -0.000  -3.045  -0.274  -0.661  -0.264  -0.472   1.768   0.188   0.475   0.207   0.332
 -0.000   0.001   0.000  -0.000  -0.000  -0.000  -0.278  -1.762   0.006  -1.553   0.366   0.188   0.955   0.001   1.091  -0.235
  0.001  -0.000   0.000   0.000  -0.000  -0.000  -0.668   0.018  -2.049  -0.050  -0.169   0.475   0.001   1.065   0.037   0.123
  0.000  -0.000  -0.000  -0.000  -0.000  -0.000  -0.265  -1.558  -0.052  -3.759   0.197   0.207   1.091   0.037   2.346  -0.167
  0.001  -0.000  -0.000   0.000   0.000   0.000  -0.473   0.357  -0.172   0.207  -1.809   0.332  -0.235   0.123  -0.167   0.900
 -0.000  -0.001  -0.000  -0.001   0.000  -0.000  -0.262  -0.080   0.046  -0.128  -0.192   0.154   0.063  -0.019   0.064   0.107
  0.000   0.000   0.000   0.000  -0.000   0.000   0.064   0.023  -0.041   0.062   0.036  -0.031  -0.009   0.018  -0.035  -0.012


------------------------ aborting loop because EDIFF is reached ----------------------------------------


 


 total charge     
 
# of ion       s       p       d       tot
------------------------------------------
    1        0.216   6.212   5.943  12.372
    2        0.216   6.212   5.943  12.372
    3        0.216   6.212   5.943  12.372
    4        0.216   6.212   5.943  12.372
    5        0.204   6.200   5.932  12.336
    6        0.204   6.200   5.932  12.336
    7        0.204   6.200   5.932  12.336
    8        0.204   6.200   5.932  12.336
    9        0.667   1.016   0.000   1.683
   10        0.667   1.017   0.000   1.684
   11        0.667   1.017   0.000   1.684
   12        0.667   1.016   0.000   1.683
   13        1.563   3.612   0.000   5.175
   14        1.563   3.612   0.000   5.176
   15        1.563   3.612   0.000   5.176
   16        1.563   3.612   0.000   5.175
   17        1.566   3.601   0.000   5.167
   18        1.566   3.601   0.000   5.167
   19        1.566   3.601   0.000   5.167
   20        1.566   3.601   0.000   5.167
   21        1.565   3.593   0.000   5.158
   22        1.565   3.593   0.000   5.158
   23        1.565   3.593   0.000   5.158
   24        1.565   3.593   0.000   5.158
   25        1.565   3.593   0.000   5.158
   26        1.565   3.593   0.000   5.158
   27        1.565   3.593   0.000   5.158
   28        1.565   3.593   0.000   5.158
--------------------------------------------------
tot         29.385 111.312  47.499 188.196
 


 magnetization (x)
 
# of ion       s       p       d       tot
------------------------------------------
    1        0.014   0.015   3.694   3.723
    2        0.014   0.015   3.694   3.723
    3        0.014   0.015   3.694   3.723
    4        0.014   0.015   3.694   3.723
    5        0.016   0.019   3.700   3.734
    6        0.016   0.019   3.700   3.734
    7        0.016   0.019   3.700   3.734
    8        0.016   0.019   3.700   3.734
    9        0.001   0.007   0.000   0.008
   10        0.001   0.007   0.000   0.008
   11        0.001   0.007   0.000   0.008
   12        0.001   0.007   0.000   0.008
   13        0.011   0.065   0.000   0.076
   14        0.011   0.065   0.000   0.076
   15        0.011   0.065   0.000   0.076
   16        0.011   0.065   0.000   0.076
   17        0.011   0.070   0.000   0.081
   18        0.011   0.070   0.000   0.081
   19        0.011   0.070   0.000   0.081
   20        0.011   0.070   0.000   0.081
   21        0.010   0.068   0.000   0.078
   22        0.010   0.068   0.000   0.078
   23        0.010   0.068   0.000   0.078
   24        0.010   0.068   0.000   0.078
   25        0.010   0.068   0.000   0.078
   26        0.010   0.068   0.000   0.078
   27        0.010   0.068   0.000   0.078
   28        0.010   0.068   0.000   0.078
--------------------------------------------------
tot          0.298   1.241  29.575  31.114
 
    CHARGE:  cpu time    3.2719: real time    3.2720
    FORLOC:  cpu time    0.0155: real time    0.0155
    FORNL :  cpu time   49.4819: real time   49.5577
    STRESS:  cpu time  940.4207: real time  940.4723
    FORCOR:  cpu time    0.3236: real time    0.3237
    FORHAR:  cpu time    0.0357: real time    0.0357
    MIXING:  cpu time    0.0086: real time    0.0086
    OFIELD:  cpu time    0.0000: real time    0.0000

  FORCE on cell =-STRESS in cart. coord.  units (eV):
  Direction    XX          YY          ZZ          XY          YZ          ZX
  --------------------------------------------------------------------------------------
  Alpha Z   816.95274   816.95274   816.95274
  Ewald   -6316.93254 -6161.19073 -5239.01165    -0.00047     0.00096    -0.00031
  Hartree  2291.67489  2736.67272  3204.54320    -0.00029     0.00036    -0.00016
  E(xc)   -1374.61081 -1372.73038 -1373.42391     0.00000    -0.00000    -0.00000
  Local     419.51400  -253.79874 -1551.44654     0.00078    -0.00102     0.00042
  n-local  -479.42347  -499.42118  -476.41732    -0.00000     0.00007    -0.00001
  augment  1287.92611  1315.93168  1265.03780    -0.00001    -0.00018     0.00003
  Kinetic  3354.93268  3417.48237  3353.78179    -0.00001    -0.00018     0.00002
  Fock        0.00000     0.00000     0.00000     0.00000     0.00000     0.00000
  -------------------------------------------------------------------------------------
  Total       0.03361    -0.10152     0.01612    -0.00001    -0.00000    -0.00001
  in kB       0.17527    -0.52945     0.08407    -0.00003    -0.00000    -0.00006
  external pressure =       -0.09 kB  Pullay stress =        0.00 kB


 VOLUME and BASIS-vectors are now :
 -----------------------------------------------------------------------------
  energy-cutoff  :      520.00
  volume of cell :      307.22
      direct lattice vectors                 reciprocal lattice vectors
     4.825176688  0.000000226  0.000000160     0.207246297 -0.000000005 -0.000000006
     0.000000277 10.457384758 -0.000000923    -0.000000004  0.095626203  0.000000007
     0.000000166 -0.000000418  6.088533043    -0.000000005  0.000000014  0.164243175

  length of vectors
     4.825176688 10.457384758  6.088533043     0.207246297  0.095626203  0.164243175


 FORCES acting on ions
    electron-ion (+dipol)            ewald-force                    non-local-force                 convergence-correction
 -----------------------------------------------------------------------------------------------
   -.818E-01 0.539E-01 -.932E+00   0.765E-01 -.664E-01 0.910E+00   -.431E-03 0.143E-01 0.513E-02   0.256E-05 -.426E-04 -.888E-05
   -.821E-01 -.534E-01 -.933E+00   0.767E-01 0.659E-01 0.911E+00   -.448E-03 -.143E-01 0.511E-02   0.342E-05 0.424E-04 -.123E-04
   -.819E-01 0.533E-01 0.932E+00   0.766E-01 -.658E-01 -.911E+00   -.437E-03 0.143E-01 -.514E-02   0.173E-05 -.424E-04 0.101E-04
   -.820E-01 -.538E-01 0.933E+00   0.767E-01 0.663E-01 -.911E+00   -.442E-03 -.143E-01 -.511E-02   0.437E-05 0.420E-04 0.103E-04
   -.209E+02 -.495E+02 -.140E-03   0.218E+02 0.527E+02 0.144E-03   -.897E+00 -.317E+01 -.249E-05   0.363E-04 -.179E-03 -.137E-05
   0.210E+02 -.494E+02 -.527E-04   -.218E+02 0.525E+02 0.575E-04   0.770E+00 -.316E+01 -.477E-05   -.527E-04 -.218E-03 -.805E-07
   0.210E+02 0.494E+02 0.207E-03   -.218E+02 -.525E+02 -.203E-03   0.770E+00 0.316E+01 -.497E-05   -.511E-04 0.217E-03 0.284E-06
   -.209E+02 0.495E+02 -.387E-04   0.218E+02 -.527E+02 0.279E-04   -.897E+00 0.317E+01 0.126E-04   0.362E-04 0.179E-03 0.559E-06
   0.688E+02 -.240E+02 -.216E-04   -.662E+02 0.237E+02 0.207E-04   -.246E+01 0.251E+00 0.377E-05   0.202E-05 0.535E-04 0.279E-06
   -.687E+02 -.241E+02 -.911E-05   0.661E+02 0.238E+02 0.160E-04   0.246E+01 0.237E+00 -.758E-05   0.115E-04 0.679E-04 0.257E-06
   -.687E+02 0.241E+02 0.397E-04   0.661E+02 -.238E+02 -.376E-04   0.246E+01 -.237E+00 -.332E-05   0.112E-04 -.684E-04 0.410E-06
   0.688E+02 0.240E+02 -.733E-05   -.662E+02 -.237E+02 -.420E-06   -.246E+01 -.251E+00 0.740E-05   0.204E-05 -.541E-04 0.151E-06
   -.139E+03 -.409E+02 -.402E-03   0.119E+03 0.424E+02 0.423E-03   0.197E+02 -.148E+01 -.181E-04   -.142E-03 -.200E-04 0.248E-06
   0.139E+03 -.417E+02 0.120E-03   -.119E+03 0.432E+02 -.131E-03   -.197E+02 -.151E+01 0.672E-05   0.123E-03 0.878E-05 0.489E-07
   0.139E+03 0.417E+02 -.228E-03   -.119E+03 -.432E+02 0.258E-03   -.197E+02 0.151E+01 -.247E-04   0.121E-03 -.797E-05 0.354E-06
   -.139E+03 0.409E+02 0.348E-03   0.119E+03 -.424E+02 -.373E-03   0.197E+02 0.148E+01 0.214E-04   -.143E-03 0.197E-04 0.112E-07
   -.784E+02 0.579E+02 0.580E-04   0.726E+02 -.800E+02 -.665E-04   0.575E+01 0.221E+02 0.627E-05   -.308E-04 -.688E-04 -.665E-07
   0.779E+02 0.578E+02 -.948E-04   -.721E+02 -.799E+02 0.101E-03   -.579E+01 0.221E+02 -.472E-05   0.593E-04 -.959E-04 0.266E-06
   0.779E+02 -.578E+02 0.585E-04   -.721E+02 0.799E+02 -.599E-04   -.579E+01 -.221E+02 0.871E-06   0.596E-04 0.963E-04 0.734E-07
   -.784E+02 -.579E+02 -.340E-04   0.726E+02 0.800E+02 0.392E-04   0.575E+01 -.221E+02 -.346E-05   -.302E-04 0.693E-04 0.711E-08
   0.408E+02 -.548E+02 0.970E+01   -.305E+02 0.670E+02 -.269E+02   -.103E+02 -.122E+02 0.172E+02   0.701E-04 0.725E-04 -.747E-04
   -.406E+02 -.548E+02 -.976E+01   0.303E+02 0.670E+02 0.270E+02   0.103E+02 -.122E+02 -.172E+02   -.647E-04 0.117E-03 0.782E-04
   -.406E+02 0.548E+02 0.976E+01   0.303E+02 -.670E+02 -.270E+02   0.103E+02 0.122E+02 0.172E+02   -.643E-04 -.116E-03 -.795E-04
   0.408E+02 0.548E+02 -.970E+01   -.305E+02 -.670E+02 0.269E+02   -.103E+02 0.122E+02 -.172E+02   0.708E-04 -.728E-04 0.754E-04
   -.406E+02 0.548E+02 -.976E+01   0.303E+02 -.670E+02 0.270E+02   0.103E+02 0.122E+02 -.172E+02   -.638E-04 -.116E-03 0.795E-04
   0.408E+02 0.548E+02 0.970E+01   -.305E+02 -.670E+02 -.269E+02   -.103E+02 0.122E+02 0.172E+02   0.715E-04 -.726E-04 -.751E-04
   0.408E+02 -.548E+02 -.970E+01   -.305E+02 0.670E+02 0.269E+02   -.103E+02 -.122E+02 -.172E+02   0.701E-04 0.723E-04 0.746E-04
   -.406E+02 -.548E+02 0.976E+01   0.303E+02 0.670E+02 -.270E+02   0.103E+02 -.122E+02 0.172E+02   -.643E-04 0.116E-03 -.781E-04
 -----------------------------------------------------------------------------------------------
   0.234E+00 0.309E-04 0.229E-04   -.959E-13 -.568E-13 0.110E-12   -.265E+00 -.212E-04 -.112E-04   0.510E-04 -.129E-05 0.993E-06
 
 
 POSITION                                       TOTAL-FORCE (eV/Angst)
 -----------------------------------------------------------------------------------
      2.41222      5.22886      6.08763        -0.003400      0.001911     -0.011847
      4.82481     10.45721      3.04336        -0.003416     -0.001912     -0.011892
      2.41222      5.22887      3.04517        -0.003415      0.001914      0.011888
      4.82481     10.45721      0.00090        -0.003403     -0.001910      0.011858
      2.47956      8.14773      1.52213        -0.005078     -0.013564     -0.000000
      4.75837      2.91958      1.52213         0.007352     -0.010454     -0.000000
      2.34578      2.30911      4.56640         0.007350      0.010453     -0.000001
      0.06697      7.53835      4.56640        -0.005076      0.013560      0.000002
      0.33216      6.24506      1.52213         0.021939      0.006247      0.000003
      2.08041      1.01649      1.52213        -0.022433      0.005760     -0.000001
      4.49300      4.21220      4.56640        -0.022416     -0.005761     -0.000002
      2.74475      9.44102      4.56640         0.021909     -0.006233     -0.000000
      3.53223      6.17965      1.52213        -0.020781     -0.018426      0.000003
      3.70537      0.95096      1.52213         0.019775     -0.014836     -0.000004
      1.29278      4.27774      4.56640         0.019771      0.014838      0.000005
      1.11964      9.50642      4.56640        -0.020767      0.018424     -0.000004
      1.40353      9.96661      1.52213        -0.004773     -0.018261     -0.000003
      1.00895      4.73789      1.52213         0.008250     -0.018340      0.000002
      3.42154      0.49080      4.56640         0.008253      0.018339     -0.000001
      3.81612      5.71946      4.56640        -0.004775      0.018264      0.000001
      1.01122      6.96765      0.22142        -0.013608      0.005941     -0.007282
      1.40180      1.73879      2.82301         0.014894      0.007403      0.008247
      3.81438      3.48991      3.26552         0.014892     -0.007405     -0.008250
      3.42381      8.71843      5.86711        -0.013607     -0.005945      0.007288
      3.81438      3.48991      5.86727         0.014891     -0.007407      0.008252
      3.42381      8.71843      3.26569        -0.013609     -0.005944     -0.007295
      1.01122      6.96765      2.82284        -0.013610      0.005938      0.007282
      1.40180      1.73879      0.22126         0.014892      0.007405     -0.008246
 -----------------------------------------------------------------------------------
    total drift:                               -0.031555      0.000008      0.000013


--------------------------------------------------------------------------------------------------------



  FREE ENERGIE OF THE ION-ELECTRON SYSTEM (eV)
  ---------------------------------------------------
  free  energy   TOTEN  =      -335.72144942 eV

  energy  without entropy=     -335.72144942  energy(sigma->0) =     -335.72144942
 


--------------------------------------------------------------------------------------------------------


    POTLOK:  cpu time    2.5233: real time    2.5234


--------------------------------------------------------------------------------------------------------




--------------------------------------------------------------------------------------------------------


  
 reached required accuracy - stopping structural energy minimisation
     LOOP+:  cpu time10608.2695: real time10609.2181
    4ORBIT:  cpu time    0.0000: real time    0.0000
 


 total charge     
 
# of ion       s       p       d       tot
------------------------------------------
    1        0.216   6.212   5.943  12.372
    2        0.216   6.212   5.943  12.372
    3        0.216   6.212   5.943  12.372
    4        0.216   6.212   5.943  12.372
    5        0.204   6.200   5.932  12.336
    6        0.204   6.200   5.932  12.336
    7        0.204   6.200   5.932  12.336
    8        0.204   6.200   5.932  12.336
    9        0.667   1.016   0.000   1.683
   10        0.667   1.017   0.000   1.684
   11        0.667   1.017   0.000   1.684
   12        0.667   1.016   0.000   1.683
   13        1.563   3.612   0.000   5.175
   14        1.563   3.612   0.000   5.176
   15        1.563   3.612   0.000   5.176
   16        1.563   3.612   0.000   5.175
   17        1.566   3.601   0.000   5.167
   18        1.566   3.601   0.000   5.167
   19        1.566   3.601   0.000   5.167
   20        1.566   3.601   0.000   5.167
   21        1.565   3.593   0.000   5.158
   22        1.565   3.593   0.000   5.158
   23        1.565   3.593   0.000   5.158
   24        1.565   3.593   0.000   5.158
   25        1.565   3.593   0.000   5.158
   26        1.565   3.593   0.000   5.158
   27        1.565   3.593   0.000   5.158
   28        1.565   3.593   0.000   5.158
--------------------------------------------------
tot         29.385 111.312  47.499 188.196
 


 magnetization (x)
 
# of ion       s       p       d       tot
------------------------------------------
    1        0.014   0.015   3.694   3.723
    2        0.014   0.015   3.694   3.723
    3        0.014   0.015   3.694   3.723
    4        0.014   0.015   3.694   3.723
    5        0.016   0.019   3.700   3.734
    6        0.016   0.019   3.700   3.734
    7        0.016   0.019   3.700   3.734
    8        0.016   0.019   3.700   3.734
    9        0.001   0.007   0.000   0.008
   10        0.001   0.007   0.000   0.008
   11        0.001   0.007   0.000   0.008
   12        0.001   0.007   0.000   0.008
   13        0.011   0.065   0.000   0.076
   14        0.011   0.065   0.000   0.076
   15        0.011   0.065   0.000   0.076
   16        0.011   0.065   0.000   0.076
   17        0.011   0.070   0.000   0.081
   18        0.011   0.070   0.000   0.081
   19        0.011   0.070   0.000   0.081
   20        0.011   0.070   0.000   0.081
   21        0.010   0.068   0.000   0.078
   22        0.010   0.068   0.000   0.078
   23        0.010   0.068   0.000   0.078
   24        0.010   0.068   0.000   0.078
   25        0.010   0.068   0.000   0.078
   26        0.010   0.068   0.000   0.078
   27        0.010   0.068   0.000   0.078
   28        0.010   0.068   0.000   0.078
--------------------------------------------------
tot          0.298   1.241  29.575  31.114
 

 total amount of memory used by VASP MPI-rank0   358036. kBytes
=======================================================================

   base      :      30000. kBytes
   nonlr-proj:       5719. kBytes
   fftplans  :       4179. kBytes
   grid      :      14761. kBytes
   one-center:        217. kBytes
   wavefun   :     303160. kBytes
 
  
  
 General timing and accounting informations for this job:
 ========================================================
  
                  Total CPU time used (sec):    10650.572
                            User time (sec):    10645.625
                          System time (sec):        4.948
                         Elapsed time (sec):    10651.775
  
                   Maximum memory used (kb):      622268.
                   Average memory used (kb):           0.
  
                          Minor page faults:       132984
                          Major page faults:            0
                 Voluntary context switches:           65
