       N       E                     dE             d eps       ncg     rms          rms(c)
DAV:   1     0.258501811815E+04    0.25850E+04   -0.12910E+05 35360   0.149E+03
DAV:   2     0.106120730268E+02   -0.25744E+04   -0.23991E+04 36944   0.409E+02
DAV:   3    -0.260537923499E+03   -0.27115E+03   -0.26744E+03 38976   0.149E+02
DAV:   4    -0.268834578054E+03   -0.82967E+01   -0.81952E+01 46168   0.253E+01
DAV:   5    -0.269139690631E+03   -0.30511E+00   -0.30435E+00 50432   0.411E+00    0.117E+02
DAV:   6    -0.227704478440E+03    0.41435E+02   -0.17809E+02 42928   0.437E+01    0.725E+01
DAV:   7    -0.274805310218E+03   -0.47101E+02   -0.14218E+02 41772   0.694E+01    0.955E+01
DAV:   8    -0.238552973511E+03    0.36252E+02   -0.66658E+01 38368   0.671E+01    0.576E+01
DAV:   9    -0.245944804620E+03   -0.73918E+01   -0.10454E+02 41360   0.338E+01    0.556E+01
DAV:  10    -0.227839516155E+03    0.18105E+02   -0.44845E+01 39968   0.241E+01    0.305E+01
DAV:  11    -0.227224560281E+03    0.61496E+00   -0.25600E+01 41464   0.113E+01    0.183E+01
DAV:  12    -0.228120545755E+03   -0.89599E+00   -0.28092E+00 42088   0.585E+00    0.214E+01
DAV:  13    -0.228147886063E+03   -0.27340E-01   -0.11720E-01 38920   0.126E+00    0.210E+01
DAV:  14    -0.228152593968E+03   -0.47079E-02   -0.61272E-01 46744   0.310E+00    0.179E+01
DAV:  15    -0.229358466161E+03   -0.12059E+01   -0.76363E+00 47872   0.369E+00    0.196E+01
DAV:  16    -0.229624227694E+03   -0.26576E+00   -0.18625E-01 35792   0.163E+00    0.204E+01
DAV:  17    -0.229681149210E+03   -0.56922E-01   -0.23085E-02 39280   0.579E-01    0.197E+01
DAV:  18    -0.230814966983E+03   -0.11338E+01   -0.81363E-01 44400   0.448E+00    0.972E+00
DAV:  19    -0.230884178875E+03   -0.69212E-01   -0.38362E-01 44664   0.337E+00    0.679E+00
DAV:  20    -0.230917611110E+03   -0.33432E-01   -0.21092E-01 42232   0.208E+00    0.527E+00
DAV:  21    -0.230935139838E+03   -0.17529E-01   -0.95554E-02 49056   0.169E+00    0.417E+00
DAV:  22    -0.230919170134E+03    0.15970E-01   -0.66516E-02 48448   0.158E+00    0.327E+00
DAV:  23    -0.230899714069E+03    0.19456E-01   -0.50807E-02 47312   0.138E+00    0.216E+00
DAV:  24    -0.230907069728E+03   -0.73557E-02   -0.73483E-02 46072   0.137E+00    0.561E+00
DAV:  25    -0.230917556694E+03   -0.10487E-01   -0.21098E-02 35956   0.511E-01    0.966E+00
DAV:  26    -0.230970850868E+03   -0.53294E-01   -0.20167E-02 42064   0.565E-01    0.165E+01
DAV:  27    -0.230958205616E+03    0.12645E-01   -0.14976E-02 36384   0.468E-01    0.170E+01
DAV:  28    -0.230988168694E+03   -0.29963E-01   -0.43713E-03 48112   0.283E-01    0.173E+01
DAV:  29    -0.231052494725E+03   -0.64326E-01   -0.50901E-03 47680   0.407E-01    0.177E+01
DAV:  30    -0.231124075083E+03   -0.71580E-01   -0.51307E-03 47976   0.391E-01    0.182E+01
DAV:  31    -0.231147605968E+03   -0.23531E-01   -0.18816E-03 47224   0.146E-01    0.183E+01
DAV:  32    -0.231158390774E+03   -0.10785E-01   -0.64647E-04 42872   0.935E-02    0.184E+01
DAV:  33    -0.231265809482E+03   -0.10742E+00   -0.80253E-03 47280   0.515E-01    0.191E+01
DAV:  34    -0.231331544371E+03   -0.65735E-01   -0.80888E-03 48872   0.324E-01    0.196E+01
DAV:  35    -0.231318236724E+03    0.13308E-01   -0.15477E-03 38368   0.145E-01    0.194E+01
DAV:  36    -0.231287959945E+03    0.30277E-01   -0.12134E-03 45824   0.137E-01    0.192E+01
DAV:  37    -0.231271879720E+03    0.16080E-01   -0.16123E-03 49416   0.149E-01    0.190E+01
DAV:  38    -0.231209158803E+03    0.62721E-01   -0.35786E-03 47280   0.307E-01    0.185E+01
DAV:  39    -0.230896551707E+03    0.31261E+00   -0.63020E-02 49064   0.158E+00    0.161E+01
DAV:  40    -0.230809272118E+03    0.87280E-01   -0.32251E-02 48136   0.681E-01    0.928E+00
DAV:  41    -0.230878680899E+03   -0.69409E-01   -0.34721E-01 45736   0.161E+00    0.366E+00
DAV:  42    -0.230953839318E+03   -0.75158E-01   -0.37929E-02 37808   0.858E-01    0.394E+00
DAV:  43    -0.230995084395E+03   -0.41245E-01   -0.18595E-02 50772   0.111E+00    0.519E+00
DAV:  44    -0.231003981152E+03   -0.88968E-02   -0.10358E-02 42728   0.305E-01    0.537E+00
DAV:  45    -0.231015804428E+03   -0.11823E-01   -0.13265E-03 49624   0.271E-01    0.566E+00
DAV:  46    -0.231040921388E+03   -0.25117E-01   -0.49905E-03 45472   0.503E-01    0.620E+00
DAV:  47    -0.231112701449E+03   -0.71780E-01   -0.23860E-02 44704   0.118E+00    0.721E+00
DAV:  48    -0.231103422087E+03    0.92794E-02   -0.12258E-02 40084   0.675E-01    0.619E+00
DAV:  49    -0.231040278709E+03    0.63143E-01   -0.17392E-02 46256   0.123E+00    0.496E+00
DAV:  50    -0.231004453727E+03    0.35825E-01   -0.15468E-02 47872   0.802E-01    0.412E+00
DAV:  51    -0.230976985152E+03    0.27469E-01   -0.85428E-03 47176   0.691E-01    0.328E+00
DAV:  52    -0.230952677815E+03    0.24307E-01   -0.95790E-03 46992   0.717E-01    0.261E+00
DAV:  53    -0.230940768077E+03    0.11910E-01   -0.74246E-03 48184   0.469E-01    0.222E+00
DAV:  54    -0.230941115162E+03   -0.34708E-03   -0.24916E-03 38344   0.161E-01    0.217E+00
DAV:  55    -0.230941591052E+03   -0.47589E-03   -0.16309E-04 41464   0.406E-02    0.217E+00
DAV:  56    -0.230936463218E+03    0.51278E-02   -0.10400E-03 44304   0.233E-01    0.204E+00
DAV:  57    -0.230938920379E+03   -0.24572E-02   -0.48507E-04 41800   0.117E-01    0.206E+00
DAV:  58    -0.230939031606E+03   -0.11123E-03   -0.36143E-04 45680   0.749E-02    0.198E+00
DAV:  59    -0.230938231154E+03    0.80045E-03   -0.24472E-04 47384   0.753E-02    0.187E+00
DAV:  60    -0.230937459780E+03    0.77137E-03   -0.22963E-04 46376   0.545E-02    0.182E+00
DAV:  61    -0.230936936597E+03    0.52318E-03   -0.86849E-05 33688   0.406E-02    0.178E+00
DAV:  62    -0.230936913560E+03    0.23037E-04   -0.28651E-05 26696   0.152E-02    0.178E+00
DAV:  63    -0.230935769536E+03    0.11440E-02   -0.61224E-05 29456   0.498E-02    0.176E+00
DAV:  64    -0.230934358287E+03    0.14112E-02   -0.16689E-04 45032   0.709E-02    0.169E+00
DAV:  65    -0.230932615352E+03    0.17429E-02   -0.26975E-04 45632   0.897E-02    0.160E+00
DAV:  66    -0.230931101179E+03    0.15142E-02   -0.28204E-04 46408   0.833E-02    0.150E+00
DAV:  67    -0.230931860227E+03   -0.75905E-03   -0.92650E-05 37420   0.494E-02    0.154E+00
DAV:  68    -0.230932386269E+03   -0.52604E-03   -0.18866E-05 28464   0.296E-02    0.157E+00
DAV:  69    -0.230932594325E+03   -0.20806E-03   -0.25677E-05 21192   0.157E-02    0.158E+00
DAV:  70    -0.230932667650E+03   -0.73325E-04   -0.25544E-05 19080   0.118E-02    0.158E+00
DAV:  71    -0.230934173662E+03   -0.15060E-02   -0.22952E-04 41864   0.802E-02    0.165E+00
DAV:  72    -0.230933803742E+03    0.36992E-03   -0.83103E-05 34936   0.300E-02    0.163E+00
DAV:  73    -0.230933830724E+03   -0.26983E-04   -0.71503E-06 21488   0.132E-02    0.163E+00
DAV:  74    -0.230934249244E+03   -0.41852E-03   -0.84361E-06 25248   0.222E-02    0.166E+00
DAV:  75    -0.230933927045E+03    0.32220E-03   -0.58263E-06 21224   0.187E-02    0.164E+00
DAV:  76    -0.230932532068E+03    0.13950E-02   -0.76775E-05 32024   0.644E-02    0.159E+00
DAV:  77    -0.230932303318E+03    0.22875E-03   -0.25467E-05 29296   0.164E-02    0.157E+00
DAV:  78    -0.230932991257E+03   -0.68794E-03   -0.25398E-05 28560   0.365E-02    0.161E+00
DAV:  79    -0.230930841259E+03    0.21500E-02   -0.19294E-04 38048   0.108E-01    0.150E+00
DAV:  80    -0.230927279017E+03    0.35622E-02   -0.93670E-04 46248   0.203E-01    0.125E+00
DAV:  81    -0.230943038799E+03   -0.15760E-01   -0.21371E-02 45768   0.941E-01    0.741E+00
DAV:  82    -0.230981144522E+03   -0.38106E-01   -0.12566E+00 44824   0.323E+00    0.352E+00
DAV:  83    -0.230946801694E+03    0.34343E-01   -0.34779E-02 39028   0.161E+00    0.216E+00
DAV:  84    -0.230933698065E+03    0.13104E-01   -0.56763E-03 46736   0.518E-01    0.167E+00
DAV:  85    -0.230931118414E+03    0.25797E-02   -0.15490E-03 46864   0.153E-01    0.152E+00
DAV:  86    -0.230928566345E+03    0.25521E-02   -0.34978E-04 47784   0.133E-01    0.136E+00
DAV:  87    -0.230924267680E+03    0.42987E-02   -0.18473E-03 46864   0.298E-01    0.842E-01
DAV:  88    -0.230923708635E+03    0.55904E-03   -0.11036E-03 45224   0.107E-01    0.587E-01
DAV:  89    -0.230923530839E+03    0.17780E-03   -0.17623E-04 39768   0.482E-02    0.375E-01
DAV:  90    -0.230923855891E+03   -0.32505E-03   -0.14458E-04 35000   0.604E-02    0.548E-01
DAV:  91    -0.230923467082E+03    0.38881E-03   -0.30252E-04 37672   0.110E-01    0.828E-02
DAV:  92    -0.230924036140E+03   -0.56906E-03   -0.48668E-04 38036   0.137E-01    0.591E-01
DAV:  93    -0.230923534442E+03    0.50170E-03   -0.78631E-04 39680   0.176E-01    0.255E-01
DAV:  94    -0.230923917449E+03   -0.38301E-03   -0.73210E-04 38464   0.163E-01    0.475E-01
DAV:  95    -0.230923636576E+03    0.28087E-03   -0.65092E-04 38980   0.154E-01    0.248E-01
DAV:  96    -0.230923708579E+03   -0.72003E-04   -0.29578E-04 35600   0.103E-01    0.210E-01
DAV:  97    -0.230923691613E+03    0.16965E-04   -0.87075E-05 27468   0.374E-02    0.127E-01
DAV:  98    -0.230923691641E+03   -0.27783E-07   -0.22782E-05 21848   0.114E-02
   1 F= -.23092369E+03 E0= -.23091984E+03  d E =-.230924E+03  mag=     6.1197
       N       E                     dE             d eps       ncg     rms          rms(c)
DAV:   1    -0.230966035370E+03   -0.42344E-01   -0.18596E-02 34552   0.435E-01    0.138E-01
DAV:   2    -0.230966542445E+03   -0.50708E-03   -0.14735E-03 41172   0.180E-01    0.775E-01
DAV:   3    -0.230965974393E+03    0.56805E-03   -0.44582E-04 37448   0.145E-01    0.152E-01
DAV:   4    -0.230966152533E+03   -0.17814E-03   -0.17800E-04 35512   0.392E-02    0.946E-02
DAV:   5    -0.230966190832E+03   -0.38299E-04   -0.10941E-04 31616   0.353E-02    0.685E-02
DAV:   6    -0.230966210469E+03   -0.19637E-04   -0.10190E-04 27144   0.281E-02    0.502E-02
DAV:   7    -0.230966238294E+03   -0.27824E-04   -0.23965E-04 32368   0.343E-02    0.689E-02
DAV:   8    -0.230966266305E+03   -0.28012E-04   -0.20359E-04 28292   0.307E-02    0.535E-02
DAV:   9    -0.230966291210E+03   -0.24905E-04   -0.20856E-04 28272   0.285E-02    0.208E-02
DAV:  10    -0.230966312596E+03   -0.21386E-04   -0.29792E-04 28536   0.286E-02    0.214E-02
DAV:  11    -0.230966355127E+03   -0.42532E-04   -0.10376E-04 23740   0.158E-02    0.273E-02
DAV:  12    -0.230966369175E+03   -0.14047E-04   -0.17728E-05 20872   0.968E-03    0.339E-02
DAV:  13    -0.230966365814E+03    0.33607E-05   -0.21187E-06 17876   0.623E-03
   2 F= -.23096637E+03 E0= -.23096230E+03  d E =-.426742E-01  mag=     6.1199
       N       E                     dE             d eps       ncg     rms          rms(c)
DAV:   1    -0.232091399119E+03   -0.11250E+01   -0.24096E+01 34544   0.157E+01    0.320E+00
DAV:   2    -0.232197350842E+03   -0.10595E+00   -0.13801E+00 37888   0.312E+00    0.203E+00
DAV:   3    -0.232221140961E+03   -0.23790E-01   -0.33754E-01 49528   0.221E+00    0.286E+00
DAV:   4    -0.232188324797E+03    0.32816E-01   -0.91408E-02 45816   0.157E+00    0.962E-01
DAV:   5    -0.232190234793E+03   -0.19100E-02   -0.14108E-02 47608   0.545E-01    0.162E+00
DAV:   6    -0.232187683136E+03    0.25517E-02   -0.22811E-02 43472   0.511E-01    0.532E-01
DAV:   7    -0.232187895372E+03   -0.21224E-03   -0.30551E-03 41720   0.263E-01    0.493E-01
DAV:   8    -0.232187671307E+03    0.22406E-03   -0.12949E-03 46344   0.204E-01    0.191E-01
DAV:   9    -0.232187718968E+03   -0.47661E-04   -0.38781E-04 41976   0.828E-02    0.152E-01
DAV:  10    -0.232187707597E+03    0.11371E-04   -0.15762E-04 43016   0.490E-02    0.426E-02
DAV:  11    -0.232187726510E+03   -0.18913E-04   -0.65790E-05 29064   0.210E-02    0.294E-02
DAV:  12    -0.232187737560E+03   -0.11050E-04   -0.49261E-05 23016   0.160E-02    0.265E-02
DAV:  13    -0.232187746733E+03   -0.91724E-05   -0.84105E-05 27568   0.189E-02
   3 F= -.23218775E+03 E0= -.23218307E+03  d E =-.122138E+01  mag=     6.1431
       N       E                     dE             d eps       ncg     rms          rms(c)
DAV:   1    -0.232935502243E+03   -0.74776E+00   -0.62719E+01 34680   0.280E+01    0.461E+00
DAV:   2    -0.233342225561E+03   -0.40672E+00   -0.45977E+00 36896   0.576E+00    0.638E+00
DAV:   3    -0.233385881868E+03   -0.43656E-01   -0.17388E+00 47752   0.317E+00    0.495E+00
DAV:   4    -0.233334418209E+03    0.51464E-01   -0.59025E-01 46024   0.260E+00    0.585E+00
DAV:   5    -0.233536712201E+03   -0.20229E+00   -0.72764E-01 41904   0.102E+00    0.112E+01
DAV:   6    -0.233476006384E+03    0.60706E-01   -0.86510E-02 36368   0.123E+00    0.128E+01
DAV:   7    -0.233364230992E+03    0.11178E+00   -0.17637E-02 41608   0.402E-01    0.133E+01
DAV:   8    -0.233384528893E+03   -0.20298E-01   -0.11341E-03 39448   0.183E-01    0.131E+01
DAV:   9    -0.233517262543E+03   -0.13273E+00   -0.85934E-03 46512   0.429E-01    0.122E+01
DAV:  10    -0.233829729684E+03   -0.31247E+00   -0.57284E-02 47392   0.124E+00    0.961E+00
DAV:  11    -0.234043939367E+03   -0.21421E+00   -0.60500E-02 45248   0.838E-01    0.742E+00
DAV:  12    -0.234210499705E+03   -0.16656E+00   -0.69629E-02 46016   0.109E+00    0.498E+00
DAV:  13    -0.234317108648E+03   -0.10661E+00   -0.69105E-02 47832   0.119E+00    0.209E+00
DAV:  14    -0.234335157492E+03   -0.18049E-01   -0.14569E-02 38496   0.451E-01    0.143E+00
DAV:  15    -0.234346602526E+03   -0.11445E-01   -0.70677E-03 42224   0.501E-01    0.190E+00
DAV:  16    -0.234342806082E+03    0.37964E-02   -0.32960E-03 38456   0.397E-01    0.611E-01
DAV:  17    -0.234345141062E+03   -0.23350E-02   -0.17188E-03 38588   0.242E-01    0.338E-01
DAV:  18    -0.234345166406E+03   -0.25345E-04   -0.47587E-04 40888   0.878E-02    0.381E-01
DAV:  19    -0.234345033368E+03    0.13304E-03   -0.13201E-04 42068   0.675E-02    0.146E-01
DAV:  20    -0.234345159950E+03   -0.12658E-03   -0.52604E-05 36824   0.325E-02    0.656E-02
DAV:  21    -0.234345186711E+03   -0.26762E-04   -0.19521E-05 28508   0.237E-02    0.284E-02
DAV:  22    -0.234345187869E+03   -0.11578E-05   -0.11438E-05 21464   0.155E-02
   4 F= -.23434519E+03 E0= -.23434160E+03  d E =-.215744E+01  mag=     8.1007
       N       E                     dE             d eps       ncg     rms          rms(c)
DAV:   1    -0.234488877638E+03   -0.14369E+00   -0.37701E+01 34808   0.251E+01    0.308E+00
DAV:   2    -0.234779990177E+03   -0.29111E+00   -0.32001E+00 34980   0.503E+00    0.263E+00
DAV:   3    -0.234796959818E+03   -0.16970E-01   -0.13873E-01 47576   0.189E+00    0.829E+00
DAV:   4    -0.234751826647E+03    0.45133E-01   -0.33105E-02 41116   0.126E+00    0.135E+00
DAV:   5    -0.234772237649E+03   -0.20411E-01   -0.18719E-02 42192   0.624E-01    0.145E+00
DAV:   6    -0.234769003867E+03    0.32338E-02   -0.14439E-02 46992   0.591E-01    0.728E-01
DAV:   7    -0.234769034754E+03   -0.30887E-04   -0.52012E-03 45152   0.333E-01    0.374E-01
DAV:   8    -0.234769008898E+03    0.25855E-04   -0.68673E-04 41600   0.147E-01    0.690E-02
DAV:   9    -0.234769049045E+03   -0.40147E-04   -0.17539E-04 44272   0.494E-02    0.130E-01
DAV:  10    -0.234769029588E+03    0.19457E-04   -0.35567E-05 31656   0.345E-02    0.642E-02
DAV:  11    -0.234769030671E+03   -0.10828E-05   -0.20935E-05 26728   0.214E-02
   5 F= -.23476903E+03 E0= -.23476504E+03  d E =-.423843E+00  mag=     8.1161
       N       E                     dE             d eps       ncg     rms          rms(c)
DAV:   1    -0.234466578209E+03    0.30245E+00   -0.50222E+01 35904   0.320E+01    0.485E+00
DAV:   2    -0.235043363845E+03   -0.57679E+00   -0.58077E+00 35488   0.758E+00    0.628E+00
DAV:   3    -0.234997015805E+03    0.46348E-01   -0.40336E-01 41616   0.365E+00    0.247E+00
DAV:   4    -0.234985187600E+03    0.11828E-01   -0.57458E-02 48736   0.127E+00    0.413E+00
DAV:   5    -0.234978434999E+03    0.67526E-02   -0.46437E-02 41664   0.138E+00    0.213E+00
DAV:   6    -0.234976131488E+03    0.23035E-02   -0.20389E-02 45328   0.764E-01    0.151E+00
DAV:   7    -0.234973884156E+03    0.22473E-02   -0.11205E-02 45960   0.580E-01    0.150E+00
DAV:   8    -0.234972659116E+03    0.12250E-02   -0.30188E-03 39520   0.340E-01    0.154E-01
DAV:   9    -0.234973472568E+03   -0.81345E-03   -0.81298E-04 43808   0.101E-01    0.386E-01
DAV:  10    -0.234973374658E+03    0.97910E-04   -0.22656E-04 37552   0.847E-02    0.228E-01
DAV:  11    -0.234973344844E+03    0.29814E-04   -0.66747E-05 40848   0.419E-02    0.224E-02
DAV:  12    -0.234973386943E+03   -0.42099E-04   -0.25605E-05 27392   0.199E-02    0.112E-01
DAV:  13    -0.234973374979E+03    0.11965E-04   -0.67781E-06 24280   0.189E-02    0.457E-02
DAV:  14    -0.234973377132E+03   -0.21533E-05   -0.54559E-06 21488   0.840E-03
   6 F= -.23497338E+03 E0= -.23496886E+03  d E =-.204346E+00  mag=     8.1392
       N       E                     dE             d eps       ncg     rms          rms(c)
DAV:   1    -0.233141833874E+03    0.18315E+01   -0.14811E+02 35904   0.544E+01    0.147E+01
DAV:   2    -0.234809557569E+03   -0.16677E+01   -0.18020E+01 36276   0.131E+01    0.107E+01
DAV:   3    -0.234677580373E+03    0.13198E+00   -0.16536E+00 39640   0.787E+00    0.133E+01
DAV:   4    -0.234669329126E+03    0.82512E-02   -0.11564E+00 41752   0.438E+00    0.571E+00
DAV:   5    -0.234649868328E+03    0.19461E-01   -0.33609E-01 43624   0.253E+00    0.577E+00
DAV:   6    -0.234596767606E+03    0.53101E-01   -0.30646E-01 44200   0.200E+00    0.286E+00
DAV:   7    -0.234596756372E+03    0.11234E-04   -0.14352E-01 48016   0.145E+00    0.359E+00
DAV:   8    -0.234587604153E+03    0.91522E-02   -0.33527E-02 39592   0.105E+00    0.112E+00
DAV:   9    -0.234590393592E+03   -0.27894E-02   -0.24037E-02 50080   0.431E-01    0.133E+00
DAV:  10    -0.234593690671E+03   -0.32971E-02   -0.51169E-03 38712   0.392E-01    0.189E+00
DAV:  11    -0.234589630377E+03    0.40603E-02   -0.23709E-03 38344   0.240E-01    0.120E+00
DAV:  12    -0.234589481498E+03    0.14888E-03   -0.13128E-03 47448   0.197E-01    0.773E-01
DAV:  13    -0.234590114769E+03   -0.63327E-03   -0.98899E-04 35944   0.150E-01    0.693E-01
DAV:  14    -0.234589757169E+03    0.35760E-03   -0.19571E-04 42520   0.783E-02    0.489E-02
DAV:  15    -0.234590043949E+03   -0.28678E-03   -0.91689E-05 35320   0.423E-02    0.232E-01
DAV:  16    -0.234590003743E+03    0.40205E-04   -0.22427E-05 27352   0.349E-02    0.908E-02
DAV:  17    -0.234590019763E+03   -0.16020E-04   -0.18685E-05 25864   0.166E-02    0.112E-01
DAV:  18    -0.234590017571E+03    0.21920E-05   -0.11122E-05 23856   0.196E-02
   7 F= -.23459002E+03 E0= -.23458135E+03  d E =0.383360E+00  mag=     8.3192
       N       E                     dE             d eps       ncg     rms          rms(c)
DAV:   1    -0.234927392319E+03   -0.33737E+00   -0.39721E+01 36368   0.203E+01    0.105E+01
DAV:   2    -0.235154007114E+03   -0.22661E+00   -0.25644E+00 38968   0.427E+00    0.897E+00
DAV:   3    -0.235246605930E+03   -0.92599E-01   -0.13334E+00 40800   0.495E+00    0.858E+00
DAV:   4    -0.235158697416E+03    0.87909E-01   -0.11702E-01 41576   0.278E+00    0.487E+00
DAV:   5    -0.235107416692E+03    0.51281E-01   -0.80843E-02 43096   0.216E+00    0.549E+00
DAV:   6    -0.235091054034E+03    0.16363E-01   -0.87524E-02 42616   0.132E+00    0.195E+00
DAV:   7    -0.235093623577E+03   -0.25695E-02   -0.42838E-02 40952   0.912E-01    0.107E+00
DAV:   8    -0.235093424121E+03    0.19946E-03   -0.38418E-03 40976   0.308E-01    0.292E-01
DAV:   9    -0.235093672945E+03   -0.24882E-03   -0.28970E-03 42216   0.230E-01    0.489E-01
DAV:  10    -0.235093401608E+03    0.27134E-03   -0.71700E-04 41008   0.132E-01    0.233E-01
DAV:  11    -0.235093466396E+03   -0.64788E-04   -0.19070E-04 37600   0.731E-02    0.489E-02
DAV:  12    -0.235093478024E+03   -0.11628E-04   -0.26552E-05 28736   0.251E-02    0.881E-02
DAV:  13    -0.235093472528E+03    0.54959E-05   -0.12336E-05 24560   0.218E-02
   8 F= -.23509347E+03 E0= -.23508733E+03  d E =-.503455E+00  mag=     8.2053
       N       E                     dE             d eps       ncg     rms          rms(c)
DAV:   1    -0.235135752353E+03   -0.42274E-01   -0.25628E+00 34984   0.667E+00    0.134E+00
DAV:   2    -0.235155868612E+03   -0.20116E-01   -0.20285E-01 36852   0.139E+00    0.255E+00
DAV:   3    -0.235154043069E+03    0.18255E-02   -0.14313E-02 41904   0.751E-01    0.171E+00
DAV:   4    -0.235154246601E+03   -0.20353E-03   -0.42187E-03 38704   0.365E-01    0.135E+00
DAV:   5    -0.235151919480E+03    0.23271E-02   -0.29383E-03 46240   0.279E-01    0.324E-01
DAV:   6    -0.235152996628E+03   -0.10771E-02   -0.14614E-03 44568   0.166E-01    0.845E-01
DAV:   7    -0.235152479674E+03    0.51695E-03   -0.56213E-04 37080   0.140E-01    0.444E-01
DAV:   8    -0.235152521676E+03   -0.42003E-04   -0.14836E-04 44656   0.596E-02    0.171E-01
DAV:   9    -0.235152655256E+03   -0.13358E-03   -0.81056E-05 34864   0.493E-02    0.175E-01
DAV:  10    -0.235152623775E+03    0.31481E-04   -0.15888E-05 28232   0.267E-02    0.293E-02
DAV:  11    -0.235152638788E+03   -0.15012E-04   -0.11798E-05 22624   0.127E-02    0.567E-02
DAV:  12    -0.235152638272E+03    0.51539E-06   -0.22668E-06 20344   0.912E-03
   9 F= -.23515264E+03 E0= -.23514682E+03  d E =-.591657E-01  mag=     8.1885
       N       E                     dE             d eps       ncg     rms          rms(c)
DAV:   1    -0.235079517520E+03    0.73121E-01   -0.15088E+01 35904   0.185E+01    0.266E+00
DAV:   2    -0.235203774135E+03   -0.12426E+00   -0.12482E+00 37464   0.342E+00    0.263E+00
DAV:   3    -0.235220468921E+03   -0.16695E-01   -0.77815E-02 43552   0.166E+00    0.305E+00
DAV:   4    -0.235208164837E+03    0.12304E-01   -0.18252E-02 42584   0.906E-01    0.180E+00
DAV:   5    -0.235201642077E+03    0.65228E-02   -0.84168E-03 47224   0.557E-01    0.841E-01
DAV:   6    -0.235202297868E+03   -0.65579E-03   -0.37820E-03 39320   0.293E-01    0.416E-01
DAV:   7    -0.235202252576E+03    0.45292E-04   -0.12856E-03 45880   0.152E-01    0.220E-01
DAV:   8    -0.235202303232E+03   -0.50656E-04   -0.55515E-04 41056   0.109E-01    0.153E-01
DAV:   9    -0.235202280862E+03    0.22370E-04   -0.66866E-05 36744   0.466E-02    0.823E-02
DAV:  10    -0.235202282181E+03   -0.13193E-05   -0.28342E-05 28184   0.281E-02
  10 F= -.23520228E+03 E0= -.23519712E+03  d E =-.496439E-01  mag=     8.1634
       N       E                     dE             d eps       ncg     rms          rms(c)
DAV:   1    -0.235034992722E+03    0.16729E+00   -0.16810E+01 36968   0.196E+01    0.315E+00
DAV:   2    -0.235181731850E+03   -0.14674E+00   -0.14464E+00 38176   0.353E+00    0.142E+00
DAV:   3    -0.235197353731E+03   -0.15622E-01   -0.57010E-02 43056   0.107E+00    0.656E+00
DAV:   4    -0.235167964664E+03    0.29389E-01   -0.16202E-02 38488   0.857E-01    0.131E+00
DAV:   5    -0.235182677816E+03   -0.14713E-01   -0.11697E-02 44576   0.467E-01    0.137E+00
DAV:   6    -0.235183900716E+03   -0.12229E-02   -0.91637E-03 38096   0.431E-01    0.133E+00
DAV:   7    -0.235181689498E+03    0.22112E-02   -0.21739E-03 44472   0.239E-01    0.893E-01
DAV:   8    -0.235181112259E+03    0.57724E-03   -0.75986E-04 46304   0.129E-01    0.324E-01
DAV:   9    -0.235181404304E+03   -0.29204E-03   -0.21366E-04 37472   0.600E-02    0.566E-02
DAV:  10    -0.235181495093E+03   -0.90789E-04   -0.55301E-05 34184   0.443E-02    0.416E-02
DAV:  11    -0.235181498610E+03   -0.35174E-05   -0.16768E-05 26128   0.210E-02
  11 F= -.23518150E+03 E0= -.23517699E+03  d E =0.207836E-01  mag=     8.1393
       N       E                     dE             d eps       ncg     rms          rms(c)
DAV:   1    -0.234923655381E+03    0.25784E+00   -0.36388E+01 36424   0.267E+01    0.435E+00
DAV:   2    -0.235200035893E+03   -0.27638E+00   -0.27095E+00 38036   0.489E+00    0.319E+00
DAV:   3    -0.235228600083E+03   -0.28564E-01   -0.12959E-01 43264   0.223E+00    0.380E+00
DAV:   4    -0.235205114400E+03    0.23486E-01   -0.39068E-02 42064   0.137E+00    0.196E+00
DAV:   5    -0.235194752640E+03    0.10362E-01   -0.15024E-02 46360   0.762E-01    0.133E+00
DAV:   6    -0.235193565161E+03    0.11875E-02   -0.91159E-03 38296   0.481E-01    0.408E-01
DAV:   7    -0.235194140644E+03   -0.57548E-03   -0.22452E-03 43256   0.254E-01    0.599E-01
DAV:   8    -0.235193807425E+03    0.33322E-03   -0.80856E-04 39040   0.158E-01    0.148E-01
DAV:   9    -0.235193983221E+03   -0.17580E-03   -0.20761E-04 37600   0.599E-02    0.302E-01
DAV:  10    -0.235193867557E+03    0.11566E-03   -0.63399E-05 32704   0.518E-02    0.696E-02
DAV:  11    -0.235193901326E+03   -0.33769E-04   -0.38272E-05 31440   0.299E-02    0.919E-02
DAV:  12    -0.235193901706E+03   -0.38066E-06   -0.13746E-05 24896   0.221E-02
  12 F= -.23519390E+03 E0= -.23518902E+03  d E =-.124031E-01  mag=     8.1461
       N       E                     dE             d eps       ncg     rms          rms(c)
DAV:   1    -0.235031714390E+03    0.16219E+00   -0.23359E+01 34816   0.175E+01    0.593E+00
DAV:   2    -0.235148515863E+03   -0.11680E+00   -0.13541E+00 39664   0.339E+00    0.227E+00
DAV:   3    -0.235152907343E+03   -0.43915E-02   -0.88880E-02 43392   0.181E+00    0.292E+00
DAV:   4    -0.235136296569E+03    0.16611E-01   -0.34970E-02 43840   0.129E+00    0.950E-01
DAV:   5    -0.235143181174E+03   -0.68846E-02   -0.10224E-02 46776   0.525E-01    0.437E+00
DAV:   6    -0.235127773763E+03    0.15407E-01   -0.90937E-03 38736   0.654E-01    0.350E-01
DAV:   7    -0.235135664907E+03   -0.78911E-02   -0.20528E-03 37944   0.197E-01    0.768E-01
DAV:   8    -0.235135415050E+03    0.24986E-03   -0.56325E-04 39160   0.154E-01    0.604E-01
DAV:   9    -0.235135029712E+03    0.38534E-03   -0.27751E-04 47328   0.839E-02    0.316E-01
DAV:  10    -0.235135039101E+03   -0.93891E-05   -0.12118E-04 39960   0.502E-02    0.672E-02
DAV:  11    -0.235135122040E+03   -0.82939E-04   -0.29713E-05 27912   0.251E-02    0.149E-01
DAV:  12    -0.235135108998E+03    0.13042E-04   -0.21155E-05 27696   0.286E-02    0.915E-02
DAV:  13    -0.235135103861E+03    0.51363E-05   -0.79732E-06 24904   0.133E-02
  13 F= -.23513510E+03 E0= -.23513119E+03  d E =0.587978E-01  mag=     8.1139
       N       E                     dE             d eps       ncg     rms          rms(c)
DAV:   1    -0.235195230719E+03   -0.60122E-01   -0.90378E+00 36328   0.116E+01    0.334E+00
DAV:   2    -0.235250049145E+03   -0.54818E-01   -0.61122E-01 39176   0.227E+00    0.178E+00
DAV:   3    -0.235253411432E+03   -0.33623E-02   -0.37261E-02 44648   0.105E+00    0.234E+00
DAV:   4    -0.235245080953E+03    0.83305E-02   -0.15983E-02 43584   0.858E-01    0.106E+00
DAV:   5    -0.235249983231E+03   -0.49023E-02   -0.72748E-03 43472   0.390E-01    0.356E+00
DAV:   6    -0.235240167256E+03    0.98160E-02   -0.95442E-03 40904   0.653E-01    0.944E-01
DAV:   7    -0.235245981818E+03   -0.58146E-02   -0.88570E-03 38856   0.388E-01    0.103E+00
DAV:   8    -0.235244520792E+03    0.14610E-02   -0.10328E-03 39192   0.200E-01    0.701E-01
DAV:   9    -0.235244047089E+03    0.47370E-03   -0.27320E-04 47176   0.853E-02    0.311E-01
DAV:  10    -0.235244145543E+03   -0.98454E-04   -0.11123E-04 40248   0.431E-02    0.407E-02
DAV:  11    -0.235244228125E+03   -0.82581E-04   -0.26826E-05 29240   0.250E-02    0.104E-01
DAV:  12    -0.235244221736E+03    0.63884E-05   -0.15038E-05 26400   0.243E-02
  14 F= -.23524422E+03 E0= -.23524016E+03  d E =-.109118E+00  mag=     8.1165
       N       E                     dE             d eps       ncg     rms          rms(c)
DAV:   1    -0.235242318793E+03    0.19093E-02   -0.16740E+00 35848   0.475E+00    0.659E-01
DAV:   2    -0.235249660623E+03   -0.73418E-02   -0.75620E-02 39000   0.848E-01    0.609E-01
DAV:   3    -0.235250503149E+03   -0.84253E-03   -0.36241E-03 42152   0.363E-01    0.988E-01
DAV:   4    -0.235249229843E+03    0.12733E-02   -0.13787E-03 42680   0.265E-01    0.264E-01
DAV:   5    -0.235249485004E+03   -0.25516E-03   -0.52213E-04 44736   0.105E-01    0.516E-01
DAV:   6    -0.235249243182E+03    0.24182E-03   -0.29796E-04 41048   0.106E-01    0.131E-01
DAV:   7    -0.235249307995E+03   -0.64813E-04   -0.84895E-05 38224   0.358E-02    0.490E-02
DAV:   8    -0.235249320738E+03   -0.12744E-04   -0.24841E-05 24880   0.245E-02    0.439E-02
DAV:   9    -0.235249318263E+03    0.24758E-05   -0.67894E-06 20456   0.145E-02
  15 F= -.23524932E+03 E0= -.23524540E+03  d E =-.509653E-02  mag=     8.1147
       N       E                     dE             d eps       ncg     rms          rms(c)
DAV:   1    -0.234388797135E+03    0.86052E+00   -0.16456E+02 35624   0.465E+01    0.669E+00
DAV:   2    -0.235094639300E+03   -0.70584E+00   -0.74056E+00 38576   0.833E+00    0.299E+00
DAV:   3    -0.235090449744E+03    0.41896E-02   -0.30351E-01 40376   0.209E+00    0.258E+00
DAV:   4    -0.235080986205E+03    0.94635E-02   -0.99509E-02 45472   0.135E+00    0.175E+00
DAV:   5    -0.235074733432E+03    0.62528E-02   -0.27074E-02 43392   0.785E-01    0.886E-01
DAV:   6    -0.235074244027E+03    0.48940E-03   -0.10239E-02 40360   0.433E-01    0.453E-01
DAV:   7    -0.235074355681E+03   -0.11165E-03   -0.42444E-03 42800   0.224E-01    0.169E-01
DAV:   8    -0.235074323567E+03    0.32114E-04   -0.76181E-04 41536   0.113E-01    0.104E-01
DAV:   9    -0.235074301373E+03    0.22194E-04   -0.17881E-04 38832   0.532E-02    0.465E-02
DAV:  10    -0.235074295729E+03    0.56439E-05   -0.58851E-05 38456   0.297E-02
  16 F= -.23507430E+03 E0= -.23507396E+03  d E =0.175023E+00  mag=     8.0030
       N       E                     dE             d eps       ncg     rms          rms(c)
DAV:   1    -0.234289312139E+03    0.78499E+00   -0.18896E+02 34688   0.496E+01    0.102E+01
DAV:   2    -0.235137137960E+03   -0.84783E+00   -0.91763E+00 38336   0.925E+00    0.437E+00
DAV:   3    -0.235118131335E+03    0.19007E-01   -0.28446E-01 41440   0.244E+00    0.360E+00
DAV:   4    -0.235102966203E+03    0.15165E-01   -0.93966E-02 44944   0.193E+00    0.341E+00
DAV:   5    -0.235093290539E+03    0.96757E-02   -0.48254E-02 43504   0.126E+00    0.185E+00
DAV:   6    -0.235089580304E+03    0.37102E-02   -0.37669E-02 43656   0.107E+00    0.101E+00
DAV:   7    -0.235089596378E+03   -0.16074E-04   -0.84568E-03 43728   0.440E-01    0.441E-01
DAV:   8    -0.235089611241E+03   -0.14863E-04   -0.18676E-03 41544   0.213E-01    0.368E-01
DAV:   9    -0.235089391109E+03    0.22013E-03   -0.42907E-04 41856   0.123E-01    0.113E-01
DAV:  10    -0.235089375043E+03    0.16066E-04   -0.16886E-04 39800   0.501E-02    0.764E-02
DAV:  11    -0.235089378044E+03   -0.30009E-05   -0.66746E-05 37992   0.366E-02
  17 F= -.23508938E+03 E0= -.23508689E+03  d E =-.150823E-01  mag=     8.0654
       N       E                     dE             d eps       ncg     rms          rms(c)
DAV:   1    -0.234510648912E+03    0.57873E+00   -0.14672E+02 35496   0.440E+01    0.101E+01
DAV:   2    -0.235162268233E+03   -0.65162E+00   -0.70501E+00 37760   0.825E+00    0.363E+00
DAV:   3    -0.235146466179E+03    0.15802E-01   -0.33344E-01 41544   0.261E+00    0.489E+00
DAV:   4    -0.235137348126E+03    0.91181E-02   -0.11276E-01 43096   0.211E+00    0.259E+00
DAV:   5    -0.235133085875E+03    0.42623E-02   -0.70858E-02 44800   0.126E+00    0.215E+00
DAV:   6    -0.235126686134E+03    0.63997E-02   -0.56946E-02 43264   0.914E-01    0.124E+00
DAV:   7    -0.235124305973E+03    0.23802E-02   -0.58745E-03 43792   0.445E-01    0.530E-01
DAV:   8    -0.235124398280E+03   -0.92307E-04   -0.31424E-03 47960   0.216E-01    0.351E-01
DAV:   9    -0.235124359396E+03    0.38884E-04   -0.12860E-03 38872   0.191E-01    0.190E-01
DAV:  10    -0.235124338582E+03    0.20814E-04   -0.20170E-04 42280   0.757E-02    0.634E-02
DAV:  11    -0.235124346171E+03   -0.75893E-05   -0.56741E-05 36040   0.339E-02
  18 F= -.23512435E+03 E0= -.23512201E+03  d E =-.349681E-01  mag=     8.0600
       N       E                     dE             d eps       ncg     rms          rms(c)
DAV:   1    -0.234802806954E+03    0.32153E+00   -0.98999E+01 35784   0.347E+01    0.956E+00
DAV:   2    -0.235218048677E+03   -0.41524E+00   -0.45114E+00 38808   0.648E+00    0.545E+00
DAV:   3    -0.235275445105E+03   -0.57396E-01   -0.77461E-01 41928   0.484E+00    0.641E+00
DAV:   4    -0.235219538284E+03    0.55907E-01   -0.11783E-01 43424   0.235E+00    0.278E+00
DAV:   5    -0.235185432046E+03    0.34106E-01   -0.36140E-02 43952   0.139E+00    0.178E+00
DAV:   6    -0.235177372892E+03    0.80592E-02   -0.41383E-02 47680   0.101E+00    0.141E+00
DAV:   7    -0.235175821808E+03    0.15511E-02   -0.13579E-02 38696   0.526E-01    0.664E-01
DAV:   8    -0.235176586461E+03   -0.76465E-03   -0.38499E-03 46304   0.344E-01    0.690E-01
DAV:   9    -0.235175887240E+03    0.69922E-03   -0.19409E-03 40472   0.240E-01    0.235E-01
DAV:  10    -0.235175892681E+03   -0.54408E-05   -0.46258E-04 40448   0.905E-02    0.672E-02
DAV:  11    -0.235175916665E+03   -0.23984E-04   -0.10606E-04 38192   0.509E-02    0.263E-02
DAV:  12    -0.235175920594E+03   -0.39285E-05   -0.22371E-05 27416   0.201E-02
  19 F= -.23517592E+03 E0= -.23517301E+03  d E =-.515744E-01  mag=     8.0772
       N       E                     dE             d eps       ncg     rms          rms(c)
DAV:   1    -0.234996684436E+03    0.17923E+00   -0.79345E+01 35472   0.323E+01    0.493E+00
DAV:   2    -0.235317117622E+03   -0.32043E+00   -0.34849E+00 37612   0.592E+00    0.245E+00
DAV:   3    -0.235311939671E+03    0.51780E-02   -0.13765E-01 40776   0.164E+00    0.206E+00
DAV:   4    -0.235307891865E+03    0.40478E-02   -0.57090E-02 45672   0.106E+00    0.160E+00
DAV:   5    -0.235304195101E+03    0.36968E-02   -0.14690E-02 44216   0.675E-01    0.110E+00
DAV:   6    -0.235304219755E+03   -0.24654E-04   -0.94465E-03 44392   0.595E-01    0.727E-01
DAV:   7    -0.235303573670E+03    0.64608E-03   -0.27192E-03 41776   0.339E-01    0.158E-01
DAV:   8    -0.235303611987E+03   -0.38317E-04   -0.66747E-04 44800   0.957E-02    0.138E-01
DAV:   9    -0.235303581103E+03    0.30884E-04   -0.20737E-04 38984   0.754E-02    0.542E-02
DAV:  10    -0.235303572188E+03    0.89155E-05   -0.40447E-05 34584   0.254E-02
  20 F= -.23530357E+03 E0= -.23530196E+03  d E =-.127652E+00  mag=     8.0390
       N       E                     dE             d eps       ncg     rms          rms(c)
DAV:   1    -0.235177617263E+03    0.12596E+00   -0.18273E+01 35840   0.147E+01    0.352E+00
DAV:   2    -0.235255291712E+03   -0.77674E-01   -0.86392E-01 39432   0.273E+00    0.133E+00
DAV:   3    -0.235250096443E+03    0.51953E-02   -0.31309E-02 39976   0.760E-01    0.850E-01
DAV:   4    -0.235249308243E+03    0.78820E-03   -0.13094E-02 44640   0.567E-01    0.731E-01
DAV:   5    -0.235248446022E+03    0.86222E-03   -0.49260E-03 44904   0.360E-01    0.285E-01
DAV:   6    -0.235248375563E+03    0.70459E-04   -0.84292E-04 41360   0.150E-01    0.141E-01
DAV:   7    -0.235248369174E+03    0.63891E-05   -0.37579E-04 43984   0.912E-02    0.104E-01
DAV:   8    -0.235248361351E+03    0.78225E-05   -0.76338E-05 36472   0.448E-02
  21 F= -.23524836E+03 E0= -.23524731E+03  d E =0.552108E-01  mag=     8.0230
       N       E                     dE             d eps       ncg     rms          rms(c)
DAV:   1    -0.235263518476E+03   -0.15149E-01   -0.12351E+01 35872   0.120E+01    0.266E+00
DAV:   2    -0.235312336391E+03   -0.48818E-01   -0.54388E-01 39000   0.221E+00    0.105E+00
DAV:   3    -0.235309471521E+03    0.28649E-02   -0.16907E-02 40200   0.560E-01    0.776E-01
DAV:   4    -0.235309154566E+03    0.31696E-03   -0.62864E-03 44104   0.468E-01    0.719E-01
DAV:   5    -0.235308220553E+03    0.93401E-03   -0.27631E-03 43664   0.346E-01    0.316E-01
DAV:   6    -0.235308193426E+03    0.27127E-04   -0.11729E-03 43496   0.158E-01    0.168E-01
DAV:   7    -0.235308185083E+03    0.83435E-05   -0.37465E-04 42744   0.959E-02    0.867E-02
DAV:   8    -0.235308183179E+03    0.19034E-05   -0.74239E-05 37360   0.375E-02
  22 F= -.23530818E+03 E0= -.23530660E+03  d E =-.598218E-01  mag=     8.0377
       N       E                     dE             d eps       ncg     rms          rms(c)
DAV:   1    -0.235304466437E+03    0.37186E-02   -0.30004E-01 35536   0.227E+00    0.289E-01
DAV:   2    -0.235306220468E+03   -0.17540E-02   -0.17776E-02 37056   0.404E-01    0.134E-01
DAV:   3    -0.235306254608E+03   -0.34140E-04   -0.59332E-04 41184   0.109E-01    0.145E-01
DAV:   4    -0.235306227219E+03    0.27389E-04   -0.14538E-04 39192   0.730E-02    0.749E-02
DAV:   5    -0.235306215232E+03    0.11987E-04   -0.38027E-05 35160   0.351E-02    0.255E-02
DAV:   6    -0.235306214680E+03    0.55180E-06   -0.13671E-05 22232   0.154E-02
  23 F= -.23530621E+03 E0= -.23530473E+03  d E =0.196850E-02  mag=     8.0354
       N       E                     dE             d eps       ncg     rms          rms(c)
DAV:   1    -0.235010892078E+03    0.29532E+00   -0.49259E+01 35496   0.281E+01    0.247E+00
DAV:   2    -0.235271333424E+03   -0.26044E+00   -0.26146E+00 35708   0.492E+00    0.128E+00
DAV:   3    -0.235275978946E+03   -0.46455E-02   -0.72114E-02 40280   0.927E-01    0.761E-01
DAV:   4    -0.235274354391E+03    0.16246E-02   -0.92737E-03 45784   0.465E-01    0.703E-01
DAV:   5    -0.235273272475E+03    0.10819E-02   -0.40410E-03 44104   0.377E-01    0.362E-01
DAV:   6    -0.235273043388E+03    0.22909E-03   -0.16589E-03 39808   0.219E-01    0.106E-01
DAV:   7    -0.235273109085E+03   -0.65697E-04   -0.49367E-04 40720   0.765E-02    0.653E-02
DAV:   8    -0.235273102686E+03    0.63997E-05   -0.40477E-05 33104   0.342E-02
  24 F= -.23527310E+03 E0= -.23527216E+03  d E =0.331120E-01  mag=     8.0212
       N       E                     dE             d eps       ncg     rms          rms(c)
DAV:   1    -0.233960239547E+03    0.13129E+01   -0.24708E+02 35000   0.562E+01    0.750E+00
DAV:   2    -0.235055888641E+03   -0.10956E+01   -0.11429E+01 39072   0.103E+01    0.353E+00
DAV:   3    -0.235044051201E+03    0.11837E-01   -0.29920E-01 39856   0.240E+00    0.264E+00
DAV:   4    -0.235033976641E+03    0.10075E-01   -0.52215E-02 44464   0.116E+00    0.200E+00
DAV:   5    -0.235026831912E+03    0.71447E-02   -0.25766E-02 39736   0.737E-01    0.110E+00
DAV:   6    -0.235027054949E+03   -0.22304E-03   -0.26787E-02 45336   0.718E-01    0.987E-01
DAV:   7    -0.235026255831E+03    0.79912E-03   -0.13582E-02 43552   0.443E-01    0.244E-01
DAV:   8    -0.235026349332E+03   -0.93501E-04   -0.61878E-04 38672   0.105E-01    0.948E-02
DAV:   9    -0.235026313514E+03    0.35818E-04   -0.19733E-04 40664   0.511E-02    0.609E-02
DAV:  10    -0.235026307351E+03    0.61627E-05   -0.10179E-04 38480   0.427E-02    0.296E-02
DAV:  11    -0.235026308023E+03   -0.67184E-06   -0.21585E-05 25024   0.199E-02
  25 F= -.23502631E+03 E0= -.23502630E+03  d E =0.246795E+00  mag=     8.0001
       N       E                     dE             d eps       ncg     rms          rms(c)
DAV:   1    -0.234825843736E+03    0.20046E+00   -0.95182E+01 35512   0.371E+01    0.637E+00
DAV:   2    -0.235290575769E+03   -0.46473E+00   -0.48191E+00 37964   0.669E+00    0.238E+00
DAV:   3    -0.235288335707E+03    0.22401E-02   -0.16955E-01 40880   0.203E+00    0.212E+00
DAV:   4    -0.235280569410E+03    0.77663E-02   -0.31945E-02 43368   0.108E+00    0.891E-01
DAV:   5    -0.235278030816E+03    0.25386E-02   -0.84084E-03 41136   0.367E-01    0.588E-01
DAV:   6    -0.235277722413E+03    0.30840E-03   -0.52524E-03 43304   0.435E-01    0.456E-01
DAV:   7    -0.235277558238E+03    0.16417E-03   -0.13083E-03 42856   0.215E-01    0.151E-01
DAV:   8    -0.235277533700E+03    0.24537E-04   -0.43804E-04 43776   0.962E-02    0.112E-01
DAV:   9    -0.235277526211E+03    0.74896E-05   -0.15506E-04 36928   0.558E-02    0.437E-02
DAV:  10    -0.235277525071E+03    0.11397E-05   -0.37985E-05 35088   0.263E-02
  26 F= -.23527753E+03 E0= -.23527666E+03  d E =-.251217E+00  mag=     8.0182
       N       E                     dE             d eps       ncg     rms          rms(c)
DAV:   1    -0.235249165757E+03    0.28360E-01   -0.73983E+00 36048   0.930E+00    0.233E+00
DAV:   2    -0.235277462592E+03   -0.28297E-01   -0.32130E-01 39992   0.172E+00    0.110E+00
DAV:   3    -0.235275634458E+03    0.18281E-02   -0.16501E-02 40096   0.654E-01    0.834E-01
DAV:   4    -0.235274926923E+03    0.70753E-03   -0.52162E-03 43968   0.435E-01    0.457E-01
DAV:   5    -0.235274703978E+03    0.22295E-03   -0.13490E-03 42968   0.199E-01    0.185E-01
DAV:   6    -0.235274723573E+03   -0.19595E-04   -0.34433E-04 39416   0.806E-02    0.728E-02
DAV:   7    -0.235274715009E+03    0.85635E-05   -0.71715E-05 38024   0.417E-02
  27 F= -.23527472E+03 E0= -.23527415E+03  d E =0.281006E-02  mag=     8.0114
       N       E                     dE             d eps       ncg     rms          rms(c)
DAV:   1    -0.235273791362E+03    0.93221E-03   -0.27591E+00 34920   0.549E+00    0.120E+00
DAV:   2    -0.235283978678E+03   -0.10187E-01   -0.11583E-01 39632   0.103E+00    0.639E-01
DAV:   3    -0.235283368924E+03    0.60975E-03   -0.51853E-03 40216   0.348E-01    0.502E-01
DAV:   4    -0.235283166673E+03    0.20225E-03   -0.19766E-03 44736   0.258E-01    0.366E-01
DAV:   5    -0.235282977080E+03    0.18959E-03   -0.67677E-04 44088   0.155E-01    0.164E-01
DAV:   6    -0.235283002655E+03   -0.25575E-04   -0.25657E-04 40888   0.740E-02    0.731E-02
DAV:   7    -0.235282998320E+03    0.43345E-05   -0.88162E-05 33616   0.490E-02
  28 F= -.23528300E+03 E0= -.23528208E+03  d E =-.828331E-02  mag=     8.0202
       N       E                     dE             d eps       ncg     rms          rms(c)
DAV:   1    -0.235278914986E+03    0.40877E-02   -0.99599E-01 35336   0.325E+00    0.364E-01
DAV:   2    -0.235281839495E+03   -0.29245E-02   -0.31332E-02 38560   0.546E-01    0.185E-01
DAV:   3    -0.235281786086E+03    0.53409E-04   -0.85020E-04 40032   0.124E-01    0.126E-01
DAV:   4    -0.235281760850E+03    0.25235E-04   -0.22855E-04 46448   0.696E-02    0.106E-01
DAV:   5    -0.235281744987E+03    0.15863E-04   -0.13332E-04 39240   0.562E-02    0.629E-02
DAV:   6    -0.235281746202E+03   -0.12150E-05   -0.29954E-05 29192   0.290E-02
  29 F= -.23528175E+03 E0= -.23528092E+03  d E =0.125212E-02  mag=     8.0182
       N       E                     dE             d eps       ncg     rms          rms(c)
DAV:   1    -0.235021445376E+03    0.26030E+00   -0.77911E+01 34928   0.292E+01    0.241E+00
DAV:   2    -0.235268039855E+03   -0.24659E+00   -0.25575E+00 36452   0.490E+00    0.121E+00
DAV:   3    -0.235266144891E+03    0.18950E-02   -0.57567E-02 39544   0.928E-01    0.796E-01
DAV:   4    -0.235263740270E+03    0.24046E-02   -0.99201E-03 43376   0.480E-01    0.716E-01
DAV:   5    -0.235262280171E+03    0.14601E-02   -0.48013E-03 45512   0.364E-01    0.369E-01
DAV:   6    -0.235262207524E+03    0.72647E-04   -0.21208E-03 38040   0.197E-01    0.155E-01
DAV:   7    -0.235262259758E+03   -0.52234E-04   -0.63725E-04 41200   0.107E-01    0.981E-02
DAV:   8    -0.235262262302E+03   -0.25437E-05   -0.11127E-04 38368   0.520E-02    0.501E-02
DAV:   9    -0.235262257978E+03    0.43233E-05   -0.26619E-05 27472   0.266E-02
  30 F= -.23526226E+03 E0= -.23526144E+03  d E =0.194882E-01  mag=     8.0178
       N       E                     dE             d eps       ncg     rms          rms(c)
DAV:   1    -0.227602881573E+03    0.76594E+01   -0.39888E+02 35192   0.606E+01    0.435E+01
DAV:   2    -0.229230224098E+03   -0.16273E+01   -0.22451E+01 40024   0.131E+01    0.103E+01
DAV:   3    -0.228840829695E+03    0.38939E+00   -0.12779E+00 40416   0.546E+00    0.861E+00
DAV:   4    -0.228811996618E+03    0.28833E-01   -0.12108E+00 42688   0.467E+00    0.559E+00
DAV:   5    -0.228742476592E+03    0.69520E-01   -0.14660E-01 40896   0.223E+00    0.273E+00
DAV:   6    -0.228733140405E+03    0.93362E-02   -0.57975E-02 43760   0.101E+00    0.136E+00
DAV:   7    -0.228731719215E+03    0.14212E-02   -0.19703E-02 44832   0.536E-01    0.612E-01
DAV:   8    -0.228731700999E+03    0.18217E-04   -0.46711E-03 40008   0.296E-01    0.280E-01
DAV:   9    -0.228731802160E+03   -0.10116E-03   -0.16331E-03 39528   0.223E-01    0.242E-01
DAV:  10    -0.228731775009E+03    0.27151E-04   -0.32903E-04 42496   0.936E-02    0.703E-02
DAV:  11    -0.228731780107E+03   -0.50982E-05   -0.71271E-05 35936   0.384E-02
  31 F= -.22873178E+03 E0= -.22873156E+03  d E =0.653048E+01  mag=     8.0037
       N       E                     dE             d eps       ncg     rms          rms(c)
DAV:   1    -0.233832377738E+03   -0.51006E+01   -0.21234E+02 33672   0.356E+01    0.271E+01
DAV:   2    -0.234867384558E+03   -0.10350E+01   -0.14180E+01 40656   0.903E+00    0.205E+01
DAV:   3    -0.234894443920E+03   -0.27059E-01   -0.52254E+00 45136   0.691E+00    0.187E+01
DAV:   4    -0.234687528190E+03    0.20692E+00   -0.41356E-01 43168   0.498E+00    0.151E+01
DAV:   5    -0.235425235550E+03   -0.73771E+00   -0.80603E+00 45736   0.581E+00    0.249E+01
DAV:   6    -0.234814213334E+03    0.61102E+00   -0.65465E+00 44576   0.613E+00    0.195E+01
DAV:   7    -0.234490690319E+03    0.32352E+00   -0.33070E-01 42560   0.396E+00    0.557E+00
DAV:   8    -0.234580634910E+03   -0.89945E-01   -0.16029E-01 41272   0.245E+00    0.322E+00
DAV:   9    -0.234566260586E+03    0.14374E-01   -0.32062E-02 45904   0.954E-01    0.245E+00
DAV:  10    -0.234556546522E+03    0.97141E-02   -0.17239E-02 47832   0.627E-01    0.177E+00
DAV:  11    -0.234551241168E+03    0.53054E-02   -0.71306E-03 42640   0.330E-01    0.140E+00
DAV:  12    -0.234546449198E+03    0.47920E-02   -0.70854E-03 44928   0.329E-01    0.770E-01
DAV:  13    -0.234545259702E+03    0.11895E-02   -0.52576E-03 45432   0.212E-01    0.334E-01
DAV:  14    -0.234545215121E+03    0.44581E-04   -0.18284E-03 44848   0.127E-01    0.185E-01
DAV:  15    -0.234545286652E+03   -0.71531E-04   -0.39581E-04 40520   0.628E-02    0.164E-01
DAV:  16    -0.234545254188E+03    0.32464E-04   -0.20088E-04 38896   0.489E-02    0.504E-02
DAV:  17    -0.234545259435E+03   -0.52466E-05   -0.35469E-05 26416   0.271E-02
  32 F= -.23454526E+03 E0= -.23454259E+03  d E =-.581348E+01  mag=     8.0493
       N       E                     dE             d eps       ncg     rms          rms(c)
DAV:   1    -0.234905978504E+03   -0.36072E+00   -0.14438E+01 34168   0.112E+01    0.475E+00
DAV:   2    -0.234969392888E+03   -0.63414E-01   -0.82016E-01 39768   0.252E+00    0.293E+00
DAV:   3    -0.234972965614E+03   -0.35727E-02   -0.94017E-02 44144   0.162E+00    0.337E+00
DAV:   4    -0.234959644953E+03    0.13321E-01   -0.62619E-02 43504   0.127E+00    0.202E+00
DAV:   5    -0.234956926972E+03    0.27180E-02   -0.53265E-02 44096   0.879E-01    0.182E+00
DAV:   6    -0.234964995421E+03   -0.80684E-02   -0.23492E-02 46176   0.708E-01    0.481E+00
DAV:   7    -0.234946309764E+03    0.18686E-01   -0.23317E-02 41640   0.101E+00    0.116E+00
DAV:   8    -0.234955171040E+03   -0.88613E-02   -0.56892E-03 36136   0.412E-01    0.940E-01
DAV:   9    -0.234954139341E+03    0.10317E-02   -0.16406E-03 43824   0.170E-01    0.658E-01
DAV:  10    -0.234953375581E+03    0.76376E-03   -0.43108E-04 44640   0.109E-01    0.532E-01
DAV:  11    -0.234952925803E+03    0.44978E-03   -0.23793E-04 47112   0.802E-02    0.297E-01
DAV:  12    -0.234952882988E+03    0.42815E-04   -0.12188E-04 40568   0.474E-02    0.669E-02
DAV:  13    -0.234952932557E+03   -0.49568E-04   -0.31672E-05 30512   0.254E-02    0.271E-02
DAV:  14    -0.234952944379E+03   -0.11822E-04   -0.15902E-05 23952   0.145E-02    0.684E-02
DAV:  15    -0.234952938499E+03    0.58796E-05   -0.71680E-06 22000   0.167E-02
  33 F= -.23495294E+03 E0= -.23494965E+03  d E =-.407679E+00  mag=     8.0610
       N       E                     dE             d eps       ncg     rms          rms(c)
DAV:   1    -0.235096994185E+03   -0.14405E+00   -0.13402E+01 33864   0.113E+01    0.440E+00
DAV:   2    -0.235157370376E+03   -0.60376E-01   -0.76030E-01 40952   0.265E+00    0.374E+00
DAV:   3    -0.235165919910E+03   -0.85495E-02   -0.17665E-01 40664   0.218E+00    0.349E+00
DAV:   4    -0.235149624267E+03    0.16296E-01   -0.38449E-02 43544   0.119E+00    0.177E+00
DAV:   5    -0.235142724968E+03    0.68993E-02   -0.18279E-02 45608   0.853E-01    0.110E+00
DAV:   6    -0.235146605783E+03   -0.38808E-02   -0.25237E-02 47120   0.619E-01    0.261E+00
DAV:   7    -0.235140261295E+03    0.63445E-02   -0.88938E-03 41856   0.568E-01    0.713E-01
DAV:   8    -0.235142120071E+03   -0.18588E-02   -0.73688E-03 44864   0.265E-01    0.425E-01
DAV:   9    -0.235142032191E+03    0.87880E-04   -0.94575E-04 41808   0.163E-01    0.147E-01
DAV:  10    -0.235142045354E+03   -0.13162E-04   -0.13938E-04 39144   0.503E-02    0.142E-01
DAV:  11    -0.235142019672E+03    0.25682E-04   -0.68040E-05 34184   0.476E-02    0.493E-02
DAV:  12    -0.235142028561E+03   -0.88884E-05   -0.35062E-05 28928   0.249E-02
  34 F= -.23514203E+03 E0= -.23513949E+03  d E =-.189090E+00  mag=     8.0526
       N       E                     dE             d eps       ncg     rms          rms(c)
DAV:   1    -0.235219870640E+03   -0.77851E-01   -0.19686E+00 35088   0.433E+00    0.163E+00
DAV:   2    -0.235228086535E+03   -0.82159E-02   -0.10470E-01 40288   0.964E-01    0.982E-01
DAV:   3    -0.235228962607E+03   -0.87607E-03   -0.15018E-02 40864   0.726E-01    0.119E+00
DAV:   4    -0.235226510331E+03    0.24523E-02   -0.61316E-03 42992   0.477E-01    0.336E-01
DAV:   5    -0.235226464420E+03    0.45910E-04   -0.16818E-03 44560   0.201E-01    0.365E-01
DAV:   6    -0.235226318640E+03    0.14578E-03   -0.10241E-03 43120   0.156E-01    0.146E-01
DAV:   7    -0.235226318659E+03   -0.18899E-07   -0.15481E-04 38520   0.599E-02    0.584E-02
DAV:   8    -0.235226318477E+03    0.18183E-06   -0.48941E-05 32744   0.300E-02
  35 F= -.23522632E+03 E0= -.23522463E+03  d E =-.842899E-01  mag=     8.0409
       N       E                     dE             d eps       ncg     rms          rms(c)
DAV:   1    -0.235268671138E+03   -0.42352E-01   -0.51753E+00 36704   0.650E+00    0.289E+00
DAV:   2    -0.235288509127E+03   -0.19838E-01   -0.25136E-01 39584   0.129E+00    0.107E+00
DAV:   3    -0.235284710863E+03    0.37983E-02   -0.12214E-02 40320   0.426E-01    0.516E-01
DAV:   4    -0.235284369103E+03    0.34176E-03   -0.43824E-03 41496   0.303E-01    0.383E-01
DAV:   5    -0.235284164098E+03    0.20500E-03   -0.11769E-03 45272   0.192E-01    0.188E-01
DAV:   6    -0.235284130113E+03    0.33986E-04   -0.21673E-04 41512   0.746E-02    0.104E-01
DAV:   7    -0.235284124789E+03    0.53233E-05   -0.14074E-04 39248   0.605E-02    0.928E-02
DAV:   8    -0.235284115324E+03    0.94651E-05   -0.10341E-04 36544   0.508E-02    0.365E-02
DAV:   9    -0.235284115657E+03   -0.33256E-06   -0.15020E-05 24712   0.187E-02
  36 F= -.23528412E+03 E0= -.23528323E+03  d E =-.577972E-01  mag=     8.0197
       N       E                     dE             d eps       ncg     rms          rms(c)
DAV:   1    -0.235286285218E+03   -0.21699E-02   -0.75335E-02 36596   0.970E-01    0.252E-01
DAV:   2    -0.235286560309E+03   -0.27509E-03   -0.37632E-03 39584   0.191E-01    0.144E-01
DAV:   3    -0.235286543705E+03    0.16604E-04   -0.35010E-04 41224   0.816E-02    0.106E-01
DAV:   4    -0.235286534023E+03    0.96818E-05   -0.15721E-04 38896   0.659E-02    0.792E-02
DAV:   5    -0.235286527127E+03    0.68963E-05   -0.29382E-05 30720   0.342E-02
  37 F= -.23528653E+03 E0= -.23528565E+03  d E =-.241147E-02  mag=     8.0194
       N       E                     dE             d eps       ncg     rms          rms(c)
DAV:   1    -0.235286915166E+03   -0.38114E-03   -0.59146E-01 36312   0.287E+00    0.621E-01
DAV:   2    -0.235289150628E+03   -0.22355E-02   -0.29148E-02 39544   0.528E-01    0.359E-01
DAV:   3    -0.235289090603E+03    0.60026E-04   -0.23248E-03 40448   0.196E-01    0.239E-01
DAV:   4    -0.235289054103E+03    0.36499E-04   -0.96663E-04 45120   0.153E-01    0.202E-01
DAV:   5    -0.235289015345E+03    0.38758E-04   -0.24541E-04 43968   0.881E-02    0.691E-02
DAV:   6    -0.235289013297E+03    0.20479E-05   -0.38794E-05 32240   0.367E-02
  38 F= -.23528901E+03 E0= -.23528815E+03  d E =-.248617E-02  mag=     8.0183
       N       E                     dE             d eps       ncg     rms          rms(c)
DAV:   1    -0.235288576730E+03    0.43861E-03   -0.13255E-01 36236   0.153E+00    0.204E-01
DAV:   2    -0.235289270320E+03   -0.69359E-03   -0.75259E-03 38848   0.268E-01    0.884E-02
DAV:   3    -0.235289287390E+03   -0.17070E-04   -0.34885E-04 39880   0.727E-02    0.654E-02
DAV:   4    -0.235289278858E+03    0.85323E-05   -0.52312E-05 35936   0.393E-02
  39 F= -.23528928E+03 E0= -.23528841E+03  d E =-.265561E-03  mag=     8.0181
       N       E                     dE             d eps       ncg     rms          rms(c)
DAV:   1    -0.235284745564E+03    0.45418E-02   -0.77657E-01 35496   0.336E+00    0.378E-01
DAV:   2    -0.235287895624E+03   -0.31501E-02   -0.34014E-02 38376   0.581E-01    0.177E-01
DAV:   3    -0.235287917495E+03   -0.21871E-04   -0.12873E-03 40016   0.129E-01    0.110E-01
DAV:   4    -0.235287883559E+03    0.33936E-04   -0.22258E-04 44096   0.627E-02    0.866E-02
DAV:   5    -0.235287873082E+03    0.10477E-04   -0.89882E-05 39368   0.446E-02    0.380E-02
DAV:   6    -0.235287872571E+03    0.51084E-06   -0.25354E-05 26632   0.262E-02
  40 F= -.23528787E+03 E0= -.23528712E+03  d E =0.140629E-02  mag=     8.0156
       N       E                     dE             d eps       ncg     rms          rms(c)
DAV:   1    -0.235276776019E+03    0.11097E-01   -0.18896E+00 35408   0.493E+00    0.555E-01
DAV:   2    -0.235283728142E+03   -0.69521E-02   -0.71934E-02 37028   0.831E-01    0.214E-01
DAV:   3    -0.235283674892E+03    0.53251E-04   -0.18723E-03 40088   0.159E-01    0.137E-01
DAV:   4    -0.235283614774E+03    0.60118E-04   -0.36124E-04 46520   0.862E-02    0.108E-01
DAV:   5    -0.235283586665E+03    0.28109E-04   -0.18985E-04 42896   0.634E-02    0.567E-02
DAV:   6    -0.235283588195E+03   -0.15301E-05   -0.40141E-05 32328   0.288E-02
  41 F= -.23528359E+03 E0= -.23528290E+03  d E =0.428438E-02  mag=     8.0147
       N       E                     dE             d eps       ncg     rms          rms(c)
DAV:   1    -0.235282360740E+03    0.12259E-02   -0.23496E-01 35088   0.166E+00    0.255E-01
DAV:   2    -0.235283125053E+03   -0.76431E-03   -0.85919E-03 38352   0.286E-01    0.990E-02
DAV:   3    -0.235283102857E+03    0.22196E-04   -0.28193E-04 40472   0.683E-02    0.642E-02
DAV:   4    -0.235283096121E+03    0.67359E-05   -0.81749E-05 38896   0.412E-02
  42 F= -.23528310E+03 E0= -.23528234E+03  d E =0.492074E-03  mag=     8.0165
       N       E                     dE             d eps       ncg     rms          rms(c)
DAV:   1    -0.235280962374E+03    0.21405E-02   -0.41127E-01 34272   0.210E+00    0.296E-01
DAV:   2    -0.235282175796E+03   -0.12134E-02   -0.13715E-02 38696   0.360E-01    0.117E-01
DAV:   3    -0.235282139420E+03    0.36376E-04   -0.45809E-04 40976   0.921E-02    0.966E-02
DAV:   4    -0.235282124945E+03    0.14475E-04   -0.12708E-04 39248   0.580E-02    0.562E-02
DAV:   5    -0.235282116927E+03    0.80178E-05   -0.40363E-05 34224   0.301E-02
  43 F= -.23528212E+03 E0= -.23528137E+03  d E =0.979194E-03  mag=     8.0159
       N       E                     dE             d eps       ncg     rms          rms(c)
DAV:   1    -0.235262775010E+03    0.19350E-01   -0.51665E+00 35008   0.716E+00    0.626E-01
DAV:   2    -0.235276385620E+03   -0.13611E-01   -0.14560E-01 35752   0.113E+00    0.277E-01
DAV:   3    -0.235276036458E+03    0.34916E-03   -0.28734E-03 40456   0.194E-01    0.176E-01
DAV:   4    -0.235275881724E+03    0.15473E-03   -0.71134E-04 46768   0.126E-01    0.160E-01
DAV:   5    -0.235275833916E+03    0.47808E-04   -0.32204E-04 44992   0.911E-02    0.584E-02
DAV:   6    -0.235275836497E+03   -0.25815E-05   -0.75418E-05 40360   0.390E-02
  44 F= -.23527584E+03 E0= -.23527518E+03  d E =0.628043E-02  mag=     8.0139
       N       E                     dE             d eps       ncg     rms          rms(c)
DAV:   1    -0.234770131348E+03    0.50570E+00   -0.16726E+02 35088   0.404E+01    0.321E+00
DAV:   2    -0.235241704497E+03   -0.47157E+00   -0.50409E+00 35508   0.660E+00    0.181E+00
DAV:   3    -0.235233161702E+03    0.85428E-02   -0.98689E-02 40752   0.126E+00    0.132E+00
DAV:   4    -0.235228661718E+03    0.45000E-02   -0.24385E-02 44936   0.784E-01    0.113E+00
DAV:   5    -0.235224884299E+03    0.37774E-02   -0.11139E-02 44512   0.547E-01    0.556E-01
DAV:   6    -0.235224576956E+03    0.30734E-03   -0.45711E-03 39504   0.278E-01    0.232E-01
DAV:   7    -0.235224703778E+03   -0.12682E-03   -0.14889E-03 44896   0.165E-01    0.176E-01
DAV:   8    -0.235224723781E+03   -0.20003E-04   -0.33806E-04 39280   0.892E-02    0.778E-02
DAV:   9    -0.235224714662E+03    0.91188E-05   -0.36855E-05 31520   0.371E-02
  45 F= -.23522471E+03 E0= -.23522354E+03  d E =0.511218E-01  mag=     8.0262
       N       E                     dE             d eps       ncg     rms          rms(c)
DAV:   1    -0.235174306340E+03    0.50417E-01   -0.66216E+00 35160   0.115E+01    0.200E+00
DAV:   2    -0.235224861965E+03   -0.50556E-01   -0.52714E-01 38576   0.221E+00    0.936E-01
DAV:   3    -0.235225477858E+03   -0.61589E-03   -0.34523E-02 41864   0.806E-01    0.863E-01
DAV:   4    -0.235224285411E+03    0.11924E-02   -0.88232E-03 45056   0.436E-01    0.376E-01
DAV:   5    -0.235223877879E+03    0.40753E-03   -0.14617E-03 39624   0.156E-01    0.162E-01
DAV:   6    -0.235223832618E+03    0.45261E-04   -0.40244E-04 42424   0.832E-02    0.912E-02
DAV:   7    -0.235223826843E+03    0.57751E-05   -0.12225E-04 41224   0.631E-02    0.674E-02
DAV:   8    -0.235223820228E+03    0.66151E-05   -0.32704E-05 29432   0.331E-02
  46 F= -.23522382E+03 E0= -.23522304E+03  d E =0.894434E-03  mag=     8.0167
       N       E                     dE             d eps       ncg     rms          rms(c)
DAV:   1    -0.235151704580E+03    0.72122E-01   -0.38915E+01 35096   0.202E+01    0.248E+00
DAV:   2    -0.235269080842E+03   -0.11738E+00   -0.12532E+00 37080   0.338E+00    0.103E+00
DAV:   3    -0.235266580307E+03    0.25005E-02   -0.33747E-02 40616   0.774E-01    0.764E-01
DAV:   4    -0.235265540600E+03    0.10397E-02   -0.12022E-02 45080   0.493E-01    0.589E-01
DAV:   5    -0.235264744207E+03    0.79639E-03   -0.32964E-03 42280   0.265E-01    0.238E-01
DAV:   6    -0.235264777194E+03   -0.32987E-04   -0.82205E-04 39760   0.120E-01    0.122E-01
DAV:   7    -0.235264794698E+03   -0.17504E-04   -0.25662E-04 44968   0.856E-02    0.933E-02
DAV:   8    -0.235264795358E+03   -0.65981E-06   -0.61290E-05 36352   0.447E-02
  47 F= -.23526480E+03 E0= -.23526411E+03  d E =-.409751E-01  mag=     8.0151
       N       E                     dE             d eps       ncg     rms          rms(c)
DAV:   1    -0.235262322168E+03    0.24725E-02   -0.31692E-01 36720   0.253E+00    0.400E-01
DAV:   2    -0.235264765474E+03   -0.24433E-02   -0.24590E-02 38912   0.467E-01    0.204E-01
DAV:   3    -0.235264795100E+03   -0.29626E-04   -0.10640E-03 39944   0.134E-01    0.146E-01
DAV:   4    -0.235264773466E+03    0.21634E-04   -0.32409E-04 44048   0.828E-02    0.107E-01
DAV:   5    -0.235264757658E+03    0.15808E-04   -0.90066E-05 36392   0.464E-02    0.410E-02
DAV:   6    -0.235264758525E+03   -0.86738E-06   -0.16131E-05 26232   0.214E-02
  48 F= -.23526476E+03 E0= -.23526406E+03  d E =0.368326E-04  mag=     8.0152
       N       E                     dE             d eps       ncg     rms          rms(c)
DAV:   1    -0.235263778795E+03    0.97886E-03   -0.14563E-01 34272   0.131E+00    0.197E-01
DAV:   2    -0.235264295937E+03   -0.51714E-03   -0.54615E-03 37568   0.228E-01    0.856E-02
DAV:   3    -0.235264285922E+03    0.10015E-04   -0.21841E-04 41344   0.706E-02    0.790E-02
DAV:   4    -0.235264276101E+03    0.98211E-05   -0.56899E-05 30976   0.411E-02
  49 F= -.23526428E+03 E0= -.23526360E+03  d E =0.482424E-03  mag=     8.0146
       N       E                     dE             d eps       ncg     rms          rms(c)
DAV:   1    -0.235261318621E+03    0.29673E-02   -0.48513E-01 34584   0.238E+00    0.237E-01
DAV:   2    -0.235262916100E+03   -0.15975E-02   -0.16706E-02 36288   0.390E-01    0.109E-01
DAV:   3    -0.235262899378E+03    0.16722E-04   -0.40148E-04 40032   0.695E-02    0.617E-02
DAV:   4    -0.235262879912E+03    0.19465E-04   -0.75006E-05 41024   0.358E-02    0.396E-02
DAV:   5    -0.235262878675E+03    0.12372E-05   -0.25269E-05 25544   0.234E-02
  50 F= -.23526288E+03 E0= -.23526215E+03  d E =0.139743E-02  mag=     8.0157
