       N       E                     dE             d eps       ncg     rms          ort
DAV:   1     0.312308298340E+04    0.31231E+04   -0.14119E+05 10962   0.176E+03
DAV:   2     0.190335389517E+02   -0.31040E+04   -0.28318E+04 10962   0.462E+02
DAV:   3    -0.433549184656E+03   -0.45258E+03   -0.44130E+03 10962   0.198E+02
DAV:   4    -0.456631553213E+03   -0.23082E+02   -0.22191E+02 10962   0.427E+01
DAV:   5    -0.458014460578E+03   -0.13829E+01   -0.13524E+01 10962   0.742E+00
SDA:   6    -0.190017702547E+03    0.26800E+03   -0.13524E+01 10962   0.212E+04 0.000E+00
CGA:   7    -0.286180521421E+03   -0.96163E+02   -0.17911E+03 10962   0.173E+04-0.368E+03
CGA:   8    -0.218033855443E+03    0.68147E+02   -0.92487E+02 10962   0.270E+04-0.101E+04
CGA:   9    -0.238395972912E+03   -0.20362E+02   -0.14133E+03 10962   0.238E+04-0.226E+04
CGA:  10    -0.296347162934E+03   -0.57951E+02   -0.11511E+03 10962   0.325E+03-0.354E+03
CGA:  11    -0.315932020228E+03   -0.19585E+02   -0.78152E+01 10962   0.466E+03 0.583E+03
CGA:  12    -0.299001687935E+03    0.16930E+02   -0.16506E+02 10962   0.945E+03-0.710E+03
CGA:  13    -0.320642032121E+03   -0.21640E+02   -0.24064E+02 10962   0.333E+03-0.430E+03
CGA:  14    -0.344722439301E+03   -0.24080E+02   -0.34319E+01 10962   0.366E+03-0.601E+03
CGA:  15    -0.317828567166E+03    0.26894E+02   -0.18039E+02 10962   0.724E+03-0.141E+03
CGA:  16    -0.315712146175E+03    0.21164E+01   -0.14921E+02 10962   0.719E+03-0.244E+03
CGA:  17    -0.322894689144E+03   -0.71825E+01   -0.18604E+02 10962   0.330E+03-0.184E+03
CGA:  18    -0.345579811157E+03   -0.22685E+02   -0.47277E+01 10962   0.122E+03 0.330E+03
CGA:  19    -0.350944251749E+03   -0.53644E+01   -0.18052E+01 10962   0.156E+03-0.243E+03
CGA:  20    -0.345196745440E+03    0.57475E+01   -0.46921E+01 10962   0.791E+03-0.254E+03
CGA:  21    -0.307860075908E+03    0.37337E+02   -0.26738E+02 10962   0.115E+04-0.428E+03
CGA:  22    -0.304900167107E+03    0.29599E+01   -0.56595E+02 10962   0.277E+03-0.238E+03
CGA:  23    -0.311335822170E+03   -0.64357E+01   -0.30604E+01 10962   0.288E+03 0.255E+03
CGA:  24    -0.333976999386E+03   -0.22641E+02   -0.43308E+01 10962   0.486E+03 0.790E+03
CGA:  25    -0.347356512413E+03   -0.13380E+02   -0.99783E+01 10962   0.616E+03-0.985E+03
CGA:  26    -0.328617736829E+03    0.18739E+02   -0.21873E+02 10962   0.119E+04-0.647E+03
CGA:  27    -0.309246941287E+03    0.19371E+02   -0.33725E+02 10962   0.148E+04-0.985E+03
CGA:  28    -0.307782634936E+03    0.14643E+01   -0.60367E+02 10962   0.290E+03-0.259E+03
CGA:  29    -0.316785243663E+03   -0.90026E+01   -0.26429E+01 10962   0.573E+03 0.598E+03
CGA:  30    -0.347569470069E+03   -0.30784E+02   -0.10031E+02 10962   0.392E+03 0.482E+03
CGA:  31    -0.350379010447E+03   -0.28095E+01   -0.83717E+01 10962   0.582E+03-0.497E+03
CGA:  32    -0.339348214145E+03    0.11031E+02   -0.16134E+02 10962   0.913E+03-0.421E+03
CGA:  33    -0.331118401274E+03    0.82298E+01   -0.19957E+02 10962   0.799E+03-0.628E+03
CGA:  34    -0.322279040709E+03    0.88394E+01   -0.22050E+02 10962   0.152E+04-0.118E+04
CGA:  35    -0.335709536000E+03   -0.13430E+02   -0.34261E+02 10962   0.477E+03-0.620E+03
CGA:  36    -0.345804160821E+03   -0.10095E+02   -0.54834E+01 10962   0.143E+04-0.149E+04
CGA:  37    -0.329799401608E+03    0.16005E+02   -0.36143E+02 10962   0.415E+03-0.219E+03
CGA:  38    -0.335407452288E+03   -0.56081E+01   -0.69123E+01 10962   0.583E+03-0.626E+03
CGA:  39    -0.333673693749E+03    0.17338E+01   -0.91592E+01 10962   0.708E+03-0.656E+03
CGA:  40    -0.322566837808E+03    0.11107E+02   -0.14880E+02 10962   0.161E+04-0.118E+04
CGA:  41    -0.333137146170E+03   -0.10570E+02   -0.33501E+02 10962   0.370E+03-0.423E+03
CGA:  42    -0.349154418877E+03   -0.16017E+02   -0.40743E+01 10962   0.100E+04-0.172E+04
CGA:  43    -0.333379299795E+03    0.15775E+02   -0.19816E+02 10962   0.711E+03-0.307E+03
CGA:  44    -0.338336539722E+03   -0.49572E+01   -0.85497E+01 10962   0.127E+04-0.988E+03
CGA:  45    -0.330545518506E+03    0.77910E+01   -0.24577E+02 10962   0.272E+03-0.199E+03
CGA:  46    -0.355325231253E+03   -0.24780E+02   -0.27369E+01 10962   0.126E+02-0.261E+03
CGA:  47    -0.355378018266E+03   -0.52787E-01   -0.65063E-01 10962   0.411E+01-0.262E+01
CGA:  48    -0.355577040361E+03   -0.19902E+00   -0.20012E+00 10962   0.288E+02-0.143E+00
CGA:  49    -0.356023602056E+03   -0.44656E+00   -0.28812E+00 10962   0.464E+01 0.155E+02
CGA:  50    -0.356139424617E+03   -0.11582E+00   -0.12728E+00 10962   0.696E+01-0.398E+00
CGA:  51    -0.356681378028E+03   -0.54195E+00   -0.43801E+00 10962   0.392E+01 0.263E+01
CGA:  52    -0.356930690991E+03   -0.24931E+00   -0.24488E+00 10962   0.120E+01 0.140E+01
CGA:  53    -0.357111181380E+03   -0.18049E+00   -0.16224E+00 10962   0.858E+00 0.270E+00
CGA:  54    -0.357282288091E+03   -0.17111E+00   -0.15296E+00 10962   0.320E+00 0.225E+00
CGA:  55    -0.357383356220E+03   -0.10107E+00   -0.96377E-01 10962   0.102E+00 0.388E-01
CGA:  56    -0.357426759784E+03   -0.43404E-01   -0.12690E-02 10962   0.919E-01-0.127E-01
CGA:  57    -0.357448900038E+03   -0.22140E-01   -0.37638E-01 10962   0.963E-01-0.415E-01
CGA:  58    -0.357458504424E+03   -0.96044E-02   -0.23318E-01 10962   0.774E-01-0.429E-01
CGA:  59    -0.357425124699E+03    0.33380E-01   -0.20498E-01 10962   0.407E+00-0.904E-01
CGA:  60    -0.357485401500E+03   -0.60277E-01   -0.61140E-01 10962   0.518E-01 0.625E-02
CGA:  61    -0.357516150429E+03   -0.30749E-01   -0.27932E-01 10962   0.358E-01 0.104E-01
CGA:  62    -0.357536177873E+03   -0.20027E-01   -0.19292E-01 10962   0.318E-01 0.435E-02
CGA:  63    -0.357547849357E+03   -0.11671E-01   -0.11650E-01 10962   0.108E-01 0.724E-03
CGA:  64    -0.357553479816E+03   -0.56305E-02   -0.59672E-02 10962   0.140E-01-0.128E-02
CGA:  65    -0.357561455690E+03   -0.79759E-02   -0.10045E-01 10962   0.240E-01-0.416E-02
CGA:  66    -0.357568157688E+03   -0.67020E-02   -0.75178E-02 10962   0.169E-01-0.651E-02
CGA:  67    -0.357573278026E+03   -0.51203E-02   -0.61948E-02 10962   0.166E-01-0.587E-02
CGA:  68    -0.357577060691E+03   -0.37827E-02   -0.38859E-02 10962   0.130E-01-0.464E-02
CGA:  69    -0.357580261757E+03   -0.32011E-02   -0.32127E-02 10962   0.897E-02-0.271E-02
CGA:  70    -0.357582382347E+03   -0.21206E-02   -0.21004E-02 10962   0.560E-02-0.489E-03
CGA:  71    -0.357583952451E+03   -0.15701E-02   -0.15897E-02 10962   0.367E-02 0.423E-03
CGA:  72    -0.357585267492E+03   -0.13150E-02   -0.13158E-02 10962   0.236E-02 0.592E-03
CGA:  73    -0.357586078160E+03   -0.81067E-03   -0.83302E-03 10962   0.168E-02 0.746E-03
CGA:  74    -0.357586741309E+03   -0.66315E-03   -0.68565E-03 10962   0.141E-02 0.988E-03
CGA:  75    -0.357587446829E+03   -0.70552E-03   -0.65274E-03 10962   0.109E-02 0.400E-03
CGA:  76    -0.357588200696E+03   -0.75387E-03   -0.66467E-03 10962   0.793E-03 0.654E-03
CGA:  77    -0.357588595587E+03   -0.39489E-03   -0.38579E-03 10962   0.884E-03 0.648E-04
CGA:  78    -0.357589076834E+03   -0.48125E-03   -0.43626E-03 10962   0.670E-03 0.440E-03
CGA:  79    -0.357589599110E+03   -0.52228E-03   -0.45927E-03 10962   0.463E-03 0.630E-03
CGA:  80    -0.357589773024E+03   -0.17391E-03   -0.17371E-03 10962   0.451E-03 0.142E-04
CGA:  81    -0.357590090663E+03   -0.31764E-03   -0.26611E-03 10962   0.348E-03 0.245E-03
CGA:  82    -0.357590264668E+03   -0.17401E-03   -0.16753E-03 10962   0.251E-03 0.574E-04
CGA:  83    -0.357590607159E+03   -0.34249E-03   -0.30555E-03 10962   0.732E-03 0.639E-04
CGA:  84    -0.357590903082E+03   -0.29592E-03   -0.32583E-03 10962   0.732E-03 0.387E-03
CGA:  85    -0.357591102800E+03   -0.19972E-03   -0.22719E-03 10962   0.151E-03 0.165E-03
CGA:  86    -0.357591194411E+03   -0.91611E-04   -0.87913E-04 10962   0.112E-03 0.495E-04
CGA:  87    -0.357591293540E+03   -0.99129E-04   -0.85830E-04 10962   0.158E-03 0.744E-04
CGA:  88    -0.357591415151E+03   -0.12161E-03   -0.13831E-03 10962   0.301E-03-0.387E-04
CGA:  89    -0.357591482098E+03   -0.66947E-04   -0.76193E-04 10962   0.255E-03 0.643E-04
CGA:  90    -0.357591642717E+03   -0.16062E-03   -0.15361E-03 10962   0.327E-03 0.103E-03
CGA:  91    -0.357591949033E+03   -0.30632E-03   -0.33045E-03 10962   0.832E-03-0.797E-04
CGA:  92    -0.357592118589E+03   -0.16956E-03   -0.17168E-03 10962   0.104E-02 0.568E-04
CGA:  93    -0.357592368622E+03   -0.25003E-03   -0.26462E-03 10962   0.860E-03 0.111E-03
CGA:  94    -0.357592677196E+03   -0.30857E-03   -0.30806E-03 10962   0.962E-03 0.338E-04
CGA:  95    -0.357592922975E+03   -0.24578E-03   -0.23223E-03 10962   0.569E-03-0.677E-04
CGA:  96    -0.357593057060E+03   -0.13409E-03   -0.13216E-03 10962   0.591E-03-0.315E-04
CGA:  97    -0.357593188751E+03   -0.13169E-03   -0.14635E-03 10962   0.631E-03 0.803E-04
CGA:  98    -0.357593351847E+03   -0.16310E-03   -0.18071E-03 10962   0.651E-03 0.124E-03
CGA:  99    -0.357593634171E+03   -0.28232E-03   -0.27770E-03 10962   0.948E-03-0.612E-04
CGA: 100    -0.357593879339E+03   -0.24517E-03   -0.19966E-03 10962   0.100E-02-0.233E-03
CGA: 101    -0.357594108063E+03   -0.22872E-03   -0.16454E-03 10962   0.123E-02-0.343E-03
CGA: 102    -0.357594308725E+03   -0.20066E-03   -0.13158E-03 10962   0.133E-02-0.194E-03
CGA: 103    -0.357594498175E+03   -0.18945E-03   -0.15441E-03 10962   0.121E-02-0.936E-04
CGA: 104    -0.357594648376E+03   -0.15020E-03   -0.16374E-03 10962   0.128E-02-0.122E-04
CGA: 105    -0.357594859868E+03   -0.21149E-03   -0.21968E-03 10962   0.147E-02-0.127E-03
CGA: 106    -0.357595111777E+03   -0.25191E-03   -0.20678E-03 10962   0.129E-02-0.358E-03
CGA: 107    -0.357595303464E+03   -0.19169E-03   -0.12625E-03 10962   0.101E-02-0.345E-03
CGA: 108    -0.357595444723E+03   -0.14126E-03   -0.89324E-04 10962   0.760E-03-0.254E-03
CGA: 109    -0.357595531893E+03   -0.87169E-04   -0.59051E-04 10962   0.504E-03-0.131E-03
CGA: 110    -0.357595580311E+03   -0.48418E-04   -0.39134E-04 10962   0.324E-03-0.424E-04
CGA: 111    -0.357595609150E+03   -0.28839E-04   -0.28503E-04 10962   0.242E-03-0.495E-07
CGA: 112    -0.357595630384E+03   -0.21234E-04   -0.24510E-04 10962   0.204E-03 0.208E-04
CGA: 113    -0.357595647627E+03   -0.17243E-04   -0.22389E-04 10962   0.172E-03 0.337E-04
CGA: 114    -0.357595660020E+03   -0.12392E-04   -0.19203E-04 10962   0.146E-03 0.447E-04
CGA: 115    -0.357595667452E+03   -0.74326E-05   -0.16625E-04 10962   0.133E-03 0.602E-04
CGA: 116    -0.357595671295E+03   -0.38424E-05   -0.16018E-04 10962   0.121E-03 0.802E-04
CGA: 117    -0.357595697143E+03   -0.25848E-04   -0.26773E-04 10962   0.585E-04 0.634E-04
CGA: 118    -0.357595744652E+03   -0.47509E-04   -0.35867E-04 10962   0.511E-04 0.316E-04
CGA: 119    -0.357595752397E+03   -0.77455E-05   -0.98027E-05 10962   0.348E-04 0.335E-04
CGA: 120    -0.357595791739E+03   -0.39341E-04   -0.25214E-04 10962   0.345E-04 0.302E-04
CGA: 121    -0.357595803620E+03   -0.11881E-04   -0.10842E-04 10962   0.324E-04 0.259E-04
CGA: 122    -0.357595836694E+03   -0.33074E-04   -0.25249E-04 10962   0.734E-04 0.156E-04
CGA: 123    -0.357595889977E+03   -0.53283E-04   -0.44333E-04 10962   0.249E-04 0.846E-04
CGA: 124    -0.357595906327E+03   -0.16350E-04    0.54283E-04 10962   0.242E-04 0.234E-04
CGA: 125    -0.357595941844E+03   -0.35517E-04   -0.22899E-04 10962   0.395E-04 0.197E-04
CGA: 126    -0.357595955232E+03   -0.13388E-04   -0.13389E-04 10962   0.539E-04-0.215E-05
CGA: 127    -0.357595980892E+03   -0.25660E-04   -0.21562E-04 10962   0.525E-04 0.482E-04
CGA: 128    -0.357595988531E+03   -0.76391E-05   -0.96216E-05 10962   0.218E-04 0.124E-04
CGA: 129    -0.357596009445E+03   -0.20914E-04    0.27809E-04 10962   0.308E-04 0.234E-04
CGA: 130    -0.357596010777E+03   -0.13323E-05   -0.28800E-04 10962   0.363E-03-0.460E-04
CGA: 131    -0.357596036979E+03   -0.26202E-04   -0.44048E-04 10962   0.271E-04 0.730E-04
CGA: 132    -0.357596037806E+03   -0.82684E-06   -0.42542E-05 10962   0.184E-04 0.154E-04
   1 F= -.35759604E+03 E0= -.35759604E+03  d E =-.357596E+03  mag=    12.0000
       N       E                     dE             d eps       ncg     rms          ort
SDA:   1    -0.357596033352E+03    0.36271E-05    0.00000E+00 10962   0.193E-02 0.000E+00
CGA:   2    -0.357596445214E+03   -0.41186E-03   -0.41438E-03 10962   0.119E-02 0.191E-04
CGA:   3    -0.357596641590E+03   -0.19638E-03   -0.19762E-03 10962   0.372E-03 0.685E-05
CGA:   4    -0.357596705734E+03   -0.64144E-04   -0.63018E-04 10962   0.110E-03-0.729E-05
CGA:   5    -0.357596726892E+03   -0.21157E-04   -0.20795E-04 10962   0.517E-04-0.296E-05
CGA:   6    -0.357596738278E+03   -0.11387E-04   -0.11854E-04 10962   0.386E-04 0.595E-05
CGA:   7    -0.357596751114E+03   -0.12836E-04   -0.12954E-04 10962   0.375E-04 0.153E-04
CGA:   8    -0.357596771118E+03   -0.20004E-04   -0.18775E-04 10962   0.430E-04 0.239E-04
CGA:   9    -0.357596781293E+03   -0.10175E-04   -0.10312E-04 10962   0.265E-04 0.188E-05
CGA:  10    -0.357596792349E+03   -0.11056E-04   -0.10467E-04 10962   0.253E-04 0.814E-05
CGA:  11    -0.357596806967E+03   -0.14619E-04   -0.12955E-04 10962   0.238E-04 0.201E-04
CGA:  12    -0.357596814442E+03   -0.74747E-05   -0.74779E-05 10962   0.165E-04 0.550E-05
   2 F= -.35759681E+03 E0= -.35759681E+03  d E =-.776636E-03  mag=    12.0000
       N       E                     dE             d eps       ncg     rms          ort
SDA:   1    -0.357585107288E+03    0.11700E-01    0.00000E+00 10962   0.410E-01 0.000E+00
CGA:   2    -0.357593474844E+03   -0.83676E-02   -0.83807E-02 10962   0.250E-01 0.963E-04
CGA:   3    -0.357597593616E+03   -0.41188E-02   -0.41278E-02 10962   0.752E-02 0.514E-04
CGA:   4    -0.357598790507E+03   -0.11969E-02   -0.11933E-02 10962   0.177E-02-0.258E-04
CGA:   5    -0.357599084218E+03   -0.29371E-03   -0.29120E-03 10962   0.483E-03-0.187E-04
CGA:   6    -0.357599168692E+03   -0.84473E-04   -0.85242E-04 10962   0.150E-03 0.644E-05
CGA:   7    -0.357599197869E+03   -0.29177E-04   -0.30524E-04 10962   0.553E-04 0.153E-04
CGA:   8    -0.357599210598E+03   -0.12728E-04   -0.13599E-04 10962   0.281E-04 0.141E-04
CGA:   9    -0.357599219226E+03   -0.86289E-05   -0.89698E-05 10962   0.196E-04 0.124E-04
   3 F= -.35759922E+03 E0= -.35759922E+03  d E =-.240478E-02  mag=    12.0000
       N       E                     dE             d eps       ncg     rms          ort
SDA:   1    -0.357509676750E+03    0.89534E-01    0.00000E+00 10962   0.276E+00 0.000E+00
CGA:   2    -0.357564873018E+03   -0.55196E-01   -0.55233E-01 10962   0.164E+00 0.350E-03
CGA:   3    -0.357592393690E+03   -0.27521E-01   -0.27542E-01 10962   0.508E-01 0.145E-03
CGA:   4    -0.357600386545E+03   -0.79929E-02   -0.79814E-02 10962   0.116E-01-0.113E-03
CGA:   5    -0.357602237621E+03   -0.18511E-02   -0.18444E-02 10962   0.297E-02-0.662E-04
CGA:   6    -0.357602747551E+03   -0.50993E-03   -0.51141E-03 10962   0.859E-03 0.163E-04
CGA:   7    -0.357602915417E+03   -0.16787E-03   -0.17042E-03 10962   0.267E-03 0.436E-04
CGA:   8    -0.357602973706E+03   -0.58288E-04   -0.59814E-04 10962   0.103E-03 0.388E-04
CGA:   9    -0.357603001527E+03   -0.27821E-04   -0.28174E-04 10962   0.489E-04 0.277E-04
CGA:  10    -0.357603017328E+03   -0.15802E-04   -0.15736E-04 10962   0.289E-04 0.187E-04
CGA:  11    -0.357603026788E+03   -0.94595E-05   -0.96196E-05 10962   0.188E-04 0.177E-04
   4 F= -.35760303E+03 E0= -.35760303E+03  d E =-.380756E-02  mag=    12.0000
       N       E                     dE             d eps       ncg     rms          ort
SDA:   1    -0.357456515692E+03    0.14650E+00    0.00000E+00 10962   0.425E+00 0.000E+00
CGA:   2    -0.357547687752E+03   -0.91172E-01   -0.91202E-01 10962   0.262E+00 0.727E-03
CGA:   3    -0.357590040658E+03   -0.42353E-01   -0.42379E-01 10962   0.754E-01 0.228E-03
CGA:   4    -0.357601877549E+03   -0.11837E-01   -0.11818E-01 10962   0.171E-01-0.242E-03
CGA:   5    -0.357604624876E+03   -0.27473E-02   -0.27363E-02 10962   0.432E-02-0.146E-03
CGA:   6    -0.357605369221E+03   -0.74434E-03   -0.74501E-03 10962   0.125E-02 0.994E-05
CGA:   7    -0.357605612606E+03   -0.24339E-03   -0.24545E-03 10962   0.375E-03 0.567E-04
CGA:   8    -0.357605696397E+03   -0.83791E-04   -0.84467E-04 10962   0.145E-03 0.466E-04
CGA:   9    -0.357605737503E+03   -0.41106E-04   -0.40504E-04 10962   0.676E-04 0.307E-04
CGA:  10    -0.357605760870E+03   -0.23367E-04   -0.22589E-04 10962   0.382E-04 0.169E-04
CGA:  11    -0.357605774565E+03   -0.13695E-04   -0.13097E-04 10962   0.225E-04 0.141E-04
CGA:  12    -0.357605782320E+03   -0.77550E-05   -0.75775E-05 10962   0.156E-04 0.148E-04
   5 F= -.35760578E+03 E0= -.35760578E+03  d E =-.275553E-02  mag=    12.0000
       N       E                     dE             d eps       ncg     rms          ort
SDA:   1    -0.354751837408E+03    0.28539E+01    0.00000E+00 10962   0.799E+01 0.000E+00
CGA:   2    -0.356516031572E+03   -0.17642E+01   -0.17646E+01 10962   0.502E+01 0.950E-02
CGA:   3    -0.357315748283E+03   -0.79972E+00   -0.79987E+00 10962   0.139E+01 0.151E-02
CGA:   4    -0.357530524369E+03   -0.21478E+00   -0.21459E+00 10962   0.311E+00-0.193E-02
CGA:   5    -0.357580187302E+03   -0.49663E-01   -0.49633E-01 10962   0.790E-01-0.515E-03
CGA:   6    -0.357593964108E+03   -0.13777E-01   -0.13793E-01 10962   0.228E-01 0.288E-03
CGA:   7    -0.357598545676E+03   -0.45816E-02   -0.45880E-02 10962   0.694E-02 0.256E-03
CGA:   8    -0.357600150303E+03   -0.16046E-02   -0.16038E-02 10962   0.274E-02 0.184E-03
CGA:   9    -0.357600907194E+03   -0.75689E-03   -0.75234E-03 10962   0.118E-02 0.106E-03
CGA:  10    -0.357601266991E+03   -0.35980E-03   -0.35888E-03 10962   0.521E-03 0.136E-04
CGA:  11    -0.357601416022E+03   -0.14903E-03   -0.14776E-03 10962   0.191E-03 0.249E-04
CGA:  12    -0.357601474217E+03   -0.58195E-04   -0.57051E-04 10962   0.809E-04 0.217E-04
CGA:  13    -0.357601509431E+03   -0.35215E-04   -0.33787E-04 10962   0.604E-04 0.977E-05
CGA:  14    -0.357601535138E+03   -0.25707E-04   -0.23020E-04 10962   0.459E-04 0.267E-04
CGA:  15    -0.357601557750E+03   -0.22613E-04   -0.20479E-04 10962   0.330E-04 0.336E-04
CGA:  16    -0.357601570406E+03   -0.12656E-04   -0.11553E-04 10962   0.185E-04 0.109E-04
CGA:  17    -0.357601575822E+03   -0.54161E-05   -0.58058E-05 10962   0.154E-04 0.199E-04
   6 F= -.35760158E+03 E0= -.35760158E+03  d E =0.420650E-02  mag=    12.0000
       N       E                     dE             d eps       ncg     rms          ort
SDA:   1    -0.356788698599E+03    0.81287E+00    0.00000E+00 10962   0.207E+01 0.000E+00
CGA:   2    -0.357349821827E+03   -0.56112E+00   -0.56110E+00 10962   0.130E+01 0.243E-02
CGA:   3    -0.357538096037E+03   -0.18827E+00   -0.18829E+00 10962   0.321E+00-0.239E-03
CGA:   4    -0.357588434755E+03   -0.50339E-01   -0.50237E-01 10962   0.714E-01-0.104E-02
CGA:   5    -0.357600128509E+03   -0.11694E-01   -0.11663E-01 10962   0.195E-01-0.366E-03
CGA:   6    -0.357603625189E+03   -0.34967E-02   -0.34984E-02 10962   0.592E-02 0.227E-04
CGA:   7    -0.357604809975E+03   -0.11848E-02   -0.11882E-02 10962   0.189E-02 0.797E-04
CGA:   8    -0.357605270287E+03   -0.46031E-03   -0.46036E-03 10962   0.822E-03 0.598E-04
CGA:   9    -0.357605505052E+03   -0.23477E-03   -0.23407E-03 10962   0.367E-03 0.198E-04
CGA:  10    -0.357605624273E+03   -0.11922E-03   -0.12250E-03 10962   0.191E-03-0.396E-04
CGA:  11    -0.357605678417E+03   -0.54144E-04   -0.58449E-04 10962   0.102E-03-0.452E-04
CGA:  12    -0.357605703441E+03   -0.25024E-04   -0.39820E-04 10962   0.131E-03-0.574E-04
CGA:  13    -0.357605736208E+03   -0.32767E-04   -0.32645E-04 10962   0.419E-04-0.799E-05
CGA:  14    -0.357605753701E+03   -0.17493E-04   -0.18158E-04 10962   0.319E-04-0.343E-05
CGA:  15    -0.357605770622E+03   -0.16921E-04    0.74014E-04 10962   0.152E-04 0.155E-04
CGA:  16    -0.357605720435E+03    0.50188E-04   -0.28587E-04 10962   0.429E-03-0.619E-04
CGA:  17    -0.357605824113E+03   -0.10368E-03   -0.10177E-03 10962   0.383E-04-0.736E-05
CGA:  18    -0.357605837512E+03   -0.13399E-04   -0.13517E-04 10962   0.102E-04 0.886E-06
CGA:  19    -0.357605805919E+03    0.31594E-04   -0.18592E-04 10962   0.237E-03-0.241E-04
CGA:  20    -0.357605842485E+03   -0.36566E-04   -0.46307E-04 10962   0.513E-04 0.141E-04
CGA:  21    -0.357605876948E+03   -0.34464E-04   -0.24823E-04 10962   0.524E-04-0.251E-04
CGA:  22    -0.357605882105E+03   -0.51561E-05   -0.69745E-05 10962   0.302E-04 0.321E-05
   7 F= -.35760588E+03 E0= -.35760588E+03  d E =-.430628E-02  mag=    12.0000
       N       E                     dE             d eps       ncg     rms          ort
SDA:   1    -0.357023510932E+03    0.58237E+00    0.00000E+00 10962   0.174E+01 0.000E+00
CGA:   2    -0.357379269303E+03   -0.35576E+00   -0.35593E+00 10962   0.104E+01 0.551E-04
CGA:   3    -0.357551981058E+03   -0.17271E+00   -0.17257E+00 10962   0.310E+00 0.255E-02
CGA:   4    -0.357600385216E+03   -0.48404E-01   -0.48454E-01 10962   0.702E-01 0.512E-03
CGA:   5    -0.357611536094E+03   -0.11151E-01   -0.11226E-01 10962   0.177E-01 0.122E-03
CGA:   6    -0.357614608828E+03   -0.30727E-02   -0.30840E-02 10962   0.504E-02 0.198E-04
CGA:   7    -0.357615646328E+03   -0.10375E-02   -0.10251E-02 10962   0.158E-02-0.299E-04
CGA:   8    -0.357616012145E+03   -0.36582E-03   -0.36310E-03 10962   0.624E-03-0.749E-05
CGA:   9    -0.357616177500E+03   -0.16536E-03   -0.16637E-03 10962   0.265E-03 0.302E-05
CGA:  10    -0.357616252310E+03   -0.74810E-04   -0.75795E-04 10962   0.111E-03 0.335E-05
CGA:  11    -0.357616281929E+03   -0.29619E-04   -0.31243E-04 10962   0.394E-04 0.576E-05
CGA:  12    -0.357616295804E+03   -0.13875E-04   -0.13498E-04 10962   0.186E-04-0.174E-05
CGA:  13    -0.357616302258E+03   -0.64537E-05   -0.65036E-05 10962   0.113E-04 0.280E-06
   8 F= -.35761630E+03 E0= -.35761630E+03  d E =-.104202E-01  mag=    12.0000
       N       E                     dE             d eps       ncg     rms          ort
SDA:   1    -0.357441955124E+03    0.17434E+00    0.00000E+00 10962   0.480E+00 0.000E+00
CGA:   2    -0.357563950953E+03   -0.12200E+00   -0.12207E+00 10962   0.268E+00 0.132E-03
CGA:   3    -0.357605087784E+03   -0.41137E-01   -0.41149E-01 10962   0.785E-01 0.742E-04
CGA:   4    -0.357617434402E+03   -0.12347E-01   -0.12336E-01 10962   0.166E-01-0.510E-04
CGA:   5    -0.357620100445E+03   -0.26660E-02   -0.26580E-02 10962   0.441E-02-0.297E-04
CGA:   6    -0.357620917573E+03   -0.81713E-03   -0.81173E-03 10962   0.138E-02-0.206E-04
CGA:   7    -0.357621195544E+03   -0.27797E-03   -0.27811E-03 10962   0.468E-03 0.185E-06
CGA:   8    -0.357621304204E+03   -0.10866E-03   -0.11183E-03 10962   0.204E-03 0.164E-04
CGA:   9    -0.357621360809E+03   -0.56605E-04   -0.58249E-04 10962   0.939E-04 0.113E-04
CGA:  10    -0.357621391750E+03   -0.30942E-04   -0.30677E-04 10962   0.446E-04-0.257E-05
CGA:  11    -0.357621407128E+03   -0.15378E-04   -0.14846E-04 10962   0.230E-04-0.809E-05
CGA:  12    -0.357621415160E+03   -0.80322E-05   -0.92977E-05 10962   0.281E-04-0.143E-04
   9 F= -.35762142E+03 E0= -.35762142E+03  d E =-.511290E-02  mag=    12.0000
       N       E                     dE             d eps       ncg     rms          ort
SDA:   1    -0.356870050590E+03    0.75136E+00    0.00000E+00 10962   0.184E+01 0.000E+00
CGA:   2    -0.357467011835E+03   -0.59696E+00   -0.59705E+00 10962   0.700E+00 0.102E-02
CGA:   3    -0.357583744636E+03   -0.11673E+00   -0.11666E+00 10962   0.228E+00-0.499E-03
CGA:   4    -0.357616120245E+03   -0.32376E-01   -0.32285E-01 10962   0.430E-01-0.437E-03
CGA:   5    -0.357623724593E+03   -0.76043E-02   -0.75734E-02 10962   0.137E-01-0.163E-03
CGA:   6    -0.357626165481E+03   -0.24409E-02   -0.24385E-02 10962   0.393E-02-0.165E-04
CGA:   7    -0.357626989053E+03   -0.82357E-03   -0.82570E-03 10962   0.145E-02 0.141E-04
CGA:   8    -0.357627358391E+03   -0.36934E-03   -0.36998E-03 10962   0.696E-03 0.692E-05
CGA:   9    -0.357627561688E+03   -0.20330E-03   -0.20294E-03 10962   0.328E-03-0.698E-05
CGA:  10    -0.357627664563E+03   -0.10287E-03   -0.10188E-03 10962   0.149E-03-0.392E-04
CGA:  11    -0.357627709937E+03   -0.45374E-04   -0.45957E-04 10962   0.771E-04-0.439E-04
CGA:  12    -0.357627730224E+03   -0.20287E-04   -0.23023E-04 10962   0.615E-04-0.321E-04
CGA:  13    -0.357627705221E+03    0.25003E-04   -0.37563E-04 10962   0.305E-03-0.891E-04
CGA:  14    -0.357627768517E+03   -0.63296E-04   -0.64759E-04 10962   0.385E-04 0.881E-05
CGA:  15    -0.357627784417E+03   -0.15899E-04   -0.16314E-04 10962   0.195E-04-0.972E-05
CGA:  16    -0.357627787943E+03   -0.35266E-05   -0.40102E-05 10962   0.738E-05 0.499E-05
  10 F= -.35762779E+03 E0= -.35762779E+03  d E =-.637278E-02  mag=    12.0000
       N       E                     dE             d eps       ncg     rms          ort
SDA:   1    -0.351415692486E+03    0.62121E+01    0.00000E+00 10962   0.159E+02 0.000E+00
CGA:   2    -0.355344886458E+03   -0.39292E+01   -0.39333E+01 10962   0.975E+01 0.349E-03
CGA:   3    -0.356844296414E+03   -0.14994E+01   -0.14990E+01 10962   0.267E+01 0.317E-01
CGA:   4    -0.357271623600E+03   -0.42733E+00   -0.42724E+00 10962   0.620E+00 0.266E-02
CGA:   5    -0.357375125826E+03   -0.10350E+00   -0.10367E+00 10962   0.177E+00 0.387E-03
CGA:   6    -0.357407870248E+03   -0.32744E-01   -0.32803E-01 10962   0.571E-01 0.323E-03
CGA:   7    -0.357420130652E+03   -0.12260E-01   -0.12273E-01 10962   0.219E-01 0.961E-04
CGA:   8    -0.357425510077E+03   -0.53794E-02   -0.53909E-02 10962   0.930E-02 0.129E-03
CGA:   9    -0.357428003445E+03   -0.24934E-02   -0.24976E-02 10962   0.381E-02 0.688E-04
CGA:  10    -0.357429065366E+03   -0.10619E-02   -0.10601E-02 10962   0.140E-02-0.373E-04
CGA:  11    -0.357429466875E+03   -0.40151E-03   -0.40035E-03 10962   0.511E-03-0.342E-04
CGA:  12    -0.357429638793E+03   -0.17192E-03   -0.17363E-03 10962   0.288E-03-0.624E-04
CGA:  13    -0.357429749578E+03   -0.11078E-03   -0.11887E-03 10962   0.255E-03-0.554E-04
CGA:  14    -0.357429854247E+03   -0.10467E-03   -0.12415E-03 10962   0.298E-03-0.736E-04
CGA:  15    -0.357429955550E+03   -0.10130E-03   -0.11829E-03 10962   0.288E-03-0.839E-04
CGA:  16    -0.357430053614E+03   -0.98063E-04   -0.10413E-03 10962   0.244E-03-0.465E-04
CGA:  17    -0.357430170746E+03   -0.11713E-03   -0.15203E-03 10962   0.422E-03-0.993E-04
CGA:  18    -0.357430302968E+03   -0.13222E-03   -0.17102E-03 10962   0.656E-03-0.150E-03
CGA:  19    -0.357430419229E+03   -0.11626E-03   -0.34457E-03 10962   0.138E-02-0.565E-03
CGA:  20    -0.357430786883E+03   -0.36765E-03   -0.37663E-03 10962   0.398E-03 0.627E-04
CGA:  21    -0.357430939284E+03   -0.15240E-03   -0.14965E-03 10962   0.249E-03-0.557E-04
CGA:  22    -0.357431007439E+03   -0.68155E-04   -0.70340E-04 10962   0.722E-04 0.282E-04
CGA:  23    -0.357431037029E+03   -0.29591E-04   -0.30107E-04 10962   0.417E-04 0.181E-04
CGA:  24    -0.357431065725E+03   -0.28696E-04   -0.31968E-04 10962   0.943E-04-0.155E-04
CGA:  25    -0.357431069640E+03   -0.39148E-05   -0.93998E-05 10962   0.865E-04 0.217E-04
CGA:  26    -0.357431073899E+03   -0.42590E-05   -0.14569E-04 10962   0.492E-04 0.393E-04
CGA:  27    -0.357431081598E+03   -0.76996E-05   -0.13637E-04 10962   0.469E-04 0.303E-04
CGA:  28    -0.357431058076E+03    0.23523E-04   -0.43185E-04 10962   0.644E-03-0.123E-03
CGA:  29    -0.357431119546E+03   -0.61470E-04   -0.84168E-04 10962   0.187E-04 0.826E-04
CGA:  30    -0.357431118740E+03    0.80635E-06   -0.22448E-05 10962   0.852E-05 0.108E-04
  11 F= -.35743112E+03 E0= -.35743112E+03  d E =0.196669E+00  mag=    12.0000
       N       E                     dE             d eps       ncg     rms          ort
SDA:   1    -0.356960348611E+03    0.47077E+00    0.00000E+00 10962   0.150E+01 0.000E+00
CGA:   2    -0.357454226189E+03   -0.49388E+00   -0.49387E+00 10962   0.504E+00-0.463E-03
CGA:   3    -0.357562976840E+03   -0.10875E+00   -0.10876E+00 10962   0.181E+00-0.235E-04
CGA:   4    -0.357588273582E+03   -0.25297E-01   -0.25294E-01 10962   0.478E-01-0.538E-04
CGA:   5    -0.357598131674E+03   -0.98581E-02   -0.98479E-02 10962   0.157E-01-0.656E-04
CGA:   6    -0.357601063356E+03   -0.29317E-02   -0.29284E-02 10962   0.654E-02-0.212E-04
CGA:   7    -0.357602693022E+03   -0.16297E-02   -0.16245E-02 10962   0.287E-02-0.526E-04
CGA:   8    -0.357603370693E+03   -0.67767E-03   -0.67240E-03 10962   0.117E-02-0.501E-04
CGA:   9    -0.357603669400E+03   -0.29871E-03   -0.29920E-03 10962   0.415E-03 0.637E-05
CGA:  10    -0.357603776173E+03   -0.10677E-03   -0.10748E-03 10962   0.145E-03 0.955E-05
CGA:  11    -0.357603817281E+03   -0.41108E-04   -0.41486E-04 10962   0.603E-04 0.788E-05
CGA:  12    -0.357603833620E+03   -0.16339E-04   -0.17348E-04 10962   0.331E-04 0.189E-04
CGA:  13    -0.357603845707E+03   -0.12087E-04   -0.12690E-04 10962   0.261E-04 0.191E-04
CGA:  14    -0.357603856258E+03   -0.10551E-04   -0.10138E-04 10962   0.202E-04 0.612E-05
CGA:  15    -0.357603865198E+03   -0.89403E-05   -0.85912E-05 10962   0.161E-04 0.181E-04
  12 F= -.35760387E+03 E0= -.35760387E+03  d E =-.172746E+00  mag=    12.0000
       N       E                     dE             d eps       ncg     rms          ort
SDA:   1    -0.357572615166E+03    0.31241E-01    0.00000E+00 10962   0.124E+00 0.000E+00
CGA:   2    -0.357612615263E+03   -0.40000E-01   -0.40000E-01 10962   0.461E-01-0.175E-05
CGA:   3    -0.357621366329E+03   -0.87511E-02   -0.87465E-02 10962   0.184E-01-0.418E-04
CGA:   4    -0.357624013833E+03   -0.26475E-02   -0.26448E-02 10962   0.411E-02-0.193E-04
CGA:   5    -0.357624848044E+03   -0.83421E-03   -0.83320E-03 10962   0.157E-02-0.893E-05
CGA:   6    -0.357625126761E+03   -0.27872E-03   -0.27884E-03 10962   0.565E-03 0.733E-06
CGA:   7    -0.357625272835E+03   -0.14607E-03   -0.14610E-03 10962   0.282E-03 0.471E-06
CGA:   8    -0.357625341019E+03   -0.68184E-04   -0.68212E-04 10962   0.126E-03 0.332E-06
CGA:   9    -0.357625374529E+03   -0.33510E-04   -0.33826E-04 10962   0.575E-04 0.938E-05
CGA:  10    -0.357625390521E+03   -0.15992E-04   -0.16412E-04 10962   0.298E-04 0.119E-04
CGA:  11    -0.357625399930E+03   -0.94093E-05   -0.97945E-05 10962   0.210E-04 0.146E-04
  13 F= -.35762540E+03 E0= -.35762540E+03  d E =-.215347E-01  mag=    12.0000
       N       E                     dE             d eps       ncg     rms          ort
SDA:   1    -0.357526062466E+03    0.99328E-01    0.00000E+00 10962   0.264E+00 0.000E+00
CGA:   2    -0.357607784356E+03   -0.81722E-01   -0.81718E-01 10962   0.116E+00 0.268E-03
CGA:   3    -0.357627151995E+03   -0.19368E-01   -0.19359E-01 10962   0.435E-01-0.100E-03
CGA:   4    -0.357633894437E+03   -0.67424E-02   -0.67329E-02 10962   0.978E-02-0.810E-04
CGA:   5    -0.357635742031E+03   -0.18476E-02   -0.18460E-02 10962   0.345E-02-0.189E-04
CGA:   6    -0.357636383670E+03   -0.64164E-03   -0.64198E-03 10962   0.123E-02 0.339E-05
CGA:   7    -0.357636672951E+03   -0.28928E-03   -0.28935E-03 10962   0.599E-03 0.143E-05
CGA:   8    -0.357636819667E+03   -0.14672E-03   -0.14674E-03 10962   0.246E-03 0.644E-06
CGA:   9    -0.357636884863E+03   -0.65196E-04   -0.65248E-04 10962   0.108E-03 0.101E-04
CGA:  10    -0.357636914321E+03   -0.29458E-04   -0.29549E-04 10962   0.468E-04 0.137E-04
CGA:  11    -0.357636928404E+03   -0.14083E-04   -0.14122E-04 10962   0.276E-04 0.167E-04
CGA:  12    -0.357636938102E+03   -0.96984E-05   -0.98361E-05 10962   0.223E-04 0.191E-04
  14 F= -.35763694E+03 E0= -.35763694E+03  d E =-.115382E-01  mag=    12.0000
       N       E                     dE             d eps       ncg     rms          ort
SDA:   1    -0.357631632206E+03    0.52962E-02    0.00000E+00 10962   0.178E-01 0.000E+00
CGA:   2    -0.357635562266E+03   -0.39301E-02   -0.39404E-02 10962   0.109E-01 0.200E-03
CGA:   3    -0.357637314188E+03   -0.17519E-02   -0.17550E-02 10962   0.326E-02 0.251E-04
CGA:   4    -0.357637849821E+03   -0.53563E-03   -0.52986E-03 10962   0.855E-03-0.575E-04
CGA:   5    -0.357637990876E+03   -0.14105E-03   -0.13834E-03 10962   0.247E-03-0.291E-04
CGA:   6    -0.357638036205E+03   -0.45329E-04   -0.45041E-04 10962   0.870E-04-0.452E-05
CGA:   7    -0.357638055621E+03   -0.19415E-04   -0.19516E-04 10962   0.421E-04 0.441E-05
CGA:   8    -0.357638067141E+03   -0.11520E-04   -0.11442E-04 10962   0.258E-04 0.891E-05
CGA:   9    -0.357638075680E+03   -0.85394E-05   -0.83364E-05 10962   0.185E-04 0.124E-04
  15 F= -.35763808E+03 E0= -.35763808E+03  d E =-.113758E-02  mag=    12.0000
       N       E                     dE             d eps       ncg     rms          ort
SDA:   1    -0.357626057405E+03    0.12010E-01    0.00000E+00 10962   0.402E-01 0.000E+00
CGA:   2    -0.357634125507E+03   -0.80681E-02   -0.80855E-02 10962   0.238E-01 0.331E-03
CGA:   3    -0.357638117422E+03   -0.39919E-02   -0.39991E-02 10962   0.743E-02 0.800E-04
CGA:   4    -0.357639325762E+03   -0.12083E-02   -0.12012E-02 10962   0.180E-02-0.873E-04
CGA:   5    -0.357639618243E+03   -0.29248E-03   -0.28833E-03 10962   0.505E-03-0.529E-04
CGA:   6    -0.357639706696E+03   -0.88453E-04   -0.87555E-04 10962   0.160E-03-0.156E-04
CGA:   7    -0.357639738852E+03   -0.32156E-04   -0.32226E-04 10962   0.591E-04 0.258E-05
CGA:   8    -0.357639751995E+03   -0.13143E-04   -0.13266E-04 10962   0.256E-04 0.102E-04
CGA:   9    -0.357639759095E+03   -0.70997E-05   -0.70670E-05 10962   0.143E-04 0.965E-05
  16 F= -.35763976E+03 E0= -.35763976E+03  d E =-.168341E-02  mag=    12.0000
       N       E                     dE             d eps       ncg     rms          ort
SDA:   1    -0.357629718137E+03    0.10034E-01    0.00000E+00 10962   0.350E-01 0.000E+00
CGA:   2    -0.357636118592E+03   -0.64005E-02   -0.64148E-02 10962   0.195E-01 0.271E-03
CGA:   3    -0.357639543355E+03   -0.34248E-02   -0.34302E-02 10962   0.661E-02 0.911E-04
CGA:   4    -0.357640611699E+03   -0.10683E-02   -0.10640E-02 10962   0.156E-02-0.656E-04
CGA:   5    -0.357640861694E+03   -0.24999E-03   -0.24697E-03 10962   0.424E-03-0.473E-04
CGA:   6    -0.357640935322E+03   -0.73628E-04   -0.72895E-04 10962   0.130E-03-0.167E-04
CGA:   7    -0.357640960469E+03   -0.25147E-04   -0.25186E-04 10962   0.439E-04 0.208E-05
CGA:   8    -0.357640969079E+03   -0.86102E-05   -0.88171E-05 10962   0.169E-04 0.984E-05
  17 F= -.35764097E+03 E0= -.35764097E+03  d E =-.120998E-02  mag=    12.0000
       N       E                     dE             d eps       ncg     rms          ort
SDA:   1    -0.357462550114E+03    0.17841E+00    0.00000E+00 10962   0.583E+00 0.000E+00
CGA:   2    -0.357564018690E+03   -0.10147E+00   -0.10153E+00 10962   0.309E+00 0.116E-02
CGA:   3    -0.357619597439E+03   -0.55579E-01   -0.55591E-01 10962   0.111E+00 0.254E-03
CGA:   4    -0.357637295666E+03   -0.17698E-01   -0.17681E-01 10962   0.253E-01-0.347E-03
CGA:   5    -0.357641310172E+03   -0.40145E-02   -0.40081E-02 10962   0.626E-02-0.132E-03
CGA:   6    -0.357642383008E+03   -0.10728E-02   -0.10730E-02 10962   0.175E-02 0.201E-05
CGA:   7    -0.357642730360E+03   -0.34735E-03   -0.34758E-03 10962   0.530E-03 0.314E-04
CGA:   8    -0.357642843966E+03   -0.11361E-03   -0.11339E-03 10962   0.186E-03 0.490E-04
CGA:   9    -0.357642891937E+03   -0.47971E-04   -0.47026E-04 10962   0.727E-04 0.371E-04
CGA:  10    -0.357642914335E+03   -0.22398E-04   -0.21573E-04 10962   0.345E-04 0.204E-04
CGA:  11    -0.357642925400E+03   -0.11065E-04   -0.10611E-04 10962   0.167E-04 0.146E-04
CGA:  12    -0.357642930257E+03   -0.48565E-05   -0.49001E-05 10962   0.868E-05 0.109E-04
  18 F= -.35764293E+03 E0= -.35764293E+03  d E =-.196118E-02  mag=    12.0000
       N       E                     dE             d eps       ncg     rms          ort
SDA:   1    -0.357563346650E+03    0.79579E-01    0.00000E+00 10962   0.218E+00 0.000E+00
CGA:   2    -0.357616060799E+03   -0.52714E-01   -0.52695E-01 10962   0.133E+00 0.108E-02
CGA:   3    -0.357636437685E+03   -0.20377E-01   -0.20380E-01 10962   0.360E-01 0.840E-05
CGA:   4    -0.357642155324E+03   -0.57176E-02   -0.56944E-02 10962   0.811E-02-0.369E-03
CGA:   5    -0.357643450855E+03   -0.12955E-02   -0.12879E-02 10962   0.215E-02-0.132E-03
CGA:   6    -0.357643823547E+03   -0.37269E-03   -0.37259E-03 10962   0.632E-03-0.296E-05
CGA:   7    -0.357643949824E+03   -0.12628E-03   -0.12643E-03 10962   0.199E-03 0.112E-04
CGA:   8    -0.357644000290E+03   -0.50465E-04   -0.50472E-04 10962   0.954E-04-0.245E-06
CGA:   9    -0.357644027960E+03   -0.27670E-04   -0.27707E-04 10962   0.495E-04-0.526E-06
CGA:  10    -0.357644042087E+03   -0.14127E-04   -0.13858E-04 10962   0.225E-04 0.425E-05
CGA:  11    -0.357644048746E+03   -0.66591E-05   -0.64443E-05 10962   0.982E-05 0.518E-05
  19 F= -.35764405E+03 E0= -.35764405E+03  d E =-.111849E-02  mag=    12.0000
       N       E                     dE             d eps       ncg     rms          ort
SDA:   1    -0.357593561842E+03    0.50480E-01    0.00000E+00 10962   0.135E+00 0.000E+00
CGA:   2    -0.357628201636E+03   -0.34640E-01   -0.34617E-01 10962   0.836E-01 0.824E-03
CGA:   3    -0.357640720226E+03   -0.12519E-01   -0.12527E-01 10962   0.218E-01 0.781E-04
CGA:   4    -0.357644177236E+03   -0.34570E-02   -0.34401E-02 10962   0.480E-02-0.246E-03
CGA:   5    -0.357644968226E+03   -0.79099E-03   -0.78507E-03 10962   0.130E-02-0.103E-03
CGA:   6    -0.357645193137E+03   -0.22491E-03   -0.22520E-03 10962   0.389E-03 0.635E-05
CGA:   7    -0.357645265323E+03   -0.72186E-04   -0.73111E-04 10962   0.116E-03 0.295E-04
CGA:   8    -0.357645292747E+03   -0.27423E-04   -0.27378E-04 10962   0.499E-04 0.192E-04
CGA:   9    -0.357645308185E+03   -0.15439E-04   -0.14977E-04 10962   0.261E-04 0.113E-04
CGA:  10    -0.357645317338E+03   -0.91528E-05   -0.87474E-05 10962   0.151E-04 0.743E-05
  20 F= -.35764532E+03 E0= -.35764532E+03  d E =-.126859E-02  mag=    12.0000
       N       E                     dE             d eps       ncg     rms          ort
SDA:   1    -0.357584846741E+03    0.60461E-01    0.00000E+00 10962   0.153E+00 0.000E+00
CGA:   2    -0.357629321492E+03   -0.44475E-01   -0.44418E-01 10962   0.881E-01 0.862E-03
CGA:   3    -0.357642001507E+03   -0.12680E-01   -0.12680E-01 10962   0.226E-01-0.224E-04
CGA:   4    -0.357645535737E+03   -0.35342E-02   -0.35178E-02 10962   0.486E-02-0.241E-03
CGA:   5    -0.357646338106E+03   -0.80237E-03   -0.79848E-03 10962   0.135E-02-0.709E-04
CGA:   6    -0.357646578745E+03   -0.24064E-03   -0.24165E-03 10962   0.390E-03 0.270E-04
CGA:   7    -0.357646652463E+03   -0.73718E-04   -0.74783E-04 10962   0.122E-03 0.371E-04
CGA:   8    -0.357646683022E+03   -0.30559E-04   -0.30291E-04 10962   0.551E-04 0.232E-04
CGA:   9    -0.357646701309E+03   -0.18287E-04   -0.17654E-04 10962   0.308E-04 0.119E-04
CGA:  10    -0.357646713405E+03   -0.12096E-04   -0.11598E-04 10962   0.192E-04 0.542E-05
CGA:  11    -0.357646722341E+03   -0.89362E-05   -0.97066E-05 10962   0.201E-04-0.386E-05
CGA:  12    -0.357646678296E+03    0.44045E-04   -0.24151E-04 10962   0.260E-03-0.556E-04
CGA:  13    -0.357646736752E+03   -0.58456E-04   -0.58453E-04 10962   0.615E-04-0.736E-07
CGA:  14    -0.357646762722E+03   -0.25970E-04   -0.26006E-04 10962   0.343E-04-0.527E-05
CGA:  15    -0.357646776729E+03   -0.14007E-04   -0.13995E-04 10962   0.160E-04 0.348E-06
CGA:  16    -0.357646743735E+03    0.32994E-04   -0.27377E-04 10962   0.246E-03-0.474E-04
CGA:  17    -0.357646782830E+03   -0.39095E-04   -0.47702E-04 10962   0.362E-04 0.299E-04
CGA:  18    -0.357646801730E+03   -0.18900E-04   -0.18778E-04 10962   0.458E-04-0.247E-04
CGA:  19    -0.357646802214E+03   -0.48456E-06   -0.59170E-05 10962   0.940E-05 0.161E-04
  21 F= -.35764680E+03 E0= -.35764680E+03  d E =-.148488E-02  mag=    12.0000
       N       E                     dE             d eps       ncg     rms          ort
SDA:   1    -0.357522508845E+03    0.12429E+00    0.00000E+00 10962   0.303E+00 0.000E+00
CGA:   2    -0.357621224913E+03   -0.98716E-01   -0.98791E-01 10962   0.127E+00 0.627E-03
CGA:   3    -0.357640928094E+03   -0.19703E-01   -0.19665E-01 10962   0.384E-01-0.164E-03
CGA:   4    -0.357646606699E+03   -0.56786E-02   -0.56323E-02 10962   0.747E-02-0.180E-03
CGA:   5    -0.357647923882E+03   -0.13172E-02   -0.13097E-02 10962   0.234E-02-0.337E-04
CGA:   6    -0.357648333155E+03   -0.40927E-03   -0.41438E-03 10962   0.651E-03 0.235E-04
CGA:   7    -0.357648462667E+03   -0.12951E-03   -0.13348E-03 10962   0.238E-03 0.222E-04
CGA:   8    -0.357648523261E+03   -0.60594E-04   -0.62002E-04 10962   0.113E-03 0.118E-04
CGA:   9    -0.357648557135E+03   -0.33874E-04   -0.34224E-04 10962   0.586E-04 0.456E-05
CGA:  10    -0.357648576276E+03   -0.19141E-04   -0.19083E-04 10962   0.282E-04-0.123E-05
CGA:  11    -0.357648587088E+03   -0.10812E-04   -0.11278E-04 10962   0.232E-04-0.963E-05
CGA:  12    -0.357648574070E+03    0.13018E-04   -0.16617E-04 10962   0.157E-03-0.411E-04
CGA:  13    -0.357648607178E+03   -0.33109E-04   -0.32860E-04 10962   0.289E-04-0.135E-05
CGA:  14    -0.357648617749E+03   -0.10571E-04   -0.10561E-04 10962   0.116E-04-0.518E-06
CGA:  15    -0.357648624090E+03   -0.63406E-05   -0.90725E-05 10962   0.207E-04-0.667E-05
  22 F= -.35764862E+03 E0= -.35764862E+03  d E =-.182188E-02  mag=    12.0000
       N       E                     dE             d eps       ncg     rms          ort
SDA:   1    -0.356660239751E+03    0.98838E+00    0.00000E+00 10962   0.236E+01 0.000E+00
CGA:   2    -0.357465630435E+03   -0.80539E+00   -0.80553E+00 10962   0.773E+00 0.190E-02
CGA:   3    -0.357609437574E+03   -0.14381E+00   -0.14367E+00 10962   0.224E+00-0.862E-03
CGA:   4    -0.357639615146E+03   -0.30178E-01   -0.30074E-01 10962   0.477E-01-0.458E-03
CGA:   5    -0.357648577658E+03   -0.89625E-02   -0.89437E-02 10962   0.150E-01-0.102E-03
CGA:   6    -0.357651139134E+03   -0.25615E-02   -0.25692E-02 10962   0.431E-02 0.359E-04
CGA:   7    -0.357652078405E+03   -0.93927E-03   -0.94236E-03 10962   0.172E-02 0.215E-04
CGA:   8    -0.357652523194E+03   -0.44479E-03   -0.44443E-03 10962   0.854E-03-0.391E-05
CGA:   9    -0.357652775533E+03   -0.25234E-03   -0.25187E-03 10962   0.413E-03-0.938E-05
CGA:  10    -0.357652899542E+03   -0.12401E-03   -0.12295E-03 10962   0.175E-03-0.254E-04
CGA:  11    -0.357652954679E+03   -0.55138E-04   -0.54937E-04 10962   0.863E-04-0.350E-04
CGA:  12    -0.357652982419E+03   -0.27739E-04   -0.31287E-04 10962   0.792E-04-0.315E-04
CGA:  13    -0.357652994121E+03   -0.11702E-04   -0.38232E-04 10962   0.175E-03-0.642E-04
CGA:  14    -0.357653033886E+03   -0.39765E-04   -0.40498E-04 10962   0.310E-04 0.539E-05
CGA:  15    -0.357653046456E+03   -0.12570E-04   -0.12644E-04 10962   0.148E-04-0.209E-05
CGA:  16    -0.357653054555E+03   -0.80994E-05   -0.89719E-05 10962   0.158E-04-0.310E-05
  23 F= -.35765305E+03 E0= -.35765305E+03  d E =-.443047E-02  mag=    12.0000
       N       E                     dE             d eps       ncg     rms          ort
SDA:   1    -0.357528907910E+03    0.12414E+00    0.00000E+00 10962   0.332E+00 0.000E+00
CGA:   2    -0.357612878328E+03   -0.83970E-01   -0.84008E-01 10962   0.202E+00 0.211E-03
CGA:   3    -0.357643339783E+03   -0.30461E-01   -0.30481E-01 10962   0.561E-01 0.755E-04
CGA:   4    -0.357652223125E+03   -0.88833E-02   -0.88676E-02 10962   0.124E-01-0.878E-04
CGA:   5    -0.357654227768E+03   -0.20046E-02   -0.19926E-02 10962   0.331E-02-0.664E-04
CGA:   6    -0.357654850293E+03   -0.62253E-03   -0.61796E-03 10962   0.108E-02-0.305E-04
CGA:   7    -0.357655067083E+03   -0.21679E-03   -0.21782E-03 10962   0.367E-03 0.784E-05
CGA:   8    -0.357655152058E+03   -0.84975E-04   -0.86505E-04 10962   0.153E-03 0.167E-04
CGA:   9    -0.357655197057E+03   -0.44999E-04   -0.45064E-04 10962   0.722E-04 0.162E-05
CGA:  10    -0.357655221638E+03   -0.24581E-04   -0.24856E-04 10962   0.435E-04-0.125E-04
CGA:  11    -0.357655234888E+03   -0.13250E-04   -0.15813E-04 10962   0.417E-04-0.214E-04
CGA:  12    -0.357655194488E+03    0.40400E-04   -0.23874E-04 10962   0.309E-03-0.806E-04
CGA:  13    -0.357655256375E+03   -0.61887E-04   -0.62588E-04 10962   0.558E-04 0.424E-05
CGA:  14    -0.357655277754E+03   -0.21379E-04   -0.21403E-04 10962   0.237E-04-0.117E-05
CGA:  15    -0.357655288126E+03   -0.10372E-04   -0.10243E-04 10962   0.103E-04 0.154E-05
CGA:  16    -0.357655297471E+03   -0.93446E-05    0.11340E-04 10962   0.423E-05 0.234E-05
CGA:  17    -0.357655301455E+03   -0.39843E-05    0.16947E-04 10962   0.260E-05 0.179E-05
  24 F= -.35765530E+03 E0= -.35765530E+03  d E =-.224690E-02  mag=    12.0000
       N       E                     dE             d eps       ncg     rms          ort
SDA:   1    -0.357555745884E+03    0.99552E-01    0.00000E+00 10962   0.241E+00 0.000E+00
CGA:   2    -0.357631599003E+03   -0.75853E-01   -0.75827E-01 10962   0.111E+00-0.608E-03
CGA:   3    -0.357648197395E+03   -0.16598E-01   -0.16611E-01 10962   0.326E-01 0.407E-04
CGA:   4    -0.357653034117E+03   -0.48367E-02   -0.48713E-02 10962   0.638E-02 0.166E-03
CGA:   5    -0.357654120504E+03   -0.10864E-02   -0.10944E-02 10962   0.196E-02 0.461E-04
CGA:   6    -0.357654489836E+03   -0.36933E-03   -0.36616E-03 10962   0.596E-03-0.221E-04
CGA:   7    -0.357654622839E+03   -0.13300E-03   -0.12922E-03 10962   0.244E-03-0.362E-04
CGA:   8    -0.357654686876E+03   -0.64037E-04   -0.62785E-04 10962   0.131E-03-0.281E-04
CGA:   9    -0.357654721775E+03   -0.34899E-04   -0.34569E-04 10962   0.670E-04-0.189E-04
CGA:  10    -0.357654739288E+03   -0.17513E-04   -0.17379E-04 10962   0.280E-04-0.109E-04
CGA:  11    -0.357654745247E+03   -0.59591E-05   -0.59571E-05 10962   0.862E-05-0.402E-07
  25 F= -.35765475E+03 E0= -.35765475E+03  d E =0.556208E-03  mag=    12.0000
       N       E                     dE             d eps       ncg     rms          ort
SDA:   1    -0.357640239447E+03    0.14500E-01    0.00000E+00 10962   0.413E-01 0.000E+00
CGA:   2    -0.357650086114E+03   -0.98467E-02   -0.98490E-02 10962   0.247E-01 0.218E-04
CGA:   3    -0.357653857853E+03   -0.37717E-02   -0.37777E-02 10962   0.706E-02 0.349E-04
CGA:   4    -0.357654973475E+03   -0.11156E-02   -0.11173E-02 10962   0.161E-02 0.103E-04
CGA:   5    -0.357655225918E+03   -0.25244E-03   -0.25115E-03 10962   0.412E-03-0.978E-05
CGA:   6    -0.357655303706E+03   -0.77789E-04   -0.76601E-04 10962   0.138E-03-0.123E-04
CGA:   7    -0.357655330468E+03   -0.26762E-04   -0.26705E-04 10962   0.439E-04-0.731E-06
CGA:   8    -0.357655339609E+03   -0.91406E-05   -0.94018E-05 10962   0.163E-04 0.436E-05
  26 F= -.35765534E+03 E0= -.35765534E+03  d E =-.594361E-03  mag=    12.0000
       N       E                     dE             d eps       ncg     rms          ort
SDA:   1    -0.357615602914E+03    0.39728E-01    0.00000E+00 10962   0.101E+00 0.000E+00
CGA:   2    -0.357645884717E+03   -0.30282E-01   -0.30272E-01 10962   0.517E-01 0.350E-03
CGA:   3    -0.357653470784E+03   -0.75861E-02   -0.75881E-02 10962   0.144E-01 0.894E-05
CGA:   4    -0.357655698461E+03   -0.22277E-02   -0.22177E-02 10962   0.288E-02-0.913E-04
CGA:   5    -0.357656182453E+03   -0.48399E-03   -0.47975E-03 10962   0.860E-03-0.457E-04
CGA:   6    -0.357656337232E+03   -0.15478E-03   -0.15423E-03 10962   0.257E-03-0.755E-05
CGA:   7    -0.357656384051E+03   -0.46820E-04   -0.47675E-04 10962   0.803E-04 0.130E-04
CGA:   8    -0.357656402527E+03   -0.18476E-04   -0.18794E-04 10962   0.333E-04 0.120E-04
CGA:   9    -0.357656412809E+03   -0.10282E-04   -0.10183E-04 10962   0.167E-04 0.558E-05
CGA:  10    -0.357656418433E+03   -0.56239E-05   -0.55511E-05 10962   0.814E-05 0.203E-05
  27 F= -.35765642E+03 E0= -.35765642E+03  d E =-.107882E-02  mag=    12.0000
       N       E                     dE             d eps       ncg     rms          ort
SDA:   1    -0.356650874136E+03    0.10055E+01    0.00000E+00 10962   0.247E+01 0.000E+00
CGA:   2    -0.357424677708E+03   -0.77380E+00   -0.77368E+00 10962   0.111E+01 0.171E-02
CGA:   3    -0.357593374407E+03   -0.16870E+00   -0.16868E+00 10962   0.335E+00-0.199E-03
CGA:   4    -0.357643308941E+03   -0.49935E-01   -0.49885E-01 10962   0.650E-01-0.572E-03
CGA:   5    -0.357654242675E+03   -0.10934E-01   -0.10915E-01 10962   0.199E-01-0.235E-03
CGA:   6    -0.357657883542E+03   -0.36409E-02   -0.36379E-02 10962   0.579E-02-0.507E-04
CGA:   7    -0.357659053844E+03   -0.11703E-02   -0.11710E-02 10962   0.207E-02 0.159E-04
CGA:   8    -0.357659580859E+03   -0.52701E-03   -0.52695E-03 10962   0.975E-03 0.438E-05
CGA:   9    -0.357659863246E+03   -0.28239E-03   -0.28296E-03 10962   0.480E-03-0.117E-04
CGA:  10    -0.357659999367E+03   -0.13612E-03   -0.13654E-03 10962   0.189E-03-0.947E-05
CGA:  11    -0.357660055463E+03   -0.56097E-04   -0.57167E-04 10962   0.746E-04-0.170E-04
CGA:  12    -0.357660078799E+03   -0.23335E-04   -0.25268E-04 10962   0.458E-04-0.157E-04
CGA:  13    -0.357660092916E+03   -0.14117E-04   -0.15502E-04 10962   0.314E-04-0.805E-05
CGA:  14    -0.357660103846E+03   -0.10930E-04   -0.12213E-04 10962   0.212E-04-0.627E-05
CGA:  15    -0.357660110080E+03   -0.62341E-05   -0.62957E-05 10962   0.914E-05-0.694E-06
CGA:  16    -0.357660077990E+03    0.32090E-04   -0.17532E-04 10962   0.171E-03-0.331E-04
CGA:  17    -0.357660122756E+03   -0.44766E-04   -0.45860E-04 10962   0.162E-04 0.452E-05
CGA:  18    -0.357660119088E+03    0.36681E-05   -0.18725E-04 10962   0.118E-03-0.358E-04
CGA:  19    -0.357660127854E+03   -0.87660E-05   -0.19944E-04 10962   0.159E-04 0.310E-04
  28 F= -.35766013E+03 E0= -.35766013E+03  d E =-.370942E-02  mag=    12.0000
       N       E                     dE             d eps       ncg     rms          ort
SDA:   1    -0.357603930883E+03    0.56188E-01    0.00000E+00 10962   0.144E+00 0.000E+00
CGA:   2    -0.357645921635E+03   -0.41991E-01   -0.41991E-01 10962   0.724E-01-0.373E-04
CGA:   3    -0.357656842408E+03   -0.10921E-01   -0.10940E-01 10962   0.224E-01 0.456E-04
CGA:   4    -0.357660238249E+03   -0.33958E-02   -0.34040E-02 10962   0.484E-02 0.209E-04
CGA:   5    -0.357661009496E+03   -0.77125E-03   -0.76701E-03 10962   0.144E-02-0.148E-04
CGA:   6    -0.357661281454E+03   -0.27196E-03   -0.26788E-03 10962   0.458E-03-0.161E-04
CGA:   7    -0.357661376306E+03   -0.94852E-04   -0.94951E-04 10962   0.168E-03 0.338E-06
CGA:   8    -0.357661416093E+03   -0.39787E-04   -0.41135E-04 10962   0.722E-04 0.773E-05
CGA:   9    -0.357661436755E+03   -0.20662E-04   -0.21189E-04 10962   0.346E-04 0.408E-05
CGA:  10    -0.357661447773E+03   -0.11017E-04   -0.10937E-04 10962   0.166E-04-0.766E-06
CGA:  11    -0.357661453721E+03   -0.59486E-05   -0.58332E-05 10962   0.102E-04-0.304E-05
  29 F= -.35766145E+03 E0= -.35766145E+03  d E =-.132587E-02  mag=    12.0000
       N       E                     dE             d eps       ncg     rms          ort
SDA:   1    -0.357559909863E+03    0.10154E+00    0.00000E+00 10962   0.250E+00 0.000E+00
CGA:   2    -0.357634913267E+03   -0.75003E-01   -0.74986E-01 10962   0.122E+00-0.255E-03
CGA:   3    -0.357653199826E+03   -0.18287E-01   -0.18282E-01 10962   0.366E-01-0.454E-04
CGA:   4    -0.357658779795E+03   -0.55800E-02   -0.55915E-02 10962   0.722E-02 0.461E-04
CGA:   5    -0.357659953353E+03   -0.11736E-02   -0.11809E-02 10962   0.209E-02 0.343E-04
CGA:   6    -0.357660349784E+03   -0.39643E-03   -0.39818E-03 10962   0.643E-03 0.993E-05
CGA:   7    -0.357660486880E+03   -0.13710E-03   -0.13531E-03 10962   0.240E-03-0.126E-04
CGA:   8    -0.357660551194E+03   -0.64314E-04   -0.62921E-04 10962   0.125E-03-0.181E-04
CGA:   9    -0.357660586211E+03   -0.35017E-04   -0.34384E-04 10962   0.643E-04-0.146E-04
CGA:  10    -0.357660603874E+03   -0.17663E-04   -0.17287E-04 10962   0.277E-04-0.110E-04
CGA:  11    -0.357660610455E+03   -0.65807E-05   -0.64550E-05 10962   0.937E-05-0.227E-05
  30 F= -.35766061E+03 E0= -.35766061E+03  d E =0.843266E-03  mag=    12.0000
       N       E                     dE             d eps       ncg     rms          ort
SDA:   1    -0.357653885227E+03    0.67186E-02    0.00000E+00 10962   0.179E-01 0.000E+00
CGA:   2    -0.357658165196E+03   -0.42800E-02   -0.42691E-02 10962   0.110E-01-0.122E-03
CGA:   3    -0.357659859935E+03   -0.16947E-02   -0.16918E-02 10962   0.326E-02-0.206E-04
CGA:   4    -0.357660375500E+03   -0.51556E-03   -0.51937E-03 10962   0.793E-03 0.234E-04
CGA:   5    -0.357660495279E+03   -0.11978E-03   -0.12244E-03 10962   0.197E-03 0.169E-04
CGA:   6    -0.357660530400E+03   -0.35121E-04   -0.35860E-04 10962   0.627E-04 0.598E-05
CGA:   7    -0.357660545923E+03   -0.15523E-04   -0.15208E-04 10962   0.276E-04-0.525E-05
CGA:   8    -0.357660554053E+03   -0.81297E-05   -0.93589E-05 10962   0.310E-04-0.159E-04
  31 F= -.35766055E+03 E0= -.35766055E+03  d E =0.564019E-04  mag=    12.0000
       N       E                     dE             d eps       ncg     rms          ort
SDA:   1    -0.357625820069E+03    0.34726E-01    0.00000E+00 10962   0.891E-01 0.000E+00
CGA:   2    -0.357651992953E+03   -0.26173E-01   -0.26173E-01 10962   0.468E-01-0.451E-04
CGA:   3    -0.357658826142E+03   -0.68332E-02   -0.68428E-02 10962   0.129E-01 0.557E-04
CGA:   4    -0.357660813206E+03   -0.19871E-02   -0.19892E-02 10962   0.270E-02 0.145E-04
CGA:   5    -0.357661253455E+03   -0.44025E-03   -0.43886E-03 10962   0.775E-03-0.127E-04
CGA:   6    -0.357661395919E+03   -0.14246E-03   -0.14149E-03 10962   0.238E-03-0.113E-04
CGA:   7    -0.357661442580E+03   -0.46661E-04   -0.46617E-04 10962   0.806E-04-0.716E-06
CGA:   8    -0.357661461683E+03   -0.19102E-04   -0.19166E-04 10962   0.345E-04 0.267E-05
CGA:   9    -0.357661471382E+03   -0.96996E-05   -0.96748E-05 10962   0.156E-04 0.248E-05
  32 F= -.35766147E+03 E0= -.35766147E+03  d E =-.917329E-03  mag=    12.0000
       N       E                     dE             d eps       ncg     rms          ort
SDA:   1    -0.352952278064E+03    0.47092E+01    0.00000E+00 10962   0.117E+02 0.000E+00
CGA:   2    -0.356256458441E+03   -0.33042E+01   -0.33039E+01 10962   0.616E+01 0.588E-02
CGA:   3    -0.357189989370E+03   -0.93353E+00   -0.93373E+00 10962   0.185E+01 0.238E-02
CGA:   4    -0.357477869585E+03   -0.28788E+00   -0.28785E+00 10962   0.384E+00-0.790E-03
CGA:   5    -0.357543309403E+03   -0.65440E-01   -0.65421E-01 10962   0.119E+00-0.348E-03
CGA:   6    -0.357565460262E+03   -0.22151E-01   -0.22155E-01 10962   0.377E-01 0.438E-04
CGA:   7    -0.357573579249E+03   -0.81190E-02   -0.81250E-02 10962   0.151E-01 0.193E-03
CGA:   8    -0.357577390572E+03   -0.38113E-02   -0.38098E-02 10962   0.673E-02 0.201E-03
CGA:   9    -0.357579287035E+03   -0.18965E-02   -0.18959E-02 10962   0.305E-02 0.156E-04
CGA:  10    -0.357580169611E+03   -0.88258E-03   -0.88851E-03 10962   0.122E-02-0.131E-03
CGA:  11    -0.357580513698E+03   -0.34409E-03   -0.34737E-03 10962   0.488E-03-0.653E-04
CGA:  12    -0.357580672104E+03   -0.15841E-03   -0.16314E-03 10962   0.273E-03-0.461E-04
CGA:  13    -0.357580778853E+03   -0.10675E-03   -0.12155E-03 10962   0.248E-03-0.626E-04
CGA:  14    -0.357580856192E+03   -0.77339E-04   -0.79641E-04 10962   0.151E-03-0.154E-04
CGA:  15    -0.357580907581E+03   -0.51389E-04   -0.50502E-04 10962   0.758E-04 0.110E-04
CGA:  16    -0.357580931232E+03   -0.23651E-04   -0.23400E-04 10962   0.416E-04 0.288E-04
CGA:  17    -0.357580950653E+03   -0.19421E-04   -0.18448E-04 10962   0.311E-04 0.231E-04
CGA:  18    -0.357580966652E+03   -0.15999E-04   -0.30336E-04 10962   0.103E-03-0.208E-04
CGA:  19    -0.357580985290E+03   -0.18638E-04   -0.21354E-04 10962   0.160E-04 0.248E-04
CGA:  20    -0.357580994764E+03   -0.94746E-05   -0.92434E-05 10962   0.212E-04 0.147E-05
CGA:  21    -0.357581006339E+03   -0.11575E-04   -0.10027E-04 10962   0.299E-04 0.134E-04
CGA:  22    -0.357581021804E+03   -0.15464E-04   -0.18084E-04 10962   0.227E-04-0.939E-05
CGA:  23    -0.357581046887E+03   -0.25084E-04   -0.18088E-08 10962   0.111E-03-0.621E-05
CGA:  24    -0.357581077150E+03   -0.30263E-04   -0.35578E-04 10962   0.666E-04 0.297E-04
CGA:  25    -0.357581128463E+03   -0.51313E-04   -0.51296E-04 10962   0.597E-04-0.242E-04
CGA:  26    -0.357581135061E+03   -0.65980E-05   -0.10041E-04 10962   0.338E-04 0.976E-05
  33 F= -.35758114E+03 E0= -.35758114E+03  d E =0.803363E-01  mag=    12.0000
       N       E                     dE             d eps       ncg     rms          ort
SDA:   1    -0.357153054286E+03    0.42807E+00    0.00000E+00 10962   0.121E+01 0.000E+00
CGA:   2    -0.357540583648E+03   -0.38753E+00   -0.38721E+00 10962   0.400E+00-0.923E-04
CGA:   3    -0.357626981910E+03   -0.86398E-01   -0.86361E-01 10962   0.155E+00-0.260E-03
CGA:   4    -0.357648718107E+03   -0.21736E-01   -0.21732E-01 10962   0.379E-01-0.210E-04
CGA:   5    -0.357656402174E+03   -0.76841E-02   -0.76854E-02 10962   0.132E-01 0.236E-04
CGA:   6    -0.357658899197E+03   -0.24970E-02   -0.24857E-02 10962   0.533E-02-0.342E-04
CGA:   7    -0.357660252416E+03   -0.13532E-02   -0.13266E-02 10962   0.239E-02-0.109E-03
CGA:   8    -0.357660826288E+03   -0.57387E-03   -0.55151E-03 10962   0.988E-03-0.916E-04
CGA:   9    -0.357661083425E+03   -0.25714E-03   -0.25192E-03 10962   0.347E-03-0.257E-04
CGA:  10    -0.357661163302E+03   -0.79877E-04   -0.82559E-04 10962   0.112E-03 0.126E-04
CGA:  11    -0.357661194391E+03   -0.31089E-04   -0.31920E-04 10962   0.416E-04 0.486E-05
CGA:  12    -0.357661208611E+03   -0.14220E-04   -0.14482E-04 10962   0.249E-04 0.252E-05
CGA:  13    -0.357661219460E+03   -0.10849E-04   -0.10899E-04 10962   0.218E-04 0.258E-05
CGA:  14    -0.357661215513E+03    0.39464E-05   -0.36072E-04 10962   0.202E-03-0.372E-04
CGA:  15    -0.357661268040E+03   -0.52527E-04   -0.51123E-04 10962   0.355E-04-0.611E-05
CGA:  16    -0.357661278831E+03   -0.10790E-04   -0.28391E-04 10962   0.169E-03-0.502E-04
CGA:  17    -0.357661300504E+03   -0.21673E-04   -0.26892E-04 10962   0.155E-04 0.156E-04
CGA:  18    -0.357661307118E+03   -0.66137E-05   -0.63656E-05 10962   0.672E-05-0.255E-05
  34 F= -.35766131E+03 E0= -.35766131E+03  d E =-.801721E-01  mag=    12.0000
       N       E                     dE             d eps       ncg     rms          ort
SDA:   1    -0.357648555658E+03    0.12745E-01    0.00000E+00 10962   0.453E-01 0.000E+00
CGA:   2    -0.357662101632E+03   -0.13546E-01   -0.13533E-01 10962   0.196E-01-0.857E-04
CGA:   3    -0.357665342499E+03   -0.32409E-02   -0.32326E-02 10962   0.761E-02-0.323E-04
CGA:   4    -0.357666567239E+03   -0.12247E-02   -0.12276E-02 10962   0.174E-02 0.904E-05
CGA:   5    -0.357666863478E+03   -0.29624E-03   -0.29861E-03 10962   0.583E-03 0.890E-05
CGA:   6    -0.357666977995E+03   -0.11452E-03   -0.11376E-03 10962   0.228E-03-0.340E-05
CGA:   7    -0.357667036364E+03   -0.58369E-04   -0.55192E-04 10962   0.121E-03-0.193E-04
CGA:   8    -0.357667070808E+03   -0.34444E-04   -0.31402E-04 10962   0.669E-04-0.263E-04
CGA:   9    -0.357667087570E+03   -0.16763E-04   -0.15425E-04 10962   0.335E-04-0.135E-04
CGA:  10    -0.357667094155E+03   -0.65847E-05   -0.65776E-05 10962   0.123E-04-0.528E-07
  35 F= -.35766709E+03 E0= -.35766709E+03  d E =-.578704E-02  mag=    12.0000
       N       E                     dE             d eps       ncg     rms          ort
SDA:   1    -0.357619838059E+03    0.47250E-01    0.00000E+00 10962   0.131E+00 0.000E+00
CGA:   2    -0.357656290708E+03   -0.36453E-01   -0.36439E-01 10962   0.668E-01-0.167E-03
CGA:   3    -0.357666485486E+03   -0.10195E-01   -0.10185E-01 10962   0.225E-01-0.573E-04
CGA:   4    -0.357670270586E+03   -0.37851E-02   -0.37929E-02 10962   0.566E-02 0.373E-04
CGA:   5    -0.357671197321E+03   -0.92673E-03   -0.93133E-03 10962   0.159E-02 0.240E-04
CGA:   6    -0.357671510816E+03   -0.31349E-03   -0.31358E-03 10962   0.596E-03 0.412E-06
CGA:   7    -0.357671654723E+03   -0.14391E-03   -0.14148E-03 10962   0.278E-03-0.249E-04
CGA:   8    -0.357671728821E+03   -0.74099E-04   -0.72065E-04 10962   0.136E-03-0.346E-04
CGA:   9    -0.357671762366E+03   -0.33545E-04   -0.32694E-04 10962   0.590E-04-0.166E-04
CGA:  10    -0.357671774619E+03   -0.12252E-04   -0.12356E-04 10962   0.184E-04 0.121E-05
CGA:  11    -0.357671778957E+03   -0.43380E-05   -0.46014E-05 10962   0.748E-05 0.351E-05
  36 F= -.35767178E+03 E0= -.35767178E+03  d E =-.468480E-02  mag=    12.0000
       N       E                     dE             d eps       ncg     rms          ort
SDA:   1    -0.357665031983E+03    0.67426E-02    0.00000E+00 10962   0.209E-01 0.000E+00
CGA:   2    -0.357670145137E+03   -0.51132E-02   -0.51090E-02 10962   0.126E-01-0.653E-04
CGA:   3    -0.357672062468E+03   -0.19173E-02   -0.19133E-02 10962   0.358E-02-0.284E-04
CGA:   4    -0.357672640042E+03   -0.57757E-03   -0.58023E-03 10962   0.904E-03 0.182E-04
CGA:   5    -0.357672784297E+03   -0.14425E-03   -0.14505E-03 10962   0.238E-03 0.571E-05
CGA:   6    -0.357672827428E+03   -0.43131E-04   -0.42957E-04 10962   0.817E-04-0.162E-05
CGA:   7    -0.357672846714E+03   -0.19286E-04   -0.18984E-04 10962   0.367E-04-0.611E-05
CGA:   8    -0.357672857143E+03   -0.10429E-04   -0.10816E-04 10962   0.275E-04-0.103E-04
CGA:   9    -0.357672863353E+03   -0.62097E-05   -0.68167E-05 10962   0.206E-04-0.979E-05
  37 F= -.35767286E+03 E0= -.35767286E+03  d E =-.108440E-02  mag=    12.0000
       N       E                     dE             d eps       ncg     rms          ort
SDA:   1    -0.357649116864E+03    0.23740E-01    0.00000E+00 10962   0.684E-01 0.000E+00
CGA:   2    -0.357665262954E+03   -0.16146E-01   -0.16141E-01 10962   0.420E-01-0.119E-03
CGA:   3    -0.357671796928E+03   -0.65340E-02   -0.65282E-02 10962   0.120E-01-0.543E-04
CGA:   4    -0.357673684561E+03   -0.18876E-02   -0.18920E-02 10962   0.274E-02 0.339E-04
CGA:   5    -0.357674117040E+03   -0.43248E-03   -0.43350E-03 10962   0.715E-03 0.845E-05
CGA:   6    -0.357674248294E+03   -0.13125E-03   -0.13125E-03 10962   0.220E-03-0.162E-06
CGA:   7    -0.357674295424E+03   -0.47131E-04   -0.47025E-04 10962   0.804E-04-0.221E-05
CGA:   8    -0.357674316430E+03   -0.21006E-04   -0.21027E-04 10962   0.396E-04-0.519E-05
CGA:   9    -0.357674327429E+03   -0.10999E-04   -0.11214E-04 10962   0.216E-04-0.506E-05
CGA:  10    -0.357674332906E+03   -0.54770E-05   -0.55267E-05 10962   0.927E-05-0.162E-05
  38 F= -.35767433E+03 E0= -.35767433E+03  d E =-.146955E-02  mag=    12.0000
       N       E                     dE             d eps       ncg     rms          ort
SDA:   1    -0.357654363641E+03    0.19964E-01    0.00000E+00 10962   0.563E-01 0.000E+00
CGA:   2    -0.357668099355E+03   -0.13736E-01   -0.13734E-01 10962   0.336E-01-0.122E-03
CGA:   3    -0.357673298686E+03   -0.51993E-02   -0.51966E-02 10962   0.970E-02-0.332E-04
CGA:   4    -0.357674802062E+03   -0.15034E-02   -0.15075E-02 10962   0.204E-02 0.391E-04
CGA:   5    -0.357675128795E+03   -0.32673E-03   -0.32713E-03 10962   0.539E-03 0.401E-05
CGA:   6    -0.357675228573E+03   -0.99778E-04   -0.99654E-04 10962   0.169E-03-0.210E-05
CGA:   7    -0.357675263281E+03   -0.34708E-04   -0.34706E-04 10962   0.600E-04-0.986E-07
CGA:   8    -0.357675278522E+03   -0.15241E-04   -0.15248E-04 10962   0.290E-04-0.592E-06
CGA:   9    -0.357675287110E+03   -0.85878E-05   -0.86920E-05 10962   0.162E-04-0.172E-05
  39 F= -.35767529E+03 E0= -.35767529E+03  d E =-.954203E-03  mag=    12.0000
       N       E                     dE             d eps       ncg     rms          ort
SDA:   1    -0.357580988128E+03    0.94290E-01    0.00000E+00 10962   0.251E+00 0.000E+00
CGA:   2    -0.357648178143E+03   -0.67190E-01   -0.67195E-01 10962   0.134E+00-0.364E-03
CGA:   3    -0.357668959393E+03   -0.20781E-01   -0.20782E-01 10962   0.407E-01-0.132E-04
CGA:   4    -0.357675091812E+03   -0.61324E-02   -0.61436E-02 10962   0.765E-02 0.108E-03
CGA:   5    -0.357676352700E+03   -0.12609E-02   -0.12615E-02 10962   0.227E-02 0.665E-05
CGA:   6    -0.357676770536E+03   -0.41784E-03   -0.41745E-03 10962   0.674E-03-0.775E-05
CGA:   7    -0.357676912669E+03   -0.14213E-03   -0.14204E-03 10962   0.253E-03-0.432E-05
CGA:   8    -0.357676978782E+03   -0.66113E-04   -0.66262E-04 10962   0.128E-03-0.483E-05
CGA:   9    -0.357677016794E+03   -0.38012E-04   -0.38513E-04 10962   0.706E-04-0.694E-05
CGA:  10    -0.357677036711E+03   -0.19917E-04   -0.20210E-04 10962   0.301E-04-0.451E-05
CGA:  11    -0.357677043508E+03   -0.67970E-05   -0.67959E-05 10962   0.956E-05 0.393E-05
  40 F= -.35767704E+03 E0= -.35767704E+03  d E =-.175640E-02  mag=    12.0000
       N       E                     dE             d eps       ncg     rms          ort
SDA:   1    -0.357641461784E+03    0.35575E-01    0.00000E+00 10962   0.941E-01 0.000E+00
CGA:   2    -0.357668571536E+03   -0.27110E-01   -0.27127E-01 10962   0.427E-01-0.399E-03
CGA:   3    -0.357675662854E+03   -0.70913E-02   -0.70973E-02 10962   0.138E-01 0.742E-04
CGA:   4    -0.357677604657E+03   -0.19418E-02   -0.19512E-02 10962   0.242E-02 0.941E-04
CGA:   5    -0.357678036271E+03   -0.43161E-03   -0.43272E-03 10962   0.769E-03 0.200E-04
CGA:   6    -0.357678176133E+03   -0.13986E-03   -0.13971E-03 10962   0.231E-03-0.320E-05
CGA:   7    -0.357678226787E+03   -0.50655E-04   -0.50633E-04 10962   0.990E-04-0.347E-05
CGA:   8    -0.357678251581E+03   -0.24794E-04   -0.24730E-04 10962   0.482E-04 0.232E-05
CGA:   9    -0.357678265578E+03   -0.13997E-04   -0.13770E-04 10962   0.230E-04 0.441E-05
CGA:  10    -0.357678271998E+03   -0.64198E-05   -0.63161E-05 10962   0.860E-05 0.501E-05
  41 F= -.35767827E+03 E0= -.35767827E+03  d E =-.122849E-02  mag=    12.0000
       N       E                     dE             d eps       ncg     rms          ort
SDA:   1    -0.357673281163E+03    0.49844E-02    0.00000E+00 10962   0.125E-01 0.000E+00
CGA:   2    -0.357676464925E+03   -0.31838E-02   -0.31805E-02 10962   0.690E-02 0.122E-03
CGA:   3    -0.357677556546E+03   -0.10916E-02   -0.10919E-02 10962   0.209E-02 0.196E-05
CGA:   4    -0.357677886618E+03   -0.33007E-03   -0.32751E-03 10962   0.422E-03-0.370E-04
CGA:   5    -0.357677954088E+03   -0.67470E-04   -0.67206E-04 10962   0.121E-03-0.439E-05
CGA:   6    -0.357677975080E+03   -0.20993E-04   -0.21063E-04 10962   0.346E-04 0.155E-05
CGA:   7    -0.357677982032E+03   -0.69516E-05   -0.69751E-05 10962   0.117E-04 0.123E-05
  42 F= -.35767798E+03 E0= -.35767798E+03  d E =0.289966E-03  mag=    12.0000
       N       E                     dE             d eps       ncg     rms          ort
SDA:   1    -0.357674398756E+03    0.35763E-02    0.00000E+00 10962   0.102E-01 0.000E+00
CGA:   2    -0.357677379597E+03   -0.29808E-02   -0.29935E-02 10962   0.449E-02-0.176E-03
CGA:   3    -0.357678139763E+03   -0.76017E-03   -0.76210E-03 10962   0.143E-02 0.385E-04
CGA:   4    -0.357678329480E+03   -0.18972E-03   -0.19269E-03 10962   0.249E-03 0.340E-04
CGA:   5    -0.357678372780E+03   -0.43300E-04   -0.43785E-04 10962   0.769E-04 0.111E-04
CGA:   6    -0.357678387493E+03   -0.14713E-04   -0.14700E-04 10962   0.232E-04-0.453E-06
CGA:   7    -0.357678392651E+03   -0.51583E-05   -0.51680E-05 10962   0.106E-04-0.742E-06
  43 F= -.35767839E+03 E0= -.35767839E+03  d E =-.410620E-03  mag=    12.0000
       N       E                     dE             d eps       ncg     rms          ort
SDA:   1    -0.357537431385E+03    0.14096E+00    0.00000E+00 10962   0.363E+00 0.000E+00
CGA:   2    -0.357644730127E+03   -0.10730E+00   -0.10734E+00 10962   0.152E+00-0.654E-03
CGA:   3    -0.357671561356E+03   -0.26831E-01   -0.26839E-01 10962   0.483E-01 0.164E-03
CGA:   4    -0.357678099090E+03   -0.65377E-02   -0.65497E-02 10962   0.869E-02 0.135E-03
CGA:   5    -0.357679693796E+03   -0.15947E-02   -0.15954E-02 10962   0.278E-02 0.231E-04
CGA:   6    -0.357680191229E+03   -0.49743E-03   -0.49714E-03 10962   0.803E-03-0.101E-04
CGA:   7    -0.357680370532E+03   -0.17930E-03   -0.17938E-03 10962   0.343E-03-0.518E-05
CGA:   8    -0.357680460131E+03   -0.89599E-04   -0.89744E-04 10962   0.178E-03-0.275E-05
CGA:   9    -0.357680514156E+03   -0.54026E-04   -0.54336E-04 10962   0.947E-04-0.327E-05
CGA:  10    -0.357680538853E+03   -0.24697E-04   -0.24373E-04 10962   0.332E-04 0.699E-05
CGA:  11    -0.357680546561E+03   -0.77075E-05   -0.77233E-05 10962   0.109E-04 0.991E-05
  44 F= -.35768055E+03 E0= -.35768055E+03  d E =-.215391E-02  mag=    12.0000
       N       E                     dE             d eps       ncg     rms          ort
SDA:   1    -0.357595034483E+03    0.85504E-01    0.00000E+00 10962   0.218E+00 0.000E+00
CGA:   2    -0.357661390507E+03   -0.66356E-01   -0.66379E-01 10962   0.841E-01-0.380E-03
CGA:   3    -0.357677268122E+03   -0.15878E-01   -0.15881E-01 10962   0.249E-01 0.876E-04
CGA:   4    -0.357680566134E+03   -0.32980E-02   -0.33040E-02 10962   0.492E-02 0.591E-04
CGA:   5    -0.357681496095E+03   -0.92996E-03   -0.93062E-03 10962   0.155E-02 0.232E-04
CGA:   6    -0.357681767845E+03   -0.27175E-03   -0.27170E-03 10962   0.480E-03-0.163E-05
CGA:   7    -0.357681875249E+03   -0.10740E-03   -0.10741E-03 10962   0.210E-03-0.672E-06
CGA:   8    -0.357681930412E+03   -0.55163E-04   -0.55252E-04 10962   0.112E-03-0.184E-05
CGA:   9    -0.357681965343E+03   -0.34931E-04   -0.35410E-04 10962   0.621E-04-0.470E-05
CGA:  10    -0.357681980182E+03   -0.14839E-04   -0.14652E-04 10962   0.213E-04 0.736E-05
CGA:  11    -0.357681984891E+03   -0.47084E-05   -0.48540E-05 10962   0.786E-05 0.786E-05
  45 F= -.35768198E+03 E0= -.35768198E+03  d E =-.143833E-02  mag=    12.0000
       N       E                     dE             d eps       ncg     rms          ort
SDA:   1    -0.357617755257E+03    0.64225E-01    0.00000E+00 10962   0.161E+00 0.000E+00
CGA:   2    -0.357668415925E+03   -0.50661E-01   -0.50674E-01 10962   0.615E-01-0.216E-03
CGA:   3    -0.357679985428E+03   -0.11570E-01   -0.11574E-01 10962   0.174E-01 0.992E-04
CGA:   4    -0.357682295033E+03   -0.23096E-02   -0.23137E-02 10962   0.352E-02 0.384E-04
CGA:   5    -0.357682969934E+03   -0.67490E-03   -0.67538E-03 10962   0.109E-02 0.166E-04
CGA:   6    -0.357683161442E+03   -0.19151E-03   -0.19177E-03 10962   0.340E-03 0.575E-05
CGA:   7    -0.357683235965E+03   -0.74523E-04   -0.74500E-04 10962   0.143E-03 0.107E-04
CGA:   8    -0.357683273012E+03   -0.37047E-04   -0.36717E-04 10962   0.713E-04 0.101E-04
CGA:   9    -0.357683296606E+03   -0.23594E-04   -0.23193E-04 10962   0.383E-04 0.463E-05
CGA:  10    -0.357683307305E+03   -0.10700E-04   -0.10466E-04 10962   0.149E-04 0.671E-05
CGA:  11    -0.357683311153E+03   -0.38481E-05   -0.38638E-05 10962   0.617E-05 0.586E-05
  46 F= -.35768331E+03 E0= -.35768331E+03  d E =-.132626E-02  mag=    12.0000
       N       E                     dE             d eps       ncg     rms          ort
SDA:   1    -0.357449559919E+03    0.23375E+00    0.00000E+00 10962   0.583E+00 0.000E+00
CGA:   2    -0.357630734546E+03   -0.18117E+00   -0.18117E+00 10962   0.231E+00-0.176E-03
CGA:   3    -0.357672358723E+03   -0.41624E-01   -0.41631E-01 10962   0.697E-01 0.938E-04
CGA:   4    -0.357681679518E+03   -0.93208E-02   -0.93247E-02 10962   0.130E-01 0.176E-04
CGA:   5    -0.357684154075E+03   -0.24746E-02   -0.24741E-02 10962   0.417E-02-0.160E-04
CGA:   6    -0.357684877000E+03   -0.72293E-03   -0.72292E-03 10962   0.122E-02-0.114E-05
CGA:   7    -0.357685147115E+03   -0.27011E-03   -0.27011E-03 10962   0.513E-03 0.409E-05
CGA:   8    -0.357685282141E+03   -0.13503E-03   -0.13518E-03 10962   0.270E-03-0.378E-05
CGA:   9    -0.357685364892E+03   -0.82751E-04   -0.83512E-04 10962   0.147E-03-0.858E-05
CGA:  10    -0.357685403841E+03   -0.38949E-04   -0.38697E-04 10962   0.544E-04 0.553E-05
CGA:  11    -0.357685417408E+03   -0.13567E-04   -0.13454E-04 10962   0.187E-04 0.114E-04
CGA:  12    -0.357685423619E+03   -0.62109E-05   -0.60065E-05 10962   0.990E-05 0.560E-05
  47 F= -.35768542E+03 E0= -.35768542E+03  d E =-.211247E-02  mag=    12.0000
       N       E                     dE             d eps       ncg     rms          ort
SDA:   1    -0.343878479871E+03    0.13807E+02    0.00000E+00 10962   0.345E+02 0.000E+00
CGA:   2    -0.354434459242E+03   -0.10556E+02   -0.10551E+02 10962   0.138E+02 0.376E-01
CGA:   3    -0.356878285098E+03   -0.24438E+01   -0.24444E+01 10962   0.430E+01 0.845E-03
CGA:   4    -0.357466164821E+03   -0.58788E+00   -0.58803E+00 10962   0.793E+00-0.151E-02
CGA:   5    -0.357615501384E+03   -0.14934E+00   -0.14928E+00 10962   0.264E+00-0.124E-02
CGA:   6    -0.357661966368E+03   -0.46465E-01   -0.46446E-01 10962   0.770E-01-0.422E-03
CGA:   7    -0.357679370959E+03   -0.17405E-01   -0.17403E-01 10962   0.333E-01-0.729E-03
CGA:   8    -0.357688171453E+03   -0.88005E-02   -0.88427E-02 10962   0.174E-01-0.107E-02
CGA:   9    -0.357693186433E+03   -0.50150E-02   -0.50750E-02 10962   0.867E-02-0.843E-03
CGA:  10    -0.357695485444E+03   -0.22990E-02   -0.23151E-02 10962   0.316E-02-0.347E-03
CGA:  11    -0.357696339107E+03   -0.85366E-03   -0.85531E-03 10962   0.110E-02-0.365E-04
CGA:  12    -0.357696667350E+03   -0.32824E-03   -0.32337E-03 10962   0.469E-03 0.818E-04
CGA:  13    -0.357696837840E+03   -0.17049E-03   -0.16309E-03 10962   0.238E-03 0.905E-04
CGA:  14    -0.357696926885E+03   -0.89045E-04   -0.84367E-04 10962   0.114E-03 0.905E-04
CGA:  15    -0.357696968921E+03   -0.42036E-04   -0.41206E-04 10962   0.535E-04 0.635E-04
CGA:  16    -0.357696995499E+03   -0.26578E-04   -0.25687E-04 10962   0.396E-04 0.382E-05
CGA:  17    -0.357697025776E+03   -0.30278E-04   -0.24608E-04 10962   0.314E-04 0.179E-04
CGA:  18    -0.357697061212E+03   -0.35435E-04   -0.34554E-05 10962   0.302E-03-0.380E-04
CGA:  19    -0.357697096660E+03   -0.35448E-04   -0.55546E-04 10962   0.517E-04 0.626E-04
CGA:  20    -0.357697123962E+03   -0.27302E-04   -0.25584E-04 10962   0.345E-04-0.220E-04
CGA:  21    -0.357697138405E+03   -0.14443E-04   -0.20156E-04 10962   0.668E-04-0.107E-04
CGA:  22    -0.357697158760E+03   -0.20355E-04   -0.20124E-04 10962   0.413E-04-0.300E-05
CGA:  23    -0.357696648159E+03    0.51060E-03   -0.27564E-03 10962   0.221E-02-0.235E-03
CGA:  24    -0.357697131935E+03   -0.48378E-03   -0.57670E-03 10962   0.416E-03 0.137E-03
CGA:  25    -0.357697309431E+03   -0.17750E-03   -0.13067E-03 10962   0.797E-04-0.786E-04
CGA:  26    -0.357697305788E+03    0.36436E-05   -0.13115E-04 10962   0.229E-04 0.254E-04
  48 F= -.35769731E+03 E0= -.35769731E+03  d E =-.118822E-01  mag=    12.0000
       N       E                     dE             d eps       ncg     rms          ort
SDA:   1    -0.346181005301E+03    0.11516E+02    0.00000E+00 10962   0.291E+02 0.000E+00
CGA:   2    -0.354778915403E+03   -0.85979E+01   -0.86408E+01 10962   0.129E+02 0.998E-01
CGA:   3    -0.356924410467E+03   -0.21455E+01   -0.21336E+01 10962   0.362E+01 0.486E+00
CGA:   4    -0.357491976211E+03   -0.56757E+00   -0.56784E+00 10962   0.691E+00 0.447E-01
CGA:   5    -0.357617666651E+03   -0.12569E+00   -0.12562E+00 10962   0.232E+00 0.781E-03
CGA:   6    -0.357660403215E+03   -0.42737E-01   -0.42721E-01 10962   0.675E-01 0.195E-05
CGA:   7    -0.357675460917E+03   -0.15058E-01   -0.15013E-01 10962   0.289E-01-0.134E-03
CGA:   8    -0.357683190684E+03   -0.77298E-02   -0.76638E-02 10962   0.148E-01-0.190E-03
CGA:   9    -0.357687557211E+03   -0.43665E-02   -0.43118E-02 10962   0.715E-02-0.171E-03
CGA:  10    -0.357689597175E+03   -0.20400E-02   -0.20111E-02 10962   0.264E-02-0.920E-04
CGA:  11    -0.357690341935E+03   -0.74476E-03   -0.74196E-03 10962   0.949E-03-0.100E-04
CGA:  12    -0.357690643133E+03   -0.30120E-03   -0.30589E-03 10962   0.447E-03 0.186E-04
CGA:  13    -0.357690809954E+03   -0.16682E-03   -0.17155E-03 10962   0.256E-03 0.256E-04
CGA:  14    -0.357690905451E+03   -0.95497E-04   -0.10135E-03 10962   0.129E-03 0.329E-04
CGA:  15    -0.357690953443E+03   -0.47992E-04   -0.52267E-04 10962   0.631E-04 0.231E-04
CGA:  16    -0.357690983734E+03   -0.30290E-04   -0.31762E-04 10962   0.500E-04 0.138E-04
CGA:  17    -0.357691035688E+03   -0.51955E-04   -0.55021E-04 10962   0.137E-03-0.803E-05
CGA:  18    -0.357691119025E+03   -0.83337E-04   -0.91919E-04 10962   0.357E-03-0.321E-04
CGA:  19    -0.357691220256E+03   -0.10123E-03   -0.95468E-04 10962   0.409E-03-0.127E-04
CGA:  20    -0.357691329985E+03   -0.10973E-03   -0.11139E-03 10962   0.348E-03-0.247E-05
CGA:  21    -0.357691417492E+03   -0.87507E-04   -0.93790E-04 10962   0.294E-03 0.116E-04
CGA:  22    -0.357691495545E+03   -0.78052E-04   -0.84255E-04 10962   0.258E-03 0.194E-04
CGA:  23    -0.357691567538E+03   -0.71993E-04   -0.76947E-04 10962   0.229E-03 0.167E-04
CGA:  24    -0.357691636452E+03   -0.68914E-04   -0.70473E-04 10962   0.206E-03 0.373E-05
CGA:  25    -0.357691699508E+03   -0.63056E-04   -0.61274E-04 10962   0.180E-03-0.179E-04
CGA:  26    -0.357691751093E+03   -0.51585E-04   -0.46999E-04 10962   0.146E-03-0.338E-04
CGA:  27    -0.357691786436E+03   -0.35343E-04   -0.30488E-04 10962   0.109E-03-0.290E-04
CGA:  28    -0.357691808900E+03   -0.22464E-04   -0.20267E-04 10962   0.813E-04-0.125E-04
CGA:  29    -0.357691823241E+03   -0.14341E-04   -0.15347E-04 10962   0.640E-04 0.296E-05
CGA:  30    -0.357691833716E+03   -0.10475E-04   -0.13757E-04 10962   0.548E-04 0.136E-04
CGA:  31    -0.357691843468E+03   -0.97519E-05   -0.14181E-04 10962   0.514E-04 0.204E-04
SDA:  32    -0.357691854314E+03   -0.10846E-04   -0.15908E-04 10962   0.512E-04 0.262E-04
CGA:  33    -0.357691881588E+03   -0.27274E-04   -0.25671E-04 10962   0.293E-04 0.165E-04
CGA:  34    -0.357691896649E+03   -0.15061E-04   -0.15340E-04 10962   0.233E-04 0.235E-04
CGA:  35    -0.357691910382E+03   -0.13733E-04   -0.13436E-04 10962   0.478E-04 0.166E-05
CGA:  36    -0.357691928430E+03   -0.18049E-04   -0.19078E-04 10962   0.301E-04 0.229E-04
CGA:  37    -0.357691951684E+03   -0.23253E-04   -0.21670E-04 10962   0.317E-04 0.214E-04
CGA:  38    -0.357691963498E+03   -0.11815E-04   -0.10541E-04 10962   0.386E-04-0.150E-04
CGA:  39    -0.357691970923E+03   -0.74249E-05   -0.77064E-05 10962   0.385E-04 0.785E-05
  49 F= -.35769197E+03 E0= -.35769197E+03  d E =0.533486E-02  mag=    12.0000
       N       E                     dE             d eps       ncg     rms          ort
SDA:   1    -0.347489522756E+03    0.10202E+02    0.00000E+00 10962   0.254E+02 0.000E+00
CGA:   2    -0.355271435979E+03   -0.77819E+01   -0.77882E+01 10962   0.104E+02 0.142E-01
CGA:   3    -0.357089685056E+03   -0.18182E+01   -0.18202E+01 10962   0.319E+01 0.103E-01
CGA:   4    -0.357528863778E+03   -0.43918E+00   -0.43864E+00 10962   0.587E+00 0.375E-02
CGA:   5    -0.357639433440E+03   -0.11057E+00   -0.11046E+00 10962   0.197E+00-0.557E-03
CGA:   6    -0.357674337937E+03   -0.34904E-01   -0.34870E-01 10962   0.575E-01-0.256E-03
CGA:   7    -0.357687427608E+03   -0.13090E-01   -0.13019E-01 10962   0.251E-01-0.583E-03
CGA:   8    -0.357694120149E+03   -0.66925E-02   -0.66302E-02 10962   0.129E-01-0.775E-03
CGA:   9    -0.357697899888E+03   -0.37797E-02   -0.37545E-02 10962   0.640E-02-0.568E-03
CGA:  10    -0.357699669107E+03   -0.17692E-02   -0.17504E-02 10962   0.241E-02-0.338E-03
CGA:  11    -0.357700360542E+03   -0.69143E-03   -0.68427E-03 10962   0.929E-03-0.186E-03
CGA:  12    -0.357700634527E+03   -0.27399E-03   -0.27395E-03 10962   0.427E-03-0.228E-05
CGA:  13    -0.357700784505E+03   -0.14998E-03   -0.14935E-03 10962   0.224E-03 0.442E-04
CGA:  14    -0.357700874788E+03   -0.90284E-04   -0.89268E-04 10962   0.116E-03 0.412E-04
CGA:  15    -0.357700928339E+03   -0.53551E-04   -0.52699E-04 10962   0.651E-04 0.180E-04
CGA:  16    -0.357700971256E+03   -0.42917E-04   -0.44768E-04 10962   0.812E-04-0.745E-05
CGA:  17    -0.357701010577E+03   -0.39321E-04   -0.37527E-04 10962   0.923E-04 0.105E-04
CGA:  18    -0.357701071603E+03   -0.61026E-04   -0.10556E-03 10962   0.308E-03-0.680E-04
CGA:  19    -0.357701157746E+03   -0.86143E-04   -0.88898E-04 10962   0.529E-04 0.260E-04
CGA:  20    -0.357701206978E+03   -0.49232E-04    0.10795E-03 10962   0.421E-04 0.908E-05
CGA:  21    -0.357701212824E+03   -0.58457E-05   -0.10743E-04 10962   0.210E-04 0.286E-04
  50 F= -.35770121E+03 E0= -.35770121E+03  d E =-.924190E-02  mag=    12.0000
       N       E                     dE             d eps       ncg     rms          ort
SDA:   1    -0.356164795974E+03    0.15364E+01    0.00000E+00 10962   0.382E+01 0.000E+00
CGA:   2    -0.357309609398E+03   -0.11448E+01   -0.11449E+01 10962   0.168E+01-0.304E-03
CGA:   3    -0.357585980692E+03   -0.27637E+00   -0.27627E+00 10962   0.537E+00-0.430E-03
CGA:   4    -0.357664016477E+03   -0.78036E-01   -0.77964E-01 10962   0.100E+00-0.224E-03
CGA:   5    -0.357681777252E+03   -0.17761E-01   -0.17760E-01 10962   0.324E-01-0.164E-04
CGA:   6    -0.357687661759E+03   -0.58845E-02   -0.58651E-02 10962   0.964E-02-0.129E-03
CGA:   7    -0.357689870704E+03   -0.22089E-02   -0.21714E-02 10962   0.414E-02-0.361E-03
CGA:   8    -0.357690980195E+03   -0.11095E-02   -0.10896E-02 10962   0.220E-02-0.382E-03
CGA:   9    -0.357691576258E+03   -0.59606E-03   -0.59054E-03 10962   0.108E-02-0.198E-03
CGA:  10    -0.357691852051E+03   -0.27579E-03   -0.27329E-03 10962   0.392E-03-0.578E-04
CGA:  11    -0.357691959968E+03   -0.10792E-03   -0.10761E-03 10962   0.150E-03-0.107E-04
CGA:  12    -0.357691999541E+03   -0.39574E-04   -0.40551E-04 10962   0.659E-04 0.243E-04
CGA:  13    -0.357692016449E+03   -0.16907E-04   -0.19029E-04 10962   0.358E-04 0.315E-04
CGA:  14    -0.357692026760E+03   -0.10311E-04   -0.12399E-04 10962   0.227E-04 0.267E-04
CGA:  15    -0.357692039080E+03   -0.12320E-04   -0.11807E-04 10962   0.218E-04 0.240E-05
CGA:  16    -0.357692057206E+03   -0.18126E-04   -0.15116E-04 10962   0.195E-04 0.988E-05
CGA:  17    -0.357692069025E+03   -0.11819E-04   -0.10940E-04 10962   0.117E-04 0.172E-04
CGA:  18    -0.357692078385E+03   -0.93607E-05    0.10597E-04 10962   0.879E-05 0.631E-05
  51 F= -.35769208E+03 E0= -.35769208E+03  d E =0.913444E-02  mag=    12.0000
       N       E                     dE             d eps       ncg     rms          ort
SDA:   1    -0.353820172524E+03    0.38719E+01    0.00000E+00 10962   0.969E+01 0.000E+00
CGA:   2    -0.356764117623E+03   -0.29439E+01   -0.29442E+01 10962   0.407E+01 0.298E-02
CGA:   3    -0.357461007721E+03   -0.69689E+00   -0.69709E+00 10962   0.128E+01 0.747E-03
CGA:   4    -0.357638896943E+03   -0.17789E+00   -0.17795E+00 10962   0.231E+00-0.298E-03
CGA:   5    -0.357681562952E+03   -0.42666E-01   -0.42635E-01 10962   0.759E-01-0.270E-03
CGA:   6    -0.357694945768E+03   -0.13383E-01   -0.13384E-01 10962   0.217E-01-0.942E-05
CGA:   7    -0.357699720348E+03   -0.47746E-02   -0.47816E-02 10962   0.897E-02 0.842E-04
CGA:   8    -0.357702070890E+03   -0.23505E-02   -0.23508E-02 10962   0.448E-02 0.522E-05
CGA:   9    -0.357703416786E+03   -0.13459E-02   -0.13466E-02 10962   0.227E-02-0.738E-04
CGA:  10    -0.357704056188E+03   -0.63940E-03   -0.63913E-03 10962   0.859E-03-0.495E-04
CGA:  11    -0.357704292822E+03   -0.23663E-03   -0.23665E-03 10962   0.297E-03 0.146E-05
CGA:  12    -0.357704385253E+03   -0.92431E-04   -0.92289E-04 10962   0.129E-03 0.736E-05
CGA:  13    -0.357704434771E+03   -0.49518E-04   -0.49310E-04 10962   0.711E-04 0.257E-05
CGA:  14    -0.357704457664E+03   -0.22893E-04   -0.22642E-04 10962   0.287E-04 0.152E-04
CGA:  15    -0.357704463873E+03   -0.62091E-05   -0.74232E-05 10962   0.106E-04 0.146E-04
  52 F= -.35770446E+03 E0= -.35770446E+03  d E =-.123855E-01  mag=    12.0000
       N       E                     dE             d eps       ncg     rms          ort
SDA:   1    -0.357314448622E+03    0.39001E+00    0.00000E+00 10962   0.984E+00 0.000E+00
CGA:   2    -0.357594131923E+03   -0.27968E+00   -0.27969E+00 10962   0.518E+00 0.561E-03
CGA:   3    -0.357673905810E+03   -0.79774E-01   -0.79776E-01 10962   0.151E+00-0.147E-03
CGA:   4    -0.357696308732E+03   -0.22403E-01   -0.22396E-01 10962   0.286E-01-0.824E-04
CGA:   5    -0.357701025026E+03   -0.47163E-02   -0.47178E-02 10962   0.861E-02 0.943E-05
CGA:   6    -0.357702614596E+03   -0.15896E-02   -0.15914E-02 10962   0.248E-02 0.203E-04
CGA:   7    -0.357703123988E+03   -0.50939E-03   -0.50915E-03 10962   0.910E-03-0.485E-05
CGA:   8    -0.357703361374E+03   -0.23739E-03   -0.23738E-03 10962   0.454E-03-0.193E-04
CGA:   9    -0.357703493858E+03   -0.13248E-03   -0.13330E-03 10962   0.239E-03-0.215E-04
CGA:  10    -0.357703565090E+03   -0.71232E-04   -0.72879E-04 10962   0.112E-03-0.295E-04
CGA:  11    -0.357703596435E+03   -0.31345E-04   -0.33260E-04 10962   0.540E-04-0.264E-04
CGA:  12    -0.357703609901E+03   -0.13466E-04   -0.14173E-04 10962   0.273E-04-0.960E-05
CGA:  13    -0.357703617933E+03   -0.80320E-05   -0.81186E-05 10962   0.138E-04-0.986E-06
  53 F= -.35770362E+03 E0= -.35770362E+03  d E =0.845940E-03  mag=    12.0000
       N       E                     dE             d eps       ncg     rms          ort
SDA:   1    -0.356349125952E+03    0.13545E+01    0.00000E+00 10962   0.352E+01 0.000E+00
CGA:   2    -0.357262834915E+03   -0.91371E+00   -0.91374E+00 10962   0.211E+01-0.475E-03
CGA:   3    -0.357581667890E+03   -0.31883E+00   -0.31886E+00 10962   0.579E+00-0.480E-03
CGA:   4    -0.357669858755E+03   -0.88191E-01   -0.88216E-01 10962   0.120E+00 0.203E-03
CGA:   5    -0.357688800069E+03   -0.18941E-01   -0.18972E-01 10962   0.323E-01 0.260E-03
CGA:   6    -0.357694845200E+03   -0.60451E-02   -0.60481E-02 10962   0.985E-02 0.345E-04
CGA:   7    -0.357696859518E+03   -0.20143E-02   -0.20039E-02 10962   0.338E-02-0.192E-03
CGA:   8    -0.357697726192E+03   -0.86667E-03   -0.86801E-03 10962   0.171E-02-0.220E-03
CGA:   9    -0.357698195855E+03   -0.46966E-03   -0.47529E-03 10962   0.884E-03-0.139E-03
CGA:  10    -0.357698438419E+03   -0.24256E-03   -0.24588E-03 10962   0.382E-03-0.740E-04
CGA:  11    -0.357698540910E+03   -0.10249E-03   -0.10335E-03 10962   0.143E-03-0.247E-04
CGA:  12    -0.357698579185E+03   -0.38274E-04   -0.38071E-04 10962   0.565E-04 0.873E-05
CGA:  13    -0.357698594718E+03   -0.15533E-04   -0.15594E-04 10962   0.262E-04 0.188E-04
CGA:  14    -0.357698601740E+03   -0.70217E-05   -0.77078E-05 10962   0.140E-04 0.165E-04
  54 F= -.35769860E+03 E0= -.35769860E+03  d E =0.501619E-02  mag=    12.0000
       N       E                     dE             d eps       ncg     rms          ort
SDA:   1    -0.355866191074E+03    0.18324E+01    0.00000E+00 10962   0.464E+01 0.000E+00
CGA:   2    -0.357232221748E+03   -0.13660E+01   -0.13660E+01 10962   0.211E+01 0.934E-04
CGA:   3    -0.357580389606E+03   -0.34817E+00   -0.34817E+00 10962   0.655E+00 0.126E-04
CGA:   4    -0.357673460308E+03   -0.93071E-01   -0.93102E-01 10962   0.118E+00-0.311E-04
CGA:   5    -0.357694201098E+03   -0.20741E-01   -0.20736E-01 10962   0.381E-01-0.795E-04
CGA:   6    -0.357701058217E+03   -0.68571E-02   -0.68520E-02 10962   0.106E-01-0.813E-04
CGA:   7    -0.357703336801E+03   -0.22786E-02   -0.22767E-02 10962   0.429E-02-0.663E-04
CGA:   8    -0.357704449747E+03   -0.11129E-02   -0.11142E-02 10962   0.215E-02-0.690E-04
CGA:   9    -0.357705083630E+03   -0.63388E-03   -0.63761E-03 10962   0.113E-02-0.658E-04
CGA:  10    -0.357705394145E+03   -0.31051E-03   -0.31095E-03 10962   0.428E-03-0.118E-04
CGA:  11    -0.357705506370E+03   -0.11222E-03   -0.11178E-03 10962   0.137E-03 0.294E-04
CGA:  12    -0.357705545847E+03   -0.39477E-04   -0.39083E-04 10962   0.535E-04 0.238E-04
CGA:  13    -0.357705562592E+03   -0.16745E-04   -0.16500E-04 10962   0.256E-04 0.199E-04
CGA:  14    -0.357705569419E+03   -0.68270E-05   -0.74959E-05 10962   0.136E-04 0.176E-04
  55 F= -.35770557E+03 E0= -.35770557E+03  d E =-.696768E-02  mag=    12.0000
       N       E                     dE             d eps       ncg     rms          ort
SDA:   1    -0.354286446851E+03    0.34191E+01    0.00000E+00 10962   0.864E+01 0.000E+00
CGA:   2    -0.356816769081E+03   -0.25303E+01   -0.25299E+01 10962   0.392E+01 0.318E-02
CGA:   3    -0.357466226576E+03   -0.64946E+00   -0.64952E+00 10962   0.123E+01 0.407E-03
CGA:   4    -0.357641595560E+03   -0.17537E+00   -0.17547E+00 10962   0.224E+00 0.362E-03
CGA:   5    -0.357681227368E+03   -0.39632E-01   -0.39630E-01 10962   0.729E-01-0.670E-04
CGA:   6    -0.357694361028E+03   -0.13134E-01   -0.13132E-01 10962   0.208E-01-0.500E-04
CGA:   7    -0.357698821060E+03   -0.44600E-02   -0.44628E-02 10962   0.848E-02 0.142E-03
CGA:   8    -0.357701016533E+03   -0.21955E-02   -0.21921E-02 10962   0.410E-02 0.142E-03
CGA:   9    -0.357702258442E+03   -0.12419E-02   -0.12422E-02 10962   0.211E-02-0.495E-05
CGA:  10    -0.357702868493E+03   -0.61005E-03   -0.61232E-03 10962   0.838E-03-0.427E-04
CGA:  11    -0.357703101749E+03   -0.23326E-03   -0.23325E-03 10962   0.297E-03-0.491E-08
CGA:  12    -0.357703196876E+03   -0.95127E-04   -0.95490E-04 10962   0.137E-03-0.462E-05
CGA:  13    -0.357703249219E+03   -0.52343E-04   -0.53576E-04 10962   0.831E-04-0.815E-05
CGA:  14    -0.357703276782E+03   -0.27563E-04   -0.26773E-04 10962   0.361E-04 0.886E-05
CGA:  15    -0.357703285471E+03   -0.86891E-05   -0.91401E-05 10962   0.137E-04 0.153E-04
  56 F= -.35770329E+03 E0= -.35770329E+03  d E =0.228395E-02  mag=    12.0000
       N       E                     dE             d eps       ncg     rms          ort
SDA:   1    -0.356285174769E+03    0.14181E+01    0.00000E+00 10962   0.361E+01 0.000E+00
CGA:   2    -0.357317263967E+03   -0.10321E+01   -0.10320E+01 10962   0.181E+01 0.210E-02
CGA:   3    -0.357600632507E+03   -0.28337E+00   -0.28336E+00 10962   0.544E+00-0.837E-03
CGA:   4    -0.357681198274E+03   -0.80566E-01   -0.80501E-01 10962   0.103E+00-0.659E-03
CGA:   5    -0.357698559594E+03   -0.17361E-01   -0.17356E-01 10962   0.319E-01-0.853E-04
CGA:   6    -0.357704439497E+03   -0.58799E-02   -0.58761E-02 10962   0.920E-02-0.742E-04
CGA:   7    -0.357706425415E+03   -0.19859E-02   -0.19792E-02 10962   0.372E-02-0.306E-03
CGA:   8    -0.357707407144E+03   -0.98173E-03   -0.99776E-03 10962   0.205E-02-0.394E-03
CGA:   9    -0.357707945217E+03   -0.53807E-03   -0.55381E-03 10962   0.108E-02-0.249E-03
CGA:  10    -0.357708214139E+03   -0.26892E-03   -0.27402E-03 10962   0.415E-03-0.106E-03
CGA:  11    -0.357708322159E+03   -0.10802E-03   -0.10991E-03 10962   0.151E-03-0.380E-04
CGA:  12    -0.357708360607E+03   -0.38448E-04   -0.38162E-04 10962   0.563E-04 0.886E-05
CGA:  13    -0.357708375079E+03   -0.14472E-04   -0.14553E-04 10962   0.238E-04 0.189E-04
CGA:  14    -0.357708381182E+03   -0.61036E-05   -0.66488E-05 10962   0.114E-04 0.140E-04
  57 F= -.35770838E+03 E0= -.35770838E+03  d E =-.509571E-02  mag=    12.0000
       N       E                     dE             d eps       ncg     rms          ort
SDA:   1    -0.357640984212E+03    0.67391E-01    0.00000E+00 10962   0.173E+00 0.000E+00
CGA:   2    -0.357685993963E+03   -0.45010E-01   -0.45018E-01 10962   0.107E+00-0.102E-02
CGA:   3    -0.357702008420E+03   -0.16014E-01   -0.15983E-01 10962   0.288E-01-0.340E-03
CGA:   4    -0.357706424992E+03   -0.44166E-02   -0.44303E-02 10962   0.633E-02 0.145E-03
CGA:   5    -0.357707403540E+03   -0.97855E-03   -0.98897E-03 10962   0.165E-02 0.120E-03
CGA:   6    -0.357707725730E+03   -0.32219E-03   -0.32165E-03 10962   0.553E-03-0.118E-04
CGA:   7    -0.357707868334E+03   -0.14260E-03   -0.14922E-03 10962   0.356E-03-0.181E-03
CGA:   8    -0.357707914099E+03   -0.45765E-04   -0.10228E-03 10962   0.605E-03-0.298E-03
CGA:   9    -0.357707990449E+03   -0.76350E-04   -0.82018E-04 10962   0.100E-03 0.509E-04
CGA:  10    -0.357708006445E+03   -0.15996E-04   -0.18686E-04 10962   0.266E-04 0.387E-04
CGA:  11    -0.357708010308E+03   -0.38627E-05   -0.53004E-05 10962   0.104E-04 0.154E-04
  58 F= -.35770801E+03 E0= -.35770801E+03  d E =0.370874E-03  mag=    12.0000
       N       E                     dE             d eps       ncg     rms          ort
SDA:   1    -0.357639717643E+03    0.68289E-01    0.00000E+00 10962   0.174E+00 0.000E+00
CGA:   2    -0.357692134913E+03   -0.52417E-01   -0.52444E-01 10962   0.718E-01-0.459E-03
CGA:   3    -0.357704797018E+03   -0.12662E-01   -0.12677E-01 10962   0.223E-01 0.247E-03
CGA:   4    -0.357707831295E+03   -0.30343E-02   -0.30492E-02 10962   0.402E-02 0.147E-03
CGA:   5    -0.357708588980E+03   -0.75768E-03   -0.75810E-03 10962   0.130E-02 0.982E-05
CGA:   6    -0.357708816292E+03   -0.22731E-03   -0.22811E-03 10962   0.362E-03 0.155E-04
CGA:   7    -0.357708886317E+03   -0.70025E-04   -0.71475E-04 10962   0.126E-03 0.517E-04
CGA:   8    -0.357708913376E+03   -0.27059E-04   -0.28217E-04 10962   0.524E-04 0.435E-04
CGA:   9    -0.357708927893E+03   -0.14517E-04   -0.14790E-04 10962   0.274E-04 0.261E-04
CGA:  10    -0.357708936343E+03   -0.84505E-05   -0.86158E-05 10962   0.132E-04 0.163E-04
  59 F= -.35770894E+03 E0= -.35770894E+03  d E =-.926035E-03  mag=    12.0000
