       N       E                     dE             d eps       ncg     rms          ort
DAV:   1     0.253512938570E+04    0.25351E+04   -0.14414E+05  8262   0.160E+03
DAV:   2    -0.181606069936E+03   -0.27167E+04   -0.25844E+04  8262   0.425E+02
DAV:   3    -0.452714803797E+03   -0.27111E+03   -0.26702E+03  8262   0.150E+02
DAV:   4    -0.463035244615E+03   -0.10320E+02   -0.10080E+02  8262   0.257E+01
DAV:   5    -0.463484109340E+03   -0.44886E+00   -0.44732E+00  8262   0.437E+00
SDA:   6    -0.273537061156E+03    0.18995E+03   -0.44732E+00  8262   0.651E+03 0.000E+00
CGA:   7    -0.343134795120E+03   -0.69598E+02   -0.79602E+02  8262   0.834E+02-0.897E+01
CGA:   8    -0.356878621746E+03   -0.13744E+02   -0.13606E+02  8262   0.156E+02 0.176E+01
CGA:   9    -0.360524390155E+03   -0.36458E+01   -0.36472E+01  8262   0.574E+01-0.358E-01
CGA:  10    -0.361824130803E+03   -0.12997E+01   -0.12971E+01  8262   0.216E+01 0.392E-01
CGA:  11    -0.362358276915E+03   -0.53415E+00   -0.53467E+00  8262   0.735E+00-0.149E-01
CGA:  12    -0.362546626750E+03   -0.18835E+00   -0.18926E+00  8262   0.273E+00-0.156E-01
CGA:  13    -0.362617780440E+03   -0.71154E-01   -0.70824E-01  8262   0.827E-01 0.533E-02
CGA:  14    -0.362643292398E+03   -0.25512E-01   -0.25117E-01  8262   0.325E-01 0.434E-02
CGA:  15    -0.362655029509E+03   -0.11737E-01   -0.11853E-01  8262   0.154E-01-0.843E-03
CGA:  16    -0.362659550221E+03   -0.45207E-02   -0.44021E-02  8262   0.559E-02 0.159E-02
CGA:  17    -0.362661869664E+03   -0.23194E-02   -0.25512E-02  8262   0.342E-02-0.121E-02
CGA:  18    -0.362662634882E+03   -0.76522E-03   -0.74510E-03  8262   0.136E-02 0.424E-03
CGA:  19    -0.362662972557E+03   -0.33767E-03   -0.34185E-03  8262   0.571E-03 0.398E-03
CGA:  20    -0.362663197219E+03   -0.22466E-03   -0.21777E-03  8262   0.338E-03 0.109E-03
CGA:  21    -0.362663265975E+03   -0.68757E-04   -0.77818E-04  8262   0.216E-03 0.211E-03
CGA:  22    -0.362663304328E+03   -0.38352E-04   -0.42842E-04  8262   0.102E-03 0.127E-03
CGA:  23    -0.362663368339E+03   -0.64011E-04   -0.49531E-04  8262   0.650E-04 0.566E-04
CGA:  24    -0.362663359647E+03    0.86916E-05   -0.32267E-05  8262   0.629E-04 0.610E-04
   1 F= -.36266336E+03 E0= -.36266336E+03  d E =-.362663E+03  mag=    16.0000
       N       E                     dE             d eps       ncg     rms          ort
SDA:   1    -0.362722544260E+03   -0.59176E-01    0.00000E+00  8262   0.100E-01 0.000E+00
CGA:   2    -0.362724654958E+03   -0.21107E-02   -0.21200E-02  8262   0.221E-02 0.655E-03
CGA:   3    -0.362725333344E+03   -0.67839E-03   -0.68102E-03  8262   0.765E-03-0.418E-04
CGA:   4    -0.362725486329E+03   -0.15298E-03   -0.15278E-03  8262   0.256E-03-0.842E-05
CGA:   5    -0.362725531588E+03   -0.45260E-04   -0.47240E-04  8262   0.828E-04 0.485E-04
CGA:   6    -0.362725542600E+03   -0.11011E-04   -0.15078E-04  8262   0.520E-04 0.562E-04
CGA:   7    -0.362725545255E+03   -0.26555E-05   -0.64743E-05  8262   0.371E-04 0.392E-04
   2 F= -.36272555E+03 E0= -.36272555E+03  d E =-.621856E-01  mag=    16.0000
       N       E                     dE             d eps       ncg     rms          ort
SDA:   1    -0.360404012768E+03    0.23215E+01    0.00000E+00  8262   0.130E+02 0.000E+00
CGA:   2    -0.363394501328E+03   -0.29905E+01   -0.29908E+01  8262   0.312E+01-0.133E-01
CGA:   3    -0.364221069129E+03   -0.82657E+00   -0.82732E+00  8262   0.922E+00-0.167E-01
CGA:   4    -0.364405787054E+03   -0.18472E+00   -0.18466E+00  8262   0.281E+00-0.460E-02
CGA:   5    -0.364465765509E+03   -0.59978E-01   -0.59980E-01  8262   0.828E-01-0.134E-02
CGA:   6    -0.364489566261E+03   -0.23801E-01   -0.23805E-01  8262   0.411E-01-0.740E-04
CGA:   7    -0.364501478198E+03   -0.11912E-01   -0.11881E-01  8262   0.185E-01 0.411E-03
CGA:   8    -0.364506908896E+03   -0.54307E-02   -0.53971E-02  8262   0.642E-02 0.491E-03
CGA:   9    -0.364508925894E+03   -0.20170E-02   -0.20026E-02  8262   0.242E-02 0.177E-03
CGA:  10    -0.364509754514E+03   -0.82862E-03   -0.80865E-03  8262   0.102E-02 0.204E-03
CGA:  11    -0.364510131209E+03   -0.37670E-03   -0.35662E-03  8262   0.424E-03 0.223E-03
CGA:  12    -0.364510282721E+03   -0.15151E-03   -0.14452E-03  8262   0.162E-03 0.165E-03
CGA:  13    -0.364510324522E+03   -0.41800E-04   -0.45868E-04  8262   0.722E-04 0.115E-03
CGA:  14    -0.364510329023E+03   -0.45017E-05   -0.99066E-05  8262   0.469E-04 0.538E-04
   3 F= -.36451033E+03 E0= -.36451033E+03  d E =-.178478E+01  mag=    16.0000
       N       E                     dE             d eps       ncg     rms          ort
SDA:   1    -0.356779293097E+03    0.77310E+01    0.00000E+00  8262   0.305E+02 0.000E+00
CGA:   2    -0.363542985770E+03   -0.67637E+01   -0.67639E+01  8262   0.701E+01-0.236E-02
CGA:   3    -0.365351818461E+03   -0.18088E+01   -0.18097E+01  8262   0.231E+01-0.346E-01
CGA:   4    -0.365786863307E+03   -0.43504E+00   -0.43474E+00  8262   0.637E+00-0.927E-02
CGA:   5    -0.365926236403E+03   -0.13937E+00   -0.13935E+00  8262   0.185E+00-0.296E-02
CGA:   6    -0.365977691368E+03   -0.51455E-01   -0.51472E-01  8262   0.918E-01-0.354E-03
CGA:   7    -0.366004601566E+03   -0.26910E-01   -0.26885E-01  8262   0.419E-01 0.335E-03
CGA:   8    -0.366017198661E+03   -0.12597E-01   -0.12563E-01  8262   0.153E-01 0.506E-03
CGA:   9    -0.366021883944E+03   -0.46853E-02   -0.46652E-02  8262   0.553E-02 0.292E-03
CGA:  10    -0.366023840518E+03   -0.19566E-02   -0.19484E-02  8262   0.247E-02 0.715E-04
CGA:  11    -0.366024777728E+03   -0.93721E-03   -0.90960E-03  8262   0.108E-02 0.228E-03
CGA:  12    -0.366025233906E+03   -0.45618E-03   -0.44669E-03  8262   0.442E-03 0.730E-04
CGA:  13    -0.366025395591E+03   -0.16168E-03   -0.15730E-03  8262   0.135E-03 0.562E-04
CGA:  14    -0.366025432927E+03   -0.37336E-04   -0.37891E-04  8262   0.437E-04 0.539E-04
CGA:  15    -0.366025448233E+03   -0.15306E-04   -0.15455E-04  8262   0.189E-04 0.217E-04
CGA:  16    -0.366025453073E+03   -0.48392E-05   -0.57573E-05  8262   0.113E-04 0.164E-04
   4 F= -.36602545E+03 E0= -.36602545E+03  d E =-.151512E+01  mag=    16.0000
       N       E                     dE             d eps       ncg     rms          ort
SDA:   1    -0.359792929071E+03    0.62325E+01    0.00000E+00  8262   0.238E+02 0.000E+00
CGA:   2    -0.364806727596E+03   -0.50138E+01   -0.50182E+01  8262   0.545E+01 0.485E-01
CGA:   3    -0.366183705940E+03   -0.13770E+01   -0.13770E+01  8262   0.192E+01-0.214E-01
CGA:   4    -0.366528043688E+03   -0.34434E+00   -0.34391E+00  8262   0.452E+00-0.728E-02
CGA:   5    -0.366626620683E+03   -0.98577E-01   -0.98586E-01  8262   0.126E+00 0.238E-03
CGA:   6    -0.366659347361E+03   -0.32727E-01   -0.32710E-01  8262   0.584E-01 0.110E-02
CGA:   7    -0.366677530610E+03   -0.18183E-01   -0.18201E-01  8262   0.304E-01-0.288E-03
CGA:   8    -0.366687522194E+03   -0.99916E-02   -0.10049E-01  8262   0.138E-01-0.685E-03
CGA:   9    -0.366691646098E+03   -0.41239E-02   -0.41235E-02  8262   0.495E-02 0.608E-05
CGA:  10    -0.366693294614E+03   -0.16485E-02   -0.16448E-02  8262   0.195E-02 0.462E-04
CGA:  11    -0.366693996276E+03   -0.70166E-03   -0.68807E-03  8262   0.809E-03 0.149E-03
CGA:  12    -0.366694353469E+03   -0.35719E-03   -0.36442E-03  8262   0.388E-03-0.469E-04
CGA:  13    -0.366694500682E+03   -0.14721E-03   -0.16683E-03  8262   0.187E-03-0.107E-03
CGA:  14    -0.366694540946E+03   -0.40265E-04   -0.40141E-04  8262   0.551E-04 0.745E-05
CGA:  15    -0.366694234079E+03    0.30687E-03   -0.16535E-03  8262   0.136E-02-0.274E-03
CGA:  16    -0.366694577262E+03   -0.34318E-03   -0.36144E-03  8262   0.987E-04 0.734E-04
CGA:  17    -0.366694700533E+03   -0.12327E-03    0.14161E-03  8262   0.857E-04-0.497E-04
CGA:  18    -0.366694683844E+03    0.16689E-04   -0.61308E-05  8262   0.336E-04 0.532E-04
CGA:  19    -0.366694675721E+03    0.81235E-05   -0.21076E-05  8262   0.182E-04 0.246E-04
   5 F= -.36669468E+03 E0= -.36669468E+03  d E =-.669223E+00  mag=    16.0000
       N       E                     dE             d eps       ncg     rms          ort
SDA:   1    -0.358415353743E+03    0.82793E+01    0.00000E+00  8262   0.291E+02 0.000E+00
CGA:   2    -0.364649436115E+03   -0.62341E+01   -0.62910E+01  8262   0.716E+01 0.106E+00
CGA:   3    -0.366405411032E+03   -0.17560E+01   -0.17553E+01  8262   0.253E+01 0.466E-02
CGA:   4    -0.366846752510E+03   -0.44134E+00   -0.44128E+00  8262   0.539E+00 0.530E-03
CGA:   5    -0.366963909908E+03   -0.11716E+00   -0.11728E+00  8262   0.153E+00 0.274E-03
CGA:   6    -0.367002384236E+03   -0.38474E-01   -0.38559E-01  8262   0.690E-01 0.592E-03
CGA:   7    -0.367023909050E+03   -0.21525E-01   -0.21512E-01  8262   0.371E-01-0.189E-03
CGA:   8    -0.367036268177E+03   -0.12359E-01   -0.12334E-01  8262   0.171E-01-0.499E-03
CGA:   9    -0.367041484794E+03   -0.52166E-02   -0.52171E-02  8262   0.611E-02 0.322E-05
CGA:  10    -0.367043479553E+03   -0.19948E-02   -0.19973E-02  8262   0.230E-02 0.475E-04
CGA:  11    -0.367044308353E+03   -0.82880E-03   -0.83023E-03  8262   0.989E-03 0.778E-04
CGA:  12    -0.367044723098E+03   -0.41474E-03   -0.41609E-03  8262   0.441E-03-0.433E-04
CGA:  13    -0.367044898946E+03   -0.17585E-03   -0.18042E-03  8262   0.180E-03-0.908E-04
CGA:  14    -0.367044951164E+03   -0.52218E-04   -0.51950E-04  8262   0.512E-04-0.179E-04
CGA:  15    -0.367044992780E+03   -0.41616E-04    0.45570E-04  8262   0.187E-04-0.286E-05
CGA:  16    -0.367045009063E+03   -0.16283E-04    0.15463E-04  8262   0.772E-05 0.101E-05
CGA:  17    -0.367045034287E+03   -0.25225E-04    0.49919E-06  8262   0.353E-05 0.629E-06
CGA:  18    -0.367045050187E+03   -0.15900E-04    0.16088E-06  8262   0.176E-05 0.463E-06
CGA:  19    -0.367045062552E+03   -0.12365E-04    0.52489E-07  8262   0.924E-06 0.349E-06
CGA:  20    -0.367045078115E+03   -0.15563E-04    0.11955E-07  8262   0.483E-06 0.288E-06
CGA:  21    -0.367045085798E+03   -0.76823E-05    0.80078E-08  8262   0.255E-06 0.186E-06
   6 F= -.36704509E+03 E0= -.36704509E+03  d E =-.350410E+00  mag=    16.0000
       N       E                     dE             d eps       ncg     rms          ort
SDA:   1    -0.355460934027E+03    0.11584E+02    0.00000E+00  8262   0.360E+02 0.000E+00
CGA:   2    -0.363732199692E+03   -0.82713E+01   -0.83032E+01  8262   0.114E+02 0.159E-01
CGA:   3    -0.366245186604E+03   -0.25130E+01   -0.25153E+01  8262   0.359E+01 0.137E-01
CGA:   4    -0.366865743888E+03   -0.62056E+00   -0.62176E+00  8262   0.718E+00 0.528E-02
CGA:   5    -0.367021361218E+03   -0.15562E+00   -0.15573E+00  8262   0.208E+00 0.337E-03
CGA:   6    -0.367070063821E+03   -0.48703E-01   -0.48674E-01  8262   0.816E-01-0.267E-03
CGA:   7    -0.367094610443E+03   -0.24547E-01   -0.24537E-01  8262   0.418E-01-0.279E-03
CGA:   8    -0.367108525226E+03   -0.13915E-01   -0.13913E-01  8262   0.205E-01-0.344E-03
CGA:   9    -0.367114956067E+03   -0.64308E-02   -0.64294E-02  8262   0.774E-02-0.683E-04
CGA:  10    -0.367117486993E+03   -0.25309E-02   -0.25303E-02  8262   0.291E-02-0.592E-04
CGA:  11    -0.367118559293E+03   -0.10723E-02   -0.10753E-02  8262   0.136E-02-0.877E-04
CGA:  12    -0.367119103645E+03   -0.54435E-03   -0.55452E-03  8262   0.671E-03-0.129E-03
CGA:  13    -0.367119346937E+03   -0.24329E-03   -0.24996E-03  8262   0.255E-03-0.998E-04
CGA:  14    -0.367119430918E+03   -0.83981E-04   -0.86128E-04  8262   0.820E-04-0.445E-04
CGA:  15    -0.367118859659E+03    0.57126E-03   -0.30781E-03  8262   0.235E-02-0.378E-03
CGA:  16    -0.367119459846E+03   -0.60019E-03   -0.61741E-03  8262   0.238E-03 0.457E-04
CGA:  17    -0.367119549739E+03   -0.89893E-04   -0.82194E-04  8262   0.986E-04-0.274E-04
CGA:  18    -0.367119577043E+03   -0.27304E-04   -0.26659E-04  8262   0.238E-04-0.217E-05
CGA:  19    -0.367119577593E+03   -0.54965E-06   -0.50229E-05  8262   0.935E-05 0.120E-04
   7 F= -.36711958E+03 E0= -.36711958E+03  d E =-.744918E-01  mag=    16.0000
       N       E                     dE             d eps       ncg     rms          ort
SDA:   1    -0.351509063416E+03    0.15611E+02    0.00000E+00  8262   0.431E+02 0.000E+00
CGA:   2    -0.362499997677E+03   -0.10991E+02   -0.11059E+02  8262   0.172E+02 0.185E+00
CGA:   3    -0.366003882463E+03   -0.35039E+01   -0.35186E+01  8262   0.470E+01 0.131E+00
CGA:   4    -0.366825521639E+03   -0.82164E+00   -0.82375E+00  8262   0.889E+00 0.212E-01
CGA:   5    -0.367016540500E+03   -0.19102E+00   -0.19113E+00  8262   0.269E+00-0.542E-04
CGA:   6    -0.367079003050E+03   -0.62463E-01   -0.62335E-01  8262   0.995E-01-0.614E-03
CGA:   7    -0.367107629094E+03   -0.28626E-01   -0.28598E-01  8262   0.447E-01-0.223E-03
CGA:   8    -0.367121571194E+03   -0.13942E-01   -0.13925E-01  8262   0.199E-01-0.122E-03
CGA:   9    -0.367127861018E+03   -0.62898E-02   -0.62595E-02  8262   0.750E-02-0.198E-03
CGA:  10    -0.367130379636E+03   -0.25186E-02   -0.24984E-02  8262   0.306E-02-0.157E-03
CGA:  11    -0.367131503474E+03   -0.11238E-02   -0.11193E-02  8262   0.149E-02-0.534E-04
CGA:  12    -0.367132137248E+03   -0.63377E-03   -0.63062E-03  8262   0.803E-03-0.113E-03
CGA:  13    -0.367132415174E+03   -0.27793E-03   -0.27698E-03  8262   0.279E-03-0.129E-04
CGA:  14    -0.367132533443E+03   -0.11827E-03   -0.11667E-03  8262   0.118E-03-0.583E-04
CGA:  15    -0.367132567406E+03   -0.33963E-04   -0.33580E-04  8262   0.383E-04-0.453E-05
CGA:  16    -0.367132005174E+03    0.56223E-03   -0.30428E-03  8262   0.221E-02-0.274E-03
CGA:  17    -0.367132485978E+03   -0.48080E-03   -0.55879E-03  8262   0.257E-03 0.139E-03
CGA:  18    -0.367132623908E+03   -0.13793E-03   -0.98924E-04  8262   0.145E-03-0.922E-04
CGA:  19    -0.367132624111E+03   -0.20310E-06   -0.18266E-04  8262   0.534E-04 0.318E-04
   8 F= -.36713262E+03 E0= -.36713262E+03  d E =-.130465E-01  mag=    16.0000
       N       E                     dE             d eps       ncg     rms          ort
SDA:   1    -0.363891337076E+03    0.32413E+01    0.00000E+00  8262   0.978E+01 0.000E+00
CGA:   2    -0.366250297455E+03   -0.23590E+01   -0.23603E+01  8262   0.358E+01 0.176E-01
CGA:   3    -0.367000870099E+03   -0.75057E+00   -0.75083E+00  8262   0.107E+01 0.965E-02
CGA:   4    -0.367193481950E+03   -0.19261E+00   -0.19302E+00  8262   0.231E+00 0.102E-02
CGA:   5    -0.367242484148E+03   -0.49002E-01   -0.48941E-01  8262   0.687E-01-0.185E-03
CGA:   6    -0.367258171200E+03   -0.15687E-01   -0.15691E-01  8262   0.257E-01 0.115E-04
CGA:   7    -0.367265490484E+03   -0.73193E-02   -0.73676E-02  8262   0.115E-01 0.150E-03
CGA:   8    -0.367269037662E+03   -0.35472E-02   -0.35671E-02  8262   0.507E-02 0.694E-04
CGA:   9    -0.367270630766E+03   -0.15931E-02   -0.15983E-02  8262   0.196E-02 0.189E-04
CGA:  10    -0.367271278861E+03   -0.64810E-03   -0.64823E-03  8262   0.777E-03 0.562E-06
CGA:  11    -0.367271538014E+03   -0.25915E-03   -0.26614E-03  8262   0.346E-03 0.348E-04
CGA:  12    -0.367271667990E+03   -0.12998E-03   -0.13323E-03  8262   0.156E-03 0.197E-04
CGA:  13    -0.367271719160E+03   -0.51170E-04   -0.55373E-04  8262   0.545E-04 0.223E-04
CGA:  14    -0.367271740795E+03   -0.21636E-04   -0.22207E-04  8262   0.206E-04 0.358E-05
CGA:  15    -0.367271748384E+03   -0.75887E-05   -0.78630E-05  8262   0.753E-05 0.184E-05
   9 F= -.36727175E+03 E0= -.36727175E+03  d E =-.139124E+00  mag=    16.0000
       N       E                     dE             d eps       ncg     rms          ort
SDA:   1    -0.365397295261E+03    0.18744E+01    0.00000E+00  8262   0.594E+01 0.000E+00
CGA:   2    -0.366768841044E+03   -0.13715E+01   -0.13726E+01  8262   0.198E+01-0.330E-02
CGA:   3    -0.367219663290E+03   -0.45082E+00   -0.45139E+00  8262   0.617E+00 0.225E-02
CGA:   4    -0.367325782249E+03   -0.10612E+00   -0.10648E+00  8262   0.130E+00 0.832E-03
CGA:   5    -0.367353633674E+03   -0.27851E-01   -0.27809E-01  8262   0.387E-01-0.212E-03
CGA:   6    -0.367362920533E+03   -0.92869E-02   -0.92368E-02  8262   0.166E-01-0.240E-03
CGA:   7    -0.367367895855E+03   -0.49753E-02   -0.49724E-02  8262   0.847E-02-0.262E-04
CGA:   8    -0.367370618110E+03   -0.27223E-02   -0.27281E-02  8262   0.398E-02 0.503E-04
CGA:   9    -0.367371885554E+03   -0.12674E-02   -0.12703E-02  8262   0.155E-02 0.258E-04
CGA:  10    -0.367372386438E+03   -0.50088E-03   -0.50249E-03  8262   0.593E-03 0.166E-04
CGA:  11    -0.367372604792E+03   -0.21835E-03   -0.21780E-03  8262   0.277E-03-0.109E-04
CGA:  12    -0.367372699076E+03   -0.94284E-04   -0.95394E-04  8262   0.106E-03 0.181E-04
CGA:  13    -0.367372727866E+03   -0.28790E-04   -0.31968E-04  8262   0.312E-04 0.254E-04
CGA:  14    -0.367372734129E+03   -0.62623E-05   -0.87913E-05  8262   0.109E-04 0.144E-04
  10 F= -.36737273E+03 E0= -.36737273E+03  d E =-.100986E+00  mag=    16.0000
       N       E                     dE             d eps       ncg     rms          ort
SDA:   1    -0.365453012358E+03    0.19197E+01    0.00000E+00  8262   0.547E+01 0.000E+00
CGA:   2    -0.366820119547E+03   -0.13671E+01   -0.13671E+01  8262   0.219E+01-0.341E-02
CGA:   3    -0.367263361888E+03   -0.44324E+00   -0.44323E+00  8262   0.600E+00-0.987E-04
CGA:   4    -0.367366087937E+03   -0.10273E+00   -0.10284E+00  8262   0.115E+00 0.332E-03
CGA:   5    -0.367389865785E+03   -0.23778E-01   -0.23720E-01  8262   0.318E-01-0.419E-03
CGA:   6    -0.367396925797E+03   -0.70600E-02   -0.70233E-02  8262   0.111E-01-0.293E-03
CGA:   7    -0.367400046164E+03   -0.31204E-02   -0.31245E-02  8262   0.516E-02 0.677E-04
CGA:   8    -0.367401729481E+03   -0.16833E-02   -0.16851E-02  8262   0.262E-02 0.108E-03
CGA:   9    -0.367402613299E+03   -0.88382E-03   -0.88408E-03  8262   0.109E-02 0.279E-04
CGA:  10    -0.367402969416E+03   -0.35612E-03   -0.35638E-03  8262   0.409E-03 0.152E-04
CGA:  11    -0.367403106525E+03   -0.13711E-03   -0.13730E-03  8262   0.171E-03 0.248E-04
CGA:  12    -0.367403156752E+03   -0.50227E-04   -0.52626E-04  8262   0.677E-04 0.502E-04
CGA:  13    -0.367403175227E+03   -0.18475E-04   -0.21606E-04  8262   0.285E-04 0.350E-04
CGA:  14    -0.367403182173E+03   -0.69453E-05   -0.76757E-05  8262   0.123E-04 0.117E-04
  11 F= -.36740318E+03 E0= -.36740318E+03  d E =-.304480E-01  mag=    16.0000
       N       E                     dE             d eps       ncg     rms          ort
SDA:   1    -0.349762473892E+03    0.17641E+02    0.00000E+00  8262   0.469E+02 0.000E+00
CGA:   2    -0.362405196353E+03   -0.12643E+02   -0.12647E+02  8262   0.199E+02 0.128E-01
CGA:   3    -0.366173571334E+03   -0.37684E+01   -0.37709E+01  8262   0.486E+01 0.121E-01
CGA:   4    -0.367019967782E+03   -0.84640E+00   -0.84665E+00  8262   0.958E+00-0.245E-03
CGA:   5    -0.367218047892E+03   -0.19808E+00   -0.19798E+00  8262   0.267E+00-0.136E-02
CGA:   6    -0.367276215885E+03   -0.58168E-01   -0.58076E-01  8262   0.867E-01-0.124E-02
CGA:   7    -0.367300413443E+03   -0.24198E-01   -0.24186E-01  8262   0.379E-01-0.806E-03
CGA:   8    -0.367312479597E+03   -0.12066E-01   -0.12085E-01  8262   0.185E-01-0.715E-03
CGA:   9    -0.367318498639E+03   -0.60190E-02   -0.60446E-02  8262   0.749E-02-0.728E-03
CGA:  10    -0.367320922742E+03   -0.24241E-02   -0.24489E-02  8262   0.293E-02-0.596E-03
CGA:  11    -0.367321919516E+03   -0.99677E-03   -0.10169E-02  8262   0.145E-02-0.267E-03
CGA:  12    -0.367322484014E+03   -0.56450E-03   -0.59322E-03  8262   0.882E-03-0.199E-03
CGA:  13    -0.367322753643E+03   -0.26963E-03   -0.26775E-03  8262   0.307E-03 0.462E-04
CGA:  14    -0.367322882756E+03   -0.12911E-03   -0.13761E-03  8262   0.154E-03-0.759E-04
CGA:  15    -0.367322911481E+03   -0.28724E-04   -0.29901E-04  8262   0.531E-04 0.192E-04
CGA:  16    -0.367322930030E+03   -0.18549E-04   -0.18516E-04  8262   0.208E-04-0.558E-05
CGA:  17    -0.367322942230E+03   -0.12200E-04    0.78278E-04  8262   0.983E-05 0.173E-05
CGA:  18    -0.367322943272E+03   -0.10419E-05   -0.18090E-05  8262   0.460E-05 0.525E-05
  12 F= -.36732294E+03 E0= -.36732294E+03  d E =0.802389E-01  mag=    16.0000
       N       E                     dE             d eps       ncg     rms          ort
SDA:   1    -0.362849604640E+03    0.44733E+01    0.00000E+00  8262   0.119E+02 0.000E+00
CGA:   2    -0.366105089809E+03   -0.32555E+01   -0.32554E+01  8262   0.520E+01 0.174E-02
CGA:   3    -0.367092798720E+03   -0.98771E+00   -0.98709E+00  8262   0.127E+01-0.638E-02
CGA:   4    -0.367323326909E+03   -0.23053E+00   -0.23031E+00  8262   0.264E+00-0.226E-02
CGA:   5    -0.367376570392E+03   -0.53243E-01   -0.53273E-01  8262   0.748E-01 0.352E-03
CGA:   6    -0.367393012796E+03   -0.16442E-01   -0.16484E-01  8262   0.244E-01 0.640E-03
CGA:   7    -0.367399618187E+03   -0.66054E-02   -0.66097E-02  8262   0.961E-02 0.361E-03
CGA:   8    -0.367402525672E+03   -0.29075E-02   -0.29021E-02  8262   0.404E-02 0.302E-03
CGA:   9    -0.367403740596E+03   -0.12149E-02   -0.12113E-02  8262   0.138E-02 0.351E-03
CGA:  10    -0.367404150524E+03   -0.40993E-03   -0.41141E-03  8262   0.455E-03 0.229E-03
CGA:  11    -0.367404272717E+03   -0.12219E-03   -0.12874E-03  8262   0.185E-03 0.170E-03
CGA:  12    -0.367404320979E+03   -0.48263E-04   -0.55424E-04  8262   0.102E-03 0.117E-03
CGA:  13    -0.367404344420E+03   -0.23441E-04   -0.25077E-04  8262   0.546E-04 0.542E-04
CGA:  14    -0.367404350585E+03   -0.61644E-05   -0.10166E-04  8262   0.431E-04 0.454E-04
  13 F= -.36740435E+03 E0= -.36740435E+03  d E =-.814073E-01  mag=    16.0000
       N       E                     dE             d eps       ncg     rms          ort
SDA:   1    -0.364804817939E+03    0.25995E+01    0.00000E+00  8262   0.704E+01 0.000E+00
CGA:   2    -0.366690839242E+03   -0.18860E+01   -0.18860E+01  8262   0.306E+01 0.439E-02
CGA:   3    -0.367276647992E+03   -0.58581E+00   -0.58604E+00  8262   0.773E+00 0.173E-02
CGA:   4    -0.367411323761E+03   -0.13468E+00   -0.13470E+00  8262   0.153E+00 0.172E-03
CGA:   5    -0.367442891680E+03   -0.31568E-01   -0.31578E-01  8262   0.431E-01 0.174E-03
CGA:   6    -0.367452298335E+03   -0.94067E-02   -0.94157E-02  8262   0.144E-01 0.225E-03
CGA:   7    -0.367456360402E+03   -0.40621E-02   -0.40625E-02  8262   0.631E-02-0.211E-04
CGA:   8    -0.367458374309E+03   -0.20139E-02   -0.20221E-02  8262   0.307E-02-0.127E-03
CGA:   9    -0.367459344550E+03   -0.97024E-03   -0.97685E-03  8262   0.120E-02-0.101E-03
CGA:  10    -0.367459715677E+03   -0.37113E-03   -0.37304E-03  8262   0.439E-03-0.327E-04
CGA:  11    -0.367459869879E+03   -0.15420E-03   -0.15738E-03  8262   0.216E-03-0.311E-04
CGA:  12    -0.367459955217E+03   -0.85338E-04   -0.92128E-04  8262   0.137E-03-0.361E-04
CGA:  13    -0.367459999612E+03   -0.44395E-04   -0.67744E-04  8262   0.124E-03-0.745E-04
CGA:  14    -0.367460022093E+03   -0.22481E-04   -0.25150E-04  8262   0.174E-04 0.287E-04
CGA:  15    -0.367460030812E+03   -0.87186E-05   -0.97489E-05  8262   0.124E-04-0.632E-05
  14 F= -.36746003E+03 E0= -.36746003E+03  d E =-.556802E-01  mag=    16.0000
       N       E                     dE             d eps       ncg     rms          ort
SDA:   1    -0.367128622212E+03    0.33140E+00    0.00000E+00  8262   0.921E+00 0.000E+00
CGA:   2    -0.367364881674E+03   -0.23626E+00   -0.23633E+00  8262   0.406E+00 0.191E-02
CGA:   3    -0.367441405644E+03   -0.76524E-01   -0.76552E-01  8262   0.108E+00 0.273E-03
CGA:   4    -0.367461315331E+03   -0.19910E-01   -0.19906E-01  8262   0.231E-01-0.506E-04
CGA:   5    -0.367466020168E+03   -0.47048E-02   -0.46808E-02  8262   0.680E-02-0.322E-03
CGA:   6    -0.367467586624E+03   -0.15665E-02   -0.15549E-02  8262   0.250E-02-0.271E-03
CGA:   7    -0.367468240526E+03   -0.65390E-03   -0.65391E-03  8262   0.101E-02-0.643E-04
CGA:   8    -0.367468530707E+03   -0.29018E-03   -0.29016E-03  8262   0.409E-03 0.576E-06
CGA:   9    -0.367468676439E+03   -0.14573E-03   -0.15685E-03  8262   0.230E-03-0.102E-03
CGA:  10    -0.367468736006E+03   -0.59567E-04   -0.75461E-04  8262   0.159E-03-0.101E-03
CGA:  11    -0.367468470197E+03    0.26581E-03   -0.11885E-03  8262   0.157E-02-0.368E-03
CGA:  12    -0.367468764213E+03   -0.29402E-03   -0.30859E-03  8262   0.163E-03 0.101E-03
CGA:  13    -0.367468831819E+03   -0.67606E-04   -0.68815E-04  8262   0.714E-04-0.192E-04
CGA:  14    -0.367468833593E+03   -0.17745E-05   -0.93262E-05  8262   0.380E-04 0.403E-04
  15 F= -.36746883E+03 E0= -.36746883E+03  d E =-.880278E-02  mag=    16.0000
       N       E                     dE             d eps       ncg     rms          ort
SDA:   1    -0.366794354460E+03    0.67448E+00    0.00000E+00  8262   0.175E+01 0.000E+00
CGA:   2    -0.367297919087E+03   -0.50356E+00   -0.50368E+00  8262   0.717E+00 0.292E-02
CGA:   3    -0.367434785980E+03   -0.13687E+00   -0.13666E+00  8262   0.170E+00-0.157E-02
CGA:   4    -0.367464036347E+03   -0.29250E-01   -0.29187E-01  8262   0.327E-01-0.504E-03
CGA:   5    -0.367470640586E+03   -0.66042E-02   -0.65822E-02  8262   0.880E-02-0.220E-03
CGA:   6    -0.367472491632E+03   -0.18510E-02   -0.18464E-02  8262   0.259E-02-0.559E-04
CGA:   7    -0.367473161023E+03   -0.66939E-03   -0.67119E-03  8262   0.101E-02 0.507E-04
CGA:   8    -0.367473475321E+03   -0.31430E-03   -0.31373E-03  8262   0.471E-03 0.569E-04
CGA:   9    -0.367473637776E+03   -0.16246E-03   -0.16155E-03  8262   0.199E-03 0.297E-04
CGA:  10    -0.367473705348E+03   -0.67572E-04   -0.67370E-04  8262   0.758E-04 0.852E-05
CGA:  11    -0.367473728136E+03   -0.22788E-04   -0.22886E-04  8262   0.295E-04 0.135E-04
CGA:  12    -0.367473736346E+03   -0.82097E-05   -0.87939E-05  8262   0.142E-04 0.135E-04
  16 F= -.36747374E+03 E0= -.36747374E+03  d E =-.490275E-02  mag=    16.0000
       N       E                     dE             d eps       ncg     rms          ort
SDA:   1    -0.334712392120E+03    0.32761E+02    0.00000E+00  8262   0.786E+02 0.000E+00
CGA:   2    -0.357340548532E+03   -0.22628E+02   -0.22628E+02  8262   0.326E+02 0.431E-01
CGA:   3    -0.363511774067E+03   -0.61712E+01   -0.61826E+01  8262   0.849E+01 0.393E-01
CGA:   4    -0.365081563673E+03   -0.15698E+01   -0.15697E+01  8262   0.186E+01 0.258E-02
CGA:   5    -0.365468875778E+03   -0.38731E+00   -0.38733E+00  8262   0.564E+00 0.913E-03
CGA:   6    -0.365599927850E+03   -0.13105E+00   -0.13117E+00  8262   0.215E+00 0.255E-02
CGA:   7    -0.365658833693E+03   -0.58906E-01   -0.58906E-01  8262   0.841E-01 0.495E-03
CGA:   8    -0.365684311563E+03   -0.25478E-01   -0.25483E-01  8262   0.346E-01-0.196E-03
CGA:   9    -0.365694488993E+03   -0.10177E-01   -0.10172E-01  8262   0.113E-01 0.251E-03
CGA:  10    -0.365698022524E+03   -0.35335E-02   -0.35351E-02  8262   0.398E-02-0.527E-04
CGA:  11    -0.365699220834E+03   -0.11983E-02   -0.11892E-02  8262   0.149E-02 0.397E-03
CGA:  12    -0.365699924637E+03   -0.70380E-03   -0.77202E-03  8262   0.126E-02-0.357E-03
CGA:  13    -0.365700102230E+03   -0.17759E-03   -0.20227E-03  8262   0.611E-03 0.320E-03
CGA:  14    -0.365700251153E+03   -0.14892E-03   -0.15976E-03  8262   0.216E-03 0.141E-03
CGA:  15    -0.365700210317E+03    0.40836E-04   -0.22865E-03  8262   0.115E-02-0.467E-03
CGA:  16    -0.365700291026E+03   -0.80709E-04   -0.16037E-03  8262   0.261E-03 0.466E-03
CGA:  17    -0.365700337559E+03   -0.46532E-04   -0.60385E-04  8262   0.634E-04 0.102E-03
CGA:  18    -0.365700427349E+03   -0.89790E-04    0.17733E-04  8262   0.313E-04-0.262E-04
CGA:  19    -0.365700425486E+03    0.18631E-05   -0.12294E-05  8262   0.247E-04 0.136E-04
  17 F= -.36570043E+03 E0= -.36570043E+03  d E =0.177331E+01  mag=    16.0000
       N       E                     dE             d eps       ncg     rms          ort
SDA:   1    -0.343422522685E+03    0.22278E+02    0.00000E+00  8262   0.572E+02 0.000E+00
CGA:   2    -0.362188204455E+03   -0.18766E+02   -0.18778E+02  8262   0.166E+02-0.179E+00
CGA:   3    -0.366049924450E+03   -0.38617E+01   -0.38653E+01  8262   0.400E+01 0.267E-01
CGA:   4    -0.366835900405E+03   -0.78598E+00   -0.78571E+00  8262   0.117E+01 0.303E-02
CGA:   5    -0.367086194863E+03   -0.25029E+00   -0.25039E+00  8262   0.379E+00 0.181E-02
CGA:   6    -0.367185917010E+03   -0.99722E-01   -0.99721E-01  8262   0.170E+00-0.504E-03
CGA:   7    -0.367228953543E+03   -0.43037E-01   -0.43026E-01  8262   0.642E-01-0.913E-03
CGA:   8    -0.367247972519E+03   -0.19019E-01   -0.18987E-01  8262   0.229E-01 0.971E-03
CGA:   9    -0.367254673565E+03   -0.67010E-02   -0.66957E-02  8262   0.792E-02 0.235E-03
CGA:  10    -0.367257210443E+03   -0.25369E-02   -0.25688E-02  8262   0.310E-02-0.596E-03
CGA:  11    -0.367258032269E+03   -0.82183E-03   -0.81650E-03  8262   0.108E-02 0.351E-03
CGA:  12    -0.367258489449E+03   -0.45718E-03   -0.46226E-03  8262   0.635E-03-0.462E-04
CGA:  13    -0.367258707744E+03   -0.21830E-03   -0.21792E-03  8262   0.295E-03 0.384E-05
CGA:  14    -0.367258797055E+03   -0.89311E-04   -0.88617E-04  8262   0.114E-03 0.378E-04
CGA:  15    -0.367258211370E+03    0.58568E-03   -0.31620E-03  8262   0.273E-02-0.536E-03
CGA:  16    -0.367258713575E+03   -0.50220E-03   -0.58664E-03  8262   0.396E-03 0.282E-03
CGA:  17    -0.367258906779E+03   -0.19320E-03   -0.17309E-03  8262   0.284E-03-0.198E-03
CGA:  18    -0.367258919993E+03   -0.13214E-04   -0.23720E-04  8262   0.139E-03 0.321E-04
CGA:  19    -0.367258923474E+03   -0.34809E-05   -0.20171E-04  8262   0.581E-04 0.481E-04
CGA:  20    -0.367258935178E+03   -0.11704E-04   -0.15215E-04  8262   0.280E-04 0.132E-04
CGA:  21    -0.367258971895E+03   -0.36717E-04    0.38761E-04  8262   0.633E-04-0.430E-04
CGA:  22    -0.367258970187E+03    0.17082E-05   -0.77377E-05  8262   0.164E-04 0.292E-04
  18 F= -.36725897E+03 E0= -.36725897E+03  d E =-.155854E+01  mag=    16.0000
       N       E                     dE             d eps       ncg     rms          ort
SDA:   1    -0.366976352220E+03    0.28262E+00    0.00000E+00  8262   0.100E+01 0.000E+00
CGA:   2    -0.367305451447E+03   -0.32910E+00   -0.32923E+00  8262   0.295E+00 0.332E-03
CGA:   3    -0.367374280891E+03   -0.68829E-01   -0.69040E-01  8262   0.758E-01 0.125E-02
CGA:   4    -0.367388394225E+03   -0.14113E-01   -0.14169E-01  8262   0.211E-01 0.221E-03
CGA:   5    -0.367393119669E+03   -0.47254E-02   -0.46514E-02  8262   0.698E-02-0.441E-03
CGA:   6    -0.367394960560E+03   -0.18409E-02   -0.18068E-02  8262   0.327E-02-0.293E-03
CGA:   7    -0.367395715373E+03   -0.75481E-03   -0.75994E-03  8262   0.116E-02 0.386E-04
CGA:   8    -0.367396061152E+03   -0.34578E-03   -0.34735E-03  8262   0.427E-03 0.211E-04
CGA:   9    -0.367396218800E+03   -0.15765E-03   -0.15729E-03  8262   0.246E-03-0.108E-03
CGA:  10    -0.367396267840E+03   -0.49040E-04   -0.48246E-04  8262   0.793E-04-0.782E-05
CGA:  11    -0.367396290970E+03   -0.23129E-04   -0.47288E-04  8262   0.198E-03-0.942E-04
CGA:  12    -0.367396324581E+03   -0.33612E-04   -0.37919E-04  8262   0.156E-04 0.237E-04
CGA:  13    -0.367396332088E+03   -0.75070E-05   -0.83946E-05  8262   0.152E-04-0.755E-05
  19 F= -.36739633E+03 E0= -.36739633E+03  d E =-.137362E+00  mag=    16.0000
       N       E                     dE             d eps       ncg     rms          ort
SDA:   1    -0.366247395017E+03    0.11489E+01    0.00000E+00  8262   0.302E+01 0.000E+00
CGA:   2    -0.367189823405E+03   -0.94243E+00   -0.94282E+00  8262   0.949E+00 0.342E-02
CGA:   3    -0.367401765884E+03   -0.21194E+00   -0.21235E+00  8262   0.279E+00 0.301E-02
CGA:   4    -0.367451252197E+03   -0.49486E-01   -0.49682E-01  8262   0.654E-01 0.902E-03
CGA:   5    -0.367465933969E+03   -0.14682E-01   -0.14550E-01  8262   0.218E-01-0.117E-02
CGA:   6    -0.367471326232E+03   -0.53923E-02   -0.53207E-02  8262   0.963E-02-0.863E-03
CGA:   7    -0.367473675762E+03   -0.23495E-02   -0.23546E-02  8262   0.345E-02 0.684E-04
CGA:   8    -0.367474673368E+03   -0.99761E-03   -0.10017E-02  8262   0.126E-02 0.112E-03
CGA:   9    -0.367475120188E+03   -0.44682E-03   -0.45352E-03  8262   0.635E-03-0.253E-03
CGA:  10    -0.367475285572E+03   -0.16538E-03   -0.16574E-03  8262   0.245E-03-0.111E-03
CGA:  11    -0.367474498411E+03    0.78716E-03   -0.31795E-03  8262   0.478E-02-0.887E-03
CGA:  12    -0.367475322739E+03   -0.82433E-03   -0.91033E-03  8262   0.421E-03 0.438E-03
CGA:  13    -0.367475495126E+03   -0.17239E-03   -0.17219E-03  8262   0.211E-03-0.142E-03
CGA:  14    -0.367475486952E+03    0.81746E-05   -0.15334E-04  8262   0.122E-03 0.883E-04
CGA:  15    -0.367475477418E+03    0.95337E-05   -0.15615E-04  8262   0.488E-04 0.923E-04
CGA:  16    -0.367475494553E+03   -0.17135E-04   -0.17125E-04  8262   0.114E-04 0.637E-05
CGA:  17    -0.367475499377E+03   -0.48232E-05   -0.47142E-05  8262   0.645E-05 0.613E-05
  20 F= -.36747550E+03 E0= -.36747550E+03  d E =-.791673E-01  mag=    16.0000
       N       E                     dE             d eps       ncg     rms          ort
SDA:   1    -0.367442924833E+03    0.32570E-01    0.00000E+00  8262   0.116E+00 0.000E+00
CGA:   2    -0.367475039416E+03   -0.32115E-01   -0.32101E-01  8262   0.419E-01-0.246E-03
CGA:   3    -0.367483544546E+03   -0.85051E-02   -0.85448E-02  8262   0.116E-01 0.294E-03
CGA:   4    -0.367485602960E+03   -0.20584E-02   -0.20826E-02  8262   0.252E-02 0.157E-03
CGA:   5    -0.367486188768E+03   -0.58581E-03   -0.56864E-03  8262   0.834E-03-0.173E-03
CGA:   6    -0.367486395218E+03   -0.20645E-03   -0.19845E-03  8262   0.401E-03-0.130E-03
CGA:   7    -0.367486463343E+03   -0.68125E-04   -0.71994E-04  8262   0.121E-03 0.380E-04
CGA:   8    -0.367486478630E+03   -0.15287E-04   -0.22536E-04  8262   0.472E-04 0.523E-04
CGA:   9    -0.367486487565E+03   -0.89348E-05   -0.11957E-04  8262   0.204E-04 0.241E-04
CGA:  10    -0.367486501220E+03   -0.13655E-04    0.22876E-04  8262   0.103E-04 0.473E-05
CGA:  11    -0.367486503980E+03   -0.27602E-05   -0.31242E-05  8262   0.509E-05 0.717E-05
  21 F= -.36748650E+03 E0= -.36748650E+03  d E =-.110046E-01  mag=    16.0000
       N       E                     dE             d eps       ncg     rms          ort
SDA:   1    -0.367413986949E+03    0.72514E-01    0.00000E+00  8262   0.220E+00 0.000E+00
CGA:   2    -0.367474139992E+03   -0.60153E-01   -0.60147E-01  8262   0.838E-01-0.423E-03
CGA:   3    -0.367490966461E+03   -0.16826E-01   -0.16848E-01  8262   0.219E-01 0.230E-03
CGA:   4    -0.367494805910E+03   -0.38394E-02   -0.38623E-02  8262   0.459E-02 0.203E-03
CGA:   5    -0.367495800121E+03   -0.99421E-03   -0.98516E-03  8262   0.135E-02-0.136E-03
CGA:   6    -0.367496121082E+03   -0.32096E-03   -0.31685E-03  8262   0.571E-03-0.117E-03
CGA:   7    -0.367496239652E+03   -0.11857E-03   -0.12083E-03  8262   0.194E-03 0.529E-04
CGA:   8    -0.367496279259E+03   -0.39607E-04   -0.44180E-04  8262   0.758E-04 0.721E-04
CGA:   9    -0.367496304004E+03   -0.24745E-04   -0.25391E-04  8262   0.378E-04 0.257E-04
CGA:  10    -0.367496321969E+03   -0.17965E-04   -0.18010E-04  8262   0.248E-04-0.535E-06
CGA:  11    -0.367496325094E+03   -0.31252E-05   -0.42285E-05  8262   0.126E-04 0.111E-04
  22 F= -.36749633E+03 E0= -.36749633E+03  d E =-.982111E-02  mag=    16.0000
       N       E                     dE             d eps       ncg     rms          ort
SDA:   1    -0.367403965533E+03    0.92356E-01    0.00000E+00  8262   0.277E+00 0.000E+00
CGA:   2    -0.367477413776E+03   -0.73448E-01   -0.73450E-01  8262   0.105E+00-0.455E-03
CGA:   3    -0.367498460052E+03   -0.21046E-01   -0.21054E-01  8262   0.271E-01 0.115E-03
CGA:   4    -0.367503121697E+03   -0.46616E-02   -0.46866E-02  8262   0.530E-02 0.284E-03
CGA:   5    -0.367504198002E+03   -0.10763E-02   -0.10756E-02  8262   0.136E-02-0.133E-04
CGA:   6    -0.367504514832E+03   -0.31683E-03   -0.31509E-03  8262   0.505E-03-0.881E-04
CGA:   7    -0.367504633458E+03   -0.11863E-03   -0.11862E-03  8262   0.195E-03 0.199E-04
CGA:   8    -0.367504683846E+03   -0.50387E-04   -0.50445E-04  8262   0.802E-04 0.519E-04
CGA:   9    -0.367504717635E+03   -0.33789E-04   -0.32964E-04  8262   0.461E-04 0.112E-04
CGA:  10    -0.367504735608E+03   -0.17973E-04   -0.17977E-04  8262   0.244E-04-0.709E-07
CGA:  11    -0.367504743170E+03   -0.75621E-05   -0.75243E-05  8262   0.977E-05 0.743E-06
CGA:  12    -0.367504703393E+03    0.39777E-04   -0.21500E-04  8262   0.186E-03-0.392E-04
CGA:  13    -0.367504738743E+03   -0.35350E-04   -0.40377E-04  8262   0.166E-04 0.193E-04
CGA:  14    -0.367504449072E+03    0.28967E-03   -0.15668E-03  8262   0.114E-02-0.138E-03
CGA:  15    -0.367504655469E+03   -0.20640E-03   -0.28287E-03  8262   0.167E-03 0.128E-03
CGA:  16    -0.367504788314E+03   -0.13284E-03   -0.82939E-04  8262   0.163E-03-0.135E-03
CGA:  17    -0.367504767328E+03    0.20985E-04   -0.18586E-04  8262   0.258E-04 0.579E-04
CGA:  18    -0.367504757968E+03    0.93600E-05   -0.29309E-05  8262   0.970E-05 0.181E-04
  23 F= -.36750476E+03 E0= -.36750476E+03  d E =-.843287E-02  mag=    16.0000
       N       E                     dE             d eps       ncg     rms          ort
SDA:   1    -0.366677881349E+03    0.82689E+00    0.00000E+00  8262   0.228E+01 0.000E+00
CGA:   2    -0.367288895674E+03   -0.61101E+00   -0.61162E+00  8262   0.926E+00-0.241E-03
CGA:   3    -0.367465792366E+03   -0.17690E+00   -0.17677E+00  8262   0.229E+00 0.351E-03
CGA:   4    -0.367506322419E+03   -0.40530E-01   -0.40606E-01  8262   0.445E-01 0.208E-03
CGA:   5    -0.367515030352E+03   -0.87079E-02   -0.87535E-02  8262   0.115E-01 0.992E-04
CGA:   6    -0.367517498613E+03   -0.24683E-02   -0.24610E-02  8262   0.345E-02-0.199E-04
CGA:   7    -0.367518408433E+03   -0.90982E-03   -0.91223E-03  8262   0.141E-02 0.656E-05
CGA:   8    -0.367518836438E+03   -0.42801E-03   -0.44058E-03  8262   0.676E-03 0.477E-04
CGA:   9    -0.367519063334E+03   -0.22690E-03   -0.23057E-03  8262   0.285E-03 0.157E-04
CGA:  10    -0.367519147532E+03   -0.84198E-04   -0.89513E-04  8262   0.968E-04 0.218E-04
CGA:  11    -0.367519185060E+03   -0.37528E-04   -0.37010E-04  8262   0.471E-04-0.286E-05
CGA:  12    -0.367519204984E+03   -0.19924E-04   -0.19509E-04  8262   0.271E-04-0.411E-05
CGA:  13    -0.367519213842E+03   -0.88578E-05   -0.91023E-05  8262   0.108E-04 0.156E-05
CGA:  14    -0.367519186301E+03    0.27541E-04   -0.18926E-04  8262   0.174E-03-0.405E-04
CGA:  15    -0.367519218439E+03   -0.32139E-04   -0.39553E-04  8262   0.162E-04 0.214E-04
CGA:  16    -0.367519242084E+03   -0.23644E-04    0.30486E-04  8262   0.197E-04-0.114E-04
CGA:  17    -0.367519238172E+03    0.39119E-05   -0.16927E-05  8262   0.754E-05 0.119E-04
  24 F= -.36751924E+03 E0= -.36751924E+03  d E =-.144802E-01  mag=    16.0000
       N       E                     dE             d eps       ncg     rms          ort
SDA:   1    -0.362639883575E+03    0.48794E+01    0.00000E+00  8262   0.125E+02 0.000E+00
CGA:   2    -0.366245156681E+03   -0.36053E+01   -0.36110E+01  8262   0.523E+01 0.278E-02
CGA:   3    -0.367198148020E+03   -0.95299E+00   -0.95359E+00  8262   0.121E+01 0.776E-02
CGA:   4    -0.367416720773E+03   -0.21857E+00   -0.21868E+00  8262   0.242E+00 0.946E-03
CGA:   5    -0.367464749107E+03   -0.48028E-01   -0.48062E-01  8262   0.659E-01 0.721E-04
CGA:   6    -0.367479127454E+03   -0.14378E-01   -0.14336E-01  8262   0.204E-01-0.198E-03
CGA:   7    -0.367484493113E+03   -0.53657E-02   -0.53750E-02  8262   0.818E-02 0.446E-04
CGA:   8    -0.367486986722E+03   -0.24936E-02   -0.25151E-02  8262   0.364E-02 0.167E-03
CGA:   9    -0.367488167237E+03   -0.11805E-02   -0.11827E-02  8262   0.137E-02 0.195E-04
CGA:  10    -0.367488583002E+03   -0.41576E-03   -0.42038E-03  8262   0.444E-03 0.394E-04
CGA:  11    -0.367488760720E+03   -0.17772E-03   -0.17563E-03  8262   0.246E-03-0.665E-04
CGA:  12    -0.367488831748E+03   -0.71028E-04   -0.72091E-04  8262   0.110E-03 0.150E-04
CGA:  13    -0.367488880185E+03   -0.48437E-04   -0.48455E-04  8262   0.647E-04-0.669E-05
CGA:  14    -0.367488906423E+03   -0.26238E-04   -0.26483E-04  8262   0.344E-04-0.101E-04
CGA:  15    -0.367488867088E+03    0.39334E-04   -0.38090E-04  8262   0.276E-03-0.860E-04
CGA:  16    -0.367488939694E+03   -0.72606E-04   -0.72617E-04  8262   0.300E-04 0.943E-08
CGA:  17    -0.367488945514E+03   -0.58200E-05   -0.72340E-05  8262   0.914E-05 0.683E-05
CGA:  18    -0.367488955773E+03   -0.10259E-04    0.55146E-04  8262   0.602E-05 0.256E-06
CGA:  19    -0.367488958014E+03   -0.22410E-05   -0.22935E-05  8262   0.283E-05 0.782E-06
  25 F= -.36748896E+03 E0= -.36748896E+03  d E =0.302802E-01  mag=    16.0000
       N       E                     dE             d eps       ncg     rms          ort
SDA:   1    -0.367045831692E+03    0.44312E+00    0.00000E+00  8262   0.127E+01 0.000E+00
CGA:   2    -0.367382821749E+03   -0.33699E+00   -0.33708E+00  8262   0.530E+00 0.444E-03
CGA:   3    -0.367487440850E+03   -0.10462E+00   -0.10461E+00  8262   0.140E+00 0.820E-05
CGA:   4    -0.367512773594E+03   -0.25333E-01   -0.25243E-01  8262   0.306E-01-0.384E-03
CGA:   5    -0.367518984419E+03   -0.62108E-02   -0.62062E-02  8262   0.888E-02-0.235E-04
CGA:   6    -0.367520927007E+03   -0.19426E-02   -0.19669E-02  8262   0.320E-02 0.121E-03
CGA:   7    -0.367521834312E+03   -0.90730E-03   -0.90628E-03  8262   0.134E-02-0.884E-05
CGA:   8    -0.367522283691E+03   -0.44938E-03   -0.44208E-03  8262   0.668E-03-0.101E-03
CGA:   9    -0.367522462179E+03   -0.17849E-03   -0.17911E-03  8262   0.221E-03 0.540E-05
CGA:  10    -0.367522531669E+03   -0.69490E-04   -0.69586E-04  8262   0.866E-04 0.108E-05
CGA:  11    -0.367522561980E+03   -0.30311E-04   -0.30326E-04  8262   0.422E-04 0.303E-06
CGA:  12    -0.367522578731E+03   -0.16751E-04   -0.16756E-04  8262   0.227E-04-0.667E-06
CGA:  13    -0.367522589443E+03   -0.10712E-04   -0.12231E-04  8262   0.190E-04-0.969E-05
CGA:  14    -0.367522589428E+03    0.14599E-07   -0.14433E-05  8262   0.112E-04 0.550E-05
  26 F= -.36752259E+03 E0= -.36752259E+03  d E =-.336314E-01  mag=    16.0000
       N       E                     dE             d eps       ncg     rms          ort
SDA:   1    -0.367419953824E+03    0.10264E+00    0.00000E+00  8262   0.281E+00 0.000E+00
CGA:   2    -0.367494763502E+03   -0.74810E-01   -0.74905E-01  8262   0.110E+00 0.861E-03
CGA:   3    -0.367517340712E+03   -0.22577E-01   -0.22534E-01  8262   0.288E-01-0.277E-03
CGA:   4    -0.367522379365E+03   -0.50387E-02   -0.49857E-02  8262   0.601E-02-0.298E-03
CGA:   5    -0.367523585434E+03   -0.12061E-02   -0.12130E-02  8262   0.158E-02 0.477E-04
CGA:   6    -0.367523911833E+03   -0.32640E-03   -0.33846E-03  8262   0.529E-03 0.939E-04
CGA:   7    -0.367524061217E+03   -0.14938E-03   -0.15148E-03  8262   0.227E-03 0.329E-04
CGA:   8    -0.367524145409E+03   -0.84192E-04   -0.84359E-04  8262   0.134E-03-0.903E-05
CGA:   9    -0.367524173767E+03   -0.28358E-04   -0.30905E-04  8262   0.439E-04 0.279E-04
CGA:  10    -0.367524180953E+03   -0.71862E-05   -0.10003E-04  8262   0.174E-04 0.203E-04
  27 F= -.36752418E+03 E0= -.36752418E+03  d E =-.159153E-02  mag=    16.0000
       N       E                     dE             d eps       ncg     rms          ort
SDA:   1    -0.365969361194E+03    0.15548E+01    0.00000E+00  8262   0.388E+01 0.000E+00
CGA:   2    -0.367141410024E+03   -0.11720E+01   -0.11721E+01  8262   0.155E+01 0.413E-02
CGA:   3    -0.367432639890E+03   -0.29123E+00   -0.29106E+00  8262   0.352E+00-0.135E-02
CGA:   4    -0.367492727316E+03   -0.60087E-01   -0.59974E-01  8262   0.708E-01-0.842E-03
CGA:   5    -0.367507296562E+03   -0.14569E-01   -0.14589E-01  8262   0.185E-01 0.203E-03
CGA:   6    -0.367511220685E+03   -0.39241E-02   -0.39366E-02  8262   0.573E-02 0.145E-03
CGA:   7    -0.367512761839E+03   -0.15412E-02   -0.15419E-02  8262   0.238E-02 0.280E-04
CGA:   8    -0.367513539421E+03   -0.77758E-03   -0.77722E-03  8262   0.121E-02 0.973E-05
CGA:   9    -0.367513913820E+03   -0.37440E-03   -0.37353E-03  8262   0.440E-03 0.511E-04
CGA:  10    -0.367514049093E+03   -0.13527E-03   -0.13519E-03  8262   0.143E-03 0.406E-04
CGA:  11    -0.367514110272E+03   -0.61179E-04   -0.64286E-04  8262   0.958E-04-0.263E-04
CGA:  12    -0.367514137037E+03   -0.26765E-04   -0.26533E-04  8262   0.459E-04 0.565E-05
CGA:  13    -0.367514151664E+03   -0.14627E-04   -0.14626E-04  8262   0.201E-04 0.802E-05
CGA:  14    -0.367514161016E+03   -0.93521E-05   -0.96532E-05  8262   0.110E-04-0.280E-05
  28 F= -.36751416E+03 E0= -.36751416E+03  d E =0.100199E-01  mag=    16.0000
       N       E                     dE             d eps       ncg     rms          ort
SDA:   1    -0.330757738315E+03    0.36756E+02    0.00000E+00  8262   0.883E+02 0.000E+00
CGA:   2    -0.354633037451E+03   -0.23875E+02   -0.23906E+02  8262   0.355E+02 0.304E+00
CGA:   3    -0.361876090656E+03   -0.72431E+01   -0.72621E+01  8262   0.998E+01 0.829E-01
CGA:   4    -0.363688952083E+03   -0.18129E+01   -0.18153E+01  8262   0.233E+01 0.169E-01
CGA:   5    -0.364189344873E+03   -0.50039E+00   -0.50031E+00  8262   0.740E+00-0.272E-02
CGA:   6    -0.364360103276E+03   -0.17076E+00   -0.17074E+00  8262   0.282E+00-0.942E-03
CGA:   7    -0.364436272222E+03   -0.76169E-01   -0.76189E-01  8262   0.109E+00 0.119E-02
CGA:   8    -0.364467995784E+03   -0.31724E-01   -0.31718E-01  8262   0.417E-01 0.133E-02
CGA:   9    -0.364480834585E+03   -0.12839E-01   -0.12841E-01  8262   0.147E-01-0.124E-03
CGA:  10    -0.364485626720E+03   -0.47921E-02   -0.48320E-02  8262   0.587E-02-0.912E-03
CGA:  11    -0.364487406999E+03   -0.17803E-02   -0.17759E-02  8262   0.230E-02 0.124E-03
CGA:  12    -0.364488337206E+03   -0.93021E-03   -0.94255E-03  8262   0.129E-02-0.114E-03
CGA:  13    -0.364488754554E+03   -0.41735E-03   -0.41065E-03  8262   0.508E-03 0.163E-03
CGA:  14    -0.364489001223E+03   -0.24667E-03   -0.29656E-03  8262   0.476E-03-0.227E-03
CGA:  15    -0.364489078274E+03   -0.77051E-04   -0.76630E-04  8262   0.258E-03-0.243E-04
CGA:  16    -0.364489140985E+03   -0.62711E-04   -0.61867E-04  8262   0.983E-04-0.157E-04
CGA:  17    -0.364488395421E+03    0.74556E-03   -0.40205E-03  8262   0.282E-02-0.552E-03
CGA:  18    -0.364489079791E+03   -0.68437E-03   -0.74060E-03  8262   0.421E-03 0.190E-03
CGA:  19    -0.364489268510E+03   -0.18872E-03   -0.16054E-03  8262   0.190E-03-0.153E-03
CGA:  20    -0.364489269862E+03   -0.13524E-05   -0.19853E-04  8262   0.734E-04 0.502E-04
CGA:  21    -0.364489263512E+03    0.63499E-05   -0.10395E-04  8262   0.294E-04 0.417E-04
  29 F= -.36448926E+03 E0= -.36448926E+03  d E =0.302490E+01  mag=    16.0000
       N       E                     dE             d eps       ncg     rms          ort
SDA:   1    -0.347762832193E+03    0.16726E+02    0.00000E+00  8262   0.472E+02 0.000E+00
CGA:   2    -0.362988258951E+03   -0.15225E+02   -0.15197E+02  8262   0.139E+02-0.918E-02
CGA:   3    -0.366249477882E+03   -0.32612E+01   -0.32952E+01  8262   0.322E+01-0.185E-01
CGA:   4    -0.366881249309E+03   -0.63177E+00   -0.63398E+00  8262   0.105E+01 0.209E-02
CGA:   5    -0.367103478288E+03   -0.22223E+00   -0.22253E+00  8262   0.315E+00 0.367E-02
CGA:   6    -0.367185166258E+03   -0.81688E-01   -0.81664E-01  8262   0.145E+00-0.257E-03
CGA:   7    -0.367222714554E+03   -0.37548E-01   -0.37367E-01  8262   0.551E-01-0.137E-02
CGA:   8    -0.367238895590E+03   -0.16181E-01   -0.16145E-01  8262   0.200E-01-0.310E-03
CGA:   9    -0.367244446320E+03   -0.55507E-02   -0.55756E-02  8262   0.622E-02 0.183E-03
CGA:  10    -0.367246338680E+03   -0.18924E-02   -0.18953E-02  8262   0.224E-02 0.238E-04
CGA:  11    -0.367247091637E+03   -0.75296E-03   -0.75302E-03  8262   0.990E-03-0.128E-05
CGA:  12    -0.367247524913E+03   -0.43328E-03   -0.44383E-03  8262   0.685E-03-0.218E-03
CGA:  13    -0.367247716751E+03   -0.19184E-03   -0.18978E-03  8262   0.295E-03-0.457E-04
CGA:  14    -0.367247813685E+03   -0.96934E-04   -0.95845E-04  8262   0.128E-03-0.214E-04
CGA:  15    -0.367247866256E+03   -0.52570E-04   -0.55374E-04  8262   0.824E-04-0.413E-04
CGA:  16    -0.367247884332E+03   -0.18077E-04   -0.17902E-04  8262   0.353E-04-0.225E-05
CGA:  17    -0.367247749186E+03    0.13515E-03   -0.57373E-04  8262   0.642E-03-0.151E-03
CGA:  18    -0.367247904474E+03   -0.15529E-03   -0.16765E-03  8262   0.534E-04 0.621E-04
CGA:  19    -0.367247930308E+03   -0.25834E-04   -0.39644E-04  8262   0.129E-03-0.610E-04
CGA:  20    -0.367247928582E+03    0.17256E-05   -0.15668E-04  8262   0.254E-04 0.510E-04
  30 F= -.36724793E+03 E0= -.36724793E+03  d E =-.275867E+01  mag=    16.0000
       N       E                     dE             d eps       ncg     rms          ort
SDA:   1    -0.366726288038E+03    0.52164E+00    0.00000E+00  8262   0.162E+01 0.000E+00
CGA:   2    -0.367243295484E+03   -0.51701E+00   -0.51692E+00  8262   0.552E+00-0.579E-03
CGA:   3    -0.367360029090E+03   -0.11673E+00   -0.11660E+00  8262   0.156E+00-0.680E-03
CGA:   4    -0.367388125492E+03   -0.28096E-01   -0.28173E-01  8262   0.391E-01 0.180E-03
CGA:   5    -0.367396390656E+03   -0.82652E-02   -0.83643E-02  8262   0.125E-01 0.532E-03
CGA:   6    -0.367399351595E+03   -0.29609E-02   -0.29984E-02  8262   0.534E-02 0.243E-03
CGA:   7    -0.367400847846E+03   -0.14963E-02   -0.14900E-02  8262   0.212E-02-0.584E-04
CGA:   8    -0.367401501865E+03   -0.65402E-03   -0.64824E-03  8262   0.867E-03-0.853E-04
CGA:   9    -0.367401711739E+03   -0.20987E-03   -0.21622E-03  8262   0.247E-03 0.553E-04
CGA:  10    -0.367401768740E+03   -0.57001E-04   -0.63825E-04  8262   0.786E-04 0.543E-04
CGA:  11    -0.367401791051E+03   -0.22311E-04   -0.24680E-04  8262   0.337E-04 0.226E-04
CGA:  12    -0.367401806405E+03   -0.15354E-04   -0.15366E-04  8262   0.205E-04 0.400E-05
CGA:  13    -0.367401813489E+03   -0.70839E-05   -0.72319E-05  8262   0.100E-04 0.346E-05
  31 F= -.36740181E+03 E0= -.36740181E+03  d E =-.153885E+00  mag=    16.0000
       N       E                     dE             d eps       ncg     rms          ort
SDA:   1    -0.366982109322E+03    0.41970E+00    0.00000E+00  8262   0.122E+01 0.000E+00
CGA:   2    -0.367350948849E+03   -0.36884E+00   -0.36886E+00  8262   0.484E+00 0.242E-03
CGA:   3    -0.367447477864E+03   -0.96529E-01   -0.96419E-01  8262   0.131E+00-0.698E-03
CGA:   4    -0.367471026449E+03   -0.23549E-01   -0.23583E-01  8262   0.320E-01 0.156E-03
CGA:   5    -0.367477707414E+03   -0.66810E-02   -0.67364E-02  8262   0.101E-01 0.459E-03
CGA:   6    -0.367480011080E+03   -0.23037E-02   -0.23295E-02  8262   0.396E-02 0.268E-03
CGA:   7    -0.367481125943E+03   -0.11149E-02   -0.11177E-02  8262   0.159E-02 0.636E-04
CGA:   8    -0.367481616079E+03   -0.49014E-03   -0.48982E-03  8262   0.665E-03-0.232E-04
CGA:   9    -0.367481782930E+03   -0.16685E-03   -0.17055E-03  8262   0.196E-03 0.658E-04
CGA:  10    -0.367481821207E+03   -0.38276E-04   -0.45380E-04  8262   0.657E-04 0.691E-04
CGA:  11    -0.367481834970E+03   -0.13763E-04   -0.17579E-04  8262   0.302E-04 0.345E-04
CGA:  12    -0.367481846927E+03   -0.11957E-04   -0.11486E-04  8262   0.188E-04 0.608E-05
CGA:  13    -0.367481847721E+03   -0.79411E-06   -0.34017E-05  8262   0.110E-04 0.166E-04
  32 F= -.36748185E+03 E0= -.36748185E+03  d E =-.800342E-01  mag=    16.0000
       N       E                     dE             d eps       ncg     rms          ort
SDA:   1    -0.367376216678E+03    0.10563E+00    0.00000E+00  8262   0.320E+00 0.000E+00
CGA:   2    -0.367462240962E+03   -0.86024E-01   -0.86046E-01  8262   0.144E+00 0.895E-03
CGA:   3    -0.367490323703E+03   -0.28083E-01   -0.28054E-01  8262   0.376E-01-0.308E-03
CGA:   4    -0.367497123324E+03   -0.67996E-02   -0.67960E-02  8262   0.864E-02-0.380E-04
CGA:   5    -0.367498880782E+03   -0.17575E-02   -0.17649E-02  8262   0.263E-02 0.971E-04
CGA:   6    -0.367499466707E+03   -0.58592E-03   -0.59002E-03  8262   0.937E-03 0.757E-04
CGA:   7    -0.367499711906E+03   -0.24520E-03   -0.24671E-03  8262   0.356E-03 0.885E-04
CGA:   8    -0.367499815335E+03   -0.10343E-03   -0.10377E-03  8262   0.138E-03 0.563E-04
CGA:   9    -0.367499858129E+03   -0.42794E-04   -0.42888E-04  8262   0.511E-04 0.279E-04
CGA:  10    -0.367499865005E+03   -0.68761E-05   -0.10169E-04  8262   0.209E-04 0.310E-04
  33 F= -.36749987E+03 E0= -.36749987E+03  d E =-.180173E-01  mag=    16.0000
       N       E                     dE             d eps       ncg     rms          ort
SDA:   1    -0.367355930356E+03    0.14393E+00    0.00000E+00  8262   0.443E+00 0.000E+00
CGA:   2    -0.367457651051E+03   -0.10172E+00   -0.10178E+00  8262   0.195E+00 0.169E-02
CGA:   3    -0.367496817155E+03   -0.39166E-01   -0.39157E-01  8262   0.536E-01-0.180E-03
CGA:   4    -0.367506540396E+03   -0.97232E-02   -0.97121E-02  8262   0.118E-01-0.146E-03
CGA:   5    -0.367508820256E+03   -0.22799E-02   -0.22811E-02  8262   0.336E-02 0.208E-04
CGA:   6    -0.367509584266E+03   -0.76401E-03   -0.76411E-03  8262   0.120E-02 0.441E-05
CGA:   7    -0.367509900680E+03   -0.31641E-03   -0.31549E-03  8262   0.483E-03 0.658E-04
CGA:   8    -0.367510039535E+03   -0.13885E-03   -0.13740E-03  8262   0.187E-03 0.719E-04
CGA:   9    -0.367510106512E+03   -0.66978E-04   -0.65832E-04  8262   0.805E-04 0.205E-04
CGA:  10    -0.367510125179E+03   -0.18666E-04   -0.19670E-04  8262   0.294E-04 0.305E-04
CGA:  11    -0.367510132738E+03   -0.75592E-05   -0.83339E-05  8262   0.142E-04 0.167E-04
CGA:  12    -0.367510107350E+03    0.25388E-04   -0.14617E-04  8262   0.233E-03-0.348E-04
CGA:  13    -0.367510130653E+03   -0.23303E-04   -0.36829E-04  8262   0.169E-04 0.456E-04
CGA:  14    -0.367510139193E+03   -0.85398E-05   -0.78903E-05  8262   0.143E-04-0.133E-04
  34 F= -.36751014E+03 E0= -.36751014E+03  d E =-.102742E-01  mag=    16.0000
       N       E                     dE             d eps       ncg     rms          ort
SDA:   1    -0.367295859771E+03    0.21427E+00    0.00000E+00  8262   0.716E+00 0.000E+00
CGA:   2    -0.367440916701E+03   -0.14506E+00   -0.14546E+00  8262   0.273E+00 0.138E-02
CGA:   3    -0.367498385408E+03   -0.57469E-01   -0.57459E-01  8262   0.862E-01-0.952E-04
CGA:   4    -0.367514075607E+03   -0.15690E-01   -0.15652E-01  8262   0.185E-01-0.166E-03
CGA:   5    -0.367517611484E+03   -0.35359E-02   -0.35377E-02  8262   0.512E-02 0.916E-05
CGA:   6    -0.367518769661E+03   -0.11582E-02   -0.11562E-02  8262   0.179E-02-0.120E-04
CGA:   7    -0.367519267441E+03   -0.49778E-03   -0.49873E-03  8262   0.802E-03 0.100E-04
CGA:   8    -0.367519507756E+03   -0.24031E-03   -0.24241E-03  8262   0.354E-03 0.313E-04
CGA:   9    -0.367519626292E+03   -0.11854E-03   -0.11890E-03  8262   0.149E-03 0.898E-05
CGA:  10    -0.367519669267E+03   -0.42976E-04   -0.44406E-04  8262   0.545E-04 0.198E-04
CGA:  11    -0.367519692206E+03   -0.22938E-04   -0.22956E-04  8262   0.301E-04-0.132E-05
CGA:  12    -0.367519705891E+03   -0.13685E-04   -0.16031E-04  8262   0.286E-04-0.125E-04
CGA:  13    -0.367519706914E+03   -0.10233E-05   -0.25295E-05  8262   0.160E-04 0.696E-05
  35 F= -.36751971E+03 E0= -.36751971E+03  d E =-.956772E-02  mag=    16.0000
       N       E                     dE             d eps       ncg     rms          ort
SDA:   1    -0.367191765687E+03    0.32794E+00    0.00000E+00  8262   0.107E+01 0.000E+00
CGA:   2    -0.367413313623E+03   -0.22155E+00   -0.22204E+00  8262   0.390E+00 0.275E-02
CGA:   3    -0.367495996713E+03   -0.82683E-01   -0.82601E-01  8262   0.124E+00-0.704E-03
CGA:   4    -0.367518251424E+03   -0.22255E-01   -0.22163E-01  8262   0.254E-01-0.590E-03
CGA:   5    -0.367523175328E+03   -0.49239E-02   -0.49289E-02  8262   0.711E-02 0.385E-04
CGA:   6    -0.367524724036E+03   -0.15487E-02   -0.15561E-02  8262   0.237E-02 0.751E-04
CGA:   7    -0.367525399370E+03   -0.67533E-03   -0.67577E-03  8262   0.110E-02 0.136E-04
CGA:   8    -0.367525759065E+03   -0.35969E-03   -0.35986E-03  8262   0.561E-03-0.124E-04
CGA:   9    -0.367525935823E+03   -0.17676E-03   -0.17669E-03  8262   0.228E-03 0.117E-04
CGA:  10    -0.367525999203E+03   -0.63381E-04   -0.64628E-04  8262   0.785E-04 0.358E-04
CGA:  11    -0.367526032582E+03   -0.33378E-04   -0.33564E-04  8262   0.443E-04-0.320E-05
CGA:  12    -0.367526051228E+03   -0.18646E-04   -0.22781E-04  8262   0.416E-04-0.186E-04
CGA:  13    -0.367526055385E+03   -0.41572E-05   -0.48596E-05  8262   0.212E-04 0.567E-05
  36 F= -.36752606E+03 E0= -.36752606E+03  d E =-.634847E-02  mag=    16.0000
       N       E                     dE             d eps       ncg     rms          ort
SDA:   1    -0.366797631796E+03    0.72842E+00    0.00000E+00  8262   0.211E+01 0.000E+00
CGA:   2    -0.367292587081E+03   -0.49496E+00   -0.49544E+00  8262   0.842E+00 0.504E-02
CGA:   3    -0.367466094337E+03   -0.17351E+00   -0.17335E+00  8262   0.234E+00-0.162E-02
CGA:   4    -0.367506341666E+03   -0.40247E-01   -0.40133E-01  8262   0.454E-01-0.880E-03
CGA:   5    -0.367515323893E+03   -0.89822E-02   -0.89765E-02  8262   0.125E-01-0.584E-04
CGA:   6    -0.367518010431E+03   -0.26865E-02   -0.26876E-02  8262   0.398E-02 0.150E-04
CGA:   7    -0.367519107343E+03   -0.10969E-02   -0.10972E-02  8262   0.177E-02 0.250E-04
CGA:   8    -0.367519680941E+03   -0.57360E-03   -0.57303E-03  8262   0.888E-03 0.162E-04
CGA:   9    -0.367519972440E+03   -0.29150E-03   -0.29065E-03  8262   0.365E-03 0.242E-04
CGA:  10    -0.367520081719E+03   -0.10928E-03   -0.10926E-03  8262   0.126E-03 0.425E-04
CGA:  11    -0.367520136507E+03   -0.54788E-04   -0.57268E-04  8262   0.831E-04-0.211E-04
CGA:  12    -0.367520158835E+03   -0.22328E-04   -0.22163E-04  8262   0.365E-04 0.691E-05
CGA:  13    -0.367520167522E+03   -0.86875E-05   -0.93910E-05  8262   0.140E-04 0.116E-04
  37 F= -.36752017E+03 E0= -.36752017E+03  d E =0.588786E-02  mag=    16.0000
       N       E                     dE             d eps       ncg     rms          ort
SDA:   1    -0.367427550795E+03    0.92608E-01    0.00000E+00  8262   0.263E+00 0.000E+00
CGA:   2    -0.367493609172E+03   -0.66058E-01   -0.66069E-01  8262   0.115E+00 0.177E-03
CGA:   3    -0.367516335025E+03   -0.22726E-01   -0.22742E-01  8262   0.305E-01 0.150E-03
CGA:   4    -0.367521758790E+03   -0.54238E-02   -0.54253E-02  8262   0.658E-02 0.776E-05
CGA:   5    -0.367523100663E+03   -0.13419E-02   -0.13357E-02  8262   0.200E-02-0.772E-04
CGA:   6    -0.367523556121E+03   -0.45546E-03   -0.45245E-03  8262   0.737E-03-0.579E-04
CGA:   7    -0.367523758943E+03   -0.20282E-03   -0.20305E-03  8262   0.326E-03-0.389E-04
CGA:   8    -0.367523849773E+03   -0.90830E-04   -0.90860E-04  8262   0.130E-03-0.192E-05
CGA:   9    -0.367523891634E+03   -0.41861E-04   -0.42264E-04  8262   0.522E-04-0.826E-05
CGA:  10    -0.367523836392E+03    0.55242E-04   -0.55322E-04  8262   0.478E-03-0.130E-03
CGA:  11    -0.367523912605E+03   -0.76213E-04   -0.84783E-04  8262   0.467E-04 0.584E-04
CGA:  12    -0.367523931121E+03   -0.18515E-04   -0.18807E-04  8262   0.172E-04-0.691E-05
CGA:  13    -0.367523932419E+03   -0.12983E-05   -0.24334E-05  8262   0.733E-05 0.743E-05
  38 F= -.36752393E+03 E0= -.36752393E+03  d E =-.376490E-02  mag=    16.0000
       N       E                     dE             d eps       ncg     rms          ort
SDA:   1    -0.367443943712E+03    0.79987E-01    0.00000E+00  8262   0.201E+00 0.000E+00
CGA:   2    -0.367501594973E+03   -0.57651E-01   -0.57676E-01  8262   0.870E-01 0.140E-02
CGA:   3    -0.367517908727E+03   -0.16314E-01   -0.16245E-01  8262   0.197E-01-0.597E-03
CGA:   4    -0.367521392748E+03   -0.34840E-02   -0.34415E-02  8262   0.409E-02-0.354E-03
CGA:   5    -0.367522183356E+03   -0.79061E-03   -0.79062E-03  8262   0.108E-02-0.362E-06
CGA:   6    -0.367522397656E+03   -0.21430E-03   -0.21844E-03  8262   0.301E-03 0.488E-04
CGA:   7    -0.367522484139E+03   -0.86483E-04   -0.86468E-04  8262   0.135E-03-0.226E-05
CGA:   8    -0.367522527643E+03   -0.43504E-04   -0.43679E-04  8262   0.703E-04-0.403E-05
CGA:   9    -0.367522545634E+03   -0.17991E-04   -0.18186E-04  8262   0.237E-04 0.111E-04
CGA:  10    -0.367522554856E+03   -0.92224E-05   -0.93074E-05  8262   0.117E-04-0.154E-05
  39 F= -.36752255E+03 E0= -.36752255E+03  d E =0.137756E-02  mag=    16.0000
       N       E                     dE             d eps       ncg     rms          ort
SDA:   1    -0.366363275660E+03    0.11593E+01    0.00000E+00  8262   0.281E+01 0.000E+00
CGA:   2    -0.367254759253E+03   -0.89148E+00   -0.89128E+00  8262   0.111E+01 0.721E-02
CGA:   3    -0.367459443283E+03   -0.20468E+00   -0.20432E+00  8262   0.229E+00-0.366E-02
CGA:   4    -0.367498581384E+03   -0.39138E-01   -0.39007E-01  8262   0.481E-01-0.113E-02
CGA:   5    -0.367508433925E+03   -0.98525E-02   -0.98706E-02  8262   0.120E-01 0.237E-03
CGA:   6    -0.367510914681E+03   -0.24808E-02   -0.24905E-02  8262   0.354E-02 0.137E-03
CGA:   7    -0.367511885533E+03   -0.97085E-03   -0.97072E-03  8262   0.152E-02-0.570E-04
CGA:   8    -0.367512367604E+03   -0.48207E-03   -0.48237E-03  8262   0.770E-03-0.613E-05
CGA:   9    -0.367512610482E+03   -0.24288E-03   -0.24180E-03  8262   0.290E-03 0.271E-04
CGA:  10    -0.367512712339E+03   -0.10186E-03   -0.10339E-03  8262   0.115E-03-0.229E-04
CGA:  11    -0.367512748931E+03   -0.36592E-04   -0.37226E-04  8262   0.501E-04-0.887E-05
CGA:  12    -0.367512768392E+03   -0.19461E-04   -0.21148E-04  8262   0.347E-04-0.977E-05
CGA:  13    -0.367512776970E+03   -0.85780E-05   -0.85135E-05  8262   0.132E-04 0.551E-05
CGA:  14    -0.367512779525E+03   -0.25557E-05   -0.11330E-04  8262   0.398E-04-0.197E-04
  40 F= -.36751278E+03 E0= -.36751278E+03  d E =0.977533E-02  mag=    16.0000
       N       E                     dE             d eps       ncg     rms          ort
SDA:   1    -0.341971755613E+03    0.25541E+02    0.00000E+00  8262   0.553E+02 0.000E+00
CGA:   2    -0.359612187264E+03   -0.17640E+02   -0.17636E+02  8262   0.184E+02 0.284E+00
CGA:   3    -0.363739691267E+03   -0.41275E+01   -0.41315E+01  8262   0.475E+01 0.240E-01
CGA:   4    -0.364617572557E+03   -0.87788E+00   -0.87768E+00  8262   0.130E+01 0.468E-02
CGA:   5    -0.364897075719E+03   -0.27950E+00   -0.27964E+00  8262   0.400E+00 0.218E-02
CGA:   6    -0.364995547793E+03   -0.98472E-01   -0.98542E-01  8262   0.169E+00 0.118E-02
CGA:   7    -0.365038618197E+03   -0.43070E-01   -0.43099E-01  8262   0.621E-01 0.710E-03
CGA:   8    -0.365057068442E+03   -0.18450E-01   -0.18448E-01  8262   0.239E-01 0.740E-03
CGA:   9    -0.365064142363E+03   -0.70739E-02   -0.70739E-02  8262   0.832E-02-0.603E-04
CGA:  10    -0.365066687045E+03   -0.25447E-02   -0.25477E-02  8262   0.298E-02-0.210E-03
CGA:  11    -0.365067555620E+03   -0.86858E-03   -0.86789E-03  8262   0.110E-02 0.118E-03
CGA:  12    -0.365068000413E+03   -0.44479E-03   -0.47306E-03  8262   0.796E-03-0.233E-03
CGA:  13    -0.365068123365E+03   -0.12295E-03   -0.13637E-03  8262   0.336E-03 0.164E-03
CGA:  14    -0.365068206051E+03   -0.82687E-04   -0.88756E-04  8262   0.137E-03 0.794E-04
CGA:  15    -0.365068267385E+03   -0.61334E-04   -0.78384E-04  8262   0.233E-03-0.998E-04
CGA:  16    -0.365068275114E+03   -0.77284E-05   -0.25782E-04  8262   0.557E-04 0.952E-04
  41 F= -.36506828E+03 E0= -.36506828E+03  d E =0.244450E+01  mag=    16.0000
       N       E                     dE             d eps       ncg     rms          ort
SDA:   1    -0.360767768220E+03    0.43005E+01    0.00000E+00  8262   0.154E+02 0.000E+00
CGA:   2    -0.365454983495E+03   -0.46872E+01   -0.46911E+01  8262   0.508E+01-0.120E+00
CGA:   3    -0.366650035518E+03   -0.11951E+01   -0.11958E+01  8262   0.103E+01 0.721E-02
CGA:   4    -0.366865098498E+03   -0.21506E+00   -0.21513E+00  8262   0.327E+00 0.297E-03
CGA:   5    -0.366931671192E+03   -0.66573E-01   -0.66580E-01  8262   0.957E-01 0.273E-03
CGA:   6    -0.366956760516E+03   -0.25089E-01   -0.25086E-01  8262   0.411E-01-0.301E-03
CGA:   7    -0.366967454169E+03   -0.10694E-01   -0.10684E-01  8262   0.167E-01-0.853E-03
CGA:   8    -0.366972255525E+03   -0.48014E-02   -0.48067E-02  8262   0.623E-02-0.254E-03
CGA:   9    -0.366973995735E+03   -0.17402E-02   -0.17396E-02  8262   0.194E-02 0.600E-04
CGA:  10    -0.366974604056E+03   -0.60832E-03   -0.61036E-03  8262   0.699E-03-0.536E-04
CGA:  11    -0.366974829630E+03   -0.22557E-03   -0.22574E-03  8262   0.289E-03-0.336E-05
CGA:  12    -0.366974946317E+03   -0.11669E-03   -0.12759E-03  8262   0.212E-03-0.664E-04
CGA:  13    -0.366974712844E+03    0.23347E-03   -0.19566E-03  8262   0.179E-02-0.471E-03
CGA:  14    -0.366974937086E+03   -0.22424E-03   -0.27778E-03  8262   0.256E-03 0.301E-03
CGA:  15    -0.366975041996E+03   -0.10491E-03   -0.10754E-03  8262   0.147E-03-0.743E-04
CGA:  16    -0.366975063774E+03   -0.21778E-04   -0.24313E-04  8262   0.730E-04 0.276E-04
CGA:  17    -0.366975072389E+03   -0.86150E-05   -0.13642E-04  8262   0.236E-04 0.308E-04
CGA:  18    -0.366975083337E+03   -0.10948E-04   -0.11136E-04  8262   0.191E-04-0.943E-05
CGA:  19    -0.366975092370E+03   -0.90327E-05    0.70675E-05  8262   0.200E-04-0.758E-05
  42 F= -.36697509E+03 E0= -.36697509E+03  d E =-.190682E+01  mag=    16.0000
       N       E                     dE             d eps       ncg     rms          ort
SDA:   1    -0.366848310991E+03    0.12677E+00    0.00000E+00  8262   0.930E+00 0.000E+00
CGA:   2    -0.367145755733E+03   -0.29744E+00   -0.29747E+00  8262   0.299E+00-0.178E-02
CGA:   3    -0.367216053918E+03   -0.70298E-01   -0.70372E-01  8262   0.682E-01 0.103E-02
CGA:   4    -0.367229762409E+03   -0.13708E-01   -0.13714E-01  8262   0.203E-01 0.354E-04
CGA:   5    -0.367233982043E+03   -0.42196E-02   -0.42161E-02  8262   0.638E-02-0.400E-04
CGA:   6    -0.367235620576E+03   -0.16385E-02   -0.16380E-02  8262   0.275E-02-0.164E-04
CGA:   7    -0.367236330987E+03   -0.71041E-03   -0.70761E-03  8262   0.111E-02-0.897E-04
CGA:   8    -0.367236655176E+03   -0.32419E-03   -0.32478E-03  8262   0.419E-03-0.385E-04
CGA:   9    -0.367236763437E+03   -0.10826E-03   -0.10869E-03  8262   0.128E-03 0.221E-04
CGA:  10    -0.367236806624E+03   -0.43187E-04   -0.43408E-04  8262   0.506E-04-0.652E-05
CGA:  11    -0.367236821106E+03   -0.14482E-04   -0.14447E-04  8262   0.191E-04 0.283E-05
CGA:  12    -0.367236824319E+03   -0.32129E-05   -0.39948E-05  8262   0.799E-05 0.855E-05
CGA:  13    -0.367236830961E+03   -0.66426E-05    0.18721E-03  8262   0.466E-05 0.145E-05
  43 F= -.36723683E+03 E0= -.36723683E+03  d E =-.261739E+00  mag=    16.0000
       N       E                     dE             d eps       ncg     rms          ort
SDA:   1    -0.363464774287E+03    0.37721E+01    0.00000E+00  8262   0.948E+01 0.000E+00
CGA:   2    -0.366561550497E+03   -0.30968E+01   -0.30951E+01  8262   0.297E+01 0.243E-01
CGA:   3    -0.367272410074E+03   -0.71086E+00   -0.71101E+00  8262   0.708E+00 0.236E-02
CGA:   4    -0.367411533737E+03   -0.13912E+00   -0.13924E+00  8262   0.209E+00 0.109E-02
CGA:   5    -0.367455880981E+03   -0.44347E-01   -0.44384E-01  8262   0.658E-01 0.477E-03
CGA:   6    -0.367472914585E+03   -0.17034E-01   -0.17036E-01  8262   0.289E-01 0.133E-03
CGA:   7    -0.367480218570E+03   -0.73040E-02   -0.72998E-02  8262   0.110E-01-0.172E-03
CGA:   8    -0.367483453203E+03   -0.32346E-02   -0.32330E-02  8262   0.398E-02 0.735E-04
CGA:   9    -0.367484588116E+03   -0.11349E-02   -0.11341E-02  8262   0.134E-02 0.107E-03
CGA:  10    -0.367485044781E+03   -0.45666E-03   -0.46860E-03  8262   0.575E-03-0.183E-03
CGA:  11    -0.367485182136E+03   -0.13736E-03   -0.13745E-03  8262   0.193E-03 0.423E-04
CGA:  12    -0.367485252275E+03   -0.70139E-04   -0.70396E-04  8262   0.102E-03-0.436E-05
CGA:  13    -0.367484757326E+03    0.49495E-03   -0.26674E-03  8262   0.228E-02-0.434E-03
CGA:  14    -0.367485136838E+03   -0.37951E-03   -0.45565E-03  8262   0.310E-03 0.242E-03
CGA:  15    -0.367485312183E+03   -0.17535E-03   -0.18576E-03  8262   0.467E-03-0.247E-03
CGA:  16    -0.367485316593E+03   -0.44097E-05   -0.59854E-04  8262   0.774E-04 0.149E-03
CGA:  17    -0.367485315689E+03    0.90387E-06   -0.13387E-04  8262   0.293E-04 0.407E-04
  44 F= -.36748532E+03 E0= -.36748532E+03  d E =-.248485E+00  mag=    16.0000
       N       E                     dE             d eps       ncg     rms          ort
SDA:   1    -0.367346489067E+03    0.13883E+00    0.00000E+00  8262   0.431E+00 0.000E+00
CGA:   2    -0.367487321618E+03   -0.14083E+00   -0.14083E+00  8262   0.132E+00 0.869E-04
CGA:   3    -0.367519530168E+03   -0.32209E-01   -0.32170E-01  8262   0.290E-01-0.204E-03
CGA:   4    -0.367525596170E+03   -0.60660E-02   -0.60308E-02  8262   0.919E-02-0.146E-03
CGA:   5    -0.367527481712E+03   -0.18855E-02   -0.18706E-02  8262   0.284E-02-0.635E-04
CGA:   6    -0.367528212436E+03   -0.73072E-03   -0.73216E-03  8262   0.122E-02 0.871E-05
CGA:   7    -0.367528510821E+03   -0.29839E-03   -0.30057E-03  8262   0.469E-03 0.130E-04
CGA:   8    -0.367528649543E+03   -0.13872E-03   -0.13974E-03  8262   0.172E-03 0.896E-05
CGA:   9    -0.367528699031E+03   -0.49489E-04   -0.50377E-04  8262   0.586E-04 0.780E-05
CGA:  10    -0.367528717700E+03   -0.18669E-04   -0.18622E-04  8262   0.219E-04-0.516E-06
CGA:  11    -0.367528721321E+03   -0.36214E-05   -0.47942E-05  8262   0.748E-05 0.687E-05
  45 F= -.36752872E+03 E0= -.36752872E+03  d E =-.434056E-01  mag=    16.0000
       N       E                     dE             d eps       ncg     rms          ort
SDA:   1    -0.367340401614E+03    0.18832E+00    0.00000E+00  8262   0.473E+00 0.000E+00
CGA:   2    -0.367492434064E+03   -0.15203E+00   -0.15208E+00  8262   0.156E+00 0.605E-03
CGA:   3    -0.367526358670E+03   -0.33925E-01   -0.33871E-01  8262   0.418E-01-0.361E-03
CGA:   4    -0.367533956447E+03   -0.75978E-02   -0.75727E-02  8262   0.102E-01-0.151E-03
CGA:   5    -0.367536139489E+03   -0.21830E-02   -0.21665E-02  8262   0.298E-02-0.118E-03
CGA:   6    -0.367536838881E+03   -0.69939E-03   -0.70039E-03  8262   0.121E-02 0.854E-05
CGA:   7    -0.367537140626E+03   -0.30175E-03   -0.30436E-03  8262   0.441E-03 0.291E-04
CGA:   8    -0.367537274888E+03   -0.13426E-03   -0.13480E-03  8262   0.176E-03 0.140E-04
CGA:   9    -0.367537320537E+03   -0.45648E-04   -0.47251E-04  8262   0.530E-04 0.216E-04
CGA:  10    -0.367537344249E+03   -0.23712E-04   -0.26728E-04  8262   0.473E-04-0.256E-04
CGA:  11    -0.367537346674E+03   -0.24245E-05   -0.37029E-05  8262   0.267E-04 0.686E-05
  46 F= -.36753735E+03 E0= -.36753735E+03  d E =-.862535E-02  mag=    16.0000
       N       E                     dE             d eps       ncg     rms          ort
SDA:   1    -0.367492026527E+03    0.45318E-01    0.00000E+00  8262   0.124E+00 0.000E+00
CGA:   2    -0.367531915795E+03   -0.39889E-01   -0.39886E-01  8262   0.422E-01 0.848E-03
CGA:   3    -0.367540767209E+03   -0.88514E-02   -0.88038E-02  8262   0.110E-01-0.440E-03
CGA:   4    -0.367542677221E+03   -0.19100E-02   -0.19022E-02  8262   0.236E-02-0.601E-04
CGA:   5    -0.367543165042E+03   -0.48782E-03   -0.48557E-03  8262   0.640E-03-0.233E-04
CGA:   6    -0.367543313195E+03   -0.14815E-03   -0.14761E-03  8262   0.236E-03-0.822E-05
CGA:   7    -0.367543375452E+03   -0.62257E-04   -0.62111E-04  8262   0.974E-04-0.477E-05
CGA:   8    -0.367543403434E+03   -0.27982E-04   -0.27987E-04  8262   0.381E-04 0.220E-05
CGA:   9    -0.367543412341E+03   -0.89072E-05   -0.93401E-05  8262   0.109E-04 0.777E-05
CGA:  10    -0.367543420470E+03   -0.81284E-05    0.33902E-04  8262   0.450E-05 0.113E-05
  47 F= -.36754342E+03 E0= -.36754342E+03  d E =-.607380E-02  mag=    16.0000
       N       E                     dE             d eps       ncg     rms          ort
SDA:   1    -0.367443031620E+03    0.10038E+00    0.00000E+00  8262   0.253E+00 0.000E+00
CGA:   2    -0.367519239440E+03   -0.76208E-01   -0.76188E-01  8262   0.916E-01 0.209E-02
CGA:   3    -0.367538750035E+03   -0.19511E-01   -0.19425E-01  8262   0.228E-01-0.106E-02
CGA:   4    -0.367542676536E+03   -0.39265E-02   -0.39079E-02  8262   0.509E-02-0.167E-03
CGA:   5    -0.367543714746E+03   -0.10382E-02   -0.10381E-02  8262   0.133E-02-0.199E-05
CGA:   6    -0.367544022077E+03   -0.30733E-03   -0.30693E-03  8262   0.501E-03-0.867E-05
CGA:   7    -0.367544155053E+03   -0.13298E-03   -0.13289E-03  8262   0.208E-03-0.860E-05
CGA:   8    -0.367544217406E+03   -0.62353E-04   -0.62253E-04  8262   0.868E-04 0.358E-05
CGA:   9    -0.367544242468E+03   -0.25062E-04   -0.25028E-04  8262   0.289E-04 0.591E-05
CGA:  10    -0.367544082063E+03    0.16041E-03   -0.86412E-04  8262   0.824E-03-0.141E-03
CGA:  11    -0.367544232047E+03   -0.14998E-03   -0.16452E-03  8262   0.852E-04 0.472E-04
CGA:  12    -0.367544263709E+03   -0.31662E-04   -0.30565E-04  8262   0.313E-04-0.721E-05
CGA:  13    -0.367544265825E+03   -0.21165E-05   -0.53702E-05  8262   0.104E-04 0.110E-04
  48 F= -.36754427E+03 E0= -.36754427E+03  d E =-.845356E-03  mag=    16.0000
       N       E                     dE             d eps       ncg     rms          ort
SDA:   1    -0.367446370987E+03    0.97893E-01    0.00000E+00  8262   0.252E+00 0.000E+00
CGA:   2    -0.367512422097E+03   -0.66051E-01   -0.66433E-01  8262   0.963E-01 0.186E-02
CGA:   3    -0.367533684254E+03   -0.21262E-01   -0.21084E-01  8262   0.235E-01-0.786E-03
CGA:   4    -0.367537682690E+03   -0.39984E-02   -0.39315E-02  8262   0.483E-02-0.253E-03
CGA:   5    -0.367538669703E+03   -0.98701E-03   -0.98096E-03  8262   0.122E-02-0.279E-04
CGA:   6    -0.367538933212E+03   -0.26351E-03   -0.26418E-03  8262   0.412E-03 0.321E-05
CGA:   7    -0.367539044360E+03   -0.11115E-03   -0.11072E-03  8262   0.181E-03-0.323E-05
CGA:   8    -0.367539106308E+03   -0.61948E-04   -0.61510E-04  8262   0.985E-04-0.798E-05
CGA:   9    -0.367539136717E+03   -0.30409E-04   -0.30264E-04  8262   0.392E-04-0.200E-05
CGA:  10    -0.367539152161E+03   -0.15444E-04   -0.15614E-04  8262   0.225E-04-0.108E-04
CGA:  11    -0.367539157811E+03   -0.56504E-05   -0.10538E-04  8262   0.377E-04-0.192E-04
  49 F= -.36753916E+03 E0= -.36753916E+03  d E =0.510801E-02  mag=    16.0000
       N       E                     dE             d eps       ncg     rms          ort
SDA:   1    -0.367319027076E+03    0.22013E+00    0.00000E+00  8262   0.589E+00 0.000E+00
CGA:   2    -0.367468456895E+03   -0.14943E+00   -0.14993E+00  8262   0.222E+00 0.341E-02
CGA:   3    -0.367517961168E+03   -0.49504E-01   -0.49274E-01  8262   0.543E-01-0.144E-02
CGA:   4    -0.367526994213E+03   -0.90330E-02   -0.89354E-02  8262   0.111E-01-0.470E-03
CGA:   5    -0.367529234939E+03   -0.22407E-02   -0.22384E-02  8262   0.284E-02-0.146E-04
CGA:   6    -0.367529832248E+03   -0.59731E-03   -0.60359E-03  8262   0.938E-03 0.427E-04
CGA:   7    -0.367530088492E+03   -0.25624E-03   -0.25725E-03  8262   0.418E-03 0.124E-04
CGA:   8    -0.367530235917E+03   -0.14743E-03   -0.14743E-03  8262   0.239E-03-0.595E-05
CGA:   9    -0.367530307313E+03   -0.71395E-04   -0.72029E-04  8262   0.916E-04 0.154E-04
CGA:  10    -0.367530336555E+03   -0.29243E-04   -0.29521E-04  8262   0.325E-04 0.656E-05
CGA:  11    -0.367530350287E+03   -0.13732E-04   -0.14158E-04  8262   0.206E-04-0.668E-05
CGA:  12    -0.367530353692E+03   -0.34048E-05   -0.39144E-05  8262   0.855E-05 0.477E-05
  50 F= -.36753035E+03 E0= -.36753035E+03  d E =0.880412E-02  mag=    16.0000
       N       E                     dE             d eps       ncg     rms          ort
SDA:   1    -0.366629873959E+03    0.90048E+00    0.00000E+00  8262   0.245E+01 0.000E+00
CGA:   2    -0.367252065385E+03   -0.62219E+00   -0.62298E+00  8262   0.937E+00 0.819E-02
CGA:   3    -0.367458321310E+03   -0.20626E+00   -0.20595E+00  8262   0.219E+00-0.301E-02
CGA:   4    -0.367494449430E+03   -0.36128E-01   -0.35982E-01  8262   0.444E-01-0.932E-03
CGA:   5    -0.367503561380E+03   -0.91120E-02   -0.91066E-02  8262   0.116E-01-0.468E-04
CGA:   6    -0.367506052064E+03   -0.24907E-02   -0.24930E-02  8262   0.391E-02 0.219E-04
CGA:   7    -0.367507136656E+03   -0.10846E-02   -0.10832E-02  8262   0.182E-02-0.465E-04
CGA:   8    -0.367507769381E+03   -0.63273E-03   -0.63613E-03  8262   0.106E-02-0.702E-04
CGA:   9    -0.367508105081E+03   -0.33570E-03   -0.33616E-03  8262   0.433E-03-0.211E-04
CGA:  10    -0.367508242556E+03   -0.13748E-03   -0.13781E-03  8262   0.156E-03-0.208E-04
CGA:  11    -0.367508301573E+03   -0.59017E-04   -0.67853E-04  8262   0.121E-03-0.599E-04
CGA:  12    -0.367508325186E+03   -0.23613E-04   -0.23616E-04  8262   0.539E-04-0.494E-05
CGA:  13    -0.367508343818E+03   -0.18633E-04   -0.19549E-04  8262   0.312E-04-0.150E-04
CGA:  14    -0.367508345174E+03   -0.13555E-05   -0.16131E-04  8262   0.628E-04-0.373E-04
CGA:  15    -0.367508358749E+03   -0.13575E-04   -0.14598E-04  8262   0.781E-05 0.949E-05
CGA:  16    -0.367508365549E+03   -0.67998E-05    0.11510E-04  8262   0.208E-05 0.141E-05
  51 F= -.36750837E+03 E0= -.36750837E+03  d E =0.219881E-01  mag=    16.0000
       N       E                     dE             d eps       ncg     rms          ort
SDA:   1    -0.367395483873E+03    0.11287E+00    0.00000E+00  8262   0.272E+00 0.000E+00
CGA:   2    -0.367482684097E+03   -0.87200E-01   -0.87208E-01  8262   0.104E+00 0.152E-02
CGA:   3    -0.367503139622E+03   -0.20456E-01   -0.20373E-01  8262   0.230E-01-0.650E-03
CGA:   4    -0.367507163535E+03   -0.40239E-02   -0.39995E-02  8262   0.544E-02-0.173E-03
CGA:   5    -0.367508281354E+03   -0.11178E-02   -0.11192E-02  8262   0.148E-02 0.129E-04
CGA:   6    -0.367508604003E+03   -0.32265E-03   -0.32443E-03  8262   0.516E-03 0.199E-04
CGA:   7    -0.367508736592E+03   -0.13259E-03   -0.13365E-03  8262   0.192E-03 0.228E-04
CGA:   8    -0.367508794922E+03   -0.58330E-04   -0.58462E-04  8262   0.792E-04 0.167E-04
CGA:   9    -0.367508818610E+03   -0.23688E-04   -0.23917E-04  8262   0.264E-04 0.107E-04
CGA:  10    -0.367508824283E+03   -0.56725E-05   -0.64811E-05  8262   0.844E-05 0.986E-05
  52 F= -.36750882E+03 E0= -.36750882E+03  d E =-.458734E-03  mag=    16.0000
       N       E                     dE             d eps       ncg     rms          ort
SDA:   1    -0.367153855160E+03    0.35496E+00    0.00000E+00  8262   0.849E+00 0.000E+00
CGA:   2    -0.367427303111E+03   -0.27345E+00   -0.27334E+00  8262   0.324E+00 0.337E-02
CGA:   3    -0.367489092583E+03   -0.61789E-01   -0.61631E-01  8262   0.654E-01-0.160E-02
CGA:   4    -0.367500306096E+03   -0.11214E-01   -0.11172E-01  8262   0.149E-01-0.371E-03
CGA:   5    -0.367503284996E+03   -0.29789E-02   -0.29893E-02  8262   0.371E-02 0.126E-03
CGA:   6    -0.367504067095E+03   -0.78210E-03   -0.78649E-03  8262   0.116E-02 0.634E-04
CGA:   7    -0.367504383562E+03   -0.31647E-03   -0.31649E-03  8262   0.485E-03 0.272E-05
CGA:   8    -0.367504538580E+03   -0.15502E-03   -0.15447E-03  8262   0.235E-03 0.126E-04
CGA:   9    -0.367504610683E+03   -0.72103E-04   -0.71718E-04  8262   0.808E-04 0.186E-04
CGA:  10    -0.367504635721E+03   -0.25038E-04   -0.24959E-04  8262   0.260E-04 0.932E-05
CGA:  11    -0.367504647117E+03   -0.11397E-04   -0.15885E-04  8262   0.357E-04-0.167E-04
CGA:  12    -0.367504652265E+03   -0.51476E-05   -0.62071E-05  8262   0.547E-05 0.897E-05
  53 F= -.36750465E+03 E0= -.36750465E+03  d E =0.417202E-02  mag=    16.0000
       N       E                     dE             d eps       ncg     rms          ort
SDA:   1    -0.363669680545E+03    0.38350E+01    0.00000E+00  8262   0.925E+01 0.000E+00
CGA:   2    -0.366653085452E+03   -0.29834E+01   -0.29828E+01  8262   0.342E+01 0.121E-01
CGA:   3    -0.367321156989E+03   -0.66807E+00   -0.66768E+00  8262   0.642E+00-0.604E-02
CGA:   4    -0.367431794892E+03   -0.11064E+00   -0.11052E+00  8262   0.153E+00-0.115E-02
CGA:   5    -0.367463014997E+03   -0.31220E-01   -0.31254E-01  8262   0.373E-01 0.453E-03
CGA:   6    -0.367471014736E+03   -0.79997E-02   -0.80132E-02  8262   0.121E-01 0.219E-03
CGA:   7    -0.367474220661E+03   -0.32059E-02   -0.32058E-02  8262   0.503E-02-0.256E-04
CGA:   8    -0.367475859272E+03   -0.16386E-02   -0.16363E-02  8262   0.249E-02 0.399E-04
CGA:   9    -0.367476648916E+03   -0.78964E-03   -0.78705E-03  8262   0.915E-03 0.634E-04
CGA:  10    -0.367476940936E+03   -0.29202E-03   -0.29177E-03  8262   0.305E-03 0.681E-05
CGA:  11    -0.367477046214E+03   -0.10528E-03   -0.10569E-03  8262   0.134E-03-0.618E-05
CGA:  12    -0.367477092649E+03   -0.46435E-04   -0.45251E-04  8262   0.615E-04 0.181E-04
[...]
CGA:   6    -0.367484748526E+03   -0.10654E-02   -0.10582E-02  8262   0.168E-02-0.211E-03
CGA:   7    -0.367485147565E+03   -0.39904E-03   -0.39978E-03  8262   0.586E-03 0.566E-04
CGA:   8    -0.367485299351E+03   -0.15179E-03   -0.15265E-03  8262   0.202E-03 0.939E-04
CGA:   9    -0.367485379099E+03   -0.79748E-04   -0.81014E-04  8262   0.102E-03-0.151E-04
CGA:  10    -0.367485410459E+03   -0.31359E-04   -0.33877E-04  8262   0.532E-04-0.266E-04
CGA:  11    -0.367485389070E+03    0.21389E-04   -0.33808E-04  8262   0.243E-03-0.935E-04
CGA:  12    -0.367485424022E+03   -0.34952E-04   -0.40968E-04  8262   0.285E-04 0.461E-04
CGA:  13    -0.367485431625E+03   -0.76028E-05   -0.80684E-05  8262   0.104E-04 0.855E-05
 151 F= -.36748543E+03 E0= -.36748543E+03  d E =0.362196E-02  mag=    16.0000
       N       E                     dE             d eps       ncg     rms          ort
SDA:   1    -0.367240164609E+03    0.24526E+00    0.00000E+00  8262   0.655E+00 0.000E+00
CGA:   2    -0.367416658640E+03   -0.17649E+00   -0.17653E+00  8262   0.300E+00 0.272E-02
CGA:   3    -0.367473227125E+03   -0.56568E-01   -0.56390E-01  8262   0.712E-01-0.189E-02
CGA:   4    -0.367485782691E+03   -0.12556E-01   -0.12450E-01  8262   0.150E-01-0.105E-02
CGA:   5    -0.367488729012E+03   -0.29463E-02   -0.29499E-02  8262   0.413E-02 0.472E-04
CGA:   6    -0.367489583440E+03   -0.85443E-03   -0.86420E-03  8262   0.124E-02 0.162E-03
CGA:   7    -0.367489940931E+03   -0.35749E-03   -0.35757E-03  8262   0.539E-03-0.679E-05
CGA:   8    -0.367490122796E+03   -0.18187E-03   -0.18856E-03  8262   0.317E-03-0.784E-04
CGA:   9    -0.367490192702E+03   -0.69906E-04   -0.70153E-04  8262   0.987E-04 0.212E-04
CGA:  10    -0.367490215087E+03   -0.22385E-04   -0.23475E-04  8262   0.326E-04 0.231E-04
CGA:  11    -0.367490225107E+03   -0.10020E-04   -0.10133E-04  8262   0.136E-04 0.713E-05
CGA:  12    -0.367490228212E+03   -0.31043E-05   -0.35002E-05  8262   0.697E-05 0.702E-05
 152 F= -.36749023E+03 E0= -.36749023E+03  d E =-.479659E-02  mag=    16.0000
       N       E                     dE             d eps       ncg     rms          ort
SDA:   1    -0.367445068075E+03    0.45157E-01    0.00000E+00  8262   0.108E+00 0.000E+00
CGA:   2    -0.367481472476E+03   -0.36404E-01   -0.36290E-01  8262   0.345E-01 0.151E-02
CGA:   3    -0.367488636966E+03   -0.71645E-02   -0.71050E-02  8262   0.688E-02-0.960E-03
CGA:   4    -0.367489826902E+03   -0.11899E-02   -0.11756E-02  8262   0.182E-02-0.167E-03
CGA:   5    -0.367490150328E+03   -0.32343E-03   -0.32836E-03  8262   0.371E-03 0.673E-04
CGA:   6    -0.367490225904E+03   -0.75576E-04   -0.77589E-04  8262   0.113E-03 0.378E-04
CGA:   7    -0.367490257490E+03   -0.31586E-04   -0.31567E-04  8262   0.474E-04 0.969E-05
CGA:   8    -0.367490274846E+03   -0.17356E-04   -0.17210E-04  8262   0.273E-04 0.176E-05
CGA:   9    -0.367490279391E+03   -0.45458E-05   -0.53321E-05  8262   0.103E-04 0.116E-04
 153 F= -.36749028E+03 E0= -.36749028E+03  d E =-.511798E-04  mag=    16.0000
       N       E                     dE             d eps       ncg     rms          ort
SDA:   1    -0.354841694876E+03    0.12649E+02    0.00000E+00  8262   0.303E+02 0.000E+00
CGA:   2    -0.365068053716E+03   -0.10226E+02   -0.10223E+02  8262   0.998E+01 0.352E-01
CGA:   3    -0.367011971400E+03   -0.19439E+01   -0.19439E+01  8262   0.189E+01-0.124E-01
CGA:   4    -0.367342785917E+03   -0.33081E+00   -0.33056E+00  8262   0.500E+00-0.368E-02
CGA:   5    -0.367442459045E+03   -0.99673E-01   -0.99727E-01  8262   0.116E+00 0.105E-02
CGA:   6    -0.367468122850E+03   -0.25664E-01   -0.25679E-01  8262   0.395E-01 0.614E-03
CGA:   7    -0.367478635601E+03   -0.10513E-01   -0.10518E-01  8262   0.165E-01-0.258E-03
CGA:   8    -0.367484020297E+03   -0.53847E-02   -0.53918E-02  8262   0.799E-02-0.877E-04
CGA:   9    -0.367486440229E+03   -0.24199E-02   -0.24094E-02  8262   0.268E-02 0.187E-03
CGA:  10    -0.367487300927E+03   -0.86070E-03   -0.86941E-03  8262   0.890E-03-0.133E-03
CGA:  11    -0.367487547591E+03   -0.24666E-03   -0.24366E-03  8262   0.292E-03 0.866E-04
CGA:  12    -0.367487644812E+03   -0.97221E-04   -0.94193E-04  8262   0.133E-03 0.792E-04
CGA:  13    -0.367487685282E+03   -0.40470E-04   -0.41485E-04  8262   0.713E-04 0.801E-04
CGA:  14    -0.367487707113E+03   -0.21831E-04   -0.20772E-04  8262   0.339E-04 0.304E-04
CGA:  15    -0.367487717670E+03   -0.10558E-04   -0.11347E-04  8262   0.245E-04 0.333E-04
CGA:  16    -0.367487722158E+03   -0.44878E-05   -0.52528E-05  8262   0.168E-04 0.178E-04
 154 F= -.36748772E+03 E0= -.36748772E+03  d E =0.255723E-02  mag=    16.0000
       N       E                     dE             d eps       ncg     rms          ort
SDA:   1    -0.346759914350E+03    0.20728E+02    0.00000E+00  8262   0.479E+02 0.000E+00
CGA:   2    -0.360260145384E+03   -0.13500E+02   -0.13496E+02  8262   0.205E+02 0.708E-01
CGA:   3    -0.364226134553E+03   -0.39660E+01   -0.39713E+01  8262   0.561E+01 0.270E-01
CGA:   4    -0.365295178091E+03   -0.10690E+01   -0.10691E+01  8262   0.135E+01 0.517E-02
CGA:   5    -0.365573471213E+03   -0.27829E+00   -0.27833E+00  8262   0.424E+00 0.818E-03
CGA:   6    -0.365674306239E+03   -0.10084E+00   -0.10083E+00  8262   0.163E+00-0.117E-03
CGA:   7    -0.365718444773E+03   -0.44139E-01   -0.44121E-01  8262   0.624E-01 0.705E-03
CGA:   8    -0.365736638936E+03   -0.18194E-01   -0.18164E-01  8262   0.242E-01 0.679E-03
CGA:   9    -0.365743900010E+03   -0.72611E-02   -0.72684E-02  8262   0.824E-02-0.154E-03
CGA:  10    -0.365746418249E+03   -0.25182E-02   -0.25193E-02  8262   0.279E-02-0.218E-04
CGA:  11    -0.365747354367E+03   -0.93612E-03   -0.95036E-03  8262   0.117E-02-0.164E-03
CGA:  12    -0.365747801002E+03   -0.44663E-03   -0.49346E-03  8262   0.758E-03-0.246E-03
CGA:  13    -0.365748024897E+03   -0.22390E-03   -0.23244E-03  8262   0.347E-03-0.712E-04
CGA:  14    -0.365746519085E+03    0.15058E-02   -0.81091E-03  8262   0.758E-02-0.138E-02
CGA:  15    -0.365747911185E+03   -0.13921E-02   -0.15186E-02  8262   0.114E-02 0.410E-03
CGA:  16    -0.365748320761E+03   -0.40958E-03   -0.36003E-03  8262   0.421E-03-0.266E-03
CGA:  17    -0.365748387540E+03   -0.66778E-04   -0.82201E-04  8262   0.122E-03 0.697E-04
CGA:  18    -0.365748421440E+03   -0.33901E-04   -0.39829E-04  8262   0.592E-04 0.321E-04
CGA:  19    -0.365747797172E+03    0.62427E-03   -0.16628E-03  8262   0.386E-02-0.447E-03
CGA:  20    -0.365748256370E+03   -0.45920E-03   -0.60686E-03  8262   0.438E-03 0.374E-03
CGA:  21    -0.365748410888E+03   -0.15452E-03   -0.15572E-03  8262   0.813E-04 0.598E-05
CGA:  22    -0.365748402411E+03    0.84772E-05   -0.80771E-04  8262   0.916E-03-0.192E-03
CGA:  23    -0.365748455140E+03   -0.52729E-04   -0.12188E-03  8262   0.543E-04 0.170E-03
CGA:  24    -0.365748450187E+03    0.49528E-05   -0.72010E-05  8262   0.194E-04 0.300E-04
 155 F= -.36574845E+03 E0= -.36574845E+03  d E =0.173927E+01  mag=    16.0000
       N       E                     dE             d eps       ncg     rms          ort
SDA:   1    -0.361674317127E+03    0.40741E+01    0.00000E+00  8262   0.131E+02 0.000E+00
CGA:   2    -0.365909464294E+03   -0.42351E+01   -0.42278E+01  8262   0.412E+01-0.121E-02
CGA:   3    -0.366857398259E+03   -0.94793E+00   -0.94994E+00  8262   0.105E+01-0.695E-03
CGA:   4    -0.367052615274E+03   -0.19522E+00   -0.19552E+00  8262   0.297E+00-0.685E-03
CGA:   5    -0.367116220791E+03   -0.63606E-01   -0.63691E-01  8262   0.914E-01 0.565E-03
CGA:   6    -0.367139005750E+03   -0.22785E-01   -0.22839E-01  8262   0.401E-01 0.289E-03
CGA:   7    -0.367149410946E+03   -0.10405E-01   -0.10381E-01  8262   0.150E-01-0.156E-03
CGA:   8    -0.367153908474E+03   -0.44975E-02   -0.44962E-02  8262   0.568E-02-0.135E-04
CGA:   9    -0.367155447579E+03   -0.15391E-02   -0.15648E-02  8262   0.181E-02 0.180E-03
CGA:  10    -0.367155980304E+03   -0.53272E-03   -0.54292E-03  8262   0.594E-03 0.845E-04
CGA:  11    -0.367156129498E+03   -0.14919E-03   -0.16637E-03  8262   0.209E-03 0.125E-03
CGA:  12    -0.367156184016E+03   -0.54518E-04   -0.65583E-04  8262   0.948E-04 0.798E-04
CGA:  13    -0.367156212150E+03   -0.28135E-04   -0.34289E-04  8262   0.493E-04 0.475E-04
CGA:  14    -0.367156208851E+03    0.32995E-05   -0.59793E-05  8262   0.287E-04 0.352E-04
 156 F= -.36715621E+03 E0= -.36715621E+03  d E =-.140776E+01  mag=    16.0000
       N       E                     dE             d eps       ncg     rms          ort
SDA:   1    -0.364777571507E+03    0.23786E+01    0.00000E+00  8262   0.641E+01 0.000E+00
CGA:   2    -0.366810293300E+03   -0.20327E+01   -0.20331E+01  8262   0.219E+01 0.252E-02
CGA:   3    -0.367284746275E+03   -0.47445E+00   -0.47460E+00  8262   0.633E+00 0.124E-02
CGA:   4    -0.367398581297E+03   -0.11384E+00   -0.11392E+00  8262   0.155E+00-0.559E-04
CGA:   5    -0.367432197885E+03   -0.33617E-01   -0.33654E-01  8262   0.504E-01 0.248E-03
CGA:   6    -0.367444294741E+03   -0.12097E-01   -0.12123E-01  8262   0.211E-01 0.265E-03
CGA:   7    -0.367449937118E+03   -0.56424E-02   -0.56421E-02  8262   0.799E-02-0.562E-05
CGA:   8    -0.367452324509E+03   -0.23874E-02   -0.23891E-02  8262   0.309E-02 0.563E-04
CGA:   9    -0.367453181298E+03   -0.85679E-03   -0.86253E-03  8262   0.995E-03 0.113E-03
CGA:  10    -0.367453485998E+03   -0.30470E-03   -0.30587E-03  8262   0.333E-03 0.413E-04
CGA:  11    -0.367453563494E+03   -0.77496E-04   -0.84889E-04  8262   0.116E-03 0.942E-04
CGA:  12    -0.367453597823E+03   -0.34329E-04   -0.37601E-04  8262   0.568E-04 0.490E-04
CGA:  13    -0.367453611248E+03   -0.13425E-04   -0.17458E-04  8262   0.319E-04 0.402E-04
CGA:  14    -0.367453611344E+03   -0.95806E-07   -0.42316E-05  8262   0.190E-04 0.232E-04
 157 F= -.36745361E+03 E0= -.36745361E+03  d E =-.297402E+00  mag=    16.0000
       N       E                     dE             d eps       ncg     rms          ort
SDA:   1    -0.367399197200E+03    0.54414E-01    0.00000E+00  8262   0.195E+00 0.000E+00
CGA:   2    -0.367453761867E+03   -0.54565E-01   -0.54563E-01  8262   0.849E-01-0.160E-03
CGA:   3    -0.367469631444E+03   -0.15870E-01   -0.15916E-01  8262   0.234E-01 0.436E-03
CGA:   4    -0.367474100468E+03   -0.44690E-02   -0.44816E-02  8262   0.542E-02 0.126E-03
CGA:   5    -0.367475205225E+03   -0.11048E-02   -0.11016E-02  8262   0.167E-02-0.403E-04
CGA:   6    -0.367475601798E+03   -0.39657E-03   -0.39570E-03  8262   0.656E-03-0.217E-04
CGA:   7    -0.367475766211E+03   -0.16441E-03   -0.16524E-03  8262   0.236E-03 0.375E-04
CGA:   8    -0.367475824477E+03   -0.58266E-04   -0.60094E-04  8262   0.805E-04 0.513E-04
CGA:   9    -0.367475848563E+03   -0.24086E-04   -0.24599E-04  8262   0.299E-04 0.220E-04
CGA:  10    -0.367475858262E+03   -0.96987E-05   -0.98277E-05  8262   0.121E-04 0.879E-05
 158 F= -.36747586E+03 E0= -.36747586E+03  d E =-.222469E-01  mag=    16.0000
       N       E                     dE             d eps       ncg     rms          ort
SDA:   1    -0.367328314503E+03    0.14753E+00    0.00000E+00  8262   0.428E+00 0.000E+00
CGA:   2    -0.367439222120E+03   -0.11091E+00   -0.11091E+00  8262   0.195E+00-0.580E-04
CGA:   3    -0.367475903918E+03   -0.36682E-01   -0.36737E-01  8262   0.518E-01 0.689E-03
CGA:   4    -0.367485921247E+03   -0.10017E-01   -0.10028E-01  8262   0.126E-01 0.152E-03
CGA:   5    -0.367488405134E+03   -0.24839E-02   -0.24763E-02  8262   0.366E-02-0.125E-03
CGA:   6    -0.367489275525E+03   -0.87039E-03   -0.86912E-03  8262   0.144E-02-0.837E-04
CGA:   7    -0.367489636486E+03   -0.36096E-03   -0.36080E-03  8262   0.516E-03 0.534E-04
CGA:   8    -0.367489770455E+03   -0.13397E-03   -0.13425E-03  8262   0.173E-03 0.822E-04
CGA:   9    -0.367489829847E+03   -0.59392E-04   -0.58752E-04  8262   0.669E-04 0.169E-04
CGA:  10    -0.367489854392E+03   -0.24546E-04   -0.25033E-04  8262   0.319E-04-0.580E-05
CGA:  11    -0.367489860626E+03   -0.62339E-05   -0.65172E-05  8262   0.108E-04 0.764E-05
 159 F= -.36748986E+03 E0= -.36748986E+03  d E =-.140024E-01  mag=    16.0000
       N       E                     dE             d eps       ncg     rms          ort
SDA:   1    -0.367477176891E+03    0.12678E-01    0.00000E+00  8262   0.444E-01 0.000E+00
CGA:   2    -0.367486174214E+03   -0.89973E-02   -0.90066E-02  8262   0.191E-01 0.184E-03
CGA:   3    -0.367490100051E+03   -0.39258E-02   -0.39393E-02  8262   0.539E-02 0.306E-03
CGA:   4    -0.367491146188E+03   -0.10461E-02   -0.10457E-02  8262   0.132E-02-0.586E-05
CGA:   5    -0.367491414660E+03   -0.26847E-03   -0.26491E-03  8262   0.374E-03-0.820E-04
CGA:   6    -0.367491498799E+03   -0.84139E-04   -0.84068E-04  8262   0.145E-03-0.308E-04
CGA:   7    -0.367491526681E+03   -0.27882E-04   -0.28459E-04  8262   0.431E-04 0.206E-04
CGA:   8    -0.367491533154E+03   -0.64723E-05   -0.81204E-05  8262   0.169E-04 0.219E-04
 160 F= -.36749153E+03 E0= -.36749153E+03  d E =-.167253E-02  mag=    16.0000
       N       E                     dE             d eps       ncg     rms          ort
SDA:   1    -0.367364943256E+03    0.12658E+00    0.00000E+00  8262   0.428E+00 0.000E+00
CGA:   2    -0.367443183046E+03   -0.78240E-01   -0.78300E-01  8262   0.167E+00 0.945E-03
CGA:   3    -0.367479867181E+03   -0.36684E-01   -0.36695E-01  8262   0.530E-01 0.692E-03
CGA:   4    -0.367489828797E+03   -0.99616E-02   -0.99466E-02  8262   0.126E-01-0.295E-03
CGA:   5    -0.367492258761E+03   -0.24300E-02   -0.24184E-02  8262   0.334E-02-0.299E-03
CGA:   6    -0.367492997552E+03   -0.73879E-03   -0.73866E-03  8262   0.114E-02-0.426E-04
CGA:   7    -0.367493269258E+03   -0.27171E-03   -0.27060E-03  8262   0.378E-03 0.931E-04
CGA:   8    -0.367493367854E+03   -0.98596E-04   -0.97781E-04  8262   0.129E-03 0.866E-04
CGA:   9    -0.367493410966E+03   -0.43112E-04   -0.41978E-04  8262   0.552E-04 0.335E-04
CGA:  10    -0.367493436002E+03   -0.25036E-04   -0.25220E-04  8262   0.341E-04-0.141E-05
CGA:  11    -0.367493444915E+03   -0.89131E-05   -0.87564E-05  8262   0.137E-04 0.622E-05
 161 F= -.36749344E+03 E0= -.36749344E+03  d E =-.191176E-02  mag=    16.0000
       N       E                     dE             d eps       ncg     rms          ort
SDA:   1    -0.367484394725E+03    0.90413E-02    0.00000E+00  8262   0.307E-01 0.000E+00
CGA:   2    -0.367490425171E+03   -0.60304E-02   -0.60574E-02  8262   0.113E-01 0.711E-03
CGA:   3    -0.367492878363E+03   -0.24532E-02   -0.24524E-02  8262   0.369E-02-0.424E-04
CGA:   4    -0.367493635677E+03   -0.75731E-03   -0.75000E-03  8262   0.977E-03-0.264E-03
CGA:   5    -0.367493804501E+03   -0.16882E-03   -0.16807E-03  8262   0.249E-03-0.167E-04
CGA:   6    -0.367493841524E+03   -0.37023E-04   -0.40995E-04  8262   0.722E-04 0.655E-04
CGA:   7    -0.367493854860E+03   -0.13336E-04   -0.15326E-04  8262   0.329E-04 0.350E-04
CGA:   8    -0.367493865984E+03   -0.11125E-04   -0.11076E-04  8262   0.180E-04 0.107E-04
CGA:   9    -0.367493873065E+03   -0.70802E-05   -0.69241E-05  8262   0.109E-04 0.227E-05
 162 F= -.36749387E+03 E0= -.36749387E+03  d E =-.428149E-03  mag=    16.0000
       N       E                     dE             d eps       ncg     rms          ort
SDA:   1    -0.367480189361E+03    0.13677E-01    0.00000E+00  8262   0.483E-01 0.000E+00
CGA:   2    -0.367488774266E+03   -0.85849E-02   -0.86265E-02  8262   0.164E-01 0.981E-03
CGA:   3    -0.367492464782E+03   -0.36905E-02   -0.36905E-02  8262   0.580E-02-0.459E-06
CGA:   4    -0.367493636214E+03   -0.11714E-02   -0.11645E-02  8262   0.146E-02-0.397E-03
CGA:   5    -0.367493900617E+03   -0.26440E-03   -0.26243E-03  8262   0.405E-03-0.809E-04
CGA:   6    -0.367493964649E+03   -0.64031E-04   -0.67186E-04  8262   0.112E-03 0.783E-04
CGA:   7    -0.367493984645E+03   -0.19997E-04   -0.22459E-04  8262   0.480E-04 0.529E-04
CGA:   8    -0.367493997416E+03   -0.12770E-04   -0.13331E-04  8262   0.245E-04 0.243E-04
CGA:   9    -0.367494006982E+03   -0.95662E-05   -0.13021E-04  8262   0.469E-04-0.108E-04
 163 F= -.36749401E+03 E0= -.36749401E+03  d E =-.133917E-03  mag=    16.0000
       N       E                     dE             d eps       ncg     rms          ort
SDA:   1    -0.367487868633E+03    0.61288E-02    0.00000E+00  8262   0.190E-01 0.000E+00
CGA:   2    -0.367491820425E+03   -0.39518E-02   -0.39594E-02  8262   0.788E-02 0.575E-03
CGA:   3    -0.367493491729E+03   -0.16713E-02   -0.16708E-02  8262   0.233E-02-0.317E-04
CGA:   4    -0.367493961654E+03   -0.46992E-03   -0.46624E-03  8262   0.530E-03-0.185E-03
CGA:   5    -0.367494061289E+03   -0.99636E-04   -0.99035E-04  8262   0.142E-03-0.365E-04
CGA:   6    -0.367494085182E+03   -0.23892E-04   -0.24631E-04  8262   0.370E-04 0.225E-04
CGA:   7    -0.367494096696E+03   -0.11514E-04   -0.11406E-04  8262   0.176E-04 0.217E-05
CGA:   8    -0.367494105783E+03   -0.90875E-05    0.18898E-04  8262   0.722E-05 0.437E-05
 164 F= -.36749411E+03 E0= -.36749411E+03  d E =-.988016E-04  mag=    16.0000
       N       E                     dE             d eps       ncg     rms          ort
SDA:   1    -0.367463098315E+03    0.30998E-01    0.00000E+00  8262   0.904E-01 0.000E+00
CGA:   2    -0.367483123480E+03   -0.20025E-01   -0.20023E-01  8262   0.410E-01 0.109E-02
CGA:   3    -0.367491499283E+03   -0.83758E-02   -0.83718E-02  8262   0.105E-01-0.237E-03
CGA:   4    -0.367493443377E+03   -0.19441E-02   -0.19303E-02  8262   0.226E-02-0.399E-03
CGA:   5    -0.367493863869E+03   -0.42049E-03   -0.41886E-03  8262   0.593E-03-0.677E-04
CGA:   6    -0.367493968862E+03   -0.10499E-03   -0.10725E-03  8262   0.152E-03 0.769E-04
CGA:   7    -0.367494006333E+03   -0.37471E-04   -0.37339E-04  8262   0.561E-04 0.338E-04
CGA:   8    -0.367494029638E+03   -0.23306E-04   -0.32845E-04  8262   0.891E-04-0.361E-04
CGA:   9    -0.367494041036E+03   -0.11397E-04   -0.12976E-04  8262   0.134E-04 0.192E-04
CGA:  10    -0.367494044763E+03   -0.37273E-05   -0.37129E-05  8262   0.567E-05 0.344E-05
CGA:  11    -0.367494025743E+03    0.19020E-04   -0.10382E-04  8262   0.109E-03-0.236E-04
CGA:  12    -0.367494040132E+03   -0.14388E-04   -0.19168E-04  8262   0.155E-04 0.205E-04
CGA:  13    -0.367494046412E+03   -0.62799E-05   -0.62255E-05  8262   0.382E-05-0.940E-06
 165 F= -.36749405E+03 E0= -.36749405E+03  d E =0.593718E-04  mag=    16.0000
       N       E                     dE             d eps       ncg     rms          ort
SDA:   1    -0.367488357551E+03    0.56826E-02    0.00000E+00  8262   0.189E-01 0.000E+00
CGA:   2    -0.367492118408E+03   -0.37609E-02   -0.37155E-02  8262   0.830E-02-0.250E-03
CGA:   3    -0.367493817437E+03   -0.16990E-02   -0.16967E-02  8262   0.235E-02-0.168E-04
CGA:   4    -0.367494219822E+03   -0.40239E-03   -0.41576E-03  8262   0.502E-03 0.728E-04
CGA:   5    -0.367494314360E+03   -0.94538E-04   -0.97698E-04  8262   0.127E-03 0.191E-04
CGA:   6    -0.367494352372E+03   -0.38013E-04   -0.36140E-04  8262   0.633E-04-0.261E-04
CGA:   7    -0.367494368543E+03   -0.16170E-04   -0.15555E-04  8262   0.358E-04-0.183E-04
CGA:   8    -0.367494374186E+03   -0.56428E-05   -0.57266E-05  8262   0.118E-04 0.718E-06
 166 F= -.36749437E+03 E0= -.36749437E+03  d E =-.327774E-03  mag=    16.0000
       N       E                     dE             d eps       ncg     rms          ort
SDA:   1    -0.367491164232E+03    0.32043E-02    0.00000E+00  8262   0.116E-01 0.000E+00
CGA:   2    -0.367493271782E+03   -0.21076E-02   -0.20692E-02  8262   0.440E-02-0.253E-03
CGA:   3    -0.367494202677E+03   -0.93090E-03   -0.92755E-03  8262   0.141E-02-0.326E-04
CGA:   4    -0.367494438803E+03   -0.23613E-03   -0.24769E-03  8262   0.282E-03 0.827E-04
CGA:   5    -0.367494490109E+03   -0.51306E-04   -0.54806E-04  8262   0.673E-04 0.274E-04
CGA:   6    -0.367494512289E+03   -0.22180E-04   -0.22068E-04  8262   0.398E-04-0.178E-04
CGA:   7    -0.367494519706E+03   -0.74170E-05   -0.71925E-05  8262   0.165E-04-0.380E-05
 167 F= -.36749452E+03 E0= -.36749452E+03  d E =-.145521E-03  mag=    16.0000
