       N       E                     dE             d eps       ncg     rms          ort
DAV:   1     0.221837816741E+04    0.22184E+04   -0.13343E+05  9828   0.153E+03
DAV:   2    -0.252366825815E+03   -0.24707E+04   -0.23640E+04  9828   0.406E+02
DAV:   3    -0.475705674875E+03   -0.22334E+03   -0.21919E+03  9828   0.142E+02
DAV:   4    -0.484298675111E+03   -0.85930E+01   -0.84967E+01  9828   0.309E+01
DAV:   5    -0.484699170842E+03   -0.40050E+00   -0.39976E+00  9828   0.479E+00
SDA:   6    -0.251112747186E+03    0.23359E+03   -0.39976E+00  9828   0.716E+03 0.000E+00
CGA:   7    -0.324751316030E+03   -0.73639E+02   -0.84460E+02  9828   0.413E+03-0.109E+01
CGA:   8    -0.327504969792E+03   -0.27537E+01   -0.32249E+02  9828   0.369E+03-0.115E+02
CGA:   9    -0.346023333506E+03   -0.18518E+02   -0.21048E+02  9828   0.248E+03-0.256E+03
CGA:  10    -0.358037520154E+03   -0.12014E+02   -0.17374E+02  9828   0.154E+03-0.112E+03
CGA:  11    -0.366362087989E+03   -0.83246E+01   -0.52020E+01  9828   0.176E+03 0.565E+02
CGA:  12    -0.360341189559E+03    0.60209E+01   -0.14581E+02  9828   0.156E+03-0.912E+02
CGA:  13    -0.370674495773E+03   -0.10333E+02   -0.75624E+01  9828   0.633E+02-0.122E+03
CGA:  14    -0.371656565696E+03   -0.98207E+00   -0.31611E+01  9828   0.456E+02-0.328E+02
CGA:  15    -0.373118749319E+03   -0.14622E+01   -0.15847E+01  9828   0.103E+02-0.930E+01
CGA:  16    -0.374110890598E+03   -0.99214E+00   -0.10131E+01  9828   0.181E+02 0.235E+00
CGA:  17    -0.374796771008E+03   -0.68588E+00   -0.10863E+01  9828   0.102E+02-0.408E+01
CGA:  18    -0.375176454617E+03   -0.37968E+00   -0.29656E+00  9828   0.283E+01 0.150E+01
CGA:  19    -0.375450719401E+03   -0.27426E+00   -0.27274E+00  9828   0.727E+01-0.743E-02
CGA:  20    -0.375808046168E+03   -0.35733E+00   -0.33374E+00  9828   0.319E+01 0.510E+00
CGA:  21    -0.375895090912E+03   -0.87045E-01   -0.68913E-01  9828   0.979E+00 0.829E+00
CGA:  22    -0.375934431493E+03   -0.39341E-01   -0.40282E-01  9828   0.764E+00-0.273E-01
CGA:  23    -0.375979460375E+03   -0.45029E-01   -0.41823E-01  9828   0.163E+01 0.145E-01
CGA:  24    -0.376031740351E+03   -0.52280E-01   -0.30091E-01  9828   0.151E+01 0.114E+01
CGA:  25    -0.376074924409E+03   -0.43184E-01   -0.50394E-01  9828   0.444E+00-0.197E+00
CGA:  26    -0.376095740485E+03   -0.20816E-01   -0.21240E-01  9828   0.275E+00-0.141E-01
CGA:  27    -0.376165867106E+03   -0.70127E-01   -0.69850E-01  9828   0.900E+00 0.667E-02
CGA:  28    -0.376190232811E+03   -0.24366E-01   -0.14434E-01  9828   0.313E+00 0.583E+00
CGA:  29    -0.376200222317E+03   -0.99895E-02   -0.99098E-02  9828   0.121E+00 0.383E-02
CGA:  30    -0.376212789150E+03   -0.12567E-01   -0.12563E-01  9828   0.185E+00-0.688E-02
CGA:  31    -0.376231500230E+03   -0.18711E-01   -0.18774E-01  9828   0.245E+00-0.243E-01
CGA:  32    -0.376256660109E+03   -0.25160E-01   -0.26566E-01  9828   0.218E+00-0.624E-01
CGA:  33    -0.376265642284E+03   -0.89822E-02   -0.72637E-02  9828   0.251E+00 0.389E-02
CGA:  34    -0.376291609361E+03   -0.25967E-01   -0.25906E-01  9828   0.203E+00-0.380E-01
CGA:  35    -0.376296632852E+03   -0.50235E-02   -0.48140E-02  9828   0.602E-01-0.295E-01
CGA:  36    -0.376310601985E+03   -0.13969E-01   -0.10367E-02  9828   0.378E+00-0.338E-01
CGA:  37    -0.376325799443E+03   -0.15197E-01   -0.15280E-01  9828   0.180E+00-0.105E-01
CGA:  38    -0.376352630154E+03   -0.26831E-01   -0.26852E-01  9828   0.135E+00-0.256E-02
CGA:  39    -0.376364029831E+03   -0.11400E-01   -0.11671E-01  9828   0.850E-01-0.633E-02
CGA:  40    -0.376395317990E+03   -0.31288E-01   -0.31868E-01  9828   0.161E+00-0.591E-02
CGA:  41    -0.376413870400E+03   -0.18552E-01   -0.17340E-01  9828   0.345E+00-0.182E-01
CGA:  42    -0.376437253743E+03   -0.23383E-01   -0.19406E-01  9828   0.184E+00 0.174E-01
CGA:  43    -0.376446314449E+03   -0.90607E-02   -0.89823E-02  9828   0.110E+00-0.978E-02
CGA:  44    -0.376468031484E+03   -0.21717E-01   -0.23754E-01  9828   0.255E+00-0.327E-01
CGA:  45    -0.376477805989E+03   -0.97745E-02   -0.97270E-02  9828   0.116E+00-0.726E-01
CGA:  46    -0.376495844855E+03   -0.18039E-01   -0.18754E-01  9828   0.166E+00-0.213E-01
CGA:  47    -0.376511843179E+03   -0.15998E-01   -0.14676E-01  9828   0.959E-01-0.216E-01
CGA:  48    -0.376526390189E+03   -0.14547E-01   -0.14840E-01  9828   0.102E+00-0.175E-01
CGA:  49    -0.376539793672E+03   -0.13403E-01   -0.13365E-01  9828   0.796E-01-0.130E-01
CGA:  50    -0.376551184515E+03   -0.11391E-01   -0.11394E-01  9828   0.491E-01-0.463E-02
CGA:  51    -0.376559064195E+03   -0.78797E-02   -0.78480E-02  9828   0.407E-01 0.460E-02
CGA:  52    -0.376568354106E+03   -0.92899E-02   -0.89712E-02  9828   0.359E-01 0.869E-02
CGA:  53    -0.376576060624E+03   -0.77065E-02   -0.76442E-02  9828   0.214E-01 0.607E-02
CGA:  54    -0.376581777330E+03   -0.57167E-02   -0.54874E-02  9828   0.212E-01 0.415E-02
CGA:  55    -0.376585908219E+03   -0.41309E-02   -0.41554E-02  9828   0.109E-01 0.685E-02
CGA:  56    -0.376587628571E+03   -0.17204E-02   -0.18998E-02  9828   0.957E-02 0.593E-02
CGA:  57    -0.376589728914E+03   -0.21003E-02   -0.20833E-02  9828   0.869E-02 0.362E-03
CGA:  58    -0.376591102726E+03   -0.13738E-02   -0.14238E-02  9828   0.348E-02 0.462E-02
CGA:  59    -0.376591594519E+03   -0.49179E-03   -0.51969E-03  9828   0.211E-02 0.151E-02
CGA:  60    -0.376592568624E+03   -0.97410E-03   -0.79480E-03  9828   0.230E-02 0.190E-02
CGA:  61    -0.376592991900E+03   -0.42328E-03   -0.41720E-03  9828   0.145E-02 0.682E-03
CGA:  62    -0.376593388324E+03   -0.39642E-03   -0.36398E-03  9828   0.139E-02 0.159E-02
CGA:  63    -0.376593686138E+03   -0.29781E-03   -0.28080E-03  9828   0.112E-02 0.606E-03
CGA:  64    -0.376594131351E+03   -0.44521E-03   -0.36803E-03  9828   0.106E-02 0.143E-02
CGA:  65    -0.376594355318E+03   -0.22397E-03   -0.21242E-03  9828   0.880E-03 0.523E-03
CGA:  66    -0.376594813070E+03   -0.45775E-03   -0.35112E-03  9828   0.894E-03 0.118E-02
CGA:  67    -0.376595047474E+03   -0.23440E-03   -0.21356E-03  9828   0.878E-03 0.374E-03
CGA:  68    -0.376595656487E+03   -0.60901E-03   -0.43018E-03  9828   0.766E-03 0.109E-02
CGA:  69    -0.376595961556E+03   -0.30507E-03   -0.26460E-03  9828   0.938E-03 0.261E-03
CGA:  70    -0.376597113780E+03   -0.11522E-02   -0.80640E-03  9828   0.180E-02 0.736E-03
CGA:  71    -0.376597382194E+03   -0.26841E-03   -0.28690E-03  9828   0.637E-03 0.307E-03
CGA:  72    -0.376597010112E+03    0.37208E-03   -0.31188E-03  9828   0.140E-01-0.127E-02
CGA:  73    -0.376598657214E+03   -0.16471E-02   -0.18402E-02  9828   0.362E-02 0.144E-02
CGA:  74    -0.376599539279E+03   -0.88206E-03   -0.72947E-03  9828   0.960E-03-0.814E-03
CGA:  75    -0.376599639198E+03   -0.99919E-04   -0.14907E-03  9828   0.726E-03 0.277E-03
CGA:  76    -0.376599080956E+03    0.55824E-03   -0.55957E-03  9828   0.219E-01-0.158E-02
CGA:  77    -0.376602639357E+03   -0.35584E-02   -0.36592E-02  9828   0.409E-02 0.119E-02
CGA:  78    -0.376603584299E+03   -0.94494E-03   -0.67207E-03  9828   0.983E-03-0.969E-03
CGA:  79    -0.376603647423E+03   -0.63124E-04   -0.12043E-03  9828   0.258E-03 0.141E-03
CGA:  80    -0.376603821553E+03   -0.17413E-03   -0.17337E-03  9828   0.799E-03-0.703E-04
CGA:  81    -0.376604555691E+03   -0.73414E-03    0.33290E-02  9828   0.413E-02-0.493E-03
CGA:  82    -0.376604920545E+03   -0.36485E-03   -0.50735E-03  9828   0.793E-03 0.573E-03
CGA:  83    -0.376605204151E+03   -0.28361E-03   -0.21289E-03  9828   0.357E-03-0.208E-03
CGA:  84    -0.376605287147E+03   -0.82996E-04   -0.94916E-04  9828   0.194E-03 0.579E-04
CGA:  85    -0.376605360293E+03   -0.73146E-04   -0.22124E-03  9828   0.187E-02-0.352E-03
CGA:  86    -0.376605660173E+03   -0.29988E-03   -0.33215E-03  9828   0.265E-03 0.934E-04
CGA:  87    -0.376605808699E+03   -0.14853E-03   -0.15654E-03  9828   0.304E-02-0.646E-03
CGA:  88    -0.376605892417E+03   -0.83718E-04   -0.23275E-03  9828   0.284E-03 0.733E-03
CGA:  89    -0.376605872469E+03    0.19948E-04   -0.28226E-04  9828   0.110E-03 0.116E-03
CGA:  90    -0.376605885610E+03   -0.13141E-04   -0.23014E-04  9828   0.885E-04 0.272E-04
CGA:  91    -0.376606010365E+03   -0.12476E-03    0.17037E-03  9828   0.866E-03-0.178E-03
CGA:  92    -0.376606037018E+03   -0.26652E-04   -0.90304E-04  9828   0.155E-03 0.195E-03
CGA:  93    -0.376606108564E+03   -0.71546E-04   -0.57026E-04  9828   0.155E-03-0.869E-04
CGA:  94    -0.376606178079E+03   -0.69515E-04   -0.77269E-04  9828   0.688E-03-0.208E-03
CGA:  95    -0.376606180693E+03   -0.26135E-05   -0.60187E-04  9828   0.106E-03 0.181E-03
CGA:  96    -0.376606196692E+03   -0.15999E-04   -0.20202E-04  9828   0.669E-04 0.147E-04
CGA:  97    -0.376606329507E+03   -0.13281E-03    0.15791E-04  9828   0.364E-03-0.746E-04
CGA:  98    -0.376606319979E+03    0.95279E-05   -0.34644E-04  9828   0.859E-04 0.137E-03
CGA:  99    -0.376606322755E+03   -0.27762E-05   -0.13859E-04  9828   0.403E-04 0.375E-04
CGA: 100    -0.376606385526E+03   -0.62771E-04    0.31363E-04  9828   0.203E-03-0.291E-04
CGA: 101    -0.376606394003E+03   -0.84763E-05   -0.24360E-04  9828   0.485E-04 0.592E-04
CGA: 102    -0.376606459750E+03   -0.65748E-04    0.32709E-04  9828   0.129E-03-0.317E-04
CGA: 103    -0.376606474224E+03   -0.14474E-04   -0.21675E-04  9828   0.281E-04 0.334E-04
CGA: 104    -0.376606511625E+03   -0.37401E-04    0.15806E-04  9828   0.552E-04 0.167E-04
CGA: 105    -0.376606533446E+03   -0.21821E-04   -0.22307E-04  9828   0.911E-04-0.157E-04
CGA: 106    -0.376606658907E+03   -0.12546E-03    0.77788E-05  9828   0.170E-03 0.292E-04
CGA: 107    -0.376606004136E+03    0.65477E-03   -0.36634E-03  9828   0.866E-02-0.649E-03
CGA: 108    -0.376607743448E+03   -0.17393E-02   -0.15231E-02  9828   0.468E-03-0.559E-03
CGA: 109    -0.376607713628E+03    0.29820E-04   -0.30080E-04  9828   0.569E-04 0.130E-03
CGA: 110    -0.376607697025E+03    0.16603E-04   -0.31031E-05  9828   0.189E-04 0.356E-04
CGA: 111    -0.376607690110E+03    0.69146E-05   -0.98199E-06  9828   0.122E-04 0.145E-04
   1 F= -.37660769E+03 E0= -.37660757E+03  d E =-.376608E+03  mag=     4.0000
       N       E                     dE             d eps       ncg     rms          ort
SDA:   1    -0.376650927270E+03   -0.43230E-01    0.00000E+00  9828   0.994E-02 0.000E+00
CGA:   2    -0.376653052360E+03   -0.21251E-02   -0.22568E-02  9828   0.219E-02 0.410E-03
CGA:   3    -0.376653759619E+03   -0.70726E-03   -0.66646E-03  9828   0.749E-03-0.173E-03
CGA:   4    -0.376653879724E+03   -0.12010E-03   -0.12589E-03  9828   0.181E-03 0.176E-04
CGA:   5    -0.376653957512E+03   -0.77789E-04   -0.59190E-04  9828   0.190E-03-0.102E-03
CGA:   6    -0.376653950462E+03    0.70500E-05   -0.16809E-04  9828   0.383E-04 0.611E-04
   2 F= -.37665395E+03 E0= -.37665383E+03  d E =-.462604E-01  mag=     4.0000
       N       E                     dE             d eps       ncg     rms          ort
SDA:   1    -0.370108053301E+03    0.65459E+01    0.00000E+00  9828   0.258E+02 0.000E+00
CGA:   2    -0.376356275354E+03   -0.62482E+01   -0.62772E+01  9828   0.597E+01 0.642E-01
CGA:   3    -0.377900046564E+03   -0.15438E+01   -0.15410E+01  9828   0.169E+01-0.320E-02
CGA:   4    -0.378241513426E+03   -0.34147E+00   -0.34150E+00  9828   0.447E+00-0.400E-03
CGA:   5    -0.378338011022E+03   -0.96498E-01   -0.96076E-01  9828   0.134E+00-0.273E-02
CGA:   6    -0.378377675791E+03   -0.39665E-01   -0.39634E-01  9828   0.633E-01-0.451E-03
CGA:   7    -0.378398019108E+03   -0.20343E-01   -0.20335E-01  9828   0.294E-01-0.157E-03
CGA:   8    -0.378407372282E+03   -0.93532E-02   -0.93515E-02  9828   0.111E-01-0.129E-04
CGA:   9    -0.378410997365E+03   -0.36251E-02   -0.36202E-02  9828   0.423E-02-0.677E-04
CGA:  10    -0.378412583706E+03   -0.15863E-02   -0.15786E-02  9828   0.239E-02-0.383E-03
CGA:  11    -0.378413275968E+03   -0.69226E-03   -0.69201E-03  9828   0.122E-02 0.868E-06
CGA:  12    -0.378413705829E+03   -0.42986E-03   -0.42230E-03  9828   0.622E-03-0.161E-03
CGA:  13    -0.378413866615E+03   -0.16079E-03   -0.16187E-03  9828   0.213E-03 0.132E-04
CGA:  14    -0.378413963550E+03   -0.96935E-04   -0.10277E-03  9828   0.173E-03-0.655E-04
CGA:  15    -0.378414014899E+03   -0.51349E-04   -0.51941E-04  9828   0.147E-03-0.129E-04
CGA:  16    -0.378414082796E+03   -0.67897E-04   -0.88531E-04  9828   0.272E-03-0.782E-04
CGA:  17    -0.378414153866E+03   -0.71070E-04   -0.68089E-04  9828   0.111E-03-0.186E-04
CGA:  18    -0.378414192868E+03   -0.39002E-04   -0.37445E-04  9828   0.101E-03-0.459E-04
CGA:  19    -0.378414188601E+03    0.42673E-05   -0.69053E-04  9828   0.337E-03-0.944E-04
CGA:  20    -0.378414253010E+03   -0.64409E-04   -0.63885E-04  9828   0.121E-03 0.697E-07
CGA:  21    -0.378414304026E+03   -0.51016E-04   -0.51052E-04  9828   0.402E-04-0.211E-04
CGA:  22    -0.378414306229E+03   -0.22025E-05   -0.60142E-05  9828   0.159E-04 0.160E-04
   3 F= -.37841431E+03 E0= -.37841431E+03  d E =-.176036E+01  mag=     4.0000
       N       E                     dE             d eps       ncg     rms          ort
SDA:   1    -0.367716449706E+03    0.10698E+02    0.00000E+00  9828   0.380E+02 0.000E+00
CGA:   2    -0.376510511426E+03   -0.87941E+01   -0.88554E+01  9828   0.829E+01 0.731E-01
CGA:   3    -0.378680559235E+03   -0.21700E+01   -0.21663E+01  9828   0.237E+01-0.135E-01
CGA:   4    -0.379165048129E+03   -0.48449E+00   -0.48373E+00  9828   0.608E+00-0.298E-02
CGA:   5    -0.379293137754E+03   -0.12809E+00   -0.12818E+00  9828   0.181E+00 0.465E-03
CGA:   6    -0.379346236738E+03   -0.53099E-01   -0.53168E-01  9828   0.864E-01 0.743E-03
CGA:   7    -0.379374839060E+03   -0.28602E-01   -0.28593E-01  9828   0.434E-01-0.285E-03
CGA:   8    -0.379389026706E+03   -0.14188E-01   -0.14167E-01  9828   0.171E-01-0.541E-03
CGA:   9    -0.379394604187E+03   -0.55775E-02   -0.55709E-02  9828   0.627E-02-0.205E-03
CGA:  10    -0.379396792043E+03   -0.21879E-02   -0.21876E-02  9828   0.262E-02-0.312E-04
CGA:  11    -0.379397801372E+03   -0.10093E-02   -0.10076E-02  9828   0.116E-02 0.630E-04
CGA:  12    -0.379398270879E+03   -0.46951E-03   -0.47004E-03  9828   0.524E-03-0.132E-04
CGA:  13    -0.379398443852E+03   -0.17297E-03   -0.17326E-03  9828   0.276E-03 0.120E-04
CGA:  14    -0.379398518994E+03   -0.75143E-04   -0.78530E-04  9828   0.146E-03 0.424E-04
CGA:  15    -0.379398568923E+03   -0.49929E-04   -0.53036E-04  9828   0.877E-04 0.740E-04
CGA:  16    -0.379398601911E+03   -0.32988E-04   -0.32441E-04  9828   0.537E-04 0.361E-04
CGA:  17    -0.379398634635E+03   -0.32724E-04   -0.30577E-04  9828   0.535E-04 0.452E-04
CGA:  18    -0.379398647509E+03   -0.12874E-04   -0.14740E-04  9828   0.423E-04 0.229E-04
CGA:  19    -0.379398670912E+03   -0.23403E-04   -0.22595E-04  9828   0.365E-04 0.393E-04
CGA:  20    -0.379398687223E+03   -0.16311E-04   -0.15154E-04  9828   0.261E-04 0.189E-04
CGA:  21    -0.379398693129E+03   -0.59065E-05   -0.74118E-05  9828   0.225E-04 0.205E-04
CGA:  22    -0.379398705086E+03   -0.11957E-04   -0.10247E-04  9828   0.260E-04 0.170E-04
CGA:  23    -0.379398707843E+03   -0.27564E-05   -0.51926E-05  9828   0.198E-04 0.154E-04
   4 F= -.37939871E+03 E0= -.37939871E+03  d E =-.984402E+00  mag=     4.0000
       N       E                     dE             d eps       ncg     rms          ort
SDA:   1    -0.374633745985E+03    0.47650E+01    0.00000E+00  9828   0.157E+02 0.000E+00
CGA:   2    -0.378343475854E+03   -0.37097E+01   -0.37141E+01  9828   0.381E+01-0.115E-02
CGA:   3    -0.379366008163E+03   -0.10225E+01   -0.10215E+01  9828   0.102E+01-0.678E-02
CGA:   4    -0.379569639118E+03   -0.20363E+00   -0.20355E+00  9828   0.244E+00-0.589E-03
CGA:   5    -0.379620396670E+03   -0.50758E-01   -0.50745E-01  9828   0.724E-01-0.663E-04
CGA:   6    -0.379641740422E+03   -0.21344E-01   -0.21356E-01  9828   0.349E-01 0.412E-03
CGA:   7    -0.379653429595E+03   -0.11689E-01   -0.11688E-01  9828   0.188E-01 0.268E-03
CGA:   8    -0.379659717652E+03   -0.62881E-02   -0.62886E-02  9828   0.791E-02-0.118E-03
CGA:   9    -0.379662205594E+03   -0.24879E-02   -0.24879E-02  9828   0.290E-02 0.295E-05
CGA:  10    -0.379663120678E+03   -0.91508E-03   -0.91435E-03  9828   0.119E-02-0.543E-04
CGA:  11    -0.379663459903E+03   -0.33923E-03   -0.34248E-03  9828   0.491E-03 0.982E-04
CGA:  12    -0.379663639021E+03   -0.17912E-03   -0.17889E-03  9828   0.222E-03 0.197E-04
CGA:  13    -0.379663710397E+03   -0.71375E-04   -0.71933E-04  9828   0.929E-04 0.386E-04
CGA:  14    -0.379663743222E+03   -0.32826E-04   -0.33399E-04  9828   0.498E-04 0.309E-04
CGA:  15    -0.379663760036E+03   -0.16814E-04   -0.18498E-04  9828   0.348E-04 0.370E-04
CGA:  16    -0.379663768900E+03   -0.88639E-05   -0.97684E-05  9828   0.218E-04 0.219E-04
   5 F= -.37966377E+03 E0= -.37966377E+03  d E =-.265061E+00  mag=     4.0000
       N       E                     dE             d eps       ncg     rms          ort
SDA:   1    -0.374508885443E+03    0.51549E+01    0.00000E+00  9828   0.144E+02 0.000E+00
CGA:   2    -0.378392778804E+03   -0.38839E+01   -0.38838E+01  9828   0.476E+01-0.149E-01
CGA:   3    -0.379515527274E+03   -0.11227E+01   -0.11225E+01  9828   0.110E+01-0.556E-03
CGA:   4    -0.379717969466E+03   -0.20244E+00   -0.20265E+00  9828   0.230E+00 0.136E-02
CGA:   5    -0.379766656610E+03   -0.48687E-01   -0.48726E-01  9828   0.646E-01 0.388E-03
CGA:   6    -0.379784346629E+03   -0.17690E-01   -0.17687E-01  9828   0.275E-01-0.827E-04
CGA:   7    -0.379793279150E+03   -0.89325E-02   -0.89371E-02  9828   0.146E-01-0.183E-03
CGA:   8    -0.379798374196E+03   -0.50950E-02   -0.50982E-02  9828   0.683E-02-0.652E-04
CGA:   9    -0.379800588542E+03   -0.22143E-02   -0.22152E-02  9828   0.242E-02-0.391E-04
CGA:  10    -0.379801377139E+03   -0.78860E-03   -0.78874E-03  9828   0.889E-03-0.668E-05
CGA:  11    -0.379801692498E+03   -0.31536E-03   -0.31365E-03  9828   0.406E-03 0.364E-04
CGA:  12    -0.379801826010E+03   -0.13351E-03   -0.13308E-03  9828   0.184E-03 0.811E-04
CGA:  13    -0.379801892132E+03   -0.66122E-04   -0.66630E-04  9828   0.903E-04 0.642E-04
CGA:  14    -0.379801927595E+03   -0.35463E-04   -0.36191E-04  9828   0.569E-04 0.581E-04
CGA:  15    -0.379801945504E+03   -0.17909E-04   -0.17782E-04  9828   0.360E-04 0.323E-04
CGA:  16    -0.379801958405E+03   -0.12900E-04   -0.12112E-04  9828   0.343E-04 0.282E-04
CGA:  17    -0.379801965644E+03   -0.72390E-05   -0.86883E-05  9828   0.319E-04 0.251E-04
   6 F= -.37980197E+03 E0= -.37980197E+03  d E =-.138197E+00  mag=     4.0000
       N       E                     dE             d eps       ncg     rms          ort
SDA:   1    -0.366633419009E+03    0.13169E+02    0.00000E+00  9828   0.320E+02 0.000E+00
CGA:   2    -0.376969798557E+03   -0.10336E+02   -0.10340E+02  9828   0.118E+02-0.136E+00
CGA:   3    -0.379255634311E+03   -0.22858E+01   -0.23002E+01  9828   0.235E+01 0.616E-02
CGA:   4    -0.379692529198E+03   -0.43689E+00   -0.42623E+00  9828   0.456E+00 0.477E-01
CGA:   5    -0.379798571174E+03   -0.10604E+00   -0.10606E+00  9828   0.126E+00 0.133E-03
CGA:   6    -0.379830882301E+03   -0.32311E-01   -0.32305E-01  9828   0.453E-01-0.161E-03
CGA:   7    -0.379843830763E+03   -0.12948E-01   -0.12949E-01  9828   0.208E-01 0.116E-03
CGA:   8    -0.379850755532E+03   -0.69248E-02   -0.69721E-02  9828   0.116E-01-0.109E-02
CGA:   9    -0.379853465581E+03   -0.27100E-02   -0.27321E-02  9828   0.431E-02 0.591E-03
CGA:  10    -0.379854859337E+03   -0.13938E-02   -0.14009E-02  9828   0.201E-02-0.384E-03
CGA:  11    -0.379855365471E+03   -0.50613E-03   -0.50949E-03  9828   0.881E-03 0.248E-03
CGA:  12    -0.379855739464E+03   -0.37399E-03   -0.36964E-03  9828   0.595E-03 0.489E-04
CGA:  13    -0.379855996282E+03   -0.25682E-03   -0.24878E-03  9828   0.420E-03 0.745E-04
CGA:  14    -0.379856169250E+03   -0.17297E-03   -0.16701E-03  9828   0.254E-03 0.106E-03
CGA:  15    -0.379856346770E+03   -0.17752E-03   -0.18774E-03  9828   0.448E-03-0.459E-04
CGA:  16    -0.379856424583E+03   -0.77814E-04   -0.88058E-04  9828   0.411E-03 0.119E-03
CGA:  17    -0.379856618762E+03   -0.19418E-03   -0.18964E-03  9828   0.459E-03 0.633E-04
CGA:  18    -0.379856702112E+03   -0.83350E-04   -0.39289E-03  9828   0.321E-02-0.780E-03
CGA:  19    -0.379857026097E+03   -0.32399E-03   -0.40803E-03  9828   0.501E-03 0.513E-03
CGA:  20    -0.379857181453E+03   -0.15536E-03   -0.15828E-03  9828   0.173E-03 0.537E-04
CGA:  21    -0.379857176116E+03    0.53373E-05   -0.11830E-03  9828   0.168E-02-0.418E-03
CGA:  22    -0.379857277746E+03   -0.10163E-03   -0.16794E-03  9828   0.136E-03 0.339E-03
CGA:  23    -0.379857280143E+03   -0.23973E-05   -0.17542E-04  9828   0.676E-04 0.703E-04
CGA:  24    -0.379857327580E+03   -0.47437E-04    0.95539E-04  9828   0.417E-04 0.138E-04
CGA:  25    -0.379857326925E+03    0.65449E-06   -0.57861E-05  9828   0.207E-04 0.323E-04
   7 F= -.37985733E+03 E0= -.37985732E+03  d E =-.553613E-01  mag=     4.0000
       N       E                     dE             d eps       ncg     rms          ort
SDA:   1    -0.377055423108E+03    0.28019E+01    0.00000E+00  9828   0.678E+01 0.000E+00
CGA:   2    -0.379481871881E+03   -0.24264E+01   -0.24270E+01  9828   0.205E+01-0.858E-02
CGA:   3    -0.379896296668E+03   -0.41442E+00   -0.41457E+00  9828   0.439E+00 0.249E-03
CGA:   4    -0.379978577094E+03   -0.82280E-01   -0.82315E-01  9828   0.872E-01 0.886E-04
CGA:   5    -0.379997743532E+03   -0.19166E-01   -0.19179E-01  9828   0.245E-01 0.179E-03
CGA:   6    -0.380003816683E+03   -0.60732E-02   -0.60643E-02  9828   0.822E-02-0.231E-03
CGA:   7    -0.380006138805E+03   -0.23221E-02   -0.23228E-02  9828   0.351E-02-0.444E-03
CGA:   8    -0.380007247819E+03   -0.11090E-02   -0.11266E-02  9828   0.155E-02-0.315E-03
CGA:   9    -0.380007720363E+03   -0.47254E-03   -0.48521E-03  9828   0.666E-03-0.223E-03
CGA:  10    -0.380007925874E+03   -0.20551E-03   -0.22115E-03  9828   0.407E-03-0.160E-03
CGA:  11    -0.380008005876E+03   -0.80002E-04   -0.23890E-03  9828   0.118E-02-0.333E-03
CGA:  12    -0.380008231855E+03   -0.22598E-03   -0.22850E-03  9828   0.260E-03 0.240E-04
CGA:  13    -0.380008326676E+03   -0.94821E-04   -0.96122E-04  9828   0.150E-03-0.252E-04
CGA:  14    -0.380008390106E+03   -0.63430E-04   -0.63207E-04  9828   0.106E-03 0.114E-05
CGA:  15    -0.380008461077E+03   -0.70971E-04   -0.89515E-04  9828   0.219E-03-0.379E-04
CGA:  16    -0.380008526831E+03   -0.65754E-04   -0.73163E-04  9828   0.288E-03-0.469E-04
CGA:  17    -0.380008555301E+03   -0.28470E-04   -0.20789E-03  9828   0.882E-03-0.332E-03
CGA:  18    -0.380008757924E+03   -0.20262E-03   -0.20741E-03  9828   0.260E-03 0.354E-04
CGA:  19    -0.380008851039E+03   -0.93116E-04   -0.91178E-04  9828   0.165E-03-0.471E-04
CGA:  20    -0.380008904809E+03   -0.53770E-04   -0.53609E-04  9828   0.639E-04 0.750E-05
CGA:  21    -0.380008935476E+03   -0.30666E-04   -0.32757E-04  9828   0.404E-04-0.185E-04
CGA:  22    -0.380008948160E+03   -0.12684E-04   -0.16654E-04  9828   0.783E-04-0.202E-04
CGA:  23    -0.380008964504E+03   -0.16344E-04   -0.15216E-04  9828   0.220E-04-0.523E-05
CGA:  24    -0.380008975620E+03   -0.11117E-04   -0.12140E-04  9828   0.184E-04-0.494E-05
CGA:  25    -0.380008988100E+03   -0.12479E-04    0.24701E-04  9828   0.124E-04 0.501E-05
CGA:  26    -0.380008997331E+03   -0.92310E-05   -0.12848E-04  9828   0.328E-04-0.901E-05
CGA:  27    -0.380009010444E+03   -0.13113E-04   -0.11675E-04  9828   0.505E-04-0.246E-04
CGA:  28    -0.380009013125E+03   -0.26810E-05   -0.56212E-05  9828   0.393E-05 0.102E-04
   8 F= -.38000901E+03 E0= -.38000901E+03  d E =-.151686E+00  mag=     4.0000
       N       E                     dE             d eps       ncg     rms          ort
SDA:   1    -0.378793493495E+03    0.12155E+01    0.00000E+00  9828   0.307E+01 0.000E+00
CGA:   2    -0.379823038853E+03   -0.10295E+01   -0.10293E+01  9828   0.915E+00-0.647E-02
CGA:   3    -0.380019293353E+03   -0.19625E+00   -0.19673E+00  9828   0.182E+00 0.316E-02
CGA:   4    -0.380052748622E+03   -0.33455E-01   -0.33696E-01  9828   0.386E-01 0.121E-02
CGA:   5    -0.380060874993E+03   -0.81264E-02   -0.81496E-02  9828   0.977E-02 0.165E-03
CGA:   6    -0.380063369125E+03   -0.24941E-02   -0.24717E-02  9828   0.320E-02-0.218E-03
CGA:   7    -0.380064298191E+03   -0.92907E-03   -0.92107E-03  9828   0.140E-02-0.146E-03
CGA:   8    -0.380064729807E+03   -0.43162E-03   -0.43222E-03  9828   0.562E-03 0.264E-04
CGA:   9    -0.380064910952E+03   -0.18115E-03   -0.18203E-03  9828   0.200E-03 0.324E-04
CGA:  10    -0.380064997006E+03   -0.86054E-04   -0.88858E-04  9828   0.132E-03-0.364E-04
CGA:  11    -0.380065042635E+03   -0.45629E-04   -0.78469E-04  9828   0.269E-03-0.871E-04
CGA:  12    -0.380065104572E+03   -0.61937E-04   -0.63008E-04  9828   0.704E-04 0.843E-05
CGA:  13    -0.380065134501E+03   -0.29929E-04   -0.30821E-04  9828   0.682E-04-0.137E-04
CGA:  14    -0.380065158061E+03   -0.23561E-04   -0.30851E-04  9828   0.111E-03-0.363E-04
CGA:  15    -0.380065187769E+03   -0.29707E-04   -0.28333E-04  9828   0.567E-04-0.113E-04
CGA:  16    -0.380065208628E+03   -0.20859E-04   -0.21696E-04  9828   0.387E-04-0.139E-04
CGA:  17    -0.380065066190E+03    0.14244E-03   -0.77511E-04  9828   0.112E-02-0.107E-03
CGA:  18    -0.380065274460E+03   -0.20827E-03   -0.20880E-03  9828   0.174E-03 0.691E-05
CGA:  19    -0.380065325114E+03   -0.50653E-04   -0.47919E-04  9828   0.463E-04-0.686E-05
CGA:  20    -0.380065345247E+03   -0.20134E-04   -0.19606E-04  9828   0.145E-04-0.263E-05
CGA:  21    -0.380065351123E+03   -0.58756E-05   -0.52508E-05  9828   0.138E-04-0.262E-05
CGA:  22    -0.380065366706E+03   -0.15583E-04    0.27358E-04  9828   0.196E-04 0.160E-05
CGA:  23    -0.380065059200E+03    0.30751E-03   -0.16447E-03  9828   0.196E-02-0.120E-03
CGA:  24    -0.380065417859E+03   -0.35866E-03   -0.35814E-03  9828   0.219E-03 0.214E-04
CGA:  25    -0.380065468153E+03   -0.50294E-04   -0.53148E-04  9828   0.575E-04 0.406E-05
CGA:  26    -0.380065494882E+03   -0.26729E-04   -0.25307E-04  9828   0.154E-04-0.229E-05
CGA:  27    -0.380065498154E+03   -0.32719E-05   -0.47385E-05  9828   0.455E-05 0.219E-05
   9 F= -.38006550E+03 E0= -.38006550E+03  d E =-.564850E-01  mag=     4.0000
       N       E                     dE             d eps       ncg     rms          ort
SDA:   1    -0.374091467031E+03    0.59740E+01    0.00000E+00  9828   0.142E+02 0.000E+00
CGA:   2    -0.379071080986E+03   -0.49796E+01   -0.49965E+01  9828   0.438E+01 0.380E-01
CGA:   3    -0.379931076538E+03   -0.86000E+00   -0.86462E+00  9828   0.801E+00 0.265E-01
CGA:   4    -0.380085758994E+03   -0.15468E+00   -0.15513E+00  9828   0.175E+00 0.294E-02
CGA:   5    -0.380122724517E+03   -0.36966E-01   -0.37052E-01  9828   0.442E-01 0.200E-03
CGA:   6    -0.380133360703E+03   -0.10636E-01   -0.10535E-01  9828   0.129E-01-0.189E-03
CGA:   7    -0.380137103667E+03   -0.37430E-02   -0.36885E-02  9828   0.521E-02-0.107E-03
CGA:   8    -0.380138858986E+03   -0.17553E-02   -0.17553E-02  9828   0.237E-02 0.300E-06
CGA:   9    -0.380139631983E+03   -0.77300E-03   -0.77773E-03  9828   0.935E-03 0.108E-04
CGA:  10    -0.380139983143E+03   -0.35116E-03   -0.33635E-03  9828   0.521E-03-0.418E-04
CGA:  11    -0.380140209186E+03   -0.22604E-03   -0.21602E-03  9828   0.529E-03-0.393E-04
CGA:  12    -0.380140479164E+03   -0.26998E-03   -0.26066E-03  9828   0.731E-03-0.647E-04
CGA:  13    -0.380140831149E+03   -0.35199E-03   -0.34083E-03  9828   0.707E-03-0.853E-04
CGA:  14    -0.380141140491E+03   -0.30934E-03   -0.29606E-03  9828   0.457E-03-0.768E-04
CGA:  15    -0.380141323234E+03   -0.18274E-03   -0.17914E-03  9828   0.325E-03-0.195E-04
CGA:  16    -0.380141447619E+03   -0.12439E-03   -0.12618E-03  9828   0.265E-03 0.706E-05
CGA:  17    -0.380141553204E+03   -0.10558E-03   -0.11053E-03  9828   0.175E-03 0.214E-04
CGA:  18    -0.380141630928E+03   -0.77724E-04   -0.81903E-04  9828   0.952E-04 0.211E-04
CGA:  19    -0.380141664979E+03   -0.34051E-04   -0.39565E-04  9828   0.456E-04 0.221E-04
CGA:  20    -0.380141682725E+03   -0.17746E-04   -0.20652E-04  9828   0.254E-04 0.121E-04
CGA:  21    -0.380141696733E+03   -0.14008E-04   -0.14545E-04  9828   0.213E-04 0.367E-05
CGA:  22    -0.380141713159E+03   -0.16426E-04   -0.18004E-04  9828   0.523E-04-0.107E-04
CGA:  23    -0.380141722478E+03   -0.93187E-05   -0.10166E-04  9828   0.172E-04 0.241E-05
  10 F= -.38014172E+03 E0= -.38014172E+03  d E =-.762243E-01  mag=     4.0000
       N       E                     dE             d eps       ncg     rms          ort
SDA:   1    -0.334183464086E+03    0.45958E+02    0.00000E+00  9828   0.108E+03 0.000E+00
CGA:   2    -0.366290723597E+03   -0.32107E+02   -0.29155E+02  9828   0.358E+02 0.127E+02
CGA:   3    -0.374523902145E+03   -0.82332E+01   -0.88607E+01  9828   0.152E+02-0.506E+00
CGA:   4    -0.375751207096E+03   -0.12273E+01   -0.68021E+00  9828   0.892E+01 0.134E+02
CGA:   5    -0.376370941511E+03   -0.61973E+00   -0.52499E+00  9828   0.623E+01-0.221E+01
CGA:   6    -0.376831440458E+03   -0.46050E+00   -0.43298E+00  9828   0.111E+02 0.229E+00
CGA:   7    -0.376997165069E+03   -0.16572E+00   -0.75958E+00  9828   0.572E+01-0.647E+01
CGA:   8    -0.377203741472E+03   -0.20658E+00   -0.44133E+00  9828   0.125E+02-0.623E+01
CGA:   9    -0.376486852465E+03    0.71689E+00   -0.16959E+01  9828   0.118E+02-0.557E+01
CGA:  10    -0.376969814552E+03   -0.48296E+00   -0.22291E+00  9828   0.107E+02 0.797E+01
CGA:  11    -0.377679438686E+03   -0.70962E+00   -0.46077E+00  9828   0.827E+00-0.434E+01
CGA:  12    -0.377715889887E+03   -0.36451E-01   -0.54528E-01  9828   0.780E+00-0.146E+00
CGA:  13    -0.377758551852E+03   -0.42662E-01   -0.40239E-01  9828   0.224E+00 0.444E-01
CGA:  14    -0.377787226944E+03   -0.28675E-01   -0.30187E-01  9828   0.547E+00-0.198E-01
CGA:  15    -0.377854717120E+03   -0.67490E-01   -0.69126E-01  9828   0.225E+00-0.137E-02
CGA:  16    -0.377864561206E+03   -0.98441E-02   -0.12668E-01  9828   0.116E+00-0.537E-01
CGA:  17    -0.377869347643E+03   -0.47864E-02   -0.53213E-02  9828   0.434E-01 0.710E-02
CGA:  18    -0.377876334377E+03   -0.69867E-02   -0.70989E-02  9828   0.506E-01-0.155E-02
CGA:  19    -0.377883713989E+03   -0.73796E-02   -0.72115E-02  9828   0.356E-01 0.390E-02
CGA:  20    -0.377885030098E+03   -0.13161E-02   -0.21591E-02  9828   0.303E-01-0.269E-02
CGA:  21    -0.377889842110E+03   -0.48120E-02   -0.47641E-02  9828   0.295E-01 0.207E-03
CGA:  22    -0.377892165566E+03   -0.23235E-02   -0.26429E-02  9828   0.623E-02 0.397E-02
CGA:  23    -0.377893782978E+03   -0.16174E-02   -0.16620E-02  9828   0.180E-01 0.129E-02
CGA:  24    -0.377895484568E+03   -0.17016E-02   -0.14946E-02  9828   0.122E-01 0.379E-02
CGA:  25    -0.377896300383E+03   -0.81581E-03   -0.12479E-02  9828   0.665E-02 0.148E-02
CGA:  26    -0.377897590225E+03   -0.12898E-02   -0.13919E-02  9828   0.100E-01 0.941E-03
CGA:  27    -0.377898299563E+03   -0.70934E-03   -0.63964E-03  9828   0.551E-02 0.212E-02
CGA:  28    -0.377898615340E+03   -0.31578E-03   -0.51554E-03  9828   0.310E-02 0.106E-02
CGA:  29    -0.377899122175E+03   -0.50684E-03   -0.56278E-03  9828   0.815E-02 0.281E-03
CGA:  30    -0.377899892301E+03   -0.77013E-03   -0.55759E-03  9828   0.281E-02 0.131E-02
CGA:  31    -0.377900147809E+03   -0.25551E-03   -0.28769E-03  9828   0.269E-02 0.463E-03
CGA:  32    -0.377900408827E+03   -0.26102E-03   -0.32847E-03  9828   0.550E-02 0.194E-03
CGA:  33    -0.377901598233E+03   -0.11894E-02   -0.13697E-02  9828   0.112E-01-0.503E-02
CGA:  34    -0.377901917287E+03   -0.31905E-03   -0.39516E-03  9828   0.143E-02 0.750E-04
CGA:  35    -0.377902442411E+03   -0.52512E-03   -0.63284E-03  9828   0.137E-02-0.439E-03
CGA:  36    -0.377902638299E+03   -0.19589E-03   -0.18809E-03  9828   0.344E-02-0.995E-03
CGA:  37    -0.377902743569E+03   -0.10527E-03   -0.17347E-03  9828   0.500E-03 0.569E-03
CGA:  38    -0.377902819491E+03   -0.75921E-04   -0.76268E-04  9828   0.881E-03 0.590E-05
CGA:  39    -0.377902965688E+03   -0.14620E-03   -0.12252E-03  9828   0.478E-03-0.419E-03
CGA:  40    -0.377896943385E+03    0.60223E-02   -0.34140E-02  9828   0.144E+00-0.600E-02
CGA:  41    -0.377901905910E+03   -0.49625E-02   -0.61681E-02  9828   0.190E-01-0.124E-01
CGA:  42    -0.377902747217E+03   -0.84131E-03   -0.89177E-03  9828   0.307E-02 0.464E-03
CGA:  43    -0.377903487546E+03   -0.74033E-03   -0.71393E-03  9828   0.360E-02-0.312E-03
CGA:  44    -0.377903569413E+03   -0.81867E-04   -0.16922E-03  9828   0.119E-02 0.268E-03
CGA:  45    -0.377903589621E+03   -0.20208E-04   -0.63715E-04  9828   0.201E-03 0.237E-03
CGA:  46    -0.377903607188E+03   -0.17567E-04   -0.15760E-04  9828   0.181E-03-0.672E-05
CGA:  47    -0.377903618701E+03   -0.11514E-04   -0.14312E-04  9828   0.132E-03 0.145E-04
CGA:  48    -0.377903622392E+03   -0.36906E-05   -0.93467E-05  9828   0.118E-03 0.273E-04
  11 F= -.37790362E+03 E0= -.37790006E+03  d E =0.223810E+01  mag=     4.0000
       N       E                     dE             d eps       ncg     rms          ort
SDA:   1    -0.360388316765E+03    0.17515E+02    0.00000E+00  9828   0.644E+02 0.000E+00
CGA:   2    -0.369030494758E+03   -0.86422E+01   -0.96719E+01  9828   0.931E+02-0.182E+02
CGA:   3    -0.375606705870E+03   -0.65762E+01   -0.45632E+01  9828   0.260E+02 0.291E+02
CGA:   4    -0.377146813267E+03   -0.15401E+01   -0.21927E+01  9828   0.152E+02-0.540E+00
CGA:   5    -0.379166781841E+03   -0.20200E+01   -0.15467E+01  9828   0.197E+01 0.409E+01
CGA:   6    -0.379361754115E+03   -0.19497E+00   -0.17326E+00  9828   0.329E+01 0.243E+00
CGA:   7    -0.379748413513E+03   -0.38666E+00   -0.38479E+00  9828   0.142E+01-0.194E-01
CGA:   8    -0.379790654398E+03   -0.42241E-01   -0.11029E+00  9828   0.107E+01-0.486E+00
CGA:   9    -0.379874033689E+03   -0.83379E-01   -0.84246E-01  9828   0.300E+00 0.188E-02
CGA:  10    -0.379910913745E+03   -0.36880E-01   -0.36999E-01  9828   0.351E+00 0.629E-02
CGA:  11    -0.379952715246E+03   -0.41802E-01   -0.42796E-01  9828   0.109E+00-0.123E-01
CGA:  12    -0.379972497547E+03   -0.19782E-01   -0.19786E-01  9828   0.116E+00-0.305E-02
CGA:  13    -0.379989904080E+03   -0.17407E-01   -0.17351E-01  9828   0.349E-01-0.155E-02
CGA:  14    -0.379997713358E+03   -0.78093E-02   -0.79439E-02  9828   0.214E-01-0.274E-02
CGA:  15    -0.380001729812E+03   -0.40165E-02   -0.41004E-02  9828   0.167E-01-0.513E-02
CGA:  16    -0.380005123174E+03   -0.33934E-02   -0.39483E-02  9828   0.115E-01-0.437E-02
CGA:  17    -0.380007529467E+03   -0.24063E-02   -0.35528E-02  9828   0.144E-01-0.491E-02
CGA:  18    -0.380009377249E+03   -0.18478E-02   -0.19877E-02  9828   0.892E-02-0.412E-02
CGA:  19    -0.380010983571E+03   -0.16063E-02   -0.17089E-02  9828   0.634E-02-0.169E-02
CGA:  20    -0.380012185223E+03   -0.12017E-02   -0.12020E-02  9828   0.389E-02-0.141E-05
CGA:  21    -0.380013115477E+03   -0.93025E-03   -0.93106E-03  9828   0.260E-02-0.306E-04
CGA:  22    -0.380013685931E+03   -0.57045E-03   -0.56698E-03  9828   0.158E-02 0.705E-03
CGA:  23    -0.380013905956E+03   -0.22003E-03   -0.28309E-03  9828   0.781E-03 0.862E-03
CGA:  24    -0.380014134135E+03   -0.22818E-03   -0.20701E-03  9828   0.346E-03 0.394E-03
CGA:  25    -0.380014249968E+03   -0.11583E-03   -0.10042E-03  9828   0.248E-03 0.202E-03
CGA:  26    -0.380014261465E+03   -0.11497E-04   -0.29636E-04  9828   0.176E-03 0.186E-03
CGA:  27    -0.380014290946E+03   -0.29480E-04   -0.33224E-04  9828   0.146E-03 0.158E-03
CGA:  28    -0.380014306703E+03   -0.15757E-04   -0.23038E-04  9828   0.128E-03 0.135E-03
CGA:  29    -0.380014321984E+03   -0.15281E-04   -0.20792E-04  9828   0.113E-03 0.119E-03
CGA:  30    -0.380014332908E+03   -0.10924E-04   -0.16933E-04  9828   0.101E-03 0.106E-03
CGA:  31    -0.380014342930E+03   -0.10022E-04   -0.15211E-04  9828   0.919E-04 0.961E-04
CGA:  32    -0.380014351429E+03   -0.84992E-05   -0.13382E-04  9828   0.841E-04 0.876E-04
CGA:  33    -0.380014359311E+03   -0.78816E-05   -0.12191E-04  9828   0.774E-04 0.804E-04
CGA:  34    -0.380014366604E+03   -0.72929E-05   -0.11144E-04  9828   0.716E-04 0.743E-04
CGA:  35    -0.380014373621E+03   -0.70172E-05   -0.10364E-04  9828   0.666E-04 0.689E-04
  12 F= -.38001437E+03 E0= -.38001437E+03  d E =-.211075E+01  mag=     4.0000
       N       E                     dE             d eps       ncg     rms          ort
SDA:   1    -0.379960144262E+03    0.54222E-01    0.00000E+00  9828   0.367E+00 0.000E+00
CGA:   2    -0.380085708981E+03   -0.12556E+00   -0.12627E+00  9828   0.108E+00-0.457E-02
CGA:   3    -0.380109976805E+03   -0.24268E-01   -0.24223E-01  9828   0.255E-01 0.148E-02
CGA:   4    -0.380114896027E+03   -0.49192E-02   -0.49205E-02  9828   0.546E-02 0.176E-03
CGA:   5    -0.380116102668E+03   -0.12066E-02   -0.12057E-02  9828   0.178E-02 0.459E-04
CGA:   6    -0.380116638011E+03   -0.53534E-03   -0.62426E-03  9828   0.131E-02-0.595E-03
CGA:   7    -0.380116866227E+03   -0.22822E-03   -0.24207E-03  9828   0.575E-03-0.196E-03
CGA:   8    -0.380117022255E+03   -0.15603E-03   -0.19217E-03  9828   0.442E-03-0.197E-03
CGA:   9    -0.380117103270E+03   -0.81015E-04   -0.83721E-04  9828   0.246E-03-0.396E-04
CGA:  10    -0.380116376417E+03    0.72685E-03   -0.39323E-03  9828   0.433E-02-0.851E-03
CGA:  11    -0.380117297229E+03   -0.92081E-03   -0.95110E-03  9828   0.415E-03 0.164E-03
CGA:  12    -0.380117439154E+03   -0.14192E-03   -0.13334E-03  9828   0.264E-03-0.983E-04
CGA:  13    -0.380117449171E+03   -0.10018E-04   -0.28010E-04  9828   0.954E-04 0.724E-04
CGA:  14    -0.380117453510E+03   -0.43390E-05   -0.14886E-04  9828   0.432E-04 0.414E-04
CGA:  15    -0.380117473992E+03   -0.20482E-04   -0.19491E-04  9828   0.470E-04-0.194E-04
CGA:  16    -0.380117483087E+03   -0.90951E-05   -0.72422E-05  9828   0.810E-04-0.220E-04
  13 F= -.38011748E+03 E0= -.38011748E+03  d E =-.103109E+00  mag=     4.0000
       N       E                     dE             d eps       ncg     rms          ort
SDA:   1    -0.377982939753E+03    0.21345E+01    0.00000E+00  9828   0.546E+01 0.000E+00
CGA:   2    -0.379792761692E+03   -0.18098E+01   -0.18097E+01  9828   0.162E+01-0.116E-01
CGA:   3    -0.380164030833E+03   -0.37127E+00   -0.37190E+00  9828   0.416E+00 0.546E-02
CGA:   4    -0.380240512046E+03   -0.76481E-01   -0.76808E-01  9828   0.835E-01 0.137E-02
CGA:   5    -0.380258835011E+03   -0.18323E-01   -0.18336E-01  9828   0.253E-01 0.119E-03
CGA:   6    -0.380265630677E+03   -0.67957E-02   -0.67579E-02  9828   0.954E-02-0.639E-03
CGA:   7    -0.380268396840E+03   -0.27662E-02   -0.27518E-02  9828   0.407E-02-0.520E-03
CGA:   8    -0.380269492088E+03   -0.10952E-02   -0.10975E-02  9828   0.140E-02 0.609E-04
CGA:   9    -0.380269943553E+03   -0.45146E-03   -0.45125E-03  9828   0.566E-03-0.912E-04
CGA:  10    -0.380270105495E+03   -0.16194E-03   -0.16168E-03  9828   0.235E-03-0.176E-04
CGA:  11    -0.380270109144E+03   -0.36484E-05   -0.21738E-03  9828   0.128E-02-0.334E-03
CGA:  12    -0.380270320343E+03   -0.21120E-03   -0.23145E-03  9828   0.222E-03 0.123E-03
CGA:  13    -0.380270389928E+03   -0.69585E-04   -0.69706E-04  9828   0.944E-04 0.278E-05
CGA:  14    -0.380270424048E+03   -0.34120E-04   -0.33686E-04  9828   0.543E-04 0.342E-04
CGA:  15    -0.380270468295E+03   -0.44246E-04   -0.40772E-04  9828   0.650E-04 0.165E-04
CGA:  16    -0.380270530838E+03   -0.62544E-04   -0.86864E-04  9828   0.349E-03-0.349E-04
CGA:  17    -0.380270568980E+03   -0.38142E-04   -0.52500E-04  9828   0.708E-04 0.637E-04
CGA:  18    -0.380270593533E+03   -0.24553E-04   -0.25774E-04  9828   0.379E-04 0.187E-04
CGA:  19    -0.380270603174E+03   -0.96404E-05   -0.37435E-04  9828   0.310E-03-0.675E-04
CGA:  20    -0.380270630764E+03   -0.27590E-04   -0.39322E-04  9828   0.312E-04 0.471E-04
CGA:  21    -0.380270639306E+03   -0.85422E-05   -0.95379E-05  9828   0.228E-04 0.888E-05
CGA:  22    -0.380270639383E+03   -0.77318E-07   -0.23668E-04  9828   0.183E-03-0.540E-04
CGA:  23    -0.380270656495E+03   -0.17112E-04   -0.26840E-04  9828   0.368E-04 0.406E-04
CGA:  24    -0.380270666306E+03   -0.98105E-05   -0.11326E-04  9828   0.146E-04 0.117E-04
CGA:  25    -0.380270671516E+03   -0.52108E-05   -0.11446E-04  9828   0.919E-04-0.284E-04
CGA:  26    -0.380270676514E+03   -0.49976E-05   -0.11060E-04  9828   0.142E-04 0.235E-04
  14 F= -.38027068E+03 E0= -.38027068E+03  d E =-.153193E+00  mag=     4.0000
       N       E                     dE             d eps       ncg     rms          ort
SDA:   1    -0.380220381785E+03    0.50290E-01    0.00000E+00  9828   0.153E+00 0.000E+00
CGA:   2    -0.380272033603E+03   -0.51652E-01   -0.51659E-01  9828   0.521E-01 0.293E-03
CGA:   3    -0.380283022750E+03   -0.10989E-01   -0.10927E-01  9828   0.117E-01-0.404E-03
CGA:   4    -0.380285262424E+03   -0.22397E-02   -0.22040E-02  9828   0.255E-02-0.215E-03
CGA:   5    -0.380285790711E+03   -0.52829E-03   -0.52403E-03  9828   0.702E-03-0.310E-04
CGA:   6    -0.380285950370E+03   -0.15966E-03   -0.16429E-03  9828   0.211E-03 0.458E-04
CGA:   7    -0.380286005353E+03   -0.54982E-04   -0.57234E-04  9828   0.766E-04 0.285E-04
CGA:   8    -0.380286038231E+03   -0.32879E-04   -0.33314E-04  9828   0.494E-04-0.802E-05
CGA:   9    -0.380286051773E+03   -0.13542E-04   -0.13526E-04  9828   0.216E-04-0.594E-06
CGA:  10    -0.380286056379E+03   -0.46054E-05   -0.51669E-05  9828   0.100E-04 0.638E-05
  15 F= -.38028606E+03 E0= -.38028606E+03  d E =-.153799E-01  mag=     4.0000
       N       E                     dE             d eps       ncg     rms          ort
SDA:   1    -0.380062925570E+03    0.22313E+00    0.00000E+00  9828   0.586E+00 0.000E+00
CGA:   2    -0.380248951513E+03   -0.18603E+00   -0.18602E+00  9828   0.214E+00-0.948E-03
CGA:   3    -0.380293082126E+03   -0.44131E-01   -0.44124E-01  9828   0.442E-01-0.405E-04
CGA:   4    -0.380301022363E+03   -0.79402E-02   -0.79488E-02  9828   0.907E-02 0.648E-04
CGA:   5    -0.380302885919E+03   -0.18636E-02   -0.18616E-02  9828   0.230E-02-0.166E-04
CGA:   6    -0.380303455058E+03   -0.56914E-03   -0.56853E-03  9828   0.700E-03-0.110E-04
CGA:   7    -0.380303642625E+03   -0.18757E-03   -0.18814E-03  9828   0.258E-03 0.189E-04
CGA:   8    -0.380303733532E+03   -0.90907E-04   -0.90833E-04  9828   0.122E-03 0.172E-05
CGA:   9    -0.380303772597E+03   -0.39065E-04   -0.38908E-04  9828   0.469E-04 0.101E-04
CGA:  10    -0.380303786384E+03   -0.13786E-04   -0.14105E-04  9828   0.190E-04 0.131E-04
CGA:  11    -0.380303792002E+03   -0.56186E-05   -0.61830E-05  9828   0.120E-04 0.120E-04
  16 F= -.38030379E+03 E0= -.38030379E+03  d E =-.177356E-01  mag=     4.0000
       N       E                     dE             d eps       ncg     rms          ort
SDA:   1    -0.379657116438E+03    0.64667E+00    0.00000E+00  9828   0.158E+01 0.000E+00
CGA:   2    -0.380193031579E+03   -0.53592E+00   -0.53594E+00  9828   0.525E+00-0.352E-03
CGA:   3    -0.380299556535E+03   -0.10652E+00   -0.10646E+00  9828   0.103E+00-0.136E-02
CGA:   4    -0.380318268414E+03   -0.18712E-01   -0.18716E-01  9828   0.211E-01 0.319E-04
CGA:   5    -0.380322718934E+03   -0.44505E-02   -0.44468E-02  9828   0.551E-02-0.349E-04
CGA:   6    -0.380324003964E+03   -0.12850E-02   -0.12846E-02  9828   0.159E-02-0.678E-05
CGA:   7    -0.380324409749E+03   -0.40578E-03   -0.40852E-03  9828   0.563E-03 0.775E-04
CGA:   8    -0.380324623338E+03   -0.21359E-03   -0.21565E-03  9828   0.303E-03-0.275E-04
CGA:   9    -0.380324709031E+03   -0.85693E-04   -0.85652E-04  9828   0.114E-03 0.194E-04
CGA:  10    -0.380324743785E+03   -0.34754E-04   -0.34884E-04  9828   0.461E-04 0.176E-04
CGA:  11    -0.380324758687E+03   -0.14902E-04   -0.15126E-04  9828   0.278E-04 0.210E-04
CGA:  12    -0.380324775586E+03   -0.16899E-04   -0.15460E-04  9828   0.274E-04 0.160E-04
CGA:  13    -0.380324781562E+03   -0.59761E-05   -0.26902E-04  9828   0.156E-03-0.307E-04
CGA:  14    -0.380324801300E+03   -0.19739E-04   -0.24948E-04  9828   0.234E-04 0.305E-04
CGA:  15    -0.380324806959E+03   -0.56587E-05   -0.63685E-05  9828   0.115E-04 0.738E-05
  17 F= -.38032481E+03 E0= -.38032481E+03  d E =-.210150E-01  mag=     4.0000
       N       E                     dE             d eps       ncg     rms          ort
SDA:   1    -0.378958135753E+03    0.13667E+01    0.00000E+00  9828   0.321E+01 0.000E+00
CGA:   2    -0.380126683931E+03   -0.11685E+01   -0.11686E+01  9828   0.884E+00 0.125E-03
CGA:   3    -0.380309672074E+03   -0.18299E+00   -0.18272E+00  9828   0.164E+00-0.249E-02
CGA:   4    -0.380339615320E+03   -0.29943E-01   -0.29979E-01  9828   0.378E-01 0.307E-03
CGA:   5    -0.380347508498E+03   -0.78932E-02   -0.79102E-02  9828   0.926E-02 0.162E-03
CGA:   6    -0.380349734373E+03   -0.22259E-02   -0.22220E-02  9828   0.270E-02-0.530E-04
CGA:   7    -0.380350486433E+03   -0.75206E-03   -0.75271E-03  9828   0.111E-02 0.257E-04
CGA:   8    -0.380350881976E+03   -0.39554E-03   -0.39684E-03  9828   0.526E-03-0.258E-04
CGA:   9    -0.380351045872E+03   -0.16390E-03   -0.16366E-03  9828   0.191E-03 0.244E-04
CGA:  10    -0.380351110935E+03   -0.65063E-04   -0.64845E-04  9828   0.835E-04 0.143E-04
CGA:  11    -0.380351147116E+03   -0.36181E-04   -0.34886E-04  9828   0.592E-04 0.161E-04
CGA:  12    -0.380351180705E+03   -0.33589E-04   -0.82823E-04  9828   0.338E-03-0.588E-04
CGA:  13    -0.380351238404E+03   -0.57698E-04   -0.65744E-04  9828   0.651E-04 0.500E-04
CGA:  14    -0.380351258025E+03   -0.19621E-04   -0.20294E-04  9828   0.297E-04 0.878E-05
CGA:  15    -0.380351269007E+03   -0.10982E-04   -0.11176E-04  9828   0.190E-04 0.146E-04
CGA:  16    -0.380351284635E+03   -0.15628E-04   -0.14223E-04  9828   0.285E-04 0.861E-05
CGA:  17    -0.380351315353E+03   -0.30718E-04   -0.37755E-04  9828   0.127E-03-0.144E-04
CGA:  18    -0.380351330718E+03   -0.15365E-04   -0.21051E-04  9828   0.330E-04 0.270E-04
CGA:  19    -0.380351344712E+03   -0.13994E-04   -0.14059E-04  9828   0.154E-04 0.345E-05
CGA:  20    -0.380351359050E+03   -0.14339E-04    0.21552E-04  9828   0.195E-04 0.148E-05
CGA:  21    -0.380351362803E+03   -0.37526E-05   -0.20460E-04  9828   0.782E-04-0.289E-04
CGA:  22    -0.380351383869E+03   -0.21066E-04   -0.20868E-04  9828   0.388E-04-0.120E-05
CGA:  23    -0.380351387486E+03   -0.36169E-05   -0.69210E-05  9828   0.117E-04 0.158E-04
  18 F= -.38035139E+03 E0= -.38035139E+03  d E =-.265805E-01  mag=     4.0000
       N       E                     dE             d eps       ncg     rms          ort
SDA:   1    -0.342486318913E+03    0.37865E+02    0.00000E+00  9828   0.914E+02 0.000E+00
CGA:   2    -0.373164298139E+03   -0.30678E+02   -0.30735E+02  9828   0.290E+02 0.728E+00
CGA:   3    -0.378900846564E+03   -0.57365E+01   -0.57312E+01  9828   0.544E+01 0.946E-01
CGA:   4    -0.379971215522E+03   -0.10704E+01   -0.10694E+01  9828   0.123E+01 0.203E-01
CGA:   5    -0.380239018974E+03   -0.26780E+00   -0.26873E+00  9828   0.371E+00 0.327E-02
CGA:   6    -0.380330081844E+03   -0.91063E-01   -0.90914E-01  9828   0.121E+00-0.183E-02
CGA:   7    -0.380366549926E+03   -0.36468E-01   -0.36396E-01  9828   0.539E-01-0.197E-02
CGA:   8    -0.380383800810E+03   -0.17251E-01   -0.17234E-01  9828   0.233E-01-0.123E-02
CGA:   9    -0.380390434870E+03   -0.66341E-02   -0.66081E-02  9828   0.780E-02-0.528E-03
CGA:  10    -0.380392830094E+03   -0.23952E-02   -0.23844E-02  9828   0.275E-02-0.472E-03
CGA:  11    -0.380393836690E+03   -0.10066E-02   -0.10267E-02  9828   0.167E-02-0.325E-03
CGA:  12    -0.380394531337E+03   -0.69465E-03   -0.76858E-03  9828   0.184E-02-0.406E-03
CGA:  13    -0.380395092236E+03   -0.56090E-03   -0.58169E-03  9828   0.142E-02-0.304E-03
CGA:  14    -0.380395537475E+03   -0.44524E-03   -0.44751E-03  9828   0.713E-03-0.975E-04
CGA:  15    -0.380395789329E+03   -0.25185E-03   -0.24884E-03  9828   0.382E-03 0.125E-03
CGA:  16    -0.380396004565E+03   -0.21524E-03   -0.20602E-03  9828   0.329E-03 0.821E-04
CGA:  17    -0.380396220935E+03   -0.21637E-03   -0.20596E-03  9828   0.324E-03 0.592E-04
CGA:  18    -0.380396387786E+03   -0.16685E-03   -0.16326E-03  9828   0.263E-03 0.521E-04
CGA:  19    -0.380396533803E+03   -0.14602E-03   -0.14872E-03  9828   0.227E-03-0.283E-04
CGA:  20    -0.380396629109E+03   -0.95306E-04   -0.10665E-03  9828   0.225E-03-0.788E-04
CGA:  21    -0.380396564742E+03    0.64367E-04   -0.13950E-03  9828   0.921E-03-0.361E-03
CGA:  22    -0.380396731980E+03   -0.16724E-03   -0.17526E-03  9828   0.244E-03 0.408E-04
CGA:  23    -0.380396842370E+03   -0.11039E-03   -0.11109E-03  9828   0.120E-03-0.186E-04
CGA:  24    -0.380396902600E+03   -0.60230E-04   -0.10839E-03  9828   0.303E-03-0.836E-04
CGA:  25    -0.380396949846E+03   -0.47246E-04   -0.55256E-04  9828   0.515E-04 0.332E-04
CGA:  26    -0.380396962169E+03   -0.12323E-04   -0.15351E-04  9828   0.221E-04 0.202E-04
CGA:  27    -0.380396975634E+03   -0.13464E-04   -0.13516E-04  9828   0.207E-04-0.188E-05
CGA:  28    -0.380396982645E+03   -0.70116E-05   -0.67107E-05  9828   0.186E-04-0.521E-05
  19 F= -.38039698E+03 E0= -.38039698E+03  d E =-.455952E-01  mag=     4.0000
       N       E                     dE             d eps       ncg     rms          ort
SDA:   1    -0.372803041331E+03    0.75939E+01    0.00000E+00  9828   0.178E+02 0.000E+00
CGA:   2    -0.379083085238E+03   -0.62800E+01   -0.62807E+01  9828   0.534E+01 0.649E-02
CGA:   3    -0.380166406289E+03   -0.10833E+01   -0.10813E+01  9828   0.104E+01-0.134E-03
CGA:   4    -0.380356590254E+03   -0.19018E+00   -0.18735E+00  9828   0.222E+00 0.187E-01
CGA:   5    -0.380406618479E+03   -0.50028E-01   -0.50196E-01  9828   0.572E-01 0.102E-02
CGA:   6    -0.380421086197E+03   -0.14468E-01   -0.14439E-01  9828   0.197E-01-0.224E-03
CGA:   7    -0.380426400479E+03   -0.53143E-02   -0.53260E-02  9828   0.863E-02 0.149E-03
CGA:   8    -0.380429191950E+03   -0.27915E-02   -0.27802E-02  9828   0.426E-02-0.230E-03
CGA:   9    -0.380430176620E+03   -0.98467E-03   -0.10249E-02  9828   0.136E-02 0.361E-03
CGA:  10    -0.380430626144E+03   -0.44952E-03   -0.44973E-03  9828   0.455E-03 0.350E-05
CGA:  11    -0.380430786915E+03   -0.16077E-03   -0.16089E-03  9828   0.201E-03 0.248E-04
CGA:  12    -0.380430875423E+03   -0.88508E-04   -0.87464E-04  9828   0.128E-03 0.189E-04
CGA:  13    -0.380430943805E+03   -0.68382E-04   -0.10228E-03  9828   0.322E-03-0.919E-04
CGA:  14    -0.380430962509E+03   -0.18705E-04   -0.40829E-04  9828   0.593E-04 0.900E-04
CGA:  15    -0.380430969621E+03   -0.71117E-05   -0.12585E-04  9828   0.276E-04 0.274E-04
CGA:  16    -0.380430984853E+03   -0.15232E-04   -0.16105E-04  9828   0.505E-04-0.203E-04
CGA:  17    -0.380430986957E+03   -0.21035E-05   -0.66292E-05  9828   0.150E-04 0.202E-04
  20 F= -.38043099E+03 E0= -.38043099E+03  d E =-.340043E-01  mag=     4.0000
       N       E                     dE             d eps       ncg     rms          ort
SDA:   1    -0.377971060070E+03    0.24599E+01    0.00000E+00  9828   0.602E+01 0.000E+00
CGA:   2    -0.379982662961E+03   -0.20116E+01   -0.20118E+01  9828   0.201E+01 0.470E-02
CGA:   3    -0.380378098281E+03   -0.39544E+00   -0.39483E+00  9828   0.425E+00 0.352E-02
CGA:   4    -0.380458003972E+03   -0.79906E-01   -0.79856E-01  9828   0.867E-01-0.481E-03
CGA:   5    -0.380476182441E+03   -0.18178E-01   -0.18140E-01  9828   0.229E-01-0.311E-03
CGA:   6    -0.380481702223E+03   -0.55198E-02   -0.54933E-02  9828   0.715E-02-0.311E-03
CGA:   7    -0.380483685455E+03   -0.19832E-02   -0.19683E-02  9828   0.284E-02-0.357E-03
CGA:   8    -0.380484592083E+03   -0.90663E-03   -0.90966E-03  9828   0.123E-02-0.161E-03
CGA:   9    -0.380485003022E+03   -0.41094E-03   -0.42526E-03  9828   0.625E-03-0.297E-03
CGA:  10    -0.380485155136E+03   -0.15211E-03   -0.15205E-03  9828   0.256E-03-0.136E-03
CGA:  11    -0.380485229290E+03   -0.74154E-04   -0.80794E-04  9828   0.190E-03-0.813E-04
CGA:  12    -0.380485263219E+03   -0.33929E-04   -0.34999E-04  9828   0.902E-04 0.188E-04
CGA:  13    -0.380485289803E+03   -0.26585E-04   -0.27781E-04  9828   0.458E-04 0.279E-04
CGA:  14    -0.380485307971E+03   -0.18168E-04   -0.18308E-04  9828   0.318E-04 0.911E-05
CGA:  15    -0.380485314837E+03   -0.68659E-05   -0.85419E-05  9828   0.164E-04 0.173E-04
  21 F= -.38048531E+03 E0= -.38048531E+03  d E =-.543279E-01  mag=     4.0000
       N       E                     dE             d eps       ncg     rms          ort
SDA:   1    -0.379292465842E+03    0.11928E+01    0.00000E+00  9828   0.282E+01 0.000E+00
CGA:   2    -0.380294490480E+03   -0.10020E+01   -0.10020E+01  9828   0.822E+00-0.158E-03
CGA:   3    -0.380466059768E+03   -0.17157E+00   -0.17136E+00  9828   0.141E+00-0.222E-02
CGA:   4    -0.380492612183E+03   -0.26552E-01   -0.26651E-01  9828   0.328E-01 0.858E-03
CGA:   5    -0.380499314604E+03   -0.67024E-02   -0.67517E-02  9828   0.787E-02 0.517E-03
CGA:   6    -0.380501282989E+03   -0.19684E-02   -0.19667E-02  9828   0.242E-02-0.335E-04
CGA:   7    -0.380502018812E+03   -0.73582E-03   -0.73676E-03  9828   0.113E-02-0.733E-04
CGA:   8    -0.380502383660E+03   -0.36485E-03   -0.36323E-03  9828   0.482E-03 0.438E-04
CGA:   9    -0.380502532065E+03   -0.14841E-03   -0.14835E-03  9828   0.152E-03 0.665E-04
CGA:  10    -0.380502583912E+03   -0.51847E-04   -0.51771E-04  9828   0.528E-04 0.258E-04
CGA:  11    -0.380502612164E+03   -0.28252E-04   -0.32894E-04  9828   0.569E-04-0.197E-04
CGA:  12    -0.380502624566E+03   -0.12402E-04   -0.12773E-04  9828   0.367E-04-0.748E-05
CGA:  13    -0.380502632178E+03   -0.76112E-05   -0.78797E-05  9828   0.183E-04 0.419E-05
  22 F= -.38050263E+03 E0= -.38050263E+03  d E =-.173173E-01  mag=     4.0000
       N       E                     dE             d eps       ncg     rms          ort
SDA:   1    -0.347413020188E+03    0.33090E+02    0.00000E+00  9828   0.784E+02 0.000E+00
CGA:   2    -0.374495482208E+03   -0.27082E+02   -0.27078E+02  9828   0.244E+02 0.103E+00
CGA:   3    -0.379287231094E+03   -0.47917E+01   -0.47901E+01  9828   0.444E+01 0.148E-01
CGA:   4    -0.380164930785E+03   -0.87770E+00   -0.87822E+00  9828   0.102E+01 0.136E-01
CGA:   5    -0.380382252975E+03   -0.21732E+00   -0.21783E+00  9828   0.291E+00 0.586E-02
CGA:   6    -0.380453309570E+03   -0.71057E-01   -0.71011E-01  9828   0.950E-01-0.107E-02
CGA:   7    -0.380482295963E+03   -0.28986E-01   -0.29022E-01  9828   0.420E-01-0.192E-02
CGA:   8    -0.380495689647E+03   -0.13394E-01   -0.13403E-01  9828   0.176E-01-0.224E-03
CGA:   9    -0.380500864313E+03   -0.51747E-02   -0.51756E-02  9828   0.585E-02-0.152E-03
CGA:  10    -0.380502539521E+03   -0.16752E-02   -0.16753E-02  9828   0.190E-02 0.624E-04
CGA:  11    -0.380503276982E+03   -0.73746E-03   -0.78475E-03  9828   0.141E-02-0.398E-03
CGA:  12    -0.380503655566E+03   -0.37858E-03   -0.38091E-03  9828   0.865E-03-0.481E-04
CGA:  13    -0.380504011849E+03   -0.35628E-03   -0.39376E-03  9828   0.732E-03-0.219E-03
CGA:  14    -0.380504196494E+03   -0.18464E-03   -0.18388E-03  9828   0.334E-03 0.247E-04
CGA:  15    -0.380504311203E+03   -0.11471E-03   -0.11395E-03  9828   0.172E-03 0.347E-04
CGA:  16    -0.380504392067E+03   -0.80864E-04   -0.78987E-04  9828   0.153E-03 0.167E-04
CGA:  17    -0.380504450049E+03   -0.57982E-04   -0.56552E-04  9828   0.126E-03 0.610E-04
CGA:  18    -0.380504564510E+03   -0.11446E-03   -0.12439E-03  9828   0.229E-03-0.280E-04
CGA:  19    -0.380504608929E+03   -0.44419E-04   -0.14775E-03  9828   0.629E-03-0.220E-03
CGA:  20    -0.380504774305E+03   -0.16538E-03   -0.17399E-03  9828   0.172E-03 0.104E-03
CGA:  21    -0.380504855704E+03   -0.81399E-04   -0.87204E-04  9828   0.155E-03-0.732E-04
CGA:  22    -0.380504871722E+03   -0.16018E-04   -0.18262E-04  9828   0.835E-04 0.147E-04
CGA:  23    -0.380504891733E+03   -0.20011E-04   -0.20669E-04  9828   0.559E-04 0.526E-05
CGA:  24    -0.380504933998E+03   -0.42264E-04    0.36877E-03  9828   0.367E-04-0.240E-04
CGA:  25    -0.380504955573E+03   -0.21575E-04    0.73410E-05  9828   0.415E-04-0.122E-04
CGA:  26    -0.380504966556E+03   -0.10984E-04   -0.12305E-04  9828   0.498E-04-0.138E-04
CGA:  27    -0.380504975270E+03   -0.87137E-05   -0.81205E-05  9828   0.325E-04-0.588E-05
CGA:  28    -0.380504985503E+03   -0.10233E-04   -0.10289E-04  9828   0.354E-04-0.434E-05
CGA:  29    -0.380504991950E+03   -0.64469E-05   -0.66186E-05  9828   0.182E-04 0.110E-05
CGA:  30    -0.380504986112E+03    0.58380E-05   -0.16977E-04  9828   0.188E-03-0.407E-04
CGA:  31    -0.380505020117E+03   -0.34005E-04   -0.32528E-04  9828   0.168E-04-0.691E-05
CGA:  32    -0.380505020337E+03   -0.22011E-06   -0.22804E-05  9828   0.694E-05 0.953E-05
  23 F= -.38050502E+03 E0= -.38050502E+03  d E =-.238816E-02  mag=     4.0000
       N       E                     dE             d eps       ncg     rms          ort
SDA:   1    -0.352189879579E+03    0.28315E+02    0.00000E+00  9828   0.656E+02 0.000E+00
CGA:   2    -0.372010850275E+03   -0.19821E+02   -0.19531E+02  9828   0.253E+02 0.318E+00
CGA:   3    -0.376837971595E+03   -0.48271E+01   -0.49847E+01  9828   0.689E+01 0.104E-01
CGA:   4    -0.377769383217E+03   -0.93141E+00   -0.59217E+00  9828   0.229E+01 0.396E+01
CGA:   5    -0.378096171978E+03   -0.32679E+00   -0.22050E+00  9828   0.911E+00 0.106E+01
CGA:   6    -0.378387101144E+03   -0.29093E+00   -0.29171E+00  9828   0.709E+00 0.129E-01
CGA:   7    -0.378469108408E+03   -0.82007E-01   -0.92134E-01  9828   0.486E+00-0.526E-01
CGA:   8    -0.378536136873E+03   -0.67028E-01   -0.66938E-01  9828   0.224E+00 0.119E-01
CGA:   9    -0.378565182076E+03   -0.29045E-01   -0.27098E-01  9828   0.173E+00 0.262E-01
CGA:  10    -0.378589528288E+03   -0.24346E-01   -0.24027E-01  9828   0.510E-01-0.457E-02
CGA:  11    -0.378598653027E+03   -0.91247E-02   -0.90817E-02  9828   0.416E-01-0.801E-03
CGA:  12    -0.378602447075E+03   -0.37940E-02   -0.42621E-02  9828   0.217E-01 0.543E-02
CGA:  13    -0.378606748060E+03   -0.43010E-02   -0.44734E-02  9828   0.139E-01 0.214E-02
CGA:  14    -0.378608714860E+03   -0.19668E-02   -0.17335E-02  9828   0.904E-02-0.198E-02
CGA:  15    -0.378609589399E+03   -0.87454E-03   -0.10202E-02  9828   0.378E-02 0.125E-02
CGA:  16    -0.378609803844E+03   -0.21445E-03   -0.39146E-03  9828   0.267E-02 0.124E-02
CGA:  17    -0.378610403632E+03   -0.59979E-03   -0.61988E-03  9828   0.143E-02 0.312E-03
CGA:  18    -0.378610721046E+03   -0.31741E-03   -0.29664E-03  9828   0.259E-02-0.391E-03
CGA:  19    -0.378610710266E+03    0.10781E-04   -0.11413E-03  9828   0.197E-02 0.753E-03
CGA:  20    -0.378610652218E+03    0.58048E-04   -0.11045E-03  9828   0.961E-03 0.106E-02
CGA:  21    -0.378610860091E+03   -0.20787E-03   -0.20824E-03  9828   0.375E-03 0.316E-03
CGA:  22    -0.378610976549E+03   -0.11646E-03   -0.11550E-03  9828   0.220E-03 0.688E-04
CGA:  23    -0.378610958859E+03    0.17690E-04   -0.13916E-04  9828   0.141E-03 0.194E-03
CGA:  24    -0.378610958500E+03    0.35955E-06   -0.12331E-04  9828   0.976E-04 0.104E-03
CGA:  25    -0.378611016326E+03   -0.57827E-04   -0.43690E-04  9828   0.116E-03 0.590E-04
CGA:  26    -0.378611002798E+03    0.13528E-04   -0.33022E-05  9828   0.777E-04 0.907E-04
CGA:  27    -0.378610994051E+03    0.87477E-05   -0.28715E-05  9828   0.652E-04 0.688E-04
  24 F= -.37861099E+03 E0= -.37861001E+03  d E =0.189403E+01  mag=     4.0000
       N       E                     dE             d eps       ncg     rms          ort
SDA:   1    -0.373942043216E+03    0.46690E+01    0.00000E+00  9828   0.149E+02 0.000E+00
CGA:   2    -0.378905683048E+03   -0.49636E+01   -0.49742E+01  9828   0.439E+01-0.656E-01
CGA:   3    -0.379874156700E+03   -0.96847E+00   -0.96684E+00  9828   0.109E+01 0.297E-01
CGA:   4    -0.380081855001E+03   -0.20770E+00   -0.20765E+00  9828   0.239E+00-0.469E-02
CGA:   5    -0.380135447446E+03   -0.53592E-01   -0.53642E-01  9828   0.739E-01-0.184E-02
CGA:   6    -0.380154509932E+03   -0.19062E-01   -0.19138E-01  9828   0.261E-01-0.123E-02
CGA:   7    -0.380162119266E+03   -0.76093E-02   -0.78536E-02  9828   0.117E-01-0.236E-02
CGA:   8    -0.380165509173E+03   -0.33899E-02   -0.39303E-02  9828   0.688E-02-0.333E-02
CGA:   9    -0.380166850056E+03   -0.13409E-02   -0.14744E-02  9828   0.275E-02-0.159E-02
CGA:  10    -0.380167408596E+03   -0.55854E-03   -0.92370E-03  9828   0.292E-02-0.168E-02
CGA:  11    -0.380167929137E+03   -0.52054E-03   -0.52391E-03  9828   0.608E-03 0.767E-04
CGA:  12    -0.380168156751E+03   -0.22761E-03   -0.26491E-03  9828   0.575E-03-0.189E-03
CGA:  13    -0.380168293375E+03   -0.13662E-03   -0.18028E-03  9828   0.391E-03-0.201E-03
CGA:  14    -0.380168365422E+03   -0.72047E-04   -0.12183E-03  9828   0.311E-03-0.217E-03
CGA:  15    -0.380168462367E+03   -0.96945E-04   -0.10632E-03  9828   0.325E-03-0.115E-03
CGA:  16    -0.380168514413E+03   -0.52046E-04   -0.51826E-04  9828   0.126E-03-0.172E-04
CGA:  17    -0.380168534078E+03   -0.19665E-04   -0.21532E-04  9828   0.634E-04 0.222E-04
CGA:  18    -0.380168553842E+03   -0.19764E-04   -0.19834E-04  9828   0.211E-04-0.116E-04
CGA:  19    -0.380168570145E+03   -0.16303E-04    0.27490E-05  9828   0.174E-04 0.510E-05
CGA:  20    -0.380168585870E+03   -0.15725E-04    0.71687E-05  9828   0.798E-05 0.768E-05
CGA:  21    -0.380168591901E+03   -0.60310E-05    0.25448E-03  9828   0.644E-05 0.484E-05
  25 F= -.38016859E+03 E0= -.38016859E+03  d E =-.155760E+01  mag=     4.0000
       N       E                     dE             d eps       ncg     rms          ort
SDA:   1    -0.378568550803E+03    0.16000E+01    0.00000E+00  9828   0.463E+01 0.000E+00
CGA:   2    -0.380047364408E+03   -0.14788E+01   -0.14789E+01  9828   0.165E+01-0.164E-02
CGA:   3    -0.380377727183E+03   -0.33036E+00   -0.33022E+00  9828   0.417E+00-0.204E-02
CGA:   4    -0.380461106117E+03   -0.83379E-01   -0.83289E-01  9828   0.803E-01-0.131E-02
CGA:   5    -0.380477845778E+03   -0.16740E-01   -0.16736E-01  9828   0.242E-01-0.536E-04
CGA:   6    -0.380483797196E+03   -0.59514E-02   -0.59514E-02  9828   0.804E-02 0.136E-05
CGA:   7    -0.380486110726E+03   -0.23135E-02   -0.23225E-02  9828   0.305E-02-0.258E-03
CGA:   8    -0.380487076921E+03   -0.96619E-03   -0.99193E-03  9828   0.133E-02-0.322E-03
CGA:   9    -0.380487437857E+03   -0.36094E-03   -0.37024E-03  9828   0.478E-03-0.181E-03
CGA:  10    -0.380487575083E+03   -0.13723E-03   -0.15874E-03  9828   0.300E-03-0.177E-03
CGA:  11    -0.380487626370E+03   -0.51287E-04   -0.94280E-04  9828   0.404E-03-0.187E-03
CGA:  12    -0.380487702232E+03   -0.75862E-04   -0.75854E-04  9828   0.102E-03 0.113E-05
CGA:  13    -0.380487740305E+03   -0.38072E-04   -0.39054E-04  9828   0.520E-04-0.902E-05
CGA:  14    -0.380487721474E+03    0.18831E-04   -0.57996E-04  9828   0.378E-03-0.817E-04
CGA:  15    -0.380487795554E+03   -0.74080E-04   -0.72216E-04  9828   0.715E-04-0.122E-04
CGA:  16    -0.380487816795E+03   -0.21241E-04   -0.21206E-04  9828   0.314E-04-0.218E-05
CGA:  17    -0.380487836605E+03   -0.19811E-04    0.31751E-03  9828   0.993E-05 0.909E-05
CGA:  18    -0.380487849158E+03   -0.12552E-04    0.38830E-05  9828   0.859E-05 0.707E-05
CGA:  19    -0.380487854675E+03   -0.55175E-05    0.54555E-03  9828   0.743E-05 0.459E-05
  26 F= -.38048785E+03 E0= -.38048785E+03  d E =-.319263E+00  mag=     4.0000
       N       E                     dE             d eps       ncg     rms          ort
SDA:   1    -0.379991721255E+03    0.49613E+00    0.00000E+00  9828   0.134E+01 0.000E+00
CGA:   2    -0.380398942175E+03   -0.40722E+00   -0.40719E+00  9828   0.509E+00-0.136E-02
CGA:   3    -0.380500484020E+03   -0.10154E+00   -0.10161E+00  9828   0.126E+00 0.461E-03
CGA:   4    -0.380525217752E+03   -0.24734E-01   -0.24793E-01  9828   0.256E-01 0.835E-03
CGA:   5    -0.380530415869E+03   -0.51981E-02   -0.52166E-02  9828   0.692E-02 0.180E-03
CGA:   6    -0.380532204037E+03   -0.17882E-02   -0.17831E-02  9828   0.249E-02-0.108E-03
CGA:   7    -0.380532881441E+03   -0.67740E-03   -0.67721E-03  9828   0.871E-03-0.623E-05
CGA:   8    -0.380533156238E+03   -0.27480E-03   -0.27495E-03  9828   0.338E-03-0.902E-05
CGA:   9    -0.380533250251E+03   -0.94013E-04   -0.94446E-04  9828   0.105E-03 0.246E-04
CGA:  10    -0.380533292528E+03   -0.42277E-04   -0.44337E-04  9828   0.660E-04-0.220E-04
CGA:  11    -0.380533312669E+03   -0.20142E-04   -0.30397E-04  9828   0.106E-03-0.370E-04
CGA:  12    -0.380533336510E+03   -0.23841E-04   -0.23784E-04  9828   0.369E-04-0.378E-06
CGA:  13    -0.380533350641E+03   -0.14131E-04   -0.14133E-04  9828   0.248E-04-0.577E-08
CGA:  14    -0.380533368074E+03   -0.17433E-04    0.35719E-04  9828   0.143E-04 0.110E-04
CGA:  15    -0.380533384418E+03   -0.16344E-04    0.12967E-04  9828   0.121E-04 0.125E-04
CGA:  16    -0.380533341591E+03    0.42826E-04   -0.23486E-04  9828   0.504E-03-0.387E-04
CGA:  17    -0.380533423432E+03   -0.81840E-04   -0.77661E-04  9828   0.331E-04-0.842E-05
CGA:  18    -0.380533436541E+03   -0.13110E-04   -0.12006E-04  9828   0.168E-04-0.583E-05
CGA:  19    -0.380533452787E+03   -0.16246E-04    0.53754E-04  9828   0.250E-04-0.363E-07
CGA:  20    -0.380533466977E+03   -0.14190E-04   -0.28911E-04  9828   0.176E-03-0.244E-04
CGA:  21    -0.380533513689E+03   -0.46712E-04   -0.36834E-04  9828   0.494E-04-0.260E-04
CGA:  22    -0.380533526889E+03   -0.13200E-04   -0.12860E-04  9828   0.112E-04-0.120E-05
CGA:  23    -0.380533539369E+03   -0.12480E-04    0.61569E-04  9828   0.998E-05 0.173E-05
CGA:  24    -0.380533389883E+03    0.14949E-03   -0.80134E-04  9828   0.137E-02-0.633E-04
CGA:  25    -0.380533617829E+03   -0.22795E-03   -0.21291E-03  9828   0.690E-04-0.153E-04
CGA:  26    -0.380533643113E+03   -0.25284E-04   -0.25694E-04  9828   0.183E-04 0.809E-06
CGA:  27    -0.380533653833E+03   -0.10721E-04   -0.76172E-05  9828   0.226E-04-0.596E-05
CGA:  28    -0.380533656358E+03   -0.25246E-05   -0.37437E-05  9828   0.856E-05 0.193E-05
  27 F= -.38053366E+03 E0= -.38053366E+03  d E =-.458017E-01  mag=     4.0000
       N       E                     dE             d eps       ncg     rms          ort
SDA:   1    -0.380483085009E+03    0.50569E-01    0.00000E+00  9828   0.154E+00 0.000E+00
CGA:   2    -0.380529308006E+03   -0.46223E-01   -0.46033E-01  9828   0.586E-01-0.388E-03
CGA:   3    -0.380541115193E+03   -0.11807E-01   -0.11979E-01  9828   0.142E-01 0.287E-03
CGA:   4    -0.380543715949E+03   -0.26008E-02   -0.27191E-02  9828   0.305E-02 0.204E-03
CGA:   5    -0.380544327730E+03   -0.61178E-03   -0.63410E-03  9828   0.781E-03 0.411E-04
CGA:   6    -0.380544559234E+03   -0.23150E-03   -0.21484E-03  9828   0.307E-03-0.370E-04
CGA:   7    -0.380544657915E+03   -0.98682E-04   -0.87891E-04  9828   0.124E-03-0.271E-04
CGA:   8    -0.380544684776E+03   -0.26861E-04   -0.30822E-04  9828   0.391E-04 0.978E-05
CGA:   9    -0.380544691057E+03   -0.62814E-05   -0.10510E-04  9828   0.125E-04 0.103E-04
  28 F= -.38054469E+03 E0= -.38054469E+03  d E =-.110347E-01  mag=     4.0000
       N       E                     dE             d eps       ncg     rms          ort
SDA:   1    -0.380453451013E+03    0.91234E-01    0.00000E+00  9828   0.243E+00 0.000E+00
CGA:   2    -0.380528110038E+03   -0.74659E-01   -0.74471E-01  9828   0.887E-01-0.700E-03
CGA:   3    -0.380546267939E+03   -0.18158E-01   -0.18358E-01  9828   0.207E-01 0.559E-03
CGA:   4    -0.380550101658E+03   -0.38337E-02   -0.39563E-02  9828   0.433E-02 0.309E-03
CGA:   5    -0.380550995335E+03   -0.89368E-03   -0.91483E-03  9828   0.118E-02 0.588E-04
CGA:   6    -0.380551336132E+03   -0.34080E-03   -0.32204E-03  9828   0.484E-03-0.668E-04
CGA:   7    -0.380551488496E+03   -0.15236E-03   -0.13970E-03  9828   0.212E-03-0.550E-04
CGA:   8    -0.380551533110E+03   -0.44614E-04   -0.49761E-04  9828   0.679E-04 0.199E-04
CGA:   9    -0.380551546019E+03   -0.12909E-04   -0.17929E-04  9828   0.225E-04 0.186E-04
CGA:  10    -0.380551554811E+03   -0.87920E-05   -0.92617E-05  9828   0.124E-04 0.266E-05
CGA:  11    -0.380551542812E+03    0.11999E-04   -0.19499E-04  9828   0.155E-03-0.344E-04
CGA:  12    -0.380551567962E+03   -0.25150E-04   -0.29679E-04  9828   0.311E-04 0.135E-04
CGA:  13    -0.380551571688E+03   -0.37259E-05   -0.70370E-05  9828   0.930E-05 0.108E-04
  29 F= -.38055157E+03 E0= -.38055157E+03  d E =-.688063E-02  mag=     4.0000
       N       E                     dE             d eps       ncg     rms          ort
SDA:   1    -0.380540248728E+03    0.11319E-01    0.00000E+00  9828   0.320E-01 0.000E+00
CGA:   2    -0.380550084130E+03   -0.98354E-02   -0.98454E-02  9828   0.109E-01 0.479E-04
CGA:   3    -0.380552429233E+03   -0.23451E-02   -0.23655E-02  9828   0.222E-02 0.758E-04
CGA:   4    -0.380552831282E+03   -0.40205E-03   -0.41525E-03  9828   0.466E-03 0.468E-04
CGA:   5    -0.380552926645E+03   -0.95363E-04   -0.97645E-04  9828   0.116E-03 0.920E-05
CGA:   6    -0.380552963874E+03   -0.37229E-04   -0.34634E-04  9828   0.554E-04-0.175E-04
CGA:   7    -0.380552979643E+03   -0.15769E-04   -0.14571E-04  9828   0.272E-04-0.963E-05
CGA:   8    -0.380552985736E+03   -0.60923E-05   -0.63293E-05  9828   0.965E-05 0.162E-05
  30 F= -.38055299E+03 E0= -.38055299E+03  d E =-.141405E-02  mag=     4.0000
       N       E                     dE             d eps       ncg     rms          ort
SDA:   1    -0.380232947889E+03    0.32003E+00    0.00000E+00  9828   0.787E+00 0.000E+00
CGA:   2    -0.380492203664E+03   -0.25926E+00   -0.25933E+00  9828   0.254E+00 0.862E-03
CGA:   3    -0.380545658101E+03   -0.53454E-01   -0.53428E-01  9828   0.484E-01-0.144E-03
CGA:   4    -0.380554806607E+03   -0.91485E-02   -0.91322E-02  9828   0.105E-01-0.752E-04
CGA:   5    -0.380556955270E+03   -0.21487E-02   -0.21442E-02  9828   0.252E-02-0.239E-04
CGA:   6    -0.380557584824E+03   -0.62955E-03   -0.62224E-03  9828   0.798E-03-0.567E-04
CGA:   7    -0.380557818173E+03   -0.23335E-03   -0.22975E-03  9828   0.343E-03-0.474E-04
CGA:   8    -0.380557933509E+03   -0.11534E-03   -0.11507E-03  9828   0.162E-03-0.277E-04
CGA:   9    -0.380557985960E+03   -0.52451E-04   -0.52152E-04  9828   0.633E-04-0.188E-04
CGA:  10    -0.380558008444E+03   -0.22484E-04   -0.30727E-04  9828   0.807E-04-0.448E-04
CGA:  11    -0.380558021514E+03   -0.13070E-04   -0.14924E-04  9828   0.119E-04 0.986E-05
CGA:  12    -0.380558024583E+03   -0.30685E-05   -0.34555E-05  9828   0.543E-05 0.366E-05
  31 F= -.38055802E+03 E0= -.38055802E+03  d E =-.503885E-02  mag=     4.0000
       N       E                     dE             d eps       ncg     rms          ort
SDA:   1    -0.380402160987E+03    0.15586E+00    0.00000E+00  9828   0.378E+00 0.000E+00
CGA:   2    -0.380529490173E+03   -0.12733E+00   -0.12734E+00  9828   0.127E+00 0.404E-03
CGA:   3    -0.380554825576E+03   -0.25335E-01   -0.25295E-01  9828   0.241E-01-0.253E-03
CGA:   4    -0.380559363956E+03   -0.45384E-02   -0.44988E-02  9828   0.525E-02-0.242E-03
CGA:   5    -0.380560463588E+03   -0.10996E-02   -0.10862E-02  9828   0.130E-02-0.101E-03
CGA:   6    -0.380560762057E+03   -0.29847E-03   -0.29789E-03  9828   0.365E-03-0.544E-05
CGA:   7    -0.380560861709E+03   -0.99652E-04   -0.99864E-04  9828   0.136E-03 0.400E-05
CGA:   8    -0.380560918565E+03   -0.56856E-04   -0.63764E-04  9828   0.124E-03-0.509E-04
CGA:   9    -0.380560946141E+03   -0.27576E-04   -0.32310E-04  9828   0.811E-04-0.578E-04
CGA:  10    -0.380560961258E+03   -0.15117E-04   -0.16241E-04  9828   0.494E-04-0.300E-04
CGA:  11    -0.380560969661E+03   -0.84036E-05   -0.86164E-05  9828   0.288E-04 0.341E-05
  32 F= -.38056097E+03 E0= -.38056097E+03  d E =-.294508E-02  mag=     4.0000
       N       E                     dE             d eps       ncg     rms          ort
SDA:   1    -0.380533951161E+03    0.27010E-01    0.00000E+00  9828   0.706E-01 0.000E+00
CGA:   2    -0.380555636859E+03   -0.21686E-01   -0.21679E-01  9828   0.262E-01-0.282E-03
CGA:   3    -0.380560978982E+03   -0.53421E-02   -0.53534E-02  9828   0.509E-02 0.876E-04
CGA:   4    -0.380561912925E+03   -0.93394E-03   -0.93028E-03  9828   0.105E-02-0.247E-04
CGA:   5    -0.380562141162E+03   -0.22824E-03   -0.22464E-03  9828   0.265E-03-0.351E-04
CGA:   6    -0.380562204966E+03   -0.63804E-04   -0.62819E-04  9828   0.854E-04-0.148E-04
CGA:   7    -0.380562229479E+03   -0.24512E-04   -0.24450E-04  9828   0.405E-04-0.113E-04
CGA:   8    -0.380562242580E+03   -0.13102E-04   -0.13904E-04  9828   0.254E-04-0.918E-05
CGA:   9    -0.380562083247E+03    0.15933E-03   -0.85878E-04  9828   0.868E-03-0.117E-03
CGA:  10    -0.380562230243E+03   -0.14700E-03   -0.15612E-03  9828   0.933E-04 0.237E-04
CGA:  11    -0.380562258333E+03   -0.28089E-04   -0.28940E-04  9828   0.331E-04 0.349E-05
CGA:  12    -0.380562265614E+03   -0.72811E-05   -0.96042E-05  9828   0.130E-04 0.901E-05
  33 F= -.38056227E+03 E0= -.38056227E+03  d E =-.129595E-02  mag=     4.0000
       N       E                     dE             d eps       ncg     rms          ort
SDA:   1    -0.380324438057E+03    0.23782E+00    0.00000E+00  9828   0.577E+00 0.000E+00
CGA:   2    -0.380517720349E+03   -0.19328E+00   -0.19316E+00  9828   0.189E+00-0.686E-03
CGA:   3    -0.380556164261E+03   -0.38444E-01   -0.38544E-01  9828   0.345E-01 0.319E-03
CGA:   4    -0.380562575002E+03   -0.64107E-02   -0.64097E-02  9828   0.744E-02-0.149E-05
CGA:   5    -0.380564138282E+03   -0.15633E-02   -0.15488E-02  9828   0.180E-02-0.529E-04
CGA:   6    -0.380564580413E+03   -0.44213E-03   -0.43270E-03  9828   0.527E-03-0.419E-04
CGA:   7    -0.380564735061E+03   -0.15465E-03   -0.15033E-03  9828   0.221E-03-0.265E-04
CGA:   8    -0.380564807099E+03   -0.72037E-04   -0.71222E-04  9828   0.975E-04-0.753E-05
CGA:   9    -0.380564850003E+03   -0.42904E-04   -0.44007E-04  9828   0.802E-04-0.431E-04
CGA:  10    -0.380564864266E+03   -0.14263E-04   -0.12519E-04  9828   0.323E-04-0.107E-04
CGA:  11    -0.380564874054E+03   -0.97880E-05   -0.90895E-05  9828   0.193E-04-0.638E-05
  34 F= -.38056487E+03 E0= -.38056487E+03  d E =-.260844E-02  mag=     4.0000
       N       E                     dE             d eps       ncg     rms          ort
SDA:   1    -0.377383645024E+03    0.31812E+01    0.00000E+00  9828   0.742E+01 0.000E+00
CGA:   2    -0.380036386370E+03   -0.26527E+01   -0.26526E+01  9828   0.210E+01-0.134E-02
CGA:   3    -0.380467748811E+03   -0.43136E+00   -0.43161E+00  9828   0.396E+00-0.478E-03
CGA:   4    -0.380541837735E+03   -0.74089E-01   -0.74122E-01  9828   0.885E-01 0.422E-03
CGA:   5    -0.380560097264E+03   -0.18260E-01   -0.18225E-01  9828   0.214E-01-0.158E-03
CGA:   6    -0.380565262359E+03   -0.51651E-02   -0.51208E-02  9828   0.608E-02-0.292E-03
CGA:   7    -0.380566985279E+03   -0.17229E-02   -0.17107E-02  9828   0.241E-02-0.124E-03
CGA:   8    -0.380567805995E+03   -0.82072E-03   -0.81631E-03  9828   0.104E-02-0.133E-03
CGA:   9    -0.380568161445E+03   -0.35545E-03   -0.35267E-03  9828   0.407E-03-0.155E-03
CGA:  10    -0.380568290282E+03   -0.12884E-03   -0.12823E-03  9828   0.169E-03-0.110E-03
CGA:  11    -0.380568338509E+03   -0.48227E-04   -0.48888E-04  9828   0.846E-04-0.322E-04
CGA:  12    -0.380568372834E+03   -0.34325E-04   -0.42537E-04  9828   0.105E-03-0.338E-04
CGA:  13    -0.380568398107E+03   -0.25273E-04   -0.25490E-04  9828   0.695E-04-0.144E-04
CGA:  14    -0.380568404868E+03   -0.67607E-05   -0.47161E-04  9828   0.247E-03-0.102E-03
CGA:  15    -0.380568440666E+03   -0.35799E-04   -0.43772E-04  9828   0.378E-04 0.349E-04
CGA:  16    -0.380568452008E+03   -0.11342E-04   -0.11463E-04  9828   0.102E-04 0.962E-06
CGA:  17    -0.380568457893E+03   -0.58843E-05   -0.58981E-05  9828   0.757E-05-0.926E-07
  35 F= -.38056846E+03 E0= -.38056846E+03  d E =-.358384E-02  mag=     4.0000
       N       E                     dE             d eps       ncg     rms          ort
SDA:   1    -0.369546540941E+03    0.11022E+02    0.00000E+00  9828   0.261E+02 0.000E+00
CGA:   2    -0.378493645693E+03   -0.89471E+01   -0.89494E+01  9828   0.810E+01 0.159E-01
CGA:   3    -0.380150898868E+03   -0.16573E+01   -0.16573E+01  9828   0.149E+01-0.157E-05
CGA:   4    -0.380434625763E+03   -0.28373E+00   -0.28370E+00  9828   0.333E+00 0.263E-03
CGA:   5    -0.380503492761E+03   -0.68867E-01   -0.68889E-01  9828   0.828E-01 0.155E-03
CGA:   6    -0.380523719749E+03   -0.20227E-01   -0.20149E-01  9828   0.259E-01-0.566E-03
CGA:   7    -0.380531177821E+03   -0.74581E-02   -0.74130E-02  9828   0.109E-01-0.523E-03
CGA:   8    -0.380534823477E+03   -0.36457E-02   -0.36334E-02  9828   0.486E-02-0.420E-03
CGA:   9    -0.380536367979E+03   -0.15445E-02   -0.15269E-02  9828   0.182E-02-0.413E-03
CGA:  10    -0.380536919856E+03   -0.55188E-03   -0.54163E-03  9828   0.653E-03-0.247E-03
CGA:  11    -0.380537129951E+03   -0.21009E-03   -0.21108E-03  9828   0.364E-03-0.110E-03
CGA:  12    -0.380537251866E+03   -0.12192E-03   -0.12468E-03  9828   0.272E-03-0.606E-04
CGA:  13    -0.380537348422E+03   -0.96555E-04   -0.10368E-03  9828   0.226E-03-0.794E-04
CGA:  14    -0.380537412017E+03   -0.63596E-04   -0.67397E-04  9828   0.138E-03-0.774E-04
CGA:  15    -0.380537447871E+03   -0.35854E-04   -0.37120E-04  9828   0.803E-04-0.378E-04
CGA:  16    -0.380537472666E+03   -0.24795E-04   -0.25903E-04  9828   0.606E-04-0.163E-04
CGA:  17    -0.380537491964E+03   -0.19298E-04   -0.19346E-04  9828   0.364E-04-0.229E-05
CGA:  18    -0.380537479576E+03    0.12388E-04   -0.42546E-04  9828   0.232E-03-0.659E-04
CGA:  19    -0.380537515367E+03   -0.35792E-04   -0.42302E-04  9828   0.411E-04 0.278E-04
CGA:  20    -0.380537526798E+03   -0.11430E-04   -0.12017E-04  9828   0.700E-05 0.398E-05
CGA:  21    -0.380537533517E+03   -0.67194E-05    0.18051E-04  9828   0.383E-05 0.920E-06
  36 F= -.38053753E+03 E0= -.38053753E+03  d E =0.309244E-01  mag=     4.0000
       N       E                     dE             d eps       ncg     rms          ort
SDA:   1    -0.375615926246E+03    0.49216E+01    0.00000E+00  9828   0.117E+02 0.000E+00
CGA:   2    -0.379671050937E+03   -0.40551E+01   -0.40553E+01  9828   0.359E+01 0.187E-02
CGA:   3    -0.380392961565E+03   -0.72191E+00   -0.72127E+00  9828   0.702E+00-0.362E-02
CGA:   4    -0.380523569613E+03   -0.13061E+00   -0.13071E+00  9828   0.148E+00 0.107E-02
CGA:   5    -0.380554310138E+03   -0.30741E-01   -0.30810E-01  9828   0.369E-01 0.448E-03
CGA:   6    -0.380563093903E+03   -0.87838E-02   -0.87676E-02  9828   0.107E-01-0.122E-03
CGA:   7    -0.380566063280E+03   -0.29694E-02   -0.29673E-02  9828   0.411E-02-0.216E-04
CGA:   8    -0.380567441195E+03   -0.13779E-02   -0.13760E-02  9828   0.174E-02-0.946E-04
CGA:   9    -0.380567955206E+03   -0.51401E-03   -0.51545E-03  9828   0.527E-03 0.300E-04
CGA:  10    -0.380568125295E+03   -0.17009E-03   -0.16944E-03  9828   0.161E-03-0.183E-04
CGA:  11    -0.380568170314E+03   -0.45019E-04   -0.46092E-04  9828   0.571E-04 0.202E-04
CGA:  12    -0.380568203222E+03   -0.32908E-04   -0.38651E-04  9828   0.882E-04-0.227E-04
CGA:  13    -0.380568214709E+03   -0.11487E-04   -0.12777E-04  9828   0.699E-04 0.107E-04
CGA:  14    -0.380568229220E+03   -0.14510E-04   -0.17065E-04  9828   0.369E-04 0.187E-04
CGA:  15    -0.380568239782E+03   -0.10562E-04   -0.11406E-04  9828   0.199E-04 0.809E-05
CGA:  16    -0.380568242701E+03   -0.29185E-05   -0.46629E-05  9828   0.126E-04 0.116E-04
  37 F= -.38056824E+03 E0= -.38056824E+03  d E =-.307092E-01  mag=     4.0000
       N       E                     dE             d eps       ncg     rms          ort
SDA:   1    -0.379421267220E+03    0.11470E+01    0.00000E+00  9828   0.266E+01 0.000E+00
CGA:   2    -0.380352022236E+03   -0.93076E+00   -0.93080E+00  9828   0.836E+00-0.204E-02
CGA:   3    -0.380518470256E+03   -0.16645E+00   -0.16630E+00  9828   0.173E+00-0.110E-02
CGA:   4    -0.380550665622E+03   -0.32195E-01   -0.32257E-01  9828   0.371E-01 0.485E-03
CGA:   5    -0.380558329563E+03   -0.76639E-02   -0.76940E-02  9828   0.933E-02 0.284E-03
CGA:   6    -0.380560630098E+03   -0.23005E-02   -0.22992E-02  9828   0.295E-02-0.207E-04
CGA:   7    -0.380561457650E+03   -0.82755E-03   -0.82628E-03  9828   0.115E-02-0.483E-04
[...]
CGA:   4    -0.380574798382E+03   -0.85343E-03   -0.85482E-03  9828   0.894E-03 0.328E-04
CGA:   5    -0.380574999827E+03   -0.20145E-03   -0.20142E-03  9828   0.256E-03-0.174E-05
CGA:   6    -0.380575069910E+03   -0.70083E-04   -0.71217E-04  9828   0.118E-03-0.261E-04
CGA:   7    -0.380575102127E+03   -0.32216E-04   -0.42183E-04  9828   0.122E-03-0.620E-04
CGA:   8    -0.380575116399E+03   -0.14272E-04   -0.16773E-04  9828   0.187E-04 0.233E-04
CGA:   9    -0.380575121327E+03   -0.49283E-05   -0.50092E-05  9828   0.794E-05 0.546E-05
  93 F= -.38057512E+03 E0= -.38057512E+03  d E =-.213688E-02  mag=     4.0000
       N       E                     dE             d eps       ncg     rms          ort
SDA:   1    -0.380560088807E+03    0.15028E-01    0.00000E+00  9828   0.371E-01 0.000E+00
CGA:   2    -0.380572290520E+03   -0.12202E-01   -0.12301E-01  9828   0.140E-01-0.123E-02
CGA:   3    -0.380574872937E+03   -0.25824E-02   -0.26167E-02  9828   0.244E-02 0.557E-03
CGA:   4    -0.380575300016E+03   -0.42708E-03   -0.43836E-03  9828   0.485E-03 0.143E-03
CGA:   5    -0.380575403588E+03   -0.10357E-03   -0.10510E-03  9828   0.129E-03 0.350E-04
CGA:   6    -0.380575439067E+03   -0.35480E-04   -0.35550E-04  9828   0.535E-04-0.627E-05
CGA:   7    -0.380575363988E+03    0.75079E-04   -0.55673E-04  9828   0.692E-03-0.154E-03
CGA:   8    -0.380575447891E+03   -0.83903E-04   -0.96337E-04  9828   0.793E-04 0.846E-04
CGA:   9    -0.380575464119E+03   -0.16229E-04   -0.18070E-04  9828   0.201E-04 0.235E-04
CGA:  10    -0.380575470489E+03   -0.63699E-05   -0.64334E-05  9828   0.899E-05 0.208E-05
  94 F= -.38057547E+03 E0= -.38057547E+03  d E =-.349162E-03  mag=     4.0000
       N       E                     dE             d eps       ncg     rms          ort
SDA:   1    -0.380441801439E+03    0.13366E+00    0.00000E+00  9828   0.323E+00 0.000E+00
CGA:   2    -0.380548556942E+03   -0.10676E+00   -0.10688E+00  9828   0.107E+00-0.218E-02
CGA:   3    -0.380571374981E+03   -0.22818E-01   -0.22881E-01  9828   0.161E-01 0.106E-02
CGA:   4    -0.380574447994E+03   -0.30730E-02   -0.30871E-02  9828   0.385E-02 0.176E-03
CGA:   5    -0.380575219772E+03   -0.77178E-03   -0.77726E-03  9828   0.914E-03 0.820E-04
CGA:   6    -0.380575462545E+03   -0.24277E-03   -0.24269E-03  9828   0.312E-03-0.234E-04
CGA:   7    -0.380575561352E+03   -0.98806E-04   -0.10349E-03  9828   0.205E-03-0.606E-04
CGA:   8    -0.380575604001E+03   -0.42650E-04   -0.42831E-04  9828   0.760E-04 0.228E-04
CGA:   9    -0.380575624377E+03   -0.20376E-04   -0.20733E-04  9828   0.287E-04 0.168E-04
CGA:  10    -0.380575634323E+03   -0.99455E-05   -0.98961E-05  9828   0.126E-04 0.288E-05
  95 F= -.38057563E+03 E0= -.38057563E+03  d E =-.163834E-03  mag=     4.0000
       N       E                     dE             d eps       ncg     rms          ort
SDA:   1    -0.379863345986E+03    0.71228E+00    0.00000E+00  9828   0.169E+01 0.000E+00
CGA:   2    -0.380440942791E+03   -0.57760E+00   -0.57781E+00  9828   0.525E+00-0.308E-02
CGA:   3    -0.380554221626E+03   -0.11328E+00   -0.11334E+00  9828   0.794E-01 0.102E-02
CGA:   4    -0.380569629728E+03   -0.15408E-01   -0.15453E-01  9828   0.193E-01 0.699E-03
CGA:   5    -0.380573594018E+03   -0.39643E-02   -0.39656E-02  9828   0.471E-02 0.234E-04
CGA:   6    -0.380574784976E+03   -0.11910E-02   -0.11906E-02  9828   0.151E-02-0.484E-04
CGA:   7    -0.380575202526E+03   -0.41755E-03   -0.41718E-03  9828   0.695E-03 0.204E-04
CGA:   8    -0.380575449540E+03   -0.24701E-03   -0.24981E-03  9828   0.377E-03-0.296E-04
CGA:   9    -0.380575545504E+03   -0.95965E-04   -0.95985E-04  9828   0.122E-03 0.513E-04
CGA:  10    -0.380575587309E+03   -0.41804E-04   -0.41453E-04  9828   0.457E-04 0.107E-04
CGA:  11    -0.380575604906E+03   -0.17597E-04   -0.17194E-04  9828   0.234E-04 0.511E-05
CGA:  12    -0.380575614816E+03   -0.99097E-05   -0.94964E-05  9828   0.149E-04 0.439E-05
CGA:  13    -0.380575624624E+03   -0.98084E-05    0.19651E-02  9828   0.725E-05 0.640E-05
  96 F= -.38057562E+03 E0= -.38057562E+03  d E =0.969879E-05  mag=     4.0000
       N       E                     dE             d eps       ncg     rms          ort
SDA:   1    -0.380510585666E+03    0.65029E-01    0.00000E+00  9828   0.166E+00 0.000E+00
CGA:   2    -0.380559438866E+03   -0.48853E-01   -0.48869E-01  9828   0.643E-01 0.107E-02
CGA:   3    -0.380573274347E+03   -0.13835E-01   -0.13790E-01  9828   0.129E-01-0.475E-03
CGA:   4    -0.380575706606E+03   -0.24323E-02   -0.23856E-02  9828   0.267E-02-0.396E-03
CGA:   5    -0.380576294527E+03   -0.58792E-03   -0.57818E-03  9828   0.751E-03-0.133E-03
CGA:   6    -0.380576459663E+03   -0.16514E-03   -0.16473E-03  9828   0.246E-03-0.663E-05
CGA:   7    -0.380576527198E+03   -0.67536E-04   -0.67545E-04  9828   0.100E-03 0.783E-06
CGA:   8    -0.380576566568E+03   -0.39370E-04   -0.42727E-04  9828   0.826E-04-0.247E-04
CGA:   9    -0.380576029159E+03    0.53741E-03   -0.29032E-03  9828   0.288E-02-0.402E-03
CGA:  10    -0.380576471090E+03   -0.44193E-03   -0.46383E-03  9828   0.352E-03 0.666E-04
CGA:  11    -0.380576569632E+03   -0.98542E-04   -0.10544E-03  9828   0.147E-03 0.307E-04
CGA:  12    -0.380576611186E+03   -0.41554E-04   -0.48381E-04  9828   0.512E-04 0.333E-04
CGA:  13    -0.380576631691E+03   -0.20506E-04   -0.22545E-04  9828   0.183E-04 0.145E-04
CGA:  14    -0.380576637637E+03   -0.59459E-05   -0.71654E-05  9828   0.804E-05 0.652E-05
  97 F= -.38057664E+03 E0= -.38057664E+03  d E =-.101301E-02  mag=     4.0000
       N       E                     dE             d eps       ncg     rms          ort
SDA:   1    -0.380518959382E+03    0.57672E-01    0.00000E+00  9828   0.137E+00 0.000E+00
CGA:   2    -0.380565768064E+03   -0.46809E-01   -0.46888E-01  9828   0.409E-01 0.610E-03
CGA:   3    -0.380574981221E+03   -0.92132E-02   -0.91368E-02  9828   0.610E-02-0.328E-03
CGA:   4    -0.380576200443E+03   -0.12192E-02   -0.12165E-02  9828   0.149E-02-0.103E-04
CGA:   5    -0.380576497999E+03   -0.29756E-03   -0.29697E-03  9828   0.363E-03-0.247E-05
CGA:   6    -0.380576583451E+03   -0.85452E-04   -0.86998E-04  9828   0.101E-03 0.839E-05
CGA:   7    -0.380576608348E+03   -0.24897E-04   -0.26716E-04  9828   0.389E-04 0.117E-04
CGA:   8    -0.380576624082E+03   -0.15734E-04   -0.15741E-04  9828   0.216E-04 0.140E-06
CGA:   9    -0.380576629808E+03   -0.57258E-05   -0.61066E-05  9828   0.733E-05 0.310E-05
  98 F= -.38057663E+03 E0= -.38057663E+03  d E =0.782923E-05  mag=     4.0000
       N       E                     dE             d eps       ncg     rms          ort
SDA:   1    -0.380559666221E+03    0.16958E-01    0.00000E+00  9828   0.425E-01 0.000E+00
CGA:   2    -0.380572533937E+03   -0.12868E-01   -0.12911E-01  9828   0.145E-01 0.449E-03
CGA:   3    -0.380575818656E+03   -0.32847E-02   -0.32703E-02  9828   0.261E-02-0.868E-04
CGA:   4    -0.380576354752E+03   -0.53610E-03   -0.50454E-03  9828   0.647E-03-0.166E-03
CGA:   5    -0.380576490468E+03   -0.13572E-03   -0.12746E-03  9828   0.172E-03-0.499E-04
CGA:   6    -0.380576526080E+03   -0.35613E-04   -0.36123E-04  9828   0.483E-04 0.364E-05
CGA:   7    -0.380576538412E+03   -0.12332E-04   -0.12866E-04  9828   0.193E-04 0.535E-05
CGA:   8    -0.380576547077E+03   -0.86647E-05   -0.88000E-05  9828   0.157E-04-0.248E-05
  99 F= -.38057655E+03 E0= -.38057655E+03  d E =0.827312E-04  mag=     4.0000
       N       E                     dE             d eps       ncg     rms          ort
SDA:   1    -0.380520714715E+03    0.55824E-01    0.00000E+00  9828   0.141E+00 0.000E+00
CGA:   2    -0.380563017791E+03   -0.42303E-01   -0.42369E-01  9828   0.480E-01 0.110E-02
CGA:   3    -0.380573945656E+03   -0.10928E-01   -0.10897E-01  9828   0.844E-02-0.249E-03
CGA:   4    -0.380575591043E+03   -0.16454E-02   -0.16057E-02  9828   0.189E-02-0.253E-03
CGA:   5    -0.380576003411E+03   -0.41237E-03   -0.39926E-03  9828   0.502E-03-0.107E-03
CGA:   6    -0.380576116237E+03   -0.11283E-03   -0.11328E-03  9828   0.156E-03 0.468E-05
CGA:   7    -0.380576155589E+03   -0.39352E-04   -0.40758E-04  9828   0.616E-04 0.200E-04
CGA:   8    -0.380576185620E+03   -0.30032E-04   -0.31593E-04  9828   0.562E-04-0.122E-04
CGA:   9    -0.380576198127E+03   -0.12507E-04   -0.27560E-04  9828   0.938E-04-0.540E-04
CGA:  10    -0.380576216335E+03   -0.18208E-04   -0.18623E-04  9828   0.184E-04 0.289E-05
CGA:  11    -0.380576219379E+03   -0.30441E-05   -0.39580E-05  9828   0.593E-05 0.700E-05
 100 F= -.38057622E+03 E0= -.38057622E+03  d E =0.327698E-03  mag=     4.0000
       N       E                     dE             d eps       ncg     rms          ort
SDA:   1    -0.380272261304E+03    0.30396E+00    0.00000E+00  9828   0.773E+00 0.000E+00
CGA:   2    -0.380502447420E+03   -0.23019E+00   -0.23027E+00  9828   0.265E+00 0.258E-02
CGA:   3    -0.380562606217E+03   -0.60159E-01   -0.60108E-01  9828   0.472E-01-0.587E-03
CGA:   4    -0.380571503633E+03   -0.88974E-02   -0.87973E-02  9828   0.106E-01-0.766E-03
CGA:   5    -0.380573705716E+03   -0.22021E-02   -0.21771E-02  9828   0.261E-02-0.241E-03
CGA:   6    -0.380574342765E+03   -0.63705E-03   -0.63617E-03  9828   0.867E-03-0.157E-04
CGA:   7    -0.380574596282E+03   -0.25352E-03   -0.25347E-03  9828   0.411E-03-0.436E-05
CGA:   8    -0.380574751285E+03   -0.15500E-03   -0.15787E-03  9828   0.252E-03-0.350E-04
CGA:   9    -0.380574837830E+03   -0.86545E-04   -0.11584E-03  9828   0.285E-03-0.151E-03
CGA:  10    -0.380574880943E+03   -0.43113E-04   -0.46994E-04  9828   0.426E-04 0.260E-04
CGA:  11    -0.380574893643E+03   -0.12701E-04   -0.12838E-04  9828   0.155E-04 0.410E-05
CGA:  12    -0.380574897276E+03   -0.36321E-05   -0.40852E-05  9828   0.576E-05 0.662E-05
 101 F= -.38057490E+03 E0= -.38057490E+03  d E =0.132210E-02  mag=     4.0000
       N       E                     dE             d eps       ncg     rms          ort
SDA:   1    -0.380358698881E+03    0.21619E+00    0.00000E+00  9828   0.532E+00 0.000E+00
CGA:   2    -0.380523395611E+03   -0.16470E+00   -0.16466E+00  9828   0.176E+00 0.319E-02
CGA:   3    -0.380563714483E+03   -0.40319E-01   -0.40248E-01  9828   0.308E-01-0.103E-02
CGA:   4    -0.380569576384E+03   -0.58619E-02   -0.58149E-02  9828   0.726E-02-0.419E-03
CGA:   5    -0.380571089517E+03   -0.15131E-02   -0.14961E-02  9828   0.185E-02-0.207E-03
CGA:   6    -0.380571543565E+03   -0.45405E-03   -0.45420E-03  9828   0.630E-03 0.415E-05
CGA:   7    -0.380571708432E+03   -0.16487E-03   -0.16615E-03  9828   0.264E-03 0.585E-04
CGA:   8    -0.380571825295E+03   -0.11686E-03   -0.12331E-03  9828   0.220E-03-0.452E-04
CGA:   9    -0.380571883391E+03   -0.58096E-04   -0.59225E-04  9828   0.107E-03-0.327E-04
CGA:  10    -0.380571912135E+03   -0.28744E-04   -0.46998E-04  9828   0.142E-03-0.814E-04
CGA:  11    -0.380571930867E+03   -0.18733E-04   -0.23337E-04  9828   0.265E-04 0.331E-04
CGA:  12    -0.380571935985E+03   -0.51174E-05   -0.64334E-05  9828   0.127E-04 0.131E-04
 102 F= -.38057194E+03 E0= -.38057194E+03  d E =0.296129E-02  mag=     4.0000
       N       E                     dE             d eps       ncg     rms          ort
SDA:   1    -0.380474307599E+03    0.97623E-01    0.00000E+00  9828   0.247E+00 0.000E+00
CGA:   2    -0.380552646606E+03   -0.78339E-01   -0.78394E-01  9828   0.860E-01-0.198E-02
CGA:   3    -0.380571161036E+03   -0.18514E-01   -0.18545E-01  9828   0.150E-01 0.418E-03
CGA:   4    -0.380573850036E+03   -0.26890E-02   -0.27347E-02  9828   0.324E-02 0.438E-03
CGA:   5    -0.380574507758E+03   -0.65772E-03   -0.67154E-03  9828   0.779E-03 0.174E-03
CGA:   6    -0.380574729053E+03   -0.22130E-03   -0.22121E-03  9828   0.304E-03-0.111E-04
CGA:   7    -0.380574823972E+03   -0.94919E-04   -0.96902E-04  9828   0.178E-03-0.421E-04
CGA:   8    -0.380574862772E+03   -0.38800E-04   -0.39323E-04  9828   0.665E-04 0.236E-04
CGA:   9    -0.380574877848E+03   -0.15076E-04   -0.16451E-04  9828   0.243E-04 0.232E-04
CGA:  10    -0.380574883531E+03   -0.56833E-05   -0.65774E-05  9828   0.101E-04 0.121E-04
 103 F= -.38057488E+03 E0= -.38057488E+03  d E =-.294755E-02  mag=     4.0000
       N       E                     dE             d eps       ncg     rms          ort
SDA:   1    -0.380569740727E+03    0.51371E-02    0.00000E+00  9828   0.125E-01 0.000E+00
CGA:   2    -0.380573820054E+03   -0.40793E-02   -0.40818E-02  9828   0.434E-02-0.431E-04
CGA:   3    -0.380574737395E+03   -0.91734E-03   -0.91825E-03  9828   0.970E-03 0.164E-04
CGA:   4    -0.380574912424E+03   -0.17503E-03   -0.17844E-03  9828   0.204E-03 0.403E-04
CGA:   5    -0.380574949307E+03   -0.36883E-04   -0.39065E-04  9828   0.515E-04 0.273E-04
CGA:   6    -0.380574963769E+03   -0.14462E-04   -0.14543E-04  9828   0.206E-04 0.739E-05
CGA:   7    -0.380574972491E+03   -0.87217E-05   -0.10921E-04  9828   0.261E-04-0.108E-04
 104 F= -.38057497E+03 E0= -.38057497E+03  d E =-.889600E-04  mag=     4.0000
       N       E                     dE             d eps       ncg     rms          ort
SDA:   1    -0.380570486259E+03    0.44775E-02    0.00000E+00  9828   0.115E-01 0.000E+00
CGA:   2    -0.380573812556E+03   -0.33263E-02   -0.33154E-02  9828   0.359E-02 0.399E-03
CGA:   3    -0.380574718840E+03   -0.90628E-03   -0.90459E-03  9828   0.657E-03-0.835E-04
CGA:   4    -0.380574865360E+03   -0.14652E-03   -0.14163E-03  9828   0.226E-03-0.117E-03
CGA:   5    -0.380574903352E+03   -0.37992E-04   -0.36453E-04  9828   0.543E-04-0.237E-04
CGA:   6    -0.380574912814E+03   -0.94617E-05   -0.98684E-05  9828   0.151E-04 0.747E-05
 105 F= -.38057491E+03 E0= -.38057491E+03  d E =0.596772E-04  mag=     4.0000
       N       E                     dE             d eps       ncg     rms          ort
SDA:   1    -0.378792031953E+03    0.17829E+01    0.00000E+00  9828   0.434E+01 0.000E+00
CGA:   2    -0.380198690949E+03   -0.14067E+01   -0.14058E+01  9828   0.138E+01 0.108E-01
CGA:   3    -0.380509027875E+03   -0.31034E+00   -0.31022E+00  9828   0.210E+00-0.438E-02
CGA:   4    -0.380551292762E+03   -0.42265E-01   -0.42168E-01  9828   0.513E-01-0.182E-02
CGA:   5    -0.380561518732E+03   -0.10226E-01   -0.10205E-01  9828   0.126E-01-0.405E-03
CGA:   6    -0.380564708153E+03   -0.31894E-02   -0.31898E-02  9828   0.416E-02-0.757E-04
CGA:   7    -0.380565932623E+03   -0.12245E-02   -0.12251E-02  9828   0.206E-02-0.134E-04
CGA:   8    -0.380566675691E+03   -0.74307E-03   -0.75795E-03  9828   0.114E-02-0.125E-03
CGA:   9    -0.380567059421E+03   -0.38373E-03   -0.46185E-03  9828   0.882E-03-0.443E-03
CGA:  10    -0.380567187211E+03   -0.12779E-03   -0.12562E-03  9828   0.312E-03-0.660E-04
CGA:  11    -0.380567249976E+03   -0.62766E-04   -0.64341E-04  9828   0.140E-03 0.375E-04
CGA:  12    -0.380567284036E+03   -0.34059E-04   -0.35291E-04  9828   0.763E-04 0.327E-04
CGA:  13    -0.380567303511E+03   -0.19476E-04   -0.20783E-04  9828   0.390E-04 0.329E-04
CGA:  14    -0.380567314142E+03   -0.10631E-04   -0.11629E-04  9828   0.205E-04 0.198E-04
CGA:  15    -0.380567313219E+03    0.92289E-06   -0.19132E-04  9828   0.135E-03-0.295E-04
CGA:  16    -0.380567326902E+03   -0.13683E-04   -0.17569E-04  9828   0.142E-04 0.248E-04
CGA:  17    -0.380567328420E+03   -0.15188E-05   -0.24988E-05  9828   0.585E-05 0.733E-05
 106 F= -.38056733E+03 E0= -.38056733E+03  d E =0.758439E-02  mag=     4.0000
       N       E                     dE             d eps       ncg     rms          ort
SDA:   1    -0.380443393036E+03    0.12393E+00    0.00000E+00  9828   0.305E+00 0.000E+00
CGA:   2    -0.380539687563E+03   -0.96295E-01   -0.96307E-01  9828   0.118E+00-0.292E-03
CGA:   3    -0.380562757986E+03   -0.23070E-01   -0.23077E-01  9828   0.246E-01 0.828E-04
CGA:   4    -0.380567226619E+03   -0.44686E-02   -0.45166E-02  9828   0.500E-02 0.545E-03
CGA:   5    -0.380568254497E+03   -0.10279E-02   -0.10364E-02  9828   0.123E-02 0.126E-03
CGA:   6    -0.380568585832E+03   -0.33134E-03   -0.33102E-03  9828   0.456E-03-0.751E-04
CGA:   7    -0.380568691966E+03   -0.10613E-03   -0.10648E-03  9828   0.147E-03 0.196E-04
CGA:   8    -0.380568732342E+03   -0.40376E-04   -0.40422E-04  9828   0.507E-04 0.265E-04
CGA:   9    -0.380568744197E+03   -0.11855E-04   -0.12958E-04  9828   0.182E-04 0.223E-04
CGA:  10    -0.380568748523E+03   -0.43256E-05   -0.51158E-05  9828   0.795E-05 0.115E-04
 107 F= -.38056875E+03 E0= -.38056875E+03  d E =-.142010E-02  mag=     4.0000
       N       E                     dE             d eps       ncg     rms          ort
SDA:   1    -0.379877666032E+03    0.69108E+00    0.00000E+00  9828   0.171E+01 0.000E+00
CGA:   2    -0.380430424815E+03   -0.55276E+00   -0.55243E+00  9828   0.544E+00-0.283E-02
CGA:   3    -0.380551718274E+03   -0.12129E+00   -0.12144E+00  9828   0.818E-01 0.770E-03
CGA:   4    -0.380567690986E+03   -0.15973E-01   -0.16110E-01  9828   0.195E-01 0.522E-03
CGA:   5    -0.380571560241E+03   -0.38693E-02   -0.39242E-02  9828   0.462E-02 0.229E-03
CGA:   6    -0.380572779606E+03   -0.12194E-02   -0.12167E-02  9828   0.155E-02-0.168E-04
CGA:   7    -0.380573263214E+03   -0.48361E-03   -0.47666E-03  9828   0.849E-03-0.619E-04
CGA:   8    -0.380573520021E+03   -0.25681E-03   -0.26008E-03  9828   0.386E-03 0.341E-04
CGA:   9    -0.380573636076E+03   -0.11605E-03   -0.11969E-03  9828   0.140E-03 0.326E-04
CGA:  10    -0.380573671122E+03   -0.35046E-04   -0.39265E-04  9828   0.434E-04 0.289E-04
CGA:  11    -0.380573691416E+03   -0.20294E-04   -0.20297E-04  9828   0.259E-04 0.233E-06
CGA:  12    -0.380573694410E+03   -0.29936E-05   -0.26695E-04  9828   0.111E-03-0.380E-04
CGA:  13    -0.380573709678E+03   -0.15268E-04   -0.20276E-04  9828   0.178E-04 0.205E-04
CGA:  14    -0.380573714123E+03   -0.44445E-05   -0.51494E-05  9828   0.579E-05 0.410E-05
 108 F= -.38057371E+03 E0= -.38057371E+03  d E =-.496560E-02  mag=     4.0000
       N       E                     dE             d eps       ncg     rms          ort
SDA:   1    -0.380455260574E+03    0.11845E+00    0.00000E+00  9828   0.286E+00 0.000E+00
CGA:   2    -0.380543838369E+03   -0.88578E-01   -0.88599E-01  9828   0.113E+00 0.284E-03
CGA:   3    -0.380566069693E+03   -0.22231E-01   -0.22166E-01  9828   0.216E-01-0.309E-03
CGA:   4    -0.380570207682E+03   -0.41380E-02   -0.40927E-02  9828   0.472E-02-0.228E-03
CGA:   5    -0.380571147699E+03   -0.94002E-03   -0.94206E-03  9828   0.110E-02 0.126E-04
CGA:   6    -0.380571379589E+03   -0.23189E-03   -0.24311E-03  9828   0.286E-03 0.776E-04
CGA:   7    -0.380571459255E+03   -0.79666E-04   -0.81780E-04  9828   0.104E-03 0.233E-04
CGA:   8    -0.380571503330E+03   -0.44075E-04   -0.44968E-04  9828   0.708E-04-0.186E-04
CGA:   9    -0.380571521628E+03   -0.18298E-04   -0.18022E-04  9828   0.270E-04-0.602E-05
CGA:  10    -0.380571523817E+03   -0.21888E-05   -0.41825E-05  9828   0.114E-04 0.108E-04
 109 F= -.38057152E+03 E0= -.38057152E+03  d E =0.219031E-02  mag=     4.0000
       N       E                     dE             d eps       ncg     rms          ort
SDA:   1    -0.380473994993E+03    0.97527E-01    0.00000E+00  9828   0.239E+00 0.000E+00
CGA:   2    -0.380552810213E+03   -0.78815E-01   -0.78815E-01  9828   0.860E-01-0.735E-04
CGA:   3    -0.380569463224E+03   -0.16653E-01   -0.16679E-01  9828   0.164E-01 0.176E-03
CGA:   4    -0.380572544212E+03   -0.30810E-02   -0.30954E-02  9828   0.354E-02 0.107E-03
CGA:   5    -0.380573298009E+03   -0.75380E-03   -0.74806E-03  9828   0.883E-03-0.515E-04
CGA:   6    -0.380573528480E+03   -0.23047E-03   -0.22572E-03  9828   0.305E-03-0.862E-04
CGA:   7    -0.380573602289E+03   -0.73809E-04   -0.73348E-04  9828   0.104E-03-0.100E-04
CGA:   8    -0.380573628636E+03   -0.26347E-04   -0.26921E-04  9828   0.326E-04 0.139E-04
CGA:   9    -0.380573641927E+03   -0.13291E-04   -0.13471E-04  9828   0.152E-04-0.317E-05
CGA:  10    -0.380573651758E+03   -0.98311E-05    0.13517E-04  9828   0.522E-05-0.776E-06
 110 F= -.38057365E+03 E0= -.38057365E+03  d E =-.212794E-02  mag=     4.0000
