       N       E                     dE             d eps       ncg     rms          ort
DAV:   1     0.260163886370E+04    0.26016E+04   -0.14115E+05 10584   0.166E+03
DAV:   2    -0.122826055328E+03   -0.27245E+04   -0.25153E+04 10584   0.429E+02
DAV:   3    -0.443959215104E+03   -0.32113E+03   -0.31569E+03 10584   0.169E+02
DAV:   4    -0.456376438127E+03   -0.12417E+02   -0.12071E+02 10584   0.319E+01
DAV:   5    -0.456928910591E+03   -0.55247E+00   -0.54024E+00 10584   0.498E+00
SDA:   6    -0.248635958500E+03    0.20829E+03   -0.54024E+00 10584   0.511E+03 0.000E+00
CGA:   7    -0.325129490625E+03   -0.76494E+02   -0.67839E+02 10584   0.190E+03-0.662E+02
CGA:   8    -0.329385269420E+03   -0.42558E+01   -0.15116E+02 10584   0.166E+03-0.161E+02
CGA:   9    -0.338257525471E+03   -0.88723E+01   -0.11946E+02 10584   0.673E+02-0.512E+01
CGA:  10    -0.341067058639E+03   -0.28095E+01   -0.59671E+01 10584   0.471E+02-0.753E+01
CGA:  11    -0.343590714820E+03   -0.25237E+01   -0.25757E+01 10584   0.372E+02-0.153E+02
CGA:  12    -0.345175668061E+03   -0.15850E+01   -0.13408E+01 10584   0.231E+02 0.254E+01
CGA:  13    -0.345881066500E+03   -0.70540E+00   -0.15993E+01 10584   0.176E+02-0.766E+01
CGA:  14    -0.346396467695E+03   -0.51540E+00   -0.71217E+00 10584   0.103E+02-0.316E+01
CGA:  15    -0.346873201785E+03   -0.47673E+00   -0.47472E+00 10584   0.655E+01-0.165E+00
CGA:  16    -0.347091011799E+03   -0.21781E+00   -0.34478E+00 10584   0.479E+01-0.160E+01
CGA:  17    -0.347347284343E+03   -0.25627E+00   -0.29190E+00 10584   0.379E+01-0.169E+00
CGA:  18    -0.347517114343E+03   -0.16983E+00   -0.14025E+00 10584   0.907E+00 0.770E+00
CGA:  19    -0.347579462522E+03   -0.62348E-01   -0.53801E-01 10584   0.739E+00 0.147E+00
CGA:  20    -0.347673407577E+03   -0.93945E-01   -0.91443E-01 10584   0.150E+01-0.240E-01
CGA:  21    -0.347732325002E+03   -0.58917E-01   -0.50659E-01 10584   0.782E+00 0.242E+00
CGA:  22    -0.347755107418E+03   -0.22782E-01   -0.15988E-01 10584   0.410E+00 0.353E+00
CGA:  23    -0.347768843313E+03   -0.13736E-01   -0.10830E-01 10584   0.314E+00 0.161E+00
CGA:  24    -0.347780014831E+03   -0.11172E-01   -0.99813E-02 10584   0.443E+00 0.669E-01
CGA:  25    -0.347791657507E+03   -0.11643E-01   -0.10698E-01 10584   0.737E+00 0.728E-01
CGA:  26    -0.347806448965E+03   -0.14791E-01   -0.15152E-01 10584   0.115E+01 0.222E-01
CGA:  27    -0.347820845702E+03   -0.14397E-01   -0.18472E-01 10584   0.133E+01-0.152E+00
CGA:  28    -0.347830036841E+03   -0.91911E-02   -0.15071E-01 10584   0.778E+00-0.336E+00
CGA:  29    -0.347833076246E+03   -0.30394E-02   -0.75411E-02 10584   0.344E+00-0.292E+00
CGA:  30    -0.347835213452E+03   -0.21372E-02   -0.32698E-02 10584   0.285E+00-0.680E-01
CGA:  31    -0.347840978029E+03   -0.57646E-02   -0.60310E-02 10584   0.420E+00-0.184E-01
CGA:  32    -0.347854740749E+03   -0.13763E-01   -0.12804E-01 10584   0.609E+00-0.350E-02
CGA:  33    -0.347869825521E+03   -0.15085E-01   -0.12338E-01 10584   0.455E+00 0.782E-01
CGA:  34    -0.347879656065E+03   -0.98305E-02   -0.78690E-02 10584   0.285E+00 0.838E-01
CGA:  35    -0.347886810117E+03   -0.71541E-02   -0.64399E-02 10584   0.261E+00 0.156E-01
CGA:  36    -0.347892235543E+03   -0.54254E-02   -0.51743E-02 10584   0.248E+00 0.688E-03
SDA:  37    -0.347896316934E+03   -0.40814E-02   -0.44089E-02 10584   0.195E+00-0.201E-01
CGA:  38    -0.347906406592E+03   -0.10090E-01   -0.10076E-01 10584   0.131E+00 0.373E-02
CGA:  39    -0.347918542450E+03   -0.12136E-01   -0.11966E-01 10584   0.102E+00 0.837E-02
CGA:  40    -0.347931625509E+03   -0.13083E-01   -0.12406E-01 10584   0.418E-01 0.143E-01
CGA:  41    -0.347934984010E+03   -0.33585E-02   -0.33589E-02 10584   0.744E-01 0.146E-03
CGA:  42    -0.347944180148E+03   -0.91961E-02   -0.12708E-01 10584   0.320E+00-0.419E-01
CGA:  43    -0.347952636461E+03   -0.84563E-02   -0.85668E-02 10584   0.173E-01-0.686E-02
CGA:  44    -0.347954495091E+03   -0.18586E-02   -0.18593E-02 10584   0.566E-01 0.431E-04
CGA:  45    -0.347959737697E+03   -0.52426E-02   -0.52797E-02 10584   0.619E-01-0.730E-03
CGA:  46    -0.347964161070E+03   -0.44234E-02   -0.44303E-02 10584   0.216E-01 0.174E-02
CGA:  47    -0.347965359114E+03   -0.11980E-02   -0.11829E-02 10584   0.332E-01 0.173E-03
CGA:  48    -0.347969178945E+03   -0.38198E-02   -0.56530E-02 10584   0.239E+00-0.217E-01
CGA:  49    -0.347974950895E+03   -0.57720E-02   -0.55189E-02 10584   0.108E-01 0.563E-02
CGA:  50    -0.347976188751E+03   -0.12379E-02   -0.12100E-02 10584   0.344E-01 0.868E-03
CGA:  51    -0.347979755923E+03   -0.35672E-02   -0.34941E-02 10584   0.460E-01 0.432E-02
CGA:  52    -0.347983199737E+03   -0.34438E-02   -0.34458E-02 10584   0.175E-01 0.242E-02
CGA:  53    -0.347987912018E+03   -0.47123E-02   -0.38008E-02 10584   0.904E-01 0.791E-02
CGA:  54    -0.347995021229E+03   -0.71092E-02   -0.48010E-02 10584   0.491E-01 0.399E-01
CGA:  55    -0.347999039297E+03   -0.40181E-02   -0.37305E-02 10584   0.112E+00 0.169E-02
CGA:  56    -0.348001881737E+03   -0.28424E-02   -0.24299E-02 10584   0.170E+00 0.212E-01
CGA:  57    -0.348006214350E+03   -0.43326E-02   -0.38925E-02 10584   0.163E+00 0.313E-01
CGA:  58    -0.348010055140E+03   -0.38408E-02   -0.40295E-02 10584   0.106E+00 0.503E-02
CGA:  59    -0.348012209167E+03   -0.21540E-02   -0.29101E-02 10584   0.449E-01-0.143E-01
CGA:  60    -0.348013331865E+03   -0.11227E-02   -0.13027E-02 10584   0.456E-01-0.121E-03
CGA:  61    -0.348015925122E+03   -0.25933E-02   -0.26086E-02 10584   0.278E-01 0.388E-02
CGA:  62    -0.348017249491E+03   -0.13244E-02   -0.13387E-02 10584   0.350E-01 0.263E-02
CGA:  63    -0.348018906073E+03   -0.16566E-02   -0.17019E-02 10584   0.336E-01 0.250E-02
CGA:  64    -0.348020472214E+03   -0.15661E-02   -0.16051E-02 10584   0.314E-01 0.104E-02
CGA:  65    -0.348021608202E+03   -0.11360E-02   -0.11256E-02 10584   0.269E-01-0.246E-03
CGA:  66    -0.348023477673E+03   -0.18695E-02   -0.19117E-02 10584   0.348E-01-0.388E-02
CGA:  67    -0.348024272145E+03   -0.79447E-03   -0.70813E-03 10584   0.226E-01-0.994E-03
CGA:  68    -0.348025238184E+03   -0.96604E-03   -0.88575E-03 10584   0.311E-01-0.250E-02
CGA:  69    -0.348026119687E+03   -0.88150E-03   -0.74195E-03 10584   0.350E-01-0.144E-02
CGA:  70    -0.348027218979E+03   -0.10993E-02   -0.10087E-02 10584   0.402E-01-0.366E-02
CGA:  71    -0.348028092542E+03   -0.87356E-03   -0.89554E-03 10584   0.236E-01-0.594E-02
CGA:  72    -0.348028841435E+03   -0.74889E-03   -0.76207E-03 10584   0.334E-01-0.125E-02
CGA:  73    -0.348029952189E+03   -0.11108E-02   -0.10550E-02 10584   0.190E-01 0.691E-03
CGA:  74    -0.348030657103E+03   -0.70491E-03   -0.70961E-03 10584   0.277E-01 0.171E-02
CGA:  75    -0.348031631770E+03   -0.97467E-03   -0.10345E-02 10584   0.289E-01 0.353E-02
CGA:  76    -0.348032422527E+03   -0.79076E-03   -0.94018E-03 10584   0.148E-01 0.274E-02
CGA:  77    -0.348032851009E+03   -0.42848E-03   -0.47729E-03 10584   0.984E-02 0.213E-02
CGA:  78    -0.348033519028E+03   -0.66802E-03   -0.64561E-03 10584   0.210E-01 0.293E-02
SDA:  79    -0.348034872848E+03   -0.13538E-02   -0.13550E-02 10584   0.118E-01 0.468E-02
CGA:  80    -0.348035609455E+03   -0.73661E-03   -0.76748E-03 10584   0.309E-01-0.206E-02
CGA:  81    -0.348038211788E+03   -0.26023E-02   -0.40559E-02 10584   0.694E-01-0.137E-01
CGA:  82    -0.348039073407E+03   -0.86162E-03   -0.76135E-03 10584   0.320E-01-0.124E-02
CGA:  83    -0.348039746778E+03   -0.67337E-03   -0.66774E-03 10584   0.197E-01 0.250E-03
CGA:  84    -0.348040510800E+03   -0.76402E-03   -0.79255E-03 10584   0.367E-01 0.243E-02
CGA:  85    -0.348041816901E+03   -0.13061E-02   -0.13563E-02 10584   0.277E-01 0.634E-02
CGA:  86    -0.348042384583E+03   -0.56768E-03   -0.64629E-03 10584   0.166E-01 0.422E-02
CGA:  87    -0.348042820143E+03   -0.43556E-03   -0.49494E-03 10584   0.126E-01 0.248E-02
CGA:  88    -0.348043062264E+03   -0.24212E-03   -0.27681E-03 10584   0.362E-02 0.696E-03
CGA:  89    -0.348043169130E+03   -0.10687E-03   -0.10471E-03 10584   0.396E-02-0.120E-03
CGA:  90    -0.348043427542E+03   -0.25841E-03   -0.29339E-03 10584   0.184E-01-0.114E-02
CGA:  91    -0.348043860788E+03   -0.43325E-03   -0.35837E-03 10584   0.274E-01-0.115E-02
CGA:  92    -0.348044201419E+03   -0.34063E-03   -0.23929E-03 10584   0.133E-01 0.571E-02
CGA:  93    -0.348044361830E+03   -0.16041E-03   -0.13642E-03 10584   0.301E-02 0.780E-03
CGA:  94    -0.348044395571E+03   -0.33741E-04   -0.32571E-04 10584   0.164E-02 0.502E-05
CGA:  95    -0.348044421199E+03   -0.25628E-04   -0.29531E-04 10584   0.302E-02 0.182E-03
CGA:  96    -0.348044495780E+03   -0.74581E-04   -0.85863E-04 10584   0.705E-02 0.837E-03
CGA:  97    -0.348044647561E+03   -0.15178E-03   -0.18121E-03 10584   0.736E-02 0.195E-02
CGA:  98    -0.348044753925E+03   -0.10636E-03   -0.13912E-03 10584   0.498E-02 0.149E-02
CGA:  99    -0.348044821529E+03   -0.67604E-04   -0.88455E-04 10584   0.335E-02 0.833E-03
CGA: 100    -0.348044869756E+03   -0.48227E-04   -0.59255E-04 10584   0.244E-02 0.513E-03
CGA: 101    -0.348044907861E+03   -0.38105E-04   -0.44826E-04 10584   0.193E-02 0.401E-03
CGA: 102    -0.348044937324E+03   -0.29463E-04   -0.34460E-04 10584   0.162E-02 0.315E-03
CGA: 103    -0.348044974923E+03   -0.37599E-04   -0.40019E-04 10584   0.299E-02 0.228E-03
CGA: 104    -0.348045088795E+03   -0.11387E-03   -0.11393E-03 10584   0.978E-02 0.762E-05
CGA: 105    -0.348045232157E+03   -0.14336E-03   -0.11773E-03 10584   0.113E-01 0.986E-03
CGA: 106    -0.348045347230E+03   -0.11507E-03   -0.10159E-03 10584   0.576E-02-0.425E-03
CGA: 107    -0.348045391156E+03   -0.43926E-04   -0.38019E-04 10584   0.259E-02-0.517E-03
CGA: 108    -0.348045412506E+03   -0.21350E-04   -0.18124E-04 10584   0.182E-02-0.206E-03
CGA: 109    -0.348045430499E+03   -0.17992E-04   -0.17058E-04 10584   0.223E-02-0.844E-04
SDA: 110    -0.348045455699E+03   -0.25200E-04   -0.27036E-04 10584   0.373E-02 0.690E-04
CGA: 111    -0.348045552884E+03   -0.97186E-04   -0.97342E-04 10584   0.145E-02 0.461E-03
CGA: 112    -0.348045785708E+03   -0.23282E-03   -0.17165E-03 10584   0.331E-02 0.769E-03
CGA: 113    -0.348045859436E+03   -0.73728E-04   -0.73955E-04 10584   0.907E-03 0.233E-04
CGA: 114    -0.348045921573E+03   -0.62137E-04   -0.90092E-05 10584   0.141E-01-0.687E-03
CGA: 115    -0.348046139344E+03   -0.21777E-03   -0.22889E-03 10584   0.731E-03 0.336E-03
CGA: 116    -0.348046165860E+03   -0.26516E-04   -0.26621E-04 10584   0.678E-03 0.928E-05
CGA: 117    -0.348046348713E+03   -0.18285E-03   -0.11778E-05 10584   0.465E-02-0.134E-03
CGA: 118    -0.348046595535E+03   -0.24682E-03   -0.22755E-03 10584   0.398E-02 0.752E-04
CGA: 119    -0.348046683751E+03   -0.88216E-04   -0.69303E-04 10584   0.566E-03 0.607E-03
CGA: 120    -0.348046704376E+03   -0.20625E-04   -0.20008E-04 10584   0.624E-03-0.757E-05
CGA: 121    -0.348046720057E+03   -0.15680E-04   -0.20532E-04 10584   0.750E-03 0.972E-04
CGA: 122    -0.348046746416E+03   -0.26360E-04   -0.36650E-04 10584   0.168E-02 0.257E-03
CGA: 123    -0.348046830610E+03   -0.84194E-04   -0.10350E-03 10584   0.822E-03 0.585E-03
CGA: 124    -0.348046854063E+03   -0.23453E-04   -0.26921E-04 10584   0.457E-03 0.462E-04
CGA: 125    -0.348046884216E+03   -0.30152E-04   -0.31134E-04 10584   0.100E-02 0.709E-04
CGA: 126    -0.348046988865E+03   -0.10465E-03   -0.10460E-03 10584   0.225E-02 0.543E-04
CGA: 127    -0.348047068621E+03   -0.79756E-04   -0.69294E-04 10584   0.151E-02 0.164E-03
CGA: 128    -0.348047118751E+03   -0.50130E-04   -0.48850E-04 10584   0.107E-02-0.386E-04
CGA: 129    -0.348047155586E+03   -0.36835E-04   -0.40884E-04 10584   0.191E-02 0.147E-03
CGA: 130    -0.348047243545E+03   -0.87959E-04   -0.85999E-04 10584   0.184E-02 0.413E-03
CGA: 131    -0.348047295640E+03   -0.52095E-04   -0.55195E-04 10584   0.150E-02 0.118E-03
CGA: 132    -0.348047350640E+03   -0.55000E-04   -0.62862E-04 10584   0.147E-02 0.118E-03
CGA: 133    -0.348047380928E+03   -0.30288E-04   -0.36551E-04 10584   0.924E-03 0.229E-03
CGA: 134    -0.348047418443E+03   -0.37515E-04   -0.39464E-04 10584   0.124E-02 0.169E-03
CGA: 135    -0.348047475046E+03   -0.56603E-04   -0.55814E-04 10584   0.207E-02 0.953E-05
CGA: 136    -0.348047540647E+03   -0.65601E-04   -0.67995E-04 10584   0.142E-02-0.878E-04
CGA: 137    -0.348047564362E+03   -0.23715E-04   -0.24934E-04 10584   0.759E-03-0.143E-04
CGA: 138    -0.348047599228E+03   -0.34866E-04   -0.34715E-04 10584   0.130E-02-0.278E-04
CGA: 139    -0.348047641947E+03   -0.42719E-04   -0.38802E-04 10584   0.115E-02-0.208E-03
CGA: 140    -0.348047703852E+03   -0.61905E-04   -0.67666E-04 10584   0.159E-02-0.421E-03
CGA: 141    -0.348047716848E+03   -0.12996E-04   -0.11601E-04 10584   0.599E-03 0.385E-04
CGA: 142    -0.348047722508E+03   -0.56598E-05   -0.81936E-05 10584   0.492E-03 0.637E-04
CGA: 143    -0.348047733143E+03   -0.10635E-04   -0.14709E-04 10584   0.107E-02 0.158E-03
CGA: 144    -0.348047768320E+03   -0.35178E-04   -0.43276E-04 10584   0.898E-03 0.336E-03
SDA: 145    -0.348047791373E+03   -0.23053E-04   -0.27630E-04 10584   0.655E-03 0.132E-03
CGA: 146    -0.348047804439E+03   -0.13066E-04   -0.14649E-04 10584   0.238E-03 0.578E-04
CGA: 147    -0.348047816773E+03   -0.12334E-04   -0.12322E-04 10584   0.184E-03 0.293E-04
CGA: 148    -0.348047833239E+03   -0.16466E-04   -0.13662E-04 10584   0.201E-03 0.147E-03
CGA: 149    -0.348047838079E+03   -0.48400E-05   -0.54916E-05 10584   0.105E-03 0.308E-04
   1 F= -.34804784E+03 E0= -.34804087E+03  d E =-.348048E+03  mag=    18.0000
       N       E                     dE             d eps       ncg     rms          ort
SDA:   1    -0.348042444209E+03    0.53890E-02    0.00000E+00 10584   0.170E+00 0.000E+00
CGA:   2    -0.348045939125E+03   -0.34949E-02   -0.34830E-02 10584   0.282E-01-0.159E-02
CGA:   3    -0.348046662678E+03   -0.72355E-03   -0.72957E-03 10584   0.408E-02 0.636E-03
CGA:   4    -0.348046871090E+03   -0.20841E-03   -0.20710E-03 10584   0.612E-02 0.285E-03
CGA:   5    -0.348047500276E+03   -0.62919E-03   -0.62206E-03 10584   0.108E-02 0.138E-03
CGA:   6    -0.348047602999E+03   -0.10272E-03   -0.96872E-04 10584   0.215E-02 0.145E-03
CGA:   7    -0.348047709073E+03   -0.10607E-03   -0.10410E-03 10584   0.888E-03-0.285E-03
CGA:   8    -0.348047726732E+03   -0.17659E-04   -0.18758E-04 10584   0.239E-03 0.420E-04
CGA:   9    -0.348047742305E+03   -0.15572E-04   -0.15296E-04 10584   0.330E-03 0.210E-04
CGA:  10    -0.348047764909E+03   -0.22605E-04   -0.29649E-04 10584   0.535E-03-0.209E-03
CGA:  11    -0.348047770922E+03   -0.60123E-05   -0.83908E-05 10584   0.511E-04 0.675E-04
   2 F= -.34804777E+03 E0= -.34804082E+03  d E =0.671569E-04  mag=    18.0000
       N       E                     dE             d eps       ncg     rms          ort
SDA:   1    -0.348043351756E+03    0.44132E-02    0.00000E+00 10584   0.225E+00 0.000E+00
CGA:   2    -0.348047206330E+03   -0.38546E-02   -0.38429E-02 10584   0.194E-02 0.415E-02
CGA:   3    -0.348047308819E+03   -0.10249E-03   -0.10257E-03 10584   0.325E-02-0.217E-04
CGA:   4    -0.348047471560E+03   -0.16274E-03   -0.16238E-03 10584   0.237E-02 0.992E-04
CGA:   5    -0.348047606559E+03   -0.13500E-03   -0.13496E-03 10584   0.998E-03 0.113E-05
CGA:   6    -0.348047631581E+03   -0.25022E-04   -0.27122E-04 10584   0.453E-03 0.102E-03
CGA:   7    -0.348047687701E+03   -0.56120E-04   -0.56860E-04 10584   0.638E-03-0.115E-04
CGA:   8    -0.348047705987E+03   -0.18286E-04   -0.15135E-04 10584   0.171E-03-0.124E-03
CGA:   9    -0.348047711993E+03   -0.60064E-05   -0.60912E-05 10584   0.677E-04 0.186E-04
   3 F= -.34804771E+03 E0= -.34804074E+03  d E =0.589286E-04  mag=    18.0000
