       N       E                     dE             d eps       ncg     rms          ort
DAV:   1     0.107617409769E+05    0.10762E+05   -0.59499E+05   700   0.160E+03
DAV:   2    -0.534828856422E+03   -0.11297E+05   -0.10715E+05   700   0.448E+02
DAV:   3    -0.198051420720E+04   -0.14457E+04   -0.13998E+04   700   0.161E+02
DAV:   4    -0.206544736935E+04   -0.84933E+02   -0.83796E+02   700   0.403E+01
DAV:   5    -0.207314106062E+04   -0.76937E+01   -0.76746E+01   700   0.850E+00
SDA:   6    -0.172469423672E+04    0.34845E+03   -0.76746E+01   700   0.120E+03 0.000E+00
CGA:   7    -0.173326190060E+04   -0.85677E+01   -0.10271E+02   700   0.161E+03-0.408E+02
CGA:   8    -0.173782258012E+04   -0.45607E+01   -0.57172E+01   700   0.207E+03-0.110E+03
CGA:   9    -0.173042458048E+04    0.73980E+01   -0.16188E+02   700   0.625E+03-0.593E+02
CGA:  10    -0.173395725718E+04   -0.35327E+01   -0.13826E+02   700   0.171E+03-0.107E+03
CGA:  11    -0.173696035602E+04   -0.30031E+01   -0.12297E+02   700   0.222E+03-0.187E+02
CGA:  12    -0.172574546812E+04    0.11215E+02   -0.11248E+02   700   0.377E+03-0.837E+02
CGA:  13    -0.173543985756E+04   -0.96944E+01   -0.92722E+01   700   0.144E+03 0.275E+02
CGA:  14    -0.172813064495E+04    0.73092E+01   -0.96539E+01   700   0.417E+03-0.115E+03
CGA:  15    -0.173793331096E+04   -0.98027E+01   -0.16826E+02   700   0.978E+02-0.350E+02
CGA:  16    -0.174171908762E+04   -0.37858E+01   -0.44953E+01   700   0.602E+02-0.345E+02
CGA:  17    -0.174210501642E+04   -0.38593E+00   -0.29486E+01   700   0.363E+02 0.339E+01
CGA:  18    -0.174220216259E+04   -0.97146E-01   -0.15790E+01   700   0.757E+02-0.767E+02
CGA:  19    -0.174238769184E+04   -0.18553E+00   -0.39991E+01   700   0.223E+02-0.222E+02
CGA:  20    -0.174344933232E+04   -0.10616E+01   -0.43548E+00   700   0.183E+02 0.245E+02
CGA:  21    -0.174376809699E+04   -0.31876E+00   -0.49005E+00   700   0.223E+02-0.216E+02
CGA:  22    -0.174329564228E+04    0.47245E+00   -0.10950E+01   700   0.134E+02-0.725E+01
CGA:  23    -0.174386569153E+04   -0.57005E+00   -0.19428E+00   700   0.121E+02 0.152E+02
CGA:  24    -0.174386408238E+04    0.16091E-02   -0.31764E+00   700   0.189E+02-0.177E+02
CGA:  25    -0.174347792054E+04    0.38616E+00   -0.78782E+00   700   0.193E+02-0.111E+02
CGA:  26    -0.174384935180E+04   -0.37143E+00   -0.48289E+00   700   0.221E+02-0.341E+02
CGA:  27    -0.174349263052E+04    0.35672E+00   -0.86326E+00   700   0.202E+02-0.127E+02
CGA:  28    -0.174392581241E+04   -0.43318E+00   -0.48621E+00   700   0.169E+02-0.299E+02
CGA:  29    -0.174371061180E+04    0.21520E+00   -0.58763E+00   700   0.197E+02-0.131E+02
CGA:  30    -0.174395558181E+04   -0.24497E+00   -0.45847E+00   700   0.155E+02-0.234E+02
CGA:  31    -0.174382183874E+04    0.13374E+00   -0.49513E+00   700   0.175E+02-0.127E+02
CGA:  32    -0.174406398761E+04   -0.24215E+00   -0.36656E+00   700   0.730E+01-0.140E+02
CGA:  33    -0.174408556609E+04   -0.21578E-01   -0.17899E+00   700   0.549E+01-0.559E+01
CGA:  34    -0.174416017048E+04   -0.74604E-01   -0.74599E-01   700   0.112E+00-0.795E-01
CGA:  35    -0.174423399801E+04   -0.73828E-01   -0.18998E-01   700   0.469E+00 0.363E-01
CGA:  36    -0.174424936477E+04   -0.15367E-01   -0.15365E-01   700   0.231E+00 0.428E-01
CGA:  37    -0.174426434789E+04   -0.14983E-01   -0.18064E-01   700   0.329E+00-0.187E-01
CGA:  38    -0.174427341127E+04   -0.90634E-02   -0.55678E-02   700   0.131E+00 0.189E+00
CGA:  39    -0.174427744716E+04   -0.40359E-02   -0.40553E-02   700   0.469E-01 0.542E-02
CGA:  40    -0.174428238925E+04   -0.49421E-02   -0.49157E-02   700   0.993E-01-0.277E-02
CGA:  41    -0.174429066291E+04   -0.82737E-02   -0.82221E-02   700   0.122E+00-0.194E-03
CGA:  42    -0.174429486139E+04   -0.41985E-02   -0.44405E-02   700   0.424E-01-0.167E-01
CGA:  43    -0.174429801917E+04   -0.31578E-02   -0.31793E-02   700   0.562E-01 0.198E-02
CGA:  44    -0.174430135906E+04   -0.33399E-02   -0.32896E-02   700   0.315E-01 0.561E-02
CGA:  45    -0.174430408674E+04   -0.27277E-02   -0.28338E-02   700   0.344E-01 0.309E-02
CGA:  46    -0.174430725543E+04   -0.31687E-02   -0.32603E-02   700   0.330E-01 0.553E-02
CGA:  47    -0.174430906222E+04   -0.18068E-02   -0.19171E-02   700   0.114E-01 0.168E-02
CGA:  48    -0.174430969134E+04   -0.62912E-03   -0.75451E-03   700   0.956E-02 0.312E-02
CGA:  49    -0.174431105684E+04   -0.13655E-02   -0.13447E-02   700   0.124E-01 0.217E-02
CGA:  50    -0.174431175332E+04   -0.69648E-03   -0.80707E-03   700   0.736E-02 0.249E-02
CGA:  51    -0.174431222407E+04   -0.47075E-03   -0.54616E-03   700   0.575E-02 0.197E-02
CGA:  52    -0.174431275785E+04   -0.53379E-03   -0.57828E-03   700   0.567E-02 0.260E-02
CGA:  53    -0.174431322557E+04   -0.46771E-03   -0.54705E-03   700   0.463E-02 0.267E-02
CGA:  54    -0.174431378063E+04   -0.55506E-03   -0.57695E-03   700   0.462E-02 0.204E-02
CGA:  55    -0.174431415473E+04   -0.37410E-03   -0.44633E-03   700   0.330E-02 0.281E-02
CGA:  56    -0.174431429935E+04   -0.14462E-03   -0.13724E-03   700   0.279E-02-0.169E-03
CGA:  57    -0.174431451843E+04   -0.21907E-03   -0.22240E-03   700   0.249E-02 0.521E-03
CGA:  58    -0.174431471347E+04   -0.19505E-03   -0.20388E-03   700   0.193E-02 0.445E-03
CGA:  59    -0.174431493340E+04   -0.21993E-03   -0.23003E-03   700   0.712E-02-0.871E-03
CGA:  60    -0.174431506833E+04   -0.13493E-03   -0.15849E-03   700   0.101E-01 0.603E-03
CGA:  61    -0.174431520392E+04   -0.13559E-03   -0.21101E-03   700   0.311E-02 0.265E-02
CGA:  62    -0.174431523968E+04   -0.35765E-04   -0.90631E-04   700   0.229E-02 0.990E-03
CGA:  63    -0.174431532590E+04   -0.86218E-04   -0.11360E-03   700   0.293E-02 0.636E-03
CGA:  64    -0.174431551415E+04   -0.18825E-03   -0.18966E-03   700   0.553E-02-0.104E-03
CGA:  65    -0.174431571925E+04   -0.20510E-03   -0.21063E-03   700   0.615E-02 0.276E-03
CGA:  66    -0.174431580761E+04   -0.88362E-04   -0.10999E-03   700   0.266E-02 0.126E-02
CGA:  67    -0.174431584577E+04   -0.38160E-04   -0.59694E-04   700   0.188E-02 0.525E-03
CGA:  68    -0.174431591666E+04   -0.70893E-04   -0.73060E-04   700   0.282E-02 0.861E-04
CGA:  69    -0.174431604654E+04   -0.12988E-03   -0.10431E-03   700   0.357E-02-0.893E-03
CGA:  70    -0.174431614242E+04   -0.95882E-04   -0.58149E-04   700   0.343E-02-0.105E-02
CGA:  71    -0.174431620757E+04   -0.65151E-04   -0.46320E-04   700   0.257E-02-0.466E-03
CGA:  72    -0.174431623849E+04   -0.30913E-04   -0.34844E-04   700   0.165E-02 0.111E-03
CGA:  73    -0.174431625558E+04   -0.17087E-04   -0.27785E-04   700   0.130E-02 0.276E-03
CGA:  74    -0.174431628004E+04   -0.24469E-04   -0.31645E-04   700   0.140E-02 0.219E-03
CGA:  75    -0.174431632295E+04   -0.42909E-04   -0.41186E-04   700   0.151E-02-0.373E-04
CGA:  76    -0.174431636052E+04   -0.37567E-04   -0.31010E-04   700   0.134E-02-0.194E-03
CGA:  77    -0.174431638083E+04   -0.20308E-04   -0.19338E-04   700   0.107E-02-0.358E-04
CGA:  78    -0.174431639019E+04   -0.93644E-05   -0.14952E-04   700   0.809E-03 0.148E-03
CGA:  79    -0.174431639565E+04   -0.54548E-05   -0.13306E-04   700   0.672E-03 0.229E-03
CGA:  80    -0.174431640463E+04   -0.89829E-05   -0.15021E-04   700   0.668E-03 0.205E-03
CGA:  81    -0.174431642465E+04   -0.20019E-04   -0.20578E-04   700   0.746E-03 0.247E-04
CGA:  82    -0.174431644962E+04   -0.24966E-04   -0.19651E-04   700   0.779E-03-0.284E-03
CGA:  83    -0.174431646223E+04   -0.12612E-04   -0.72229E-05   700   0.670E-03-0.192E-03
CGA:  84    -0.174431647079E+04   -0.85595E-05   -0.65642E-05   700   0.502E-03-0.707E-04
   1 F= -.17443165E+04 E0= -.17442914E+04  d E =-.174432E+04  mag=    46.0000
       N       E                     dE             d eps       ncg     rms          ort
SDA:   1    -0.174425686176E+04    0.59600E-01    0.00000E+00   700   0.384E+00 0.000E+00
CGA:   2    -0.174427191083E+04   -0.15049E-01   -0.15048E-01   700   0.252E+00-0.163E-01
CGA:   3    -0.174429361170E+04   -0.21701E-01   -0.20817E-01   700   0.170E+00 0.188E-01
CGA:   4    -0.174430211513E+04   -0.85034E-02   -0.84982E-02   700   0.102E+00 0.103E-02
CGA:   5    -0.174430920400E+04   -0.70889E-02   -0.72092E-02   700   0.783E-01-0.430E-02
CGA:   6    -0.174431320607E+04   -0.40021E-02   -0.39649E-02   700   0.230E-01 0.380E-02
CGA:   7    -0.174431440658E+04   -0.12005E-02   -0.12250E-02   700   0.161E-01-0.361E-02
CGA:   8    -0.174431556968E+04   -0.11631E-02   -0.11208E-02   700   0.403E-02 0.108E-02
CGA:   9    -0.174431580561E+04   -0.23593E-03   -0.23583E-03   700   0.155E-02 0.304E-04
CGA:  10    -0.174431596652E+04   -0.16091E-03   -0.14222E-03   700   0.111E-02 0.418E-03
CGA:  11    -0.174431602022E+04   -0.53699E-04   -0.58518E-04   700   0.272E-03 0.668E-03
CGA:  12    -0.174431602247E+04   -0.22441E-05   -0.71907E-05   700   0.207E-03 0.226E-03
CGA:  13    -0.174431603400E+04   -0.11529E-04   -0.10725E-04   700   0.165E-03 0.180E-03
CGA:  14    -0.174431604009E+04   -0.60937E-05   -0.69135E-05   700   0.143E-03 0.151E-03
   2 F= -.17443160E+04 E0= -.17442908E+04  d E =0.430698E-03  mag=    46.0000
       N       E                     dE             d eps       ncg     rms          ort
SDA:   1    -0.174429223232E+04    0.23802E-01    0.00000E+00   700   0.786E-01 0.000E+00
CGA:   2    -0.174430001814E+04   -0.77858E-02   -0.75377E-02   700   0.165E+00 0.503E-02
CGA:   3    -0.174430965907E+04   -0.96409E-02   -0.96811E-02   700   0.515E-01-0.738E-02
CGA:   4    -0.174431267185E+04   -0.30128E-02   -0.30160E-02   700   0.357E-01-0.551E-03
CGA:   5    -0.174431480468E+04   -0.21328E-02   -0.21124E-02   700   0.213E-01 0.240E-02
CGA:   6    -0.174431584977E+04   -0.10451E-02   -0.10491E-02   700   0.511E-02 0.674E-03
CGA:   7    -0.174431613728E+04   -0.28751E-03   -0.28579E-03   700   0.346E-02 0.596E-03
CGA:   8    -0.174431639473E+04   -0.25744E-03   -0.25475E-03   700   0.199E-02 0.177E-03
CGA:   9    -0.174431649442E+04   -0.99696E-04   -0.10010E-03   700   0.841E-03 0.879E-04
CGA:  10    -0.174431654136E+04   -0.46940E-04   -0.46776E-04   700   0.420E-03 0.127E-03
CGA:  11    -0.174431659757E+04   -0.56208E-04    0.10888E-03   700   0.165E-03 0.200E-03
CGA:  12    -0.174431662472E+04   -0.27148E-04   -0.32511E-04   700   0.510E-03-0.661E-04
CGA:  13    -0.174431663660E+04   -0.11879E-04   -0.22539E-04   700   0.563E-03-0.610E-03
CGA:  14    -0.174431665082E+04   -0.14226E-04   -0.18449E-04   700   0.190E-03 0.174E-03
CGA:  15    -0.174431665631E+04   -0.54887E-05   -0.83116E-05   700   0.105E-03 0.126E-03
   3 F= -.17443167E+04 E0= -.17442915E+04  d E =-.185525E-03  mag=    46.0000
       N       E                     dE             d eps       ncg     rms          ort
SDA:   1    -0.174427968918E+04    0.36962E-01    0.00000E+00   700   0.971E-01 0.000E+00
CGA:   2    -0.174430049421E+04   -0.20805E-01   -0.19984E-01   700   0.198E+00 0.523E-02
CGA:   3    -0.174430996469E+04   -0.94705E-02   -0.94541E-02   700   0.528E-01-0.468E-02
CGA:   4    -0.174431230763E+04   -0.23429E-02   -0.23761E-02   700   0.342E-01 0.263E-02
CGA:   5    -0.174431495892E+04   -0.26513E-02   -0.26434E-02   700   0.249E-01 0.475E-03
CGA:   6    -0.174431628056E+04   -0.13216E-02   -0.12973E-02   700   0.784E-02-0.270E-02
CGA:   7    -0.174431649440E+04   -0.21384E-03   -0.24245E-03   700   0.273E-02 0.110E-02
CGA:   8    -0.174431676175E+04   -0.26735E-03   -0.26146E-03   700   0.273E-02 0.236E-03
CGA:   9    -0.174431696759E+04   -0.20585E-03   -0.22081E-03   700   0.274E-02-0.108E-02
CGA:  10    -0.174431700117E+04   -0.33577E-04   -0.39057E-04   700   0.968E-03 0.143E-03
CGA:  11    -0.174431700986E+04   -0.86911E-05   -0.18211E-04   700   0.422E-03 0.231E-03
CGA:  12    -0.174431701846E+04   -0.85947E-05   -0.14163E-04   700   0.455E-03 0.184E-03
CGA:  13    -0.174431704603E+04   -0.27570E-04   -0.29238E-04   700   0.586E-03 0.152E-03
CGA:  14    -0.174431707072E+04   -0.24690E-04   -0.26089E-04   700   0.277E-03 0.634E-04
CGA:  15    -0.174431707644E+04   -0.57207E-05   -0.70549E-05   700   0.110E-03 0.430E-04
   4 F= -.17443171E+04 E0= -.17442919E+04  d E =-.420126E-03  mag=    46.0000
       N       E                     dE             d eps       ncg     rms          ort
SDA:   1    -0.174431496345E+04    0.21073E-02    0.00000E+00   700   0.787E-01 0.000E+00
CGA:   2    -0.174431663629E+04   -0.16728E-02   -0.17177E-02   700   0.315E-02 0.225E-02
CGA:   3    -0.174431678461E+04   -0.14832E-03   -0.14212E-03   700   0.217E-02-0.105E-02
CGA:   4    -0.174431685899E+04   -0.74386E-04   -0.29006E-03   700   0.926E-02-0.143E-02
CGA:   5    -0.174431700953E+04   -0.15054E-03   -0.19462E-03   700   0.884E-03 0.127E-02
CGA:   6    -0.174431702493E+04   -0.15399E-04   -0.25870E-04   700   0.281E-03 0.358E-03
CGA:   7    -0.174431704132E+04   -0.16387E-04   -0.16539E-04   700   0.247E-03 0.137E-04
CGA:   8    -0.174431705940E+04   -0.18086E-04   -0.20390E-04   700   0.288E-03-0.905E-04
CGA:   9    -0.174431706155E+04   -0.21445E-05   -0.32654E-05   700   0.162E-03 0.305E-04
   5 F= -.17443171E+04 E0= -.17442919E+04  d E =-.405233E-03  mag=    46.0000
       N       E                     dE             d eps       ncg     rms          ort
SDA:   1    -0.174431640999E+04    0.64941E-03    0.00000E+00   700   0.267E-01 0.000E+00
CGA:   2    -0.174431685330E+04   -0.44331E-03   -0.53882E-03   700   0.147E-02 0.315E-02
CGA:   3    -0.174431689820E+04   -0.44896E-04   -0.53878E-04   700   0.895E-03 0.537E-03
CGA:   4    -0.174431698712E+04   -0.88918E-04   -0.10111E-03   700   0.159E-02-0.347E-03
CGA:   5    -0.174431700338E+04   -0.16267E-04   -0.22465E-04   700   0.149E-02 0.245E-03
CGA:   6    -0.174431702361E+04   -0.20227E-04   -0.34343E-04   700   0.647E-03 0.495E-03
CGA:   7    -0.174431703847E+04   -0.14859E-04   -0.20121E-04   700   0.383E-03 0.218E-03
CGA:   8    -0.174431706482E+04   -0.26351E-04   -0.28494E-04   700   0.559E-03-0.228E-03
CGA:   9    -0.174431708598E+04   -0.21165E-04   -0.21523E-04   700   0.570E-04 0.441E-04
CGA:  10    -0.174431709233E+04   -0.63409E-05    0.12812E-04   700   0.360E-04 0.120E-04
   6 F= -.17443171E+04 E0= -.17442919E+04  d E =-.436013E-03  mag=    46.0000
       N       E                     dE             d eps       ncg     rms          ort
SDA:   1    -0.174430517350E+04    0.11912E-01    0.00000E+00   700   0.496E-01 0.000E+00
CGA:   2    -0.174430798694E+04   -0.28134E-02   -0.28230E-02   700   0.547E-01-0.118E-02
CGA:   3    -0.174431369338E+04   -0.57064E-02   -0.55286E-02   700   0.370E-01 0.304E-02
CGA:   4    -0.174431602708E+04   -0.23337E-02   -0.23606E-02   700   0.131E-01-0.257E-02
CGA:   5    -0.174431642302E+04   -0.39595E-03   -0.42039E-03   700   0.591E-02 0.166E-02
CGA:   6    -0.174431697636E+04   -0.55333E-03   -0.53608E-03   700   0.412E-02 0.542E-03
CGA:   7    -0.174431724485E+04   -0.26849E-03   -0.32221E-03   700   0.664E-02-0.254E-02
CGA:   8    -0.174431733196E+04   -0.87109E-04   -0.12968E-03   700   0.587E-03 0.136E-02
CGA:   9    -0.174431734017E+04   -0.82146E-05   -0.15966E-04   700   0.321E-03 0.285E-03
CGA:  10    -0.174431737233E+04   -0.32163E-04   -0.32183E-04   700   0.615E-03-0.820E-06
CGA:  11    -0.174431740462E+04   -0.32282E-04   -0.39750E-04   700   0.984E-03-0.485E-03
CGA:  12    -0.174431742261E+04   -0.17990E-04   -0.25908E-04   700   0.204E-03 0.334E-03
CGA:  13    -0.174431743453E+04   -0.11929E-04   -0.11954E-04   700   0.101E-03 0.605E-05
CGA:  14    -0.174431744659E+04   -0.12052E-04    0.13223E-04   700   0.933E-04 0.445E-04
CGA:  15    -0.174431745290E+04   -0.63160E-05   -0.63626E-05   700   0.252E-04 0.349E-04
   7 F= -.17443175E+04 E0= -.17442923E+04  d E =-.360577E-03  mag=    46.0000
       N       E                     dE             d eps       ncg     rms          ort
SDA:   1    -0.174431735413E+04    0.92455E-04    0.00000E+00   700   0.321E-02 0.000E+00
CGA:   2    -0.174431739593E+04   -0.41803E-04   -0.63931E-04   700   0.424E-03 0.800E-03
CGA:   3    -0.174431740865E+04   -0.12714E-04   -0.14894E-04   700   0.202E-03 0.120E-03
CGA:   4    -0.174431743728E+04   -0.28634E-04    0.26951E-04   700   0.187E-03 0.384E-05
CGA:   5    -0.174431745688E+04   -0.19594E-04    0.33617E-04   700   0.221E-03 0.730E-04
CGA:   6    -0.174431746166E+04   -0.47865E-05   -0.77425E-05   700   0.836E-04 0.146E-03
   8 F= -.17443175E+04 E0= -.17442923E+04  d E =-.369337E-03  mag=    46.0000
       N       E                     dE             d eps       ncg     rms          ort
SDA:   1    -0.174431717098E+04    0.28590E-03    0.00000E+00   700   0.479E-02 0.000E+00
CGA:   2    -0.174431739360E+04   -0.22262E-03   -0.22904E-03   700   0.160E-02-0.136E-02
CGA:   3    -0.174431741583E+04   -0.22223E-04   -0.27761E-04   700   0.380E-03 0.292E-03
CGA:   4    -0.174431742201E+04   -0.61871E-05   -0.91229E-05   700   0.142E-03 0.133E-03
CGA:   5    -0.174431743138E+04   -0.93719E-05   -0.10506E-04   700   0.173E-03-0.819E-04
CGA:   6    -0.174431743607E+04   -0.46902E-05   -0.14132E-04   700   0.539E-03-0.237E-03
CGA:   7    -0.174431744642E+04   -0.10340E-04   -0.11955E-04   700   0.314E-04 0.729E-04
CGA:   8    -0.174431744739E+04   -0.97598E-06   -0.11101E-05   700   0.166E-04 0.114E-04
   9 F= -.17443174E+04 E0= -.17442923E+04  d E =-.355066E-03  mag=    46.0000
       N       E                     dE             d eps       ncg     rms          ort
SDA:   1    -0.174431722738E+04    0.21903E-03    0.00000E+00   700   0.723E-02 0.000E+00
CGA:   2    -0.174431744799E+04   -0.22061E-03   -0.22565E-03   700   0.659E-03 0.422E-03
CGA:   3    -0.174431746319E+04   -0.15198E-04   -0.17544E-04   700   0.819E-04 0.141E-03
CGA:   4    -0.174431746569E+04   -0.25003E-05   -0.29298E-05   700   0.404E-04 0.378E-04
CGA:   5    -0.174431746773E+04   -0.20374E-05   -0.21436E-05   700   0.267E-04 0.266E-04
CGA:   6    -0.174431746857E+04   -0.84408E-06   -0.90657E-06   700   0.136E-04 0.102E-04
  10 F= -.17443175E+04 E0= -.17442923E+04  d E =-.376249E-03  mag=    46.0000
       N       E                     dE             d eps       ncg     rms          ort
SDA:   1    -0.174431509622E+04    0.23715E-02    0.00000E+00   700   0.155E-01 0.000E+00
CGA:   2    -0.174431579141E+04   -0.69518E-03   -0.69383E-03   700   0.805E-02 0.303E-03
CGA:   3    -0.174431673728E+04   -0.94588E-03   -0.98203E-03   700   0.110E-01-0.466E-03
CGA:   4    -0.174431727357E+04   -0.53629E-03   -0.54021E-03   700   0.391E-02-0.546E-03
CGA:   5    -0.174431739729E+04   -0.12372E-03   -0.13040E-03   700   0.155E-02 0.680E-03
CGA:   6    -0.174431753362E+04   -0.13633E-03   -0.12835E-03   700   0.150E-02 0.303E-03
CGA:   7    -0.174431764423E+04   -0.11061E-03   -0.12696E-03   700   0.815E-03-0.662E-03
CGA:   8    -0.174431764647E+04   -0.22394E-05   -0.77394E-05   700   0.416E-03 0.182E-03
  11 F= -.17443176E+04 E0= -.17442925E+04  d E =-.177893E-03  mag=    46.0000
       N       E                     dE             d eps       ncg     rms          ort
SDA:   1    -0.174395209418E+04    0.36555E+00    0.00000E+00   700   0.145E+02 0.000E+00
CGA:   2    -0.174430566127E+04   -0.35357E+00   -0.34547E+00   700   0.253E+00-0.351E+00
CGA:   3    -0.174431386134E+04   -0.82001E-02   -0.80744E-02   700   0.608E-01 0.183E-02
CGA:   4    -0.174431593000E+04   -0.20687E-02   -0.20688E-02   700   0.794E-02 0.290E-03
CGA:   5    -0.174431642761E+04   -0.49760E-03   -0.15488E-02   700   0.444E-01-0.688E-02
CGA:   6    -0.174431727406E+04   -0.84646E-03   -0.94882E-03   700   0.310E-02 0.340E-02
CGA:   7    -0.174431738279E+04   -0.10873E-03   -0.11687E-03   700   0.113E-02 0.622E-03
CGA:   8    -0.174431735781E+04    0.24987E-04   -0.23595E-03   700   0.107E-01-0.207E-02
CGA:   9    -0.174431754834E+04   -0.19053E-03   -0.23782E-03   700   0.115E-02 0.153E-02
CGA:  10    -0.174431759745E+04   -0.49105E-04   -0.49907E-04   700   0.300E-03 0.632E-04
CGA:  11    -0.174431764158E+04   -0.44130E-04    0.23228E-04   700   0.366E-03-0.508E-04
CGA:  12    -0.174431766491E+04   -0.23330E-04   -0.37411E-04   700   0.546E-03-0.196E-03
CGA:  13    -0.174431767313E+04   -0.82257E-05   -0.13353E-04   700   0.132E-03 0.166E-03
  12 F= -.17443177E+04 E0= -.17442925E+04  d E =-.204558E-03  mag=    46.0000
