 vasp.6.1.2 22Jul20 (build Feb 09 2022 12:23:39) complex                        
  
 executed on             LinuxIFC date 2022.02.24  07:33:26
 running on  240 total cores
 distrk:  each k-point on  240 cores,    1 groups
 distr:  one band on NCORE=  24 cores,   10 groups


--------------------------------------------------------------------------------------------------------


 INCAR:
 POTCAR:    PAW_PBE Ca_sv 06Sep2000               
 POTCAR:    PAW_PBE V_pv 07Sep2000                
 POTCAR:    PAW_PBE P 06Sep2000                   
 POTCAR:    PAW_PBE O 08Apr2002                   
 POTCAR:    PAW_PBE Ca_sv 06Sep2000               
   SHA256 =  a47365830e737f14e0e6c5cf1ed81b94e081eecf0a33df105380881bc9da05d5 Ca_sv/POTCAR          
   COPYR  = (c) Copyright 06Sep2000 Georg Kresse                                                    
   COPYR  = This file is part of the software VASP. Any use, copying, and all other rights are regul
   COPYR  = If you do not have a valid VASP license, you may not use, copy or distribute this file. 
   VRHFIN =Ca: 3s3p4s                                                                               
   LEXCH  = PE                                                                                      
   EATOM  =  1006.0909 eV,   73.9456 Ry                                                             
                                                                                                    
   TITEL  = PAW_PBE Ca_sv 06Sep2000                                                                 
   LULTRA =        F    use ultrasoft PP ?                                                          
   IUNSCR =        1    unscreen: 0-lin 1-nonlin 2-no                                               
   RPACOR =    2.000    partial core radius                                                         
   POMASS =   40.078; ZVAL   =   10.000    mass and valenz                                          
   RCORE  =    2.300    outmost cutoff radius                                                       
   RWIGS  =    2.500; RWIGS  =    1.323    wigner-seitz radius (au A)                               
   ENMAX  =  266.622; ENMIN  =  199.967 eV                                                          
   RCLOC  =    1.808    cutoff for local pot                                                        
   LCOR   =        T    correct aug charges                                                         
   LPAW   =        T    paw PP                                                                      
   EAUG   =  420.852                                                                                
   RMAX   =    2.359    core radius for proj-oper                                                   
   RAUG   =    1.300    factor for augmentation sphere                                              
   RDEP   =    2.392    radius for radial grids                                                     
   RDEPT  =    1.987    core radius for aug-charge                                                  
                                                                                                    
   Atomic configuration                                                                             
    7 entries                                                                                       
     n  l   j            E        occ.                                                              
     1  0  0.50     -3949.1705   2.0000                                                             
     2  0  0.50      -414.3434   2.0000                                                             
     2  1  1.50      -334.7047   6.0000                                                             
     3  0  0.50       -47.0896   2.0000                                                             
     4  0  0.50        -3.7663   2.0000                                                             
     3  1  1.50       -28.0061   6.0000                                                             
     3  2  1.50        -4.0817   0.0000                                                             
   Description                                                                                      
     l       E           TYP  RCUT    TYP  RCUT                                                     
     0    -47.0896403     23  2.300                                                                 
     0     -3.7663320     23  2.300                                                                 
     1    -28.0060855     23  2.300                                                                 
     1      6.8029130     23  2.300                                                                 
     2     -4.0817478     23  2.300                                                                 
     2      0.4464412     23  2.300                                                                 
  local pseudopotential read in
  partial core-charges read in
  partial kinetic energy density read in
  atomic valenz-charges read in
  non local Contribution for L=           0  read in
    real space projection operators read in
  non local Contribution for L=           0  read in
    real space projection operators read in
  non local Contribution for L=           1  read in
    real space projection operators read in
  non local Contribution for L=           1  read in
    real space projection operators read in
  non local Contribution for L=           2  read in
    real space projection operators read in
  non local Contribution for L=           2  read in
    real space projection operators read in
    PAW grid and wavefunctions read in
 
   number of l-projection  operators is LMAX  =           6
   number of lm-projection operators is LMMAX =          18
 
 POTCAR:    PAW_PBE V_pv 07Sep2000                
   SHA256 =  1175d3c8cb4ffd1d150a520fa74fae5c3ec72c0849b5615a94a5372dd2cf07f7 V_pv/POTCAR           
   COPYR  = (c) Copyright 07Sep2000 Georg Kresse                                                    
   COPYR  = This file is part of the software VASP. Any use, copying, and all other rights are regul
   COPYR  = If you do not have a valid VASP license, you may not use, copy or distribute this file. 
   VRHFIN =V: p6 d4 s1                                                                              
   LEXCH  = PE                                                                                      
   EATOM  =  1321.6206 eV,   97.1364 Ry                                                             
                                                                                                    
   TITEL  = PAW_PBE V_pv 07Sep2000                                                                  
   LULTRA =        F    use ultrasoft PP ?                                                          
   IUNSCR =        1    unscreen: 0-lin 1-nonlin 2-no                                               
   RPACOR =    1.700    partial core radius                                                         
   POMASS =   50.941; ZVAL   =   11.000    mass and valenz                                          
   RCORE  =    2.300    outmost cutoff radius                                                       
   RWIGS  =    2.300; RWIGS  =    1.217    wigner-seitz radius (au A)                               
   ENMAX  =  263.673; ENMIN  =  197.755 eV                                                          
   RCLOC  =    1.779    cutoff for local pot                                                        
   LCOR   =        T    correct aug charges                                                         
   LPAW   =        T    paw PP                                                                      
   EAUG   =  598.473                                                                                
   DEXC   =    0.000                                                                                
   RMAX   =    2.359    core radius for proj-oper                                                   
   RAUG   =    1.300    factor for augmentation sphere                                              
   RDEP   =    2.430    radius for radial grids                                                     
   RDEPT  =    1.700    core radius for aug-charge                                                  
                                                                                                    
   Atomic configuration                                                                             
    8 entries                                                                                       
     n  l   j            E        occ.                                                              
     1  0  0.50     -5360.7193   2.0000                                                             
     2  0  0.50      -598.4546   2.0000                                                             
     2  1  1.50      -499.0155   6.0000                                                             
     3  0  0.50       -66.5711   2.0000                                                             
     3  1  1.50       -40.5282   6.0000                                                             
     3  2  2.50        -2.4291   4.0000                                                             
     4  0  0.50        -3.8743   1.0000                                                             
     4  3  2.50        -1.3606   0.0000                                                             
   Description                                                                                      
     l       E           TYP  RCUT    TYP  RCUT                                                     
     1    -40.5282431     23  2.000                                                                 
     1      5.4423304     23  2.000                                                                 
     2     -2.4290905     23  2.300                                                                 
     2     -1.0472488     23  2.300                                                                 
     0     -3.8742754     23  2.300                                                                 
     0     27.2116520     23  2.300                                                                 
  local pseudopotential read in
  partial core-charges read in
  partial kinetic energy density read in
  atomic valenz-charges read in
  non local Contribution for L=           1  read in
    real space projection operators read in
  non local Contribution for L=           1  read in
    real space projection operators read in
  non local Contribution for L=           2  read in
    real space projection operators read in
  non local Contribution for L=           2  read in
    real space projection operators read in
  non local Contribution for L=           0  read in
    real space projection operators read in
  non local Contribution for L=           0  read in
    real space projection operators read in
    PAW grid and wavefunctions read in
 
   number of l-projection  operators is LMAX  =           6
   number of lm-projection operators is LMMAX =          18
 
 POTCAR:    PAW_PBE P 06Sep2000                   
   SHA256 =  df60c54a93efe35c9e85ae94c010c75e9f6960a95d5595d7cdba4096d109af88 P/POTCAR              
   COPYR  = (c) Copyright 06Sep2000 Georg Kresse                                                    
   COPYR  = This file is part of the software VASP. Any use, copying, and all other rights are regul
   COPYR  = If you do not have a valid VASP license, you may not use, copy or distribute this file. 
   VRHFIN =P : s2p3                                                                                 
   LEXCH  = PE                                                                                      
   EATOM  =   176.0430 eV,   12.9388 Ry                                                             
                                                                                                    
   TITEL  = PAW_PBE P 06Sep2000                                                                     
   LULTRA =        F    use ultrasoft PP ?                                                          
   IUNSCR =        1    unscreen: 0-lin 1-nonlin 2-no                                               
   RPACOR =    1.500    partial core radius                                                         
   POMASS =   30.974; ZVAL   =    5.000    mass and valenz                                          
   RCORE  =    1.900    outmost cutoff radius                                                       
   RWIGS  =    2.330; RWIGS  =    1.233    wigner-seitz radius (au A)                               
   ENMAX  =  255.040; ENMIN  =  191.280 eV                                                          
   ICORE  =        2    local potential                                                             
   LCOR   =        T    correct aug charges                                                         
   LPAW   =        T    paw PP                                                                      
   EAUG   =  342.924                                                                                
   DEXC   =    0.000                                                                                
   RMAX   =    1.935    core radius for proj-oper                                                   
   RAUG   =    1.300    factor for augmentation sphere                                              
   RDEP   =    1.931    radius for radial grids                                                     
   RDEPT  =    1.794    core radius for aug-charge                                                  
                                                                                                    
   Atomic configuration                                                                             
    6 entries                                                                                       
     n  l   j            E        occ.                                                              
     1  0  0.50     -2084.0982   2.0000                                                             
     2  0  0.50      -173.9859   2.0000                                                             
     2  1  1.50      -124.4865   6.0000                                                             
     3  0  0.50       -13.9692   2.0000                                                             
     3  1  0.50        -5.5067   3.0000                                                             
     3  2  1.50        -5.4423   0.0000                                                             
   Description                                                                                      
     l       E           TYP  RCUT    TYP  RCUT                                                     
     0    -13.9691527     23  1.900                                                                 
     0    -11.7794650     23  1.900                                                                 
     1     -5.5066937     23  1.900                                                                 
     1     -0.2556953     23  1.900                                                                 
     2     -5.4423304     23  1.900                                                                 
  local pseudopotential read in
  partial core-charges read in
  partial kinetic energy density read in
  atomic valenz-charges read in
  non local Contribution for L=           0  read in
    real space projection operators read in
  non local Contribution for L=           0  read in
    real space projection operators read in
  non local Contribution for L=           1  read in
    real space projection operators read in
  non local Contribution for L=           1  read in
    real space projection operators read in
    PAW grid and wavefunctions read in
 
   number of l-projection  operators is LMAX  =           4
   number of lm-projection operators is LMMAX =           8
 
 POTCAR:    PAW_PBE O 08Apr2002                   
   SHA256 =  818f92134a0a090dccd8ba1447fa70422a3b330e708bb4f08108d8ae51209ddf O/POTCAR              
   COPYR  = (c) Copyright 08Apr2002 Georg Kresse                                                    
   COPYR  = This file is part of the software VASP. Any use, copying, and all other rights are regul
   COPYR  = If you do not have a valid VASP license, you may not use, copy or distribute this file. 
   VRHFIN =O: s2p4                                                                                  
   LEXCH  = PE                                                                                      
   EATOM  =   432.3788 eV,   31.7789 Ry                                                             
                                                                                                    
   TITEL  = PAW_PBE O 08Apr2002                                                                     
   LULTRA =        F    use ultrasoft PP ?                                                          
   IUNSCR =        1    unscreen: 0-lin 1-nonlin 2-no                                               
   RPACOR =    1.200    partial core radius                                                         
   POMASS =   16.000; ZVAL   =    6.000    mass and valenz                                          
   RCORE  =    1.520    outmost cutoff radius                                                       
   RWIGS  =    1.550; RWIGS  =    0.820    wigner-seitz radius (au A)                               
   ENMAX  =  400.000; ENMIN  =  300.000 eV                                                          
   ICORE  =        2    local potential                                                             
   LCOR   =        T    correct aug charges                                                         
   LPAW   =        T    paw PP                                                                      
   EAUG   =  605.392                                                                                
   DEXC   =    0.000                                                                                
   RMAX   =    1.553    core radius for proj-oper                                                   
   RAUG   =    1.300    factor for augmentation sphere                                              
   RDEP   =    1.550    radius for radial grids                                                     
   RDEPT  =    1.329    core radius for aug-charge                                                  
                                                                                                    
   Atomic configuration                                                                             
    4 entries                                                                                       
     n  l   j            E        occ.                                                              
     1  0  0.50      -514.6923   2.0000                                                             
     2  0  0.50       -23.9615   2.0000                                                             
     2  1  0.50        -9.0305   4.0000                                                             
     3  2  1.50        -9.5241   0.0000                                                             
   Description                                                                                      
     l       E           TYP  RCUT    TYP  RCUT                                                     
     0    -23.9615318     23  1.200                                                                 
     0     -9.5240782     23  1.200                                                                 
     1     -9.0304911     23  1.520                                                                 
     1      8.1634956     23  1.520                                                                 
     2     -9.5240782      7  1.500                                                                 
  local pseudopotential read in
  partial core-charges read in
  partial kinetic energy density read in
  kinetic energy density of atom read in
  atomic valenz-charges read in
  non local Contribution for L=           0  read in
    real space projection operators read in
  non local Contribution for L=           0  read in
    real space projection operators read in
  non local Contribution for L=           1  read in
    real space projection operators read in
  non local Contribution for L=           1  read in
    real space projection operators read in
    PAW grid and wavefunctions read in
 
   number of l-projection  operators is LMAX  =           4
   number of lm-projection operators is LMMAX =           8
 
 Optimization of the real space projectors (new method)

 maximal supplied QI-value         = 16.25
 optimisation between [QCUT,QGAM] = [ 11.54, 23.24] = [ 37.28,151.24] Ry 
 Optimized for a Real-space Cutoff    1.58 Angstroem

   l    n(q)    QCUT    max X(q) W(low)/X(q) W(high)/X(q)  e(spline) 
   0     11    11.539    11.817    0.25E-04    0.22E-05    0.26E-07
   0     11    11.539     8.461    0.39E-04    0.49E-05    0.55E-07
   1     11    11.539     3.957    0.21E-05    0.44E-05    0.32E-07
   1     11    11.539     4.314    0.56E-04    0.44E-04    0.19E-06
   2     10    11.539    14.565    0.25E-03    0.21E-04    0.75E-06
   2     10    11.539    14.552    0.23E-03    0.22E-04    0.72E-06
 Optimization of the real space projectors (new method)

 maximal supplied QI-value         = 16.25
 optimisation between [QCUT,QGAM] = [ 11.54, 23.24] = [ 37.28,151.24] Ry 
 Optimized for a Real-space Cutoff    1.53 Angstroem

   l    n(q)    QCUT    max X(q) W(low)/X(q) W(high)/X(q)  e(spline) 
   1     10    11.539     3.206    0.43E-05    0.46E-05    0.52E-07
   1     10    11.539     4.597    0.39E-04    0.25E-04    0.17E-06
   2     10    11.539    89.000    0.10E-03    0.13E-03    0.24E-06
   2     10    11.539    82.410    0.10E-03    0.13E-03    0.23E-06
   0     11    11.539    36.565    0.42E-04    0.19E-04    0.30E-06
   0     11    11.539    13.729    0.20E-04    0.13E-04    0.22E-06
 Optimization of the real space projectors (new method)

 maximal supplied QI-value         = 19.84
 optimisation between [QCUT,QGAM] = [ 11.51, 23.22] = [ 37.09,150.92] Ry 
 Optimized for a Real-space Cutoff    1.21 Angstroem

   l    n(q)    QCUT    max X(q) W(low)/X(q) W(high)/X(q)  e(spline) 
   0      8    11.508   160.924    0.96E-04    0.17E-03    0.52E-07
   0      8    11.508   130.086    0.95E-04    0.17E-03    0.51E-07
   1      8    11.508    74.434    0.16E-03    0.74E-04    0.91E-07
   1      8    11.508    49.120    0.16E-03    0.71E-04    0.89E-07
 Optimization of the real space projectors (new method)

 maximal supplied QI-value         = 24.76
 optimisation between [QCUT,QGAM] = [ 11.64, 23.27] = [ 37.91,151.63] Ry 
 Optimized for a Real-space Cutoff    1.14 Angstroem

   l    n(q)    QCUT    max X(q) W(low)/X(q) W(high)/X(q)  e(spline) 
   0      8    11.635    20.381    0.10E-03    0.33E-03    0.24E-06
   0      8    11.635    15.268    0.11E-03    0.35E-03    0.26E-06
   1      7    11.635     5.964    0.24E-03    0.31E-03    0.30E-06
   1      7    11.635     5.382    0.22E-03    0.25E-03    0.26E-06
  PAW_PBE Ca_sv 06Sep2000               :
 energy of atom  1       EATOM=-1006.0909
 kinetic energy error for atom=    0.0022 (will be added to EATOM!!)
  PAW_PBE V_pv 07Sep2000                :
 energy of atom  2       EATOM=-1321.6206
 kinetic energy error for atom=    0.0054 (will be added to EATOM!!)
  PAW_PBE P 06Sep2000                   :
 energy of atom  3       EATOM= -176.0430
 kinetic energy error for atom=    0.0011 (will be added to EATOM!!)
  PAW_PBE O 08Apr2002                   :
 energy of atom  4       EATOM= -432.3788
 kinetic energy error for atom=    0.0208 (will be added to EATOM!!)
 
 
 POSCAR: Ca20 V16 P24 O96
  positions in direct lattice
  velocities in cartesian coordinates

 METAGGA = SCAN     LMAXTAU =  6    LMIXTAU =  F

 exchange correlation table for  LEXCH =        8
   RHO(1)=    0.500       N(1)  =     2000
   RHO(2)=  100.500       N(2)  =     4000
 


--------------------------------------------------------------------------------------------------------


 ion  position               nearest neighbor table
   1  0.563  0.735  0.419-  68 2.36  60 2.39 136 2.42 120 2.46 100 2.51  85 2.52  52 2.91  45 2.94
                            36 3.07
   2  0.504  0.982  0.017-  77 2.23  89 2.33 105 2.34  61 2.35  69 2.41  97 2.54
   3  0.004  0.977  0.517-  78 2.24  90 2.33 106 2.36  62 2.37  70 2.42  98 2.56
   4  0.002  0.480  0.019-  79 2.24  91 2.33 107 2.34  63 2.35  71 2.42
   5  0.483  0.019  0.490-  94 2.24  85 2.35  81 2.37  72 2.38 100 2.42  66 2.52
   6  0.475  0.514  0.998-  95 2.26  73 2.35  80 2.36 101 2.39  84 2.40
   7  0.984  0.518  0.488-  92 2.25  87 2.32  83 2.35  74 2.35 102 2.48
   8  0.978  0.015  0.994-  93 2.24  75 2.34  82 2.35  86 2.36 103 2.40  65 2.56
   9  0.574  0.429  0.264- 124 2.30  88 2.35  96 2.42  80 2.55  56 2.90  51 3.04
  10  0.572  0.917  0.741- 125 2.34 133 2.36  89 2.47  81 2.52  66 2.54  97 2.57  50 2.87  57 2.89

  11  0.076  0.913  0.244- 126 2.33 134 2.44  90 2.52  82 2.56  65 2.57  58 2.82  49 2.86
  12  0.068  0.415  0.737- 127 2.35 135 2.41  91 2.43  64 2.50  83 2.54  99 2.55  48 2.86  59 2.95

  13  0.283  0.571  0.448- 104 2.35 108 2.35  96 2.41 140 2.44  64 2.49  74 2.52  40 2.99  48 3.00

  14  0.255  0.082  0.925- 141 2.35 109 2.40  75 2.47  97 2.53  65 2.55 105 2.56  59 2.87  41 2.87

  15  0.750  0.078  0.422- 142 2.32 110 2.45  72 2.49  66 2.53 129 2.54 106 2.55  56 2.86  42 2.92

  16  0.755  0.577  0.927- 143 2.31  73 2.40 111 2.43 107 2.49  99 2.53  67 2.56  43 2.90  57 2.94

  17  0.580  0.252  0.921- 121 2.40 137 2.40 101 2.47  84 2.48  61 2.50  69 2.53  44 2.86  53 2.86

  18  0.074  0.247  0.420- 122 2.38 138 2.39 102 2.46  87 2.46  70 2.49  62 2.50 148 2.54  54 2.85
                            47 2.89
  19  0.075  0.747  0.918- 123 2.37 139 2.37  63 2.47 103 2.48  86 2.49  71 2.50 117 2.55  46 2.85
                            55 2.85
  20  0.639  0.635  0.639-  76 1.97  60 2.02 128 2.05  68 2.12 112 2.13 120 2.20
  21  0.647  0.136  0.147- 113 2.09 129 2.10  77 2.12  61 2.16 121 2.17  69 2.17
  22  0.145  0.139  0.643- 130 2.07  78 2.09 122 2.11 114 2.12  62 2.14  70 2.19
  23  0.147  0.641  0.138- 115 2.05 131 2.06  79 2.11  63 2.13 123 2.13  71 2.16
  24  0.147  0.148  0.146- 116 2.08 126 2.12 109 2.13  82 2.17  65 2.18  75 2.18
  25  0.145  0.647  0.645- 117 2.07 108 2.11 127 2.11  64 2.17  83 2.21  74 2.22
  26  0.648  0.648  0.145- 118 2.05  80 2.12 111 2.12 124 2.12  67 2.17  73 2.25
  27  0.646  0.150  0.649- 119 2.04  72 2.07 125 2.11 110 2.14  81 2.20  66 2.21
  28  0.853  0.856  0.847- 153 2.07 144 2.10  93 2.11 139 2.14  86 2.14 103 2.18
  29  0.851  0.355  0.350-  92 2.06 145 2.08 152 2.10 138 2.14  87 2.17 102 2.18
  30  0.354  0.356  0.848- 146 2.07 155 2.07  95 2.10  84 2.11 137 2.13 101 2.17
  31  0.351  0.859  0.351- 154 2.06 147 2.11  94 2.12 100 2.15  85 2.16 136 2.16
  32  0.348  0.348  0.350- 148 2.04  88 2.04  96 2.12 140 2.13 104 2.14 132 2.14
  33  0.351  0.850  0.852- 149 2.09 133 2.11 141 2.12  97 2.17 105 2.17  89 2.19
  34  0.853  0.849  0.350- 150 2.00 142 2.10 134 2.13  90 2.13  98 2.15 106 2.18
  35  0.850  0.349  0.851- 151 2.06 143 2.12 135 2.14  99 2.17 107 2.19  91 2.22
  36  0.401  0.756  0.597- 108 1.52 133 1.53  68 1.54 100 1.56   1 3.07
  37  0.403  0.248  0.095- 132 1.52 109 1.53  69 1.56 101 1.56
  38  0.901  0.247  0.594- 110 1.52 135 1.52 102 1.56  70 1.56
  39  0.902  0.749  0.094- 111 1.52 134 1.52 103 1.56  71 1.56
  40  0.397  0.600  0.244- 115 1.50  80 1.54 136 1.55  96 1.56  13 2.99
  41  0.403  0.102  0.755- 114 1.50 137 1.53  81 1.54  97 1.58  14 2.87
  42  0.904  0.099  0.252- 113 1.50 138 1.53  82 1.54  98 1.58  15 2.92
  43  0.900  0.601  0.751- 112 1.50 139 1.53  83 1.55  99 1.58  16 2.90
  44  0.605  0.407  0.759-  76 1.49 119 1.52 143 1.56  84 1.57  17 2.86
  45  0.607  0.900  0.261- 118 1.51  77 1.52 142 1.54  85 1.55   1 2.94
  46  0.107  0.904  0.760- 117 1.51  78 1.52 141 1.54  86 1.55  19 2.85
  47  0.108  0.407  0.261- 116 1.52  79 1.52 140 1.53  87 1.56  18 2.89
  48  0.241  0.389  0.594- 146 1.50 104 1.51 122 1.54  64 1.59  12 2.86  13 3.00
  49  0.242  0.895  0.092- 147 1.50 123 1.53 105 1.54  65 1.58  11 2.86
  50  0.740  0.894  0.591- 144 1.50 120 1.53 106 1.54  66 1.58  10 2.87
  51  0.742  0.395  0.096- 145 1.50 121 1.53 107 1.55  67 1.57   9 3.04
  52  0.745  0.597  0.395- 150 1.51  92 1.52  60 1.53 124 1.55   1 2.91
  53  0.737  0.092  0.891- 151 1.51  93 1.52 125 1.54  61 1.55  17 2.86
  54  0.237  0.094  0.390- 148 1.52  94 1.52 126 1.54  62 1.55  18 2.85
  55  0.235  0.591  0.888- 149 1.51  95 1.51 127 1.54  63 1.56  19 2.85
  56  0.597  0.242  0.394-  88 1.51 152 1.53 129 1.54  72 1.54  15 2.86   9 2.90
  57  0.601  0.747  0.891- 153 1.51 128 1.52  89 1.55  73 1.55  10 2.89  16 2.94
  58  0.107  0.752  0.393- 131 1.51 154 1.52  74 1.54  90 1.55  11 2.82
  59  0.102  0.247  0.894- 130 1.51 155 1.51  75 1.55  91 1.55  14 2.87  12 2.95
  60  0.668  0.593  0.487-  52 1.53  20 2.02   1 2.39
  61  0.658  0.082  0.985-  53 1.55  21 2.16   2 2.35  17 2.50
  62  0.159  0.080  0.484-  54 1.55  22 2.14   3 2.37  18 2.50
  63  0.155  0.580  0.981-  55 1.56  23 2.13   4 2.35  19 2.47
  64  0.164  0.487  0.580-  48 1.59  25 2.17  13 2.49  12 2.50
  65  0.161  0.988  0.076-  49 1.58  24 2.18  14 2.55   8 2.56  11 2.57
  66  0.660  0.989  0.576-  50 1.58  27 2.21   5 2.52  15 2.53  10 2.54
  67  0.660  0.486  0.080-  51 1.57  26 2.17  16 2.56
  68  0.488  0.673  0.578-  36 1.54  20 2.12   1 2.36
  69  0.492  0.165  0.078-  37 1.56  21 2.17   2 2.41  17 2.53
  70  0.988  0.161  0.575-  38 1.56  22 2.19   3 2.42  18 2.49
  71  0.990  0.665  0.075-  39 1.56  23 2.16   4 2.42  19 2.50
  72  0.595  0.174  0.495-  56 1.54  27 2.07   5 2.38  15 2.49
  73  0.592  0.659  0.975-  57 1.55  26 2.25   6 2.35  16 2.40
  74  0.107  0.660  0.474-  58 1.54  25 2.22   7 2.35  13 2.52
  75  0.089  0.165  0.984-  59 1.55  24 2.18   8 2.34  14 2.47
  76  0.597  0.487  0.673-  44 1.49  20 1.97
  77  0.595  0.975  0.168-  45 1.52  21 2.12   2 2.23
  78  0.096  0.980  0.669-  46 1.52  22 2.09   3 2.24
  79  0.094  0.485  0.171-  47 1.52  23 2.11   4 2.24
  80  0.493  0.587  0.170-  40 1.54  26 2.12   6 2.36   9 2.55
  81  0.486  0.081  0.668-  41 1.54  27 2.20   5 2.37  10 2.52
  82  0.990  0.081  0.169-  42 1.54  24 2.17   8 2.35  11 2.56
  83  0.983  0.582  0.664-  43 1.55  25 2.21   7 2.35  12 2.54
  84  0.510  0.416  0.838-  44 1.57  30 2.11   6 2.40  17 2.48
  85  0.514  0.911  0.340-  45 1.55  31 2.16   5 2.35   1 2.52
  86  0.012  0.916  0.837-  46 1.55  28 2.14   8 2.36  19 2.49
  87  0.013  0.413  0.338-  47 1.56  29 2.17   7 2.32  18 2.46
  88  0.500  0.311  0.387-  56 1.51  32 2.04   9 2.35
  89  0.514  0.832  0.906-  57 1.55  33 2.19   2 2.33  10 2.47
  90  0.009  0.824  0.409-  58 1.55  34 2.13   3 2.33  11 2.52
  91  0.017  0.334  0.902-  59 1.55  35 2.22   4 2.33  12 2.43
  92  0.827  0.510  0.404-  52 1.52  29 2.06   7 2.25
  93  0.826  0.014  0.901-  53 1.52  28 2.11   8 2.24
  94  0.331  0.021  0.399-  54 1.52  31 2.12   5 2.24
  95  0.324  0.513  0.900-  55 1.51  30 2.10   6 2.26
  96  0.408  0.504  0.321-  40 1.56  32 2.12  13 2.41   9 2.42
  97  0.419  0.009  0.837-  41 1.58  33 2.17  14 2.53   2 2.54  10 2.57
  98  0.920  0.008  0.336-  42 1.58  34 2.15   3 2.56
  99  0.916  0.508  0.832-  43 1.58  35 2.17  16 2.53  12 2.55
 100  0.417  0.837  0.506-  36 1.56  31 2.15   5 2.42   1 2.51
 101  0.421  0.330  0.004-  37 1.56  30 2.17   6 2.39  17 2.47
 102  0.921  0.331  0.506-  38 1.56  29 2.18  18 2.46   7 2.48
 103  0.921  0.832  0.004-  39 1.56  28 2.18   8 2.40  19 2.48
 104  0.325  0.401  0.509-  48 1.51  32 2.14  13 2.35
 105  0.330  0.915  0.010-  49 1.54  33 2.17   2 2.34  14 2.56
 106  0.827  0.914  0.509-  50 1.54  34 2.18   3 2.36  15 2.55
 107  0.828  0.415  0.010-  51 1.55  35 2.19   4 2.34  16 2.49
 108  0.295  0.696  0.589-  36 1.52  25 2.11  13 2.35
 109  0.299  0.185  0.081-  37 1.53  24 2.13  14 2.40
 110  0.795  0.188  0.579-  38 1.52  27 2.14  15 2.45
 111  0.797  0.688  0.081-  39 1.52  26 2.12  16 2.43
 112  0.788  0.601  0.710-  43 1.50  20 2.13
 113  0.796  0.093  0.205-  42 1.50  21 2.09
 114  0.292  0.101  0.714-  41 1.50  22 2.12
 115  0.298  0.598  0.177-  40 1.50  23 2.05
 116  0.113  0.291  0.223-  47 1.52  24 2.08
 117  0.107  0.788  0.723-  46 1.51  25 2.07  19 2.55
 118  0.605  0.783  0.225-  45 1.51  26 2.05
 119  0.608  0.290  0.723-  44 1.52  27 2.04
 120  0.671  0.794  0.573-  50 1.53  20 2.20   1 2.46
 121  0.678  0.292  0.081-  51 1.53  21 2.17  17 2.40
 122  0.163  0.293  0.580-  48 1.54  22 2.11  18 2.38
 123  0.173  0.795  0.071-  49 1.53  23 2.13  19 2.37
 124  0.672  0.582  0.297-  52 1.55  26 2.12   9 2.30
 125  0.667  0.070  0.793-  53 1.54  27 2.11  10 2.34
 126  0.167  0.070  0.292-  54 1.54  24 2.12  11 2.33
 127  0.164  0.569  0.790-  55 1.54  25 2.11  12 2.35
 128  0.591  0.698  0.781-  57 1.52  20 2.05
 129  0.605  0.155  0.307-  56 1.54  21 2.10  15 2.54
 130  0.091  0.186  0.790-  59 1.51  22 2.07
 131  0.103  0.707  0.281-  58 1.51  23 2.06
 132  0.413  0.311  0.198-  37 1.52  32 2.14
 133  0.414  0.820  0.700-  36 1.53  33 2.11  10 2.36
 134  0.915  0.812  0.197-  39 1.52  34 2.13  11 2.44
 135  0.913  0.306  0.699-  38 1.52  35 2.14  12 2.41
 136  0.401  0.697  0.322-  40 1.55  31 2.16   1 2.42
 137  0.422  0.202  0.824-  41 1.53  30 2.13  17 2.40
 138  0.917  0.201  0.321-  42 1.53  29 2.14  18 2.39
 139  0.919  0.701  0.820-  43 1.53  28 2.14  19 2.37
 140  0.205  0.435  0.330-  47 1.53  32 2.13  13 2.44
 141  0.204  0.927  0.831-  46 1.54  33 2.12  14 2.35
 142  0.706  0.923  0.327-  45 1.54  34 2.10  15 2.32
 143  0.701  0.424  0.835-  44 1.56  35 2.12  16 2.31
 144  0.782  0.895  0.702-  50 1.50  28 2.10
 145  0.790  0.402  0.205-  51 1.50  29 2.08
 146  0.281  0.390  0.706-  48 1.50  30 2.07
 147  0.282  0.895  0.204-  49 1.50  31 2.11
 148  0.269  0.211  0.390-  54 1.52  32 2.04  18 2.54
 149  0.273  0.707  0.887-  55 1.51  33 2.09
 150  0.799  0.705  0.392-  52 1.51  34 2.00
 151  0.776  0.207  0.890-  53 1.51  35 2.06
 152  0.693  0.316  0.385-  56 1.53  29 2.10
 153  0.708  0.803  0.903-  57 1.51  28 2.07
 154  0.201  0.827  0.406-  58 1.52  31 2.06
 155  0.210  0.299  0.903-  59 1.51  30 2.07
 

IMPORTANT INFORMATION: All symmetrisations will be switched off!
NOSYMM: (Re-)initialisation of all symmetry stuff for point group C_1.


----------------------------------------------------------------------------------------

                                     Primitive cell                                     

  volume of cell :    1996.7070

  direct lattice vectors                    reciprocal lattice vectors
    -5.194518404  7.350508999  8.875454575    -0.031668102  0.045627293  0.056348171
     5.104105529 -7.292354495  8.773447627     0.033249081 -0.045304841  0.056980361
    10.288441417  7.343858196 -0.164423267     0.064712682  0.045512482  0.000181547

  length of vectors
    12.640676323 12.498148287 12.641650011     0.079119119  0.080029942  0.079114791

  position of ions in fractional coordinates (direct lattice)
     0.563129242  0.734872496  0.419032201
     0.503735314  0.981722578  0.017283148
     0.004006789  0.976837062  0.517065510
     0.001849259  0.479510956  0.018521572
     0.482742996  0.019275592  0.490393396
     0.474838482  0.513756978  0.997939606
     0.984427882  0.518253564  0.487945135
     0.978162458  0.014983767  0.993849665
     0.574277773  0.429153120  0.264046811
     0.571778614  0.916631096  0.740590582
     0.075845310  0.913323895  0.244010576
     0.068463063  0.415472034  0.737016250
     0.282652665  0.571496786  0.448031159
     0.254819204  0.082310750  0.924948921
     0.750183690  0.078297626  0.421981230
     0.754971936  0.577105300  0.926516566
     0.579627743  0.252258218  0.921245985
     0.073776715  0.247140107  0.419910790
     0.074648210  0.746574114  0.917546150
     0.638835563  0.635225619  0.639217611
     0.646671105  0.135857138  0.147245811
     0.144756908  0.138668645  0.643240407
     0.146729962  0.641216832  0.138310809
     0.147145910  0.147939548  0.145773030
     0.145267313  0.647169723  0.644598261
     0.647678863  0.647542740  0.144570980
     0.645830402  0.149793153  0.648655294
     0.852996188  0.855855900  0.847368754
     0.850976306  0.355349658  0.350011401
     0.354034798  0.355621588  0.848177745
     0.350712425  0.859028278  0.350654117
     0.347647151  0.348359694  0.349839391
     0.350942418  0.849896250  0.851692073
     0.853120199  0.849262313  0.350033455
     0.849556520  0.348798542  0.850542520
     0.400847650  0.755648599  0.597280957
     0.402583863  0.248305209  0.094744673
     0.900537005  0.246602647  0.593552900
     0.901857017  0.749353024  0.093675746
     0.396552819  0.599553220  0.243909903
     0.403453898  0.101677014  0.754940585
     0.904228552  0.098993223  0.252454939
     0.899658754  0.601018209  0.750696097
     0.604692679  0.406693281  0.758791877
     0.606500929  0.899615527  0.260692342
     0.106587212  0.903596322  0.759850711
     0.108203689  0.406876352  0.260928310
     0.241177644  0.389111344  0.594111564
     0.241745031  0.895119976  0.091725233
     0.740136623  0.893628694  0.590787249
     0.742322584  0.394917616  0.096167114
     0.745200847  0.597099776  0.394885642
     0.736933057  0.092220437  0.891304410
     0.236654177  0.093967156  0.390066746
     0.235067258  0.591417968  0.888090265
     0.596693215  0.241840416  0.393793358
     0.601458379  0.747434017  0.891243356
     0.106739377  0.751633859  0.393432427
     0.101742329  0.246852347  0.894466299
     0.667506125  0.593409217  0.487378857
     0.658378829  0.081830504  0.984638478
     0.158752694  0.080125643  0.483697275
     0.154960199  0.580258630  0.980722741
     0.163600572  0.487159625  0.579657783
     0.160933323  0.988487838  0.076177757
     0.660175423  0.988589205  0.576132004
     0.659722490  0.486431565  0.080050093
     0.487559587  0.672567216  0.577653134
     0.492005602  0.164876974  0.078272118
     0.987661765  0.161048007  0.574526397
     0.989690767  0.664641505  0.075453766
     0.594846556  0.174039589  0.494694063
     0.591958737  0.659303301  0.975439727
     0.107079142  0.660429055  0.474033348
     0.089144314  0.165471592  0.984455826
     0.596721259  0.486991783  0.672860343
     0.595143302  0.975118619  0.168463015
     0.096461493  0.980224595  0.668739972
     0.093603219  0.484516102  0.170761699
     0.492771499  0.587182117  0.170198606
     0.486316442  0.081221296  0.668426244
     0.990117351  0.080764781  0.168641162
     0.983148534  0.581837520  0.663759021
     0.510134214  0.415804367  0.837858146
     0.513884075  0.911127295  0.339944538
     0.012395335  0.915738056  0.837435307
     0.012971362  0.413158103  0.338323437
     0.500113650  0.311046515  0.386814074
     0.514283165  0.831763613  0.905760145
     0.009244821  0.824230169  0.408797881
     0.016553031  0.334147628  0.902179224
     0.827274159  0.509754947  0.403943428
     0.826450302  0.013512056  0.901217970
     0.330579222  0.020566307  0.398545677
     0.324497327  0.513011903  0.900014193
     0.407786596  0.504105131  0.321142477
     0.418942939  0.009204517  0.837097927
     0.920456687  0.007563145  0.335515611
     0.916499482  0.507797629  0.831898716
     0.416675768  0.837297726  0.505935959
     0.421007389  0.330220399  0.004355720
     0.920874150  0.330831934  0.505822162
     0.921005634  0.831593065  0.004097308
     0.324614285  0.400935278  0.509464532
     0.329566206  0.915230263  0.010483704
     0.827480741  0.914044830  0.508664220
     0.827572490  0.414908052  0.010481521
     0.294765236  0.696470686  0.588641673
     0.298677759  0.185257732  0.081272551
     0.794963130  0.187754993  0.578966990
     0.797332608  0.688168586  0.081129582
     0.788152327  0.600651197  0.709592075
     0.795669676  0.093214130  0.204688121
     0.291831873  0.100788246  0.713521025
     0.298110674  0.598435822  0.177379441
     0.113109307  0.291323748  0.223257292
     0.106855689  0.787817007  0.723097775
     0.605367731  0.783327396  0.225442333
     0.607977980  0.290159655  0.723352549
     0.670654296  0.793640175  0.572581991
     0.677582829  0.291680848  0.080673360
     0.163406203  0.293419283  0.580325437
     0.173206415  0.794830108  0.071338854
     0.672375104  0.582207012  0.296691590
     0.666927719  0.070208013  0.793089584
     0.167007696  0.070297217  0.292133803
     0.164396686  0.569218399  0.790365788
     0.590528546  0.698492220  0.781130594
     0.605358677  0.154542049  0.307042002
     0.090691777  0.186304070  0.790332867
     0.102982995  0.706677710  0.281484762
     0.412998326  0.311342955  0.197759460
     0.414110812  0.820060820  0.700174496
     0.915126316  0.811929256  0.197479560
     0.913396322  0.306449213  0.698981915
     0.400827543  0.696593959  0.321584971
     0.422406546  0.202174317  0.823714763
     0.917468461  0.201023475  0.320522390
     0.919085217  0.701082730  0.820261362
     0.205053454  0.434640724  0.330373360
     0.203955907  0.926564118  0.830536545
     0.706457511  0.923020418  0.327375857
     0.701166851  0.424339346  0.834778806
     0.782097156  0.895216680  0.702325153
     0.789897809  0.402127220  0.204873776
     0.280802164  0.389605382  0.706360678
     0.282093024  0.895399792  0.203578711
     0.268924372  0.211163335  0.389503677
     0.273035958  0.706737768  0.887110021
     0.799270234  0.705232565  0.391762775
     0.775658144  0.207163597  0.890415239
     0.693054549  0.316133595  0.385486442
     0.707984675  0.803177271  0.902582589
     0.200952687  0.827215950  0.406356291
     0.210405810  0.298669114  0.903448205

  ion indices of the primitive-cell ions
   primitive index   ion index
                 1           1
                 2           2
                 3           3
                 4           4
                 5           5
                 6           6
                 7           7
                 8           8
                 9           9
                10          10
                11          11
                12          12
                13          13
                14          14
                15          15
                16          16
                17          17
                18          18
                19          19
                20          20
                21          21
                22          22
                23          23
                24          24
                25          25
                26          26
                27          27
                28          28
                29          29
                30          30
                31          31
                32          32
                33          33
                34          34
                35          35
                36          36
                37          37
                38          38
                39          39
                40          40
                41          41
                42          42
                43          43
                44          44
                45          45
                46          46
                47          47
                48          48
                49          49
                50          50
                51          51
                52          52
                53          53
                54          54
                55          55
                56          56
                57          57
                58          58
                59          59
                60          60
                61          61
                62          62
                63          63
                64          64
                65          65
                66          66
                67          67
                68          68
                69          69
                70          70
                71          71
                72          72
                73          73
                74          74
                75          75
                76          76
                77          77
                78          78
                79          79
                80          80
                81          81
                82          82
                83          83
                84          84
                85          85
                86          86
                87          87
                88          88
                89          89
                90          90
                91          91
                92          92
                93          93
                94          94
                95          95
                96          96
                97          97
                98          98
                99          99
               100         100
               101         101
               102         102
               103         103
               104         104
               105         105
               106         106
               107         107
               108         108
               109         109
               110         110
               111         111
               112         112
               113         113
               114         114
               115         115
               116         116
               117         117
               118         118
               119         119
               120         120
               121         121
               122         122
               123         123
               124         124
               125         125
               126         126
               127         127
               128         128
               129         129
               130         130
               131         131
               132         132
               133         133
               134         134
               135         135
               136         136
               137         137
               138         138
               139         139
               140         140
               141         141
               142         142
               143         143
               144         144
               145         145
               146         146
               147         147
               148         148
               149         149
               150         150
               151         151
               152         152
               153         153
               154         154
               155         155

----------------------------------------------------------------------------------------

 
 
 KPOINTS: K-points file                           

Automatic generation of k-mesh.
Space group operators:
 irot       det(A)        alpha          n_x          n_y          n_z        tau_x        tau_y        tau_z
    1     1.000000     0.000000     1.000000     0.000000     0.000000     0.000000     0.000000     0.000000
 
 Subroutine IBZKPT returns following result:
 ===========================================
 
 Found      1 irreducible k-points:
 
 Following reciprocal coordinates:
            Coordinates               Weight
  0.000000  0.000000  0.000000      1.000000
 
 Following cartesian coordinates:
            Coordinates               Weight
  0.000000  0.000000  0.000000      1.000000
 


--------------------------------------------------------------------------------------------------------




 Dimension of arrays:
   k-points           NKPTS =      1   k-points in BZ     NKDIM =      1   number of bands    NBANDS=    700
   number of dos      NEDOS =    301   number of ions     NIONS =    155
   non local maximal  LDIM  =      6   non local SUM 2l+1 LMDIM =     18
   total plane-waves  NPLWV = 884736
   max r-space proj   IRMAX =   7368   max aug-charges    IRDMAX=  21338
   dimension x,y,z NGX =    96 NGY =   96 NGZ =   96
   dimension x,y,z NGXF=   192 NGYF=  192 NGZF=  192
   support grid    NGXF=   192 NGYF=  192 NGZF=  192
   ions per type =              19  16  24  96
   NGX,Y,Z   is equivalent  to a cutoff of  12.63, 12.77, 12.62 a.u.
   NGXF,Y,Z  is equivalent  to a cutoff of  25.25, 25.54, 25.25 a.u.

 SYSTEM =  unknown system                          
 POSCAR =  Ca20 V16 P24 O96                        

 Startparameter for this run:
   NWRITE =      2    write-flag & timer
   PREC   = accura    normal or accurate (medium, high low for compatibility)
   ISTART =      0    job   : 0-new  1-cont  2-samecut
   ICHARG =      1    charge: 1-file 2-atom 10-const
   ISPIN  =      2    spin polarized calculation?
   LNONCOLLINEAR =      F non collinear calculations
   LSORBIT =      F    spin-orbit coupling
   INIWAV =      1    electr: 0-lowe 1-rand  2-diag
   LASPH  =      T    aspherical Exc in radial PAW
   METAGGA=      F    non-selfconsistent MetaGGA calc.

 Electronic Relaxation 1
   ENCUT  =  520.0 eV  38.22 Ry    6.18 a.u.  23.50 23.24 23.51*2*pi/ulx,y,z
   ENINI  =  520.0     initial cutoff
   ENAUG  =  605.4 eV  augmentation charge cutoff
   NELM   =    200;   NELMIN=  6; NELMDL= -5     # of ELM steps 
   EDIFF  = 0.1E-04   stopping-criterion for ELM
   LREAL  =      T    real-space projection
   NLSPLINE    = F    spline interpolate recip. space projectors
   LCOMPAT=      F    compatible to vasp.4.4
   GGA_COMPAT  = T    GGA compatible to vasp.4.4-vasp.4.6
   LMAXPAW     = -100 max onsite density
   LMAXMIX     =    2 max onsite mixed and CHGCAR
   VOSKOWN=      0    Vosko Wilk Nusair interpolation
   ROPT   =   -0.00025  -0.00025  -0.00025  -0.00025
 Ionic relaxation
   EDIFFG = -.3E-01   stopping-criterion for IOM
   NSW    =    199    number of steps for IOM
   NBLOCK =      1;   KBLOCK =    199    inner block; outer block 
   IBRION =      2    ionic relax: 0-MD 1-quasi-New 2-CG
   NFREE  =      1    steps in history (QN), initial steepest desc. (CG)
   ISIF   =      3    stress and relaxation
   IWAVPR =     11    prediction:  0-non 1-charg 2-wave 3-comb
   ISYM   =      0    0-nonsym 1-usesym 2-fastsym
   LCORR  =      T    Harris-Foulkes like correction to forces

   POTIM  = 0.5000    time-step for ionic-motion
   TEIN   =    0.0    initial temperature
   TEBEG  =    0.0;   TEEND  =   0.0 temperature during run
   SMASS  =  -3.00    Nose mass-parameter (am)
   estimated Nose-frequenzy (Omega)   =  0.10E-29 period in steps = 0.13E+47 mass=  -0.365E-26a.u.
   SCALEE = 1.0000    scale energy and forces
   NPACO  =    256;   APACO  = 16.0  distance and # of slots for P.C.
   PSTRESS=    0.0 pullay stress

  Mass of Ions in am
   POMASS =  40.08 50.94 30.97 16.00
  Ionic Valenz
   ZVAL   =  10.00 11.00  5.00  6.00
  Atomic Wigner-Seitz radii
   RWIGS  =  -1.00 -1.00 -1.00 -1.00
  virtual crystal weights 
   VCA    =   1.00  1.00  1.00  1.00
   NELECT =    1062.0000    total number of electrons
   NUPDOWN=      -1.0000    fix difference up-down

 DOS related values:
   EMIN   =  10.00;   EMAX   =-10.00  energy-range for DOS
   EFERMI =   0.00
   ISMEAR =     0;   SIGMA  =   0.05  broadening in eV -4-tet -1-fermi 0-gaus

 Electronic relaxation 2 (details)
   IALGO  =     58    algorithm
   LDIAG  =      T    sub-space diagonalisation (order eigenvalues)
   LSUBROT=      F    optimize rotation matrix (better conditioning)
   TURBO    =      0    0=normal 1=particle mesh
   IRESTART =      0    0=no restart 2=restart with 2 vectors
   NREBOOT  =      0    no. of reboots
   NMIN     =      0    reboot dimension
   EREF     =   0.00    reference energy to select bands
   IMIX   =      4    mixing-type and parameters
     AMIX     =   0.40;   BMIX     =  1.00
     AMIX_MAG =   1.60;   BMIX_MAG =  1.00
     AMIN     =   0.10
     WC   =   100.;   INIMIX=   1;  MIXPRE=   1;  MAXMIX= -45

 Intra band minimization:
   WEIMIN = 0.0010     energy-eigenvalue tresh-hold
   EBREAK =  0.36E-08  absolut break condition
   DEPER  =   0.30     relativ break condition  

   TIME   =   0.40     timestep for ELM

  volume/ion in A,a.u.               =      12.88        86.93
  Fermi-wavevector in a.u.,A,eV,Ry     =   1.326411  2.506554 23.937641  1.759367
  Thomas-Fermi vector in A             =   2.455800
 
 Write flags
   LWAVE        =      F    write WAVECAR
   LDOWNSAMPLE  =      F    k-point downsampling of WAVECAR
   LCHARG       =      T    write CHGCAR
   LVTOT        =      F    write LOCPOT, total local potential
   LVHAR        =      F    write LOCPOT, Hartree potential only
   LELF         =      F    write electronic localiz. function (ELF)
   LORBIT       =     11    0 simple, 1 ext, 2 COOP (PROOUT), +10 PAW based schemes


 Dipole corrections
   LMONO  =      F    monopole corrections only (constant potential shift)
   LDIPOL =      F    correct potential (dipole corrections)
   IDIPOL =      0    1-x, 2-y, 3-z, 4-all directions 
   EPSILON=  1.0000000 bulk dielectric constant

 Exchange correlation treatment:
   GGA     =    --    GGA type
   LEXCH   =     8    internal setting for exchange type
   VOSKOWN=      0    Vosko Wilk Nusair interpolation
   LHFCALC =     F    Hartree Fock is set to
   LHFONE  =     F    Hartree Fock one center treatment
   AEXX    =    0.0000 exact exchange contribution

 Linear response parameters
   LEPSILON=     F    determine dielectric tensor
   LRPA    =     F    only Hartree local field effects (RPA)
   LNABLA  =     F    use nabla operator in PAW spheres
   LVEL    =     F    velocity operator in full k-point grid
   LINTERFAST=   F  fast interpolation
   KINTER  =     0    interpolate to denser k-point grid
   CSHIFT  =0.1000    complex shift for real part using Kramers Kronig
   OMEGAMAX=  -1.0    maximum frequency
   DEG_THRESHOLD= 0.2000000E-02 threshold for treating states as degnerate
   RTIME   =   -0.100 relaxation time in fs
  (WPLASMAI=    0.000 imaginary part of plasma frequency in eV, 0.658/RTIME)
   DFIELD  = 0.0000000 0.0000000 0.0000000 field for delta impulse in time
 
 Orbital magnetization related:
   ORBITALMAG=     F  switch on orbital magnetization
   LCHIMAG   =     F  perturbation theory with respect to B field
   DQ        =  0.001000  dq finite difference perturbation B field
   LLRAUG    =     F  two centre corrections for induced B field



--------------------------------------------------------------------------------------------------------


 conjugate gradient relaxation of ions
 charge density and potential will be updated during run
 spin polarized calculation
 Conjugate gradient for all bands (Freysoldt, et al. PRB 79, 241103 (2009))
 preconditioned conjugated gradient                                        
 perform sub-space diagonalisation
    before iterative eigenvector-optimisation
 modified Broyden-mixing scheme, WC =      100.0
 initial mixing is a Kerker type mixing with AMIX =  0.4000 and BMIX =      1.0000
 Hartree-type preconditioning will be used
 using additional bands          169
 real space projection scheme for non local part
 use partial core corrections
 no Harris-corrections to forces 
 use gradient corrections 
 use of overlap-Matrix (Vanderbilt PP)
 Gauss-broadening in eV      SIGMA  =   0.05


--------------------------------------------------------------------------------------------------------


  energy-cutoff  :      520.00
  volume of cell :     1996.71
      direct lattice vectors                 reciprocal lattice vectors
    -5.194518404  7.350508999  8.875454575    -0.031668102  0.045627293  0.056348171
     5.104105529 -7.292354495  8.773447627     0.033249081 -0.045304841  0.056980361
    10.288441417  7.343858196 -0.164423267     0.064712682  0.045512482  0.000181547

  length of vectors
    12.640676323 12.498148287 12.641650011     0.079119119  0.080029942  0.079114791


 
 k-points in units of 2pi/SCALE and weight: K-points file                           
   0.00000000  0.00000000  0.00000000       1.000
 
 k-points in reciprocal lattice and weights: K-points file                           
   0.00000000  0.00000000  0.00000000       1.000
 
 position of ions in fractional coordinates (direct lattice) 
   0.56312924  0.73487250  0.41903220
   0.50373531  0.98172258  0.01728315
   0.00400679  0.97683706  0.51706551
   0.00184926  0.47951096  0.01852157
   0.48274300  0.01927559  0.49039340
   0.47483848  0.51375698  0.99793961
   0.98442788  0.51825356  0.48794513
   0.97816246  0.01498377  0.99384966
   0.57427777  0.42915312  0.26404681
   0.57177861  0.91663110  0.74059058
   0.07584531  0.91332389  0.24401058
   0.06846306  0.41547203  0.73701625
   0.28265267  0.57149679  0.44803116
   0.25481920  0.08231075  0.92494892
   0.75018369  0.07829763  0.42198123
   0.75497194  0.57710530  0.92651657
   0.57962774  0.25225822  0.92124598
   0.07377671  0.24714011  0.41991079
   0.07464821  0.74657411  0.91754615
   0.63883556  0.63522562  0.63921761
   0.64667111  0.13585714  0.14724581
   0.14475691  0.13866864  0.64324041
   0.14672996  0.64121683  0.13831081
   0.14714591  0.14793955  0.14577303
   0.14526731  0.64716972  0.64459826
   0.64767886  0.64754274  0.14457098
   0.64583040  0.14979315  0.64865529
   0.85299619  0.85585590  0.84736875
   0.85097631  0.35534966  0.35001140
   0.35403480  0.35562159  0.84817775
   0.35071243  0.85902828  0.35065412
   0.34764715  0.34835969  0.34983939
   0.35094242  0.84989625  0.85169207
   0.85312020  0.84926231  0.35003345
   0.84955652  0.34879854  0.85054252
   0.40084765  0.75564860  0.59728096
   0.40258386  0.24830521  0.09474467
   0.90053700  0.24660265  0.59355290
   0.90185702  0.74935302  0.09367575
   0.39655282  0.59955322  0.24390990
   0.40345390  0.10167701  0.75494058
   0.90422855  0.09899322  0.25245494
   0.89965875  0.60101821  0.75069610
   0.60469268  0.40669328  0.75879188
   0.60650093  0.89961553  0.26069234
   0.10658721  0.90359632  0.75985071
   0.10820369  0.40687635  0.26092831
   0.24117764  0.38911134  0.59411156
   0.24174503  0.89511998  0.09172523
   0.74013662  0.89362869  0.59078725
   0.74232258  0.39491762  0.09616711
   0.74520085  0.59709978  0.39488564
   0.73693306  0.09222044  0.89130441
   0.23665418  0.09396716  0.39006675
   0.23506726  0.59141797  0.88809026
   0.59669322  0.24184042  0.39379336
   0.60145838  0.74743402  0.89124336
   0.10673938  0.75163386  0.39343243
   0.10174233  0.24685235  0.89446630
   0.66750613  0.59340922  0.48737886
   0.65837883  0.08183050  0.98463848
   0.15875269  0.08012564  0.48369727
   0.15496020  0.58025863  0.98072274
   0.16360057  0.48715963  0.57965778
   0.16093332  0.98848784  0.07617776
   0.66017542  0.98858920  0.57613200
   0.65972249  0.48643157  0.08005009
   0.48755959  0.67256722  0.57765313
   0.49200560  0.16487697  0.07827212
   0.98766177  0.16104801  0.57452640
   0.98969077  0.66464150  0.07545377
   0.59484656  0.17403959  0.49469406
   0.59195874  0.65930330  0.97543973
   0.10707914  0.66042905  0.47403335
   0.08914431  0.16547159  0.98445583
   0.59672126  0.48699178  0.67286034
   0.59514330  0.97511862  0.16846302
   0.09646149  0.98022459  0.66873997
   0.09360322  0.48451610  0.17076170
   0.49277150  0.58718212  0.17019861
   0.48631644  0.08122130  0.66842624
   0.99011735  0.08076478  0.16864116
   0.98314853  0.58183752  0.66375902
   0.51013421  0.41580437  0.83785815
   0.51388407  0.91112730  0.33994454
   0.01239533  0.91573806  0.83743531
   0.01297136  0.41315810  0.33832344
   0.50011365  0.31104652  0.38681407
   0.51428317  0.83176361  0.90576014
   0.00924482  0.82423017  0.40879788
   0.01655303  0.33414763  0.90217922
   0.82727416  0.50975495  0.40394343
   0.82645030  0.01351206  0.90121797
   0.33057922  0.02056631  0.39854568
   0.32449733  0.51301190  0.90001419
   0.40778660  0.50410513  0.32114248
   0.41894294  0.00920452  0.83709793
   0.92045669  0.00756315  0.33551561
   0.91649948  0.50779763  0.83189872
   0.41667577  0.83729773  0.50593596
   0.42100739  0.33022040  0.00435572
   0.92087415  0.33083193  0.50582216
   0.92100563  0.83159307  0.00409731
   0.32461428  0.40093528  0.50946453
   0.32956621  0.91523026  0.01048370
   0.82748074  0.91404483  0.50866422
   0.82757249  0.41490805  0.01048152
   0.29476524  0.69647069  0.58864167
   0.29867776  0.18525773  0.08127255
   0.79496313  0.18775499  0.57896699
   0.79733261  0.68816859  0.08112958
   0.78815233  0.60065120  0.70959208
   0.79566968  0.09321413  0.20468812
   0.29183187  0.10078825  0.71352102
   0.29811067  0.59843582  0.17737944
   0.11310931  0.29132375  0.22325729
   0.10685569  0.78781701  0.72309778
   0.60536773  0.78332740  0.22544233
   0.60797798  0.29015965  0.72335255
   0.67065430  0.79364017  0.57258199
   0.67758283  0.29168085  0.08067336
   0.16340620  0.29341928  0.58032544
   0.17320641  0.79483011  0.07133885
   0.67237510  0.58220701  0.29669159
   0.66692772  0.07020801  0.79308958
   0.16700770  0.07029722  0.29213380
   0.16439669  0.56921840  0.79036579
   0.59052855  0.69849222  0.78113059
   0.60535868  0.15454205  0.30704200
   0.09069178  0.18630407  0.79033287
   0.10298300  0.70667771  0.28148476
   0.41299833  0.31134296  0.19775946
   0.41411081  0.82006082  0.70017450
   0.91512632  0.81192926  0.19747956
   0.91339632  0.30644921  0.69898191
   0.40082754  0.69659396  0.32158497
   0.42240655  0.20217432  0.82371476
   0.91746846  0.20102347  0.32052239
   0.91908522  0.70108273  0.82026136
   0.20505345  0.43464072  0.33037336
   0.20395591  0.92656412  0.83053654
   0.70645751  0.92302042  0.32737586
   0.70116685  0.42433935  0.83477881
   0.78209716  0.89521668  0.70232515
   0.78989781  0.40212722  0.20487378
   0.28080216  0.38960538  0.70636068
   0.28209302  0.89539979  0.20357871
   0.26892437  0.21116334  0.38950368
   0.27303596  0.70673777  0.88711002
   0.79927023  0.70523256  0.39176277
   0.77565814  0.20716360  0.89041524
   0.69305455  0.31613359  0.38548644
   0.70798468  0.80317727  0.90258259
   0.20095269  0.82721595  0.40635629
   0.21040581  0.29866911  0.90344821
 
 position of ions in cartesian coordinates  (Angst):
   5.13686981  1.85764888 11.37649472
   2.57196993 -3.32943310 13.08112977
  10.28486432 -3.29673442  8.52077328
   2.62842662 -3.34715108  4.22033190
   2.63615100  7.00922185  4.37304484
  10.42295577  7.07253347  8.55774283
   2.55178707  7.04015718 13.20388592
   5.22055989 14.37941601  8.64968375
   1.92397650  3.03081959  8.81871327
   9.32799013  2.95725717 12.99503971
   6.77821020 -4.31080091  8.64603995
   9.34772898  2.88601183  4.13158032
   6.05827776  1.20036110  7.44900126
   8.61274249  8.06550540  2.83170220
   0.84432553  8.04222824  7.27577785
   8.55630215  8.14517785 11.61158137
   7.75485094  9.18650246  7.20615969
   5.19842225  1.82382843  2.75402956
  12.86295138  1.84274806  7.06169975
   6.50036845  4.75779966 11.13797248
  -1.15078589  4.84399572  6.90722486
   6.57377822  4.77668237  2.39562177
   3.93364955 -2.58170557  6.90523589
   1.49052420  1.07330617  2.57995824
   9.18054028  1.08223587  6.86123616
   1.42815676  1.10036687 11.40585581
   4.08343414  8.41846990  6.93958675
   8.65557822  6.25170751 14.94020869
   0.99440186  6.23420742 10.61289315
   8.70251688  6.23791437  6.12278699
   6.17047318 -1.11126977 10.59171611
   3.57150719  2.58419201  6.08432029
  11.27756730  2.63656647 10.43125573
   3.50447458  2.64834191 14.96523436
   6.11802448  9.94737389 10.46051706
   7.91978983  1.82232345 10.08914164
   0.15092172  1.84425815  5.73602931
   2.68756413  9.18005976 10.05863678
   0.10384147  1.85250162 14.56339802
   3.50973473  0.33395018  8.73963084
   6.19038349  7.76830328  4.34876491
  -1.59439215  7.77863971  8.85244183
   6.11785922  7.74311761 13.13445028
   6.74150395  7.05150735  8.81026157
   4.12337024 -0.18773720 13.23283727
  11.87606127 -0.22563857  8.74872783
   4.19921942 -0.25551389  4.48716260
   6.84574568  3.29831167  5.45672345
   4.25674749 -4.07696606  9.98380351
   6.79480185  3.26238146 14.31211435
  -0.85089741  3.28280723 10.03742729
   3.23945854  4.02332645 11.78769149
   5.81282372 11.28994214  7.20315587
   3.26349267  3.91888172  2.86069328
  10.93466318  3.93704348  7.12908063
   2.18636501  5.51437538  7.35294896
   9.86020054  5.51563623 11.74924858
   7.32976535 -1.80727985  7.47709135
   9.93412214  5.51655674  2.92168449
   4.57581923  4.15840063 11.05052856
   7.12810588 11.47372782  6.39944956
   4.56081702  4.13481271  2.03244937
  12.24686614  4.10987345  6.30495727
   7.60046310  1.90693135  5.63078968
   4.99312552 -5.46602325 10.08827728
   7.54407061  1.87451420 14.43796309
  -0.12055188  1.88994122 10.10985675
   6.84336723  2.92141528 10.13306660
  -0.90888458  2.98896960  5.80044311
   1.60255998 10.30463792 10.08442788
  -0.97226487  2.98205118 14.60274653
   2.88800593  6.73622964  6.72512159
  10.32596756  6.70681567 10.87788088
   7.69173934 -0.54776290  6.66667368
  10.51003878  6.67828256  2.08108521
   6.30866211  5.77627922  9.45813544
   3.61884736 -1.49913595 13.80962024
  11.38239080 -1.52797263  9.34613233
   3.74366940 -1.59118217  5.05357057
   2.18840725  0.59009561  9.49719800
   4.76544661  7.89120645  4.91896545
  -2.99589612  7.92737787  9.46859862
   4.69182275  7.85822882 13.72147374
   8.09266225  6.87066470  8.03794751
   5.47860905 -0.37044923 12.49878758
  13.22553998 -0.43676837  8.00650026
   5.52224344 -0.43294989  3.68431947
   2.96947862  4.24853614  7.10408506
  10.89281608  4.36650198 11.71300333
   8.36482842 -2.94047076  7.24617633
  10.90155783  4.31042653  2.93020313
   2.46050049  5.33007563 11.74832485
   5.04808394 12.59471265  7.30548823
   2.48818660  5.20681168  3.04894811
  10.19260286  5.25373248  7.23296107
   3.75880637  1.67975053  7.98922807
   6.48320700  9.15984972  3.66142600
  -1.29079340  9.17465109  8.18065980
   6.39002046  9.14304358 12.45270192
   7.31451848  0.67242908 10.96098696
  -0.45663730  0.71852217  6.63308715
   2.10922506  8.07103621 10.99254440
  -0.49748704  0.73567883 15.46960818
   5.60179709  3.20375333  6.31491618
   3.06735510 -4.17471332 10.95305090
   5.60037936  3.15242361 15.27995595
  -2.07326753  3.13439725 10.98353271
   8.07990180  1.41066436  8.62983816
   0.23025578  1.44132259  4.26288679
   2.78553865  8.72605915  8.60772210
   0.20542313  1.43823538 13.10096081
   6.27231183  6.62430289 12.14831855
  -1.55142428  6.67202717  7.84608386
   6.33952707  6.65012642  3.35708147
   3.33089619 -0.87009150  7.86704778
   3.19636835  0.34654483  3.52310147
  10.90558640  0.35073034  7.74136997
   3.17304211  0.39307643 12.20832772
   5.76502301  7.66519909  7.82284549
   6.45807339  3.34710589 12.82117644
  -1.20094351  3.44599226  8.55963769
   6.61947071  3.32322905  3.92918403
   3.89113846 -3.99912517  8.49895622
   2.53147521  2.87550030 11.02681442
   5.05363653 10.21461392  6.40485062
   2.49688138  2.86034858  2.05098458
  10.18302127  2.86179124  6.32314860
   8.53428296  4.98354483 11.24095816
   0.80323578  5.57759192  6.67821517
   8.61110893  5.11212791  2.30951063
   5.96805003 -2.32918276  7.06773813
   1.47843652  2.21764215  6.36458273
   9.23827501  2.20573325 10.75505738
   1.42228900  2.25603015 15.21311062
   4.01092960  9.61241565 10.68049480
   4.78199117  0.22815080  9.61618121
   7.31246156  7.67982074  5.38737802
  -0.44208595  7.63179671  9.85391724
   7.24340614  7.66708349 14.17334166
   4.55232514  0.76390813  5.57891918
  12.21475491  0.84168833  9.80280362
   4.40967440  0.86603207 14.31437464
   7.11222153  8.18999748  9.80883651
   7.73249353  4.37835114 14.68012585
   0.05719291  4.37826067 10.50505821
   7.79730542  4.41031093  5.79428713
   5.19938527 -2.96099219 10.32597392
   3.68825311  3.29731289  4.17541304
  11.31595333  3.36798113  8.47798351
   3.47838585  3.60928745 13.21679271
   6.18919938 10.72985503  8.55545261
   1.97954930  5.61990323  8.86137277
   9.70803022  5.97543289 13.18191397
   7.35911797 -1.57102444  8.97426783
   9.72655576  6.00338424  4.33925713
 


--------------------------------------------------------------------------------------------------------


 k-point   1 :   0.0000 0.0000 0.0000  plane waves:   53791

 maximum and minimum number of plane-waves per node :      2248     2236

 maximum number of plane-waves:     53791
 maximum index in each direction: 
   IXMAX=   23   IYMAX=   23   IZMAX=   23
   IXMIN=  -23   IYMIN=  -23   IZMIN=  -23


 real space projection operators:
  total allocation   :      54460.95 KBytes
  max/ min on nodes  :       2496.48       1982.05


 parallel 3D FFT for wavefunctions:
    minimum data exchange during FFTs selected (reduces bandwidth)
 parallel 3D FFT for charge:
    minimum data exchange during FFTs selected (reduces bandwidth)


 total amount of memory used by VASP MPI-rank0    79608. kBytes
=======================================================================

   base      :      30000. kBytes
   nonlr-proj:      21871. kBytes
   fftplans  :       2377. kBytes
   grid      :       9486. kBytes
   one-center:        217. kBytes
   wavefun   :      15657. kBytes
 
     INWAV:  cpu time    0.0000: real time    0.0000
 Broyden mixing: mesh for mixing (old mesh)
   NGX = 47   NGY = 47   NGZ = 47
  (NGX  =192   NGY  =192   NGZ  =192)
  gives a total of 103823 points

 initial charge density was supplied:
 number of electron    1061.9999997 magnetization      46.0000000
 keeping initial charge density in first step


--------------------------------------------------------------------------------------------------------


 Maximum index for non-local projection operator          452
 Maximum index for augmentation-charges          912 (set IRDMAX)


--------------------------------------------------------------------------------------------------------


 First call to EWALD:  gamma=   0.141
 Maximum number of real-space cells 3x 3x 3
 Maximum number of reciprocal cells 3x 3x 3

    FEWALD:  cpu time    0.0040: real time    0.0040


--------------------------------------- Iteration      1(   1)  ---------------------------------------


    POTLOK:  cpu time    0.2241: real time    0.2275
    SETDIJ:  cpu time    0.9020: real time    0.9045
    TRIAL :  cpu time    4.3082: real time    4.3222
    CORREC:  cpu time    0.0008: real time    0.0009
    --------------------------------------------
      LOOP:  cpu time    5.4506: real time    5.4712

 eigenvalue-minimisations  :  2800
 total energy-change (2. order) : 0.1076174E+05  (-0.5949864E+05)
 number of electron    1061.9999997 magnetization      46.0000000
 augmentation part     1061.9999997 magnetization      46.0000000

 Free energy of the ion-electron system (eV)
  ---------------------------------------------------
  alpha Z        PSCENC =      3786.83835002
  Ewald energy   TEWEN  =    -56344.63832487
  -Hartree energ DENC   =    -28813.09065020
  -exchange      EXHF   =         0.00000000
  -V(xc)+E(xc)   XCENC  =      4963.16588817
  PAW double counting   =    152925.62753834  -153098.73590678
  entropy T*S    EENTRO =        -0.06192641
  eigenvalues    EBANDS =      1349.73418529
  atomic energy  EATOM  =     85992.90182336
  ---------------------------------------------------
  free energy    TOTEN  =     10761.74097690 eV

  energy without entropy =    10761.80290332  energy(sigma->0) =    10761.77194011


--------------------------------------------------------------------------------------------------------




--------------------------------------- Iteration      1(   2)  ---------------------------------------


    TRIAL :  cpu time    4.5999: real time    4.6139
    CORREC:  cpu time    0.0006: real time    0.0006
    --------------------------------------------
      LOOP:  cpu time    4.6018: real time    4.6224

 eigenvalue-minimisations  :  2870
 total energy-change (2. order) :-0.1129657E+05  (-0.1071489E+05)
 number of electron    1061.9999997 magnetization      46.0000000
 augmentation part     1061.9999997 magnetization      46.0000000

 Free energy of the ion-electron system (eV)
  ---------------------------------------------------
  alpha Z        PSCENC =      3786.83835002
  Ewald energy   TEWEN  =    -56344.63832487
  -Hartree energ DENC   =    -28813.09065020
  -exchange      EXHF   =         0.00000000
  -V(xc)+E(xc)   XCENC  =      4963.16588817
  PAW double counting   =    152925.62753834  -153098.73590678
  entropy T*S    EENTRO =        -0.01794395
  eigenvalues    EBANDS =     -9946.87963050
  atomic energy  EATOM  =     85992.90182336
  ---------------------------------------------------
  free energy    TOTEN  =      -534.82885642 eV

  energy without entropy =     -534.81091247  energy(sigma->0) =     -534.81988445


--------------------------------------------------------------------------------------------------------




--------------------------------------- Iteration      1(   3)  ---------------------------------------


    TRIAL :  cpu time    4.8652: real time    4.8788
    CORREC:  cpu time    0.0008: real time    0.0008
    --------------------------------------------
      LOOP:  cpu time    4.8678: real time    4.8877

 eigenvalue-minimisations  :  3270
 total energy-change (2. order) :-0.1445685E+04  (-0.1399758E+04)
 number of electron    1061.9999997 magnetization      46.0000000
 augmentation part     1061.9999997 magnetization      46.0000000

 Free energy of the ion-electron system (eV)
  ---------------------------------------------------
  alpha Z        PSCENC =      3786.83835002
  Ewald energy   TEWEN  =    -56344.63832487
  -Hartree energ DENC   =    -28813.09065020
  -exchange      EXHF   =         0.00000000
  -V(xc)+E(xc)   XCENC  =      4963.16588817
  PAW double counting   =    152925.62753834  -153098.73590678
  entropy T*S    EENTRO =        -0.00836572
  eigenvalues    EBANDS =    -11392.57455951
  atomic energy  EATOM  =     85992.90182336
  ---------------------------------------------------
  free energy    TOTEN  =     -1980.51420720 eV

  energy without entropy =    -1980.50584148  energy(sigma->0) =    -1980.51002434


--------------------------------------------------------------------------------------------------------




--------------------------------------- Iteration      1(   4)  ---------------------------------------


    TRIAL :  cpu time    5.6788: real time    5.7055
    CORREC:  cpu time    0.0007: real time    0.0007
    --------------------------------------------
      LOOP:  cpu time    5.6808: real time    5.7145

 eigenvalue-minimisations  :  4040
 total energy-change (2. order) :-0.8493316E+02  (-0.8379618E+02)
 number of electron    1061.9999997 magnetization      46.0000000
 augmentation part     1061.9999997 magnetization      46.0000000

 Free energy of the ion-electron system (eV)
  ---------------------------------------------------
  alpha Z        PSCENC =      3786.83835002
  Ewald energy   TEWEN  =    -56344.63832487
  -Hartree energ DENC   =    -28813.09065020
  -exchange      EXHF   =         0.00000000
  -V(xc)+E(xc)   XCENC  =      4963.16588817
  PAW double counting   =    152925.62753834  -153098.73590678
  entropy T*S    EENTRO =        -0.07616874
  eigenvalues    EBANDS =    -11477.43991864
  atomic energy  EATOM  =     85992.90182336
  ---------------------------------------------------
  free energy    TOTEN  =     -2065.44736935 eV

  energy without entropy =    -2065.37120061  energy(sigma->0) =    -2065.40928498


--------------------------------------------------------------------------------------------------------




--------------------------------------- Iteration      1(   5)  ---------------------------------------


    TRIAL :  cpu time    7.1402: real time    7.1749
    CORREC:  cpu time    0.0007: real time    0.0007
    CHARGE:  cpu time    0.5059: real time    0.5093
    --------------------------------------------
      LOOP:  cpu time    7.6478: real time    7.6931

 eigenvalue-minimisations  :  5380
 total energy-change (2. order) :-0.7693691E+01  (-0.7674595E+01)
 number of electron    1061.9999999 magnetization      46.0000001
 augmentation part      173.3125547 magnetization      22.6521833

 Free energy of the ion-electron system (eV)
  ---------------------------------------------------
  alpha Z        PSCENC =      3786.83835002
  Ewald energy   TEWEN  =    -56344.63832487
  -Hartree energ DENC   =    -28813.09065020
  -exchange      EXHF   =         0.00000000
  -V(xc)+E(xc)   XCENC  =      4963.16588817
  PAW double counting   =    152925.62753834  -153098.73590678
  entropy T*S    EENTRO =        -0.07616015
  eigenvalues    EBANDS =    -11485.13361849
  atomic energy  EATOM  =     85992.90182336
  ---------------------------------------------------
  free energy    TOTEN  =     -2073.14106062 eV

  energy without entropy =    -2073.06490046  energy(sigma->0) =    -2073.10298054


--------------------------------------------------------------------------------------------------------




--------------------------------------- Iteration      1(   6)  ---------------------------------------


    POTLOK:  cpu time    0.1728: real time    0.1753
    SETDIJ:  cpu time    0.9046: real time    0.9071
    TRIAL :  cpu time    3.4578: real time    3.4702
    CORREC:  cpu time    2.6144: real time    2.6220
    CHARGE:  cpu time    0.3639: real time    0.3648
    --------------------------------------------
      LOOP:  cpu time    7.5169: real time    7.5477

 eigenvalue-minimisations  :     0
 total energy-change (2. order) : 0.3484468E+03  (-0.1027100E+02)
 number of electron    1061.9999999 magnetization      46.0000000
 augmentation part      176.4225184 magnetization      23.3208817

 Free energy of the ion-electron system (eV)
  ---------------------------------------------------
  alpha Z        PSCENC =      3786.83835002
  Ewald energy   TEWEN  =    -56344.63832487
  -Hartree energ DENC   =    -27968.14839229
  -exchange      EXHF   =         0.00000000
  -V(xc)+E(xc)   XCENC  =      5046.15922434
  PAW double counting   =    154208.20619561  -154368.39220986
  entropy T*S    EENTRO =        -0.03644971
  eigenvalues    EBANDS =    -12077.54474286
  atomic energy  EATOM  =     85992.90182336
  ---------------------------------------------------
  free energy    TOTEN  =     -1724.69423672 eV

  energy without entropy =    -1724.65778700  energy(sigma->0) =    -1724.67601186


--------------------------------------------------------------------------------------------------------




--------------------------------------- Iteration      1(   7)  ---------------------------------------


    POTLOK:  cpu time    0.1736: real time    0.1762
    SETDIJ:  cpu time    0.9409: real time    0.9435
    TRIAL :  cpu time    3.8524: real time    3.8640
    CORREC:  cpu time    2.4998: real time    2.5087
    CHARGE:  cpu time    0.3714: real time    0.3723
    --------------------------------------------
      LOOP:  cpu time    7.8400: real time    7.8727

 eigenvalue-minimisations  :     0
 total energy-change (2. order) :-0.8567664E+01  (-0.5717194E+01)
 number of electron    1061.9999999 magnetization      46.0000000
 augmentation part      179.8302246 magnetization      24.0263607

 Free energy of the ion-electron system (eV)
  ---------------------------------------------------
[...]
      0.23025      1.44229      4.26215        -0.001208      0.005014     -0.004468
      2.78644      8.72651      8.60804         0.000110      0.005821     -0.002746
      0.20645      1.43843     13.10085        -0.002645      0.001978      0.010054
      6.27370      6.62361     12.14957         0.005217     -0.009741      0.000728
     -1.55087      6.67172      7.84545        -0.001513     -0.009145     -0.010843
      6.34154      6.65024      3.35757         0.007949     -0.000946     -0.000527
      3.32913     -0.87115      7.86773        -0.015486      0.001043      0.004498
      3.19632      0.34447      3.52309        -0.007187     -0.008038     -0.006508
     10.90649      0.35035      7.74299         0.002659     -0.005287      0.001005
      3.17339      0.39227     12.20874         0.004748     -0.007482      0.011760
      5.76589      7.66438      7.82381         0.002854     -0.000265      0.004320
      6.45834      3.34666     12.82124        -0.002681     -0.000081      0.001255
     -1.20032      3.44674      8.56074        -0.004409      0.012886     -0.001355
      6.62111      3.32287      3.92973         0.005909      0.002536     -0.003704
      3.89018     -3.99968      8.50006        -0.006711     -0.012042      0.004956
      2.53268      2.87613     11.02707         0.006070      0.005517      0.013842
      5.05590     10.21422      6.40441         0.004898      0.002640     -0.001461
      2.49749      2.86032      2.05007         0.001042     -0.011743     -0.002981
     10.18414      2.86082      6.32488        -0.001280     -0.006177      0.001685
      8.53629      4.98293     11.24248         0.000098     -0.000968      0.005918
      0.80277      5.57757      6.67912        -0.017080      0.002700     -0.001886
      8.61241      5.11114      2.30919        -0.003996     -0.004865     -0.007381
      5.96866     -2.32943      7.07179         0.009021     -0.003861      0.020278
      1.47879      2.21686      6.36508        -0.010721     -0.002672     -0.002364
      9.23980      2.20427     10.75577         0.000878      0.001947     -0.002959
      1.42359      2.25605     15.21345         0.008992     -0.001359     -0.000464
      4.01245      9.61301     10.68039         0.000239      0.004883     -0.001962
      4.78355      0.22794      9.61534         0.001145     -0.000126     -0.010707
      7.31291      7.67934      5.38912        -0.005172      0.000433      0.004730
     -0.44135      7.63215      9.85383        -0.006263     -0.001701     -0.009898
      7.24493      7.66664     14.17503         0.004468     -0.008354      0.003931
      4.55267      0.76340      5.57937        -0.000033     -0.004964     -0.006202
     12.21688      0.84134      9.80339         0.003733     -0.002662     -0.006955
      4.41110      0.86603     14.31400        -0.004111      0.011094      0.007357
      7.11339      8.19018      9.81035         0.000767      0.001184      0.001825
      7.73491      4.37745     14.67958         0.008876      0.006200     -0.010537
      0.05670      4.37937     10.50765        -0.011973      0.007712      0.008689
      7.79814      4.40954      5.79562        -0.000581      0.000521      0.001534
      5.20091     -2.96170     10.32589        -0.002480     -0.018067     -0.006096
      3.68906      3.29642      4.17580         0.001965     -0.004511     -0.011770
     11.31678      3.36894      8.47959        -0.005947      0.003806      0.000294
      3.48005      3.61012     13.21906         0.005530      0.003014      0.013816
      6.19035     10.72983      8.55604        -0.002314      0.005470     -0.006883
      1.98027      5.61830      8.86141        -0.006223     -0.005260     -0.000601
      9.70912      5.97839     13.18211        -0.008587      0.021717      0.004740
      7.36140     -1.57210      8.97752         0.022618     -0.006842      0.001064
      9.72554      6.00496      4.33962        -0.014399      0.010440     -0.012426
 -----------------------------------------------------------------------------------
    total drift:                               -0.152493     -0.058289     -0.123825


--------------------------------------------------------------------------------------------------------



  FREE ENERGIE OF THE ION-ELECTRON SYSTEM (eV)
  ---------------------------------------------------
  free  energy   TOTEN  =     -1744.31767313 eV

  energy  without entropy=    -1744.26733882  energy(sigma->0) =    -1744.29250597
 
 d Force = 0.9329001E-05[ 0.138E-04, 0.489E-05]  d Energy = 0.2666472E-04-0.173E-04
 d Force =-0.7586157E-02[-0.760E-02,-0.757E-02]  d Ewald  =-0.1874869E-01 0.112E-01


--------------------------------------------------------------------------------------------------------


    POTLOK:  cpu time    1.1039: real time    1.1067


--------------------------------------------------------------------------------------------------------




--------------------------------------------------------------------------------------------------------


  
 reached required accuracy - stopping structural energy minimisation
     LOOP+:  cpu time  108.6513: real time  109.1141
    4ORBIT:  cpu time    0.0000: real time    0.0000
 


 total charge     
 
# of ion       s       p       d       tot
------------------------------------------
    1        2.019   5.866   0.226   8.112
    2        2.023   5.874   0.225   8.122
    3        2.022   5.872   0.220   8.114
    4        2.023   5.872   0.223   8.117
    5        2.021   5.871   0.216   8.108
    6        2.021   5.869   0.213   8.103
    7        2.022   5.871   0.219   8.112
    8        2.022   5.872   0.221   8.115
    9        2.018   5.863   0.218   8.098
   10        2.019   5.865   0.221   8.104
   11        2.017   5.863   0.218   8.098
   12        2.018   5.864   0.218   8.100
   13        2.019   5.865   0.221   8.106
   14        2.018   5.863   0.218   8.099
   15        2.018   5.863   0.220   8.102
   16        2.019   5.865   0.224   8.108
   17        2.019   5.867   0.227   8.113
   18        2.021   5.870   0.234   8.124
   19        2.021   5.871   0.236   8.127
   20        0.190   6.168   2.905   9.263
   21        0.160   6.130   3.022   9.312
   22        0.165   6.139   3.024   9.328
   23        0.171   6.148   3.014   9.334
   24        0.155   6.126   3.057   9.339
   25        0.156   6.125   3.061   9.342
   26        0.160   6.131   3.058   9.349
   27        0.164   6.136   3.032   9.332
   28        0.161   6.135   3.033   9.330
   29        0.164   6.137   3.016   9.316
   30        0.170   6.146   3.002   9.318
   31        0.162   6.135   3.032   9.330
   32        0.173   6.150   2.989   9.312
   33        0.156   6.127   3.061   9.344
   34        0.170   6.145   3.041   9.355
   35        0.155   6.124   3.059   9.338
   36        0.901   1.516   0.000   2.417
   37        0.900   1.507   0.000   2.407
   38        0.900   1.505   0.000   2.405
   39        0.899   1.507   0.000   2.406
   40        0.902   1.526   0.000   2.428
   41        0.904   1.529   0.000   2.433
   42        0.904   1.533   0.000   2.437
   43        0.903   1.524   0.000   2.426
   44        0.902   1.531   0.000   2.433
   45        0.904   1.539   0.000   2.443
   46        0.905   1.542   0.000   2.446
   47        0.903   1.535   0.000   2.437
   48        0.904   1.533   0.000   2.437
   49        0.904   1.533   0.000   2.438
   50        0.903   1.526   0.000   2.429
   51        0.903   1.527   0.000   2.430
   52        0.902   1.544   0.000   2.447
   53        0.904   1.542   0.000   2.446
   54        0.905   1.541   0.000   2.445
   55        0.903   1.537   0.000   2.441
   56        0.905   1.550   0.000   2.455
   57        0.906   1.550   0.000   2.455
   58        0.906   1.547   0.000   2.453
   59        0.907   1.554   0.000   2.461
   60        1.574   3.654   0.000   5.228
   61        1.570   3.649   0.000   5.220
   62        1.570   3.647   0.000   5.217
   63        1.570   3.651   0.000   5.221
   64        1.568   3.627   0.000   5.195
   65        1.569   3.629   0.000   5.198
   66        1.568   3.625   0.000   5.194
   67        1.569   3.624   0.000   5.193
   68        1.573   3.634   0.000   5.207
   69        1.568   3.635   0.000   5.203
   70        1.569   3.633   0.000   5.202
   71        1.569   3.638   0.000   5.207
   72        1.572   3.664   0.000   5.235
   73        1.571   3.643   0.000   5.214
   74        1.571   3.643   0.000   5.215
   75        1.572   3.651   0.000   5.223
   76        1.578   3.647   0.000   5.224
   77        1.572   3.666   0.000   5.239
   78        1.573   3.672   0.000   5.245
   79        1.572   3.666   0.000   5.238
   80        1.571   3.656   0.000   5.228
   81        1.571   3.645   0.000   5.216
   82        1.572   3.651   0.000   5.223
   83        1.570   3.639   0.000   5.209
   84        1.569   3.642   0.000   5.211
   85        1.570   3.648   0.000   5.219
   86        1.571   3.648   0.000   5.219
   87        1.570   3.650   0.000   5.221
   88        1.575   3.668   0.000   5.243
   89        1.571   3.650   0.000   5.221
   90        1.570   3.651   0.000   5.222
   91        1.572   3.648   0.000   5.220
   92        1.572   3.673   0.000   5.246
   93        1.573   3.670   0.000   5.243
   94        1.573   3.667   0.000   5.240
   95        1.573   3.667   0.000   5.240
   96        1.571   3.646   0.000   5.217
   97        1.569   3.630   0.000   5.198
   98        1.568   3.628   0.000   5.196
   99        1.568   3.626   0.000   5.194
  100        1.569   3.635   0.000   5.204
  101        1.569   3.641   0.000   5.210
  102        1.569   3.632   0.000   5.201
  103        1.569   3.639   0.000   5.209
  104        1.576   3.640   0.000   5.216
  105        1.572   3.650   0.000   5.222
  106        1.571   3.647   0.000   5.217
  107        1.570   3.644   0.000   5.214
  108        1.569   3.654   0.000   5.222
  109        1.568   3.642   0.000   5.210
  110        1.569   3.640   0.000   5.210
  111        1.568   3.645   0.000   5.214
  112        1.573   3.635   0.000   5.207
  113        1.574   3.644   0.000   5.218
  114        1.572   3.639   0.000   5.211
  115        1.574   3.641   0.000   5.215
  116        1.569   3.647   0.000   5.216
  117        1.570   3.653   0.000   5.223
  118        1.571   3.656   0.000   5.228
  119        1.569   3.652   0.000   5.220
  120        1.573   3.628   0.000   5.202
  121        1.572   3.637   0.000   5.209
  122        1.572   3.642   0.000   5.214
  123        1.573   3.646   0.000   5.218
  124        1.570   3.648   0.000   5.219
  125        1.572   3.651   0.000   5.222
  126        1.572   3.651   0.000   5.224
  127        1.572   3.649   0.000   5.221
  128        1.574   3.640   0.000   5.214
  129        1.574   3.623   0.000   5.197
  130        1.575   3.636   0.000   5.211
  131        1.572   3.645   0.000   5.217
  132        1.571   3.634   0.000   5.205
  133        1.569   3.651   0.000   5.221
  134        1.568   3.640   0.000   5.209
  135        1.568   3.642   0.000   5.210
  136        1.569   3.628   0.000   5.197
  137        1.573   3.641   0.000   5.215
  138        1.572   3.639   0.000   5.211
  139        1.572   3.642   0.000   5.214
  140        1.572   3.640   0.000   5.212
  141        1.572   3.649   0.000   5.220
  142        1.571   3.654   0.000   5.226
  143        1.571   3.640   0.000   5.211
  144        1.572   3.641   0.000   5.213
  145        1.574   3.646   0.000   5.219
  146        1.572   3.648   0.000   5.220
  147        1.572   3.644   0.000   5.217
  148        1.571   3.657   0.000   5.229
  149        1.570   3.648   0.000   5.218
  150        1.571   3.657   0.000   5.228
  151        1.570   3.654   0.000   5.225
  152        1.571   3.630   0.000   5.202
  153        1.574   3.638   0.000   5.212
  154        1.576   3.634   0.000   5.210
  155        1.574   3.639   0.000   5.213
--------------------------------------------------
tot        213.528 596.374  52.625 862.527
 


 magnetization (x)
 
# of ion       s       p       d       tot
------------------------------------------
    1        0.000   0.000   0.005   0.006
    2        0.000   0.000   0.010   0.011
    3        0.000   0.000   0.010   0.010
    4        0.000   0.000   0.010   0.010
    5        0.000   0.000   0.009   0.009
    6        0.000   0.000   0.008   0.009
    7        0.000   0.000   0.009   0.010
    8        0.000   0.000   0.009   0.009
    9        0.000   0.000   0.006   0.007
   10        0.000   0.000   0.007   0.007
   11        0.000   0.000   0.007   0.007
   12        0.000   0.000   0.007   0.008
   13        0.000   0.000   0.007   0.008
   14        0.000   0.000   0.007   0.008
   15        0.000   0.000   0.006   0.007
   16        0.000   0.000   0.008   0.008
   17        0.000   0.000   0.004   0.005
   18        0.000   0.000   0.005   0.006
   19        0.000   0.000   0.005   0.006
   20        0.009   0.011   2.243   2.263
   21        0.014   0.013   2.557   2.584
   22        0.013   0.013   2.529   2.555
   23        0.011   0.012   2.484   2.508
   24        0.014   0.013   2.610   2.636
   25        0.014   0.013   2.612   2.639
   26        0.014   0.013   2.593   2.619
   27        0.013   0.013   2.540   2.566
   28        0.013   0.013   2.554   2.580
   29        0.013   0.013   2.524   2.550
   30        0.012   0.013   2.473   2.498
   31        0.013   0.013   2.548   2.574
   32        0.012   0.013   2.444   2.468
   33        0.014   0.013   2.611   2.638
   34        0.012   0.013   2.522   2.547
   35        0.014   0.013   2.614   2.641
   36        0.003   0.006   0.000   0.010
   37        0.004   0.006   0.000   0.010
   38        0.004   0.007   0.000   0.011
   39        0.004   0.007   0.000   0.012
   40        0.003   0.007   0.000   0.010
   41        0.003   0.007   0.000   0.010
   42        0.003   0.007   0.000   0.011
   43        0.003   0.006   0.000   0.009
   44        0.004   0.010   0.000   0.014
   45        0.004   0.009   0.000   0.013
   46        0.004   0.009   0.000   0.013
   47        0.004   0.007   0.000   0.011
   48        0.003   0.007   0.000   0.010
   49        0.003   0.007   0.000   0.010
   50        0.002   0.006   0.000   0.008
   51        0.003   0.007   0.000   0.010
   52        0.003   0.008   0.000   0.012
   53        0.004   0.008   0.000   0.012
   54        0.004   0.008   0.000   0.013
   55        0.004   0.008   0.000   0.012
   56        0.004   0.008   0.000   0.011
   57        0.003   0.007   0.000   0.010
   58        0.004   0.008   0.000   0.012
   59        0.003   0.008   0.000   0.011
   60       -0.001  -0.003   0.000  -0.004
   61       -0.000  -0.002   0.000  -0.002
   62       -0.000  -0.001   0.000  -0.002
   63       -0.000  -0.000   0.000  -0.001
   64       -0.000   0.000   0.000   0.000
   65       -0.000  -0.001   0.000  -0.002
   66       -0.000  -0.003   0.000  -0.003
   67       -0.000  -0.000   0.000  -0.000
   68       -0.000   0.005   0.000   0.005
   69       -0.000  -0.001   0.000  -0.001
   70       -0.000  -0.001   0.000  -0.002
   71        0.000  -0.001   0.000  -0.001
   72        0.000  -0.001   0.000  -0.001
   73        0.000  -0.002   0.000  -0.002
   74        0.001  -0.000   0.000   0.000
   75        0.000  -0.001   0.000  -0.001
   76       -0.001  -0.006   0.000  -0.006
   77        0.000  -0.000   0.000  -0.000
   78        0.000   0.000   0.000   0.000
   79        0.000   0.000   0.000   0.000
   80        0.000   0.001   0.000   0.001
   81        0.000  -0.001   0.000  -0.000
   82        0.000  -0.001   0.000  -0.001
   83        0.000   0.000   0.000   0.000
   84       -0.000  -0.007   0.000  -0.007
   85       -0.000  -0.001   0.000  -0.001
   86       -0.000  -0.002   0.000  -0.002
   87       -0.000  -0.002   0.000  -0.003
   88       -0.000   0.001   0.000   0.000
   89        0.000  -0.001   0.000  -0.001
   90        0.000  -0.000   0.000  -0.000
   91        0.001  -0.001   0.000  -0.000
   92        0.000  -0.002   0.000  -0.002
   93        0.000   0.001   0.000   0.001
   94       -0.000  -0.000   0.000  -0.000
   95        0.000   0.002   0.000   0.002
   96       -0.000   0.000   0.000   0.000
   97       -0.000  -0.001   0.000  -0.002
   98        0.000  -0.001   0.000  -0.001
   99       -0.000  -0.000   0.000  -0.000
  100       -0.000  -0.000   0.000  -0.000
  101       -0.000  -0.001   0.000  -0.001
  102       -0.000  -0.001   0.000  -0.001
  103       -0.000  -0.001   0.000  -0.002
  104        0.000   0.002   0.000   0.002
  105        0.000  -0.000   0.000   0.000
  106        0.000  -0.001   0.000  -0.001
  107        0.000  -0.001   0.000  -0.000
  108       -0.000   0.006   0.000   0.005
  109       -0.000   0.004   0.000   0.004
  110       -0.000   0.003   0.000   0.003
  111       -0.000   0.004   0.000   0.004
  112       -0.001   0.006   0.000   0.005
  113       -0.001   0.005   0.000   0.004
  114       -0.001   0.006   0.000   0.005
  115       -0.001   0.003   0.000   0.003
  116       -0.001   0.011   0.000   0.010
  117       -0.001   0.009   0.000   0.008
  118       -0.001   0.008   0.000   0.007
  119       -0.001   0.008   0.000   0.007
  120       -0.000  -0.004   0.000  -0.004
  121       -0.000   0.004   0.000   0.004
  122        0.000   0.000   0.000   0.000
  123        0.000   0.001   0.000   0.001
  124        0.000   0.002   0.000   0.002
  125        0.000   0.002   0.000   0.003
  126        0.000   0.002   0.000   0.002
  127        0.000   0.003   0.000   0.003
  128       -0.001   0.002   0.000   0.001
  129       -0.000   0.003   0.000   0.003
  130       -0.000   0.007   0.000   0.006
  131       -0.001   0.007   0.000   0.007
  132       -0.000   0.002   0.000   0.002
  133       -0.000   0.005   0.000   0.005
  134       -0.000   0.004   0.000   0.004
  135       -0.000   0.004   0.000   0.004
  136       -0.000   0.003   0.000   0.003
  137        0.000   0.001   0.000   0.001
  138       -0.000   0.001   0.000   0.001
  139       -0.000   0.002   0.000   0.002
  140        0.000  -0.001   0.000  -0.000
  141        0.000   0.003   0.000   0.003
  142        0.000   0.003   0.000   0.003
  143        0.001   0.004   0.000   0.004
  144       -0.001   0.006   0.000   0.005
  145       -0.001   0.006   0.000   0.005
  146       -0.001   0.005   0.000   0.004
  147       -0.001   0.005   0.000   0.004
  148       -0.001   0.005   0.000   0.005
  149       -0.001   0.009   0.000   0.008
  150       -0.001   0.005   0.000   0.004
  151       -0.001   0.010   0.000   0.009
  152       -0.001   0.007   0.000   0.006
  153       -0.000   0.006   0.000   0.006
  154       -0.000   0.005   0.000   0.005
  155       -0.000   0.005   0.000   0.005
--------------------------------------------------
tot          0.277   0.552  40.599  41.428
 

 total amount of memory used by VASP MPI-rank0    79608. kBytes
=======================================================================

   base      :      30000. kBytes
   nonlr-proj:      21871. kBytes
   fftplans  :       2377. kBytes
   grid      :       9486. kBytes
   one-center:        217. kBytes
   wavefun   :      15657. kBytes
 
  
  
 General timing and accounting informations for this job:
 ========================================================
  
                  Total CPU time used (sec):     1858.137
                            User time (sec):     1846.538
                          System time (sec):       11.599
                         Elapsed time (sec):     1869.822
  
                   Maximum memory used (kb):      488476.
                   Average memory used (kb):           0.
  
                          Minor page faults:      1226265
                          Major page faults:            0
                 Voluntary context switches:         8702
