       N       E                     dE             d eps       ncg     rms          ort
DAV:   1     0.333242339332E+04    0.33324E+04   -0.14823E+05  6480   0.180E+03
DAV:   2     0.229131454438E+02   -0.33095E+04   -0.30410E+04  6480   0.482E+02
DAV:   3    -0.491591663776E+03   -0.51450E+03   -0.49967E+03  6480   0.204E+02
DAV:   4    -0.523907932832E+03   -0.32316E+02   -0.31193E+02  6480   0.471E+01
DAV:   5    -0.526173043197E+03   -0.22651E+01   -0.22212E+01  6480   0.892E+00
SDA:   6    -0.205517250996E+03    0.32066E+03   -0.22212E+01  6480   0.260E+04 0.000E+00
CGA:   7    -0.317753303662E+03   -0.11224E+03   -0.25163E+03  6480   0.425E+04-0.706E+03
CGA:   8    -0.318588461503E+03   -0.83516E+00   -0.16637E+03  6480   0.547E+03-0.821E+03
CGA:   9    -0.351327403244E+03   -0.32739E+02   -0.17080E+02  6480   0.423E+03 0.375E+03
CGA:  10    -0.377742712589E+03   -0.26415E+02   -0.17370E+02  6480   0.829E+03-0.681E+03
CGA:  11    -0.375745917086E+03    0.19968E+01   -0.67795E+02  6480   0.197E+03-0.459E+02
CGA:  12    -0.392838269291E+03   -0.17092E+02   -0.32130E+01  6480   0.526E+03 0.102E+04
CGA:  13    -0.403059469411E+03   -0.10221E+02   -0.18133E+02  6480   0.181E+02 0.152E+02
CGA:  14    -0.405456401743E+03   -0.23969E+01   -0.21982E+01  6480   0.363E+02-0.798E+00
CGA:  15    -0.406515275445E+03   -0.10589E+01   -0.16031E+01  6480   0.268E+02-0.853E+01
CGA:  16    -0.407605760017E+03   -0.10905E+01   -0.12127E+01  6480   0.956E+01-0.241E+01
CGA:  17    -0.408664322573E+03   -0.10586E+01   -0.11004E+01  6480   0.109E+02 0.109E+01
CGA:  18    -0.409117366413E+03   -0.45304E+00   -0.56881E+00  6480   0.131E+02-0.804E+01
CGA:  19    -0.409449970710E+03   -0.33260E+00   -0.43117E+00  6480   0.284E+01-0.193E+01
CGA:  20    -0.409739249102E+03   -0.28928E+00   -0.28957E+00  6480   0.273E+01 0.113E-01
CGA:  21    -0.409994120581E+03   -0.25487E+00   -0.24902E+00  6480   0.182E+01-0.350E-01
CGA:  22    -0.410152429166E+03   -0.15831E+00   -0.17013E+00  6480   0.103E+01 0.537E-01
CGA:  23    -0.410270334833E+03   -0.11791E+00   -0.12045E+00  6480   0.124E+01 0.641E-01
CGA:  24    -0.410427063139E+03   -0.15673E+00   -0.14902E+00  6480   0.121E+01-0.199E+00
CGA:  25    -0.410565178836E+03   -0.13812E+00   -0.13656E+00  6480   0.309E+00 0.984E-01
CGA:  26    -0.410648689046E+03   -0.83510E-01   -0.80677E-01  6480   0.632E+00 0.218E-01
CGA:  27    -0.410715036541E+03   -0.66347E-01   -0.57315E-01  6480   0.327E+00 0.261E-01
CGA:  28    -0.410750067517E+03   -0.35031E-01   -0.33666E-01  6480   0.355E+00-0.448E-02
CGA:  29    -0.410793075967E+03   -0.43008E-01   -0.43336E-01  6480   0.408E+00 0.307E-01
CGA:  30    -0.410844320498E+03   -0.51245E-01   -0.50617E-01  6480   0.136E+00-0.148E-01
CGA:  31    -0.410878900726E+03   -0.34580E-01   -0.33808E-01  6480   0.179E+00 0.418E-02
CGA:  32    -0.410892862788E+03   -0.13962E-01   -0.12291E-01  6480   0.129E+00 0.110E-01
CGA:  33    -0.410910085032E+03   -0.17222E-01   -0.17274E-01  6480   0.126E+00 0.406E-02
CGA:  34    -0.410919646765E+03   -0.95617E-02   -0.10091E-01  6480   0.109E+00-0.377E-02
CGA:  35    -0.410933207058E+03   -0.13560E-01   -0.13595E-01  6480   0.655E-01-0.178E-01
CGA:  36    -0.410941870500E+03   -0.86634E-02   -0.85307E-02  6480   0.712E-01 0.284E-02
CGA:  37    -0.410948100428E+03   -0.62299E-02   -0.57790E-02  6480   0.645E-01 0.172E-02
CGA:  38    -0.410954728765E+03   -0.66283E-02   -0.67008E-02  6480   0.358E-01 0.108E-02
CGA:  39    -0.410961932036E+03   -0.72033E-02   -0.73941E-02  6480   0.588E-01-0.233E-02
CGA:  40    -0.410964908801E+03   -0.29768E-02   -0.32158E-02  6480   0.274E-01-0.259E-02
CGA:  41    -0.410967733916E+03   -0.28251E-02   -0.27237E-02  6480   0.361E-01-0.137E-02
CGA:  42    -0.410971980139E+03   -0.42462E-02   -0.42493E-02  6480   0.204E-01 0.209E-02
CGA:  43    -0.410974194777E+03   -0.22146E-02   -0.22426E-02  6480   0.168E-01 0.896E-03
CGA:  44    -0.410978203929E+03   -0.40092E-02   -0.38453E-02  6480   0.156E-01 0.854E-03
CGA:  45    -0.410980293375E+03   -0.20894E-02   -0.20887E-02  6480   0.209E-01-0.461E-03
CGA:  46    -0.410981684397E+03   -0.13910E-02   -0.11208E-02  6480   0.216E-01 0.318E-02
CGA:  47    -0.410983332056E+03   -0.16477E-02   -0.16275E-02  6480   0.204E-01 0.439E-03
CGA:  48    -0.410984356327E+03   -0.10243E-02   -0.11119E-02  6480   0.203E-01-0.783E-03
SDA:  49    -0.410985491024E+03   -0.11347E-02   -0.98037E-03  6480   0.114E-01 0.210E-02
CGA:  50    -0.410987639628E+03   -0.21486E-02   -0.22140E-02  6480   0.687E-01-0.763E-03
CGA:  51    -0.410992054283E+03   -0.44147E-02   -0.46569E-02  6480   0.315E-01-0.101E-03
CGA:  52    -0.410993315821E+03   -0.12615E-02   -0.14445E-02  6480   0.330E-01-0.279E-02
CGA:  53    -0.410996211282E+03   -0.28955E-02   -0.28332E-02  6480   0.710E-02-0.123E-02
CGA:  54    -0.410997541362E+03   -0.13301E-02   -0.14092E-02  6480   0.112E-01-0.840E-03
CGA:  55    -0.410998035648E+03   -0.49429E-03   -0.51601E-03  6480   0.104E-01-0.335E-03
CGA:  56    -0.410999251163E+03   -0.12155E-02   -0.12145E-02  6480   0.123E-01 0.332E-03
CGA:  57    -0.411000380611E+03   -0.11294E-02   -0.11529E-02  6480   0.486E-02 0.938E-03
CGA:  58    -0.411003354977E+03   -0.29744E-02   -0.10717E-04  6480   0.454E-01-0.127E-02
CGA:  59    -0.411004252580E+03   -0.89760E-03   -0.65057E-03  6480   0.272E-01 0.119E-01
CGA:  60    -0.411005463883E+03   -0.12113E-02   -0.10791E-02  6480   0.338E-01 0.352E-02
CGA:  61    -0.411007551043E+03   -0.20872E-02   -0.20470E-02  6480   0.738E-01-0.545E-03
CGA:  62    -0.411009693194E+03   -0.21422E-02   -0.26337E-02  6480   0.677E-01-0.143E-01
CGA:  63    -0.411011341022E+03   -0.16478E-02   -0.19327E-02  6480   0.817E-01-0.714E-02
CGA:  64    -0.411013638583E+03   -0.22976E-02   -0.17481E-02  6480   0.656E-01 0.263E-01
CGA:  65    -0.411015875371E+03   -0.22368E-02   -0.18453E-02  6480   0.432E-01 0.224E-01
CGA:  66    -0.411017856236E+03   -0.19809E-02   -0.21606E-02  6480   0.610E-01-0.982E-03
CGA:  67    -0.411019138143E+03   -0.12819E-02   -0.21488E-02  6480   0.774E-01-0.163E-01
CGA:  68    -0.411020385248E+03   -0.12471E-02   -0.17362E-02  6480   0.979E-01-0.720E-02
CGA:  69    -0.411023727661E+03   -0.33424E-02   -0.30800E-02  6480   0.120E+00 0.685E-02
CGA:  70    -0.411027265632E+03   -0.35380E-02   -0.29774E-02  6480   0.655E-01 0.147E-01
CGA:  71    -0.411028817703E+03   -0.15521E-02   -0.12104E-02  6480   0.379E-01 0.154E-01
CGA:  72    -0.411030281331E+03   -0.14636E-02   -0.12327E-02  6480   0.579E-01 0.513E-02
CGA:  73    -0.411032641346E+03   -0.23600E-02   -0.19680E-02  6480   0.116E+00 0.798E-02
CGA:  74    -0.411035658843E+03   -0.30175E-02   -0.25718E-02  6480   0.113E+00 0.157E-01
CGA:  75    -0.411037685352E+03   -0.20265E-02   -0.22166E-02  6480   0.708E-01-0.106E-01
CGA:  76    -0.411038790613E+03   -0.11053E-02   -0.13253E-02  6480   0.806E-01-0.809E-02
CGA:  77    -0.411040627078E+03   -0.18365E-02   -0.21522E-02  6480   0.114E+00-0.746E-02
CGA:  78    -0.411042957241E+03   -0.23302E-02   -0.21351E-02  6480   0.845E-01 0.818E-02
CGA:  79    -0.411044847968E+03   -0.18907E-02   -0.15799E-02  6480   0.712E-01 0.177E-01
SDA:  80    -0.411047083080E+03   -0.22351E-02   -0.19436E-02  6480   0.930E-01 0.144E-01
CGA:  81    -0.411050938233E+03   -0.38552E-02   -0.39720E-02  6480   0.581E-01-0.792E-03
CGA:  82    -0.411057713300E+03   -0.67751E-02   -0.66912E-02  6480   0.286E-01 0.246E-02
CGA:  83    -0.411063001429E+03   -0.52881E-02   -0.53161E-02  6480   0.377E-01-0.403E-03
CGA:  84    -0.411067474133E+03   -0.44727E-02   -0.45180E-02  6480   0.310E-01-0.107E-02
CGA:  85    -0.411069356325E+03   -0.18822E-02   -0.18927E-02  6480   0.329E-01-0.849E-05
CGA:  86    -0.411072681579E+03   -0.33253E-02   -0.33302E-02  6480   0.865E-02-0.707E-04
CGA:  87    -0.411074160741E+03   -0.14792E-02   -0.14094E-02  6480   0.187E-01 0.950E-03
CGA:  88    -0.411075205864E+03   -0.10451E-02   -0.10572E-02  6480   0.634E-02 0.798E-03
CGA:  89    -0.411075951431E+03   -0.74557E-03   -0.73562E-03  6480   0.933E-02 0.454E-03
CGA:  90    -0.411077250066E+03   -0.12986E-02   -0.12996E-02  6480   0.193E-01 0.306E-04
CGA:  91    -0.411078490154E+03   -0.12401E-02   -0.12615E-02  6480   0.451E-02 0.935E-04
CGA:  92    -0.411079375557E+03   -0.88540E-03   -0.92804E-03  6480   0.195E-01-0.415E-03
CGA:  93    -0.411080439386E+03   -0.10638E-02   -0.10897E-02  6480   0.686E-02-0.367E-03
CGA:  94    -0.411081327567E+03   -0.88818E-03   -0.87599E-03  6480   0.765E-02 0.386E-03
CGA:  95    -0.411081957207E+03   -0.62964E-03   -0.63440E-03  6480   0.998E-02 0.574E-03
CGA:  96    -0.411082562975E+03   -0.60577E-03   -0.64940E-03  6480   0.616E-02 0.646E-03
CGA:  97    -0.411083683947E+03   -0.11210E-02   -0.10742E-02  6480   0.381E-02 0.724E-03
CGA:  98    -0.411084018640E+03   -0.33469E-03   -0.33685E-03  6480   0.773E-02 0.252E-03
CGA:  99    -0.411084688060E+03   -0.66942E-03   -0.68324E-03  6480   0.413E-02 0.729E-03
CGA: 100    -0.411084946975E+03   -0.25891E-03   -0.27688E-03  6480   0.436E-02 0.388E-03
CGA: 101    -0.411085173626E+03   -0.22665E-03   -0.24654E-03  6480   0.346E-02 0.675E-03
CGA: 102    -0.411085555477E+03   -0.38185E-03   -0.37946E-03  6480   0.384E-02 0.114E-02
CGA: 103    -0.411085725546E+03   -0.17007E-03   -0.20362E-03  6480   0.173E-02 0.376E-03
CGA: 104    -0.411086074890E+03   -0.34934E-03   -0.29859E-03  6480   0.127E-02 0.759E-03
CGA: 105    -0.411086292889E+03   -0.21800E-03   -0.21073E-03  6480   0.346E-02 0.317E-03
CGA: 106    -0.411086577317E+03   -0.28443E-03   -0.29092E-03  6480   0.665E-03 0.480E-03
CGA: 107    -0.411086759542E+03   -0.18222E-03   -0.14853E-03  6480   0.868E-03 0.328E-03
CGA: 108    -0.411086821999E+03   -0.62457E-04   -0.68689E-04  6480   0.830E-03 0.167E-03
CGA: 109    -0.411086927429E+03   -0.10543E-03   -0.10299E-03  6480   0.400E-03 0.301E-03
CGA: 110    -0.411087007020E+03   -0.79591E-04   -0.72341E-04  6480   0.470E-03 0.200E-03
CGA: 111    -0.411087040002E+03   -0.32981E-04   -0.32387E-04  6480   0.411E-03-0.149E-04
CGA: 112    -0.411087075809E+03   -0.35808E-04   -0.35559E-04  6480   0.813E-03-0.336E-04
CGA: 113    -0.411087145867E+03   -0.70057E-04   -0.70133E-04  6480   0.295E-03 0.334E-04
CGA: 114    -0.411087186036E+03   -0.40170E-04   -0.36848E-04  6480   0.562E-03 0.143E-03
CGA: 115    -0.411087238709E+03   -0.52673E-04   -0.57262E-04  6480   0.429E-03 0.151E-03
CGA: 116    -0.411087270896E+03   -0.32187E-04   -0.35254E-04  6480   0.279E-03 0.105E-03
CGA: 117    -0.411087343141E+03   -0.72245E-04   -0.68050E-04  6480   0.952E-03 0.433E-04
CGA: 118    -0.411087410866E+03   -0.67725E-04   -0.67207E-04  6480   0.575E-03 0.743E-04
CGA: 119    -0.411087506773E+03   -0.95907E-04   -0.89692E-04  6480   0.540E-03 0.130E-03
CGA: 120    -0.411087541860E+03   -0.35087E-04   -0.38523E-04  6480   0.557E-03 0.112E-03
CGA: 121    -0.411087612799E+03   -0.70939E-04   -0.69631E-04  6480   0.335E-03 0.230E-03
CGA: 122    -0.411087668456E+03   -0.55657E-04   -0.53411E-04  6480   0.195E-03 0.157E-03
CGA: 123    -0.411087707834E+03   -0.39378E-04   -0.35913E-04  6480   0.135E-03 0.133E-03
CGA: 124    -0.411087727542E+03   -0.19708E-04   -0.19962E-04  6480   0.327E-03-0.537E-05
CGA: 125    -0.411087744233E+03   -0.16691E-04   -0.17457E-04  6480   0.238E-03 0.177E-04
CGA: 126    -0.411087767899E+03   -0.23666E-04   -0.23694E-04  6480   0.208E-03 0.332E-05
CGA: 127    -0.411087801146E+03   -0.33247E-04   -0.33599E-04  6480   0.348E-03-0.599E-05
CGA: 128    -0.411087811709E+03   -0.10563E-04   -0.12844E-04  6480   0.196E-03 0.376E-04
CGA: 129    -0.411087831350E+03   -0.19641E-04   -0.20278E-04  6480   0.143E-03 0.981E-04
CGA: 130    -0.411087836080E+03   -0.47295E-05   -0.43343E-05  6480   0.497E-04-0.592E-05
   1 F= -.41108784E+03 E0= -.41108391E+03  d E =-.411088E+03  mag=    14.0000
       N       E                     dE             d eps       ncg     rms          ort
SDA:   1    -0.411087658007E+03    0.17334E-03    0.00000E+00  6480   0.344E-02 0.000E+00
CGA:   2    -0.411087797094E+03   -0.13909E-03   -0.14521E-03  6480   0.648E-03-0.606E-06
CGA:   3    -0.411087819772E+03   -0.22677E-04   -0.25405E-04  6480   0.356E-03 0.528E-04
CGA:   4    -0.411087856534E+03   -0.36762E-04   -0.36632E-04  6480   0.165E-03 0.451E-04
CGA:   5    -0.411087886326E+03   -0.29792E-04   -0.33142E-04  6480   0.376E-03-0.393E-04
CGA:   6    -0.411087892602E+03   -0.62761E-05   -0.66298E-05  6480   0.938E-04 0.593E-05
   2 F= -.41108789E+03 E0= -.41108395E+03  d E =-.565223E-04  mag=    14.0000
       N       E                     dE             d eps       ncg     rms          ort
SDA:   1    -0.411085763044E+03    0.21233E-02    0.00000E+00  6480   0.983E-01 0.000E+00
CGA:   2    -0.411087842654E+03   -0.20796E-02   -0.19594E-02  6480   0.978E-03 0.595E-02
CGA:   3    -0.411087877869E+03   -0.35215E-04   -0.36199E-04  6480   0.468E-03 0.320E-04
CGA:   4    -0.411087903464E+03   -0.25595E-04   -0.25468E-04  6480   0.241E-03-0.544E-05
CGA:   5    -0.411087922788E+03   -0.19325E-04   -0.19346E-04  6480   0.186E-03 0.237E-04
CGA:   6    -0.411087928740E+03   -0.59525E-05   -0.77574E-05  6480   0.118E-03 0.413E-04
   3 F= -.41108793E+03 E0= -.41108398E+03  d E =-.361386E-04  mag=    14.0000
       N       E                     dE             d eps       ncg     rms          ort
SDA:   1    -0.411082807467E+03    0.51153E-02    0.00000E+00  6480   0.731E-01 0.000E+00
CGA:   2    -0.411084576064E+03   -0.17686E-02   -0.17232E-02  6480   0.101E-01 0.234E-02
CGA:   3    -0.411086446998E+03   -0.18709E-02   -0.18294E-02  6480   0.968E-02 0.420E-03
CGA:   4    -0.411086946297E+03   -0.49930E-03   -0.50424E-03  6480   0.699E-02 0.221E-04
CGA:   5    -0.411087328659E+03   -0.38236E-03   -0.38402E-03  6480   0.350E-02 0.134E-03
CGA:   6    -0.411087643929E+03   -0.31527E-03   -0.31610E-03  6480   0.851E-03-0.765E-04
CGA:   7    -0.411087724699E+03   -0.80771E-04   -0.82146E-04  6480   0.146E-02-0.704E-04
CGA:   8    -0.411087775320E+03   -0.50620E-04   -0.50430E-04  6480   0.230E-03 0.115E-05
CGA:   9    -0.411087791924E+03   -0.16604E-04   -0.16519E-04  6480   0.225E-03-0.131E-04
CGA:  10    -0.411087803379E+03   -0.11455E-04   -0.10816E-04  6480   0.203E-03-0.243E-04
CGA:  11    -0.411087814682E+03   -0.11303E-04   -0.11464E-04  6480   0.607E-04 0.123E-04
CGA:  12    -0.411087816196E+03   -0.15134E-05   -0.21318E-05  6480   0.454E-04 0.147E-04
   4 F= -.41108782E+03 E0= -.41108386E+03  d E =0.112545E-03  mag=    14.0000
       N       E                     dE             d eps       ncg     rms          ort
SDA:   1    -0.411085001440E+03    0.28132E-02    0.00000E+00  6480   0.986E-01 0.000E+00
CGA:   2    -0.411087113931E+03   -0.21125E-02   -0.20328E-02  6480   0.237E-02 0.396E-02
CGA:   3    -0.411087450291E+03   -0.33636E-03   -0.33248E-03  6480   0.622E-02 0.626E-04
CGA:   4    -0.411087704138E+03   -0.25385E-03   -0.25083E-03  6480   0.118E-02-0.991E-04
CGA:   5    -0.411087852808E+03   -0.14867E-03   -0.15331E-03  6480   0.102E-02-0.790E-04
CGA:   6    -0.411087895639E+03   -0.42831E-04   -0.43424E-04  6480   0.514E-03 0.235E-04
CGA:   7    -0.411087919628E+03   -0.23989E-04   -0.24195E-04  6480   0.208E-03 0.593E-05
CGA:   8    -0.411087936906E+03   -0.17278E-04   -0.16872E-04  6480   0.667E-04 0.566E-04
CGA:   9    -0.411087940766E+03   -0.38605E-05   -0.42004E-05  6480   0.613E-04 0.144E-04
   5 F= -.41108794E+03 E0= -.41108398E+03  d E =-.124571E-03  mag=    14.0000
       N       E                     dE             d eps       ncg     rms          ort
SDA:   1    -0.411085224306E+03    0.27126E-02    0.00000E+00  6480   0.105E+00 0.000E+00
CGA:   2    -0.411087654376E+03   -0.24301E-02   -0.25757E-02  6480   0.647E-02-0.528E-02
CGA:   3    -0.411087864815E+03   -0.21044E-03   -0.20949E-03  6480   0.333E-03 0.992E-04
CGA:   4    -0.411087903957E+03   -0.39142E-04   -0.47610E-04  6480   0.997E-03-0.120E-03
CGA:   5    -0.411087924735E+03   -0.20778E-04   -0.19486E-04  6480   0.384E-03-0.287E-04
CGA:   6    -0.411087933189E+03   -0.84536E-05   -0.92924E-05  6480   0.233E-03 0.189E-04
CGA:   7    -0.411087942957E+03   -0.97686E-05   -0.10550E-04  6480   0.208E-03 0.302E-04
   6 F= -.41108794E+03 E0= -.41108398E+03  d E =-.219088E-05  mag=    14.0000
