       N       E                     dE             d eps       ncg     rms          ort
DAV:   1     0.274926094921E+04    0.27493E+04   -0.14579E+05  7392   0.164E+03
DAV:   2    -0.111475703307E+03   -0.28607E+04   -0.26561E+04  7392   0.431E+02
DAV:   3    -0.452122453782E+03   -0.34065E+03   -0.33438E+03  7392   0.169E+02
DAV:   4    -0.466883731283E+03   -0.14761E+02   -0.14372E+02  7392   0.327E+01
DAV:   5    -0.467762340629E+03   -0.87861E+00   -0.86843E+00  7392   0.587E+00
SDA:   6    -0.245729312274E+03    0.22203E+03   -0.86843E+00  7392   0.588E+03 0.000E+00
CGA:   7    -0.331107176155E+03   -0.85378E+02   -0.71242E+02  7392   0.433E+03-0.111E+03
CGA:   8    -0.322197104021E+03    0.89101E+01   -0.23837E+02  7392   0.327E+03-0.147E+03
CGA:   9    -0.329327041351E+03   -0.71299E+01   -0.13544E+02  7392   0.476E+03-0.223E+03
CGA:  10    -0.335888858940E+03   -0.65618E+01   -0.36883E+02  7392   0.252E+03-0.106E+03
CGA:  11    -0.348595418562E+03   -0.12707E+02   -0.81230E+01  7392   0.167E+03 0.140E+03
CGA:  12    -0.352808421126E+03   -0.42130E+01   -0.55401E+01  7392   0.200E+03-0.244E+03
CGA:  13    -0.345034466627E+03    0.77740E+01   -0.11686E+02  7392   0.277E+03-0.118E+03
CGA:  14    -0.349894619167E+03   -0.48602E+01   -0.11102E+02  7392   0.283E+03-0.341E+03
CGA:  15    -0.345439149884E+03    0.44555E+01   -0.14373E+02  7392   0.254E+03-0.195E+03
CGA:  16    -0.350469052319E+03   -0.50299E+01   -0.10202E+02  7392   0.294E+03-0.369E+03
CGA:  17    -0.346795671614E+03    0.36734E+01   -0.13804E+02  7392   0.263E+03-0.219E+03
CGA:  18    -0.348840217946E+03   -0.20445E+01   -0.10692E+02  7392   0.412E+03-0.441E+03
CGA:  19    -0.345686599485E+03    0.31536E+01   -0.19945E+02  7392   0.244E+03-0.199E+03
CGA:  20    -0.359295178395E+03   -0.13609E+02   -0.39886E+01  7392   0.223E+02 0.239E+02
CGA:  21    -0.359687820449E+03   -0.39264E+00   -0.38863E+00  7392   0.121E+02 0.781E+00
CGA:  22    -0.359862565439E+03   -0.17474E+00   -0.13265E+00  7392   0.474E+01 0.365E+01
CGA:  23    -0.359932247720E+03   -0.69682E-01   -0.14889E+00  7392   0.104E+02-0.265E+01
CGA:  24    -0.360108291182E+03   -0.17604E+00   -0.29078E+00  7392   0.617E+01-0.323E+01
CGA:  25    -0.360871018908E+03   -0.76273E+00   -0.63744E+00  7392   0.277E+01 0.187E+01
CGA:  26    -0.361113124874E+03   -0.24211E+00   -0.25945E+00  7392   0.470E+01 0.367E-01
CGA:  27    -0.361415020292E+03   -0.30190E+00   -0.25788E+00  7392   0.345E+01 0.793E+00
CGA:  28    -0.361603259034E+03   -0.18824E+00   -0.15397E+00  7392   0.167E+01 0.127E+01
CGA:  29    -0.361714647767E+03   -0.11139E+00   -0.10660E+00  7392   0.165E+01 0.995E-01
CGA:  30    -0.361930539198E+03   -0.21589E+00   -0.21540E+00  7392   0.126E+01-0.338E-01
CGA:  31    -0.362038261167E+03   -0.10772E+00   -0.11116E+00  7392   0.473E+00 0.197E+00
CGA:  32    -0.362131887424E+03   -0.93626E-01   -0.83724E-01  7392   0.217E+00 0.135E+00
CGA:  33    -0.362194157710E+03   -0.62270E-01   -0.51726E-01  7392   0.907E-01 0.100E+00
CGA:  34    -0.362242600248E+03   -0.48443E-01   -0.42083E-01  7392   0.341E-01 0.311E-01
CGA:  35    -0.362264956677E+03   -0.22356E-01   -0.22125E-01  7392   0.229E-01 0.909E-03
CGA:  36    -0.362273722185E+03   -0.87655E-02   -0.83025E-02  7392   0.133E-01 0.227E-02
CGA:  37    -0.362288240529E+03   -0.14518E-01   -0.11068E-02  7392   0.207E-01 0.941E-03
CGA:  38    -0.362303572939E+03   -0.15332E-01   -0.15300E-01  7392   0.385E-01-0.699E-03
CGA:  39    -0.362325839389E+03   -0.22266E-01   -0.24909E-01  7392   0.512E-01-0.773E-02
CGA:  40    -0.362342037128E+03   -0.16198E-01   -0.16689E-01  7392   0.388E-01-0.451E-02
CGA:  41    -0.362355208579E+03   -0.13171E-01   -0.13090E-01  7392   0.343E-01 0.649E-03
CGA:  42    -0.362366522937E+03   -0.11314E-01   -0.11283E-01  7392   0.200E-01 0.295E-02
CGA:  43    -0.362373674894E+03   -0.71520E-02   -0.71126E-02  7392   0.140E-01 0.276E-02
CGA:  44    -0.362379156265E+03   -0.54814E-02   -0.54612E-02  7392   0.909E-02 0.760E-03
CGA:  45    -0.362382439036E+03   -0.32828E-02   -0.32543E-02  7392   0.610E-02 0.102E-02
CGA:  46    -0.362384694394E+03   -0.22554E-02   -0.22436E-02  7392   0.445E-02 0.744E-03
CGA:  47    -0.362386988177E+03   -0.22938E-02   -0.23832E-02  7392   0.437E-02-0.632E-03
CGA:  48    -0.362388383188E+03   -0.13950E-02   -0.14458E-02  7392   0.406E-02-0.954E-03
CGA:  49    -0.362389353679E+03   -0.97049E-03   -0.96379E-03  7392   0.337E-02-0.321E-03
CGA:  50    -0.362390423860E+03   -0.10702E-02   -0.10733E-02  7392   0.327E-02-0.142E-03
CGA:  51    -0.362391764513E+03   -0.13407E-02   -0.14461E-02  7392   0.378E-02-0.705E-03
CGA:  52    -0.362392803549E+03   -0.10390E-02   -0.10479E-02  7392   0.401E-02-0.416E-03
CGA:  53    -0.362394050722E+03   -0.12472E-02   -0.12509E-02  7392   0.423E-02-0.159E-03
SDA:  54    -0.362395452483E+03   -0.14018E-02   -0.14084E-02  7392   0.404E-02-0.407E-03
CGA:  55    -0.362397773481E+03   -0.23210E-02   -0.23349E-02  7392   0.375E-02-0.619E-04
CGA:  56    -0.362398684833E+03   -0.91135E-03   -0.10052E-02  7392   0.133E-02 0.895E-03
CGA:  57    -0.362399240131E+03   -0.55530E-03   -0.55749E-03  7392   0.671E-03 0.249E-03
CGA:  58    -0.362399225757E+03    0.14374E-04   -0.70761E-03  7392   0.513E-02-0.123E-02
CGA:  59    -0.362399746435E+03   -0.52068E-03   -0.91467E-03  7392   0.127E-02 0.889E-03
CGA:  60    -0.362399889172E+03   -0.14274E-03   -0.28107E-03  7392   0.421E-03 0.206E-03
CGA:  61    -0.362400121066E+03   -0.23189E-03   -0.24109E-03  7392   0.385E-03-0.131E-03
CGA:  62    -0.362400232591E+03   -0.11153E-03   -0.10709E-03  7392   0.229E-03 0.956E-04
CGA:  63    -0.362400314806E+03   -0.82215E-04   -0.86979E-04  7392   0.125E-03 0.820E-04
CGA:  64    -0.362400445404E+03   -0.13060E-03    0.44294E-03  7392   0.892E-04 0.532E-04
CGA:  65    -0.362400549799E+03   -0.10440E-03    0.16389E-03  7392   0.105E-03 0.736E-04
CGA:  66    -0.362400549873E+03   -0.73444E-07   -0.15648E-04  7392   0.585E-04 0.665E-04
CGA:  67    -0.362400564107E+03   -0.14234E-04   -0.16841E-04  7392   0.343E-04 0.381E-04
CGA:  68    -0.362400588858E+03   -0.24752E-04    0.14337E-03  7392   0.291E-04 0.308E-04
CGA:  69    -0.362400608007E+03   -0.19149E-04   -0.14791E-04  7392   0.271E-04 0.268E-04
CGA:  70    -0.362400639242E+03   -0.31234E-04    0.76906E-05  7392   0.261E-04 0.225E-04
CGA:  71    -0.362400639815E+03   -0.57320E-06   -0.46081E-05  7392   0.229E-04 0.229E-04
CGA:  72    -0.362400658183E+03   -0.18368E-04    0.24590E-04  7392   0.217E-04 0.224E-04
CGA:  73    -0.362400684832E+03   -0.26648E-04   -0.17791E-04  7392   0.277E-04 0.183E-04
CGA:  74    -0.362400715411E+03   -0.30579E-04    0.10308E-04  7392   0.248E-04 0.124E-04
CGA:  75    -0.362400729596E+03   -0.14185E-04   -0.13783E-04  7392   0.188E-04 0.291E-04
CGA:  76    -0.362400745073E+03   -0.15477E-04    0.30496E-04  7392   0.167E-04 0.135E-04
CGA:  77    -0.362400748803E+03   -0.37297E-05   -0.48015E-05  7392   0.150E-04 0.125E-04
   1 F= -.36240075E+03 E0= -.36240075E+03  d E =-.362401E+03  mag=    16.0000
       N       E                     dE             d eps       ncg     rms          ort
SDA:   1    -0.362401092252E+03   -0.34718E-03    0.00000E+00  7392   0.191E-02 0.000E+00
CGA:   2    -0.362401626132E+03   -0.53388E-03   -0.54161E-03  7392   0.764E-03 0.950E-04
CGA:   3    -0.362401778107E+03   -0.15197E-03   -0.15016E-03  7392   0.324E-03-0.107E-04
CGA:   4    -0.362401838437E+03   -0.60330E-04   -0.56816E-04  7392   0.101E-03-0.202E-04
CGA:   5    -0.362401863805E+03   -0.25368E-04   -0.23288E-04  7392   0.722E-04-0.211E-04
CGA:   6    -0.362401880987E+03   -0.17182E-04   -0.16157E-04  7392   0.650E-04-0.183E-04
CGA:   7    -0.362401898159E+03   -0.17172E-04   -0.17229E-04  7392   0.622E-04-0.319E-05
CGA:   8    -0.362401915291E+03   -0.17132E-04   -0.17670E-04  7392   0.440E-04 0.137E-04
CGA:   9    -0.362401937802E+03   -0.22511E-04   -0.21882E-04  7392   0.470E-04 0.858E-05
CGA:  10    -0.362401966550E+03   -0.28748E-04   -0.30644E-04  7392   0.911E-04-0.954E-05
CGA:  11    -0.362401989972E+03   -0.23422E-04   -0.23548E-04  7392   0.852E-04 0.515E-05
CGA:  12    -0.362402013751E+03   -0.23778E-04   -0.24711E-04  7392   0.743E-04 0.124E-04
CGA:  13    -0.362402046949E+03   -0.33198E-04   -0.33397E-04  7392   0.688E-04-0.562E-05
CGA:  14    -0.362402073652E+03   -0.26703E-04   -0.30726E-04  7392   0.893E-04-0.324E-04
CGA:  15    -0.362402085916E+03   -0.12264E-04   -0.11370E-04  7392   0.701E-04-0.107E-04
CGA:  16    -0.362402099775E+03   -0.13859E-04   -0.13928E-04  7392   0.466E-04-0.947E-06
CGA:  17    -0.362402113819E+03   -0.14044E-04   -0.13841E-04  7392   0.338E-04-0.566E-05
CGA:  18    -0.362402121323E+03   -0.75034E-05   -0.72326E-05  7392   0.188E-04-0.298E-05
   2 F= -.36240212E+03 E0= -.36240212E+03  d E =-.137252E-02  mag=    16.0000
       N       E                     dE             d eps       ncg     rms          ort
SDA:   1    -0.362395366175E+03    0.67476E-02    0.00000E+00  7392   0.222E-01 0.000E+00
CGA:   2    -0.362401845418E+03   -0.64792E-02   -0.64927E-02  7392   0.930E-02 0.372E-03
CGA:   3    -0.362403512680E+03   -0.16673E-02   -0.16626E-02  7392   0.353E-02-0.332E-04
CGA:   4    -0.362404102926E+03   -0.59025E-03   -0.57730E-03  7392   0.905E-03-0.848E-04
CGA:   5    -0.362404280631E+03   -0.17770E-03   -0.16979E-03  7392   0.340E-03-0.670E-04
CGA:   6    -0.362404347950E+03   -0.67319E-04   -0.63653E-04  7392   0.120E-03-0.358E-04
CGA:   7    -0.362404374282E+03   -0.26333E-04   -0.26264E-04  7392   0.465E-04-0.128E-05
CGA:   8    -0.362404381907E+03   -0.76242E-05   -0.87269E-05  7392   0.139E-04 0.103E-04
   3 F= -.36240438E+03 E0= -.36240438E+03  d E =-.226058E-02  mag=    16.0000
       N       E                     dE             d eps       ncg     rms          ort
SDA:   1    -0.362392495514E+03    0.11879E-01    0.00000E+00  7392   0.335E-01 0.000E+00
CGA:   2    -0.362400887261E+03   -0.83917E-02   -0.84138E-02  7392   0.172E-01 0.605E-03
CGA:   3    -0.362403764011E+03   -0.28768E-02   -0.28838E-02  7392   0.512E-02 0.519E-04
CGA:   4    -0.362404699602E+03   -0.93559E-03   -0.91861E-03  7392   0.137E-02-0.171E-03
CGA:   5    -0.362404971123E+03   -0.27152E-03   -0.25988E-03  7392   0.481E-03-0.150E-03
CGA:   6    -0.362405064029E+03   -0.92906E-04   -0.88928E-04  7392   0.175E-03-0.636E-04
CGA:   7    -0.362405094015E+03   -0.29985E-04   -0.30586E-04  7392   0.555E-04 0.915E-05
CGA:   8    -0.362405102958E+03   -0.89433E-05   -0.10413E-04  7392   0.182E-04 0.171E-04
   4 F= -.36240510E+03 E0= -.36240510E+03  d E =-.721052E-03  mag=    16.0000
       N       E                     dE             d eps       ncg     rms          ort
SDA:   1    -0.362395401877E+03    0.96921E-02    0.00000E+00  7392   0.287E-01 0.000E+00
CGA:   2    -0.362401876653E+03   -0.64748E-02   -0.64923E-02  7392   0.155E-01 0.558E-03
CGA:   3    -0.362404526075E+03   -0.26494E-02   -0.26594E-02  7392   0.429E-02 0.107E-03
CGA:   4    -0.362405294302E+03   -0.76823E-03   -0.75572E-03  7392   0.111E-02-0.166E-03
CGA:   5    -0.362405511185E+03   -0.21688E-03   -0.20903E-03  7392   0.376E-03-0.154E-03
CGA:   6    -0.362405578136E+03   -0.66951E-04   -0.64757E-04  7392   0.125E-03-0.491E-04
CGA:   7    -0.362405595952E+03   -0.17817E-04   -0.18937E-04  7392   0.339E-04 0.164E-04
CGA:   8    -0.362405600609E+03   -0.46566E-05   -0.59101E-05  7392   0.131E-04 0.147E-04
   5 F= -.36240560E+03 E0= -.36240560E+03  d E =-.497651E-03  mag=    16.0000
       N       E                     dE             d eps       ncg     rms          ort
SDA:   1    -0.362203828864E+03    0.20177E+00    0.00000E+00  7392   0.558E+00 0.000E+00
CGA:   2    -0.362334356366E+03   -0.13053E+00   -0.13052E+00  7392   0.322E+00 0.279E-02
CGA:   3    -0.362387836695E+03   -0.53480E-01   -0.53518E-01  7392   0.850E-01 0.424E-03
CGA:   4    -0.362401879040E+03   -0.14042E-01   -0.14002E-01  7392   0.202E-01-0.649E-03
CGA:   5    -0.362405407199E+03   -0.35282E-02   -0.35090E-02  7392   0.566E-02-0.383E-03
CGA:   6    -0.362406462680E+03   -0.10555E-02   -0.10533E-02  7392   0.166E-02-0.685E-04
CGA:   7    -0.362406803454E+03   -0.34077E-03   -0.34158E-03  7392   0.530E-03 0.587E-04
CGA:   8    -0.362406933915E+03   -0.13046E-03   -0.12974E-03  7392   0.203E-03 0.455E-04
CGA:   9    -0.362406999218E+03   -0.65303E-04   -0.65007E-04  7392   0.948E-04 0.393E-05
CGA:  10    -0.362407031951E+03   -0.32733E-04   -0.36896E-04  7392   0.661E-04-0.267E-04
CGA:  11    -0.362407045442E+03   -0.13491E-04   -0.14666E-04  7392   0.288E-04-0.156E-04
CGA:  12    -0.362407051116E+03   -0.56747E-05   -0.56680E-05  7392   0.117E-04 0.307E-06
   6 F= -.36240705E+03 E0= -.36240705E+03  d E =-.145051E-02  mag=    16.0000
       N       E                     dE             d eps       ncg     rms          ort
SDA:   1    -0.362165223785E+03    0.24182E+00    0.00000E+00  7392   0.622E+00 0.000E+00
CGA:   2    -0.362336860371E+03   -0.17164E+00   -0.17154E+00  7392   0.320E+00 0.313E-02
CGA:   3    -0.362387229472E+03   -0.50369E-01   -0.50365E-01  7392   0.868E-01-0.105E-03
CGA:   4    -0.362401595639E+03   -0.14366E-01   -0.14304E-01  7392   0.197E-01-0.810E-03
CGA:   5    -0.362404999119E+03   -0.34035E-02   -0.33794E-02  7392   0.568E-02-0.363E-03
CGA:   6    -0.362406057525E+03   -0.10584E-02   -0.10558E-02  7392   0.167E-02-0.573E-04
CGA:   7    -0.362406411798E+03   -0.35427E-03   -0.35549E-03  7392   0.569E-03 0.615E-04
CGA:   8    -0.362406562067E+03   -0.15027E-03   -0.14963E-03  7392   0.241E-03 0.322E-04
CGA:   9    -0.362406642488E+03   -0.80422E-04   -0.81376E-04  7392   0.124E-03-0.114E-04
CGA:  10    -0.362406679951E+03   -0.37462E-04   -0.39594E-04  7392   0.618E-04-0.222E-04
CGA:  11    -0.362406695831E+03   -0.15880E-04   -0.18807E-04  7392   0.360E-04-0.232E-04
CGA:  12    -0.362406702651E+03   -0.68206E-05   -0.71872E-05  7392   0.167E-04-0.530E-05
   7 F= -.36240670E+03 E0= -.36240670E+03  d E =0.348465E-03  mag=    16.0000
       N       E                     dE             d eps       ncg     rms          ort
SDA:   1    -0.362386827378E+03    0.19868E-01    0.00000E+00  7392   0.562E-01 0.000E+00
CGA:   2    -0.362401132194E+03   -0.14305E-01   -0.14307E-01  7392   0.324E-01 0.244E-03
CGA:   3    -0.362406469710E+03   -0.53375E-02   -0.53335E-02  7392   0.884E-02-0.473E-04
CGA:   4    -0.362407975540E+03   -0.15058E-02   -0.14958E-02  7392   0.221E-02-0.116E-03
CGA:   5    -0.362408370891E+03   -0.39535E-03   -0.39180E-03  7392   0.656E-03-0.487E-04
CGA:   6    -0.362408496103E+03   -0.12521E-03   -0.12460E-03  7392   0.212E-03-0.112E-04
CGA:   7    -0.362408540693E+03   -0.44590E-04   -0.44911E-04  7392   0.756E-04 0.101E-04
CGA:   8    -0.362408558752E+03   -0.18060E-04   -0.18189E-04  7392   0.267E-04 0.817E-05
CGA:   9    -0.362408568650E+03   -0.98977E-05   -0.10678E-04  7392   0.186E-04-0.670E-05
   8 F= -.36240857E+03 E0= -.36240857E+03  d E =-.186600E-02  mag=    16.0000
       N       E                     dE             d eps       ncg     rms          ort
SDA:   1    -0.362388775503E+03    0.19783E-01    0.00000E+00  7392   0.510E-01 0.000E+00
CGA:   2    -0.362403808405E+03   -0.15033E-01   -0.15010E-01  7392   0.241E-01 0.515E-03
CGA:   3    -0.362407711780E+03   -0.39034E-02   -0.38938E-02  7392   0.683E-02-0.109E-03
CGA:   4    -0.362408834818E+03   -0.11230E-02   -0.11094E-02  7392   0.150E-02-0.163E-03
CGA:   5    -0.362409089836E+03   -0.25502E-03   -0.25269E-03  7392   0.445E-03-0.328E-04
CGA:   6    -0.362409169211E+03   -0.79375E-04   -0.80032E-04  7392   0.122E-03 0.115E-04
CGA:   7    -0.362409195231E+03   -0.26020E-04   -0.26369E-04  7392   0.419E-04 0.127E-04
CGA:   8    -0.362409206787E+03   -0.11556E-04   -0.11489E-04  7392   0.189E-04 0.554E-05
CGA:   9    -0.362409212772E+03   -0.59852E-05   -0.58704E-05  7392   0.866E-05 0.302E-05
   9 F= -.36240921E+03 E0= -.36240921E+03  d E =-.644122E-03  mag=    16.0000
       N       E                     dE             d eps       ncg     rms          ort
SDA:   1    -0.362174412385E+03    0.23479E+00    0.00000E+00  7392   0.578E+00 0.000E+00
CGA:   2    -0.362355784703E+03   -0.18137E+00   -0.18117E+00  7392   0.238E+00 0.255E-02
CGA:   3    -0.362395707242E+03   -0.39923E-01   -0.39878E-01  7392   0.695E-01-0.636E-03
CGA:   4    -0.362406536018E+03   -0.10829E-01   -0.10775E-01  7392   0.141E-01-0.657E-03
CGA:   5    -0.362409060619E+03   -0.25246E-02   -0.25161E-02  7392   0.426E-02-0.159E-03
CGA:   6    -0.362409844374E+03   -0.78376E-03   -0.78454E-03  7392   0.123E-02 0.154E-04
CGA:   7    -0.362410120089E+03   -0.27571E-03   -0.27607E-03  7392   0.452E-03 0.515E-04
CGA:   8    -0.362410245085E+03   -0.12500E-03   -0.12410E-03  7392   0.212E-03 0.267E-04
CGA:   9    -0.362410316591E+03   -0.71506E-04   -0.71834E-04  7392   0.105E-03-0.379E-05
CGA:  10    -0.362410347774E+03   -0.31183E-04   -0.31615E-04  7392   0.426E-04-0.623E-05
CGA:  11    -0.362410360946E+03   -0.13172E-04   -0.16457E-04  7392   0.328E-04-0.192E-04
CGA:  12    -0.362410366531E+03   -0.55852E-05   -0.71689E-05  7392   0.228E-04-0.106E-04
  10 F= -.36241037E+03 E0= -.36241037E+03  d E =-.115376E-02  mag=    16.0000
       N       E                     dE             d eps       ncg     rms          ort
SDA:   1    -0.360816324635E+03    0.15940E+01    0.00000E+00  7392   0.385E+01 0.000E+00
CGA:   2    -0.362064698255E+03   -0.12484E+01   -0.12478E+01  7392   0.123E+01 0.748E-02
CGA:   3    -0.362314890615E+03   -0.25019E+00   -0.25006E+00  7392   0.350E+00-0.281E-02
CGA:   4    -0.362366025283E+03   -0.51135E-01   -0.51018E-01  7392   0.837E-01-0.118E-02
CGA:   5    -0.362382164285E+03   -0.16139E-01   -0.16124E-01  7392   0.236E-01-0.285E-03
CGA:   6    -0.362386683403E+03   -0.45191E-02   -0.45220E-02  7392   0.844E-02 0.441E-04
CGA:   7    -0.362388685547E+03   -0.20021E-02   -0.20029E-02  7392   0.322E-02 0.101E-03
CGA:   8    -0.362389576149E+03   -0.89060E-03   -0.88826E-03  7392   0.156E-02 0.803E-04
CGA:   9    -0.362390033090E+03   -0.45694E-03   -0.45667E-03  7392   0.602E-03 0.610E-05
CGA:  10    -0.362390217555E+03   -0.18447E-03   -0.18656E-03  7392   0.237E-03-0.345E-04
CGA:  11    -0.362390285455E+03   -0.67899E-04   -0.68809E-04  7392   0.970E-04-0.159E-04
CGA:  12    -0.362390317649E+03   -0.32195E-04   -0.32108E-04  7392   0.521E-04 0.807E-06
CGA:  13    -0.362390336678E+03   -0.19029E-04   -0.17924E-04  7392   0.290E-04 0.134E-04
CGA:  14    -0.362390350349E+03   -0.13671E-04   -0.12642E-04  7392   0.184E-04 0.123E-04
CGA:  15    -0.362390361633E+03   -0.11284E-04   -0.10103E-04  7392   0.139E-04 0.990E-05
CGA:  16    -0.362390366968E+03   -0.53349E-05   -0.49975E-05  7392   0.733E-05 0.394E-05
  11 F= -.36239037E+03 E0= -.36239037E+03  d E =0.199996E-01  mag=    16.0000
       N       E                     dE             d eps       ncg     rms          ort
SDA:   1    -0.362146370204E+03    0.24399E+00    0.00000E+00  7392   0.645E+00 0.000E+00
CGA:   2    -0.362348371586E+03   -0.20200E+00   -0.20202E+00  7392   0.234E+00-0.129E-02
CGA:   3    -0.362394142711E+03   -0.45771E-01   -0.45824E-01  7392   0.809E-01 0.455E-03
CGA:   4    -0.362406577066E+03   -0.12434E-01   -0.12483E-01  7392   0.195E-01 0.323E-03
CGA:   5    -0.362410512314E+03   -0.39352E-02   -0.39448E-02  7392   0.637E-02 0.106E-03
CGA:   6    -0.362411752640E+03   -0.12403E-02   -0.12444E-02  7392   0.233E-02 0.438E-04
CGA:   7    -0.362412348089E+03   -0.59545E-03   -0.59595E-03  7392   0.953E-03 0.186E-04
CGA:   8    -0.362412593639E+03   -0.24555E-03   -0.24497E-03  7392   0.397E-03-0.247E-04
CGA:   9    -0.362412701781E+03   -0.10814E-03   -0.10817E-03  7392   0.134E-03-0.113E-04
CGA:  10    -0.362412737101E+03   -0.35320E-04   -0.35320E-04  7392   0.428E-04-0.202E-08
CGA:  11    -0.362412749934E+03   -0.12833E-04   -0.12907E-04  7392   0.155E-04-0.307E-05
CGA:  12    -0.362412754777E+03   -0.48430E-05   -0.48821E-05  7392   0.689E-05-0.644E-06
CGA:  13    -0.362412728978E+03    0.25799E-04   -0.13994E-04  7392   0.148E-03-0.245E-04
CGA:  14    -0.362412761499E+03   -0.32521E-04   -0.33123E-04  7392   0.153E-04 0.207E-05
CGA:  15    -0.362412766482E+03   -0.49829E-05   -0.51420E-05  7392   0.399E-05 0.947E-06
  12 F= -.36241277E+03 E0= -.36241277E+03  d E =-.223995E-01  mag=    16.0000
       N       E                     dE             d eps       ncg     rms          ort
SDA:   1    -0.362403142978E+03    0.96185E-02    0.00000E+00  7392   0.244E-01 0.000E+00
CGA:   2    -0.362410369209E+03   -0.72262E-02   -0.71931E-02  7392   0.120E-01-0.182E-03
CGA:   3    -0.362412246828E+03   -0.18776E-02   -0.18883E-02  7392   0.341E-02 0.306E-04
CGA:   4    -0.362412773194E+03   -0.52637E-03   -0.54533E-03  7392   0.719E-03 0.617E-04
CGA:   5    -0.362412898638E+03   -0.12544E-03   -0.12912E-03  7392   0.217E-03 0.134E-04
CGA:   6    -0.362412946157E+03   -0.47518E-04   -0.45413E-04  7392   0.764E-04-0.931E-05
CGA:   7    -0.362412966267E+03   -0.20111E-04   -0.18588E-04  7392   0.361E-04-0.910E-05
CGA:   8    -0.362412974303E+03   -0.80353E-05   -0.78283E-05  7392   0.142E-04-0.124E-05
  13 F= -.36241297E+03 E0= -.36241297E+03  d E =-.207820E-03  mag=    16.0000
       N       E                     dE             d eps       ncg     rms          ort
SDA:   1    -0.362396387322E+03    0.16579E-01    0.00000E+00  7392   0.447E-01 0.000E+00
CGA:   2    -0.362407328616E+03   -0.10941E-01   -0.10970E-01  7392   0.267E-01 0.161E-03
CGA:   3    -0.362411604472E+03   -0.42759E-02   -0.42673E-02  7392   0.677E-02-0.482E-04
CGA:   4    -0.362412751887E+03   -0.11474E-02   -0.11308E-02  7392   0.164E-02-0.798E-04
CGA:   5    -0.362413045428E+03   -0.29354E-03   -0.28445E-03  7392   0.477E-03-0.472E-04
CGA:   6    -0.362413137874E+03   -0.92446E-04   -0.88878E-04  7392   0.146E-03-0.213E-04
CGA:   7    -0.362413165655E+03   -0.27781E-04   -0.28415E-04  7392   0.458E-04 0.421E-05
CGA:   8    -0.362413174395E+03   -0.87402E-05   -0.98741E-05  7392   0.152E-04 0.837E-05
  14 F= -.36241317E+03 E0= -.36241317E+03  d E =-.200093E-03  mag=    16.0000
       N       E                     dE             d eps       ncg     rms          ort
SDA:   1    -0.362265641501E+03    0.14752E+00    0.00000E+00  7392   0.371E+00 0.000E+00
CGA:   2    -0.362371798269E+03   -0.10616E+00   -0.10622E+00  7392   0.200E+00 0.101E-02
CGA:   3    -0.362402413366E+03   -0.30615E-01   -0.30546E-01  7392   0.505E-01-0.381E-03
CGA:   4    -0.362410776619E+03   -0.83633E-02   -0.83025E-02  7392   0.112E-01-0.389E-03
CGA:   5    -0.362412751243E+03   -0.19746E-02   -0.19597E-02  7392   0.314E-02-0.108E-03
CGA:   6    -0.362413344081E+03   -0.59284E-03   -0.59267E-03  7392   0.942E-03-0.250E-05
CGA:   7    -0.362413541903E+03   -0.19782E-03   -0.20091E-03  7392   0.327E-03 0.330E-04
CGA:   8    -0.362413626205E+03   -0.84302E-04   -0.85213E-04  7392   0.139E-03 0.183E-04
CGA:   9    -0.362413675669E+03   -0.49464E-04   -0.50295E-04  7392   0.836E-04-0.191E-04
CGA:  10    -0.362413698129E+03   -0.22461E-04   -0.22632E-04  7392   0.370E-04-0.135E-04
CGA:  11    -0.362413706723E+03   -0.85934E-05   -0.85536E-05  7392   0.131E-04-0.154E-05
  15 F= -.36241371E+03 E0= -.36241371E+03  d E =-.532328E-03  mag=    16.0000
       N       E                     dE             d eps       ncg     rms          ort
SDA:   1    -0.362171125684E+03    0.24257E+00    0.00000E+00  7392   0.586E+00 0.000E+00
CGA:   2    -0.362358965612E+03   -0.18784E+00   -0.18783E+00  7392   0.261E+00 0.889E-03
CGA:   3    -0.362399128657E+03   -0.40163E-01   -0.40076E-01  7392   0.697E-01-0.553E-03
CGA:   4    -0.362410432985E+03   -0.11304E-01   -0.11266E-01  7392   0.154E-01-0.293E-03
CGA:   5    -0.362413154446E+03   -0.27215E-02   -0.27169E-02  7392   0.447E-02-0.419E-04
CGA:   6    -0.362413980952E+03   -0.82651E-03   -0.82979E-03  7392   0.133E-02 0.310E-04
CGA:   7    -0.362414267556E+03   -0.28660E-03   -0.28981E-03  7392   0.470E-03 0.471E-04
CGA:   8    -0.362414396999E+03   -0.12944E-03   -0.12952E-03  7392   0.217E-03 0.582E-05
CGA:   9    -0.362414466546E+03   -0.69547E-04   -0.70360E-04  7392   0.110E-03-0.199E-04
CGA:  10    -0.362414493746E+03   -0.27199E-04   -0.27174E-04  7392   0.372E-04-0.278E-05
CGA:  11    -0.362414505443E+03   -0.11698E-04   -0.12082E-04  7392   0.169E-04-0.736E-05
CGA:  12    -0.362414510115E+03   -0.46716E-05   -0.72131E-05  7392   0.216E-04-0.102E-04
  16 F= -.36241451E+03 E0= -.36241451E+03  d E =-.803392E-03  mag=    16.0000
       N       E                     dE             d eps       ncg     rms          ort
SDA:   1    -0.362346007116E+03    0.68498E-01    0.00000E+00  7392   0.168E+00 0.000E+00
CGA:   2    -0.362397761384E+03   -0.51754E-01   -0.51757E-01  7392   0.898E-01-0.202E-03
CGA:   3    -0.362410915046E+03   -0.13154E-01   -0.13157E-01  7392   0.207E-01-0.177E-05
CGA:   4    -0.362414287407E+03   -0.33724E-02   -0.33802E-02  7392   0.472E-02 0.613E-04
CGA:   5    -0.362415112345E+03   -0.82494E-03   -0.83030E-03  7392   0.134E-02 0.507E-04
CGA:   6    -0.362415362408E+03   -0.25006E-03   -0.25322E-03  7392   0.376E-03 0.360E-04
CGA:   7    -0.362415446176E+03   -0.83768E-04   -0.84385E-04  7392   0.134E-03 0.121E-04
CGA:   8    -0.362415486192E+03   -0.40016E-04   -0.40307E-04  7392   0.721E-04-0.122E-04
CGA:   9    -0.362415503661E+03   -0.17469E-04   -0.17472E-04  7392   0.278E-04 0.246E-05
CGA:  10    -0.362415509657E+03   -0.59960E-05   -0.63343E-05  7392   0.929E-05 0.708E-05
  17 F= -.36241551E+03 E0= -.36241551E+03  d E =-.999542E-03  mag=    16.0000
       N       E                     dE             d eps       ncg     rms          ort
SDA:   1    -0.362407656983E+03    0.78467E-02    0.00000E+00  7392   0.210E-01 0.000E+00
CGA:   2    -0.362413358903E+03   -0.57019E-02   -0.57021E-02  7392   0.105E-01-0.912E-04
CGA:   3    -0.362415020288E+03   -0.16614E-02   -0.16724E-02  7392   0.319E-02 0.980E-04
CGA:   4    -0.362415564407E+03   -0.54412E-03   -0.54864E-03  7392   0.791E-03 0.474E-04
CGA:   5    -0.362415710502E+03   -0.14610E-03   -0.14618E-03  7392   0.250E-03 0.924E-06
CGA:   6    -0.362415762415E+03   -0.51913E-04   -0.51311E-04  7392   0.932E-04-0.120E-04
CGA:   7    -0.362415786678E+03   -0.24263E-04   -0.24686E-04  7392   0.531E-04-0.169E-04
CGA:   8    -0.362415796179E+03   -0.95005E-05   -0.95112E-05  7392   0.182E-04 0.285E-06
  18 F= -.36241580E+03 E0= -.36241580E+03  d E =-.286522E-03  mag=    16.0000
       N       E                     dE             d eps       ncg     rms          ort
SDA:   1    -0.362397252127E+03    0.18535E-01    0.00000E+00  7392   0.445E-01 0.000E+00
CGA:   2    -0.362412305143E+03   -0.15053E-01   -0.15028E-01  7392   0.172E-01 0.278E-03
CGA:   3    -0.362415086872E+03   -0.27817E-02   -0.27652E-02  7392   0.489E-02-0.175E-03
CGA:   4    -0.362415854880E+03   -0.76801E-03   -0.76068E-03  7392   0.107E-02-0.800E-04
CGA:   5    -0.362416043142E+03   -0.18826E-03   -0.18702E-03  7392   0.315E-03-0.186E-04
CGA:   6    -0.362416100480E+03   -0.57338E-04   -0.57367E-04  7392   0.881E-04 0.433E-06
CGA:   7    -0.362416117788E+03   -0.17308E-04   -0.17680E-04  7392   0.288E-04 0.961E-05
CGA:   8    -0.362416126197E+03   -0.84093E-05   -0.83399E-05  7392   0.141E-04 0.293E-05
  19 F= -.36241613E+03 E0= -.36241613E+03  d E =-.330018E-03  mag=    16.0000
       N       E                     dE             d eps       ncg     rms          ort
SDA:   1    -0.361472761522E+03    0.94336E+00    0.00000E+00  7392   0.220E+01 0.000E+00
CGA:   2    -0.362224746535E+03   -0.75199E+00   -0.75194E+00  7392   0.954E+00 0.227E-03
CGA:   3    -0.362364000172E+03   -0.13925E+00   -0.13922E+00  7392   0.233E+00-0.350E-03
CGA:   4    -0.362402123071E+03   -0.38123E-01   -0.38121E-01  7392   0.522E-01-0.702E-04
CGA:   5    -0.362411570417E+03   -0.94473E-02   -0.94437E-02  7392   0.152E-01-0.643E-04
CGA:   6    -0.362414405313E+03   -0.28349E-02   -0.28318E-02  7392   0.430E-02-0.557E-04
CGA:   7    -0.362415343430E+03   -0.93812E-03   -0.93875E-03  7392   0.155E-02 0.268E-04
CGA:   8    -0.362415745069E+03   -0.40164E-03   -0.40108E-03  7392   0.662E-03 0.339E-04
CGA:   9    -0.362415953264E+03   -0.20819E-03   -0.21024E-03  7392   0.311E-03-0.297E-04
CGA:  10    -0.362416039563E+03   -0.86299E-04   -0.87096E-04  7392   0.109E-03-0.166E-04
CGA:  11    -0.362416069230E+03   -0.29667E-04   -0.29904E-04  7392   0.355E-04-0.578E-05
CGA:  12    -0.362416081478E+03   -0.12248E-04   -0.16507E-04  7392   0.384E-04-0.177E-04
CGA:  13    -0.362416088127E+03   -0.66487E-05   -0.77013E-05  7392   0.309E-04-0.766E-05
CGA:  14    -0.362416097490E+03   -0.93629E-05   -0.13130E-04  7392   0.368E-04-0.145E-04
  20 F= -.36241610E+03 E0= -.36241610E+03  d E =0.287071E-04  mag=    16.0000
       N       E                     dE             d eps       ncg     rms          ort
SDA:   1    -0.360610940981E+03    0.18051E+01    0.00000E+00  7392   0.420E+01 0.000E+00
CGA:   2    -0.362066516345E+03   -0.14556E+01   -0.14557E+01  7392   0.163E+01-0.229E-02
CGA:   3    -0.362320319243E+03   -0.25380E+00   -0.25392E+00  7392   0.436E+00 0.817E-03
CGA:   4    -0.362388426984E+03   -0.68108E-01   -0.68176E-01  7392   0.934E-01 0.421E-03
CGA:   5    -0.362405607446E+03   -0.17180E-01   -0.17179E-01  7392   0.282E-01-0.332E-04
CGA:   6    -0.362410830926E+03   -0.52235E-02   -0.52176E-02  7392   0.796E-02-0.761E-04
CGA:   7    -0.362412613548E+03   -0.17826E-02   -0.17828E-02  7392   0.296E-02 0.290E-05
CGA:   8    -0.362413381854E+03   -0.76831E-03   -0.76854E-03  7392   0.129E-02 0.531E-04
CGA:   9    -0.362413771986E+03   -0.39013E-03   -0.38981E-03  7392   0.553E-03 0.916E-05
CGA:  10    -0.362413936816E+03   -0.16483E-03   -0.16526E-03  7392   0.203E-03-0.139E-04
CGA:  11    -0.362413992855E+03   -0.56039E-04   -0.56026E-04  7392   0.689E-04 0.660E-06
CGA:  12    -0.362414018001E+03   -0.25146E-04   -0.25476E-04  7392   0.419E-04-0.335E-05
CGA:  13    -0.362414038663E+03   -0.20663E-04   -0.22506E-04  7392   0.501E-04-0.647E-05
CGA:  14    -0.362414061111E+03   -0.22448E-04   -0.22873E-04  7392   0.450E-04-0.207E-05
CGA:  15    -0.362414077587E+03   -0.16475E-04   -0.15879E-04  7392   0.242E-04 0.843E-05
CGA:  16    -0.362414087141E+03   -0.95549E-05   -0.93557E-05  7392   0.133E-04 0.868E-05
  21 F= -.36241409E+03 E0= -.36241409E+03  d E =0.201035E-02  mag=    16.0000
       N       E                     dE             d eps       ncg     rms          ort
SDA:   1    -0.360581756433E+03    0.18323E+01    0.00000E+00  7392   0.430E+01 0.000E+00
CGA:   2    -0.362031074995E+03   -0.14493E+01   -0.14492E+01  7392   0.194E+01 0.187E-02
CGA:   3    -0.362312517582E+03   -0.28144E+00   -0.28152E+00  7392   0.468E+00 0.323E-03
CGA:   4    -0.362389063909E+03   -0.76546E-01   -0.76504E-01  7392   0.107E+00-0.295E-03
CGA:   5    -0.362408032452E+03   -0.18969E-01   -0.18985E-01  7392   0.308E-01 0.131E-03
CGA:   6    -0.362413746995E+03   -0.57145E-02   -0.57320E-02  7392   0.860E-02 0.166E-03
CGA:   7    -0.362415662706E+03   -0.19157E-02   -0.19163E-02  7392   0.313E-02 0.771E-05
CGA:   8    -0.362416489701E+03   -0.82699E-03   -0.82687E-03  7392   0.138E-02-0.863E-05
CGA:   9    -0.362416878854E+03   -0.38915E-03   -0.38898E-03  7392   0.552E-03 0.404E-04
CGA:  10    -0.362417039705E+03   -0.16085E-03   -0.16080E-03  7392   0.182E-03 0.955E-05
CGA:  11    -0.362417091892E+03   -0.52187E-04   -0.52188E-04  7392   0.558E-04-0.213E-06
CGA:  12    -0.362417108730E+03   -0.16838E-04   -0.16791E-04  7392   0.211E-04 0.205E-05
CGA:  13    -0.362417118231E+03   -0.95012E-05   -0.10010E-04  7392   0.169E-04-0.287E-05
  22 F= -.36241712E+03 E0= -.36241712E+03  d E =-.303109E-02  mag=    16.0000
       N       E                     dE             d eps       ncg     rms          ort
SDA:   1    -0.362032309202E+03    0.38480E+00    0.00000E+00  7392   0.961E+00 0.000E+00
CGA:   2    -0.362296218567E+03   -0.26391E+00   -0.26396E+00  7392   0.432E+00 0.214E-02
CGA:   3    -0.362369147831E+03   -0.72929E-01   -0.72917E-01  7392   0.144E+00-0.130E-03
CGA:   4    -0.362393543029E+03   -0.24395E-01   -0.24353E-01  7392   0.326E-01-0.409E-03
CGA:   5    -0.362399390194E+03   -0.58472E-02   -0.58369E-02  7392   0.997E-02-0.107E-03
CGA:   6    -0.362401330633E+03   -0.19404E-02   -0.19442E-02  7392   0.337E-02 0.434E-04
CGA:   7    -0.362402133971E+03   -0.80334E-03   -0.80550E-03  7392   0.138E-02 0.630E-04
CGA:   8    -0.362402500896E+03   -0.36692E-03   -0.36680E-03  7392   0.594E-03-0.139E-04
CGA:   9    -0.362402671348E+03   -0.17045E-03   -0.17072E-03  7392   0.233E-03-0.131E-04
CGA:  10    -0.362402733951E+03   -0.62603E-04   -0.62587E-04  7392   0.830E-04 0.390E-05
CGA:  11    -0.362402764571E+03   -0.30621E-04   -0.33648E-04  7392   0.593E-04-0.237E-04
CGA:  12    -0.362402780949E+03   -0.16378E-04   -0.19532E-04  7392   0.552E-04-0.172E-04
CGA:  13    -0.362402797762E+03   -0.16813E-04   -0.20950E-04  7392   0.582E-04-0.168E-04
CGA:  14    -0.362402816075E+03   -0.18313E-04   -0.24852E-04  7392   0.632E-04-0.210E-04
CGA:  15    -0.362402831017E+03   -0.14942E-04   -0.15293E-04  7392   0.353E-04-0.567E-05
CGA:  16    -0.362402844396E+03   -0.13379E-04   -0.19048E-04  7392   0.453E-04-0.208E-04
CGA:  17    -0.362402856591E+03   -0.12195E-04   -0.12428E-04  7392   0.794E-05 0.408E-05
CGA:  18    -0.362402862334E+03   -0.57426E-05    0.14249E-03  7392   0.449E-05 0.408E-05
  23 F= -.36240286E+03 E0= -.36240286E+03  d E =0.142559E-01  mag=    16.0000
       N       E                     dE             d eps       ncg     rms          ort
SDA:   1    -0.362034754467E+03    0.36810E+00    0.00000E+00  7392   0.962E+00 0.000E+00
CGA:   2    -0.362315768072E+03   -0.28101E+00   -0.28100E+00  7392   0.450E+00-0.868E-03
CGA:   3    -0.362388173217E+03   -0.72405E-01   -0.72433E-01  7392   0.134E+00 0.164E-03
CGA:   4    -0.362410236923E+03   -0.22064E-01   -0.22105E-01  7392   0.293E-01 0.247E-03
CGA:   5    -0.362415479826E+03   -0.52429E-02   -0.52551E-02  7392   0.887E-02 0.922E-04
CGA:   6    -0.362417218011E+03   -0.17382E-02   -0.17347E-02  7392   0.289E-02-0.372E-04
CGA:   7    -0.362417907205E+03   -0.68919E-03   -0.68700E-03  7392   0.119E-02-0.418E-04
CGA:   8    -0.362418194324E+03   -0.28712E-03   -0.28877E-03  7392   0.470E-03 0.377E-04
CGA:   9    -0.362418331422E+03   -0.13710E-03   -0.13717E-03  7392   0.181E-03 0.151E-04
CGA:  10    -0.362418388144E+03   -0.56722E-04   -0.56874E-04  7392   0.752E-04-0.938E-05
CGA:  11    -0.362418404216E+03   -0.16072E-04   -0.16760E-04  7392   0.237E-04 0.129E-04
CGA:  12    -0.362418411548E+03   -0.73324E-05   -0.74293E-05  7392   0.122E-04 0.549E-05
  24 F= -.36241841E+03 E0= -.36241841E+03  d E =-.155492E-01  mag=    16.0000
       N       E                     dE             d eps       ncg     rms          ort
SDA:   1    -0.362410759073E+03    0.76451E-02    0.00000E+00  7392   0.183E-01 0.000E+00
CGA:   2    -0.362416425249E+03   -0.56662E-02   -0.56660E-02  7392   0.101E-01 0.547E-05
CGA:   3    -0.362417870678E+03   -0.14454E-02   -0.14503E-02  7392   0.217E-02 0.318E-04
CGA:   4    -0.362418228834E+03   -0.35816E-03   -0.36006E-03  7392   0.507E-03 0.154E-04
CGA:   5    -0.362418317858E+03   -0.89024E-04   -0.89750E-04  7392   0.133E-03 0.685E-05
CGA:   6    -0.362418343442E+03   -0.25584E-04   -0.25923E-04  7392   0.407E-04 0.402E-05
CGA:   7    -0.362418352643E+03   -0.92008E-05   -0.92159E-05  7392   0.163E-04 0.283E-06
  25 F= -.36241835E+03 E0= -.36241835E+03  d E =0.589054E-04  mag=    16.0000
       N       E                     dE             d eps       ncg     rms          ort
SDA:   1    -0.362210599257E+03    0.20774E+00    0.00000E+00  7392   0.566E+00 0.000E+00
CGA:   2    -0.362342519352E+03   -0.13192E+00   -0.13197E+00  7392   0.339E+00 0.103E-02
CGA:   3    -0.362398609158E+03   -0.56090E-01   -0.56088E-01  7392   0.863E-01-0.113E-03
CGA:   4    -0.362412732416E+03   -0.14123E-01   -0.14101E-01  7392   0.203E-01-0.242E-03
CGA:   5    -0.362416156390E+03   -0.34240E-02   -0.34201E-02  7392   0.543E-02-0.512E-04
CGA:   6    -0.362417182987E+03   -0.10266E-02   -0.10281E-02  7392   0.157E-02 0.208E-04
CGA:   7    -0.362417514198E+03   -0.33121E-03   -0.33227E-03  7392   0.486E-03 0.264E-04
CGA:   8    -0.362417635836E+03   -0.12164E-03   -0.12165E-03  7392   0.192E-03 0.820E-05
CGA:   9    -0.362417691694E+03   -0.55858E-04   -0.55780E-04  7392   0.797E-04 0.202E-05
CGA:  10    -0.362417715762E+03   -0.24068E-04   -0.24051E-04  7392   0.335E-04 0.325E-06
CGA:  11    -0.362417726593E+03   -0.10832E-04   -0.11084E-04  7392   0.146E-04-0.328E-05
CGA:  12    -0.362417731053E+03   -0.44598E-05   -0.45446E-05  7392   0.781E-05-0.966E-06
  26 F= -.36241773E+03 E0= -.36241773E+03  d E =0.621590E-03  mag=    16.0000
       N       E                     dE             d eps       ncg     rms          ort
SDA:   1    -0.362325398551E+03    0.92328E-01    0.00000E+00  7392   0.225E+00 0.000E+00
CGA:   2    -0.362395821015E+03   -0.70422E-01   -0.70434E-01  7392   0.118E+00-0.289E-03
CGA:   3    -0.362412983952E+03   -0.17163E-01   -0.17160E-01  7392   0.270E-01-0.273E-04
CGA:   4    -0.362417400287E+03   -0.44163E-02   -0.44231E-02  7392   0.630E-02 0.632E-04
CGA:   5    -0.362418518860E+03   -0.11186E-02   -0.11191E-02  7392   0.185E-02 0.508E-05
CGA:   6    -0.362418874096E+03   -0.35524E-03   -0.35280E-03  7392   0.547E-03-0.391E-04
CGA:   7    -0.362418994679E+03   -0.12058E-03   -0.12010E-03  7392   0.204E-03-0.183E-04
CGA:   8    -0.362419040458E+03   -0.45779E-04   -0.46000E-04  7392   0.738E-04 0.139E-04
CGA:   9    -0.362419063739E+03   -0.23281E-04   -0.23194E-04  7392   0.327E-04 0.190E-05
CGA:  10    -0.362419074978E+03   -0.11239E-04   -0.12014E-04  7392   0.193E-04-0.723E-05
CGA:  11    -0.362419077846E+03   -0.28681E-05   -0.30284E-05  7392   0.672E-05 0.291E-05
  27 F= -.36241908E+03 E0= -.36241908E+03  d E =-.134679E-02  mag=    16.0000
       N       E                     dE             d eps       ncg     rms          ort
SDA:   1    -0.362353596677E+03    0.65478E-01    0.00000E+00  7392   0.188E+00 0.000E+00
CGA:   2    -0.362394870473E+03   -0.41274E-01   -0.41267E-01  7392   0.104E+00-0.332E-03
CGA:   3    -0.362412273695E+03   -0.17403E-01   -0.17420E-01  7392   0.294E-01 0.177E-03
CGA:   4    -0.362417179280E+03   -0.49056E-02   -0.49293E-02  7392   0.711E-02 0.297E-03
CGA:   5    -0.362418376149E+03   -0.11969E-02   -0.12063E-02  7392   0.187E-02 0.127E-03
CGA:   6    -0.362418745992E+03   -0.36984E-03   -0.36931E-03  7392   0.580E-03-0.133E-04
CGA:   7    -0.362418883719E+03   -0.13773E-03   -0.13796E-03  7392   0.236E-03-0.575E-04
CGA:   8    -0.362418933845E+03   -0.50126E-04   -0.50125E-04  7392   0.866E-04-0.213E-05
CGA:   9    -0.362418954521E+03   -0.20677E-04   -0.20627E-04  7392   0.288E-04 0.107E-04
CGA:  10    -0.362418963530E+03   -0.90086E-05   -0.89069E-05  7392   0.120E-04 0.257E-05
  28 F= -.36241896E+03 E0= -.36241896E+03  d E =0.114316E-03  mag=    16.0000
       N       E                     dE             d eps       ncg     rms          ort
SDA:   1    -0.362352723778E+03    0.66231E-01    0.00000E+00  7392   0.155E+00 0.000E+00
CGA:   2    -0.362407575004E+03   -0.54851E-01   -0.54836E-01  7392   0.545E-01 0.104E-03
CGA:   3    -0.362416521621E+03   -0.89466E-02   -0.89271E-02  7392   0.151E-01-0.256E-03
CGA:   4    -0.362418813827E+03   -0.22922E-02   -0.22896E-02  7392   0.318E-02-0.332E-04
CGA:   5    -0.362419405325E+03   -0.59150E-03   -0.59143E-03  7392   0.954E-03-0.195E-05
CGA:   6    -0.362419578867E+03   -0.17354E-03   -0.17374E-03  7392   0.269E-03 0.375E-05
CGA:   7    -0.362419636591E+03   -0.57724E-04   -0.57894E-04  7392   0.935E-04 0.116E-04
CGA:   8    -0.362419663060E+03   -0.26469E-04   -0.26405E-04  7392   0.451E-04 0.149E-05
CGA:   9    -0.362419676862E+03   -0.13802E-04   -0.13827E-04  7392   0.205E-04-0.349E-06
CGA:  10    -0.362419682885E+03   -0.60228E-05   -0.60755E-05  7392   0.798E-05-0.820E-06
  29 F= -.36241968E+03 E0= -.36241968E+03  d E =-.719355E-03  mag=    16.0000
       N       E                     dE             d eps       ncg     rms          ort
SDA:   1    -0.362153723204E+03    0.26595E+00    0.00000E+00  7392   0.625E+00 0.000E+00
CGA:   2    -0.362369634144E+03   -0.21591E+00   -0.21591E+00  7392   0.223E+00-0.132E-03
CGA:   3    -0.362406873512E+03   -0.37239E-01   -0.37229E-01  7392   0.624E-01-0.134E-03
CGA:   4    -0.362416355745E+03   -0.94822E-02   -0.94860E-02  7392   0.126E-01 0.218E-04
CGA:   5    -0.362418759024E+03   -0.24033E-02   -0.24018E-02  7392   0.363E-02-0.214E-04
CGA:   6    -0.362419455538E+03   -0.69651E-03   -0.69711E-03  7392   0.105E-02 0.743E-05
CGA:   7    -0.362419687714E+03   -0.23218E-03   -0.23268E-03  7392   0.385E-03 0.126E-04
CGA:   8    -0.362419792574E+03   -0.10486E-03   -0.10483E-03  7392   0.186E-03 0.309E-05
CGA:   9    -0.362419844523E+03   -0.51948E-04   -0.51756E-04  7392   0.724E-04 0.109E-04
CGA:  10    -0.362419868988E+03   -0.24465E-04   -0.24676E-04  7392   0.314E-04-0.344E-05
CGA:  11    -0.362419879613E+03   -0.10626E-04   -0.12164E-04  7392   0.226E-04-0.108E-04
CGA:  12    -0.362419882836E+03   -0.32230E-05   -0.33843E-05  7392   0.114E-04 0.378E-05
  30 F= -.36241988E+03 E0= -.36241988E+03  d E =-.199951E-03  mag=    16.0000
       N       E                     dE             d eps       ncg     rms          ort
SDA:   1    -0.362180244866E+03    0.23963E+00    0.00000E+00  7392   0.568E+00 0.000E+00
CGA:   2    -0.362372655138E+03   -0.19241E+00   -0.19243E+00  7392   0.221E+00-0.452E-03
CGA:   3    -0.362407939139E+03   -0.35284E-01   -0.35341E-01  7392   0.607E-01 0.519E-03
CGA:   4    -0.362417347888E+03   -0.94087E-02   -0.94289E-02  7392   0.126E-01 0.171E-03
CGA:   5    -0.362419678373E+03   -0.23305E-02   -0.23231E-02  7392   0.394E-02-0.101E-03
CGA:   6    -0.362420419302E+03   -0.74093E-03   -0.73677E-03  7392   0.114E-02-0.637E-04
CGA:   7    -0.362420670836E+03   -0.25153E-03   -0.25141E-03  7392   0.420E-03-0.482E-05
CGA:   8    -0.362420779598E+03   -0.10876E-03   -0.10868E-03  7392   0.184E-03 0.807E-05
CGA:   9    -0.362420836042E+03   -0.56444E-04   -0.56519E-04  7392   0.805E-04-0.148E-05
CGA:  10    -0.362420861599E+03   -0.25557E-04   -0.26363E-04  7392   0.366E-04-0.105E-04
CGA:  11    -0.362420869912E+03   -0.83133E-05   -0.83078E-05  7392   0.120E-04 0.129E-05
  31 F= -.36242087E+03 E0= -.36242087E+03  d E =-.987076E-03  mag=    16.0000
       N       E                     dE             d eps       ncg     rms          ort
SDA:   1    -0.362175025240E+03    0.24584E+00    0.00000E+00  7392   0.609E+00 0.000E+00
CGA:   2    -0.362344919916E+03   -0.16989E+00   -0.16989E+00  7392   0.372E+00-0.104E-03
CGA:   3    -0.362400878868E+03   -0.55959E-01   -0.55976E-01  7392   0.821E-01 0.174E-03
CGA:   4    -0.362414233640E+03   -0.13355E-01   -0.13370E-01  7392   0.194E-01 0.152E-03
CGA:   5    -0.362417637680E+03   -0.34040E-02   -0.34052E-02  7392   0.562E-02 0.102E-04
CGA:   6    -0.362418725793E+03   -0.10881E-02   -0.10830E-02  7392   0.170E-02-0.101E-03
CGA:   7    -0.362419105745E+03   -0.37995E-03   -0.37876E-03  7392   0.636E-03-0.799E-04
CGA:   8    -0.362419249393E+03   -0.14365E-03   -0.14375E-03  7392   0.235E-03 0.237E-04
CGA:   9    -0.362419315868E+03   -0.66474E-04   -0.65919E-04  7392   0.912E-04 0.187E-04
CGA:  10    -0.362419348757E+03   -0.32889E-04   -0.34127E-04  7392   0.519E-04-0.120E-04
CGA:  11    -0.362419358907E+03   -0.10150E-04   -0.10316E-04  7392   0.198E-04 0.866E-05
CGA:  12    -0.362419365240E+03   -0.63332E-05   -0.62479E-05  7392   0.121E-04 0.354E-05
  32 F= -.36241937E+03 E0= -.36241937E+03  d E =0.150467E-02  mag=    16.0000
       N       E                     dE             d eps       ncg     rms          ort
SDA:   1    -0.362350845381E+03    0.68514E-01    0.00000E+00  7392   0.189E+00 0.000E+00
CGA:   2    -0.362398136040E+03   -0.47291E-01   -0.47302E-01  7392   0.106E+00 0.606E-03
CGA:   3    -0.362415244296E+03   -0.17108E-01   -0.17073E-01  7392   0.285E-01-0.351E-03
CGA:   4    -0.362420197607E+03   -0.49533E-02   -0.49293E-02  7392   0.733E-02-0.287E-03
CGA:   5    -0.362421478665E+03   -0.12811E-02   -0.12804E-02  7392   0.204E-02-0.100E-04
CGA:   6    -0.362421854730E+03   -0.37607E-03   -0.38057E-03  7392   0.611E-03 0.696E-04
CGA:   7    -0.362421988133E+03   -0.13340E-03   -0.13522E-03  7392   0.224E-03 0.530E-04
CGA:   8    -0.362422051100E+03   -0.62967E-04   -0.62862E-04  7392   0.958E-04 0.915E-05
CGA:   9    -0.362422081265E+03   -0.30165E-04   -0.30427E-04  7392   0.461E-04-0.454E-05
CGA:  10    -0.362422092866E+03   -0.11601E-04   -0.11570E-04  7392   0.167E-04 0.230E-05
CGA:  11    -0.362422099195E+03   -0.63285E-05   -0.77033E-05  7392   0.161E-04-0.732E-05
  33 F= -.36242210E+03 E0= -.36242210E+03  d E =-.273395E-02  mag=    16.0000
       N       E                     dE             d eps       ncg     rms          ort
SDA:   1    -0.362349045399E+03    0.73047E-01    0.00000E+00  7392   0.169E+00 0.000E+00
CGA:   2    -0.362410552453E+03   -0.61507E-01   -0.61517E-01  7392   0.517E-01-0.143E-03
CGA:   3    -0.362419620495E+03   -0.90680E-02   -0.90748E-02  7392   0.144E-01 0.569E-04
CGA:   4    -0.362421699113E+03   -0.20786E-02   -0.20809E-02  7392   0.317E-02 0.150E-04
CGA:   5    -0.362422301469E+03   -0.60236E-03   -0.59966E-03  7392   0.974E-03-0.323E-04
CGA:   6    -0.362422478113E+03   -0.17664E-03   -0.17563E-03  7392   0.271E-03-0.119E-04
CGA:   7    -0.362422538193E+03   -0.60080E-04   -0.60146E-04  7392   0.101E-03 0.156E-05
CGA:   8    -0.362422565611E+03   -0.27418E-04   -0.27414E-04  7392   0.493E-04 0.668E-06
CGA:   9    -0.362422580546E+03   -0.14935E-04   -0.14890E-04  7392   0.218E-04 0.120E-05
CGA:  10    -0.362422588754E+03   -0.82082E-05   -0.93882E-05  7392   0.182E-04-0.758E-05
  34 F= -.36242259E+03 E0= -.36242259E+03  d E =-.489560E-03  mag=    16.0000
       N       E                     dE             d eps       ncg     rms          ort
SDA:   1    -0.361789157823E+03    0.63342E+00    0.00000E+00  7392   0.145E+01 0.000E+00
CGA:   2    -0.362318754990E+03   -0.52960E+00   -0.52959E+00  7392   0.455E+00-0.491E-04
CGA:   3    -0.362396572964E+03   -0.77818E-01   -0.77805E-01  7392   0.123E+00-0.143E-03
CGA:   4    -0.362415102386E+03   -0.18529E-01   -0.18527E-01  7392   0.270E-01-0.321E-04
CGA:   5    -0.362420306963E+03   -0.52046E-02   -0.51921E-02  7392   0.809E-02-0.162E-03
CGA:   6    -0.362421801679E+03   -0.14947E-02   -0.14864E-02  7392   0.234E-02-0.103E-03
CGA:   7    -0.362422315622E+03   -0.51394E-03   -0.51367E-03  7392   0.863E-03-0.743E-05
CGA:   8    -0.362422537069E+03   -0.22145E-03   -0.22151E-03  7392   0.383E-03 0.254E-04
CGA:   9    -0.362422656699E+03   -0.11963E-03   -0.12020E-03  7392   0.171E-03-0.129E-04
CGA:  10    -0.362422709627E+03   -0.52928E-04   -0.54760E-04  7392   0.758E-04-0.266E-04
CGA:  11    -0.362422726816E+03   -0.17189E-04   -0.17194E-04  7392   0.248E-04-0.183E-05
CGA:  12    -0.362422734818E+03   -0.80018E-05   -0.79294E-05  7392   0.138E-04 0.116E-05
  35 F= -.36242273E+03 E0= -.36242273E+03  d E =-.146063E-03  mag=    16.0000
       N       E                     dE             d eps       ncg     rms          ort
SDA:   1    -0.359546233873E+03    0.28765E+01    0.00000E+00  7392   0.660E+01 0.000E+00
CGA:   2    -0.361915346603E+03   -0.23691E+01   -0.23692E+01  7392   0.230E+01-0.873E-03
CGA:   3    -0.362287415548E+03   -0.37207E+00   -0.37194E+00  7392   0.611E+00-0.134E-02
CGA:   4    -0.362380421637E+03   -0.93006E-01   -0.92981E-01  7392   0.135E+00-0.263E-03
CGA:   5    -0.362405818048E+03   -0.25396E-01   -0.25396E-01  7392   0.411E-01-0.761E-05
CGA:   6    -0.362413356586E+03   -0.75385E-02   -0.75358E-02  7392   0.115E-01-0.414E-04
CGA:   7    -0.362415959918E+03   -0.26033E-02   -0.26038E-02  7392   0.431E-02 0.118E-04
CGA:   8    -0.362417090973E+03   -0.11311E-02   -0.11309E-02  7392   0.193E-02 0.462E-04
CGA:   9    -0.362417664466E+03   -0.57349E-03   -0.57368E-03  7392   0.793E-03-0.563E-05
CGA:  10    -0.362417899744E+03   -0.23528E-03   -0.23694E-03  7392   0.289E-03-0.430E-04
CGA:  11    -0.362417984072E+03   -0.84328E-04   -0.86698E-04  7392   0.111E-03-0.438E-04
CGA:  12    -0.362418018480E+03   -0.34408E-04   -0.37682E-04  7392   0.720E-04-0.246E-04
CGA:  13    -0.362418043539E+03   -0.25059E-04   -0.27338E-04  7392   0.599E-04-0.105E-04
CGA:  14    -0.362418064505E+03   -0.20965E-04   -0.45678E-04  7392   0.135E-03-0.403E-04
CGA:  15    -0.362418098726E+03   -0.34222E-04   -0.34571E-04  7392   0.193E-04 0.600E-05
CGA:  16    -0.362418073626E+03    0.25100E-04   -0.30261E-04  7392   0.207E-03-0.464E-04
CGA:  17    -0.362418112607E+03   -0.38981E-04   -0.44570E-04  7392   0.240E-04 0.361E-04
CGA:  18    -0.362418117062E+03   -0.44557E-05   -0.24709E-04  7392   0.748E-04-0.395E-04
CGA:  19    -0.362418124036E+03   -0.69742E-05   -0.13662E-04  7392   0.176E-04 0.326E-04
  36 F= -.36241812E+03 E0= -.36241812E+03  d E =0.461078E-02  mag=    16.0000
       N       E                     dE             d eps       ncg     rms          ort
SDA:   1    -0.361944442307E+03    0.47367E+00    0.00000E+00  7392   0.113E+01 0.000E+00
CGA:   2    -0.362310839150E+03   -0.36640E+00   -0.36642E+00  7392   0.493E+00 0.331E-03
CGA:   3    -0.362390743548E+03   -0.79904E-01   -0.79926E-01  7392   0.142E+00-0.317E-04
CGA:   4    -0.362413419090E+03   -0.22676E-01   -0.22672E-01  7392   0.314E-01-0.346E-04
CGA:   5    -0.362419278690E+03   -0.58596E-02   -0.58791E-02  7392   0.100E-01 0.116E-03
CGA:   6    -0.362421164488E+03   -0.18858E-02   -0.19079E-02  7392   0.314E-02 0.143E-03
CGA:   7    -0.362421916931E+03   -0.75244E-03   -0.75796E-03  7392   0.129E-02 0.566E-04
CGA:   8    -0.362422264907E+03   -0.34798E-03   -0.34596E-03  7392   0.571E-03-0.307E-04
CGA:   9    -0.362422418510E+03   -0.15360E-03   -0.15415E-03  7392   0.212E-03 0.110E-04
CGA:  10    -0.362422471617E+03   -0.53108E-04   -0.54710E-04  7392   0.697E-04 0.226E-04
CGA:  11    -0.362422497457E+03   -0.25840E-04   -0.25907E-04  7392   0.375E-04-0.437E-05
CGA:  12    -0.362422511554E+03   -0.14097E-04   -0.14223E-04  7392   0.306E-04-0.163E-05
CGA:  13    -0.362422527782E+03   -0.16229E-04   -0.17347E-04  7392   0.444E-04-0.451E-05
CGA:  14    -0.362422549427E+03   -0.21645E-04   -0.36365E-04  7392   0.118E-03-0.254E-04
CGA:  15    -0.362422578534E+03   -0.29106E-04   -0.30831E-04  7392   0.242E-04 0.158E-04
CGA:  16    -0.362422593972E+03   -0.15438E-04   -0.18168E-04  7392   0.287E-04-0.917E-05
CGA:  17    -0.362422593629E+03    0.34254E-06   -0.24652E-05  7392   0.226E-04 0.116E-04
  37 F= -.36242259E+03 E0= -.36242259E+03  d E =-.446959E-02  mag=    16.0000
       N       E                     dE             d eps       ncg     rms          ort
SDA:   1    -0.361958181350E+03    0.46441E+00    0.00000E+00  7392   0.109E+01 0.000E+00
CGA:   2    -0.362329969175E+03   -0.37179E+00   -0.37179E+00  7392   0.437E+00-0.234E-04
CGA:   3    -0.362399151548E+03   -0.69182E-01   -0.69335E-01  7392   0.118E+00 0.754E-03
CGA:   4    -0.362417486735E+03   -0.18335E-01   -0.18359E-01  7392   0.252E-01 0.128E-03
CGA:   5    -0.362422245738E+03   -0.47590E-02   -0.47396E-02  7392   0.794E-02-0.133E-03
CGA:   6    -0.362423731070E+03   -0.14853E-02   -0.14799E-02  7392   0.236E-02-0.403E-04
CGA:   7    -0.362424258249E+03   -0.52718E-03   -0.52881E-03  7392   0.883E-03 0.163E-04
CGA:   8    -0.362424489213E+03   -0.23096E-03   -0.23130E-03  7392   0.390E-03 0.571E-05
CGA:   9    -0.362424606169E+03   -0.11696E-03   -0.11680E-03  7392   0.164E-03-0.957E-05
CGA:  10    -0.362424651105E+03   -0.44936E-04   -0.44840E-04  7392   0.550E-04-0.297E-05
CGA:  11    -0.362424662357E+03   -0.11253E-04   -0.12154E-04  7392   0.149E-04 0.104E-04
CGA:  12    -0.362424665108E+03   -0.27509E-05   -0.34894E-05  7392   0.609E-05 0.669E-05
  38 F= -.36242467E+03 E0= -.36242467E+03  d E =-.207148E-02  mag=    16.0000
       N       E                     dE             d eps       ncg     rms          ort
SDA:   1    -0.361931252047E+03    0.49341E+00    0.00000E+00  7392   0.114E+01 0.000E+00
CGA:   2    -0.362339158315E+03   -0.40791E+00   -0.40792E+00  7392   0.399E+00-0.280E-03
CGA:   3    -0.362403475437E+03   -0.64317E-01   -0.64264E-01  7392   0.106E+00-0.407E-03
CGA:   4    -0.362419725377E+03   -0.16250E-01   -0.16244E-01  7392   0.233E-01-0.511E-04
CGA:   5    -0.362424112850E+03   -0.43875E-02   -0.43845E-02  7392   0.713E-02-0.319E-04
CGA:   6    -0.362425435009E+03   -0.13222E-02   -0.13173E-02  7392   0.199E-02-0.516E-04
CGA:   7    -0.362425882882E+03   -0.44787E-03   -0.44715E-03  7392   0.750E-03-0.147E-04
CGA:   8    -0.362426071983E+03   -0.18910E-03   -0.18946E-03  7392   0.316E-03 0.181E-04
CGA:   9    -0.362426167059E+03   -0.95076E-04   -0.95072E-04  7392   0.129E-03 0.167E-06
CGA:  10    -0.362426208082E+03   -0.41023E-04   -0.41962E-04  7392   0.541E-04-0.188E-04
CGA:  11    -0.362426221304E+03   -0.13222E-04   -0.13290E-04  7392   0.170E-04-0.660E-05
CGA:  12    -0.362426225927E+03   -0.46229E-05   -0.46588E-05  7392   0.672E-05-0.103E-05
  39 F= -.36242623E+03 E0= -.36242623E+03  d E =-.156082E-02  mag=    16.0000
       N       E                     dE             d eps       ncg     rms          ort
SDA:   1    -0.361967840633E+03    0.45838E+00    0.00000E+00  7392   0.108E+01 0.000E+00
CGA:   2    -0.362325062885E+03   -0.35722E+00   -0.35718E+00  7392   0.500E+00 0.563E-03
CGA:   3    -0.362399330235E+03   -0.74267E-01   -0.74217E-01  7392   0.122E+00-0.406E-03
CGA:   4    -0.362418700633E+03   -0.19370E-01   -0.19345E-01  7392   0.276E-01-0.220E-03
CGA:   5    -0.362423635955E+03   -0.49353E-02   -0.49314E-02  7392   0.821E-02-0.458E-04
CGA:   6    -0.362425191042E+03   -0.15551E-02   -0.15538E-02  7392   0.232E-02-0.185E-04
CGA:   7    -0.362425704555E+03   -0.51351E-03   -0.51379E-03  7392   0.847E-03 0.630E-05
CGA:   8    -0.362425922216E+03   -0.21766E-03   -0.21774E-03  7392   0.359E-03 0.199E-04
CGA:   9    -0.362426032379E+03   -0.11016E-03   -0.11003E-03  7392   0.158E-03 0.346E-05
CGA:  10    -0.362426083160E+03   -0.50781E-04   -0.51889E-04  7392   0.721E-04-0.175E-04
CGA:  11    -0.362426105301E+03   -0.22141E-04   -0.25403E-04  7392   0.493E-04-0.250E-04
CGA:  12    -0.362426116012E+03   -0.10711E-04   -0.17801E-04  7392   0.654E-04-0.254E-04
CGA:  13    -0.362426131328E+03   -0.15316E-04   -0.15564E-04  7392   0.177E-04 0.515E-05
CGA:  14    -0.362426140244E+03   -0.89162E-05   -0.87102E-05  7392   0.116E-04 0.119E-05
CGA:  15    -0.362426148946E+03   -0.87017E-05   -0.11870E-04  7392   0.238E-04-0.481E-05
CGA:  16    -0.362426158482E+03   -0.95364E-05    0.43232E-04  7392   0.211E-04 0.264E-05
CGA:  17    -0.362426138011E+03    0.20471E-04   -0.31584E-04  7392   0.227E-03-0.513E-04
CGA:  18    -0.362426198508E+03   -0.60497E-04   -0.61483E-04  7392   0.200E-04 0.930E-05
CGA:  19    -0.362426206001E+03   -0.74929E-05   -0.23039E-04  7392   0.649E-04-0.211E-04
CGA:  20    -0.362426212763E+03   -0.67621E-05   -0.11303E-04  7392   0.101E-04 0.194E-04
  40 F= -.36242621E+03 E0= -.36242621E+03  d E =0.131634E-04  mag=    16.0000
       N       E                     dE             d eps       ncg     rms          ort
SDA:   1    -0.362065592691E+03    0.36061E+00    0.00000E+00  7392   0.832E+00 0.000E+00
CGA:   2    -0.362363210493E+03   -0.29762E+00   -0.29762E+00  7392   0.288E+00 0.109E-03
CGA:   3    -0.362410253276E+03   -0.47043E-01   -0.47115E-01  7392   0.780E-01 0.329E-03
CGA:   4    -0.362422160143E+03   -0.11907E-01   -0.11910E-01  7392   0.174E-01 0.554E-05
CGA:   5    -0.362425427524E+03   -0.32674E-02   -0.32689E-02  7392   0.537E-02 0.622E-05
CGA:   6    -0.362426394941E+03   -0.96742E-03   -0.97573E-03  7392   0.152E-02 0.463E-04
CGA:   7    -0.362426737747E+03   -0.34281E-03   -0.34545E-03  7392   0.562E-03 0.212E-04
CGA:   8    -0.362426894660E+03   -0.15691E-03   -0.15598E-03  7392   0.270E-03-0.134E-04
CGA:   9    -0.362426970657E+03   -0.75997E-04   -0.75879E-04  7392   0.105E-03-0.229E-05
CGA:  10    -0.362426996127E+03   -0.25470E-04   -0.26369E-04  7392   0.315E-04 0.107E-04
CGA:  11    -0.362427004465E+03   -0.83376E-05   -0.87207E-05  7392   0.991E-05 0.467E-05
  41 F= -.36242700E+03 E0= -.36242700E+03  d E =-.791701E-03  mag=    16.0000
       N       E                     dE             d eps       ncg     rms          ort
SDA:   1    -0.362370327812E+03    0.56668E-01    0.00000E+00  7392   0.141E+00 0.000E+00
CGA:   2    -0.362407649252E+03   -0.37321E-01   -0.37313E-01  7392   0.753E-01-0.206E-03
CGA:   3    -0.362419949529E+03   -0.12300E-01   -0.12322E-01  7392   0.228E-01 0.132E-03
CGA:   4    -0.362423790147E+03   -0.38406E-02   -0.38552E-02  7392   0.549E-02 0.924E-04
CGA:   5    -0.362424770822E+03   -0.98067E-03   -0.98328E-03  7392   0.172E-02 0.190E-04
CGA:   6    -0.362425116819E+03   -0.34600E-03   -0.34432E-03  7392   0.599E-03-0.169E-04
CGA:   7    -0.362425264124E+03   -0.14731E-03   -0.14592E-03  7392   0.269E-03-0.269E-04
CGA:   8    -0.362425323892E+03   -0.59768E-04   -0.60366E-04  7392   0.943E-04 0.986E-05
CGA:   9    -0.362425345914E+03   -0.22022E-04   -0.22960E-04  7392   0.313E-04 0.165E-04
CGA:  10    -0.362425355745E+03   -0.98308E-05   -0.98981E-05  7392   0.133E-04 0.340E-05
  42 F= -.36242536E+03 E0= -.36242536E+03  d E =0.164872E-02  mag=    16.0000
       N       E                     dE             d eps       ncg     rms          ort
SDA:   1    -0.362278885995E+03    0.14646E+00    0.00000E+00  7392   0.350E+00 0.000E+00
CGA:   2    -0.362396128895E+03   -0.11724E+00   -0.11722E+00  7392   0.151E+00 0.311E-03
CGA:   3    -0.362419433964E+03   -0.23305E-01   -0.23270E-01  7392   0.395E-01-0.277E-03
CGA:   4    -0.362425645486E+03   -0.62115E-02   -0.61997E-02  7392   0.858E-02-0.997E-04
CGA:   5    -0.362427197933E+03   -0.15524E-02   -0.15486E-02  7392   0.265E-02-0.412E-04
CGA:   6    -0.362427698364E+03   -0.50043E-03   -0.49872E-03  7392   0.780E-03-0.216E-04
CGA:   7    -0.362427867483E+03   -0.16912E-03   -0.16948E-03  7392   0.275E-03 0.755E-05
CGA:   8    -0.362427939029E+03   -0.71546E-04   -0.71563E-04  7392   0.118E-03 0.305E-05
CGA:   9    -0.362427976520E+03   -0.37491E-04   -0.38052E-04  7392   0.552E-04-0.103E-04
CGA:  10    -0.362427991368E+03   -0.14848E-04   -0.15073E-04  7392   0.206E-04-0.692E-05
CGA:  11    -0.362427997051E+03   -0.56830E-05   -0.78163E-05  7392   0.177E-04-0.128E-04
  43 F= -.36242800E+03 E0= -.36242800E+03  d E =-.264131E-02  mag=    16.0000
       N       E                     dE             d eps       ncg     rms          ort
SDA:   1    -0.362377377500E+03    0.50614E-01    0.00000E+00  7392   0.119E+00 0.000E+00
CGA:   2    -0.362417459090E+03   -0.40082E-01   -0.40063E-01  7392   0.480E-01 0.262E-03
CGA:   3    -0.362424900293E+03   -0.74412E-02   -0.74551E-02  7392   0.127E-01 0.112E-03
CGA:   4    -0.362426963011E+03   -0.20627E-02   -0.20585E-02  7392   0.260E-02-0.393E-04
CGA:   5    -0.362427439519E+03   -0.47651E-03   -0.47543E-03  7392   0.781E-03-0.137E-04
CGA:   6    -0.362427585503E+03   -0.14598E-03   -0.14679E-03  7392   0.216E-03 0.111E-04
CGA:   7    -0.362427630663E+03   -0.45160E-04   -0.45673E-04  7392   0.729E-04 0.106E-04
CGA:   8    -0.362427651033E+03   -0.20370E-04   -0.20348E-04  7392   0.346E-04 0.188E-05
CGA:   9    -0.362427661715E+03   -0.10682E-04   -0.10758E-04  7392   0.155E-04-0.159E-05
CGA:  10    -0.362427665136E+03   -0.34205E-05   -0.34696E-05  7392   0.446E-05 0.217E-05
  44 F= -.36242767E+03 E0= -.36242767E+03  d E =0.331915E-03  mag=    16.0000
       N       E                     dE             d eps       ncg     rms          ort
SDA:   1    -0.361134893907E+03    0.12928E+01    0.00000E+00  7392   0.300E+01 0.000E+00
CGA:   2    -0.362179529008E+03   -0.10446E+01   -0.10445E+01  7392   0.119E+01 0.622E-03
CGA:   3    -0.362362999998E+03   -0.18347E+00   -0.18351E+00  7392   0.301E+00 0.900E-04
CGA:   4    -0.362410320989E+03   -0.47321E-01   -0.47308E-01  7392   0.640E-01-0.162E-03
CGA:   5    -0.362422224026E+03   -0.11903E-01   -0.11893E-01  7392   0.194E-01-0.173E-03
CGA:   6    -0.362425806828E+03   -0.35828E-02   -0.35795E-02  7392   0.530E-02-0.598E-04
CGA:   7    -0.362426970032E+03   -0.11632E-02   -0.11638E-02  7392   0.192E-02 0.270E-04
CGA:   8    -0.362427471931E+03   -0.50190E-03   -0.50087E-03  7392   0.841E-03 0.552E-04
CGA:   9    -0.362427725248E+03   -0.25332E-03   -0.25181E-03  7392   0.355E-03 0.307E-04
CGA:  10    -0.362427838086E+03   -0.11284E-03   -0.11356E-03  7392   0.139E-03-0.112E-04
CGA:  11    -0.362427882053E+03   -0.43967E-04   -0.46755E-04  7392   0.676E-04-0.280E-04
CGA:  12    -0.362427900538E+03   -0.18485E-04   -0.19264E-04  7392   0.370E-04-0.746E-05
CGA:  13    -0.362427914737E+03   -0.14199E-04   -0.14501E-04  7392   0.270E-04-0.165E-05
CGA:  14    -0.362427928512E+03   -0.13774E-04   -0.17015E-04  7392   0.346E-04-0.824E-05
CGA:  15    -0.362427938459E+03   -0.99473E-05   -0.10415E-04  7392   0.233E-04-0.317E-05
CGA:  16    -0.362427945957E+03   -0.74979E-05   -0.15114E-04  7392   0.448E-04-0.181E-04
CGA:  17    -0.362427958376E+03   -0.12419E-04   -0.12561E-04  7392   0.754E-05 0.411E-05
CGA:  18    -0.362427962868E+03   -0.44918E-05   -0.98053E-05  7392   0.261E-04-0.605E-05
  45 F= -.36242796E+03 E0= -.36242796E+03  d E =-.297732E-03  mag=    16.0000
       N       E                     dE             d eps       ncg     rms          ort
SDA:   1    -0.361638863564E+03    0.78909E+00    0.00000E+00  7392   0.182E+01 0.000E+00
CGA:   2    -0.362286495574E+03   -0.64763E+00   -0.64763E+00  7392   0.616E+00-0.505E-03
CGA:   3    -0.362392523982E+03   -0.10603E+00   -0.10602E+00  7392   0.168E+00-0.295E-04
CGA:   4    -0.362417542107E+03   -0.25018E-01   -0.25034E-01  7392   0.367E-01 0.455E-04
CGA:   5    -0.362424689900E+03   -0.71478E-02   -0.71278E-02  7392   0.116E-01-0.150E-03
CGA:   6    -0.362426819171E+03   -0.21293E-02   -0.21150E-02  7392   0.340E-02-0.104E-03
CGA:   7    -0.362427586870E+03   -0.76770E-03   -0.76776E-03  7392   0.128E-02-0.370E-07
CGA:   8    -0.362427912670E+03   -0.32580E-03   -0.32748E-03  7392   0.559E-03 0.295E-04
CGA:   9    -0.362428082141E+03   -0.16947E-03   -0.16941E-03  7392   0.231E-03-0.428E-05
CGA:  10    -0.362428153354E+03   -0.71213E-04   -0.71239E-04  7392   0.922E-04-0.201E-04
CGA:  11    -0.362428178025E+03   -0.24671E-04   -0.24545E-04  7392   0.321E-04-0.711E-05
CGA:  12    -0.362428187685E+03   -0.96594E-05   -0.96522E-05  7392   0.152E-04 0.433E-06
  46 F= -.36242819E+03 E0= -.36242819E+03  d E =-.224817E-03  mag=    16.0000
       N       E                     dE             d eps       ncg     rms          ort
SDA:   1    -0.361558149134E+03    0.87003E+00    0.00000E+00  7392   0.206E+01 0.000E+00
CGA:   2    -0.362228353282E+03   -0.67020E+00   -0.67018E+00  7392   0.991E+00 0.930E-03
CGA:   3    -0.362375835728E+03   -0.14748E+00   -0.14742E+00  7392   0.236E+00-0.261E-03
CGA:   4    -0.362414316152E+03   -0.38480E-01   -0.38461E-01  7392   0.522E-01-0.173E-03
CGA:   5    -0.362423719824E+03   -0.94037E-02   -0.94112E-02  7392   0.156E-01 0.583E-04
CGA:   6    -0.362426668138E+03   -0.29483E-02   -0.29540E-02  7392   0.452E-02 0.520E-04
CGA:   7    -0.362427667817E+03   -0.99968E-03   -0.10004E-02  7392   0.164E-02 0.105E-04
CGA:   8    -0.362428105596E+03   -0.43778E-03   -0.43743E-03  7392   0.736E-03-0.204E-04
CGA:   9    -0.362428324892E+03   -0.21930E-03   -0.22007E-03  7392   0.319E-03-0.380E-04
CGA:  10    -0.362428410768E+03   -0.85875E-04   -0.85881E-04  7392   0.106E-03-0.847E-05
CGA:  11    -0.362428435573E+03   -0.24806E-04   -0.25246E-04  7392   0.289E-04 0.115E-04
CGA:  12    -0.362428445045E+03   -0.94720E-05   -0.94351E-05  7392   0.129E-04 0.285E-05
  47 F= -.36242845E+03 E0= -.36242845E+03  d E =-.257361E-03  mag=    16.0000
       N       E                     dE             d eps       ncg     rms          ort
SDA:   1    -0.362390500605E+03    0.37935E-01    0.00000E+00  7392   0.955E-01 0.000E+00
CGA:   2    -0.362418398767E+03   -0.27898E-01   -0.27899E-01  7392   0.528E-01-0.295E-03
CGA:   3    -0.362426590349E+03   -0.81916E-02   -0.81883E-02  7392   0.142E-01-0.360E-04
CGA:   4    -0.362428963261E+03   -0.23729E-02   -0.23830E-02  7392   0.336E-02 0.823E-04
CGA:   5    -0.362429534638E+03   -0.57138E-03   -0.58442E-03  7392   0.960E-03 0.123E-03
CGA:   6    -0.362429711350E+03   -0.17671E-03   -0.18485E-03  7392   0.301E-03 0.928E-04
CGA:   7    -0.362429785856E+03   -0.74506E-04   -0.75546E-04  7392   0.124E-03 0.260E-04
CGA:   8    -0.362429825549E+03   -0.39693E-04   -0.40139E-04  7392   0.667E-04-0.141E-04
CGA:   9    -0.362429836598E+03   -0.11049E-04   -0.11876E-04  7392   0.216E-04 0.122E-04
CGA:  10    -0.362429839382E+03   -0.27843E-05   -0.39009E-05  7392   0.804E-05 0.992E-05
  48 F= -.36242984E+03 E0= -.36242984E+03  d E =-.139434E-02  mag=    16.0000
       N       E                     dE             d eps       ncg     rms          ort
SDA:   1    -0.362262256817E+03    0.16758E+00    0.00000E+00  7392   0.391E+00 0.000E+00
CGA:   2    -0.362400106130E+03   -0.13785E+00   -0.13784E+00  7392   0.146E+00 0.159E-04
CGA:   3    -0.362422996293E+03   -0.22890E-01   -0.22896E-01  7392   0.378E-01 0.546E-04
CGA:   4    -0.362428864976E+03   -0.58687E-02   -0.58675E-02  7392   0.802E-02-0.178E-04
CGA:   5    -0.362430389144E+03   -0.15242E-02   -0.15178E-02  7392   0.253E-02-0.105E-03
CGA:   6    -0.362430855716E+03   -0.46657E-03   -0.46254E-03  7392   0.701E-03-0.651E-04
CGA:   7    -0.362431005303E+03   -0.14959E-03   -0.14956E-03  7392   0.249E-03-0.136E-05
CGA:   8    -0.362431066025E+03   -0.60721E-04   -0.60715E-04  7392   0.998E-04 0.189E-04
CGA:   9    -0.362431098637E+03   -0.32612E-04   -0.32456E-04  7392   0.456E-04 0.266E-05
CGA:  10    -0.362431114478E+03   -0.15841E-04   -0.17033E-04  7392   0.261E-04-0.102E-04
CGA:  11    -0.362431120289E+03   -0.58111E-05   -0.59851E-05  7392   0.103E-04-0.403E-05
  49 F= -.36243112E+03 E0= -.36243112E+03  d E =-.128091E-02  mag=    16.0000
       N       E                     dE             d eps       ncg     rms          ort
SDA:   1    -0.362415316922E+03    0.15798E-01    0.00000E+00  7392   0.393E-01 0.000E+00
CGA:   2    -0.362426129630E+03   -0.10813E-01   -0.10814E-01  7392   0.245E-01-0.860E-04
CGA:   3    -0.362429831727E+03   -0.37021E-02   -0.36914E-02  7392   0.547E-02-0.106E-03
CGA:   4    -0.362430705980E+03   -0.87425E-03   -0.87516E-03  7392   0.128E-02 0.888E-05
CGA:   5    -0.362430921163E+03   -0.21518E-03   -0.21786E-03  7392   0.350E-03 0.341E-04
CGA:   6    -0.362430984838E+03   -0.63675E-04   -0.65255E-04  7392   0.968E-04 0.251E-04
CGA:   7    -0.362431006420E+03   -0.21582E-04   -0.21833E-04  7392   0.326E-04 0.816E-05
CGA:   8    -0.362431017504E+03   -0.11084E-04   -0.11861E-04  7392   0.244E-04-0.812E-05
CGA:   9    -0.362431022877E+03   -0.53732E-05   -0.59029E-05  7392   0.146E-04-0.684E-05
  50 F= -.36243102E+03 E0= -.36243102E+03  d E =0.974121E-04  mag=    16.0000
       N       E                     dE             d eps       ncg     rms          ort
SDA:   1    -0.362354938071E+03    0.76079E-01    0.00000E+00  7392   0.182E+00 0.000E+00
CGA:   2    -0.362413711970E+03   -0.58774E-01   -0.58785E-01  7392   0.902E-01-0.195E-03
CGA:   3    -0.362427023976E+03   -0.13312E-01   -0.13309E-01  7392   0.212E-01-0.406E-04
CGA:   4    -0.362430372171E+03   -0.33482E-02   -0.33524E-02  7392   0.451E-02 0.460E-04
CGA:   5    -0.362431177954E+03   -0.80578E-03   -0.80340E-03  7392   0.137E-02-0.392E-04
CGA:   6    -0.362431441232E+03   -0.26328E-03   -0.26130E-03  7392   0.390E-03-0.456E-04
CGA:   7    -0.362431521457E+03   -0.80225E-04   -0.80070E-04  7392   0.132E-03-0.712E-05
CGA:   8    -0.362431553961E+03   -0.32505E-04   -0.32411E-04  7392   0.542E-04 0.559E-05
CGA:   9    -0.362431571891E+03   -0.17929E-04   -0.18147E-04  7392   0.283E-04-0.251E-05
CGA:  10    -0.362431581127E+03   -0.92370E-05   -0.10277E-04  7392   0.184E-04-0.732E-05
  51 F= -.36243158E+03 E0= -.36243158E+03  d E =-.558251E-03  mag=    16.0000
       N       E                     dE             d eps       ncg     rms          ort
SDA:   1    -0.362292407099E+03    0.13916E+00    0.00000E+00  7392   0.335E+00 0.000E+00
CGA:   2    -0.362400448536E+03   -0.10804E+00   -0.10808E+00  7392   0.138E+00-0.766E-03
CGA:   3    -0.362423409699E+03   -0.22961E-01   -0.22966E-01  7392   0.393E-01 0.506E-04
CGA:   4    -0.362429369494E+03   -0.59598E-02   -0.59834E-02  7392   0.759E-02 0.217E-03
CGA:   5    -0.362430812369E+03   -0.14429E-02   -0.14408E-02  7392   0.242E-02-0.338E-04
CGA:   6    -0.362431286237E+03   -0.47387E-03   -0.47076E-03  7392   0.772E-03-0.605E-04
CGA:   7    -0.362431452673E+03   -0.16644E-03   -0.16635E-03  7392   0.297E-03-0.397E-05
CGA:   8    -0.362431528223E+03   -0.75550E-04   -0.75450E-04  7392   0.133E-03 0.889E-05
CGA:   9    -0.362431568428E+03   -0.40205E-04   -0.40050E-04  7392   0.586E-04 0.321E-05
CGA:  10    -0.362431586306E+03   -0.17878E-04   -0.17850E-04  7392   0.239E-04 0.543E-06
CGA:  11    -0.362431594972E+03   -0.86656E-05   -0.99118E-05  7392   0.187E-04-0.773E-05
  52 F= -.36243159E+03 E0= -.36243159E+03  d E =-.138441E-04  mag=    16.0000
       N       E                     dE             d eps       ncg     rms          ort
SDA:   1    -0.362414446073E+03    0.17140E-01    0.00000E+00  7392   0.430E-01 0.000E+00
CGA:   2    -0.362427923833E+03   -0.13478E-01   -0.13463E-01  7392   0.165E-01 0.252E-03
CGA:   3    -0.362430934131E+03   -0.30103E-02   -0.30081E-02  7392   0.561E-02-0.293E-04
CGA:   4    -0.362431804861E+03   -0.87073E-03   -0.86587E-03  7392   0.119E-02-0.491E-04
CGA:   5    -0.362432019429E+03   -0.21457E-03   -0.21636E-03  7392   0.383E-03 0.265E-04
CGA:   6    -0.362432093148E+03   -0.73719E-04   -0.74965E-04  7392   0.124E-03 0.220E-04
CGA:   7    -0.362432126911E+03   -0.33763E-04   -0.33764E-04  7392   0.567E-04-0.821E-07
CGA:   8    -0.362432142227E+03   -0.15316E-04   -0.15401E-04  7392   0.274E-04-0.326E-05
CGA:   9    -0.362432149794E+03   -0.75674E-05   -0.76798E-05  7392   0.111E-04-0.224E-05
  53 F= -.36243215E+03 E0= -.36243215E+03  d E =-.554823E-03  mag=    16.0000
       N       E                     dE             d eps       ncg     rms          ort
SDA:   1    -0.362375589522E+03    0.56553E-01    0.00000E+00  7392   0.135E+00 0.000E+00
CGA:   2    -0.362419955660E+03   -0.44366E-01   -0.44382E-01  7392   0.637E-01-0.233E-03
CGA:   3    -0.362429453169E+03   -0.94975E-02   -0.94912E-02  7392   0.154E-01-0.661E-04
CGA:   4    -0.362431858608E+03   -0.24054E-02   -0.24103E-02  7392   0.323E-02 0.509E-04
CGA:   5    -0.362432443464E+03   -0.58486E-03   -0.58375E-03  7392   0.967E-03-0.182E-04
CGA:   6    -0.362432631661E+03   -0.18820E-03   -0.18678E-03  7392   0.280E-03-0.315E-04
CGA:   7    -0.362432689150E+03   -0.57488E-04   -0.57380E-04  7392   0.966E-04-0.435E-05
CGA:   8    -0.362432713294E+03   -0.24145E-04   -0.24078E-04  7392   0.410E-04 0.393E-05
CGA:   9    -0.362432726520E+03   -0.13225E-04   -0.13228E-04  7392   0.206E-04-0.167E-07
CGA:  10    -0.362432733453E+03   -0.69327E-05   -0.71656E-05  7392   0.114E-04-0.214E-05
  54 F= -.36243273E+03 E0= -.36243273E+03  d E =-.583658E-03  mag=    16.0000
