       N       E                     dE             d eps       ncg     rms          ort
DAV:   1     0.265480242540E+04    0.26548E+04   -0.14525E+05  6048   0.161E+03
DAV:   2    -0.154317753480E+03   -0.28091E+04   -0.26347E+04  6048   0.429E+02
DAV:   3    -0.456192146332E+03   -0.30187E+03   -0.29777E+03  6048   0.157E+02
DAV:   4    -0.466459852623E+03   -0.10268E+02   -0.10067E+02  6048   0.274E+01
DAV:   5    -0.467050184223E+03   -0.59033E+00   -0.58827E+00  6048   0.509E+00
SDA:   6    -0.303299014584E+03    0.16375E+03   -0.58827E+00  6048   0.412E+03 0.000E+00
CGA:   7    -0.353588567949E+03   -0.50290E+02   -0.55685E+02  6048   0.511E+02 0.136E+02
CGA:   8    -0.362512970395E+03   -0.89244E+01   -0.89162E+01  6048   0.130E+02 0.648E-01
CGA:   9    -0.365382963965E+03   -0.28700E+01   -0.28684E+01  6048   0.534E+01 0.505E-01
CGA:  10    -0.366472013686E+03   -0.10890E+01   -0.10890E+01  6048   0.211E+01-0.162E-01
CGA:  11    -0.366962336071E+03   -0.49032E+00   -0.49194E+00  6048   0.750E+00-0.480E-01
CGA:  12    -0.367133923452E+03   -0.17159E+00   -0.17225E+00  6048   0.269E+00-0.190E-01
CGA:  13    -0.367198023232E+03   -0.64100E-01   -0.63854E-01  6048   0.763E-01 0.547E-02
CGA:  14    -0.367217925758E+03   -0.19903E-01   -0.19654E-01  6048   0.244E-01 0.496E-02
CGA:  15    -0.367226465885E+03   -0.85401E-02   -0.87827E-02  6048   0.110E-01-0.185E-02
CGA:  16    -0.367229717166E+03   -0.32513E-02   -0.33953E-02  6048   0.486E-02-0.118E-02
CGA:  17    -0.367231160860E+03   -0.14437E-02   -0.15335E-02  6048   0.200E-02-0.668E-03
CGA:  18    -0.367231706878E+03   -0.54602E-03   -0.54093E-03  6048   0.686E-03 0.565E-04
CGA:  19    -0.367231900515E+03   -0.19364E-03   -0.18773E-03  6048   0.247E-03 0.160E-03
CGA:  20    -0.367232003470E+03   -0.10295E-03   -0.10140E-03  6048   0.110E-03 0.153E-04
CGA:  21    -0.367232038249E+03   -0.34780E-04   -0.33381E-04  6048   0.431E-04 0.283E-04
CGA:  22    -0.367232042603E+03   -0.43540E-05   -0.76012E-05  6048   0.218E-04 0.330E-04
   1 F= -.36723204E+03 E0= -.36723204E+03  d E =-.367232E+03  mag=    20.0000
       N       E                     dE             d eps       ncg     rms          ort
SDA:   1    -0.367266522689E+03   -0.34484E-01    0.00000E+00  6048   0.112E-01 0.000E+00
CGA:   2    -0.367268913163E+03   -0.23905E-02   -0.24016E-02  6048   0.257E-02 0.718E-03
CGA:   3    -0.367269619812E+03   -0.70665E-03   -0.70670E-03  6048   0.105E-02-0.244E-05
CGA:   4    -0.367269813921E+03   -0.19411E-03   -0.18867E-03  6048   0.318E-03-0.109E-03
CGA:   5    -0.367269874051E+03   -0.60130E-04   -0.59515E-04  6048   0.993E-04-0.313E-04
CGA:   6    -0.367269888123E+03   -0.14072E-04   -0.15118E-04  6048   0.333E-04 0.178E-04
CGA:   7    -0.367269897397E+03   -0.92741E-05   -0.92066E-05  6048   0.161E-04 0.668E-05
   2 F= -.36726990E+03 E0= -.36726990E+03  d E =-.378548E-01  mag=    20.0000
       N       E                     dE             d eps       ncg     rms          ort
SDA:   1    -0.360337605776E+03    0.69323E+01    0.00000E+00  6048   0.260E+02 0.000E+00
CGA:   2    -0.366353371670E+03   -0.60158E+01   -0.60154E+01  6048   0.657E+01 0.296E-01
CGA:   3    -0.367951230749E+03   -0.15979E+01   -0.15983E+01  6048   0.244E+01-0.339E-01
CGA:   4    -0.368353228118E+03   -0.40200E+00   -0.40151E+00  6048   0.610E+00-0.944E-02
CGA:   5    -0.368478440139E+03   -0.12521E+00   -0.12520E+00  6048   0.182E+00-0.642E-03
CGA:   6    -0.368519178911E+03   -0.40739E-01   -0.40739E-01  6048   0.820E-01 0.108E-02
CGA:   7    -0.368541948992E+03   -0.22770E-01   -0.22763E-01  6048   0.383E-01 0.100E-03
CGA:   8    -0.368553070669E+03   -0.11122E-01   -0.11145E-01  6048   0.168E-01-0.366E-03
CGA:   9    -0.368557665654E+03   -0.45950E-02   -0.45815E-02  6048   0.567E-02 0.295E-03
CGA:  10    -0.368559466296E+03   -0.18006E-02   -0.17989E-02  6048   0.218E-02 0.179E-04
CGA:  11    -0.368560215409E+03   -0.74911E-03   -0.75204E-03  6048   0.102E-02-0.284E-04
CGA:  12    -0.368560545213E+03   -0.32980E-03   -0.32012E-03  6048   0.381E-03 0.127E-03
CGA:  13    -0.368560712504E+03   -0.16729E-03   -0.17735E-03  6048   0.193E-03-0.597E-04
CGA:  14    -0.368560758241E+03   -0.45737E-04   -0.45180E-04  6048   0.596E-04 0.228E-04
CGA:  15    -0.368560768561E+03   -0.10320E-04   -0.12132E-04  6048   0.203E-04 0.248E-04
CGA:  16    -0.368560773711E+03   -0.51500E-05   -0.56427E-05  6048   0.746E-05 0.901E-05
   3 F= -.36856077E+03 E0= -.36856077E+03  d E =-.129088E+01  mag=    20.0000
       N       E                     dE             d eps       ncg     rms          ort
SDA:   1    -0.359859461580E+03    0.87013E+01    0.00000E+00  6048   0.312E+02 0.000E+00
CGA:   2    -0.366627872035E+03   -0.67684E+01   -0.67804E+01  6048   0.756E+01 0.606E-01
CGA:   3    -0.368431908876E+03   -0.18040E+01   -0.18035E+01  6048   0.292E+01-0.220E-01
CGA:   4    -0.368914108766E+03   -0.48220E+00   -0.48189E+00  6048   0.694E+00-0.645E-02
CGA:   5    -0.369056201228E+03   -0.14209E+00   -0.14210E+00  6048   0.209E+00 0.204E-03
CGA:   6    -0.369101833746E+03   -0.45633E-01   -0.45709E-01  6048   0.902E-01 0.191E-02
CGA:   7    -0.369127648843E+03   -0.25815E-01   -0.25801E-01  6048   0.458E-01 0.472E-03
CGA:   8    -0.369141498464E+03   -0.13850E-01   -0.13880E-01  6048   0.216E-01-0.692E-03
CGA:   9    -0.369147492456E+03   -0.59940E-02   -0.59905E-02  6048   0.740E-02 0.160E-03
CGA:  10    -0.369149732160E+03   -0.22397E-02   -0.22316E-02  6048   0.260E-02 0.210E-03
CGA:  11    -0.369150601793E+03   -0.86963E-03   -0.86525E-03  6048   0.110E-02 0.712E-04
CGA:  12    -0.369150981313E+03   -0.37952E-03   -0.37174E-03  6048   0.431E-03 0.123E-03
CGA:  13    -0.369151178949E+03   -0.19764E-03   -0.21745E-03  6048   0.252E-03-0.108E-03
CGA:  14    -0.369151242140E+03   -0.63191E-04   -0.64632E-04  6048   0.854E-04-0.229E-04
CGA:  15    -0.369151257083E+03   -0.14943E-04   -0.16479E-04  6048   0.300E-04 0.222E-04
CGA:  16    -0.369151264370E+03   -0.72868E-05   -0.79858E-05  6048   0.109E-04 0.105E-04
   4 F= -.36915126E+03 E0= -.36915126E+03  d E =-.590491E+00  mag=    20.0000
       N       E                     dE             d eps       ncg     rms          ort
SDA:   1    -0.365008219571E+03    0.41430E+01    0.00000E+00  6048   0.142E+02 0.000E+00
CGA:   2    -0.368051753881E+03   -0.30435E+01   -0.30466E+01  6048   0.391E+01 0.122E-01
CGA:   3    -0.368932075404E+03   -0.88032E+00   -0.88026E+00  6048   0.156E+01-0.258E-02
CGA:   4    -0.369189512890E+03   -0.25744E+00   -0.25752E+00  6048   0.339E+00-0.457E-03
CGA:   5    -0.369258279419E+03   -0.68767E-01   -0.68770E-01  6048   0.104E+00-0.109E-03
CGA:   6    -0.369280156576E+03   -0.21877E-01   -0.21903E-01  6048   0.419E-01 0.499E-03
CGA:   7    -0.369292152667E+03   -0.11996E-01   -0.11991E-01  6048   0.221E-01 0.209E-03
CGA:   8    -0.369298893154E+03   -0.67405E-02   -0.67528E-02  6048   0.111E-01-0.308E-03
CGA:   9    -0.369302043684E+03   -0.31505E-02   -0.31491E-02  6048   0.387E-02 0.563E-04
CGA:  10    -0.369303176558E+03   -0.11329E-02   -0.11294E-02  6048   0.128E-02 0.142E-03
CGA:  11    -0.369303600218E+03   -0.42366E-03   -0.42428E-03  6048   0.517E-03-0.117E-04
CGA:  12    -0.369303767772E+03   -0.16755E-03   -0.16526E-03  6048   0.199E-03 0.433E-04
CGA:  13    -0.369303853359E+03   -0.85587E-04   -0.90408E-04  6048   0.100E-03-0.328E-04
CGA:  14    -0.369303884203E+03   -0.30844E-04   -0.44155E-04  6048   0.719E-04-0.535E-04
CGA:  15    -0.369303894403E+03   -0.10199E-04   -0.12960E-04  6048   0.130E-04 0.246E-04
CGA:  16    -0.369303897355E+03   -0.29520E-05   -0.34675E-05  6048   0.457E-05 0.585E-05
   5 F= -.36930390E+03 E0= -.36930390E+03  d E =-.152633E+00  mag=    20.0000
       N       E                     dE             d eps       ncg     rms          ort
SDA:   1    -0.363165286758E+03    0.61386E+01    0.00000E+00  6048   0.178E+02 0.000E+00
CGA:   2    -0.367441123404E+03   -0.42758E+01   -0.42774E+01  6048   0.678E+01 0.664E-02
CGA:   3    -0.368786669007E+03   -0.13455E+01   -0.13459E+01  6048   0.233E+01-0.712E-04
CGA:   4    -0.369171425714E+03   -0.38476E+00   -0.38507E+00  6048   0.461E+00 0.126E-02
CGA:   5    -0.369261457721E+03   -0.90032E-01   -0.90033E-01  6048   0.142E+00-0.279E-03
CGA:   6    -0.369290683414E+03   -0.29226E-01   -0.29219E-01  6048   0.505E-01-0.153E-03
CGA:   7    -0.369304238012E+03   -0.13555E-01   -0.13555E-01  6048   0.244E-01 0.506E-05
CGA:   8    -0.369311373422E+03   -0.71354E-02   -0.71397E-02  6048   0.120E-01-0.171E-03
CGA:   9    -0.369315035137E+03   -0.36617E-02   -0.36657E-02  6048   0.481E-02-0.103E-03
CGA:  10    -0.369316497033E+03   -0.14619E-02   -0.14622E-02  6048   0.178E-02-0.100E-04
CGA:  11    -0.369317077811E+03   -0.58078E-03   -0.58480E-03  6048   0.755E-03-0.709E-04
CGA:  12    -0.369317329162E+03   -0.25135E-03   -0.25106E-03  6048   0.320E-03 0.386E-05
CGA:  13    -0.369317448408E+03   -0.11925E-03   -0.12016E-03  6048   0.128E-03-0.961E-05
CGA:  14    -0.369317492866E+03   -0.44458E-04   -0.44815E-04  6048   0.414E-04-0.456E-05
CGA:  15    -0.369317503983E+03   -0.11118E-04   -0.11165E-04  6048   0.111E-04 0.676E-05
CGA:  16    -0.369317506083E+03   -0.20998E-05   -0.10121E-04  6048   0.316E-04-0.162E-04
   6 F= -.36931751E+03 E0= -.36931751E+03  d E =-.136087E-01  mag=    20.0000
       N       E                     dE             d eps       ncg     rms          ort
SDA:   1    -0.367020333497E+03    0.22972E+01    0.00000E+00  6048   0.605E+01 0.000E+00
CGA:   2    -0.368715764737E+03   -0.16954E+01   -0.16957E+01  6048   0.297E+01 0.571E-02
CGA:   3    -0.369224924620E+03   -0.50916E+00   -0.50936E+00  6048   0.785E+00-0.858E-03
CGA:   4    -0.369359537345E+03   -0.13461E+00   -0.13452E+00  6048   0.165E+00-0.109E-02
CGA:   5    -0.369390322077E+03   -0.30785E-01   -0.30768E-01  6048   0.478E-01-0.228E-03
CGA:   6    -0.369400043037E+03   -0.97210E-02   -0.97341E-02  6048   0.153E-01 0.140E-03
CGA:   7    -0.369403813974E+03   -0.37709E-02   -0.37751E-02  6048   0.608E-02 0.111E-03
CGA:   8    -0.369405521655E+03   -0.17077E-02   -0.17076E-02  6048   0.270E-02-0.806E-04
CGA:   9    -0.369406342928E+03   -0.82127E-03   -0.82391E-03  6048   0.105E-02-0.899E-04
CGA:  10    -0.369406639617E+03   -0.29669E-03   -0.29664E-03  6048   0.359E-03 0.436E-05
CGA:  11    -0.369406754299E+03   -0.11468E-03   -0.11534E-03  6048   0.147E-03-0.173E-04
CGA:  12    -0.369406806543E+03   -0.52244E-04   -0.53142E-04  6048   0.778E-04-0.929E-05
CGA:  13    -0.369406834682E+03   -0.28139E-04   -0.28142E-04  6048   0.373E-04-0.871E-07
CGA:  14    -0.369406850618E+03   -0.15936E-04   -0.21178E-04  6048   0.344E-04-0.191E-04
CGA:  15    -0.369406857676E+03   -0.70585E-05   -0.75160E-05  6048   0.383E-05 0.514E-05
   7 F= -.36940686E+03 E0= -.36940686E+03  d E =-.893516E-01  mag=    20.0000
       N       E                     dE             d eps       ncg     rms          ort
SDA:   1    -0.367424907471E+03    0.19819E+01    0.00000E+00  6048   0.550E+01 0.000E+00
CGA:   2    -0.368847586662E+03   -0.14227E+01   -0.14231E+01  6048   0.244E+01 0.459E-02
CGA:   3    -0.369290042598E+03   -0.44246E+00   -0.44264E+00  6048   0.709E+00-0.112E-03
CGA:   4    -0.369409336663E+03   -0.11929E+00   -0.11925E+00  6048   0.142E+00-0.687E-03
CGA:   5    -0.369436167361E+03   -0.26831E-01   -0.26805E-01  6048   0.410E-01-0.309E-03
CGA:   6    -0.369444389864E+03   -0.82225E-02   -0.82252E-02  6048   0.128E-01 0.241E-04
CGA:   7    -0.369447590451E+03   -0.32006E-02   -0.32036E-02  6048   0.539E-02 0.100E-03
CGA:   8    -0.369449133314E+03   -0.15429E-02   -0.15425E-02  6048   0.256E-02 0.468E-04
CGA:   9    -0.369449946479E+03   -0.81317E-03   -0.81272E-03  6048   0.108E-02 0.110E-04
CGA:  10    -0.369450282443E+03   -0.33596E-03   -0.33612E-03  6048   0.412E-03-0.535E-05
CGA:  11    -0.369450417260E+03   -0.13482E-03   -0.13587E-03  6048   0.179E-03-0.210E-04
CGA:  12    -0.369450475564E+03   -0.58304E-04   -0.57977E-04  6048   0.774E-04 0.563E-05
CGA:  13    -0.369450502243E+03   -0.26679E-04   -0.26210E-04  6048   0.299E-04 0.113E-04
CGA:  14    -0.369450515777E+03   -0.13534E-04   -0.13743E-04  6048   0.142E-04-0.188E-05
CGA:  15    -0.369450520695E+03   -0.49180E-05   -0.50187E-05  6048   0.510E-05-0.124E-05
   8 F= -.36945052E+03 E0= -.36945052E+03  d E =-.436630E-01  mag=    20.0000
       N       E                     dE             d eps       ncg     rms          ort
SDA:   1    -0.365543491343E+03    0.39070E+01    0.00000E+00  6048   0.105E+02 0.000E+00
CGA:   2    -0.368315574888E+03   -0.27721E+01   -0.27729E+01  6048   0.476E+01 0.441E-02
CGA:   3    -0.369179116110E+03   -0.86354E+00   -0.86415E+00  6048   0.134E+01 0.170E-02
CGA:   4    -0.369401519339E+03   -0.22240E+00   -0.22244E+00  6048   0.256E+00-0.409E-03
CGA:   5    -0.369450103317E+03   -0.48584E-01   -0.48540E-01  6048   0.738E-01-0.483E-03
CGA:   6    -0.369464999435E+03   -0.14896E-01   -0.14900E-01  6048   0.229E-01 0.131E-04
CGA:   7    -0.369470741816E+03   -0.57424E-02   -0.57497E-02  6048   0.977E-02 0.167E-03
CGA:   8    -0.369473592184E+03   -0.28504E-02   -0.28504E-02  6048   0.483E-02 0.522E-04
CGA:   9    -0.369475135882E+03   -0.15437E-02   -0.15440E-02  6048   0.210E-02-0.111E-04
CGA:  10    -0.369475786107E+03   -0.65023E-03   -0.65072E-03  6048   0.784E-03-0.251E-04
CGA:  11    -0.369476037449E+03   -0.25134E-03   -0.25254E-03  6048   0.325E-03-0.355E-04
CGA:  12    -0.369476143963E+03   -0.10651E-03   -0.10608E-03  6048   0.141E-03 0.887E-05
CGA:  13    -0.369476197549E+03   -0.53586E-04   -0.53078E-04  6048   0.610E-04 0.721E-05
CGA:  14    -0.369476222275E+03   -0.24726E-04   -0.24910E-04  6048   0.238E-04-0.210E-05
CGA:  15    -0.369476230621E+03   -0.83464E-05   -0.84611E-05  6048   0.755E-05-0.182E-05
   9 F= -.36947623E+03 E0= -.36947623E+03  d E =-.257099E-01  mag=    20.0000
       N       E                     dE             d eps       ncg     rms          ort
SDA:   1    -0.362102450505E+03    0.73738E+01    0.00000E+00  6048   0.187E+02 0.000E+00
CGA:   2    -0.367283897251E+03   -0.51814E+01   -0.51840E+01  6048   0.909E+01 0.142E-01
CGA:   3    -0.368856820922E+03   -0.15729E+01   -0.15744E+01  6048   0.237E+01 0.975E-02
CGA:   4    -0.369258295114E+03   -0.40147E+00   -0.40156E+00  6048   0.483E+00-0.342E-03
CGA:   5    -0.369351096168E+03   -0.92801E-01   -0.92727E-01  6048   0.146E+00-0.820E-03
CGA:   6    -0.369381064184E+03   -0.29968E-01   -0.29983E-01  6048   0.458E-01 0.758E-04
CGA:   7    -0.369392339701E+03   -0.11276E-01   -0.11300E-01  6048   0.185E-01 0.406E-03
CGA:   8    -0.369397508472E+03   -0.51688E-02   -0.51717E-02  6048   0.820E-02 0.117E-03
CGA:   9    -0.369400013888E+03   -0.25054E-02   -0.25056E-02  6048   0.318E-02-0.525E-04
CGA:  10    -0.369400997126E+03   -0.98324E-03   -0.98436E-03  6048   0.120E-02-0.924E-04
CGA:  11    -0.369401381358E+03   -0.38423E-03   -0.38724E-03  6048   0.522E-03-0.912E-04
CGA:  12    -0.369401556927E+03   -0.17557E-03   -0.17648E-03  6048   0.253E-03-0.144E-04
CGA:  13    -0.369401655444E+03   -0.98517E-04   -0.99668E-04  6048   0.129E-03-0.116E-04
CGA:  14    -0.369401702254E+03   -0.46810E-04   -0.47106E-04  6048   0.487E-04-0.407E-05
CGA:  15    -0.369401721464E+03   -0.19210E-04   -0.20873E-04  6048   0.229E-04-0.130E-04
CGA:  16    -0.369401599355E+03    0.12211E-03   -0.65760E-04  6048   0.484E-03-0.895E-04
CGA:  17    -0.369401699034E+03   -0.99679E-04   -0.11619E-03  6048   0.435E-04 0.479E-04
CGA:  18    -0.369401722297E+03   -0.23264E-04   -0.45081E-04  6048   0.121E-03-0.579E-04
CGA:  19    -0.369401719573E+03    0.27237E-05   -0.19886E-04  6048   0.278E-04 0.537E-04
  10 F= -.36940172E+03 E0= -.36940172E+03  d E =0.745110E-01  mag=    20.0000
       N       E                     dE             d eps       ncg     rms          ort
SDA:   1    -0.367845798741E+03    0.15559E+01    0.00000E+00  6048   0.427E+01 0.000E+00
CGA:   2    -0.369069461884E+03   -0.12237E+01   -0.12238E+01  6048   0.175E+01 0.193E-02
CGA:   3    -0.369390777639E+03   -0.32132E+00   -0.32156E+00  6048   0.551E+00 0.224E-02
CGA:   4    -0.369485094657E+03   -0.94317E-01   -0.94318E-01  6048   0.122E+00-0.330E-03
CGA:   5    -0.369509459687E+03   -0.24365E-01   -0.24348E-01  6048   0.388E-01-0.884E-04
CGA:   6    -0.369517494781E+03   -0.80351E-02   -0.80772E-02  6048   0.136E-01 0.151E-03
CGA:   7    -0.369521007559E+03   -0.35128E-02   -0.35372E-02  6048   0.562E-02 0.111E-03
CGA:   8    -0.369522522936E+03   -0.15154E-02   -0.15136E-02  6048   0.232E-02-0.109E-04
CGA:   9    -0.369523185664E+03   -0.66273E-03   -0.66472E-03  6048   0.773E-03 0.118E-04
CGA:  10    -0.369523414596E+03   -0.22893E-03   -0.22859E-03  6048   0.263E-03-0.247E-05
CGA:  11    -0.369523492563E+03   -0.77967E-04   -0.78013E-04  6048   0.944E-04 0.302E-06
CGA:  12    -0.369523518536E+03   -0.25972E-04   -0.27981E-04  6048   0.370E-04 0.154E-04
CGA:  13    -0.369523535507E+03   -0.16972E-04   -0.16986E-04  6048   0.236E-04 0.531E-06
CGA:  14    -0.369523544278E+03   -0.87705E-05   -0.88147E-05  6048   0.112E-04 0.857E-06
  11 F= -.36952354E+03 E0= -.36952354E+03  d E =-.121825E+00  mag=    20.0000
       N       E                     dE             d eps       ncg     rms          ort
SDA:   1    -0.369326644751E+03    0.19689E+00    0.00000E+00  6048   0.555E+00 0.000E+00
CGA:   2    -0.369479959509E+03   -0.15331E+00   -0.15332E+00  6048   0.244E+00-0.162E-03
CGA:   3    -0.369522654027E+03   -0.42695E-01   -0.42854E-01  6048   0.708E-01 0.547E-03
CGA:   4    -0.369534932045E+03   -0.12278E-01   -0.12293E-01  6048   0.150E-01 0.379E-04
CGA:   5    -0.369537808084E+03   -0.28760E-02   -0.28691E-02  6048   0.443E-02-0.418E-04
CGA:   6    -0.369538709803E+03   -0.90172E-03   -0.90331E-03  6048   0.144E-02 0.883E-05
CGA:   7    -0.369539064846E+03   -0.35504E-03   -0.35859E-03  6048   0.583E-03 0.312E-04
CGA:   8    -0.369539220547E+03   -0.15570E-03   -0.15843E-03  6048   0.239E-03 0.302E-04
CGA:   9    -0.369539297048E+03   -0.76501E-04   -0.76744E-04  6048   0.947E-04 0.520E-05
CGA:  10    -0.369539328007E+03   -0.30959E-04   -0.30794E-04  6048   0.382E-04-0.541E-05
CGA:  11    -0.369539335790E+03   -0.77836E-05   -0.85902E-05  6048   0.123E-04 0.741E-05
  12 F= -.36953934E+03 E0= -.36953934E+03  d E =-.157915E-01  mag=    20.0000
       N       E                     dE             d eps       ncg     rms          ort
SDA:   1    -0.369056195601E+03    0.48313E+00    0.00000E+00  6048   0.125E+01 0.000E+00
CGA:   2    -0.369410347945E+03   -0.35415E+00   -0.35423E+00  6048   0.628E+00 0.774E-03
CGA:   3    -0.369512722866E+03   -0.10237E+00   -0.10274E+00  6048   0.153E+00 0.173E-02
CGA:   4    -0.369539268217E+03   -0.26545E-01   -0.26568E-01  6048   0.326E-01 0.108E-03
CGA:   5    -0.369545217194E+03   -0.59490E-02   -0.59181E-02  6048   0.883E-02-0.235E-03
CGA:   6    -0.369547013468E+03   -0.17963E-02   -0.17951E-02  6048   0.266E-02-0.132E-04
CGA:   7    -0.369547596317E+03   -0.58285E-03   -0.59274E-03  6048   0.905E-03 0.117E-03
CGA:   8    -0.369547835841E+03   -0.23952E-03   -0.24364E-03  6048   0.367E-03 0.914E-04
CGA:   9    -0.369547958595E+03   -0.12275E-03   -0.12268E-03  6048   0.157E-03 0.231E-04
CGA:  10    -0.369548013947E+03   -0.55351E-04   -0.55810E-04  6048   0.707E-04-0.135E-04
CGA:  11    -0.369548031237E+03   -0.17290E-04   -0.17378E-04  6048   0.228E-04 0.261E-05
CGA:  12    -0.369548037566E+03   -0.63290E-05   -0.64355E-05  6048   0.899E-05 0.376E-05
  13 F= -.36954804E+03 E0= -.36954804E+03  d E =-.870178E-02  mag=    20.0000
       N       E                     dE             d eps       ncg     rms          ort
SDA:   1    -0.365023363734E+03    0.45247E+01    0.00000E+00  6048   0.116E+02 0.000E+00
CGA:   2    -0.368174891684E+03   -0.31515E+01   -0.31521E+01  6048   0.629E+01 0.350E-02
CGA:   3    -0.369215211476E+03   -0.10403E+01   -0.10418E+01  6048   0.145E+01 0.785E-02
CGA:   4    -0.369464209794E+03   -0.24900E+00   -0.24912E+00  6048   0.308E+00 0.527E-03
CGA:   5    -0.369519779964E+03   -0.55570E-01   -0.55580E-01  6048   0.828E-01-0.597E-04
CGA:   6    -0.369536655967E+03   -0.16876E-01   -0.16903E-01  6048   0.245E-01 0.279E-03
CGA:   7    -0.369542250003E+03   -0.55940E-02   -0.56131E-02  6048   0.836E-02 0.306E-03
CGA:   8    -0.369544519872E+03   -0.22699E-02   -0.22744E-02  6048   0.350E-02 0.263E-03
CGA:   9    -0.369545609169E+03   -0.10893E-02   -0.10882E-02  6048   0.136E-02 0.658E-04
CGA:  10    -0.369546048304E+03   -0.43913E-03   -0.44120E-03  6048   0.521E-03-0.655E-04
CGA:  11    -0.369546180800E+03   -0.13250E-03   -0.13312E-03  6048   0.154E-03 0.329E-04
CGA:  12    -0.369546233377E+03   -0.52577E-04   -0.52350E-04  6048   0.659E-04 0.679E-05
CGA:  13    -0.369546239728E+03   -0.63511E-05   -0.62094E-04  6048   0.251E-03-0.908E-04
CGA:  14    -0.369546284406E+03   -0.44678E-04   -0.49827E-04  6048   0.270E-04 0.426E-04
CGA:  15    -0.369546297038E+03   -0.12632E-04   -0.17463E-04  6048   0.256E-04-0.201E-04
CGA:  16    -0.369546300343E+03   -0.33049E-05   -0.46390E-05  6048   0.409E-05 0.927E-05
  14 F= -.36954630E+03 E0= -.36954630E+03  d E =0.173722E-02  mag=    20.0000
       N       E                     dE             d eps       ncg     rms          ort
SDA:   1    -0.330529685794E+03    0.39017E+02    0.00000E+00  6048   0.847E+02 0.000E+00
CGA:   2    -0.357216569118E+03   -0.26687E+02   -0.26685E+02  6048   0.271E+02 0.733E+00
CGA:   3    -0.363549428966E+03   -0.63329E+01   -0.63462E+01  6048   0.761E+01 0.623E-01
CGA:   4    -0.364874055078E+03   -0.13246E+01   -0.13284E+01  6048   0.252E+01 0.547E-02
CGA:   5    -0.365388166033E+03   -0.51411E+00   -0.51495E+00  6048   0.735E+00 0.370E-02
CGA:   6    -0.365563438057E+03   -0.17527E+00   -0.17538E+00  6048   0.343E+00 0.986E-03
CGA:   7    -0.365646334864E+03   -0.82897E-01   -0.82856E-01  6048   0.122E+00-0.104E-02
CGA:   8    -0.365679333929E+03   -0.32999E-01   -0.33004E-01  6048   0.472E-01 0.199E-03
CGA:   9    -0.365691856806E+03   -0.12523E-01   -0.12542E-01  6048   0.146E-01 0.721E-03
CGA:  10    -0.365696227938E+03   -0.43711E-02   -0.43732E-02  6048   0.460E-02-0.452E-03
CGA:  11    -0.365697564329E+03   -0.13364E-02   -0.13378E-02  6048   0.145E-02-0.143E-03
CGA:  12    -0.365697986637E+03   -0.42231E-03   -0.42190E-03  6048   0.518E-03 0.403E-04
CGA:  13    -0.365698204406E+03   -0.21777E-03   -0.24674E-03  6048   0.394E-03-0.168E-03
CGA:  14    -0.365698240890E+03   -0.36484E-04   -0.48812E-04  6048   0.200E-03 0.106E-03
CGA:  15    -0.365698271387E+03   -0.30497E-04   -0.40855E-04  6048   0.707E-04 0.776E-04
CGA:  16    -0.365698306007E+03   -0.34620E-04   -0.41240E-04  6048   0.864E-04-0.499E-04
CGA:  17    -0.365698316995E+03   -0.10988E-04   -0.15048E-04  6048   0.165E-04 0.338E-04
CGA:  18    -0.365698321873E+03   -0.48780E-05   -0.51251E-05  6048   0.571E-05 0.382E-05
  15 F= -.36569832E+03 E0= -.36569832E+03  d E =0.384798E+01  mag=    20.0000
       N       E                     dE             d eps       ncg     rms          ort
SDA:   1    -0.355549850239E+03    0.10148E+02    0.00000E+00  6048   0.321E+02 0.000E+00
CGA:   2    -0.365970891320E+03   -0.10421E+02   -0.10436E+02  6048   0.955E+01-0.342E+00
CGA:   3    -0.368236791173E+03   -0.22659E+01   -0.22710E+01  6048   0.193E+01 0.244E-01
CGA:   4    -0.368651079556E+03   -0.41429E+00   -0.41433E+00  6048   0.779E+00 0.644E-03
CGA:   5    -0.368799101170E+03   -0.14802E+00   -0.14809E+00  6048   0.225E+00 0.150E-02
CGA:   6    -0.368858601659E+03   -0.59500E-01   -0.59500E-01  6048   0.110E+00-0.224E-03
CGA:   7    -0.368883940443E+03   -0.25339E-01   -0.25302E-01  6048   0.394E-01-0.970E-03
CGA:   8    -0.368894754646E+03   -0.10814E-01   -0.10814E-01  6048   0.144E-01 0.965E-04
CGA:   9    -0.368898364106E+03   -0.36095E-02   -0.36205E-02  6048   0.424E-02 0.497E-03
CGA:  10    -0.368899715234E+03   -0.13511E-02   -0.13670E-02  6048   0.148E-02-0.404E-03
CGA:  11    -0.368900100249E+03   -0.38501E-03   -0.38483E-03  6048   0.470E-03 0.147E-04
CGA:  12    -0.368900209231E+03   -0.10898E-03   -0.11322E-03  6048   0.158E-03 0.115E-03
CGA:  13    -0.368900270463E+03   -0.61232E-04   -0.12854E-03  6048   0.382E-03-0.177E-03
CGA:  14    -0.368900344064E+03   -0.73601E-04   -0.78324E-04  6048   0.409E-04 0.541E-04
CGA:  15    -0.368900361805E+03   -0.17741E-04   -0.18529E-04  6048   0.200E-04-0.727E-05
CGA:  16    -0.368900367927E+03   -0.61215E-05   -0.59325E-05  6048   0.109E-04 0.280E-05
  16 F= -.36890037E+03 E0= -.36890037E+03  d E =-.320205E+01  mag=    20.0000
       N       E                     dE             d eps       ncg     rms          ort
SDA:   1    -0.367059457580E+03    0.18409E+01    0.00000E+00  6048   0.554E+01 0.000E+00
CGA:   2    -0.368863079533E+03   -0.18036E+01   -0.18035E+01  6048   0.174E+01 0.135E-02
CGA:   3    -0.369282855877E+03   -0.41978E+00   -0.41990E+00  6048   0.410E+00 0.114E-02
CGA:   4    -0.369359666915E+03   -0.76811E-01   -0.76856E-01  6048   0.142E+00 0.111E-03
CGA:   5    -0.369387612562E+03   -0.27946E-01   -0.27967E-01  6048   0.389E-01 0.192E-03
CGA:   6    -0.369397504765E+03   -0.98922E-02   -0.98943E-02  6048   0.192E-01 0.615E-04
CGA:   7    -0.369402019722E+03   -0.45150E-02   -0.45088E-02  6048   0.685E-02-0.137E-03
CGA:   8    -0.369403956644E+03   -0.19369E-02   -0.19368E-02  6048   0.262E-02 0.316E-04
CGA:   9    -0.369404623646E+03   -0.66700E-03   -0.66970E-03  6048   0.790E-03 0.106E-03
CGA:  10    -0.369404881492E+03   -0.25785E-03   -0.26147E-03  6048   0.278E-03-0.918E-04
CGA:  11    -0.369404949208E+03   -0.67716E-04   -0.67754E-04  6048   0.810E-04 0.701E-05
CGA:  12    -0.369404970201E+03   -0.20993E-04   -0.21326E-04  6048   0.285E-04 0.141E-04
CGA:  13    -0.369404989508E+03   -0.19306E-04    0.13726E-03  6048   0.129E-04 0.701E-05
CGA:  14    -0.369404926508E+03    0.63000E-04   -0.34156E-04  6048   0.273E-03-0.601E-04
CGA:  15    -0.369404994460E+03   -0.67952E-04   -0.69979E-04  6048   0.330E-04 0.796E-05
CGA:  16    -0.369405004129E+03   -0.96690E-05   -0.10774E-04  6048   0.903E-05 0.614E-05
  17 F= -.36940500E+03 E0= -.36940500E+03  d E =-.504636E+00  mag=    20.0000
       N       E                     dE             d eps       ncg     rms          ort
SDA:   1    -0.368401245199E+03    0.10037E+01    0.00000E+00  6048   0.265E+01 0.000E+00
CGA:   2    -0.369258506221E+03   -0.85726E+00   -0.85918E+00  6048   0.843E+00 0.525E-04
CGA:   3    -0.369463360763E+03   -0.20485E+00   -0.20505E+00  6048   0.201E+00 0.115E-02
CGA:   4    -0.369500512938E+03   -0.37152E-01   -0.37168E-01  6048   0.680E-01-0.142E-03
CGA:   5    -0.369513927410E+03   -0.13414E-01   -0.13396E-01  6048   0.182E-01-0.134E-03
CGA:   6    -0.369518609731E+03   -0.46823E-02   -0.46738E-02  6048   0.872E-02-0.497E-04
CGA:   7    -0.369520678449E+03   -0.20687E-02   -0.20633E-02  6048   0.320E-02-0.288E-04
CGA:   8    -0.369521544829E+03   -0.86638E-03   -0.87596E-03  6048   0.119E-02 0.602E-04
CGA:   9    -0.369521863077E+03   -0.31825E-03   -0.32072E-03  6048   0.371E-03 0.150E-04
CGA:  10    -0.369521988059E+03   -0.12498E-03   -0.12018E-03  6048   0.125E-03-0.503E-04
CGA:  11    -0.369522016962E+03   -0.28902E-04   -0.29374E-04  6048   0.335E-04 0.335E-05
CGA:  12    -0.369522029657E+03   -0.12696E-04   -0.12448E-04  6048   0.175E-04-0.591E-05
CGA:  13    -0.369522014016E+03    0.15641E-04   -0.18113E-04  6048   0.139E-03-0.394E-04
CGA:  14    -0.369522033214E+03   -0.19198E-04   -0.26157E-04  6048   0.173E-04 0.272E-04
CGA:  15    -0.369522042866E+03   -0.96519E-05   -0.10428E-04  6048   0.149E-04-0.109E-04
  18 F= -.36952204E+03 E0= -.36952204E+03  d E =-.117039E+00  mag=    20.0000
       N       E                     dE             d eps       ncg     rms          ort
SDA:   1    -0.369456198440E+03    0.65835E-01    0.00000E+00  6048   0.251E+00 0.000E+00
CGA:   2    -0.369536632100E+03   -0.80434E-01   -0.80535E-01  6048   0.781E-01 0.666E-03
CGA:   3    -0.369555490631E+03   -0.18859E-01   -0.18897E-01  6048   0.205E-01 0.223E-03
CGA:   4    -0.369559102767E+03   -0.36121E-02   -0.35994E-02  6048   0.631E-02-0.704E-04
CGA:   5    -0.369560429490E+03   -0.13267E-02   -0.13017E-02  6048   0.186E-02-0.135E-03
CGA:   6    -0.369560892932E+03   -0.46344E-03   -0.45289E-03  6048   0.952E-03-0.771E-04
CGA:   7    -0.369561096566E+03   -0.20363E-03   -0.20465E-03  6048   0.311E-03 0.643E-05
CGA:   8    -0.369561169376E+03   -0.72810E-04   -0.77677E-04  6048   0.107E-03 0.393E-04
CGA:   9    -0.369561204208E+03   -0.34832E-04   -0.34443E-04  6048   0.431E-04-0.485E-05
CGA:  10    -0.369561220247E+03   -0.16039E-04   -0.17308E-04  6048   0.326E-04-0.213E-04
CGA:  11    -0.369561224902E+03   -0.46551E-05   -0.40301E-05  6048   0.133E-04-0.523E-05
  19 F= -.36956122E+03 E0= -.36956122E+03  d E =-.391820E-01  mag=    20.0000
       N       E                     dE             d eps       ncg     rms          ort
SDA:   1    -0.369316150307E+03    0.24507E+00    0.00000E+00  6048   0.643E+00 0.000E+00
CGA:   2    -0.369519841800E+03   -0.20369E+00   -0.20382E+00  6048   0.206E+00 0.204E-02
CGA:   3    -0.369568925948E+03   -0.49084E-01   -0.49149E-01  6048   0.574E-01 0.553E-03
CGA:   4    -0.369578784142E+03   -0.98582E-02   -0.98346E-02  6048   0.163E-01-0.180E-03
CGA:   5    -0.369582294045E+03   -0.35099E-02   -0.34758E-02  6048   0.468E-02-0.288E-03
CGA:   6    -0.369583474590E+03   -0.11805E-02   -0.11688E-02  6048   0.233E-02-0.154E-03
CGA:   7    -0.369583983065E+03   -0.50847E-03   -0.51185E-03  6048   0.779E-03 0.333E-04
CGA:   8    -0.369584177713E+03   -0.19465E-03   -0.20019E-03  6048   0.277E-03 0.805E-04
CGA:   9    -0.369584266708E+03   -0.88995E-04   -0.88472E-04  6048   0.109E-03-0.178E-04
CGA:  10    -0.369584302909E+03   -0.36202E-04   -0.38073E-04  6048   0.529E-04-0.337E-04
CGA:  11    -0.369584314830E+03   -0.11921E-04   -0.12050E-04  6048   0.219E-04-0.132E-04
CGA:  12    -0.369584320727E+03   -0.58970E-05   -0.85832E-05  6048   0.245E-04-0.133E-04
  20 F= -.36958432E+03 E0= -.36958432E+03  d E =-.230958E-01  mag=    20.0000
       N       E                     dE             d eps       ncg     rms          ort
SDA:   1    -0.369580103009E+03    0.42118E-02    0.00000E+00  6048   0.142E-01 0.000E+00
CGA:   2    -0.369584195213E+03   -0.40922E-02   -0.40978E-02  6048   0.550E-02 0.173E-03
CGA:   3    -0.369585182137E+03   -0.98692E-03   -0.10070E-02  6048   0.179E-02 0.142E-03
CGA:   4    -0.369585515750E+03   -0.33361E-03   -0.33029E-03  6048   0.391E-03-0.259E-04
CGA:   5    -0.369585615014E+03   -0.99264E-04   -0.92491E-04  6048   0.219E-03-0.103E-03
CGA:   6    -0.369585654917E+03   -0.39903E-04   -0.35665E-04  6048   0.926E-04-0.526E-04
CGA:   7    -0.369585663100E+03   -0.81829E-05   -0.10939E-04  6048   0.293E-04 0.193E-04
  21 F= -.36958566E+03 E0= -.36958566E+03  d E =-.134237E-02  mag=    20.0000
       N       E                     dE             d eps       ncg     rms          ort
SDA:   1    -0.368776841694E+03    0.80881E+00    0.00000E+00  6048   0.207E+01 0.000E+00
CGA:   2    -0.369343183837E+03   -0.56634E+00   -0.56637E+00  6048   0.102E+01 0.228E-02
CGA:   3    -0.369515290091E+03   -0.17211E+00   -0.17240E+00  6048   0.273E+00 0.191E-02
CGA:   4    -0.369563999186E+03   -0.48709E-01   -0.48708E-01  6048   0.587E-01-0.914E-04
CGA:   5    -0.369574971533E+03   -0.10972E-01   -0.10906E-01  6048   0.171E-01-0.817E-03
CGA:   6    -0.369578600323E+03   -0.36288E-02   -0.36026E-02  6048   0.586E-02-0.504E-03
CGA:   7    -0.369579931351E+03   -0.13310E-02   -0.13351E-02  6048   0.212E-02 0.138E-03
CGA:   8    -0.369580454281E+03   -0.52293E-03   -0.52791E-03  6048   0.765E-03 0.265E-03
CGA:   9    -0.369580730168E+03   -0.27589E-03   -0.27678E-03  6048   0.345E-03-0.150E-04
CGA:  10    -0.369580846760E+03   -0.11659E-03   -0.14533E-03  6048   0.300E-03-0.174E-03
CGA:  11    -0.369580891331E+03   -0.44571E-04   -0.49451E-04  6048   0.406E-04 0.452E-04
CGA:  12    -0.369580906428E+03   -0.15098E-04   -0.15015E-04  6048   0.174E-04 0.153E-05
CGA:  13    -0.369580916671E+03   -0.10243E-04    0.49673E-04  6048   0.840E-05 0.507E-05
CGA:  14    -0.369580921590E+03   -0.49189E-05   -0.54873E-05  6048   0.942E-05-0.242E-05
  22 F= -.36958092E+03 E0= -.36958092E+03  d E =0.474151E-02  mag=    20.0000
       N       E                     dE             d eps       ncg     rms          ort
SDA:   1    -0.369481753378E+03    0.99163E-01    0.00000E+00  6048   0.269E+00 0.000E+00
CGA:   2    -0.369562931057E+03   -0.81178E-01   -0.81209E-01  6048   0.920E-01-0.110E-02
CGA:   3    -0.369581387301E+03   -0.18456E-01   -0.18385E-01  6048   0.358E-01-0.104E-02
CGA:   4    -0.369587271602E+03   -0.58843E-02   -0.59024E-02  6048   0.683E-02 0.159E-03
CGA:   5    -0.369588453241E+03   -0.11816E-02   -0.12316E-02  6048   0.196E-02 0.578E-03
CGA:   6    -0.369588849379E+03   -0.39614E-03   -0.41780E-03  6048   0.683E-03 0.334E-03
CGA:   7    -0.369589085362E+03   -0.23598E-03   -0.23738E-03  6048   0.380E-03-0.364E-04
CGA:   8    -0.369589201983E+03   -0.11662E-03   -0.14170E-03  6048   0.338E-03-0.187E-03
CGA:   9    -0.369589223040E+03   -0.21057E-04   -0.23954E-04  6048   0.161E-03 0.228E-04
CGA:  10    -0.369589231973E+03   -0.89336E-05   -0.17517E-04  6048   0.644E-04 0.542E-04
  23 F= -.36958923E+03 E0= -.36958923E+03  d E =-.831038E-02  mag=    20.0000
       N       E                     dE             d eps       ncg     rms          ort
SDA:   1    -0.369572327461E+03    0.16896E-01    0.00000E+00  6048   0.461E-01 0.000E+00
CGA:   2    -0.369586750372E+03   -0.14423E-01   -0.14448E-01  6048   0.171E-01-0.373E-03
CGA:   3    -0.369589981287E+03   -0.32309E-02   -0.32177E-02  6048   0.566E-02-0.237E-03
CGA:   4    -0.369590882420E+03   -0.90113E-03   -0.90623E-03  6048   0.108E-02 0.591E-04
CGA:   5    -0.369591052068E+03   -0.16965E-03   -0.18255E-03  6048   0.284E-03 0.174E-03
CGA:   6    -0.369591099046E+03   -0.46978E-04   -0.54411E-04  6048   0.972E-04 0.102E-03
CGA:   7    -0.369591130046E+03   -0.31001E-04   -0.30986E-04  6048   0.505E-04 0.215E-04
CGA:   8    -0.369590855718E+03    0.27433E-03   -0.14777E-03  6048   0.147E-02-0.284E-03
CGA:   9    -0.369591048364E+03   -0.19265E-03   -0.22646E-03  6048   0.220E-03 0.124E-03
CGA:  10    -0.369591106513E+03   -0.58150E-04   -0.64210E-04  6048   0.771E-04 0.421E-04
CGA:  11    -0.369591147203E+03   -0.40690E-04   -0.43051E-04  6048   0.709E-04-0.373E-04
CGA:  12    -0.369591148932E+03   -0.17289E-05   -0.47151E-05  6048   0.409E-04 0.107E-04
  24 F= -.36959115E+03 E0= -.36959115E+03  d E =-.191696E-02  mag=    20.0000
       N       E                     dE             d eps       ncg     rms          ort
SDA:   1    -0.369364170243E+03    0.22698E+00    0.00000E+00  6048   0.568E+00 0.000E+00
CGA:   2    -0.369535263968E+03   -0.17109E+00   -0.17105E+00  6048   0.269E+00-0.693E-03
CGA:   3    -0.369579328680E+03   -0.44065E-01   -0.44078E-01  6048   0.652E-01-0.109E-03
CGA:   4    -0.369590478103E+03   -0.11149E-01   -0.11179E-01  6048   0.130E-01 0.131E-03
CGA:   5    -0.369592838035E+03   -0.23599E-02   -0.24009E-02  6048   0.352E-02 0.234E-03
CGA:   6    -0.369593539428E+03   -0.70139E-03   -0.71848E-03  6048   0.103E-02 0.114E-03
CGA:   7    -0.369593813548E+03   -0.27412E-03   -0.27048E-03  6048   0.427E-03-0.429E-04
CGA:   8    -0.369593935468E+03   -0.12192E-03   -0.12047E-03  6048   0.211E-03-0.346E-04
CGA:   9    -0.369593984518E+03   -0.49050E-04   -0.50269E-04  6048   0.656E-04 0.161E-04
CGA:  10    -0.369593998820E+03   -0.14302E-04   -0.15981E-04  6048   0.199E-04 0.161E-04
CGA:  11    -0.369594003219E+03   -0.43983E-05   -0.52294E-05  6048   0.681E-05 0.729E-05
  25 F= -.36959400E+03 E0= -.36959400E+03  d E =-.285429E-02  mag=    20.0000
       N       E                     dE             d eps       ncg     rms          ort
SDA:   1    -0.367627707280E+03    0.19663E+01    0.00000E+00  6048   0.484E+01 0.000E+00
CGA:   2    -0.369108474695E+03   -0.14808E+01   -0.14808E+01  6048   0.224E+01-0.229E-02
CGA:   3    -0.369481114639E+03   -0.37264E+00   -0.37310E+00  6048   0.525E+00 0.213E-02
CGA:   4    -0.369568346405E+03   -0.87232E-01   -0.87388E-01  6048   0.103E+00 0.960E-03
CGA:   5    -0.369588351662E+03   -0.20005E-01   -0.20016E-01  6048   0.294E-01 0.678E-04
CGA:   6    -0.369594232478E+03   -0.58808E-02   -0.58716E-02  6048   0.857E-02-0.111E-03
CGA:   7    -0.369596326505E+03   -0.20940E-02   -0.20923E-02  6048   0.331E-02-0.412E-04
CGA:   8    -0.369597240689E+03   -0.91418E-03   -0.91476E-03  6048   0.151E-02 0.561E-04
CGA:   9    -0.369597722703E+03   -0.48201E-03   -0.48179E-03  6048   0.613E-03 0.842E-05
CGA:  10    -0.369597922548E+03   -0.19984E-03   -0.20137E-03  6048   0.239E-03-0.403E-04
CGA:  11    -0.369597989791E+03   -0.67243E-04   -0.67285E-04  6048   0.847E-04-0.389E-05
CGA:  12    -0.369598021437E+03   -0.31646E-04   -0.32405E-04  6048   0.465E-04-0.780E-05
CGA:  13    -0.369598038775E+03   -0.17338E-04   -0.17621E-04  6048   0.246E-04-0.238E-05
CGA:  14    -0.369598045203E+03   -0.64279E-05   -0.65534E-05  6048   0.809E-05 0.574E-05
  26 F= -.36959805E+03 E0= -.36959805E+03  d E =-.404198E-02  mag=    20.0000
       N       E                     dE             d eps       ncg     rms          ort
SDA:   1    -0.364764600483E+03    0.48334E+01    0.00000E+00  6048   0.118E+02 0.000E+00
CGA:   2    -0.368467077332E+03   -0.37025E+01   -0.37024E+01  6048   0.501E+01-0.368E-02
CGA:   3    -0.369329070521E+03   -0.86199E+00   -0.86298E+00  6048   0.122E+01 0.515E-02
CGA:   4    -0.369529942596E+03   -0.20087E+00   -0.20113E+00  6048   0.242E+00 0.137E-02
CGA:   5    -0.369577907731E+03   -0.47965E-01   -0.47940E-01  6048   0.696E-01-0.350E-03
CGA:   6    -0.369591682207E+03   -0.13774E-01   -0.13762E-01  6048   0.209E-01-0.178E-03
CGA:   7    -0.369596812298E+03   -0.51301E-02   -0.51319E-02  6048   0.809E-02 0.477E-04
CGA:   8    -0.369599105102E+03   -0.22928E-02   -0.22922E-02  6048   0.383E-02 0.839E-04
CGA:   9    -0.369600310057E+03   -0.12050E-02   -0.12041E-02  6048   0.152E-02 0.226E-04
CGA:  10    -0.369600797190E+03   -0.48713E-03   -0.49001E-03  6048   0.571E-03-0.703E-04
CGA:  11    -0.369600972047E+03   -0.17486E-03   -0.17672E-03  6048   0.231E-03-0.427E-04
CGA:  12    -0.369601045395E+03   -0.73347E-04   -0.72875E-04  6048   0.101E-03 0.795E-05
CGA:  13    -0.369601088925E+03   -0.43530E-04   -0.43897E-04  6048   0.581E-04-0.283E-05
CGA:  14    -0.369601105135E+03   -0.16210E-04   -0.16268E-04  6048   0.202E-04 0.148E-04
CGA:  15    -0.369601111884E+03   -0.67494E-05   -0.68593E-05  6048   0.667E-05 0.507E-05
CGA:  16    -0.369601105389E+03    0.64950E-05   -0.10036E-04  6048   0.511E-04-0.181E-04
  27 F= -.36960111E+03 E0= -.36960111E+03  d E =-.306019E-02  mag=    20.0000
       N       E                     dE             d eps       ncg     rms          ort
SDA:   1    -0.367393979369E+03    0.22071E+01    0.00000E+00  6048   0.533E+01 0.000E+00
CGA:   2    -0.368963047865E+03   -0.15691E+01   -0.15687E+01  6048   0.208E+01-0.698E-02
CGA:   3    -0.369348326531E+03   -0.38528E+00   -0.38524E+00  6048   0.701E+00-0.939E-03
CGA:   4    -0.369473463974E+03   -0.12514E+00   -0.12518E+00  6048   0.152E+00-0.525E-03
CGA:   5    -0.369503327974E+03   -0.29864E-01   -0.29976E-01  6048   0.481E-01 0.990E-03
CGA:   6    -0.369513496156E+03   -0.10168E-01   -0.10268E-01  6048   0.179E-01 0.105E-02
CGA:   7    -0.369518263176E+03   -0.47670E-02   -0.47730E-02  6048   0.724E-02 0.137E-03
CGA:   8    -0.369520329486E+03   -0.20663E-02   -0.20592E-02  6048   0.324E-02-0.386E-03
CGA:   9    -0.369521143289E+03   -0.81380E-03   -0.81514E-03  6048   0.919E-03 0.398E-04
CGA:  10    -0.369521369807E+03   -0.22652E-03   -0.23213E-03  6048   0.263E-03 0.116E-03
CGA:  11    -0.369521450464E+03   -0.80657E-04   -0.81177E-04  6048   0.895E-04 0.244E-04
CGA:  12    -0.369521478960E+03   -0.28496E-04   -0.28539E-04  6048   0.360E-04 0.158E-04
CGA:  13    -0.369521495742E+03   -0.16782E-04   -0.28105E-04  6048   0.701E-04-0.308E-04
CGA:  14    -0.369521519867E+03   -0.24125E-04   -0.26617E-04  6048   0.392E-04-0.372E-04
CGA:  15    -0.369521521879E+03   -0.20128E-05   -0.49882E-05  6048   0.707E-05 0.158E-04
  28 F= -.36952152E+03 E0= -.36952152E+03  d E =0.795835E-01  mag=    20.0000
       N       E                     dE             d eps       ncg     rms          ort
SDA:   1    -0.367418620098E+03    0.21029E+01    0.00000E+00  6048   0.538E+01 0.000E+00
CGA:   2    -0.369133743899E+03   -0.17151E+01   -0.17148E+01  6048   0.172E+01 0.105E-01
CGA:   3    -0.369494123228E+03   -0.36038E+00   -0.36048E+00  6048   0.525E+00 0.150E-03
CGA:   4    -0.369579115217E+03   -0.84992E-01   -0.85029E-01  6048   0.118E+00-0.172E-04
CGA:   5    -0.369603707897E+03   -0.24593E-01   -0.24518E-01  6048   0.362E-01-0.101E-02
CGA:   6    -0.369611603702E+03   -0.78958E-02   -0.78498E-02  6048   0.150E-01-0.735E-03
CGA:   7    -0.369615193642E+03   -0.35899E-02   -0.35946E-02  6048   0.542E-02 0.130E-03
CGA:   8    -0.369616650462E+03   -0.14568E-02   -0.14602E-02  6048   0.219E-02 0.296E-03
CGA:   9    -0.369617340099E+03   -0.68964E-03   -0.69233E-03  6048   0.795E-03-0.126E-03
CGA:  10    -0.369617580066E+03   -0.23997E-03   -0.24578E-03  6048   0.297E-03-0.119E-03
CGA:  11    -0.369617654225E+03   -0.74159E-04   -0.74517E-04  6048   0.999E-04-0.258E-04
CGA:  12    -0.369617688544E+03   -0.34319E-04   -0.37219E-04  6048   0.594E-04-0.230E-04
CGA:  13    -0.369617695405E+03   -0.68606E-05   -0.88390E-05  6048   0.269E-04 0.209E-04
  29 F= -.36961770E+03 E0= -.36961770E+03  d E =-.961735E-01  mag=    20.0000
       N       E                     dE             d eps       ncg     rms          ort
SDA:   1    -0.369583962720E+03    0.33726E-01    0.00000E+00  6048   0.988E-01 0.000E+00
CGA:   2    -0.369605128048E+03   -0.21165E-01   -0.21227E-01  6048   0.487E-01 0.899E-03
CGA:   3    -0.369614411203E+03   -0.92832E-02   -0.93122E-02  6048   0.148E-01 0.316E-03
CGA:   4    -0.369617141350E+03   -0.27301E-02   -0.27119E-02  6048   0.328E-02-0.216E-03
CGA:   5    -0.369617770813E+03   -0.62946E-03   -0.61568E-03  6048   0.996E-03-0.187E-03
CGA:   6    -0.369617976953E+03   -0.20614E-03   -0.20264E-03  6048   0.347E-03-0.775E-04
CGA:   7    -0.369618045727E+03   -0.68774E-04   -0.69552E-04  6048   0.111E-03 0.185E-04
CGA:   8    -0.369618065826E+03   -0.20099E-04   -0.22346E-04  6048   0.361E-04 0.339E-04
CGA:   9    -0.369618075940E+03   -0.10113E-04   -0.10487E-04  6048   0.164E-04 0.123E-04
CGA:  10    -0.369618078065E+03   -0.21252E-05   -0.15936E-04  6048   0.694E-04-0.292E-04
CGA:  11    -0.369618089530E+03   -0.11465E-04   -0.12150E-04  6048   0.879E-05 0.679E-05
CGA:  12    -0.369618091894E+03   -0.23634E-05   -0.59841E-05  6048   0.168E-04-0.104E-04
  30 F= -.36961809E+03 E0= -.36961809E+03  d E =-.396489E-03  mag=    20.0000
       N       E                     dE             d eps       ncg     rms          ort
SDA:   1    -0.369415562679E+03    0.20253E+00    0.00000E+00  6048   0.488E+00 0.000E+00
CGA:   2    -0.369576789024E+03   -0.16123E+00   -0.16119E+00  6048   0.193E+00 0.512E-03
CGA:   3    -0.369608996566E+03   -0.32208E-01   -0.32274E-01  6048   0.472E-01 0.441E-03
CGA:   4    -0.369616872195E+03   -0.78756E-02   -0.78576E-02  6048   0.941E-02-0.178E-03
CGA:   5    -0.369618784343E+03   -0.19121E-02   -0.18963E-02  6048   0.283E-02-0.223E-03
CGA:   6    -0.369619326769E+03   -0.54243E-03   -0.53964E-03  6048   0.798E-03-0.382E-04
CGA:   7    -0.369619505310E+03   -0.17854E-03   -0.18027E-03  6048   0.280E-03 0.451E-04
CGA:   8    -0.369619581269E+03   -0.75959E-04   -0.76230E-04  6048   0.120E-03 0.352E-04
CGA:   9    -0.369619629702E+03   -0.48433E-04   -0.50009E-04  6048   0.732E-04-0.148E-04
CGA:  10    -0.369619651514E+03   -0.21813E-04   -0.25789E-04  6048   0.476E-04-0.302E-04
CGA:  11    -0.369619658022E+03   -0.65078E-05   -0.63893E-05  6048   0.180E-04-0.247E-05
  31 F= -.36961966E+03 E0= -.36961966E+03  d E =-.156613E-02  mag=    20.0000
       N       E                     dE             d eps       ncg     rms          ort
SDA:   1    -0.360153706900E+03    0.94659E+01    0.00000E+00  6048   0.221E+02 0.000E+00
CGA:   2    -0.367939127242E+03   -0.77854E+01   -0.77830E+01  6048   0.641E+01 0.182E-01
CGA:   3    -0.369254387702E+03   -0.13153E+01   -0.13157E+01  6048   0.134E+01 0.351E-02
CGA:   4    -0.369473924234E+03   -0.21954E+00   -0.21948E+00  6048   0.365E+00-0.153E-02
CGA:   5    -0.369546153076E+03   -0.72229E-01   -0.72194E-01  6048   0.891E-01-0.604E-03
CGA:   6    -0.369564894901E+03   -0.18742E-01   -0.18753E-01  6048   0.324E-01 0.174E-03
CGA:   7    -0.369572812287E+03   -0.79174E-02   -0.79182E-02  6048   0.130E-01 0.384E-04
CGA:   8    -0.369576733153E+03   -0.39209E-02   -0.39186E-02  6048   0.633E-02 0.511E-04
CGA:   9    -0.369578593908E+03   -0.18608E-02   -0.18611E-02  6048   0.233E-02-0.140E-04
CGA:  10    -0.369579331126E+03   -0.73722E-03   -0.75206E-03  6048   0.835E-03-0.247E-03
CGA:  11    -0.369579571499E+03   -0.24037E-03   -0.24444E-03  6048   0.338E-03-0.670E-04
CGA:  12    -0.369579678876E+03   -0.10738E-03   -0.10676E-03  6048   0.158E-03 0.824E-05
CGA:  13    -0.369579748871E+03   -0.69995E-04   -0.70931E-04  6048   0.964E-04-0.576E-05
CGA:  14    -0.369579772628E+03   -0.23757E-04   -0.24335E-04  6048   0.341E-04 0.299E-04
CGA:  15    -0.369579784305E+03   -0.11677E-04   -0.11805E-04  6048   0.116E-04 0.801E-05
CGA:  16    -0.369579728101E+03    0.56204E-04   -0.30491E-04  6048   0.235E-03-0.540E-04
CGA:  17    -0.369579771889E+03   -0.43788E-04   -0.55401E-04  6048   0.275E-04 0.424E-04
CGA:  18    -0.369579786858E+03   -0.14969E-04   -0.24821E-04  6048   0.586E-04-0.368E-04
CGA:  19    -0.369579784626E+03    0.22314E-05   -0.84518E-05  6048   0.162E-04 0.292E-04
  32 F= -.36957978E+03 E0= -.36957978E+03  d E =0.398734E-01  mag=    20.0000
       N       E                     dE             d eps       ncg     rms          ort
SDA:   1    -0.368299370882E+03    0.12804E+01    0.00000E+00  6048   0.323E+01 0.000E+00
CGA:   2    -0.369302836731E+03   -0.10035E+01   -0.10032E+01  6048   0.127E+01-0.764E-03
CGA:   3    -0.369530947276E+03   -0.22811E+00   -0.22790E+00  6048   0.379E+00-0.119E-02
CGA:   4    -0.369595543405E+03   -0.64596E-01   -0.64612E-01  6048   0.810E-01-0.139E-03
CGA:   5    -0.369611532369E+03   -0.15989E-01   -0.16106E-01  6048   0.252E-01 0.489E-03
CGA:   6    -0.369616690248E+03   -0.51579E-02   -0.52353E-02  6048   0.878E-02 0.351E-03
CGA:   7    -0.369618985246E+03   -0.22950E-02   -0.22977E-02  6048   0.355E-02 0.145E-04
CGA:   8    -0.369620027345E+03   -0.10421E-02   -0.10200E-02  6048   0.164E-02-0.184E-03
CGA:   9    -0.369620455091E+03   -0.42775E-03   -0.42744E-03  6048   0.492E-03-0.253E-05
CGA:  10    -0.369620565804E+03   -0.11071E-03   -0.12069E-03  6048   0.135E-03 0.670E-04
CGA:  11    -0.369620601131E+03   -0.35327E-04   -0.38581E-04  6048   0.441E-04 0.239E-04
CGA:  12    -0.369620614891E+03   -0.13760E-04   -0.14728E-04  6048   0.194E-04 0.100E-04
CGA:  13    -0.369620625526E+03   -0.10636E-04   -0.10968E-04  6048   0.172E-04-0.397E-05
CGA:  14    -0.369620637471E+03   -0.11945E-04    0.17065E-04  6048   0.107E-04-0.316E-05
CGA:  15    -0.369620640945E+03   -0.34734E-05   -0.36169E-05  6048   0.742E-05-0.433E-05
  33 F= -.36962064E+03 E0= -.36962064E+03  d E =-.408563E-01  mag=    20.0000
       N       E                     dE             d eps       ncg     rms          ort
SDA:   1    -0.368851072719E+03    0.76956E+00    0.00000E+00  6048   0.180E+01 0.000E+00
CGA:   2    -0.369486534188E+03   -0.63546E+00   -0.63545E+00  6048   0.548E+00-0.830E-03
CGA:   3    -0.369599460981E+03   -0.11293E+00   -0.11287E+00  6048   0.116E+00-0.732E-03
CGA:   4    -0.369618404180E+03   -0.18943E-01   -0.18995E-01  6048   0.319E-01 0.217E-03
CGA:   5    -0.369624794619E+03   -0.63904E-02   -0.64117E-02  6048   0.798E-02 0.131E-03
CGA:   6    -0.369626536742E+03   -0.17421E-02   -0.17391E-02  6048   0.314E-02-0.268E-04
CGA:   7    -0.369627318608E+03   -0.78187E-03   -0.77617E-03  6048   0.124E-02-0.614E-04
CGA:   8    -0.369627679112E+03   -0.36050E-03   -0.36016E-03  6048   0.573E-03-0.840E-05
CGA:   9    -0.369627833656E+03   -0.15454E-03   -0.15575E-03  6048   0.188E-03 0.195E-04
CGA:  10    -0.369627894028E+03   -0.60372E-04   -0.60184E-04  6048   0.649E-04-0.808E-05
CGA:  11    -0.369627909874E+03   -0.15847E-04   -0.16425E-04  6048   0.220E-04 0.867E-05
CGA:  12    -0.369627916558E+03   -0.66837E-05   -0.69501E-05  6048   0.107E-04 0.548E-05
CGA:  13    -0.369627921608E+03   -0.50503E-05   -0.10869E-04  6048   0.334E-04-0.119E-04
  34 F= -.36962792E+03 E0= -.36962792E+03  d E =-.728066E-02  mag=    20.0000
       N       E                     dE             d eps       ncg     rms          ort
SDA:   1    -0.369482519339E+03    0.14540E+00    0.00000E+00  6048   0.356E+00 0.000E+00
CGA:   2    -0.369593893511E+03   -0.11137E+00   -0.11138E+00  6048   0.142E+00-0.423E-04
CGA:   3    -0.369618801312E+03   -0.24908E-01   -0.25016E-01  6048   0.419E-01 0.563E-03
CGA:   4    -0.369626103187E+03   -0.73019E-02   -0.73180E-02  6048   0.863E-02 0.871E-04
CGA:   5    -0.369627897327E+03   -0.17941E-02   -0.17625E-02  6048   0.292E-02-0.268E-03
CGA:   6    -0.369628525872E+03   -0.62854E-03   -0.61373E-03  6048   0.109E-02-0.148E-03
CGA:   7    -0.369628771005E+03   -0.24513E-03   -0.24652E-03  6048   0.383E-03 0.180E-04
CGA:   8    -0.369628855664E+03   -0.84659E-04   -0.89356E-04  6048   0.131E-03 0.589E-04
CGA:   9    -0.369628897938E+03   -0.42274E-04   -0.42564E-04  6048   0.484E-04 0.119E-04
CGA:  10    -0.369628911294E+03   -0.13356E-04   -0.33258E-04  6048   0.131E-03-0.611E-04
CGA:  11    -0.369628930382E+03   -0.19088E-04   -0.21184E-04  6048   0.122E-04 0.132E-04
CGA:  12    -0.369628932721E+03   -0.23384E-05   -0.27758E-05  6048   0.324E-05 0.414E-05
  35 F= -.36962893E+03 E0= -.36962893E+03  d E =-.101111E-02  mag=    20.0000
       N       E                     dE             d eps       ncg     rms          ort
SDA:   1    -0.369604528797E+03    0.24402E-01    0.00000E+00  6048   0.642E-01 0.000E+00
CGA:   2    -0.369624604523E+03   -0.20076E-01   -0.20074E-01  6048   0.214E-01 0.290E-03
CGA:   3    -0.369629182634E+03   -0.45781E-02   -0.45414E-02  6048   0.737E-02-0.405E-03
CGA:   4    -0.369630349297E+03   -0.11667E-02   -0.11600E-02  6048   0.161E-02-0.511E-04
CGA:   5    -0.369630631124E+03   -0.28183E-03   -0.29730E-03  6048   0.440E-03 0.144E-03
CGA:   6    -0.369630711997E+03   -0.80873E-04   -0.89650E-04  6048   0.154E-03 0.865E-04
CGA:   7    -0.369630763569E+03   -0.51572E-04   -0.51593E-04  6048   0.755E-04 0.596E-05
CGA:   8    -0.369630790537E+03   -0.26968E-04   -0.33935E-04  6048   0.927E-04-0.465E-04
CGA:   9    -0.369630799623E+03   -0.90859E-05   -0.12357E-04  6048   0.126E-04 0.208E-04
  36 F= -.36963080E+03 E0= -.36963080E+03  d E =-.186690E-02  mag=    20.0000
       N       E                     dE             d eps       ncg     rms          ort
SDA:   1    -0.369590549831E+03    0.40241E-01    0.00000E+00  6048   0.956E-01 0.000E+00
CGA:   2    -0.369623419717E+03   -0.32870E-01   -0.32861E-01  6048   0.346E-01 0.108E-03
CGA:   3    -0.369629335615E+03   -0.59159E-02   -0.59129E-02  6048   0.862E-02-0.509E-04
CGA:   4    -0.369630751929E+03   -0.14163E-02   -0.14094E-02  6048   0.180E-02-0.663E-04
CGA:   5    -0.369631089471E+03   -0.33754E-03   -0.34173E-03  6048   0.499E-03 0.547E-04
CGA:   6    -0.369631175467E+03   -0.85996E-04   -0.90830E-04  6048   0.129E-03 0.553E-04
CGA:   7    -0.369631212740E+03   -0.37273E-04   -0.37273E-04  6048   0.598E-04 0.502E-06
CGA:   8    -0.369631233098E+03   -0.20358E-04   -0.22738E-04  6048   0.511E-04-0.200E-04
CGA:   9    -0.369631237070E+03   -0.39729E-05   -0.51716E-05  6048   0.230E-04 0.105E-04
  37 F= -.36963124E+03 E0= -.36963124E+03  d E =-.437448E-03  mag=    20.0000
       N       E                     dE             d eps       ncg     rms          ort
SDA:   1    -0.368262397481E+03    0.13688E+01    0.00000E+00  6048   0.330E+01 0.000E+00
CGA:   2    -0.369290452365E+03   -0.10281E+01   -0.10279E+01  6048   0.160E+01 0.169E-02
CGA:   3    -0.369540101940E+03   -0.24965E+00   -0.24979E+00  6048   0.355E+00 0.396E-03
CGA:   4    -0.369600321034E+03   -0.60219E-01   -0.60160E-01  6048   0.769E-01-0.813E-03
CGA:   5    -0.369614734841E+03   -0.14414E-01   -0.14393E-01  6048   0.221E-01-0.372E-03
CGA:   6    -0.369619008489E+03   -0.42736E-02   -0.42811E-02  6048   0.604E-02 0.146E-03
CGA:   7    -0.369620416791E+03   -0.14083E-02   -0.14094E-02  6048   0.221E-02 0.117E-03
CGA:   8    -0.369621044646E+03   -0.62786E-03   -0.62741E-03  6048   0.989E-03 0.111E-04
CGA:   9    -0.369621344260E+03   -0.29961E-03   -0.29847E-03  6048   0.375E-03 0.195E-04
CGA:  10    -0.369621465532E+03   -0.12127E-03   -0.12385E-03  6048   0.141E-03-0.330E-04
CGA:  11    -0.369621502034E+03   -0.36502E-04   -0.36709E-04  6048   0.440E-04-0.572E-05
CGA:  12    -0.369621511366E+03   -0.93322E-05   -0.96104E-05  6048   0.148E-04 0.120E-04
  38 F= -.36962151E+03 E0= -.36962151E+03  d E =0.972570E-02  mag=    20.0000
       N       E                     dE             d eps       ncg     rms          ort
SDA:   1    -0.368024524297E+03    0.15970E+01    0.00000E+00  6048   0.387E+01 0.000E+00
CGA:   2    -0.369216270438E+03   -0.11917E+01   -0.11915E+01  6048   0.201E+01 0.196E-02
CGA:   3    -0.369527706559E+03   -0.31144E+00   -0.31165E+00  6048   0.432E+00 0.827E-03
CGA:   4    -0.369600636438E+03   -0.72930E-01   -0.72893E-01  6048   0.936E-01-0.518E-03
CGA:   5    -0.369617835082E+03   -0.17199E-01   -0.17189E-01  6048   0.266E-01-0.182E-03
CGA:   6    -0.369623063223E+03   -0.52281E-02   -0.52400E-02  6048   0.746E-02 0.248E-03
CGA:   7    -0.369624814285E+03   -0.17511E-02   -0.17520E-02  6048   0.275E-02 0.107E-03
CGA:   8    -0.369625603552E+03   -0.78927E-03   -0.79057E-03  6048   0.125E-02-0.311E-04
CGA:   9    -0.369625965298E+03   -0.36175E-03   -0.35952E-03  6048   0.449E-03 0.466E-04
CGA:  10    -0.369626103339E+03   -0.13804E-03   -0.13795E-03  6048   0.147E-03 0.175E-05
CGA:  11    -0.369626149558E+03   -0.46219E-04   -0.47523E-04  6048   0.565E-04-0.177E-04
CGA:  12    -0.369626159507E+03   -0.99485E-05   -0.10565E-04  6048   0.193E-04 0.157E-04
  39 F= -.36962616E+03 E0= -.36962616E+03  d E =-.464814E-02  mag=    20.0000
       N       E                     dE             d eps       ncg     rms          ort
SDA:   1    -0.369170552017E+03    0.45560E+00    0.00000E+00  6048   0.124E+01 0.000E+00
CGA:   2    -0.369485834628E+03   -0.31528E+00   -0.31529E+00  6048   0.606E+00-0.176E-02
CGA:   3    -0.369591867574E+03   -0.10603E+00   -0.10607E+00  6048   0.168E+00 0.120E-03
CGA:   4    -0.369620628792E+03   -0.28761E-01   -0.28827E-01  6048   0.345E-01 0.816E-03
CGA:   5    -0.369627003601E+03   -0.63748E-02   -0.64077E-02  6048   0.957E-02 0.561E-03
CGA:   6    -0.369628991733E+03   -0.19881E-02   -0.19934E-02  6048   0.301E-02 0.150E-03
CGA:   7    -0.369629778710E+03   -0.78698E-03   -0.78842E-03  6048   0.128E-02-0.735E-04
CGA:   8    -0.369630123611E+03   -0.34490E-03   -0.34627E-03  6048   0.570E-03-0.358E-04
CGA:   9    -0.369630281179E+03   -0.15757E-03   -0.15661E-03  6048   0.193E-03 0.228E-04
CGA:  10    -0.369630332190E+03   -0.51011E-04   -0.50695E-04  6048   0.609E-04 0.320E-04
CGA:  11    -0.369630351143E+03   -0.18953E-04   -0.18689E-04  6048   0.231E-04 0.131E-04
CGA:  12    -0.369630362778E+03   -0.11634E-04   -0.12926E-04  6048   0.218E-04-0.597E-05
CGA:  13    -0.369630368002E+03   -0.52242E-05   -0.53330E-05  6048   0.131E-04-0.148E-05
  40 F= -.36963037E+03 E0= -.36963037E+03  d E =-.420850E-02  mag=    20.0000
       N       E                     dE             d eps       ncg     rms          ort
SDA:   1    -0.369087264850E+03    0.54310E+00    0.00000E+00  6048   0.133E+01 0.000E+00
CGA:   2    -0.369507375377E+03   -0.42011E+00   -0.42015E+00  6048   0.532E+00-0.135E-02
CGA:   3    -0.369603021561E+03   -0.95646E-01   -0.95848E-01  6048   0.147E+00 0.202E-02
CGA:   4    -0.369626964539E+03   -0.23943E-01   -0.23994E-01  6048   0.293E-01 0.444E-03
CGA:   5    -0.369633004068E+03   -0.60395E-02   -0.60088E-02  6048   0.911E-02-0.601E-03
CGA:   6    -0.369634896940E+03   -0.18929E-02   -0.18784E-02  6048   0.318E-02-0.338E-03
CGA:   7    -0.369635627547E+03   -0.73061E-03   -0.73181E-03  6048   0.113E-02 0.919E-04
CGA:   8    -0.369635922760E+03   -0.29521E-03   -0.29485E-03  6048   0.453E-03 0.124E-03
CGA:   9    -0.369636088542E+03   -0.16578E-03   -0.16844E-03  6048   0.217E-03-0.318E-04
CGA:  10    -0.369636156283E+03   -0.67741E-04   -0.75073E-04  6048   0.120E-03-0.630E-04
CGA:  11    -0.369636182886E+03   -0.26603E-04   -0.31608E-04  6048   0.682E-04-0.453E-04
CGA:  12    -0.369636195264E+03   -0.12378E-04   -0.12427E-04  6048   0.285E-04-0.189E-05
CGA:  13    -0.369636199103E+03   -0.38395E-05   -0.49514E-05  6048   0.139E-04 0.124E-04
  41 F= -.36963620E+03 E0= -.36963620E+03  d E =-.583110E-02  mag=    20.0000
       N       E                     dE             d eps       ncg     rms          ort
SDA:   1    -0.369090836956E+03    0.54536E+00    0.00000E+00  6048   0.136E+01 0.000E+00
CGA:   2    -0.369483271170E+03   -0.39243E+00   -0.39235E+00  6048   0.730E+00 0.200E-02
CGA:   3    -0.369599831793E+03   -0.11656E+00   -0.11663E+00  6048   0.164E+00 0.188E-03
CGA:   4    -0.369627535710E+03   -0.27704E-01   -0.27655E-01  6048   0.345E-01-0.622E-03
CGA:   5    -0.369633888031E+03   -0.63523E-02   -0.63306E-02  6048   0.972E-02-0.342E-03
CGA:   6    -0.369635795396E+03   -0.19074E-02   -0.19095E-02  6048   0.276E-02 0.421E-04
CGA:   7    -0.369636422139E+03   -0.62674E-03   -0.62829E-03  6048   0.972E-03 0.863E-04
CGA:   8    -0.369636702214E+03   -0.28007E-03   -0.27963E-03  6048   0.440E-03 0.122E-04
CGA:   9    -0.369636836763E+03   -0.13455E-03   -0.13391E-03  6048   0.171E-03 0.114E-04
CGA:  10    -0.369636892616E+03   -0.55853E-04   -0.57061E-04  6048   0.679E-04-0.155E-04
CGA:  11    -0.369636912641E+03   -0.20025E-04   -0.21677E-04  6048   0.318E-04-0.166E-04
CGA:  12    -0.369636916510E+03   -0.38691E-05   -0.44764E-05  6048   0.122E-04 0.864E-05
  42 F= -.36963692E+03 E0= -.36963692E+03  d E =-.717407E-03  mag=    20.0000
       N       E                     dE             d eps       ncg     rms          ort
SDA:   1    -0.368590858154E+03    0.10461E+01    0.00000E+00  6048   0.253E+01 0.000E+00
CGA:   2    -0.369374601758E+03   -0.78374E+00   -0.78364E+00  6048   0.115E+01 0.101E-02
CGA:   3    -0.369562119342E+03   -0.18752E+00   -0.18754E+00  6048   0.289E+00-0.365E-03
CGA:   4    -0.369610313167E+03   -0.48194E-01   -0.48149E-01  6048   0.599E-01-0.620E-03
CGA:   5    -0.369621435051E+03   -0.11122E-01   -0.11135E-01  6048   0.173E-01 0.219E-03
CGA:   6    -0.369624808818E+03   -0.33738E-02   -0.33962E-02  6048   0.498E-02 0.494E-03
CGA:   7    -0.369626045673E+03   -0.12369E-02   -0.12366E-02  6048   0.196E-02 0.669E-04
CGA:   8    -0.369626645017E+03   -0.59934E-03   -0.61183E-03  6048   0.106E-02-0.178E-03
CGA:   9    -0.369626893387E+03   -0.24837E-03   -0.24698E-03  6048   0.334E-03 0.892E-04
CGA:  10    -0.369626975068E+03   -0.81681E-04   -0.82732E-04  6048   0.104E-03 0.748E-04
CGA:  11    -0.369627013073E+03   -0.38005E-04   -0.38074E-04  6048   0.452E-04-0.125E-05
CGA:  12    -0.369627023513E+03   -0.10441E-04   -0.10546E-04  6048   0.187E-04 0.125E-04
CGA:  13    -0.369627029671E+03   -0.61579E-05   -0.60952E-05  6048   0.104E-04 0.545E-05
CGA:  14    -0.369627037090E+03   -0.74186E-05    0.12554E-04  6048   0.615E-05 0.502E-05
  43 F= -.36962704E+03 E0= -.36962704E+03  d E =0.987942E-02  mag=    20.0000
       N       E                     dE             d eps       ncg     rms          ort
SDA:   1    -0.369368196750E+03    0.25883E+00    0.00000E+00  6048   0.676E+00 0.000E+00
CGA:   2    -0.369560163570E+03   -0.19197E+00   -0.19201E+00  6048   0.338E+00-0.159E-02
CGA:   3    -0.369617213007E+03   -0.57049E-01   -0.57120E-01  6048   0.871E-01 0.697E-03
CGA:   4    -0.369631643158E+03   -0.14430E-01   -0.14490E-01  6048   0.176E-01 0.743E-03
CGA:   5    -0.369635016416E+03   -0.33733E-02   -0.33795E-02  6048   0.527E-02 0.122E-03
CGA:   6    -0.369636131263E+03   -0.11148E-02   -0.11112E-02  6048   0.176E-02-0.136E-03
CGA:   7    -0.369636561027E+03   -0.42976E-03   -0.43050E-03  6048   0.715E-03-0.470E-04
CGA:   8    -0.369636735647E+03   -0.17462E-03   -0.17400E-03  6048   0.270E-03 0.439E-04
CGA:   9    -0.369636825062E+03   -0.89415E-04   -0.89741E-04  6048   0.110E-03-0.430E-05
CGA:  10    -0.369636860286E+03   -0.35224E-04   -0.37055E-04  6048   0.516E-04-0.180E-04
CGA:  11    -0.369636872789E+03   -0.12502E-04   -0.12694E-04  6048   0.188E-04-0.398E-05
CGA:  12    -0.369636804759E+03    0.68029E-04   -0.36735E-04  6048   0.359E-03-0.699E-04
CGA:  13    -0.369636871618E+03   -0.66859E-04   -0.74620E-04  6048   0.306E-04 0.316E-04
CGA:  14    -0.369636886169E+03   -0.14551E-04   -0.14463E-04  6048   0.164E-04-0.137E-04
CGA:  15    -0.369636884744E+03    0.14245E-05   -0.81882E-06  6048   0.110E-04 0.641E-05
  44 F= -.36963688E+03 E0= -.36963688E+03  d E =-.984765E-02  mag=    20.0000
       N       E                     dE             d eps       ncg     rms          ort
SDA:   1    -0.369478167252E+03    0.15872E+00    0.00000E+00  6048   0.385E+00 0.000E+00
CGA:   2    -0.369602213208E+03   -0.12405E+00   -0.12403E+00  6048   0.149E+00-0.320E-03
CGA:   3    -0.369628237406E+03   -0.26024E-01   -0.26200E-01  6048   0.423E-01 0.694E-03
CGA:   4    -0.369635250489E+03   -0.70131E-02   -0.70453E-02  6048   0.867E-02 0.123E-03
CGA:   5    -0.369637060411E+03   -0.18099E-02   -0.17552E-02  6048   0.290E-02-0.313E-03
CGA:   6    -0.369637694389E+03   -0.63398E-03   -0.60267E-03  6048   0.108E-02-0.204E-03
CGA:   7    -0.369637916261E+03   -0.22187E-03   -0.22661E-03  6048   0.361E-03 0.347E-04
CGA:   8    -0.369637987545E+03   -0.71284E-04   -0.81613E-04  6048   0.123E-03 0.756E-04
CGA:   9    -0.369638031923E+03   -0.44378E-04   -0.44620E-04  6048   0.581E-04 0.500E-05
CGA:  10    -0.369638053986E+03   -0.22062E-04   -0.31621E-04  6048   0.102E-03-0.543E-04
CGA:  11    -0.369638069056E+03   -0.15070E-04   -0.16754E-04  6048   0.116E-04 0.878E-05
CGA:  12    -0.369638073649E+03   -0.45937E-05   -0.46383E-05  6048   0.457E-05-0.195E-05
  45 F= -.36963807E+03 E0= -.36963807E+03  d E =-.118890E-02  mag=    20.0000
       N       E                     dE             d eps       ncg     rms          ort
SDA:   1    -0.369507043025E+03    0.13103E+00    0.00000E+00  6048   0.312E+00 0.000E+00
CGA:   2    -0.369613078446E+03   -0.10604E+00   -0.10603E+00  6048   0.117E+00-0.197E-03
CGA:   3    -0.369632705750E+03   -0.19627E-01   -0.19680E-01  6048   0.292E-01 0.159E-03
CGA:   4    -0.369637457592E+03   -0.47518E-02   -0.47492E-02  6048   0.620E-02-0.177E-04
CGA:   5    -0.369638680409E+03   -0.12228E-02   -0.12211E-02  6048   0.183E-02-0.105E-04
CGA:   6    -0.369639021160E+03   -0.34075E-03   -0.34874E-03  6048   0.516E-03 0.440E-04
CGA:   7    -0.369639149310E+03   -0.12815E-03   -0.12890E-03  6048   0.201E-03 0.634E-05
CGA:   8    -0.369639213618E+03   -0.64308E-04   -0.63430E-04  6048   0.110E-03-0.202E-04
CGA:   9    -0.369639234205E+03   -0.20587E-04   -0.22720E-04  6048   0.330E-04 0.172E-04
CGA:  10    -0.369639240644E+03   -0.64392E-05   -0.78121E-05  6048   0.109E-04 0.969E-05
  46 F= -.36963924E+03 E0= -.36963924E+03  d E =-.116699E-02  mag=    20.0000
       N       E                     dE             d eps       ncg     rms          ort
SDA:   1    -0.368862841413E+03    0.77639E+00    0.00000E+00  6048   0.181E+01 0.000E+00
CGA:   2    -0.369492195662E+03   -0.62935E+00   -0.62936E+00  6048   0.640E+00-0.138E-02
CGA:   3    -0.369602667858E+03   -0.11047E+00   -0.11055E+00  6048   0.154E+00 0.128E-03
CGA:   4    -0.369627572389E+03   -0.24905E-01   -0.24933E-01  6048   0.324E-01 0.104E-03
CGA:   5    -0.369634012413E+03   -0.64400E-02   -0.64683E-02  6048   0.906E-02 0.220E-03
CGA:   6    -0.369635775845E+03   -0.17634E-02   -0.17846E-02  6048   0.259E-02 0.169E-03
CGA:   7    -0.369636449052E+03   -0.67321E-03   -0.66974E-03  6048   0.107E-02-0.606E-04
CGA:   8    -0.369636768091E+03   -0.31904E-03   -0.31865E-03  6048   0.554E-03-0.719E-04
CGA:   9    -0.369636889427E+03   -0.12134E-03   -0.12595E-03  6048   0.167E-03 0.708E-04
CGA:  10    -0.369636932434E+03   -0.43007E-04   -0.45285E-04  6048   0.513E-04 0.347E-04
CGA:  11    -0.369636954550E+03   -0.22116E-04   -0.23508E-04  6048   0.355E-04-0.181E-04
CGA:  12    -0.369636957289E+03   -0.27388E-05   -0.37985E-05  6048   0.187E-04 0.750E-05
  47 F= -.36963696E+03 E0= -.36963696E+03  d E =0.228336E-02  mag=    20.0000
       N       E                     dE             d eps       ncg     rms          ort
SDA:   1    -0.365611008907E+03    0.40259E+01    0.00000E+00  6048   0.937E+01 0.000E+00
CGA:   2    -0.368890468811E+03   -0.32795E+01   -0.32797E+01  6048   0.331E+01-0.486E-02
CGA:   3    -0.369455269079E+03   -0.56480E+00   -0.56527E+00  6048   0.779E+00 0.154E-02
CGA:   4    -0.369581795286E+03   -0.12653E+00   -0.12662E+00  6048   0.168E+00 0.508E-03
CGA:   5    -0.369615510285E+03   -0.33715E-01   -0.33733E-01  6048   0.475E-01 0.196E-03
CGA:   6    -0.369624754312E+03   -0.92440E-02   -0.92606E-02  6048   0.137E-01 0.183E-03
CGA:   7    -0.369628156005E+03   -0.34017E-02   -0.33990E-02  6048   0.542E-02-0.101E-03
CGA:   8    -0.369629720367E+03   -0.15644E-02   -0.15664E-02  6048   0.259E-02-0.107E-03
CGA:   9    -0.369630433086E+03   -0.71272E-03   -0.71189E-03  6048   0.878E-03 0.114E-03
CGA:  10    -0.369630697112E+03   -0.26403E-03   -0.26359E-03  6048   0.259E-03 0.307E-04
CGA:  11    -0.369630788223E+03   -0.91112E-04   -0.96694E-04  6048   0.128E-03-0.646E-04
CGA:  12    -0.369630811134E+03   -0.22911E-04   -0.23457E-04  6048   0.451E-04 0.160E-04
CGA:  13    -0.369630825179E+03   -0.14045E-04   -0.14045E-04  6048   0.227E-04 0.373E-05
CGA:  14    -0.369630723438E+03    0.10174E-03   -0.55086E-04  6048   0.468E-03-0.973E-04
CGA:  15    -0.369630809305E+03   -0.85867E-04   -0.10419E-03  6048   0.546E-04 0.648E-04
CGA:  16    -0.369630820809E+03   -0.11504E-04   -0.58633E-04  6048   0.202E-03-0.104E-03
CGA:  17    -0.369630823216E+03   -0.24071E-05   -0.33782E-04  6048   0.481E-04 0.906E-04
CGA:  18    -0.369630830493E+03   -0.72775E-05   -0.12991E-04  6048   0.819E-05 0.184E-04
  48 F= -.36963083E+03 E0= -.36963083E+03  d E =0.612680E-02  mag=    20.0000
       N       E                     dE             d eps       ncg     rms          ort
SDA:   1    -0.310360156189E+03    0.59271E+02    0.00000E+00  6048   0.127E+03 0.000E+00
CGA:   2    -0.349114824923E+03   -0.38755E+02   -0.39725E+02  6048   0.427E+02 0.479E+00
CGA:   3    -0.359025200143E+03   -0.99104E+01   -0.10068E+02  6048   0.142E+02 0.409E+00
CGA:   4    -0.361411487802E+03   -0.23863E+01   -0.24097E+01  6048   0.392E+01 0.105E+00
CGA:   5    -0.362264040003E+03   -0.85255E+00   -0.85685E+00  6048   0.133E+01-0.713E-03
CGA:   6    -0.362573925533E+03   -0.30989E+00   -0.31042E+00  6048   0.594E+00-0.943E-03
CGA:   7    -0.362717494581E+03   -0.14357E+00   -0.14371E+00  6048   0.209E+00 0.584E-03
CGA:   8    -0.362772097567E+03   -0.54603E-01   -0.54844E-01  6048   0.772E-01 0.149E-02
CGA:   9    -0.362792925056E+03   -0.20827E-01   -0.20881E-01  6048   0.245E-01 0.302E-03
CGA:  10    -0.362800374404E+03   -0.74493E-02   -0.73620E-02  6048   0.782E-02-0.870E-03
CGA:  11    -0.362802619275E+03   -0.22449E-02   -0.22237E-02  6048   0.236E-02-0.211E-03
CGA:  12    -0.362803363110E+03   -0.74384E-03   -0.73814E-03  6048   0.874E-03-0.835E-04
CGA:  13    -0.362803698822E+03   -0.33571E-03   -0.33740E-03  6048   0.444E-03-0.130E-03
CGA:  14    -0.362803742640E+03   -0.43818E-04   -0.74971E-04  6048   0.185E-03 0.164E-03
CGA:  15    -0.362803773045E+03   -0.30405E-04   -0.46618E-04  6048   0.706E-04 0.834E-04
CGA:  16    -0.362803785733E+03   -0.12688E-04   -0.87711E-04  6048   0.362E-03-0.154E-03
CGA:  17    -0.362803809977E+03   -0.24244E-04   -0.58226E-04  6048   0.740E-04 0.146E-03
CGA:  18    -0.362803833932E+03   -0.23954E-04   -0.24444E-04  6048   0.139E-04 0.333E-05
CGA:  19    -0.362803877923E+03   -0.43991E-04    0.88672E-06  6048   0.812E-05-0.274E-05
CGA:  20    -0.362803876223E+03    0.17000E-05   -0.23470E-06  6048   0.671E-05 0.572E-05
  49 F= -.36280388E+03 E0= -.36280388E+03  d E =0.682695E+01  mag=    20.0000
       N       E                     dE             d eps       ncg     rms          ort
SDA:   1    -0.338471002110E+03    0.24333E+02    0.00000E+00  6048   0.731E+02 0.000E+00
CGA:   2    -0.361967238862E+03   -0.23496E+02   -0.23485E+02  6048   0.218E+02-0.906E+00
CGA:   3    -0.366939714670E+03   -0.49725E+01   -0.50225E+01  6048   0.532E+01-0.259E-02
CGA:   4    -0.368035173703E+03   -0.10955E+01   -0.10941E+01  6048   0.203E+01 0.673E-02
CGA:   5    -0.368453556357E+03   -0.41838E+00   -0.41858E+00  6048   0.646E+00 0.715E-02
CGA:   6    -0.368616520055E+03   -0.16296E+00   -0.16318E+00  6048   0.318E+00 0.743E-03
CGA:   7    -0.368690478418E+03   -0.73958E-01   -0.73819E-01  6048   0.104E+00-0.314E-02
CGA:   8    -0.368719032833E+03   -0.28554E-01   -0.28524E-01  6048   0.391E-01-0.914E-03
CGA:   9    -0.368728233828E+03   -0.92010E-02   -0.93009E-02  6048   0.107E-01 0.137E-02
CGA:  10    -0.368731562963E+03   -0.33291E-02   -0.33287E-02  6048   0.341E-02-0.664E-04
CGA:  11    -0.368732666354E+03   -0.11034E-02   -0.11108E-02  6048   0.140E-02-0.369E-03
CGA:  12    -0.368732951098E+03   -0.28474E-03   -0.30140E-03  6048   0.407E-03 0.248E-03
CGA:  13    -0.368733095210E+03   -0.14411E-03   -0.14424E-03  6048   0.190E-03 0.262E-04
CGA:  14    -0.368733232703E+03   -0.13749E-03    0.27344E-03  6048   0.902E-04 0.229E-04
CGA:  15    -0.368733265444E+03   -0.32741E-04   -0.32569E-04  6048   0.457E-04 0.101E-04
CGA:  16    -0.368733267428E+03   -0.19835E-05   -0.71453E-05  6048   0.261E-04 0.312E-04
  50 F= -.36873327E+03 E0= -.36873327E+03  d E =-.592939E+01  mag=    20.0000
       N       E                     dE             d eps       ncg     rms          ort
SDA:   1    -0.366747077846E+03    0.19862E+01    0.00000E+00  6048   0.601E+01 0.000E+00
CGA:   2    -0.368691339550E+03   -0.19443E+01   -0.19446E+01  6048   0.173E+01-0.120E-01
CGA:   3    -0.369134188427E+03   -0.44285E+00   -0.44291E+00  6048   0.394E+00-0.282E-04
CGA:   4    -0.369212624884E+03   -0.78436E-01   -0.78546E-01  6048   0.137E+00 0.100E-02
CGA:   5    -0.369238207519E+03   -0.25583E-01   -0.25762E-01  6048   0.401E-01 0.172E-02
CGA:   6    -0.369248682971E+03   -0.10475E-01   -0.10501E-01  6048   0.186E-01 0.893E-03
CGA:   7    -0.369253264975E+03   -0.45820E-02   -0.45613E-02  6048   0.741E-02-0.457E-03
CGA:   8    -0.369255411208E+03   -0.21462E-02   -0.21517E-02  6048   0.288E-02-0.376E-03
CGA:   9    -0.369256025539E+03   -0.61433E-03   -0.62821E-03  6048   0.799E-03 0.257E-03
CGA:  10    -0.369256250819E+03   -0.22528E-03   -0.22704E-03  6048   0.241E-03 0.869E-04
CGA:  11    -0.369256336998E+03   -0.86178E-04   -0.86742E-04  6048   0.111E-03-0.129E-04
CGA:  12    -0.369256349476E+03   -0.12479E-04   -0.17822E-04  6048   0.467E-04 0.473E-04
CGA:  13    -0.369256359769E+03   -0.10293E-04   -0.12154E-04  6048   0.213E-04 0.197E-04
CGA:  14    -0.369256386429E+03   -0.26660E-04    0.67302E-05  6048   0.149E-04 0.521E-05
CGA:  15    -0.369256405375E+03   -0.18946E-04    0.28549E-05  6048   0.924E-05 0.213E-05
CGA:  16    -0.369256405148E+03    0.22622E-06   -0.10102E-05  6048   0.592E-05 0.701E-05
  51 F= -.36925641E+03 E0= -.36925641E+03  d E =-.523138E+00  mag=    20.0000
       N       E                     dE             d eps       ncg     rms          ort
SDA:   1    -0.367623131003E+03    0.16333E+01    0.00000E+00  6048   0.449E+01 0.000E+00
CGA:   2    -0.369059500153E+03   -0.14364E+01   -0.14367E+01  6048   0.129E+01-0.634E-02
CGA:   3    -0.369390680687E+03   -0.33118E+00   -0.33118E+00  6048   0.305E+00-0.101E-02
CGA:   4    -0.369449061951E+03   -0.58381E-01   -0.58486E-01  6048   0.104E+00 0.156E-02
CGA:   5    -0.369468511701E+03   -0.19450E-01   -0.19571E-01  6048   0.289E-01 0.187E-02
CGA:   6    -0.369476173661E+03   -0.76620E-02   -0.76520E-02  6048   0.132E-01 0.932E-03
CGA:   7    -0.369479545060E+03   -0.33714E-02   -0.33700E-02  6048   0.544E-02-0.439E-03
CGA:   8    -0.369481124349E+03   -0.15793E-02   -0.16029E-02  6048   0.219E-02-0.429E-03
CGA:   9    -0.369481567921E+03   -0.44357E-03   -0.44967E-03  6048   0.582E-03 0.204E-03
CGA:  10    -0.369481712826E+03   -0.14491E-03   -0.14719E-03  6048   0.169E-03 0.117E-03
CGA:  11    -0.369481767606E+03   -0.54780E-04   -0.54402E-04  6048   0.663E-04 0.207E-04
CGA:  12    -0.369481780596E+03   -0.12991E-04   -0.14598E-04  6048   0.263E-04 0.294E-04
CGA:  13    -0.369481791819E+03   -0.11223E-04   -0.11136E-04  6048   0.175E-04 0.187E-05
CGA:  14    -0.369481811299E+03   -0.19480E-04    0.21804E-05  6048   0.102E-04 0.377E-05
CGA:  15    -0.369481822537E+03   -0.11238E-04    0.18847E-05  6048   0.502E-05 0.978E-06
CGA:  16    -0.369481822269E+03    0.26866E-06   -0.43255E-06  6048   0.346E-05 0.408E-05
  52 F= -.36948182E+03 E0= -.36948182E+03  d E =-.225417E+00  mag=    20.0000
       N       E                     dE             d eps       ncg     rms          ort
SDA:   1    -0.369237343971E+03    0.24448E+00    0.00000E+00  6048   0.876E+00 0.000E+00
CGA:   2    -0.369516460809E+03   -0.27912E+00   -0.27909E+00  6048   0.266E+00 0.145E-03
CGA:   3    -0.369579728623E+03   -0.63268E-01   -0.63269E-01  6048   0.743E-01-0.572E-03
CGA:   4    -0.369592339795E+03   -0.12611E-01   -0.12643E-01  6048   0.217E-01 0.438E-03
CGA:   5    -0.369596685062E+03   -0.43453E-02   -0.43627E-02  6048   0.574E-02 0.528E-03
CGA:   6    -0.369598117706E+03   -0.14326E-02   -0.14305E-02  6048   0.271E-02 0.177E-03
CGA:   7    -0.369598834689E+03   -0.71698E-03   -0.71944E-03  6048   0.109E-02-0.957E-04
CGA:   8    -0.369599152413E+03   -0.31772E-03   -0.32616E-03  6048   0.501E-03-0.110E-03
CGA:   9    -0.369599253569E+03   -0.10116E-03   -0.10153E-03  6048   0.130E-03 0.319E-04
CGA:  10    -0.369599282771E+03   -0.29202E-04   -0.29830E-04  6048   0.372E-04 0.302E-04
CGA:  11    -0.369599293569E+03   -0.10797E-04   -0.10796E-04  6048   0.132E-04 0.713E-05
CGA:  12    -0.369599297475E+03   -0.39063E-05   -0.38714E-05  6048   0.498E-05 0.349E-05
  53 F= -.36959930E+03 E0= -.36959930E+03  d E =-.117475E+00  mag=    20.0000
       N       E                     dE             d eps       ncg     rms          ort
SDA:   1    -0.368862218836E+03    0.73707E+00    0.00000E+00  6048   0.192E+01 0.000E+00
CGA:   2    -0.369465863592E+03   -0.60364E+00   -0.60303E+00  6048   0.625E+00 0.740E-02
CGA:   3    -0.369606413326E+03   -0.14055E+00   -0.14054E+00  6048   0.204E+00-0.709E-03
CGA:   4    -0.369639733889E+03   -0.33321E-01   -0.33351E-01  6048   0.511E-01 0.225E-03
CGA:   5    -0.369650415507E+03   -0.10682E-01   -0.10694E-01  6048   0.156E-01 0.292E-03
CGA:   6    -0.369653872395E+03   -0.34569E-02   -0.34585E-02  6048   0.696E-02 0.517E-04
CGA:   7    -0.369655665318E+03   -0.17929E-02   -0.17934E-02  6048   0.261E-02-0.457E-04
CGA:   8    -0.369656390749E+03   -0.72543E-03   -0.72687E-03  6048   0.108E-02-0.443E-04
CGA:   9    -0.369656672207E+03   -0.28146E-03   -0.28149E-03  6048   0.314E-03-0.230E-05
CGA:  10    -0.369656758781E+03   -0.86574E-04   -0.86386E-04  6048   0.853E-04 0.693E-05
CGA:  11    -0.369656785277E+03   -0.26496E-04   -0.27025E-04  6048   0.304E-04-0.893E-05
CGA:  12    -0.369656793283E+03   -0.80060E-05   -0.79782E-05  6048   0.994E-05 0.690E-06
  54 F= -.36965679E+03 E0= -.36965679E+03  d E =-.574958E-01  mag=    20.0000
       N       E                     dE             d eps       ncg     rms          ort
SDA:   1    -0.369648953881E+03    0.78314E-02    0.00000E+00  6048   0.280E-01 0.000E+00
CGA:   2    -0.369656098536E+03   -0.71447E-02   -0.71590E-02  6048   0.131E-01 0.428E-03
CGA:   3    -0.369658600163E+03   -0.25016E-02   -0.25107E-02  6048   0.419E-02 0.841E-04
CGA:   4    -0.369659361685E+03   -0.76152E-03   -0.75316E-03  6048   0.975E-03-0.829E-04
CGA:   5    -0.369659568087E+03   -0.20640E-03   -0.19809E-03  6048   0.380E-03-0.120E-03
CGA:   6    -0.369659654324E+03   -0.86237E-04   -0.84387E-04  6048   0.180E-03-0.937E-04
CGA:   7    -0.369659679046E+03   -0.24722E-04   -0.26234E-04  6048   0.521E-04 0.191E-04
CGA:   8    -0.369659682704E+03   -0.36585E-05   -0.73229E-05  6048   0.203E-04 0.260E-04
  55 F= -.36965968E+03 E0= -.36965968E+03  d E =-.288942E-02  mag=    20.0000
       N       E                     dE             d eps       ncg     rms          ort
SDA:   1    -0.369518756938E+03    0.14092E+00    0.00000E+00  6048   0.390E+00 0.000E+00
CGA:   2    -0.369606108309E+03   -0.87351E-01   -0.87419E-01  6048   0.194E+00 0.198E-02
CGA:   3    -0.369642900518E+03   -0.36792E-01   -0.36822E-01  6048   0.602E-01 0.351E-03
CGA:   4    -0.369653663206E+03   -0.10763E-01   -0.10735E-01  6048   0.130E-01-0.418E-03
CGA:   5    -0.369656090508E+03   -0.24273E-02   -0.24044E-02  6048   0.384E-02-0.393E-03
CGA:   6    -0.369656928710E+03   -0.83820E-03   -0.83296E-03  6048   0.147E-02-0.279E-03
CGA:   7    -0.369657242025E+03   -0.31332E-03   -0.31370E-03  6048   0.509E-03 0.322E-04
CGA:   8    -0.369657350166E+03   -0.10814E-03   -0.11093E-03  6048   0.162E-03 0.101E-03
CGA:   9    -0.369657403056E+03   -0.52891E-04   -0.52168E-04  6048   0.676E-04 0.246E-04
CGA:  10    -0.369657429425E+03   -0.26369E-04   -0.35566E-04  6048   0.869E-04-0.426E-04
CGA:  11    -0.369657444004E+03   -0.14579E-04   -0.15099E-04  6048   0.117E-04 0.663E-05
CGA:  12    -0.369657450450E+03   -0.64459E-05    0.46592E-04  6048   0.358E-05 0.320E-05
  56 F= -.36965745E+03 E0= -.36965745E+03  d E =0.223225E-02  mag=    20.0000
       N       E                     dE             d eps       ncg     rms          ort
SDA:   1    -0.369634372177E+03    0.23072E-01    0.00000E+00  6048   0.646E-01 0.000E+00
CGA:   2    -0.369647612308E+03   -0.13240E-01   -0.13276E-01  6048   0.278E-01 0.799E-03
CGA:   3    -0.369653193900E+03   -0.55816E-02   -0.55796E-02  6048   0.946E-02-0.597E-04
CGA:   4    -0.369654867144E+03   -0.16732E-02   -0.16575E-02  6048   0.196E-02-0.236E-03
CGA:   5    -0.369655219382E+03   -0.35224E-03   -0.34934E-03  6048   0.569E-03-0.513E-04
CGA:   6    -0.369655328056E+03   -0.10867E-03   -0.10903E-03  6048   0.169E-03 0.855E-05
CGA:   7    -0.369655366191E+03   -0.38135E-04   -0.38337E-04  6048   0.613E-04 0.181E-04
CGA:   8    -0.369655386843E+03   -0.20652E-04   -0.20792E-04  6048   0.352E-04-0.197E-05
CGA:   9    -0.369655398711E+03   -0.11867E-04   -0.13306E-04  6048   0.251E-04-0.944E-05
CGA:  10    -0.369655401083E+03   -0.23723E-05   -0.29246E-05  6048   0.107E-04 0.639E-05
  57 F= -.36965540E+03 E0= -.36965540E+03  d E =0.204937E-02  mag=    20.0000
       N       E                     dE             d eps       ncg     rms          ort
SDA:   1    -0.369048015850E+03    0.60738E+00    0.00000E+00  6048   0.190E+01 0.000E+00
CGA:   2    -0.369424430665E+03   -0.37641E+00   -0.37676E+00  6048   0.741E+00 0.698E-02
CGA:   3    -0.369575759181E+03   -0.15133E+00   -0.15131E+00  6048   0.276E+00-0.117E-02
CGA:   4    -0.369623678645E+03   -0.47919E-01   -0.47807E-01  6048   0.534E-01-0.198E-02
CGA:   5    -0.369633335562E+03   -0.96569E-02   -0.96483E-02  6048   0.150E-01-0.198E-03
CGA:   6    -0.369636336460E+03   -0.30009E-02   -0.30072E-02  6048   0.461E-02 0.240E-03
CGA:   7    -0.369637494048E+03   -0.11576E-02   -0.11548E-02  6048   0.192E-02 0.130E-03
[...]
  67 F= -.36963646E+03 E0= -.36963646E+03  d E =0.259630E-02  mag=    20.0000
       N       E                     dE             d eps       ncg     rms          ort
SDA:   1    -0.368016387032E+03    0.16201E+01    0.00000E+00  6048   0.403E+01 0.000E+00
CGA:   2    -0.369175332859E+03   -0.11589E+01   -0.11588E+01  6048   0.185E+01 0.586E-02
CGA:   3    -0.369504799537E+03   -0.32947E+00   -0.32950E+00  6048   0.480E+00-0.106E-02
CGA:   4    -0.369581910919E+03   -0.77111E-01   -0.76987E-01  6048   0.913E-01-0.129E-02
CGA:   5    -0.369599672553E+03   -0.17762E-01   -0.17754E-01  6048   0.271E-01-0.133E-03
CGA:   6    -0.369605020020E+03   -0.53475E-02   -0.53534E-02  6048   0.802E-02 0.893E-04
CGA:   7    -0.369606968835E+03   -0.19488E-02   -0.19500E-02  6048   0.313E-02 0.929E-04
CGA:   8    -0.369607850864E+03   -0.88203E-03   -0.88108E-03  6048   0.144E-02 0.388E-04
CGA:   9    -0.369608311558E+03   -0.46069E-03   -0.46331E-03  6048   0.606E-03-0.427E-04
CGA:  10    -0.369608481001E+03   -0.16944E-03   -0.16885E-03  6048   0.193E-03 0.207E-04
CGA:  11    -0.369608540772E+03   -0.59771E-04   -0.59724E-04  6048   0.703E-04 0.114E-05
CGA:  12    -0.369608569217E+03   -0.28445E-04   -0.36511E-04  6048   0.723E-04-0.317E-04
CGA:  13    -0.369608574514E+03   -0.52976E-05   -0.68032E-05  6048   0.436E-04 0.146E-04
  68 F= -.36960857E+03 E0= -.36960857E+03  d E =0.278822E-01  mag=    20.0000
       N       E                     dE             d eps       ncg     rms          ort
SDA:   1    -0.369490305542E+03    0.11826E+00    0.00000E+00  6048   0.321E+00 0.000E+00
CGA:   2    -0.369589183612E+03   -0.98878E-01   -0.98871E-01  6048   0.129E+00 0.621E-04
CGA:   3    -0.369613054967E+03   -0.23871E-01   -0.23852E-01  6048   0.393E-01-0.322E-03
CGA:   4    -0.369619595186E+03   -0.65402E-02   -0.65429E-02  6048   0.892E-02 0.136E-04
CGA:   5    -0.369621369275E+03   -0.17741E-02   -0.17872E-02  6048   0.271E-02 0.230E-03
CGA:   6    -0.369621930517E+03   -0.56124E-03   -0.56690E-03  6048   0.978E-03 0.112E-03
CGA:   7    -0.369622219154E+03   -0.28864E-03   -0.29013E-03  6048   0.467E-03-0.448E-04
CGA:   8    -0.369622343926E+03   -0.12477E-03   -0.12623E-03  6048   0.216E-03-0.480E-04
CGA:   9    -0.369622389118E+03   -0.45191E-04   -0.45568E-04  6048   0.585E-04 0.197E-04
CGA:  10    -0.369622400776E+03   -0.11658E-04   -0.12653E-04  6048   0.190E-04 0.179E-04
CGA:  11    -0.369622406443E+03   -0.56676E-05   -0.57556E-05  6048   0.737E-05 0.462E-05
  69 F= -.36962241E+03 E0= -.36962241E+03  d E =-.138319E-01  mag=    20.0000
       N       E                     dE             d eps       ncg     rms          ort
SDA:   1    -0.369510851735E+03    0.11155E+00    0.00000E+00  6048   0.287E+00 0.000E+00
CGA:   2    -0.369591592272E+03   -0.80741E-01   -0.80716E-01  6048   0.127E+00 0.146E-02
CGA:   3    -0.369614578858E+03   -0.22987E-01   -0.22986E-01  6048   0.337E-01-0.830E-04
CGA:   4    -0.369620040691E+03   -0.54618E-02   -0.54313E-02  6048   0.662E-02-0.313E-03
CGA:   5    -0.369621337177E+03   -0.12965E-02   -0.12858E-02  6048   0.199E-02-0.175E-03
CGA:   6    -0.369621714143E+03   -0.37697E-03   -0.37630E-03  6048   0.577E-03-0.118E-04
CGA:   7    -0.369621844858E+03   -0.13072E-03   -0.13144E-03  6048   0.205E-03 0.320E-04
CGA:   8    -0.369621904734E+03   -0.59876E-04   -0.59621E-04  6048   0.975E-04 0.101E-04
CGA:   9    -0.369621937599E+03   -0.32866E-04   -0.32944E-04  6048   0.440E-04-0.114E-05
CGA:  10    -0.369621952885E+03   -0.15286E-04   -0.17500E-04  6048   0.293E-04-0.151E-04
CGA:  11    -0.369621957461E+03   -0.45755E-05   -0.94457E-05  6048   0.323E-04-0.214E-04
  70 F= -.36962196E+03 E0= -.36962196E+03  d E =0.448983E-03  mag=    20.0000
       N       E                     dE             d eps       ncg     rms          ort
SDA:   1    -0.369256328271E+03    0.36562E+00    0.00000E+00  6048   0.928E+00 0.000E+00
CGA:   2    -0.369524084735E+03   -0.26776E+00   -0.26769E+00  6048   0.377E+00 0.285E-02
CGA:   3    -0.369596756312E+03   -0.72672E-01   -0.72636E-01  6048   0.957E-01-0.689E-03
CGA:   4    -0.369611645333E+03   -0.14889E-01   -0.14825E-01  6048   0.187E-01-0.616E-03
CGA:   5    -0.369615376409E+03   -0.37311E-02   -0.37205E-02  6048   0.518E-02-0.179E-03
CGA:   6    -0.369616353820E+03   -0.97741E-03   -0.98216E-03  6048   0.151E-02 0.695E-04
CGA:   7    -0.369616724863E+03   -0.37104E-03   -0.37143E-03  6048   0.583E-03 0.329E-04
CGA:   8    -0.369616907982E+03   -0.18312E-03   -0.18451E-03  6048   0.337E-03-0.249E-04
CGA:   9    -0.369617001765E+03   -0.93782E-04   -0.93247E-04  6048   0.129E-03 0.160E-04
CGA:  10    -0.369617042657E+03   -0.40893E-04   -0.40816E-04  6048   0.469E-04 0.167E-05
CGA:  11    -0.369617055906E+03   -0.13248E-04   -0.27843E-04  6048   0.869E-04-0.449E-04
CGA:  12    -0.369617067018E+03   -0.11112E-04   -0.13673E-04  6048   0.112E-04 0.215E-04
CGA:  13    -0.369617068919E+03   -0.19013E-05   -0.24202E-05  6048   0.434E-05 0.531E-05
  71 F= -.36961707E+03 E0= -.36961707E+03  d E =0.488854E-02  mag=    20.0000
       N       E                     dE             d eps       ncg     rms          ort
SDA:   1    -0.355945007252E+03    0.13672E+02    0.00000E+00  6048   0.323E+02 0.000E+00
CGA:   2    -0.365181265287E+03   -0.92363E+01   -0.92363E+01  6048   0.155E+02-0.139E-01
CGA:   3    -0.367798350410E+03   -0.26171E+01   -0.26182E+01  6048   0.413E+01-0.392E-02
CGA:   4    -0.368550782198E+03   -0.75243E+00   -0.75245E+00  6048   0.974E+00-0.279E-02
CGA:   5    -0.368734927261E+03   -0.18415E+00   -0.18434E+00  6048   0.303E+00 0.254E-02
CGA:   6    -0.368798967094E+03   -0.64040E-01   -0.64138E-01  6048   0.108E+00 0.218E-02
CGA:   7    -0.368826704718E+03   -0.27738E-01   -0.27738E-01  6048   0.445E-01-0.226E-03
CGA:   8    -0.368838458083E+03   -0.11753E-01   -0.11760E-01  6048   0.179E-01-0.563E-03
CGA:   9    -0.368843442739E+03   -0.49847E-02   -0.49781E-02  6048   0.560E-02 0.238E-03
CGA:  10    -0.368845002840E+03   -0.15601E-02   -0.15574E-02  6048   0.175E-02 0.141E-03
CGA:  11    -0.368845503304E+03   -0.50046E-03   -0.49886E-03  6048   0.538E-03 0.707E-04
CGA:  12    -0.368845678262E+03   -0.17496E-03   -0.17237E-03  6048   0.218E-03 0.508E-04
CGA:  13    -0.368845780706E+03   -0.10244E-03   -0.12101E-03  6048   0.208E-03-0.749E-04
CGA:  14    -0.368845809318E+03   -0.28611E-04   -0.30225E-04  6048   0.111E-03 0.322E-04
CGA:  15    -0.368845829979E+03   -0.20661E-04   -0.23405E-04  6048   0.421E-04 0.313E-04
CGA:  16    -0.368845845939E+03   -0.15960E-04   -0.16045E-04  6048   0.237E-04-0.264E-05
CGA:  17    -0.368845850506E+03   -0.45677E-05   -0.48175E-05  6048   0.133E-04 0.498E-05
  72 F= -.36884585E+03 E0= -.36884585E+03  d E =0.771218E+00  mag=    20.0000
       N       E                     dE             d eps       ncg     rms          ort
SDA:   1    -0.366854139404E+03    0.19917E+01    0.00000E+00  6048   0.622E+01 0.000E+00
CGA:   2    -0.368855760153E+03   -0.20016E+01   -0.20015E+01  6048   0.196E+01 0.666E-03
CGA:   3    -0.369302985386E+03   -0.44723E+00   -0.44740E+00  6048   0.548E+00 0.404E-02
CGA:   4    -0.369397257695E+03   -0.94272E-01   -0.94268E-01  6048   0.165E+00-0.412E-03
CGA:   5    -0.369431132703E+03   -0.33875E-01   -0.33847E-01  6048   0.470E-01-0.596E-03
CGA:   6    -0.369442065875E+03   -0.10933E-01   -0.10933E-01  6048   0.222E-01-0.442E-04
CGA:   7    -0.369447480332E+03   -0.54145E-02   -0.54149E-02  6048   0.793E-02 0.547E-04
CGA:   8    -0.369449687382E+03   -0.22071E-02   -0.22063E-02  6048   0.324E-02 0.247E-04
CGA:   9    -0.369450541398E+03   -0.85402E-03   -0.85386E-03  6048   0.968E-03 0.144E-04
CGA:  10    -0.369450831350E+03   -0.28995E-03   -0.29235E-03  6048   0.313E-03-0.508E-04
CGA:  11    -0.369450924562E+03   -0.93212E-04   -0.95606E-04  6048   0.120E-03-0.359E-04
CGA:  12    -0.369450957414E+03   -0.32853E-04   -0.32677E-04  6048   0.451E-04 0.365E-05
CGA:  13    -0.369450976210E+03   -0.18796E-04   -0.20645E-04  6048   0.310E-04-0.101E-04
CGA:  14    -0.369450982895E+03   -0.66854E-05   -0.66551E-05  6048   0.131E-04 0.457E-05
  73 F= -.36945098E+03 E0= -.36945098E+03  d E =-.605132E+00  mag=    20.0000
       N       E                     dE             d eps       ncg     rms          ort
SDA:   1    -0.369006823323E+03    0.44415E+00    0.00000E+00  6048   0.137E+01 0.000E+00
CGA:   2    -0.369443069778E+03   -0.43625E+00   -0.43620E+00  6048   0.443E+00 0.495E-03
CGA:   3    -0.369538192576E+03   -0.95123E-01   -0.95243E-01  6048   0.146E+00 0.176E-02
CGA:   4    -0.369562493726E+03   -0.24301E-01   -0.24293E-01  6048   0.362E-01-0.164E-03
CGA:   5    -0.369570267676E+03   -0.77740E-02   -0.77431E-02  6048   0.118E-01-0.592E-03
CGA:   6    -0.369572819812E+03   -0.25521E-02   -0.25454E-02  6048   0.514E-02-0.157E-03
CGA:   7    -0.369574048041E+03   -0.12282E-02   -0.12304E-02  6048   0.181E-02 0.110E-03
CGA:   8    -0.369574538409E+03   -0.49037E-03   -0.49014E-03  6048   0.722E-03 0.682E-04
CGA:   9    -0.369574754581E+03   -0.21617E-03   -0.21739E-03  6048   0.250E-03-0.421E-04
CGA:  10    -0.369574826210E+03   -0.71628E-04   -0.73004E-04  6048   0.866E-04-0.289E-04
CGA:  11    -0.369574850905E+03   -0.24695E-04   -0.26709E-04  6048   0.417E-04-0.241E-04
CGA:  12    -0.369574861510E+03   -0.10605E-04   -0.12213E-04  6048   0.234E-04-0.118E-04
CGA:  13    -0.369574864655E+03   -0.31455E-05   -0.35398E-05  6048   0.920E-05 0.605E-05
  74 F= -.36957486E+03 E0= -.36957486E+03  d E =-.123882E+00  mag=    20.0000
       N       E                     dE             d eps       ncg     rms          ort
SDA:   1    -0.369200367539E+03    0.37449E+00    0.00000E+00  6048   0.102E+01 0.000E+00
CGA:   2    -0.369513647173E+03   -0.31328E+00   -0.31325E+00  6048   0.355E+00 0.415E-03
CGA:   3    -0.369584053566E+03   -0.70406E-01   -0.70547E-01  6048   0.128E+00 0.175E-02
CGA:   4    -0.369606108342E+03   -0.22055E-01   -0.22066E-01  6048   0.278E-01 0.546E-04
CGA:   5    -0.369611954850E+03   -0.58465E-02   -0.58067E-02  6048   0.978E-02-0.770E-03
CGA:   6    -0.369614060930E+03   -0.21061E-02   -0.20926E-02  6048   0.394E-02-0.351E-03
CGA:   7    -0.369614975583E+03   -0.91465E-03   -0.91683E-03  6048   0.140E-02 0.140E-03
CGA:   8    -0.369615325606E+03   -0.35002E-03   -0.35185E-03  6048   0.509E-03 0.143E-03
CGA:   9    -0.369615497769E+03   -0.17216E-03   -0.17448E-03  6048   0.206E-03-0.417E-04
CGA:  10    -0.369615558083E+03   -0.60314E-04   -0.64491E-04  6048   0.945E-04-0.507E-04
CGA:  11    -0.369615580130E+03   -0.22047E-04   -0.25281E-04  6048   0.488E-04-0.350E-04
CGA:  12    -0.369615590079E+03   -0.99490E-05   -0.14731E-04  6048   0.394E-04-0.225E-04
  75 F= -.36961559E+03 E0= -.36961559E+03  d E =-.407254E-01  mag=    20.0000
       N       E                     dE             d eps       ncg     rms          ort
SDA:   1    -0.369527336364E+03    0.88244E-01    0.00000E+00  6048   0.245E+00 0.000E+00
CGA:   2    -0.369595923328E+03   -0.68587E-01   -0.68586E-01  6048   0.994E-01-0.354E-04
CGA:   3    -0.369613552552E+03   -0.17629E-01   -0.17716E-01  6048   0.338E-01 0.868E-03
CGA:   4    -0.369619859598E+03   -0.63070E-02   -0.63236E-02  6048   0.764E-02 0.192E-03
CGA:   5    -0.369621359033E+03   -0.14994E-02   -0.14693E-02  6048   0.269E-02-0.425E-03
CGA:   6    -0.369621956429E+03   -0.59740E-03   -0.58766E-03  6048   0.117E-02-0.349E-03
CGA:   7    -0.369622181966E+03   -0.22554E-03   -0.22675E-03  6048   0.376E-03 0.342E-04
CGA:   8    -0.369622245893E+03   -0.63926E-04   -0.71881E-04  6048   0.118E-03 0.112E-03
CGA:   9    -0.369622275712E+03   -0.29819E-04   -0.31696E-04  6048   0.483E-04 0.403E-04
CGA:  10    -0.369622296593E+03   -0.20882E-04   -0.31034E-04  6048   0.744E-04-0.443E-04
CGA:  11    -0.369622309259E+03   -0.12666E-04   -0.13391E-04  6048   0.909E-05 0.884E-05
CGA:  12    -0.369622317733E+03   -0.84738E-05    0.21296E-05  6048   0.205E-05 0.126E-05
  76 F= -.36962232E+03 E0= -.36962232E+03  d E =-.672765E-02  mag=    20.0000
       N       E                     dE             d eps       ncg     rms          ort
SDA:   1    -0.369605752220E+03    0.16557E-01    0.00000E+00  6048   0.521E-01 0.000E+00
CGA:   2    -0.369618696099E+03   -0.12944E-01   -0.12944E-01  6048   0.272E-01-0.452E-04
CGA:   3    -0.369623440301E+03   -0.47442E-02   -0.47730E-02  6048   0.751E-02 0.336E-03
CGA:   4    -0.369624808031E+03   -0.13677E-02   -0.13756E-02  6048   0.175E-02 0.106E-03
CGA:   5    -0.369625165335E+03   -0.35730E-03   -0.35040E-03  6048   0.604E-03-0.133E-03
CGA:   6    -0.369625304262E+03   -0.13893E-03   -0.13931E-03  6048   0.313E-03-0.141E-03
CGA:   7    -0.369625354687E+03   -0.50425E-04   -0.50267E-04  6048   0.101E-03-0.435E-05
CGA:   8    -0.369625364392E+03   -0.97049E-05   -0.13975E-04  6048   0.360E-04 0.408E-04
  77 F= -.36962536E+03 E0= -.36962536E+03  d E =-.304666E-02  mag=    20.0000
       N       E                     dE             d eps       ncg     rms          ort
SDA:   1    -0.369615811339E+03    0.95433E-02    0.00000E+00  6048   0.321E-01 0.000E+00
CGA:   2    -0.369622197506E+03   -0.63862E-02   -0.63853E-02  6048   0.166E-01-0.552E-04
CGA:   3    -0.369625402968E+03   -0.32055E-02   -0.32140E-02  6048   0.494E-02 0.217E-03
CGA:   4    -0.369626253408E+03   -0.85044E-03   -0.85581E-03  6048   0.110E-02 0.890E-04
CGA:   5    -0.369626469129E+03   -0.21572E-03   -0.21387E-03  6048   0.336E-03-0.525E-04
CGA:   6    -0.369626547099E+03   -0.77970E-04   -0.79634E-04  6048   0.161E-03-0.712E-04
CGA:   7    -0.369626573507E+03   -0.26407E-04   -0.26325E-04  6048   0.517E-04-0.431E-05
CGA:   8    -0.369626578799E+03   -0.52921E-05   -0.70729E-05  6048   0.184E-04 0.209E-04
  78 F= -.36962658E+03 E0= -.36962658E+03  d E =-.121441E-02  mag=    20.0000
       N       E                     dE             d eps       ncg     rms          ort
SDA:   1    -0.369572589074E+03    0.53984E-01    0.00000E+00  6048   0.182E+00 0.000E+00
CGA:   2    -0.369603954886E+03   -0.31366E-01   -0.31378E-01  6048   0.820E-01 0.775E-04
CGA:   3    -0.369621455011E+03   -0.17500E-01   -0.17500E-01  6048   0.291E-01 0.408E-03
CGA:   4    -0.369626455094E+03   -0.50001E-02   -0.50065E-02  6048   0.626E-02 0.137E-03
CGA:   5    -0.369627545129E+03   -0.10900E-02   -0.10891E-02  6048   0.158E-02-0.259E-04
CGA:   6    -0.369627872894E+03   -0.32777E-03   -0.32771E-03  6048   0.509E-03-0.305E-04
CGA:   7    -0.369627983575E+03   -0.11068E-03   -0.11070E-03  6048   0.161E-03-0.181E-05
CGA:   8    -0.369628017327E+03   -0.33752E-04   -0.33734E-04  6048   0.483E-04 0.248E-04
CGA:   9    -0.369628030944E+03   -0.13617E-04   -0.13281E-04  6048   0.177E-04 0.120E-04
CGA:  10    -0.369628038207E+03   -0.72625E-05   -0.74559E-05  6048   0.112E-04-0.156E-05
  79 F= -.36962804E+03 E0= -.36962804E+03  d E =-.145941E-02  mag=    20.0000
       N       E                     dE             d eps       ncg     rms          ort
SDA:   1    -0.369586882927E+03    0.41148E-01    0.00000E+00  6048   0.121E+00 0.000E+00
CGA:   2    -0.369610525365E+03   -0.23642E-01   -0.23653E-01  6048   0.646E-01 0.264E-03
CGA:   3    -0.369623400414E+03   -0.12875E-01   -0.12882E-01  6048   0.186E-01 0.286E-03
CGA:   4    -0.369626520275E+03   -0.31199E-02   -0.31187E-02  6048   0.384E-02-0.304E-04
CGA:   5    -0.369627194231E+03   -0.67396E-03   -0.67288E-03  6048   0.997E-03-0.270E-04
CGA:   6    -0.369627397161E+03   -0.20293E-03   -0.20300E-03  6048   0.304E-03 0.642E-05
CGA:   7    -0.369627462751E+03   -0.65590E-04   -0.65594E-04  6048   0.902E-04 0.123E-04
CGA:   8    -0.369627483203E+03   -0.20452E-04   -0.20411E-04  6048   0.288E-04 0.149E-04
CGA:   9    -0.369627492498E+03   -0.92943E-05   -0.90502E-05  6048   0.114E-04 0.443E-05
  80 F= -.36962749E+03 E0= -.36962749E+03  d E =0.545709E-03  mag=    20.0000
       N       E                     dE             d eps       ncg     rms          ort
SDA:   1    -0.369391251847E+03    0.23623E+00    0.00000E+00  6048   0.664E+00 0.000E+00
CGA:   2    -0.369534496948E+03   -0.14325E+00   -0.14326E+00  6048   0.356E+00 0.176E-02
CGA:   3    -0.369601333689E+03   -0.66837E-01   -0.66858E-01  6048   0.986E-01 0.392E-03
CGA:   4    -0.369618063925E+03   -0.16730E-01   -0.16705E-01  6048   0.202E-01-0.509E-03
CGA:   5    -0.369621603639E+03   -0.35397E-02   -0.35370E-02  6048   0.552E-02-0.720E-04
CGA:   6    -0.369622706322E+03   -0.11027E-02   -0.11044E-02  6048   0.162E-02 0.106E-03
CGA:   7    -0.369623076138E+03   -0.36982E-03   -0.36935E-03  6048   0.544E-03 0.545E-04
CGA:   8    -0.369623223340E+03   -0.14720E-03   -0.14628E-03  6048   0.218E-03 0.207E-04
CGA:   9    -0.369623294191E+03   -0.70851E-04   -0.71184E-04  6048   0.960E-04-0.357E-05
CGA:  10    -0.369623320172E+03   -0.25981E-04   -0.25571E-04  6048   0.331E-04 0.861E-05
CGA:  11    -0.369623328871E+03   -0.86986E-05   -0.85923E-05  6048   0.108E-04 0.840E-05
  81 F= -.36962333E+03 E0= -.36962333E+03  d E =0.416363E-02  mag=    20.0000
       N       E                     dE             d eps       ncg     rms          ort
SDA:   1    -0.369593611508E+03    0.29709E-01    0.00000E+00  6048   0.804E-01 0.000E+00
CGA:   2    -0.369612670779E+03   -0.19059E-01   -0.19060E-01  6048   0.327E-01 0.665E-03
CGA:   3    -0.369619322042E+03   -0.66513E-02   -0.66516E-02  6048   0.107E-01-0.816E-05
CGA:   4    -0.369621078757E+03   -0.17567E-02   -0.17495E-02  6048   0.212E-02-0.103E-03
CGA:   5    -0.369621476018E+03   -0.39726E-03   -0.39888E-03  6048   0.622E-03 0.377E-04
CGA:   6    -0.369621593418E+03   -0.11740E-03   -0.11943E-03  6048   0.188E-03 0.483E-04
CGA:   7    -0.369621642622E+03   -0.49204E-04   -0.48897E-04  6048   0.785E-04 0.234E-04
CGA:   8    -0.369621670984E+03   -0.28362E-04   -0.29147E-04  6048   0.526E-04-0.780E-05
CGA:   9    -0.369621684541E+03   -0.13557E-04   -0.13607E-04  6048   0.218E-04-0.960E-06
CGA:  10    -0.369621687141E+03   -0.25996E-05   -0.33445E-05  6048   0.877E-05 0.925E-05
  82 F= -.36962169E+03 E0= -.36962169E+03  d E =0.164173E-02  mag=    20.0000
       N       E                     dE             d eps       ncg     rms          ort
SDA:   1    -0.369617152706E+03    0.45318E-02    0.00000E+00  6048   0.141E-01 0.000E+00
CGA:   2    -0.369619769965E+03   -0.26173E-02   -0.26232E-02  6048   0.652E-02 0.128E-03
CGA:   3    -0.369621089120E+03   -0.13192E-02   -0.13208E-02  6048   0.217E-02 0.606E-04
CGA:   4    -0.369621476187E+03   -0.38707E-03   -0.38763E-03  6048   0.512E-03 0.110E-04
CGA:   5    -0.369621570972E+03   -0.94785E-04   -0.93863E-04  6048   0.146E-03-0.233E-04
CGA:   6    -0.369621604993E+03   -0.34021E-04   -0.35239E-04  6048   0.760E-04-0.375E-04
CGA:   7    -0.369621616500E+03   -0.11508E-04   -0.11452E-04  6048   0.243E-04-0.297E-05
CGA:   8    -0.369621619648E+03   -0.31472E-05   -0.36528E-05  6048   0.823E-05 0.784E-05
  83 F= -.36962162E+03 E0= -.36962162E+03  d E =0.674932E-04  mag=    20.0000
       N       E                     dE             d eps       ncg     rms          ort
SDA:   1    -0.369595152073E+03    0.26464E-01    0.00000E+00  6048   0.763E-01 0.000E+00
CGA:   2    -0.369610650278E+03   -0.15498E-01   -0.15505E-01  6048   0.344E-01 0.665E-03
CGA:   3    -0.369617433462E+03   -0.67832E-02   -0.67886E-02  6048   0.110E-01 0.294E-03
CGA:   4    -0.369619348527E+03   -0.19151E-02   -0.19137E-02  6048   0.222E-02-0.387E-04
CGA:   5    -0.369619755631E+03   -0.40710E-03   -0.40502E-03  6048   0.651E-03-0.790E-04
CGA:   6    -0.369619891444E+03   -0.13581E-03   -0.13623E-03  6048   0.224E-03-0.504E-04
CGA:   7    -0.369619933994E+03   -0.42549E-04   -0.42595E-04  6048   0.705E-04 0.151E-04
CGA:   8    -0.369619949301E+03   -0.15307E-04   -0.15392E-04  6048   0.252E-04 0.198E-04
CGA:   9    -0.369619957048E+03   -0.77467E-05   -0.75266E-05  6048   0.124E-04 0.892E-05
  84 F= -.36961996E+03 E0= -.36961996E+03  d E =0.166260E-02  mag=    20.0000
