       N       E                     dE             d eps       ncg     rms          ort
DAV:   1     0.272029978063E+04    0.27203E+04   -0.16136E+05 10962   0.165E+03
DAV:   2    -0.147381193454E+03   -0.28677E+04   -0.26872E+04 10962   0.448E+02
DAV:   3    -0.442062464067E+03   -0.29468E+03   -0.28827E+03 10962   0.162E+02
DAV:   4    -0.453027444561E+03   -0.10965E+02   -0.10621E+02 10962   0.320E+01
DAV:   5    -0.453697342344E+03   -0.66990E+00   -0.66612E+00 10962   0.585E+00
SDA:   6    -0.252302657320E+03    0.20139E+03   -0.66612E+00 10962   0.122E+04 0.000E+00
CGA:   7    -0.328452192028E+03   -0.76150E+02   -0.10522E+03 10962   0.109E+03 0.283E+02
CGA:   8    -0.344150801187E+03   -0.15699E+02   -0.16680E+02 10962   0.194E+02 0.764E+01
CGA:   9    -0.348310197997E+03   -0.41594E+01   -0.41605E+01 10962   0.917E+01-0.130E+00
CGA:  10    -0.350039504904E+03   -0.17293E+01   -0.17294E+01 10962   0.392E+01 0.319E-02
CGA:  11    -0.350748713933E+03   -0.70921E+00   -0.70980E+00 10962   0.136E+01 0.388E-01
CGA:  12    -0.351063359657E+03   -0.31465E+00   -0.31450E+00 10962   0.492E+00 0.419E-02
CGA:  13    -0.351168994244E+03   -0.10563E+00   -0.10540E+00 10962   0.170E+00 0.121E-01
CGA:  14    -0.351205006883E+03   -0.36013E-01   -0.35846E-01 10962   0.484E-01 0.149E-01
CGA:  15    -0.351218625920E+03   -0.13619E-01   -0.13676E-01 10962   0.192E-01-0.860E-03
CGA:  16    -0.351223595861E+03   -0.49699E-02   -0.49167E-02 10962   0.697E-02 0.877E-03
CGA:  17    -0.351225737970E+03   -0.21421E-02   -0.21498E-02 10962   0.293E-02-0.801E-04
CGA:  18    -0.351225696206E+03    0.41764E-04   -0.21530E-02 10962   0.102E-01-0.410E-02
CGA:  19    -0.351227139896E+03   -0.14437E-02   -0.15880E-02 10962   0.120E-02 0.187E-02
CGA:  20    -0.351227602678E+03   -0.46278E-03   -0.51448E-03 10962   0.620E-03-0.390E-03
CGA:  21    -0.351227588239E+03    0.14439E-04   -0.28762E-03 10962   0.136E-02-0.671E-03
CGA:  22    -0.351227768213E+03   -0.17997E-03   -0.22185E-03 10962   0.243E-03 0.438E-03
CGA:  23    -0.351227840822E+03   -0.72609E-04   -0.73717E-04 10962   0.585E-04 0.461E-04
CGA:  24    -0.351227886430E+03   -0.45608E-04    0.29619E-04 10962   0.142E-04 0.720E-05
CGA:  25    -0.351227887069E+03   -0.63925E-06   -0.19496E-05 10962   0.741E-05 0.101E-04
   1 F= -.35122789E+03 E0= -.35122789E+03  d E =-.351228E+03  mag=     8.0000
       N       E                     dE             d eps       ncg     rms          ort
SDA:   1    -0.351266364501E+03   -0.38478E-01    0.00000E+00 10962   0.108E-01 0.000E+00
CGA:   2    -0.351268755321E+03   -0.23908E-02   -0.24009E-02 10962   0.275E-02 0.684E-03
CGA:   3    -0.351269431629E+03   -0.67631E-03   -0.67544E-03 10962   0.172E-02-0.163E-03
CGA:   4    -0.351269686802E+03   -0.25517E-03   -0.23806E-03 10962   0.437E-03-0.192E-03
CGA:   5    -0.351269762636E+03   -0.75834E-04   -0.73363E-04 10962   0.166E-03-0.581E-04
CGA:   6    -0.351269783383E+03   -0.20747E-04   -0.21974E-04 10962   0.493E-04 0.160E-04
CGA:   7    -0.351269798497E+03   -0.15114E-04   -0.16665E-04 10962   0.489E-04-0.188E-04
CGA:   8    -0.351269813124E+03   -0.14627E-04    0.65937E-04 10962   0.301E-04-0.144E-04
CGA:   9    -0.351269818269E+03   -0.51448E-05   -0.62749E-05 10962   0.289E-04-0.170E-04
   2 F= -.35126982E+03 E0= -.35126982E+03  d E =-.419312E-01  mag=     8.0000
       N       E                     dE             d eps       ncg     rms          ort
SDA:   1    -0.346712926941E+03    0.45569E+01    0.00000E+00 10962   0.180E+02 0.000E+00
CGA:   2    -0.350999010972E+03   -0.42861E+01   -0.42858E+01 10962   0.508E+01 0.963E-03
CGA:   3    -0.352044461733E+03   -0.10455E+01   -0.10453E+01 10962   0.251E+01-0.920E-02
CGA:   4    -0.352401399674E+03   -0.35694E+00   -0.35642E+00 10962   0.586E+00-0.547E-02
CGA:   5    -0.352505979476E+03   -0.10458E+00   -0.10444E+00 10962   0.189E+00-0.293E-02
CGA:   6    -0.352541573226E+03   -0.35594E-01   -0.35577E-01 10962   0.695E-01-0.591E-03
CGA:   7    -0.352558351323E+03   -0.16778E-01   -0.16814E-01 10962   0.364E-01-0.162E-02
CGA:   8    -0.352567505776E+03   -0.91545E-02   -0.92031E-02 10962   0.161E-01-0.131E-02
CGA:   9    -0.352571407635E+03   -0.39019E-02   -0.38932E-02 10962   0.606E-02 0.305E-03
CGA:  10    -0.352573035295E+03   -0.16277E-02   -0.16280E-02 10962   0.211E-02-0.125E-04
CGA:  11    -0.352573555201E+03   -0.51991E-03   -0.51410E-03 10962   0.719E-03 0.325E-03
CGA:  12    -0.352573796856E+03   -0.24165E-03   -0.23540E-03 10962   0.311E-03 0.111E-03
CGA:  13    -0.352573892221E+03   -0.95365E-04   -0.92420E-04 10962   0.132E-03 0.109E-03
CGA:  14    -0.352573921780E+03   -0.29559E-04   -0.33524E-04 10962   0.588E-04 0.892E-04
CGA:  15    -0.352573946010E+03   -0.24230E-04   -0.22467E-04 10962   0.281E-04 0.115E-04
CGA:  16    -0.352573948935E+03   -0.29247E-05   -0.50860E-05 10962   0.174E-04 0.252E-04
   3 F= -.35257395E+03 E0= -.35257395E+03  d E =-.130413E+01  mag=     8.0000
       N       E                     dE             d eps       ncg     rms          ort
SDA:   1    -0.340215484234E+03    0.12358E+02    0.00000E+00 10962   0.431E+02 0.000E+00
CGA:   2    -0.349745749637E+03   -0.95303E+01   -0.95373E+01 10962   0.124E+02 0.845E-01
CGA:   3    -0.352157589448E+03   -0.24118E+01   -0.24107E+01 10962   0.614E+01-0.311E-01
CGA:   4    -0.353063228616E+03   -0.90564E+00   -0.90448E+00 10962   0.145E+01-0.145E-01
CGA:   5    -0.353314481091E+03   -0.25125E+00   -0.25100E+00 10962   0.450E+00-0.382E-02
CGA:   6    -0.353398861428E+03   -0.84380E-01   -0.84436E-01 10962   0.163E+00 0.132E-02
CGA:   7    -0.353437573081E+03   -0.38712E-01   -0.38716E-01 10962   0.833E-01-0.703E-03
CGA:   8    -0.353459772875E+03   -0.22200E-01   -0.22290E-01 10962   0.398E-01-0.241E-02
CGA:   9    -0.353470057180E+03   -0.10284E-01   -0.10315E-01 10962   0.164E-01-0.895E-03
CGA:  10    -0.353474251685E+03   -0.41945E-02   -0.41994E-02 10962   0.555E-02-0.177E-03
CGA:  11    -0.353475667263E+03   -0.14156E-02   -0.14044E-02 10962   0.189E-02 0.563E-03
CGA:  12    -0.353476267151E+03   -0.59989E-03   -0.58693E-03 10962   0.777E-03 0.287E-03
CGA:  13    -0.353476528494E+03   -0.26134E-03   -0.25231E-03 10962   0.333E-03 0.213E-03
CGA:  14    -0.353476646380E+03   -0.11789E-03   -0.11445E-03 10962   0.130E-03 0.122E-03
CGA:  15    -0.353476711309E+03   -0.64929E-04   -0.63498E-04 10962   0.671E-04 0.125E-04
CGA:  16    -0.353476725829E+03   -0.14520E-04   -0.15660E-04 10962   0.304E-04 0.321E-04
CGA:  17    -0.353476742063E+03   -0.16233E-04   -0.17961E-04 10962   0.273E-04-0.113E-04
CGA:  18    -0.353476751616E+03   -0.95532E-05    0.22184E-04 10962   0.218E-04-0.389E-06
CGA:  19    -0.353476762677E+03   -0.11061E-04    0.20968E-03 10962   0.110E-04-0.236E-05
CGA:  20    -0.353476770837E+03   -0.81606E-05    0.19952E-05 10962   0.646E-05 0.312E-06
   4 F= -.35347677E+03 E0= -.35347677E+03  d E =-.902822E+00  mag=     8.0000
       N       E                     dE             d eps       ncg     rms          ort
SDA:   1    -0.349520005753E+03    0.39568E+01    0.00000E+00 10962   0.135E+02 0.000E+00
CGA:   2    -0.352440433966E+03   -0.29204E+01   -0.29222E+01 10962   0.432E+01 0.179E-01
CGA:   3    -0.353246180403E+03   -0.80575E+00   -0.80550E+00 10962   0.212E+01-0.372E-02
CGA:   4    -0.353559453681E+03   -0.31327E+00   -0.31308E+00 10962   0.473E+00-0.203E-02
CGA:   5    -0.353639509493E+03   -0.80056E-01   -0.79991E-01 10962   0.143E+00-0.103E-02
CGA:   6    -0.353665774420E+03   -0.26265E-01   -0.26266E-01 10962   0.491E-01-0.345E-05
CGA:   7    -0.353676984719E+03   -0.11210E-01   -0.11210E-01 10962   0.242E-01-0.242E-04
CGA:   8    -0.353683673696E+03   -0.66890E-02   -0.67068E-02 10962   0.126E-01-0.451E-03
CGA:   9    -0.353687055558E+03   -0.33819E-02   -0.33856E-02 10962   0.558E-02-0.113E-03
CGA:  10    -0.353688537880E+03   -0.14823E-02   -0.14845E-02 10962   0.192E-02-0.811E-04
CGA:  11    -0.353689041417E+03   -0.50354E-03   -0.50207E-03 10962   0.633E-03 0.633E-04
CGA:  12    -0.353689223843E+03   -0.18243E-03   -0.18030E-03 10962   0.233E-03 0.656E-04
CGA:  13    -0.353689306122E+03   -0.82279E-04   -0.80075E-04 10962   0.103E-03 0.329E-04
CGA:  14    -0.353689337466E+03   -0.31344E-04   -0.30860E-04 10962   0.394E-04 0.350E-04
CGA:  15    -0.353689354260E+03   -0.16794E-04   -0.16289E-04 10962   0.171E-04 0.846E-05
CGA:  16    -0.353689359062E+03   -0.48019E-05   -0.49292E-05 10962   0.758E-05 0.837E-05
   5 F= -.35368936E+03 E0= -.35368936E+03  d E =-.212588E+00  mag=     8.0000
       N       E                     dE             d eps       ncg     rms          ort
SDA:   1    -0.345548458675E+03    0.81409E+01    0.00000E+00 10962   0.251E+02 0.000E+00
CGA:   2    -0.350865596648E+03   -0.53171E+01   -0.53215E+01 10962   0.115E+02 0.224E-01
CGA:   3    -0.352795417546E+03   -0.19298E+01   -0.19287E+01 10962   0.467E+01-0.296E-02
CGA:   4    -0.353502555345E+03   -0.70714E+00   -0.70731E+00 10962   0.107E+01 0.799E-03
CGA:   5    -0.353672988528E+03   -0.17043E+00   -0.17065E+00 10962   0.290E+00 0.134E-02
CGA:   6    -0.353726193466E+03   -0.53205E-01   -0.53222E-01 10962   0.966E-01 0.119E-03
CGA:   7    -0.353746503226E+03   -0.20310E-01   -0.20321E-01 10962   0.389E-01 0.294E-03
CGA:   8    -0.353756607745E+03   -0.10105E-01   -0.10095E-01 10962   0.189E-01 0.636E-03
CGA:   9    -0.353761959943E+03   -0.53522E-02   -0.53531E-02 10962   0.905E-02-0.307E-04
CGA:  10    -0.353764488233E+03   -0.25283E-02   -0.25260E-02 10962   0.352E-02 0.661E-04
CGA:  11    -0.353765529080E+03   -0.10408E-02   -0.10499E-02 10962   0.138E-02-0.188E-03
CGA:  12    -0.353765925664E+03   -0.39658E-03   -0.39833E-03 10962   0.557E-03-0.329E-04
CGA:  13    -0.353766120886E+03   -0.19522E-03   -0.20373E-03 10962   0.287E-03-0.700E-04
CGA:  14    -0.353766213238E+03   -0.92352E-04   -0.97039E-04 10962   0.137E-03-0.369E-04
CGA:  15    -0.353766247552E+03   -0.34314E-04   -0.34082E-04 10962   0.438E-04 0.111E-04
CGA:  16    -0.353766259822E+03   -0.12270E-04   -0.12316E-04 10962   0.154E-04 0.728E-05
CGA:  17    -0.353766263701E+03   -0.38796E-05   -0.41082E-05 10962   0.645E-05 0.605E-05
   6 F= -.35376626E+03 E0= -.35376626E+03  d E =-.769046E-01  mag=     8.0000
       N       E                     dE             d eps       ncg     rms          ort
SDA:   1    -0.338783433670E+03    0.14983E+02    0.00000E+00 10962   0.415E+02 0.000E+00
CGA:   2    -0.348520688809E+03   -0.97373E+01   -0.97411E+01 10962   0.228E+02 0.286E-01
CGA:   3    -0.352194275531E+03   -0.36736E+01   -0.36727E+01 10962   0.789E+01 0.889E-02
CGA:   4    -0.353342893593E+03   -0.11486E+01   -0.11489E+01 10962   0.174E+01 0.307E-02
CGA:   5    -0.353622359080E+03   -0.27947E+00   -0.27988E+00 10962   0.477E+00 0.271E-02
CGA:   6    -0.353709498677E+03   -0.87140E-01   -0.87202E-01 10962   0.156E+00 0.729E-03
CGA:   7    -0.353741743678E+03   -0.32245E-01   -0.32234E-01 10962   0.588E-01-0.297E-03
CGA:   8    -0.353756704843E+03   -0.14961E-01   -0.14962E-01 10962   0.273E-01-0.857E-04
CGA:   9    -0.353764164907E+03   -0.74601E-02   -0.74772E-02 10962   0.127E-01-0.642E-03
CGA:  10    -0.353767616498E+03   -0.34516E-02   -0.34559E-02 10962   0.485E-02-0.144E-03
CGA:  11    -0.353768990621E+03   -0.13741E-02   -0.13811E-02 10962   0.181E-02-0.191E-03
CGA:  12    -0.353769518670E+03   -0.52805E-03   -0.52926E-03 10962   0.749E-03-0.240E-04
CGA:  13    -0.353769776634E+03   -0.25796E-03   -0.25842E-03 10962   0.367E-03-0.525E-05
CGA:  14    -0.353769923661E+03   -0.14703E-03   -0.15400E-03 10962   0.222E-03-0.432E-04
CGA:  15    -0.353769976802E+03   -0.53141E-04   -0.53033E-04 10962   0.816E-04 0.412E-04
CGA:  16    -0.353770011697E+03   -0.34895E-04   -0.37460E-04 10962   0.516E-04-0.217E-04
CGA:  17    -0.353770019054E+03   -0.73565E-05   -0.80510E-05 10962   0.279E-04 0.112E-04
CGA:  18    -0.353770030298E+03   -0.11245E-04   -0.11921E-04 10962   0.225E-04-0.849E-05
CGA:  19    -0.353770044673E+03   -0.14374E-04    0.31910E-05 10962   0.192E-04 0.617E-06
CGA:  20    -0.353770024399E+03    0.20274E-04   -0.20955E-04 10962   0.159E-03-0.523E-04
CGA:  21    -0.353770061381E+03   -0.36982E-04   -0.38383E-04 10962   0.112E-04 0.190E-04
CGA:  22    -0.353770070218E+03   -0.88370E-05    0.14323E-04 10962   0.332E-05 0.303E-05
   7 F= -.35377007E+03 E0= -.35377007E+03  d E =-.380652E-02  mag=     8.0000
       N       E                     dE             d eps       ncg     rms          ort
SDA:   1    -0.351713529860E+03    0.20565E+01    0.00000E+00 10962   0.634E+01 0.000E+00
CGA:   2    -0.353258352207E+03   -0.15448E+01   -0.15448E+01 10962   0.249E+01-0.434E-02
CGA:   3    -0.353696326997E+03   -0.43797E+00   -0.43820E+00 10962   0.109E+01 0.104E-02
CGA:   4    -0.353858903093E+03   -0.16258E+00   -0.16275E+00 10962   0.256E+00 0.904E-03
CGA:   5    -0.353903257353E+03   -0.44354E-01   -0.44347E-01 10962   0.833E-01-0.128E-03
CGA:   6    -0.353918647365E+03   -0.15390E-01   -0.15354E-01 10962   0.286E-01-0.386E-03
CGA:   7    -0.353925090393E+03   -0.64430E-02   -0.64353E-02 10962   0.136E-01-0.166E-03
CGA:   8    -0.353928509443E+03   -0.34190E-02   -0.34202E-02 10962   0.587E-02 0.637E-04
CGA:   9    -0.353930095033E+03   -0.15856E-02   -0.15856E-02 10962   0.257E-02-0.739E-04
CGA:  10    -0.353930764861E+03   -0.66983E-03   -0.66987E-03 10962   0.891E-03 0.870E-05
CGA:  11    -0.353931020653E+03   -0.25579E-03   -0.25604E-03 10962   0.346E-03-0.140E-04
CGA:  12    -0.353931129148E+03   -0.10849E-03   -0.10915E-03 10962   0.158E-03-0.129E-04
CGA:  13    -0.353931177415E+03   -0.48267E-04   -0.47693E-04 10962   0.664E-04 0.138E-04
CGA:  14    -0.353931206633E+03   -0.29218E-04   -0.31307E-04 10962   0.439E-04-0.132E-04
CGA:  15    -0.353931212806E+03   -0.61734E-05   -0.71888E-05 10962   0.197E-04 0.130E-04
   8 F= -.35393121E+03 E0= -.35393121E+03  d E =-.161143E+00  mag=     8.0000
       N       E                     dE             d eps       ncg     rms          ort
SDA:   1    -0.353243574481E+03    0.68763E+00    0.00000E+00 10962   0.216E+01 0.000E+00
CGA:   2    -0.353769553007E+03   -0.52598E+00   -0.52594E+00 10962   0.846E+00-0.202E-02
CGA:   3    -0.353917805225E+03   -0.14825E+00   -0.14836E+00 10962   0.363E+00 0.948E-03
CGA:   4    -0.353970421044E+03   -0.52616E-01   -0.52726E-01 10962   0.793E-01 0.698E-03
CGA:   5    -0.353983717605E+03   -0.13297E-01   -0.13291E-01 10962   0.243E-01-0.890E-04
CGA:   6    -0.353988175756E+03   -0.44582E-02   -0.44406E-02 10962   0.816E-02-0.224E-03
CGA:   7    -0.353989954810E+03   -0.17791E-02   -0.17832E-02 10962   0.373E-02 0.110E-03
CGA:   8    -0.353990903039E+03   -0.94823E-03   -0.94930E-03 10962   0.168E-02 0.238E-03
CGA:   9    -0.353991409597E+03   -0.50656E-03   -0.50593E-03 10962   0.826E-03 0.227E-04
CGA:  10    -0.353991639293E+03   -0.22970E-03   -0.22962E-03 10962   0.314E-03 0.440E-05
CGA:  11    -0.353991740392E+03   -0.10110E-03   -0.10632E-03 10962   0.164E-03-0.660E-04
CGA:  12    -0.353991779131E+03   -0.38738E-04   -0.39279E-04 10962   0.703E-04-0.133E-04
CGA:  13    -0.353991802727E+03   -0.23596E-04   -0.29816E-04 10962   0.606E-04-0.316E-04
CGA:  14    -0.353991812099E+03   -0.93721E-05   -0.93973E-05 10962   0.314E-04-0.335E-05
   9 F= -.35399181E+03 E0= -.35399181E+03  d E =-.605993E-01  mag=     8.0000
       N       E                     dE             d eps       ncg     rms          ort
SDA:   1    -0.351486601152E+03    0.25052E+01    0.00000E+00 10962   0.665E+01 0.000E+00
CGA:   2    -0.353312707721E+03   -0.18261E+01   -0.18261E+01 10962   0.313E+01-0.126E-02
CGA:   3    -0.353816040175E+03   -0.50333E+00   -0.50353E+00 10962   0.109E+01 0.145E-02
CGA:   4    -0.353969501117E+03   -0.15346E+00   -0.15358E+00 10962   0.226E+00 0.420E-03
CGA:   5    -0.354006381574E+03   -0.36880E-01   -0.36827E-01 10962   0.639E-01-0.620E-03
CGA:   6    -0.354018045353E+03   -0.11664E-01   -0.11642E-01 10962   0.205E-01-0.296E-03
CGA:   7    -0.354022152079E+03   -0.41067E-02   -0.41181E-02 10962   0.762E-02 0.206E-03
CGA:   8    -0.354024090193E+03   -0.19381E-02   -0.19385E-02 10962   0.350E-02 0.284E-03
CGA:   9    -0.354025112862E+03   -0.10227E-02   -0.10194E-02 10962   0.177E-02 0.117E-03
CGA:  10    -0.354025668375E+03   -0.55551E-03   -0.56137E-03 10962   0.798E-03-0.111E-03
CGA:  11    -0.354025898067E+03   -0.22969E-03   -0.23707E-03 10962   0.364E-03-0.123E-03
CGA:  12    -0.354025993992E+03   -0.95925E-04   -0.98262E-04 10962   0.164E-03-0.398E-04
CGA:  13    -0.354026050609E+03   -0.56618E-04   -0.74975E-04 10962   0.169E-03-0.733E-04
CGA:  14    -0.354026080687E+03   -0.30077E-04   -0.31313E-04 10962   0.955E-04-0.210E-04
CGA:  15    -0.354026108871E+03   -0.28184E-04   -0.36703E-04 10962   0.798E-04-0.533E-04
CGA:  16    -0.354026119208E+03   -0.10337E-04   -0.13538E-04 10962   0.168E-04 0.274E-04
CGA:  17    -0.354026126311E+03   -0.71035E-05   -0.71238E-05 10962   0.116E-04-0.577E-06
  10 F= -.35402613E+03 E0= -.35402613E+03  d E =-.343142E-01  mag=     8.0000
       N       E                     dE             d eps       ncg     rms          ort
SDA:   1    -0.334767710259E+03    0.19258E+02    0.00000E+00 10962   0.485E+02 0.000E+00
CGA:   2    -0.348719100163E+03   -0.13951E+02   -0.13951E+02 10962   0.245E+02-0.460E-02
CGA:   3    -0.352470435488E+03   -0.37513E+01   -0.37536E+01 10962   0.754E+01 0.244E-01
CGA:   4    -0.353547111099E+03   -0.10767E+01   -0.10766E+01 10962   0.162E+01-0.126E-02
CGA:   5    -0.353813793014E+03   -0.26668E+00   -0.26647E+00 10962   0.469E+00-0.302E-02
CGA:   6    -0.353901255916E+03   -0.87463E-01   -0.87414E-01 10962   0.153E+00-0.814E-03
CGA:   7    -0.353932395239E+03   -0.31139E-01   -0.31141E-01 10962   0.569E-01-0.445E-04
CGA:   8    -0.353946905205E+03   -0.14510E-01   -0.14510E-01 10962   0.261E-01-0.120E-04
CGA:   9    -0.353954241693E+03   -0.73365E-02   -0.73471E-02 10962   0.125E-01-0.388E-03
CGA:  10    -0.353957762515E+03   -0.35208E-02   -0.35437E-02 10962   0.490E-02-0.710E-03
CGA:  11    -0.353959088296E+03   -0.13258E-02   -0.13352E-02 10962   0.182E-02-0.300E-03
CGA:  12    -0.353959633783E+03   -0.54549E-03   -0.55278E-03 10962   0.855E-03-0.113E-03
CGA:  13    -0.353959916903E+03   -0.28312E-03   -0.27779E-03 10962   0.440E-03 0.627E-04
CGA:  14    -0.353960115490E+03   -0.19859E-03   -0.19859E-03 10962   0.280E-03-0.431E-06
CGA:  15    -0.353960214622E+03   -0.99132E-04   -0.96283E-04 10962   0.121E-03 0.404E-04
CGA:  16    -0.353960266129E+03   -0.51507E-04   -0.94472E-04 10962   0.225E-03-0.106E-03
CGA:  17    -0.353960300907E+03   -0.34778E-04   -0.42320E-04 10962   0.382E-04 0.686E-04
CGA:  18    -0.353960336106E+03   -0.35199E-04    0.35057E-04 10962   0.189E-04 0.257E-05
CGA:  19    -0.353960341701E+03   -0.55953E-05   -0.56919E-05 10962   0.143E-04 0.957E-05
CGA:  20    -0.353960351470E+03   -0.97685E-05    0.12319E-04 10962   0.615E-05 0.691E-05
CGA:  21    -0.353960359904E+03   -0.84340E-05   -0.11793E-04 10962   0.311E-04-0.340E-05
  11 F= -.35396036E+03 E0= -.35396036E+03  d E =0.657664E-01  mag=     8.0000
       N       E                     dE             d eps       ncg     rms          ort
SDA:   1    -0.342683003179E+03    0.11277E+02    0.00000E+00 10962   0.280E+02 0.000E+00
CGA:   2    -0.350961623107E+03   -0.82786E+01   -0.82790E+01 10962   0.150E+02-0.960E-04
CGA:   3    -0.353182420026E+03   -0.22208E+01   -0.22210E+01 10962   0.434E+01 0.305E-01
CGA:   4    -0.353815536261E+03   -0.63312E+00   -0.63265E+00 10962   0.977E+00 0.282E-03
CGA:   5    -0.353978165818E+03   -0.16263E+00   -0.16244E+00 10962   0.287E+00-0.162E-02
CGA:   6    -0.354031566847E+03   -0.53401E-01   -0.53327E-01 10962   0.933E-01-0.616E-03
CGA:   7    -0.354050746858E+03   -0.19180E-01   -0.19156E-01 10962   0.354E-01-0.262E-03
CGA:   8    -0.354059593478E+03   -0.88466E-02   -0.88369E-02 10962   0.154E-01-0.194E-03
CGA:   9    -0.354063825206E+03   -0.42317E-02   -0.42236E-02 10962   0.709E-02-0.360E-03
CGA:  10    -0.354065800091E+03   -0.19749E-02   -0.19694E-02 10962   0.272E-02-0.411E-03
CGA:  11    -0.354066545262E+03   -0.74517E-03   -0.74381E-03 10962   0.104E-02-0.199E-03
CGA:  12    -0.354066858719E+03   -0.31346E-03   -0.31678E-03 10962   0.490E-03-0.100E-03
CGA:  13    -0.354067011520E+03   -0.15280E-03   -0.15171E-03 10962   0.246E-03 0.247E-04
CGA:  14    -0.354067115254E+03   -0.10373E-03   -0.10278E-03 10962   0.145E-03 0.959E-05
CGA:  15    -0.354067170759E+03   -0.55505E-04   -0.54531E-04 10962   0.694E-04 0.173E-04
CGA:  16    -0.354067203198E+03   -0.32439E-04   -0.52517E-04 10962   0.130E-03-0.548E-04
CGA:  17    -0.354067224895E+03   -0.21697E-04   -0.24729E-04 10962   0.279E-04 0.223E-04
CGA:  18    -0.354067211881E+03    0.13014E-04   -0.28285E-04 10962   0.281E-03-0.757E-04
CGA:  19    -0.354067242276E+03   -0.30394E-04   -0.38339E-04 10962   0.412E-04 0.375E-04
CGA:  20    -0.354067254463E+03   -0.12187E-04   -0.12242E-04 10962   0.652E-05 0.722E-06
CGA:  21    -0.354067263209E+03   -0.87464E-05    0.11252E-05 10962   0.876E-05-0.131E-05
  12 F= -.35406726E+03 E0= -.35406726E+03  d E =-.106903E+00  mag=     8.0000
       N       E                     dE             d eps       ncg     rms          ort
SDA:   1    -0.350057707652E+03    0.40095E+01    0.00000E+00 10962   0.107E+02 0.000E+00
CGA:   2    -0.352708444598E+03   -0.26507E+01   -0.26527E+01 10962   0.623E+01 0.799E-02
CGA:   3    -0.353693843222E+03   -0.98540E+00   -0.98549E+00 10962   0.205E+01 0.170E-02
CGA:   4    -0.353987395823E+03   -0.29355E+00   -0.29338E+00 10962   0.457E+00-0.251E-03
CGA:   5    -0.354062314797E+03   -0.74919E-01   -0.75000E-01 10962   0.128E+00 0.510E-03
CGA:   6    -0.354086010902E+03   -0.23696E-01   -0.23728E-01 10962   0.426E-01 0.254E-03
CGA:   7    -0.354094783475E+03   -0.87726E-02   -0.87847E-02 10962   0.159E-01 0.124E-03
CGA:   8    -0.354098729633E+03   -0.39462E-02   -0.39568E-02 10962   0.691E-02 0.257E-03
CGA:   9    -0.354100609483E+03   -0.18799E-02   -0.18775E-02 10962   0.305E-02-0.117E-03
CGA:  10    -0.354101418239E+03   -0.80876E-03   -0.80880E-03 10962   0.107E-02 0.254E-05
CGA:  11    -0.354101705802E+03   -0.28756E-03   -0.28780E-03 10962   0.362E-03 0.134E-04
CGA:  12    -0.354101824302E+03   -0.11850E-03   -0.11974E-03 10962   0.171E-03-0.298E-04
CGA:  13    -0.354101877955E+03   -0.53653E-04   -0.53621E-04 10962   0.868E-04 0.511E-06
CGA:  14    -0.354101877790E+03    0.16487E-06   -0.79588E-04 10962   0.362E-03-0.128E-03
CGA:  15    -0.354101918703E+03   -0.40914E-04   -0.57287E-04 10962   0.558E-04 0.101E-03
CGA:  16    -0.354101938899E+03   -0.20196E-04   -0.19811E-04 10962   0.191E-04-0.110E-04
CGA:  17    -0.354101938548E+03    0.35105E-06   -0.16399E-05 10962   0.110E-04 0.977E-05
  13 F= -.35410194E+03 E0= -.35410194E+03  d E =-.346753E-01  mag=     8.0000
       N       E                     dE             d eps       ncg     rms          ort
SDA:   1    -0.353854245950E+03    0.24769E+00    0.00000E+00 10962   0.693E+00 0.000E+00
CGA:   2    -0.354065236136E+03   -0.21099E+00   -0.21100E+00 10962   0.291E+00-0.559E-03
CGA:   3    -0.354115357293E+03   -0.50121E-01   -0.50080E-01 10962   0.121E+00-0.378E-03
CGA:   4    -0.354132982815E+03   -0.17626E-01   -0.17601E-01 10962   0.287E-01-0.215E-03
CGA:   5    -0.354138001045E+03   -0.50182E-02   -0.50193E-02 10962   0.974E-02 0.384E-05
CGA:   6    -0.354139843964E+03   -0.18429E-02   -0.18398E-02 10962   0.350E-02-0.375E-04
CGA:   7    -0.354140692872E+03   -0.84891E-03   -0.84288E-03 10962   0.186E-02-0.215E-03
CGA:   8    -0.354141128719E+03   -0.43585E-03   -0.43244E-03 10962   0.735E-03-0.169E-03
CGA:   9    -0.354141289634E+03   -0.16091E-03   -0.16082E-03 10962   0.260E-03-0.359E-05
CGA:  10    -0.354141351697E+03   -0.62063E-04   -0.62264E-04 10962   0.740E-04 0.778E-05
CGA:  11    -0.354141367264E+03   -0.15567E-04   -0.16311E-04 10962   0.212E-04 0.147E-04
CGA:  12    -0.354141370830E+03   -0.35662E-05   -0.44098E-05 10962   0.753E-05 0.952E-05
  14 F= -.35414137E+03 E0= -.35414137E+03  d E =-.394323E-01  mag=     8.0000
       N       E                     dE             d eps       ncg     rms          ort
SDA:   1    -0.353923436533E+03    0.21793E+00    0.00000E+00 10962   0.565E+00 0.000E+00
CGA:   2    -0.354078695025E+03   -0.15526E+00   -0.15523E+00 10962   0.349E+00 0.832E-03
CGA:   3    -0.354129596145E+03   -0.50901E-01   -0.50894E-01 10962   0.933E-01-0.107E-03
CGA:   4    -0.354142767777E+03   -0.13172E-01   -0.13143E-01 10962   0.201E-01-0.288E-03
CGA:   5    -0.354146089008E+03   -0.33212E-02   -0.33062E-02 10962   0.568E-02-0.201E-03
CGA:   6    -0.354147130852E+03   -0.10418E-02   -0.10354E-02 10962   0.177E-02-0.121E-03
CGA:   7    -0.354147456141E+03   -0.32529E-03   -0.32691E-03 10962   0.554E-03 0.348E-04
CGA:   8    -0.354147574201E+03   -0.11806E-03   -0.11980E-03 10962   0.206E-03 0.850E-04
CGA:   9    -0.354147634755E+03   -0.60554E-04   -0.59862E-04 10962   0.965E-04 0.343E-04
CGA:  10    -0.354147670465E+03   -0.35710E-04   -0.35841E-04 10962   0.553E-04-0.152E-05
CGA:  11    -0.354147687508E+03   -0.17043E-04   -0.18847E-04 10962   0.331E-04-0.165E-04
CGA:  12    -0.354147693963E+03   -0.64558E-05   -0.97106E-05 10962   0.273E-04-0.186E-04
  15 F= -.35414769E+03 E0= -.35414769E+03  d E =-.632313E-02  mag=     8.0000
       N       E                     dE             d eps       ncg     rms          ort
SDA:   1    -0.343881285762E+03    0.10266E+02    0.00000E+00 10962   0.272E+02 0.000E+00
CGA:   2    -0.350352639808E+03   -0.64714E+01   -0.64723E+01 10962   0.184E+02 0.520E-01
CGA:   3    -0.353228963976E+03   -0.28763E+01   -0.28752E+01 10962   0.514E+01 0.109E-01
CGA:   4    -0.353926226613E+03   -0.69726E+00   -0.69675E+00 10962   0.101E+01 0.489E-05
CGA:   5    -0.354092216574E+03   -0.16599E+00   -0.16615E+00 10962   0.288E+00 0.118E-02
CGA:   6    -0.354145018020E+03   -0.52801E-01   -0.52808E-01 10962   0.887E-01 0.193E-04
CGA:   7    -0.354162285738E+03   -0.17268E-01   -0.17260E-01 10962   0.275E-01-0.251E-03
CGA:   8    -0.354168704883E+03   -0.64191E-02   -0.64160E-02 10962   0.113E-01 0.543E-03
CGA:   9    -0.354171874411E+03   -0.31695E-02   -0.31822E-02 10962   0.519E-02-0.264E-03
CGA:  10    -0.354173308104E+03   -0.14337E-02   -0.14419E-02 10962   0.207E-02-0.151E-03
CGA:  11    -0.354173864141E+03   -0.55604E-03   -0.56016E-03 10962   0.698E-03-0.903E-04
CGA:  12    -0.354174086164E+03   -0.22202E-03   -0.24647E-03 10962   0.398E-03-0.183E-03
CGA:  13    -0.354174146230E+03   -0.60066E-04   -0.62564E-04 10962   0.173E-03 0.861E-04
CGA:  14    -0.354174205745E+03   -0.59516E-04   -0.58934E-04 10962   0.106E-03 0.148E-04
CGA:  15    -0.354174223716E+03   -0.17970E-04   -0.88293E-04 10962   0.352E-03-0.135E-03
CGA:  16    -0.354174269274E+03   -0.45558E-04   -0.58140E-04 10962   0.718E-04 0.121E-03
CGA:  17    -0.354174171199E+03    0.98075E-04   -0.96048E-04 10962   0.683E-03-0.266E-03
CGA:  18    -0.354174284545E+03   -0.11335E-03   -0.13355E-03 10962   0.104E-03 0.192E-03
CGA:  19    -0.354174188671E+03    0.95874E-04   -0.12465E-03 10962   0.835E-03-0.343E-03
CGA:  20    -0.354174251100E+03   -0.62429E-04   -0.12060E-03 10962   0.199E-03 0.318E-03
CGA:  21    -0.354174307436E+03   -0.56337E-04   -0.59541E-04 10962   0.350E-04 0.315E-04
CGA:  22    -0.354174382054E+03   -0.74617E-04    0.32691E-05 10962   0.389E-04-0.308E-04
CGA:  23    -0.354174374771E+03    0.72824E-05   -0.12650E-05 10962   0.239E-04 0.305E-04
  16 F= -.35417437E+03 E0= -.35417437E+03  d E =-.266808E-01  mag=     8.0000
       N       E                     dE             d eps       ncg     rms          ort
SDA:   1    -0.339930757305E+03    0.14244E+02    0.00000E+00 10962   0.337E+02 0.000E+00
CGA:   2    -0.348720034329E+03   -0.87893E+01   -0.87924E+01 10962   0.184E+02 0.487E-01
CGA:   3    -0.351583549095E+03   -0.28635E+01   -0.28648E+01 10962   0.634E+01 0.240E-01
CGA:   4    -0.352571468443E+03   -0.98792E+00   -0.98806E+00 10962   0.170E+01 0.207E-02
CGA:   5    -0.352857907951E+03   -0.28644E+00   -0.28665E+00 10962   0.525E+00 0.110E-02
CGA:   6    -0.352956811712E+03   -0.98904E-01   -0.99037E-01 10962   0.180E+00 0.145E-02
CGA:   7    -0.352995633737E+03   -0.38822E-01   -0.38862E-01 10962   0.785E-01 0.832E-03
CGA:   8    -0.353014700657E+03   -0.19067E-01   -0.19085E-01 10962   0.292E-01 0.980E-03
CGA:   9    -0.353022059507E+03   -0.73588E-02   -0.73615E-02 10962   0.114E-01 0.242E-03
CGA:  10    -0.353025146758E+03   -0.30873E-02   -0.30901E-02 10962   0.372E-02-0.276E-03
CGA:  11    -0.353026092091E+03   -0.94533E-03   -0.94533E-03 10962   0.117E-02 0.583E-05
CGA:  12    -0.353026448418E+03   -0.35633E-03   -0.36327E-03 10962   0.434E-03-0.139E-03
CGA:  13    -0.353026562106E+03   -0.11369E-03   -0.11365E-03 10962   0.155E-03 0.654E-06
CGA:  14    -0.353026334210E+03    0.22790E-03   -0.19550E-03 10962   0.168E-02-0.426E-03
CGA:  15    -0.353026608411E+03   -0.27420E-03   -0.30958E-03 10962   0.205E-03 0.273E-03
CGA:  16    -0.353026687936E+03   -0.79524E-04   -0.82352E-04 10962   0.105E-03-0.726E-04
CGA:  17    -0.353026687610E+03    0.32548E-06   -0.70266E-05 10962   0.564E-04 0.359E-04
  17 F= -.35302669E+03 E0= -.35302669E+03  d E =0.114769E+01  mag=     8.0000
       N       E                     dE             d eps       ncg     rms          ort
SDA:   1    -0.351560342624E+03    0.14663E+01    0.00000E+00 10962   0.571E+01 0.000E+00
CGA:   2    -0.353384593119E+03   -0.18243E+01   -0.18250E+01 10962   0.181E+01-0.194E-01
CGA:   3    -0.353799603306E+03   -0.41501E+00   -0.41526E+00 10962   0.625E+00 0.292E-02
CGA:   4    -0.353887821940E+03   -0.88219E-01   -0.88076E-01 10962   0.187E+00-0.521E-03
CGA:   5    -0.353923449233E+03   -0.35627E-01   -0.35551E-01 10962   0.621E-01-0.771E-03
CGA:   6    -0.353934849676E+03   -0.11400E-01   -0.11382E-01 10962   0.250E-01-0.229E-03
CGA:   7    -0.353941341578E+03   -0.64919E-02   -0.64838E-02 10962   0.113E-01-0.771E-03
CGA:   8    -0.353943732138E+03   -0.23906E-02   -0.23704E-02 10962   0.464E-02-0.373E-03
CGA:   9    -0.353944837494E+03   -0.11054E-02   -0.11072E-02 10962   0.152E-02 0.905E-04
CGA:  10    -0.353945207899E+03   -0.37040E-03   -0.37101E-03 10962   0.481E-03 0.225E-04
CGA:  11    -0.353945333450E+03   -0.12555E-03   -0.12567E-03 10962   0.149E-03 0.170E-04
CGA:  12    -0.353945361155E+03   -0.27705E-04   -0.30592E-04 10962   0.464E-04 0.439E-04
CGA:  13    -0.353945370493E+03   -0.93385E-05   -0.11061E-04 10962   0.193E-04 0.223E-04
  18 F= -.35394537E+03 E0= -.35394537E+03  d E =-.918683E+00  mag=     8.0000
       N       E                     dE             d eps       ncg     rms          ort
SDA:   1    -0.353250590524E+03    0.69477E+00    0.00000E+00 10962   0.221E+01 0.000E+00
CGA:   2    -0.353962553009E+03   -0.71196E+00   -0.71242E+00 10962   0.702E+00-0.646E-02
CGA:   3    -0.354120939660E+03   -0.15839E+00   -0.15844E+00 10962   0.255E+00 0.163E-02
CGA:   4    -0.354156299786E+03   -0.35360E-01   -0.35321E-01 10962   0.741E-01-0.290E-03
CGA:   5    -0.354170455233E+03   -0.14155E-01   -0.14133E-01 10962   0.248E-01-0.365E-03
CGA:   6    -0.354174978364E+03   -0.45231E-02   -0.45190E-02 10962   0.985E-02-0.707E-04
CGA:   7    -0.354177565106E+03   -0.25867E-02   -0.25957E-02 10962   0.465E-02-0.417E-03
CGA:   8    -0.354178534823E+03   -0.96972E-03   -0.96393E-03 10962   0.189E-02-0.210E-03
CGA:   9    -0.354178968975E+03   -0.43415E-03   -0.43426E-03 10962   0.602E-03 0.755E-04
CGA:  10    -0.354179119125E+03   -0.15015E-03   -0.15018E-03 10962   0.196E-03 0.122E-04
CGA:  11    -0.354179167025E+03   -0.47900E-04   -0.47948E-04 10962   0.585E-04 0.200E-04
CGA:  12    -0.354179178325E+03   -0.11301E-04   -0.12343E-04 10962   0.195E-04 0.204E-04
CGA:  13    -0.354179182031E+03   -0.37055E-05   -0.44906E-05 10962   0.875E-05 0.113E-04
  19 F= -.35417918E+03 E0= -.35417918E+03  d E =-.233812E+00  mag=     8.0000
       N       E                     dE             d eps       ncg     rms          ort
SDA:   1    -0.353940059369E+03    0.23912E+00    0.00000E+00 10962   0.651E+00 0.000E+00
CGA:   2    -0.354145557596E+03   -0.20550E+00   -0.20562E+00 10962   0.234E+00-0.153E-02
CGA:   3    -0.354190262376E+03   -0.44705E-01   -0.44724E-01 10962   0.101E+00 0.362E-03
CGA:   4    -0.354204393150E+03   -0.14131E-01   -0.14130E-01 10962   0.242E-01-0.411E-04
CGA:   5    -0.354208907166E+03   -0.45140E-02   -0.45102E-02 10962   0.854E-02-0.878E-04
CGA:   6    -0.354210476022E+03   -0.15689E-02   -0.15672E-02 10962   0.311E-02-0.382E-04
CGA:   7    -0.354211259452E+03   -0.78343E-03   -0.78893E-03 10962   0.168E-02-0.191E-03
CGA:   8    -0.354211624001E+03   -0.36455E-03   -0.36521E-03 10962   0.649E-03-0.152E-03
CGA:   9    -0.354211762262E+03   -0.13826E-03   -0.13806E-03 10962   0.217E-03 0.323E-04
CGA:  10    -0.354211814517E+03   -0.52256E-04   -0.52228E-04 10962   0.638E-04 0.163E-04
CGA:  11    -0.354211831009E+03   -0.16491E-04   -0.16399E-04 10962   0.210E-04 0.813E-05
CGA:  12    -0.354211833878E+03   -0.28693E-05   -0.36411E-05 10962   0.776E-05 0.104E-04
  20 F= -.35421183E+03 E0= -.35421183E+03  d E =-.326518E-01  mag=     8.0000
       N       E                     dE             d eps       ncg     rms          ort
SDA:   1    -0.354190891809E+03    0.20939E-01    0.00000E+00 10962   0.636E-01 0.000E+00
CGA:   2    -0.354207206832E+03   -0.16315E-01   -0.16320E-01 10962   0.373E-01-0.155E-03
CGA:   3    -0.354212813251E+03   -0.56064E-02   -0.56070E-02 10962   0.121E-01 0.935E-06
CGA:   4    -0.354214655738E+03   -0.18425E-02   -0.18406E-02 10962   0.319E-02-0.324E-04
CGA:   5    -0.354215180339E+03   -0.52460E-03   -0.52461E-03 10962   0.930E-03-0.715E-06
CGA:   6    -0.354215349393E+03   -0.16905E-03   -0.16903E-03 10962   0.318E-03-0.966E-06
CGA:   7    -0.354215424693E+03   -0.75300E-04   -0.76508E-04 10962   0.166E-03-0.399E-04
CGA:   8    -0.354215464561E+03   -0.39868E-04   -0.47937E-04 10962   0.130E-03-0.688E-04
CGA:   9    -0.354215479970E+03   -0.15409E-04   -0.15213E-04 10962   0.493E-04-0.103E-04
CGA:  10    -0.354215487276E+03   -0.73059E-05   -0.77056E-05 10962   0.195E-04 0.840E-05
  21 F= -.35421549E+03 E0= -.35421549E+03  d E =-.365340E-02  mag=     8.0000
       N       E                     dE             d eps       ncg     rms          ort
SDA:   1    -0.354188947297E+03    0.26533E-01    0.00000E+00 10962   0.800E-01 0.000E+00
CGA:   2    -0.354206463220E+03   -0.17516E-01   -0.17514E-01 10962   0.487E-01 0.211E-03
CGA:   3    -0.354214329266E+03   -0.78660E-02   -0.78714E-02 10962   0.164E-01 0.946E-04
CGA:   4    -0.354216756074E+03   -0.24268E-02   -0.24221E-02 10962   0.400E-02-0.800E-04
CGA:   5    -0.354217405490E+03   -0.64942E-03   -0.64769E-03 10962   0.115E-02-0.405E-04
CGA:   6    -0.354217613711E+03   -0.20822E-03   -0.20815E-03 10962   0.375E-03-0.332E-05
CGA:   7    -0.354217690471E+03   -0.76760E-04   -0.76758E-04 10962   0.140E-03 0.866E-06
CGA:   8    -0.354217726251E+03   -0.35780E-04   -0.36378E-04 10962   0.644E-04-0.108E-04
CGA:   9    -0.354217741293E+03   -0.15041E-04   -0.15246E-04 10962   0.259E-04-0.407E-05
CGA:  10    -0.354217748218E+03   -0.69256E-05   -0.74647E-05 10962   0.112E-04-0.542E-05
  22 F= -.35421775E+03 E0= -.35421775E+03  d E =-.226094E-02  mag=     8.0000
       N       E                     dE             d eps       ncg     rms          ort
SDA:   1    -0.354209144456E+03    0.85968E-02    0.00000E+00 10962   0.259E-01 0.000E+00
CGA:   2    -0.354214370298E+03   -0.52258E-02   -0.52327E-02 10962   0.154E-01 0.292E-03
CGA:   3    -0.354216991574E+03   -0.26213E-02   -0.26284E-02 10962   0.542E-02 0.126E-03
CGA:   4    -0.354217787624E+03   -0.79605E-03   -0.79083E-03 10962   0.117E-02-0.700E-04
CGA:   5    -0.354217980463E+03   -0.19284E-03   -0.19005E-03 10962   0.335E-03-0.541E-04
CGA:   6    -0.354218037682E+03   -0.57220E-04   -0.56726E-04 10962   0.113E-03-0.135E-04
CGA:   7    -0.354218055518E+03   -0.17835E-04   -0.18324E-04 10962   0.306E-04 0.111E-04
CGA:   8    -0.354218060507E+03   -0.49892E-05   -0.54905E-05 10962   0.106E-04 0.107E-04
  23 F= -.35421806E+03 E0= -.35421806E+03  d E =-.312288E-03  mag=     8.0000
       N       E                     dE             d eps       ncg     rms          ort
SDA:   1    -0.354085679404E+03    0.13238E+00    0.00000E+00 10962   0.368E+00 0.000E+00
CGA:   2    -0.354166215455E+03   -0.80536E-01   -0.80513E-01 10962   0.232E+00 0.157E-02
CGA:   3    -0.354203858360E+03   -0.37643E-01   -0.37659E-01 10962   0.743E-01 0.319E-03
CGA:   4    -0.354214296797E+03   -0.10438E-01   -0.10415E-01 10962   0.154E-01-0.390E-03
CGA:   5    -0.354216761479E+03   -0.24647E-02   -0.24567E-02 10962   0.429E-02-0.201E-03
CGA:   6    -0.354217524860E+03   -0.76338E-03   -0.76251E-03 10962   0.135E-02-0.474E-04
CGA:   7    -0.354217773209E+03   -0.24835E-03   -0.24897E-03 10962   0.397E-03 0.560E-04
CGA:   8    -0.354217857026E+03   -0.83817E-04   -0.83537E-04 10962   0.140E-03 0.633E-04
CGA:   9    -0.354217896376E+03   -0.39350E-04   -0.38236E-04 10962   0.606E-04 0.290E-04
CGA:  10    -0.354217916994E+03   -0.20618E-04   -0.20087E-04 10962   0.293E-04 0.707E-05
CGA:  11    -0.354217927309E+03   -0.10315E-04   -0.10964E-04 10962   0.165E-04-0.493E-05
CGA:  12    -0.354217931111E+03   -0.38025E-05   -0.39329E-05 10962   0.677E-05-0.170E-05
  24 F= -.35421793E+03 E0= -.35421793E+03  d E =0.129395E-03  mag=     8.0000
       N       E                     dE             d eps       ncg     rms          ort
SDA:   1    -0.354054511967E+03    0.16342E+00    0.00000E+00 10962   0.415E+00 0.000E+00
CGA:   2    -0.354165767820E+03   -0.11126E+00   -0.11115E+00 10962   0.259E+00 0.195E-02
CGA:   3    -0.354204122167E+03   -0.38354E-01   -0.38357E-01 10962   0.708E-01 0.146E-05
CGA:   4    -0.354214052477E+03   -0.99303E-02   -0.98891E-02 10962   0.150E-01-0.548E-03
CGA:   5    -0.354216480147E+03   -0.24277E-02   -0.24150E-02 10962   0.432E-02-0.253E-03
CGA:   6    -0.354217238817E+03   -0.75867E-03   -0.75748E-03 10962   0.129E-02-0.375E-04
CGA:   7    -0.354217471272E+03   -0.23246E-03   -0.23432E-03 10962   0.371E-03 0.689E-04
CGA:   8    -0.354217553714E+03   -0.82442E-04   -0.82298E-04 10962   0.142E-03 0.583E-04
CGA:   9    -0.354217595985E+03   -0.42271E-04   -0.41212E-04 10962   0.670E-04 0.252E-04
CGA:  10    -0.354217619623E+03   -0.23637E-04   -0.23250E-04 10962   0.348E-04 0.462E-05
CGA:  11    -0.354217631582E+03   -0.11959E-04   -0.13519E-04 10962   0.226E-04-0.105E-04
CGA:  12    -0.354217635218E+03   -0.36359E-05   -0.36367E-05 10962   0.900E-05-0.121E-06
  25 F= -.35421764E+03 E0= -.35421764E+03  d E =0.295893E-03  mag=     8.0000
       N       E                     dE             d eps       ncg     rms          ort
SDA:   1    -0.344500269027E+03    0.97174E+01    0.00000E+00 10962   0.233E+02 0.000E+00
CGA:   2    -0.351840106888E+03   -0.73398E+01   -0.73391E+01 10962   0.121E+02 0.470E-02
CGA:   3    -0.353567548299E+03   -0.17274E+01   -0.17280E+01 10962   0.324E+01-0.687E-03
CGA:   4    -0.354025647319E+03   -0.45810E+00   -0.45769E+00 10962   0.710E+00-0.529E-02
CGA:   5    -0.354143997921E+03   -0.11835E+00   -0.11825E+00 10962   0.212E+00-0.201E-02
CGA:   6    -0.354182371224E+03   -0.38373E-01   -0.38377E-01 10962   0.644E-01 0.341E-04
CGA:   7    -0.354195112126E+03   -0.12741E-01   -0.12741E-01 10962   0.221E-01-0.279E-04
CGA:   8    -0.354200751512E+03   -0.56394E-02   -0.56531E-02 10962   0.106E-01-0.334E-03
CGA:   9    -0.354203619946E+03   -0.28684E-02   -0.28853E-02 10962   0.501E-02-0.281E-03
CGA:  10    -0.354205054666E+03   -0.14347E-02   -0.14748E-02 10962   0.209E-02-0.485E-03
CGA:  11    -0.354205562165E+03   -0.50750E-03   -0.51407E-03 10962   0.688E-03-0.135E-03
CGA:  12    -0.354205761765E+03   -0.19960E-03   -0.20553E-03 10962   0.304E-03-0.639E-04
CGA:  13    -0.354205853540E+03   -0.91774E-04   -0.88771E-04 10962   0.151E-03 0.328E-04
CGA:  14    -0.354205917240E+03   -0.63700E-04   -0.59954E-04 10962   0.869E-04 0.303E-04
CGA:  15    -0.354205961515E+03   -0.44275E-04   -0.42010E-04 10962   0.526E-04 0.139E-04
CGA:  16    -0.354205989253E+03   -0.27738E-04   -0.27719E-04 10962   0.347E-04-0.517E-07
CGA:  17    -0.354205989203E+03    0.49851E-07   -0.35754E-04 10962   0.152E-03-0.467E-04
CGA:  18    -0.354206017074E+03   -0.27871E-04   -0.29396E-04 10962   0.395E-04 0.144E-04
CGA:  19    -0.354206031341E+03   -0.14267E-04   -0.15781E-04 10962   0.340E-04-0.212E-04
CGA:  20    -0.354206034865E+03   -0.35240E-05   -0.46529E-05 10962   0.660E-05 0.703E-05
  26 F= -.35420603E+03 E0= -.35420603E+03  d E =0.116004E-01  mag=     8.0000
       N       E                     dE             d eps       ncg     rms          ort
SDA:   1    -0.352187113448E+03    0.20189E+01    0.00000E+00 10962   0.497E+01 0.000E+00
CGA:   2    -0.353688858624E+03   -0.15017E+01   -0.15018E+01 10962   0.277E+01-0.231E-02
CGA:   3    -0.354078450300E+03   -0.38959E+00   -0.38962E+00 10962   0.749E+00 0.312E-05
CGA:   4    -0.354184949291E+03   -0.10650E+00   -0.10650E+00 10962   0.167E+00-0.237E-03
CGA:   5    -0.354212678096E+03   -0.27729E-01   -0.27686E-01 10962   0.489E-01-0.415E-03
CGA:   6    -0.354221475185E+03   -0.87971E-02   -0.87911E-02 10962   0.150E-01-0.751E-04
CGA:   7    -0.354224433884E+03   -0.29587E-02   -0.29566E-02 10962   0.516E-02-0.335E-04
CGA:   8    -0.354225713938E+03   -0.12801E-02   -0.12798E-02 10962   0.231E-02-0.189E-04
CGA:   9    -0.354226330815E+03   -0.61688E-03   -0.61687E-03 10962   0.103E-02 0.248E-05
CGA:  10    -0.354226641637E+03   -0.31082E-03   -0.31493E-03 10962   0.450E-03-0.101E-03
CGA:  11    -0.354226746543E+03   -0.10491E-03   -0.10485E-03 10962   0.138E-03-0.795E-05
CGA:  12    -0.354226792064E+03   -0.45521E-04   -0.48811E-04 10962   0.778E-04-0.352E-04
CGA:  13    -0.354226804868E+03   -0.12804E-04   -0.13414E-04 10962   0.356E-04 0.155E-04
CGA:  14    -0.354226816155E+03   -0.11286E-04   -0.11313E-04 10962   0.195E-04 0.705E-05
CGA:  15    -0.354226825710E+03   -0.95549E-05   -0.14494E-04 10962   0.378E-04-0.141E-04
  27 F= -.35422683E+03 E0= -.35422683E+03  d E =-.207908E-01  mag=     8.0000
       N       E                     dE             d eps       ncg     rms          ort
SDA:   1    -0.352713737445E+03    0.15131E+01    0.00000E+00 10962   0.375E+01 0.000E+00
CGA:   2    -0.353815223956E+03   -0.11015E+01   -0.11015E+01 10962   0.214E+01-0.410E-02
CGA:   3    -0.354125125896E+03   -0.30990E+00   -0.30992E+00 10962   0.585E+00 0.607E-04
CGA:   4    -0.354206870629E+03   -0.81745E-01   -0.81897E-01 10962   0.125E+00 0.949E-03
CGA:   5    -0.354227264076E+03   -0.20393E-01   -0.20460E-01 10962   0.359E-01 0.596E-03
CGA:   6    -0.354233840460E+03   -0.65764E-02   -0.65801E-02 10962   0.111E-01 0.384E-04
CGA:   7    -0.354236084799E+03   -0.22443E-02   -0.22325E-02 10962   0.386E-02-0.211E-03
CGA:   8    -0.354237045408E+03   -0.96061E-03   -0.96041E-03 10962   0.184E-02-0.134E-03
CGA:   9    -0.354237542578E+03   -0.49717E-03   -0.50078E-03 10962   0.904E-03-0.131E-03
CGA:  10    -0.354237776440E+03   -0.23386E-03   -0.23474E-03 10962   0.334E-03-0.372E-04
CGA:  11    -0.354237861068E+03   -0.84628E-04   -0.84644E-04 10962   0.103E-03-0.240E-05
CGA:  12    -0.354237892449E+03   -0.31381E-04   -0.31638E-04 10962   0.430E-04-0.498E-05
CGA:  13    -0.354237905456E+03   -0.13008E-04   -0.12755E-04 10962   0.201E-04 0.491E-05
CGA:  14    -0.354237913245E+03   -0.77888E-05   -0.17295E-04 10962   0.517E-04-0.187E-04
  28 F= -.35423791E+03 E0= -.35423791E+03  d E =-.110875E-01  mag=     8.0000
       N       E                     dE             d eps       ncg     rms          ort
SDA:   1    -0.354118740158E+03    0.11917E+00    0.00000E+00 10962   0.324E+00 0.000E+00
CGA:   2    -0.354207872720E+03   -0.89133E-01   -0.89122E-01 10962   0.164E+00-0.176E-02
CGA:   3    -0.354233676902E+03   -0.25804E-01   -0.25842E-01 10962   0.578E-01 0.271E-03
CGA:   4    -0.354241686756E+03   -0.80099E-02   -0.80654E-02 10962   0.117E-01 0.390E-03
CGA:   5    -0.354243617931E+03   -0.19312E-02   -0.19375E-02 10962   0.362E-02 0.587E-04
CGA:   6    -0.354244285921E+03   -0.66799E-03   -0.66803E-03 10962   0.119E-02-0.170E-06
CGA:   7    -0.354244534451E+03   -0.24853E-03   -0.24803E-03 10962   0.484E-03-0.102E-04
CGA:   8    -0.354244649580E+03   -0.11513E-03   -0.11543E-03 10962   0.202E-03 0.182E-04
CGA:   9    -0.354244699666E+03   -0.50086E-04   -0.50440E-04 10962   0.799E-04 0.242E-04
CGA:  10    -0.354244728350E+03   -0.28684E-04   -0.29659E-04 10962   0.440E-04-0.128E-04
CGA:  11    -0.354244736457E+03   -0.81066E-05   -0.82288E-05 10962   0.149E-04 0.334E-05
  29 F= -.35424474E+03 E0= -.35424474E+03  d E =-.682321E-02  mag=     8.0000
       N       E                     dE             d eps       ncg     rms          ort
SDA:   1    -0.353900911636E+03    0.34382E+00    0.00000E+00 10962   0.806E+00 0.000E+00
CGA:   2    -0.354182644680E+03   -0.28173E+00   -0.28170E+00 10962   0.317E+00 0.289E-03
CGA:   3    -0.354230034963E+03   -0.47390E-01   -0.47376E-01 10962   0.928E-01-0.225E-03
CGA:   4    -0.354242940991E+03   -0.12906E-01   -0.12870E-01 10962   0.205E-01-0.312E-03
CGA:   5    -0.354246491474E+03   -0.35505E-02   -0.35322E-02 10962   0.639E-02-0.231E-03
CGA:   6    -0.354247598362E+03   -0.11069E-02   -0.11089E-02 10962   0.178E-02 0.262E-04
CGA:   7    -0.354247948546E+03   -0.35018E-03   -0.35151E-03 10962   0.616E-03 0.269E-04
CGA:   8    -0.354248110121E+03   -0.16158E-03   -0.16174E-03 10962   0.296E-03-0.101E-04
CGA:   9    -0.354248184325E+03   -0.74204E-04   -0.74028E-04 10962   0.128E-03 0.169E-04
CGA:  10    -0.354248229593E+03   -0.45268E-04   -0.50083E-04 10962   0.835E-04-0.382E-04
CGA:  11    -0.354248242969E+03   -0.13376E-04   -0.13317E-04 10962   0.297E-04-0.253E-05
CGA:  12    -0.354248249923E+03   -0.69541E-05   -0.69526E-05 10962   0.124E-04-0.221E-06
  30 F= -.35424825E+03 E0= -.35424825E+03  d E =-.351347E-02  mag=     8.0000
       N       E                     dE             d eps       ncg     rms          ort
SDA:   1    -0.342070232049E+03    0.12178E+02    0.00000E+00 10962   0.284E+02 0.000E+00
CGA:   2    -0.352045373355E+03   -0.99751E+01   -0.99776E+01 10962   0.104E+02-0.246E-01
CGA:   3    -0.353653717110E+03   -0.16083E+01   -0.16101E+01 10962   0.313E+01 0.268E-02
CGA:   4    -0.354080394566E+03   -0.42668E+00   -0.42653E+00 10962   0.688E+00-0.226E-02
CGA:   5    -0.354203899512E+03   -0.12350E+00   -0.12327E+00 10962   0.220E+00-0.348E-02
CGA:   6    -0.354243000475E+03   -0.39101E-01   -0.39138E-01 10962   0.647E-01 0.476E-03
CGA:   7    -0.354256456423E+03   -0.13456E-01   -0.13444E-01 10962   0.256E-01-0.390E-03
CGA:   8    -0.354263237640E+03   -0.67812E-02   -0.68074E-02 10962   0.124E-01-0.866E-03
CGA:   9    -0.354266421042E+03   -0.31834E-02   -0.31830E-02 10962   0.551E-02 0.149E-04
CGA:  10    -0.354268072694E+03   -0.16517E-02   -0.17136E-02 10962   0.234E-02-0.882E-03
CGA:  11    -0.354268551094E+03   -0.47840E-03   -0.47840E-03 10962   0.702E-03-0.720E-06
CGA:  12    -0.354268763222E+03   -0.21213E-03   -0.21496E-03 10962   0.310E-03-0.456E-04
CGA:  13    -0.354268870025E+03   -0.10680E-03   -0.10727E-03 10962   0.211E-03-0.404E-05
CGA:  14    -0.354268929900E+03   -0.59876E-04   -0.58072E-04 10962   0.108E-03 0.696E-04
CGA:  15    -0.354268993308E+03   -0.63407E-04   -0.68005E-04 10962   0.113E-03-0.213E-04
CGA:  16    -0.354269019257E+03   -0.25949E-04   -0.25723E-04 10962   0.784E-04 0.127E-04
CGA:  17    -0.354269041440E+03   -0.22183E-04   -0.22295E-04 10962   0.411E-04 0.103E-04
CGA:  18    -0.354268974043E+03    0.67397E-04   -0.57769E-04 10962   0.395E-03-0.129E-03
CGA:  19    -0.354269068370E+03   -0.94327E-04   -0.99330E-04 10962   0.399E-04 0.791E-04
CGA:  20    -0.354269116242E+03   -0.47872E-04    0.12348E-04 10962   0.144E-04-0.215E-05
CGA:  21    -0.354269113241E+03    0.30009E-05   -0.37670E-06 10962   0.114E-04 0.119E-04
  31 F= -.35426911E+03 E0= -.35426911E+03  d E =-.208633E-01  mag=     8.0000
       N       E                     dE             d eps       ncg     rms          ort
SDA:   1    -0.345838603228E+03    0.84305E+01    0.00000E+00 10962   0.219E+02 0.000E+00
CGA:   2    -0.350586117638E+03   -0.47475E+01   -0.47519E+01 10962   0.132E+02 0.183E-01
CGA:   3    -0.352750652917E+03   -0.21645E+01   -0.21641E+01 10962   0.470E+01 0.715E-02
CGA:   4    -0.353449398044E+03   -0.69875E+00   -0.69878E+00 10962   0.113E+01 0.902E-03
CGA:   5    -0.353638809666E+03   -0.18941E+00   -0.18974E+00 10962   0.334E+00 0.236E-02
CGA:   6    -0.353701210539E+03   -0.62401E-01   -0.62499E-01 10962   0.114E+00 0.117E-02
CGA:   7    -0.353725076570E+03   -0.23866E-01   -0.23888E-01 10962   0.441E-01 0.410E-03
CGA:   8    -0.353735892372E+03   -0.10816E-01   -0.10826E-01 10962   0.181E-01 0.831E-03
CGA:   9    -0.353740449318E+03   -0.45569E-02   -0.45566E-02 10962   0.686E-02-0.419E-04
CGA:  10    -0.353742261204E+03   -0.18119E-02   -0.18118E-02 10962   0.223E-02 0.127E-04
CGA:  11    -0.353742814951E+03   -0.55375E-03   -0.55455E-03 10962   0.660E-03 0.104E-03
CGA:  12    -0.353743022241E+03   -0.20729E-03   -0.20955E-03 10962   0.243E-03-0.476E-04
CGA:  13    -0.353743072394E+03   -0.50152E-04   -0.51680E-04 10962   0.834E-04 0.528E-04
CGA:  14    -0.353743080289E+03   -0.78954E-05   -0.76071E-04 10962   0.336E-03-0.138E-03
CGA:  15    -0.353743121617E+03   -0.41328E-04   -0.53761E-04 10962   0.492E-04 0.102E-03
CGA:  16    -0.353743140816E+03   -0.19199E-04   -0.19756E-04 10962   0.231E-04-0.172E-04
CGA:  17    -0.353743140382E+03    0.43380E-06   -0.14234E-05 10962   0.164E-04 0.102E-04
  32 F= -.35374314E+03 E0= -.35374314E+03  d E =0.525973E+00  mag=     8.0000
       N       E                     dE             d eps       ncg     rms          ort
SDA:   1    -0.352477016161E+03    0.12661E+01    0.00000E+00 10962   0.402E+01 0.000E+00
CGA:   2    -0.353789020365E+03   -0.13120E+01   -0.13128E+01 10962   0.137E+01-0.102E-01
CGA:   3    -0.354071834346E+03   -0.28281E+00   -0.28278E+00 10962   0.551E+00-0.723E-03
CGA:   4    -0.354144985033E+03   -0.73151E-01   -0.73153E-01 10962   0.134E+00-0.335E-03
CGA:   5    -0.354171419689E+03   -0.26435E-01   -0.26425E-01 10962   0.474E-01-0.181E-03
CGA:   6    -0.354180154348E+03   -0.87347E-02   -0.87078E-02 10962   0.185E-01-0.403E-03
CGA:   7    -0.354184673970E+03   -0.45196E-02   -0.45192E-02 10962   0.904E-02-0.592E-03
CGA:   8    -0.354186664986E+03   -0.19910E-02   -0.19847E-02 10962   0.339E-02-0.313E-03
CGA:   9    -0.354187516365E+03   -0.85138E-03   -0.85238E-03 10962   0.127E-02-0.695E-04
CGA:  10    -0.354187810804E+03   -0.29444E-03   -0.29446E-03 10962   0.368E-03 0.142E-05
CGA:  11    -0.354187905514E+03   -0.94710E-04   -0.94627E-04 10962   0.107E-03 0.782E-05
CGA:  12    -0.354187925993E+03   -0.20479E-04   -0.21875E-04 10962   0.325E-04 0.302E-04
CGA:  13    -0.354187931646E+03   -0.56523E-05   -0.70171E-05 10962   0.139E-04 0.179E-04
  33 F= -.35418793E+03 E0= -.35418793E+03  d E =-.444791E+00  mag=     8.0000
       N       E                     dE             d eps       ncg     rms          ort
SDA:   1    -0.353833418361E+03    0.35451E+00    0.00000E+00 10962   0.104E+01 0.000E+00
CGA:   2    -0.354162523470E+03   -0.32911E+00   -0.32919E+00 10962   0.396E+00-0.102E-02
CGA:   3    -0.354234957423E+03   -0.72434E-01   -0.72411E-01 10962   0.169E+00-0.427E-03
CGA:   4    -0.354258703865E+03   -0.23746E-01   -0.23732E-01 10962   0.391E-01-0.205E-03
CGA:   5    -0.354265939230E+03   -0.72354E-02   -0.72358E-02 10962   0.138E-01 0.219E-06
CGA:   6    -0.354268531123E+03   -0.25919E-02   -0.25857E-02 10962   0.517E-02-0.141E-03
CGA:   7    -0.354269763713E+03   -0.12326E-02   -0.12354E-02 10962   0.265E-02-0.235E-03
CGA:   8    -0.354270356907E+03   -0.59319E-03   -0.59378E-03 10962   0.985E-03-0.134E-03
CGA:   9    -0.354270598931E+03   -0.24202E-03   -0.24310E-03 10962   0.392E-03-0.368E-04
CGA:  10    -0.354270687257E+03   -0.88326E-04   -0.88315E-04 10962   0.108E-03 0.675E-05
CGA:  11    -0.354270714137E+03   -0.26880E-04   -0.26776E-04 10962   0.319E-04 0.960E-05
CGA:  12    -0.354270720842E+03   -0.67052E-05   -0.70085E-05 10962   0.105E-04 0.987E-05
  34 F= -.35427072E+03 E0= -.35427072E+03  d E =-.827892E-01  mag=     8.0000
       N       E                     dE             d eps       ncg     rms          ort
SDA:   1    -0.354091428399E+03    0.17929E+00    0.00000E+00 10962   0.468E+00 0.000E+00
CGA:   2    -0.354225255353E+03   -0.13383E+00   -0.13383E+00 10962   0.239E+00-0.846E-04
CGA:   3    -0.354262215435E+03   -0.36960E-01   -0.36954E-01 10962   0.866E-01-0.124E-03
CGA:   4    -0.354275573893E+03   -0.13358E-01   -0.13351E-01 10962   0.227E-01-0.128E-03
CGA:   5    -0.354279415852E+03   -0.38420E-02   -0.38422E-02 10962   0.701E-02-0.273E-05
CGA:   6    -0.354280742456E+03   -0.13266E-02   -0.13253E-02 10962   0.260E-02-0.456E-04
CGA:   7    -0.354281325142E+03   -0.58269E-03   -0.58333E-03 10962   0.122E-02-0.780E-04
CGA:   8    -0.354281615994E+03   -0.29085E-03   -0.29197E-03 10962   0.476E-03-0.392E-04
CGA:   9    -0.354281730325E+03   -0.11433E-03   -0.11471E-03 10962   0.187E-03-0.129E-04
CGA:  10    -0.354281776523E+03   -0.46198E-04   -0.46251E-04 10962   0.548E-04-0.166E-05
CGA:  11    -0.354281789473E+03   -0.12949E-04   -0.12884E-04 10962   0.157E-04 0.458E-05
CGA:  12    -0.354281794112E+03   -0.46395E-05   -0.46020E-05 10962   0.533E-05 0.787E-06
  35 F= -.35428179E+03 E0= -.35428179E+03  d E =-.110733E-01  mag=     8.0000
       N       E                     dE             d eps       ncg     rms          ort
SDA:   1    -0.354241370187E+03    0.40419E-01    0.00000E+00 10962   0.129E+00 0.000E+00
CGA:   2    -0.354266273815E+03   -0.24904E-01   -0.24899E-01 10962   0.720E-01-0.200E-03
CGA:   3    -0.354278488774E+03   -0.12215E-01   -0.12216E-01 10962   0.274E-01 0.104E-04
CGA:   4    -0.354282558083E+03   -0.40693E-02   -0.40773E-02 10962   0.675E-02 0.109E-03
CGA:   5    -0.354283664396E+03   -0.11063E-02   -0.11101E-02 10962   0.187E-02 0.736E-04
CGA:   6    -0.354284001469E+03   -0.33707E-03   -0.33759E-03 10962   0.607E-03 0.150E-04
CGA:   7    -0.354284127260E+03   -0.12579E-03   -0.12586E-03 10962   0.228E-03 0.164E-04
CGA:   8    -0.354284174954E+03   -0.47694E-04   -0.47878E-04 10962   0.812E-04 0.384E-04
CGA:   9    -0.354284193920E+03   -0.18966E-04   -0.19148E-04 10962   0.295E-04 0.243E-04
CGA:  10    -0.354284203351E+03   -0.94303E-05   -0.92156E-05 10962   0.126E-04 0.673E-05
  36 F= -.35428420E+03 E0= -.35428420E+03  d E =-.240924E-02  mag=     8.0000
       N       E                     dE             d eps       ncg     rms          ort
SDA:   1    -0.354261733313E+03    0.22461E-01    0.00000E+00 10962   0.792E-01 0.000E+00
CGA:   2    -0.354278016995E+03   -0.16284E-01   -0.16282E-01 10962   0.455E-01-0.232E-03
CGA:   3    -0.354285548230E+03   -0.75312E-02   -0.75377E-02 10962   0.168E-01 0.130E-03
CGA:   4    -0.354288032867E+03   -0.24846E-02   -0.24970E-02 10962   0.399E-02 0.192E-03
CGA:   5    -0.354288684210E+03   -0.65134E-03   -0.65462E-03 10962   0.110E-02 0.709E-04
CGA:   6    -0.354288891839E+03   -0.20763E-03   -0.20816E-03 10962   0.364E-03 0.269E-04
CGA:   7    -0.354288961412E+03   -0.69574E-04   -0.70212E-04 10962   0.123E-03 0.400E-04
CGA:   8    -0.354288984771E+03   -0.23358E-04   -0.24428E-04 10962   0.460E-04 0.432E-04
CGA:   9    -0.354288993165E+03   -0.83944E-05   -0.96461E-05 10962   0.200E-04 0.265E-04
  37 F= -.35428899E+03 E0= -.35428899E+03  d E =-.478981E-02  mag=     8.0000
       N       E                     dE             d eps       ncg     rms          ort
SDA:   1    -0.354280946443E+03    0.80383E-02    0.00000E+00 10962   0.298E-01 0.000E+00
CGA:   2    -0.354286510386E+03   -0.55639E-02   -0.55607E-02 10962   0.162E-01-0.203E-03
CGA:   3    -0.354289295869E+03   -0.27855E-02   -0.27872E-02 10962   0.648E-02 0.517E-04
CGA:   4    -0.354290230983E+03   -0.93511E-03   -0.94289E-03 10962   0.151E-02 0.135E-03
CGA:   5    -0.354290461617E+03   -0.23063E-03   -0.23354E-03 10962   0.403E-03 0.615E-04
CGA:   6    -0.354290537119E+03   -0.75502E-04   -0.75807E-04 10962   0.133E-03 0.191E-04
CGA:   7    -0.354290562828E+03   -0.25709E-04   -0.25881E-04 10962   0.436E-04 0.179E-04
CGA:   8    -0.354290570272E+03   -0.74438E-05   -0.80471E-05 10962   0.170E-04 0.184E-04
  38 F= -.35429057E+03 E0= -.35429057E+03  d E =-.157711E-02  mag=     8.0000
       N       E                     dE             d eps       ncg     rms          ort
SDA:   1    -0.354278990816E+03    0.11572E-01    0.00000E+00 10962   0.450E-01 0.000E+00
CGA:   2    -0.354286470244E+03   -0.74794E-02   -0.74729E-02 10962   0.218E-01-0.291E-03
CGA:   3    -0.354290435689E+03   -0.39654E-02   -0.39653E-02 10962   0.985E-02-0.329E-04
CGA:   4    -0.354291860496E+03   -0.14248E-02   -0.14316E-02 10962   0.205E-02 0.155E-03
CGA:   5    -0.354292169585E+03   -0.30909E-03   -0.31267E-03 10962   0.500E-03 0.972E-04
CGA:   6    -0.354292262533E+03   -0.92948E-04   -0.93142E-04 10962   0.158E-03 0.282E-04
CGA:   7    -0.354292295695E+03   -0.33162E-04   -0.33050E-04 10962   0.511E-04 0.860E-05
CGA:   8    -0.354292305921E+03   -0.10226E-04   -0.10183E-04 10962   0.180E-04 0.114E-04
CGA:   9    -0.354292309135E+03   -0.32145E-05   -0.34813E-05 10962   0.771E-05 0.990E-05
  39 F= -.35429231E+03 E0= -.35429231E+03  d E =-.173886E-02  mag=     8.0000
       N       E                     dE             d eps       ncg     rms          ort
SDA:   1    -0.354239862523E+03    0.52443E-01    0.00000E+00 10962   0.179E+00 0.000E+00
CGA:   2    -0.354271782293E+03   -0.31920E-01   -0.31916E-01 10962   0.947E-01-0.727E-03
CGA:   3    -0.354288531199E+03   -0.16749E-01   -0.16747E-01 10962   0.388E-01-0.237E-03
CGA:   4    -0.354294052029E+03   -0.55208E-02   -0.55333E-02 10962   0.787E-02 0.290E-03
CGA:   5    -0.354295239976E+03   -0.11879E-02   -0.11955E-02 10962   0.198E-02 0.236E-03
CGA:   6    -0.354295606413E+03   -0.36644E-03   -0.36649E-03 10962   0.626E-03 0.548E-04
CGA:   7    -0.354295740043E+03   -0.13363E-03   -0.13445E-03 10962   0.219E-03-0.296E-04
CGA:   8    -0.354295790516E+03   -0.50473E-04   -0.52046E-04 10962   0.105E-03-0.234E-04
CGA:   9    -0.354295813374E+03   -0.22858E-04   -0.22769E-04 10962   0.408E-04 0.153E-05
CGA:  10    -0.354295823282E+03   -0.99081E-05   -0.96308E-05 10962   0.137E-04 0.626E-05
  40 F= -.35429582E+03 E0= -.35429582E+03  d E =-.351415E-02  mag=     8.0000
       N       E                     dE             d eps       ncg     rms          ort
SDA:   1    -0.354105398628E+03    0.19041E+00    0.00000E+00 10962   0.576E+00 0.000E+00
CGA:   2    -0.354220048190E+03   -0.11465E+00   -0.11465E+00 10962   0.343E+00-0.985E-03
CGA:   3    -0.354277791950E+03   -0.57744E-01   -0.57734E-01 10962   0.122E+00-0.462E-03
CGA:   4    -0.354294747485E+03   -0.16956E-01   -0.16977E-01 10962   0.238E-01 0.385E-03
CGA:   5    -0.354298478563E+03   -0.37311E-02   -0.37420E-02 10962   0.621E-02 0.333E-03
CGA:   6    -0.354299624610E+03   -0.11460E-02   -0.11463E-02 10962   0.195E-02 0.467E-04
CGA:   7    -0.354300020535E+03   -0.39593E-03   -0.39714E-03 10962   0.640E-03-0.820E-04
CGA:   8    -0.354300174496E+03   -0.15396E-03   -0.16083E-03 10962   0.333E-03-0.928E-04
CGA:   9    -0.354300247333E+03   -0.72836E-04   -0.75313E-04 10962   0.151E-03-0.340E-04
CGA:  10    -0.354300281617E+03   -0.34284E-04   -0.34127E-04 10962   0.515E-04 0.277E-05
CGA:  11    -0.354300294425E+03   -0.12809E-04   -0.12551E-04 10962   0.164E-04 0.625E-05
CGA:  12    -0.354300299922E+03   -0.54963E-05   -0.54272E-05 10962   0.781E-05 0.722E-06
  41 F= -.35430030E+03 E0= -.35430030E+03  d E =-.447664E-02  mag=     8.0000
       N       E                     dE             d eps       ncg     rms          ort
SDA:   1    -0.353617268885E+03    0.68303E+00    0.00000E+00 10962   0.175E+01 0.000E+00
CGA:   2    -0.354092317460E+03   -0.47505E+00   -0.47512E+00 10962   0.108E+01-0.170E-02
CGA:   3    -0.354248715059E+03   -0.15640E+00   -0.15640E+00 10962   0.293E+00-0.152E-03
CGA:   4    -0.354290056261E+03   -0.41341E-01   -0.41375E-01 10962   0.628E-01 0.426E-03
CGA:   5    -0.354300306459E+03   -0.10250E-01   -0.10257E-01 10962   0.175E-01 0.148E-03
CGA:   6    -0.354303481552E+03   -0.31751E-02   -0.31728E-02 10962   0.528E-02-0.101E-03
CGA:   7    -0.354304530054E+03   -0.10485E-02   -0.10480E-02 10962   0.180E-02-0.155E-03
CGA:   8    -0.354304976658E+03   -0.44660E-03   -0.45575E-03 10962   0.893E-03-0.158E-03
CGA:   9    -0.354305196537E+03   -0.21988E-03   -0.22497E-03 10962   0.429E-03-0.721E-04
CGA:  10    -0.354305308902E+03   -0.11236E-03   -0.11618E-03 10962   0.177E-03-0.448E-04
CGA:  11    -0.354305352488E+03   -0.43586E-04   -0.44521E-04 10962   0.621E-04-0.140E-04
CGA:  12    -0.354305368567E+03   -0.16078E-04   -0.15871E-04 10962   0.231E-04 0.338E-05
CGA:  13    -0.354305375228E+03   -0.66612E-05   -0.63493E-05 10962   0.111E-04 0.765E-05
  42 F= -.35430538E+03 E0= -.35430538E+03  d E =-.507531E-02  mag=     8.0000
       N       E                     dE             d eps       ncg     rms          ort
SDA:   1    -0.354147101912E+03    0.15827E+00    0.00000E+00 10962   0.532E+00 0.000E+00
CGA:   2    -0.354233037348E+03   -0.85935E-01   -0.86042E-01 10962   0.261E+00 0.142E-02
CGA:   3    -0.354282416150E+03   -0.49379E-01   -0.49386E-01 10962   0.123E+00 0.156E-03
CGA:   4    -0.354300279058E+03   -0.17863E-01   -0.17842E-01 10962   0.236E-01-0.334E-03
CGA:   5    -0.354303880601E+03   -0.36015E-02   -0.35951E-02 10962   0.596E-02-0.115E-03
CGA:   6    -0.354304964089E+03   -0.10835E-02   -0.10815E-02 10962   0.197E-02-0.731E-04
CGA:   7    -0.354305335321E+03   -0.37123E-03   -0.37162E-03 10962   0.552E-03 0.203E-04
CGA:   8    -0.354305441035E+03   -0.10571E-03   -0.10686E-03 10962   0.170E-03 0.685E-04
CGA:   9    -0.354305489611E+03   -0.48576E-04   -0.48162E-04 10962   0.731E-04 0.927E-05
CGA:  10    -0.354305512088E+03   -0.22477E-04   -0.22933E-04 10962   0.380E-04-0.522E-05
CGA:  11    -0.354305520711E+03   -0.86232E-05   -0.85324E-05 10962   0.139E-04 0.327E-05
  43 F= -.35430552E+03 E0= -.35430552E+03  d E =-.145483E-03  mag=     8.0000
       N       E                     dE             d eps       ncg     rms          ort
SDA:   1    -0.354248634063E+03    0.56878E-01    0.00000E+00 10962   0.207E+00 0.000E+00
CGA:   2    -0.354278543488E+03   -0.29909E-01   -0.29993E-01 10962   0.810E-01 0.945E-03
CGA:   3    -0.354294109378E+03   -0.15566E-01   -0.15573E-01 10962   0.447E-01 0.222E-03
CGA:   4    -0.354301276533E+03   -0.71672E-02   -0.71500E-02 10962   0.102E-01-0.317E-03
CGA:   5    -0.354302822001E+03   -0.15455E-02   -0.15352E-02 10962   0.243E-02-0.167E-03
CGA:   6    -0.354303246953E+03   -0.42495E-03   -0.42329E-03 10962   0.790E-03-0.494E-04
CGA:   7    -0.354303394392E+03   -0.14744E-03   -0.14773E-03 10962   0.226E-03 0.154E-04
CGA:   8    -0.354303437397E+03   -0.43005E-04   -0.43647E-04 10962   0.701E-04 0.340E-04
CGA:   9    -0.354303458412E+03   -0.21015E-04   -0.20846E-04 10962   0.327E-04 0.327E-05
CGA:  10    -0.354303469183E+03   -0.10771E-04   -0.12033E-04 10962   0.247E-04-0.894E-05
CGA:  11    -0.354303472226E+03   -0.30436E-05   -0.31790E-05 10962   0.101E-04 0.338E-05
  44 F= -.35430347E+03 E0= -.35430347E+03  d E =0.204848E-02  mag=     8.0000
       N       E                     dE             d eps       ncg     rms          ort
SDA:   1    -0.354146893750E+03    0.15658E+00    0.00000E+00 10962   0.371E+00 0.000E+00
CGA:   2    -0.354272073382E+03   -0.12518E+00   -0.12517E+00 10962   0.163E+00 0.348E-04
CGA:   3    -0.354295386660E+03   -0.23313E-01   -0.23319E-01 10962   0.461E-01 0.389E-04
CGA:   4    -0.354302016813E+03   -0.66302E-02   -0.66244E-02 10962   0.101E-01-0.903E-04
CGA:   5    -0.354303725918E+03   -0.17091E-02   -0.17039E-02 10962   0.312E-02-0.124E-03
CGA:   6    -0.354304269029E+03   -0.54311E-03   -0.54231E-03 10962   0.878E-03-0.249E-04
CGA:   7    -0.354304440824E+03   -0.17179E-03   -0.17165E-03 10962   0.307E-03-0.137E-04
CGA:   8    -0.354304524115E+03   -0.83292E-04   -0.89414E-04 10962   0.200E-03-0.692E-04
CGA:   9    -0.354304564613E+03   -0.40497E-04   -0.42073E-04 10962   0.976E-04-0.264E-04
CGA:  10    -0.354304588801E+03   -0.24188E-04   -0.26272E-04 10962   0.444E-04-0.218E-04
CGA:  11    -0.354304597569E+03   -0.87684E-05   -0.89112E-05 10962   0.156E-04-0.367E-05
  45 F= -.35430460E+03 E0= -.35430460E+03  d E =-.112534E-02  mag=     8.0000
       N       E                     dE             d eps       ncg     rms          ort
SDA:   1    -0.338753381767E+03    0.15551E+02    0.00000E+00 10962   0.449E+02 0.000E+00
CGA:   2    -0.347739707607E+03   -0.89863E+01   -0.89935E+01 10962   0.268E+02 0.179E+00
CGA:   3    -0.352361382699E+03   -0.46217E+01   -0.46213E+01 10962   0.927E+01 0.259E-02
CGA:   4    -0.353654657872E+03   -0.12933E+01   -0.12926E+01 10962   0.185E+01-0.224E-02
CGA:   5    -0.353952432048E+03   -0.29777E+00   -0.29819E+00 10962   0.529E+00 0.551E-02
CGA:   6    -0.354048619591E+03   -0.96188E-01   -0.96278E-01 10962   0.171E+00 0.304E-02
CGA:   7    -0.354081547192E+03   -0.32928E-01   -0.32946E-01 10962   0.521E-01 0.110E-02
CGA:   8    -0.354093476613E+03   -0.11929E-01   -0.11894E-01 10962   0.208E-01 0.174E-02
CGA:   9    -0.354099162497E+03   -0.56859E-02   -0.56889E-02 10962   0.891E-02-0.560E-04
CGA:  10    -0.354101583699E+03   -0.24212E-02   -0.24192E-02 10962   0.346E-02 0.320E-04
CGA:  11    -0.354102450014E+03   -0.86631E-03   -0.85521E-03 10962   0.108E-02 0.344E-03
CGA:  12    -0.354102809425E+03   -0.35941E-03   -0.35919E-03 10962   0.473E-03 0.225E-05
CGA:  13    -0.354102926730E+03   -0.11730E-03   -0.11427E-03 10962   0.216E-03 0.143E-03
CGA:  14    -0.354103040863E+03   -0.11413E-03   -0.11551E-03 10962   0.216E-03-0.754E-05
CGA:  15    -0.354103125291E+03   -0.84429E-04   -0.84592E-04 10962   0.208E-03-0.133E-05
CGA:  16    -0.354103163117E+03   -0.37826E-04   -0.41284E-04 10962   0.123E-03 0.885E-04
CGA:  17    -0.354103192850E+03   -0.29733E-04   -0.32985E-04 10962   0.535E-04 0.664E-04
CGA:  18    -0.354103219616E+03   -0.26766E-04    0.94585E-04 10962   0.238E-04 0.288E-04
CGA:  19    -0.354103219863E+03   -0.24770E-06   -0.27325E-05 10962   0.193E-04 0.207E-04
CGA:  20    -0.354103229078E+03   -0.92148E-05    0.51967E-04 10962   0.138E-04 0.157E-04
CGA:  21    -0.354103243156E+03   -0.14077E-04   -0.10138E-04 10962   0.743E-05 0.770E-05
CGA:  22    -0.354103255689E+03   -0.12534E-04    0.40704E-06 10962   0.711E-05 0.552E-05
CGA:  23    -0.354103254392E+03    0.12976E-05   -0.20512E-06 10962   0.638E-05 0.667E-05
  46 F= -.35410325E+03 E0= -.35410325E+03  d E =0.201343E+00  mag=     8.0000
       N       E                     dE             d eps       ncg     rms          ort
SDA:   1    -0.352263357379E+03    0.18399E+01    0.00000E+00 10962   0.495E+01 0.000E+00
CGA:   2    -0.353713092642E+03   -0.14497E+01   -0.14504E+01 10962   0.233E+01-0.112E-01
CGA:   3    -0.354086641400E+03   -0.37355E+00   -0.37364E+00 10962   0.894E+00 0.796E-03
CGA:   4    -0.354219594503E+03   -0.13295E+00   -0.13313E+00 10962   0.214E+00 0.173E-02
CGA:   5    -0.354257445360E+03   -0.37851E-01   -0.37854E-01 10962   0.704E-01 0.172E-04
CGA:   6    -0.354270877976E+03   -0.13433E-01   -0.13419E-01 10962   0.250E-01-0.391E-03
CGA:   7    -0.354276446270E+03   -0.55683E-02   -0.55684E-02 10962   0.119E-01-0.557E-03
CGA:   8    -0.354279321948E+03   -0.28757E-02   -0.28898E-02 10962   0.470E-02-0.568E-03
CGA:   9    -0.354280440785E+03   -0.11188E-02   -0.11221E-02 10962   0.186E-02-0.126E-03
CGA:  10    -0.354280892223E+03   -0.45144E-03   -0.45172E-03 10962   0.532E-03-0.118E-04
CGA:  11    -0.354281034625E+03   -0.14240E-03   -0.14315E-03 10962   0.176E-03-0.172E-04
CGA:  12    -0.354281074540E+03   -0.39915E-04   -0.39811E-04 10962   0.505E-04 0.238E-04
CGA:  13    -0.354281088781E+03   -0.14241E-04   -0.14060E-04 10962   0.190E-04 0.113E-04
CGA:  14    -0.354281091990E+03   -0.32088E-05   -0.39398E-05 10962   0.939E-05 0.119E-04
  47 F= -.35428109E+03 E0= -.35428109E+03  d E =-.177838E+00  mag=     8.0000
       N       E                     dE             d eps       ncg     rms          ort
SDA:   1    -0.354257245546E+03    0.23843E-01    0.00000E+00 10962   0.979E-01 0.000E+00
CGA:   2    -0.354277634728E+03   -0.20389E-01   -0.20384E-01 10962   0.580E-01-0.363E-03
CGA:   3    -0.354287306476E+03   -0.96717E-02   -0.96649E-02 10962   0.220E-01-0.131E-03
CGA:   4    -0.354290547904E+03   -0.32414E-02   -0.32559E-02 10962   0.513E-02 0.190E-03
CGA:   5    -0.354291393303E+03   -0.84540E-03   -0.84993E-03 10962   0.149E-02 0.828E-04
CGA:   6    -0.354291688788E+03   -0.29548E-03   -0.29441E-03 10962   0.557E-03-0.529E-04
CGA:   7    -0.354291801156E+03   -0.11237E-03   -0.11221E-03 10962   0.221E-03-0.305E-04
CGA:   8    -0.354291848014E+03   -0.46858E-04   -0.46766E-04 10962   0.799E-04 0.975E-05
CGA:   9    -0.354291868958E+03   -0.20944E-04   -0.21070E-04 10962   0.320E-04-0.334E-05
CGA:  10    -0.354291874846E+03   -0.58883E-05   -0.60386E-05 10962   0.966E-05 0.762E-05
  48 F= -.35429187E+03 E0= -.35429187E+03  d E =-.107829E-01  mag=     8.0000
       N       E                     dE             d eps       ncg     rms          ort
SDA:   1    -0.354214792230E+03    0.77077E-01    0.00000E+00 10962   0.307E+00 0.000E+00
CGA:   2    -0.354263751743E+03   -0.48960E-01   -0.48933E-01 10962   0.142E+00-0.633E-03
CGA:   3    -0.354290223196E+03   -0.26471E-01   -0.26454E-01 10962   0.683E-01-0.687E-03
CGA:   4    -0.354300405003E+03   -0.10182E-01   -0.10201E-01 10962   0.147E-01 0.278E-03
CGA:   5    -0.354302634004E+03   -0.22290E-02   -0.22483E-02 10962   0.363E-02 0.334E-03
CGA:   6    -0.354303308024E+03   -0.67402E-03   -0.67446E-03 10962   0.119E-02 0.162E-04
CGA:   7    -0.354303555171E+03   -0.24715E-03   -0.24729E-03 10962   0.405E-03-0.682E-04
CGA:   8    -0.354303643341E+03   -0.88170E-04   -0.88922E-04 10962   0.167E-03-0.273E-04
CGA:   9    -0.354303686581E+03   -0.43240E-04   -0.47257E-04 10962   0.938E-04-0.414E-04
CGA:  10    -0.354303699579E+03   -0.12998E-04   -0.13258E-04 10962   0.298E-04 0.110E-04
CGA:  11    -0.354303704910E+03   -0.53304E-05   -0.56782E-05 10962   0.106E-04 0.867E-05
  49 F= -.35430370E+03 E0= -.35430370E+03  d E =-.118301E-01  mag=     8.0000
       N       E                     dE             d eps       ncg     rms          ort
SDA:   1    -0.354254354444E+03    0.49345E-01    0.00000E+00 10962   0.199E+00 0.000E+00
CGA:   2    -0.354286140117E+03   -0.31786E-01   -0.31757E-01 10962   0.915E-01-0.687E-03
CGA:   3    -0.354303046859E+03   -0.16907E-01   -0.16895E-01 10962   0.431E-01-0.591E-03
CGA:   4    -0.354309434792E+03   -0.63879E-02   -0.64028E-02 10962   0.932E-02 0.254E-03
CGA:   5    -0.354310840018E+03   -0.14052E-02   -0.14197E-02 10962   0.230E-02 0.283E-03
CGA:   6    -0.354311263480E+03   -0.42346E-03   -0.42418E-03 10962   0.740E-03 0.338E-04
CGA:   7    -0.354311420407E+03   -0.15693E-03   -0.15752E-03 10962   0.260E-03-0.526E-04
CGA:   8    -0.354311478642E+03   -0.58236E-04   -0.60026E-04 10962   0.124E-03-0.363E-04
CGA:   9    -0.354311507944E+03   -0.29302E-04   -0.35044E-04 10962   0.857E-04-0.449E-04
CGA:  10    -0.354311517579E+03   -0.96348E-05   -0.98011E-05 10962   0.300E-04 0.583E-05
  50 F= -.35431152E+03 E0= -.35431152E+03  d E =-.781267E-02  mag=     8.0000
       N       E                     dE             d eps       ncg     rms          ort
SDA:   1    -0.353877232978E+03    0.43427E+00    0.00000E+00 10962   0.165E+01 0.000E+00
CGA:   2    -0.354126116819E+03   -0.24888E+00   -0.24896E+00 10962   0.696E+00-0.700E-04
CGA:   3    -0.354257583217E+03   -0.13147E+00   -0.13144E+00 10962   0.350E+00-0.225E-02
CGA:   4    -0.354311211128E+03   -0.53628E-01   -0.53638E-01 10962   0.778E-01 0.121E-03
CGA:   5    -0.354322878239E+03   -0.11667E-01   -0.11718E-01 10962   0.190E-01 0.103E-02
CGA:   6    -0.354326279064E+03   -0.34008E-02   -0.34057E-02 10962   0.591E-02 0.253E-03
CGA:   7    -0.354327458365E+03   -0.11793E-02   -0.11794E-02 10962   0.180E-02-0.605E-04
CGA:   8    -0.354327842166E+03   -0.38380E-03   -0.38313E-03 10962   0.645E-03 0.325E-04
CGA:   9    -0.354328022013E+03   -0.17985E-03   -0.18484E-03 10962   0.310E-03-0.586E-04
CGA:  10    -0.354328090688E+03   -0.68674E-04   -0.68005E-04 10962   0.108E-03 0.163E-04
CGA:  11    -0.354328116603E+03   -0.25915E-04   -0.25418E-04 10962   0.343E-04 0.224E-04
CGA:  12    -0.354328128232E+03   -0.11630E-04   -0.11323E-04 10962   0.160E-04 0.439E-05
CGA:  13    -0.354328130186E+03   -0.19539E-05   -0.26149E-05 10962   0.865E-05 0.106E-04
  51 F= -.35432813E+03 E0= -.35432813E+03  d E =-.166126E-01  mag=     8.0000
       N       E                     dE             d eps       ncg     rms          ort
SDA:   1    -0.353698066800E+03    0.63006E+00    0.00000E+00 10962   0.247E+01 0.000E+00
CGA:   2    -0.354049264132E+03   -0.35120E+00   -0.35153E+00 10962   0.944E+00 0.190E-02
CGA:   3    -0.354231899104E+03   -0.18263E+00   -0.18262E+00 10962   0.524E+00-0.243E-02
CGA:   4    -0.354314335287E+03   -0.82436E-01   -0.82424E-01 10962   0.117E+00-0.446E-03
CGA:   5    -0.354331563427E+03   -0.17228E-01   -0.17296E-01 10962   0.270E-01 0.130E-02
CGA:   6    -0.354336322774E+03   -0.47593E-02   -0.47687E-02 10962   0.843E-02 0.425E-03
CGA:   7    -0.354337988904E+03   -0.16661E-02   -0.16661E-02 10962   0.240E-02 0.522E-04
CGA:   8    -0.354338472258E+03   -0.48335E-03   -0.48254E-03 10962   0.760E-03 0.173E-03
CGA:   9    -0.354338679946E+03   -0.20769E-03   -0.20624E-03 10962   0.310E-03 0.245E-04
CGA:  10    -0.354338760523E+03   -0.80577E-04   -0.78923E-04 10962   0.113E-03 0.337E-04
CGA:  11    -0.354338784668E+03   -0.24145E-04   -0.24412E-04 10962   0.380E-04 0.424E-04
CGA:  12    -0.354338795758E+03   -0.11091E-04   -0.10934E-04 10962   0.163E-04 0.167E-04
CGA:  13    -0.354338800249E+03   -0.44904E-05   -0.45589E-05 10962   0.801E-05 0.104E-04
  52 F= -.35433880E+03 E0= -.35433880E+03  d E =-.106701E-01  mag=     8.0000
       N       E                     dE             d eps       ncg     rms          ort
SDA:   1    -0.354090482833E+03    0.24831E+00    0.00000E+00 10962   0.909E+00 0.000E+00
CGA:   2    -0.354229227504E+03   -0.13874E+00   -0.13880E+00 10962   0.391E+00 0.407E-03
CGA:   3    -0.354303232471E+03   -0.74005E-01   -0.73999E-01 10962   0.199E+00-0.130E-02
CGA:   4    -0.354333557997E+03   -0.30326E-01   -0.30320E-01 10962   0.429E-01-0.201E-03
CGA:   5    -0.354340029139E+03   -0.64711E-02   -0.64945E-02 10962   0.102E-01 0.563E-03
CGA:   6    -0.354341834372E+03   -0.18052E-02   -0.18078E-02 10962   0.320E-02 0.170E-03
CGA:   7    -0.354342480828E+03   -0.64646E-03   -0.64639E-03 10962   0.972E-03 0.519E-05
CGA:   8    -0.354342684930E+03   -0.20410E-03   -0.20311E-03 10962   0.332E-03 0.517E-04
CGA:   9    -0.354342775025E+03   -0.90095E-04   -0.89768E-04 10962   0.138E-03 0.485E-05
CGA:  10    -0.354342808833E+03   -0.33808E-04   -0.32966E-04 10962   0.477E-04 0.199E-04
CGA:  11    -0.354342820266E+03   -0.11433E-04   -0.11261E-04 10962   0.162E-04 0.163E-04
CGA:  12    -0.354342825562E+03   -0.52957E-05   -0.50777E-05 10962   0.728E-05 0.591E-05
  53 F= -.35434283E+03 E0= -.35434283E+03  d E =-.402531E-02  mag=     8.0000
       N       E                     dE             d eps       ncg     rms          ort
SDA:   1    -0.354312251173E+03    0.30569E-01    0.00000E+00 10962   0.897E-01 0.000E+00
CGA:   2    -0.354330120453E+03   -0.17869E-01   -0.17867E-01 10962   0.526E-01 0.622E-03
CGA:   3    -0.354339184164E+03   -0.90637E-02   -0.90652E-02 10962   0.195E-01 0.442E-04
CGA:   4    -0.354342000003E+03   -0.28158E-02   -0.28076E-02 10962   0.417E-02-0.169E-03
CGA:   5    -0.354342679182E+03   -0.67918E-03   -0.67713E-03 10962   0.119E-02-0.719E-04
CGA:   6    -0.354342891739E+03   -0.21256E-03   -0.21236E-03 10962   0.387E-03-0.194E-04
CGA:   7    -0.354342962042E+03   -0.70303E-04   -0.70409E-04 10962   0.115E-03 0.188E-04
CGA:   8    -0.354342989902E+03   -0.27860E-04   -0.27540E-04 10962   0.453E-04 0.861E-05
CGA:   9    -0.354343003643E+03   -0.13740E-04   -0.14423E-04 10962   0.260E-04-0.659E-05
CGA:  10    -0.354343009018E+03   -0.53759E-05   -0.53664E-05 10962   0.954E-05 0.210E-06
  54 F= -.35434301E+03 E0= -.35434301E+03  d E =-.183456E-03  mag=     8.0000
       N       E                     dE             d eps       ncg     rms          ort
SDA:   1    -0.354315805971E+03    0.27198E-01    0.00000E+00 10962   0.869E-01 0.000E+00
CGA:   2    -0.354330043804E+03   -0.14238E-01   -0.14268E-01 10962   0.409E-01 0.726E-03
CGA:   3    -0.354337606733E+03   -0.75629E-02   -0.75682E-02 10962   0.185E-01 0.277E-03
CGA:   4    -0.354340425633E+03   -0.28189E-02   -0.28097E-02 10962   0.398E-02-0.190E-03
CGA:   5    -0.354341066352E+03   -0.64072E-03   -0.63516E-03 10962   0.109E-02-0.152E-03
CGA:   6    -0.354341259339E+03   -0.19299E-03   -0.19226E-03 10962   0.368E-03-0.545E-04
CGA:   7    -0.354341322234E+03   -0.62895E-04   -0.63077E-04 10962   0.984E-04 0.117E-04
CGA:   8    -0.354341342098E+03   -0.19864E-04   -0.19852E-04 10962   0.333E-04 0.158E-04
CGA:   9    -0.354341351860E+03   -0.97624E-05   -0.95827E-05 10962   0.152E-04 0.337E-05
  55 F= -.35434135E+03 E0= -.35434135E+03  d E =0.165716E-02  mag=     8.0000
       N       E                     dE             d eps       ncg     rms          ort
SDA:   1    -0.354290908098E+03    0.50434E-01    0.00000E+00 10962   0.135E+00 0.000E+00
CGA:   2    -0.354320256022E+03   -0.29348E-01   -0.29330E-01 10962   0.805E-01 0.137E-02
CGA:   3    -0.354333538280E+03   -0.13282E-01   -0.13287E-01 10962   0.278E-01 0.903E-04
CGA:   4    -0.354337503767E+03   -0.39655E-02   -0.39431E-02 10962   0.561E-02-0.378E-03
CGA:   5    -0.354338416114E+03   -0.91235E-03   -0.90440E-03 10962   0.159E-02-0.221E-03
CGA:   6    -0.354338693592E+03   -0.27748E-03   -0.27657E-03 10962   0.521E-03-0.568E-04
CGA:   7    -0.354338782804E+03   -0.89212E-04   -0.89812E-04 10962   0.143E-03 0.327E-04
CGA:   8    -0.354338815882E+03   -0.33078E-04   -0.32671E-04 10962   0.570E-04 0.212E-04
CGA:   9    -0.354338834615E+03   -0.18734E-04   -0.18749E-04 10962   0.343E-04-0.191E-06
CGA:  10    -0.354338844711E+03   -0.10096E-04   -0.10314E-04 10962   0.188E-04-0.218E-05
CGA:  11    -0.354338850048E+03   -0.53370E-05   -0.60898E-05 10962   0.109E-04-0.542E-05
  56 F= -.35433885E+03 E0= -.35433885E+03  d E =0.250181E-02  mag=     8.0000
       N       E                     dE             d eps       ncg     rms          ort
SDA:   1    -0.353690819396E+03    0.64803E+00    0.00000E+00 10962   0.181E+01 0.000E+00
CGA:   2    -0.354087014629E+03   -0.39620E+00   -0.39615E+00 10962   0.104E+01 0.738E-02
CGA:   3    -0.354257261023E+03   -0.17025E+00   -0.17025E+00 10962   0.366E+00-0.310E-05
CGA:   4    -0.354309609217E+03   -0.52348E-01   -0.52230E-01 10962   0.724E-01-0.185E-02
CGA:   5    -0.354321070483E+03   -0.11461E-01   -0.11420E-01 10962   0.193E-01-0.861E-03
CGA:   6    -0.354324552201E+03   -0.34817E-02   -0.34762E-02 10962   0.631E-02-0.250E-03
CGA:   7    -0.354325728934E+03   -0.11767E-02   -0.11787E-02 10962   0.193E-02 0.130E-03
CGA:   8    -0.354326188992E+03   -0.46006E-03   -0.45626E-03 10962   0.813E-03 0.131E-03
CGA:   9    -0.354326437849E+03   -0.24886E-03   -0.24984E-03 10962   0.448E-03-0.120E-04
CGA:  10    -0.354326567925E+03   -0.13008E-03   -0.13083E-03 10962   0.209E-03-0.864E-05
CGA:  11    -0.354326628855E+03   -0.60929E-04   -0.63126E-04 10962   0.894E-04-0.233E-04
CGA:  12    -0.354326651011E+03   -0.22156E-04   -0.22016E-04 10962   0.337E-04 0.234E-05
CGA:  13    -0.354326660911E+03   -0.99000E-05   -0.95767E-05 10962   0.143E-04 0.571E-05
[...]
       N       E                     dE             d eps       ncg     rms          ort
SDA:   1    -0.354249646280E+03    0.24127E-01    0.00000E+00 10962   0.943E-01 0.000E+00
CGA:   2    -0.354262930848E+03   -0.13285E-01   -0.13293E-01 10962   0.368E-01 0.513E-04
CGA:   3    -0.354270229528E+03   -0.72987E-02   -0.72949E-02 10962   0.215E-01-0.171E-03
CGA:   4    -0.354273567798E+03   -0.33383E-02   -0.33339E-02 10962   0.452E-02-0.746E-04
CGA:   5    -0.354274221633E+03   -0.65384E-03   -0.65637E-03 10962   0.103E-02 0.334E-04
CGA:   6    -0.354274403104E+03   -0.18147E-03   -0.18224E-03 10962   0.336E-03 0.188E-04
CGA:   7    -0.354274469269E+03   -0.66165E-04   -0.66287E-04 10962   0.953E-04 0.612E-05
CGA:   8    -0.354274487483E+03   -0.18213E-04   -0.18435E-04 10962   0.297E-04 0.101E-04
CGA:   9    -0.354274495547E+03   -0.80642E-05   -0.80105E-05 10962   0.118E-04 0.161E-05
  99 F= -.35427450E+03 E0= -.35427450E+03  d E =-.714481E-03  mag=     8.0000
       N       E                     dE             d eps       ncg     rms          ort
SDA:   1    -0.354250834092E+03    0.23653E-01    0.00000E+00 10962   0.623E-01 0.000E+00
CGA:   2    -0.354266267372E+03   -0.15433E-01   -0.15394E-01 10962   0.307E-01 0.158E-02
CGA:   3    -0.354271490782E+03   -0.52234E-02   -0.52190E-02 10962   0.114E-01-0.812E-04
CGA:   4    -0.354273146561E+03   -0.16558E-02   -0.16246E-02 10962   0.232E-02-0.403E-03
CGA:   5    -0.354273522179E+03   -0.37562E-03   -0.36699E-03 10962   0.719E-03-0.162E-03
CGA:   6    -0.354273639298E+03   -0.11712E-03   -0.11636E-03 10962   0.214E-03-0.188E-04
CGA:   7    -0.354273672664E+03   -0.33367E-04   -0.34763E-04 10962   0.613E-04 0.301E-04
CGA:   8    -0.354273685123E+03   -0.12458E-04   -0.12957E-04 10962   0.257E-04 0.198E-04
CGA:   9    -0.354273692969E+03   -0.78467E-05   -0.77112E-05 10962   0.147E-04 0.778E-05
 100 F= -.35427369E+03 E0= -.35427369E+03  d E =0.802578E-03  mag=     8.0000
       N       E                     dE             d eps       ncg     rms          ort
SDA:   1    -0.353556952188E+03    0.71673E+00    0.00000E+00 10962   0.188E+01 0.000E+00
CGA:   2    -0.354059138525E+03   -0.50219E+00   -0.50149E+00 10962   0.865E+00 0.117E-01
CGA:   3    -0.354206257163E+03   -0.14712E+00   -0.14705E+00 10962   0.316E+00-0.162E-02
CGA:   4    -0.354249579258E+03   -0.43322E-01   -0.43134E-01 10962   0.601E-01-0.258E-02
CGA:   5    -0.354259479190E+03   -0.98999E-02   -0.98639E-02 10962   0.186E-01-0.849E-03
CGA:   6    -0.354262704900E+03   -0.32257E-02   -0.32258E-02 10962   0.577E-02-0.167E-05
CGA:   7    -0.354263818573E+03   -0.11137E-02   -0.11165E-02 10962   0.209E-02 0.243E-03
CGA:   8    -0.354264355740E+03   -0.53717E-03   -0.53215E-03 10962   0.984E-03 0.124E-03
CGA:   9    -0.354264658383E+03   -0.30264E-03   -0.30086E-03 10962   0.561E-03 0.213E-04
CGA:  10    -0.354264818986E+03   -0.16060E-03   -0.15991E-03 10962   0.234E-03 0.990E-05
CGA:  11    -0.354264892445E+03   -0.73459E-04   -0.78475E-04 10962   0.120E-03-0.433E-04
CGA:  12    -0.354264919290E+03   -0.26845E-04   -0.26954E-04 10962   0.477E-04-0.203E-05
CGA:  13    -0.354264935976E+03   -0.16686E-04   -0.21469E-04 10962   0.466E-04-0.204E-04
CGA:  14    -0.354264940623E+03   -0.46467E-05   -0.50229E-05 10962   0.291E-04 0.811E-05
 101 F= -.35426494E+03 E0= -.35426494E+03  d E =0.875235E-02  mag=     8.0000
       N       E                     dE             d eps       ncg     rms          ort
SDA:   1    -0.350987898826E+03    0.32770E+01    0.00000E+00 10962   0.870E+01 0.000E+00
CGA:   2    -0.353233664238E+03   -0.22458E+01   -0.22449E+01 10962   0.461E+01 0.238E-01
CGA:   3    -0.353957502865E+03   -0.72384E+00   -0.72363E+00 10962   0.155E+01-0.325E-02
CGA:   4    -0.354178308300E+03   -0.22081E+00   -0.22029E+00 10962   0.314E+00-0.636E-02
CGA:   5    -0.354228010697E+03   -0.49702E-01   -0.49589E-01 10962   0.888E-01-0.190E-02
CGA:   6    -0.354243806886E+03   -0.15796E-01   -0.15796E-01 10962   0.280E-01-0.333E-04
CGA:   7    -0.354249269689E+03   -0.54628E-02   -0.54705E-02 10962   0.993E-02 0.354E-03
CGA:   8    -0.354251702909E+03   -0.24332E-02   -0.24281E-02 10962   0.463E-02 0.198E-03
CGA:   9    -0.354253051988E+03   -0.13491E-02   -0.13564E-02 10962   0.254E-02-0.105E-03
CGA:  10    -0.354253768776E+03   -0.71679E-03   -0.72343E-03 10962   0.109E-02-0.947E-04
CGA:  11    -0.354254054794E+03   -0.28602E-03   -0.28619E-03 10962   0.389E-03-0.407E-05
CGA:  12    -0.354254177148E+03   -0.12235E-03   -0.12526E-03 10962   0.185E-03-0.302E-04
CGA:  13    -0.354254231449E+03   -0.54301E-04   -0.52809E-04 10962   0.889E-04 0.192E-04
CGA:  14    -0.354254266543E+03   -0.35094E-04   -0.33721E-04 10962   0.474E-04 0.125E-04
CGA:  15    -0.354254279190E+03   -0.12647E-04   -0.12758E-04 10962   0.219E-04 0.234E-04
CGA:  16    -0.354254286894E+03   -0.77043E-05   -0.77472E-05 10962   0.106E-04 0.128E-04
 102 F= -.35425429E+03 E0= -.35425429E+03  d E =0.106537E-01  mag=     8.0000
       N       E                     dE             d eps       ncg     rms          ort
SDA:   1    -0.353705265910E+03    0.54901E+00    0.00000E+00 10962   0.180E+01 0.000E+00
CGA:   2    -0.354012322636E+03   -0.30706E+00   -0.30735E+00 10962   0.868E+00-0.903E-03
CGA:   3    -0.354169928034E+03   -0.15761E+00   -0.15732E+00 10962   0.396E+00-0.778E-03
CGA:   4    -0.354230161708E+03   -0.60234E-01   -0.60179E-01 10962   0.906E-01-0.774E-04
CGA:   5    -0.354244260701E+03   -0.14099E-01   -0.14196E-01 10962   0.248E-01 0.339E-03
CGA:   6    -0.354248647139E+03   -0.43864E-02   -0.44294E-02 10962   0.827E-02 0.196E-03
CGA:   7    -0.354250303197E+03   -0.16561E-02   -0.16495E-02 10962   0.291E-02-0.393E-04
CGA:   8    -0.354251005284E+03   -0.70209E-03   -0.69415E-03 10962   0.131E-02-0.626E-04
CGA:   9    -0.354251345221E+03   -0.33994E-03   -0.33322E-03 10962   0.561E-03-0.667E-04
CGA:  10    -0.354251498040E+03   -0.15282E-03   -0.15005E-03 10962   0.231E-03-0.372E-04
CGA:  11    -0.354251543802E+03   -0.45763E-04   -0.49228E-04 10962   0.706E-04 0.278E-04
CGA:  12    -0.354251564203E+03   -0.20401E-04   -0.21093E-04 10962   0.288E-04 0.861E-05
CGA:  13    -0.354251570138E+03   -0.59345E-05   -0.71823E-05 10962   0.126E-04 0.103E-04
 103 F= -.35425157E+03 E0= -.35425157E+03  d E =0.271676E-02  mag=     8.0000
       N       E                     dE             d eps       ncg     rms          ort
SDA:   1    -0.352976536871E+03    0.12750E+01    0.00000E+00 10962   0.357E+01 0.000E+00
CGA:   2    -0.353792715128E+03   -0.81618E+00   -0.81602E+00 10962   0.217E+01-0.465E-02
CGA:   3    -0.354132912899E+03   -0.34020E+00   -0.34005E+00 10962   0.697E+00-0.507E-03
CGA:   4    -0.354232227761E+03   -0.99315E-01   -0.99614E-01 10962   0.148E+00 0.172E-02
CGA:   5    -0.354255260801E+03   -0.23033E-01   -0.23235E-01 10962   0.395E-01 0.128E-02
CGA:   6    -0.354262326969E+03   -0.70662E-02   -0.70856E-02 10962   0.128E-01 0.149E-03
CGA:   7    -0.354264924121E+03   -0.25972E-02   -0.25785E-02 10962   0.449E-02-0.203E-03
CGA:   8    -0.354265970672E+03   -0.10466E-02   -0.10431E-02 10962   0.200E-02-0.670E-04
CGA:   9    -0.354266506786E+03   -0.53611E-03   -0.53522E-03 10962   0.951E-03-0.584E-04
CGA:  10    -0.354266754687E+03   -0.24790E-03   -0.24815E-03 10962   0.361E-03 0.146E-04
CGA:  11    -0.354266858670E+03   -0.10398E-03   -0.10397E-03 10962   0.135E-03-0.935E-05
CGA:  12    -0.354266901572E+03   -0.42902E-04   -0.43681E-04 10962   0.664E-04-0.162E-04
CGA:  13    -0.354266917273E+03   -0.15701E-04   -0.15863E-04 10962   0.279E-04 0.102E-04
CGA:  14    -0.354266927787E+03   -0.10513E-04   -0.22517E-04 10962   0.725E-04-0.291E-04
CGA:  15    -0.354266938056E+03   -0.10269E-04   -0.12758E-04 10962   0.935E-05 0.189E-04
CGA:  16    -0.354266926967E+03    0.11088E-04   -0.12328E-04 10962   0.921E-04-0.314E-04
CGA:  17    -0.354266934411E+03   -0.74433E-05   -0.14497E-04 10962   0.186E-04 0.391E-04
 104 F= -.35426693E+03 E0= -.35426693E+03  d E =-.153643E-01  mag=     8.0000
       N       E                     dE             d eps       ncg     rms          ort
SDA:   1    -0.354114846291E+03    0.15208E+00    0.00000E+00 10962   0.443E+00 0.000E+00
CGA:   2    -0.354203326413E+03   -0.88480E-01   -0.88758E-01 10962   0.262E+00 0.198E-02
CGA:   3    -0.354247736966E+03   -0.44411E-01   -0.44486E-01 10962   0.943E-01 0.466E-03
CGA:   4    -0.354261178782E+03   -0.13442E-01   -0.13360E-01 10962   0.188E-01-0.493E-03
CGA:   5    -0.354264166298E+03   -0.29875E-02   -0.29432E-02 10962   0.523E-02-0.309E-03
CGA:   6    -0.354265107551E+03   -0.94125E-03   -0.93033E-03 10962   0.173E-02-0.961E-04
CGA:   7    -0.354265405264E+03   -0.29771E-03   -0.30599E-03 10962   0.494E-03 0.746E-04
CGA:   8    -0.354265496105E+03   -0.90841E-04   -0.99172E-04 10962   0.173E-03 0.896E-04
CGA:   9    -0.354265540319E+03   -0.44213E-04   -0.46383E-04 10962   0.764E-04 0.401E-04
CGA:  10    -0.354265563519E+03   -0.23200E-04   -0.23652E-04 10962   0.374E-04 0.171E-04
CGA:  11    -0.354265577126E+03   -0.13608E-04   -0.13561E-04 10962   0.185E-04 0.229E-05
CGA:  12    -0.354265584182E+03   -0.70562E-05   -0.79098E-05 10962   0.138E-04-0.686E-05
 105 F= -.35426558E+03 E0= -.35426558E+03  d E =0.135023E-02  mag=     8.0000
       N       E                     dE             d eps       ncg     rms          ort
SDA:   1    -0.353544889419E+03    0.72069E+00    0.00000E+00 10962   0.193E+01 0.000E+00
CGA:   2    -0.354001857508E+03   -0.45697E+00   -0.45726E+00 10962   0.123E+01 0.643E-02
CGA:   3    -0.354193981153E+03   -0.19212E+00   -0.19214E+00 10962   0.374E+00 0.908E-04
CGA:   4    -0.354246332011E+03   -0.52351E-01   -0.52109E-01 10962   0.747E-01-0.192E-02
CGA:   5    -0.354258187782E+03   -0.11856E-01   -0.11772E-01 10962   0.210E-01-0.832E-03
CGA:   6    -0.354261902858E+03   -0.37151E-02   -0.37022E-02 10962   0.668E-02-0.168E-03
CGA:   7    -0.354263123652E+03   -0.12208E-02   -0.12308E-02 10962   0.201E-02 0.146E-03
CGA:   8    -0.354263565301E+03   -0.44165E-03   -0.44686E-03 10962   0.814E-03 0.161E-03
CGA:   9    -0.354263807120E+03   -0.24182E-03   -0.24105E-03 10962   0.417E-03 0.293E-04
CGA:  10    -0.354263931935E+03   -0.12482E-03   -0.12450E-03 10962   0.197E-03 0.803E-05
CGA:  11    -0.354263993407E+03   -0.61472E-04   -0.62745E-04 10962   0.909E-04-0.211E-04
CGA:  12    -0.354264017138E+03   -0.23731E-04   -0.23913E-04 10962   0.387E-04-0.459E-05
CGA:  13    -0.354264028334E+03   -0.11196E-04   -0.11050E-04 10962   0.175E-04 0.328E-05
CGA:  14    -0.354264036455E+03   -0.81208E-05   -0.86742E-05 10962   0.156E-04-0.285E-05
 106 F= -.35426404E+03 E0= -.35426404E+03  d E =0.154773E-02  mag=     8.0000
       N       E                     dE             d eps       ncg     rms          ort
SDA:   1    -0.346902748932E+03    0.73613E+01    0.00000E+00 10962   0.181E+02 0.000E+00
CGA:   2    -0.352439218372E+03   -0.55365E+01   -0.55353E+01 10962   0.836E+01 0.234E-01
CGA:   3    -0.353751311283E+03   -0.13121E+01   -0.13118E+01 10962   0.261E+01-0.498E-02
CGA:   4    -0.354109966184E+03   -0.35865E+00   -0.35774E+00 10962   0.528E+00-0.713E-02
CGA:   5    -0.354196791906E+03   -0.86826E-01   -0.86666E-01 10962   0.165E+00-0.193E-02
CGA:   6    -0.354226014721E+03   -0.29223E-01   -0.29236E-01 10962   0.499E-01 0.135E-03
CGA:   7    -0.354235900740E+03   -0.98860E-02   -0.98941E-02 10962   0.184E-01 0.149E-03
CGA:   8    -0.354240498120E+03   -0.45974E-02   -0.45984E-02 10962   0.898E-02-0.196E-03
CGA:   9    -0.354243047662E+03   -0.25495E-02   -0.25652E-02 10962   0.482E-02-0.356E-03
CGA:  10    -0.354244362801E+03   -0.13151E-02   -0.13254E-02 10962   0.200E-02-0.260E-03
CGA:  11    -0.354244888775E+03   -0.52597E-03   -0.52929E-03 10962   0.727E-03-0.106E-03
CGA:  12    -0.354245099891E+03   -0.21112E-03   -0.21227E-03 10962   0.324E-03-0.204E-04
CGA:  13    -0.354245208532E+03   -0.10864E-03   -0.10614E-03 10962   0.173E-03 0.296E-04
CGA:  14    -0.354245265023E+03   -0.56491E-04   -0.54539E-04 10962   0.829E-04 0.608E-04
CGA:  15    -0.354245295559E+03   -0.30536E-04   -0.30125E-04 10962   0.398E-04 0.425E-04
CGA:  16    -0.354245312224E+03   -0.16665E-04   -0.15848E-04 10962   0.228E-04 0.579E-05
CGA:  17    -0.354245326409E+03   -0.14185E-04   -0.11851E-04 10962   0.146E-04 0.123E-04
CGA:  18    -0.354245331227E+03   -0.48184E-05   -0.45483E-05 10962   0.802E-05 0.777E-05
 107 F= -.35424533E+03 E0= -.35424533E+03  d E =0.187052E-01  mag=     8.0000
       N       E                     dE             d eps       ncg     rms          ort
SDA:   1    -0.353714255452E+03    0.53107E+00    0.00000E+00 10962   0.161E+01 0.000E+00
CGA:   2    -0.354022455321E+03   -0.30820E+00   -0.30819E+00 10962   0.941E+00-0.120E-02
CGA:   3    -0.354185514058E+03   -0.16306E+00   -0.16297E+00 10962   0.363E+00-0.110E-02
CGA:   4    -0.354237002243E+03   -0.51488E-01   -0.51550E-01 10962   0.758E-01 0.391E-03
CGA:   5    -0.354248498328E+03   -0.11496E-01   -0.11581E-01 10962   0.208E-01 0.748E-03
CGA:   6    -0.354252205594E+03   -0.37073E-02   -0.37325E-02 10962   0.681E-02 0.314E-03
CGA:   7    -0.354253570774E+03   -0.13652E-02   -0.13659E-02 10962   0.230E-02 0.110E-04
CGA:   8    -0.354254087222E+03   -0.51645E-03   -0.51775E-03 10962   0.930E-03 0.510E-04
CGA:   9    -0.354254327197E+03   -0.23997E-03   -0.23993E-03 10962   0.386E-03 0.115E-04
CGA:  10    -0.354254434071E+03   -0.10687E-03   -0.10698E-03 10962   0.152E-03-0.414E-05
CGA:  11    -0.354254465434E+03   -0.31363E-04   -0.32404E-04 10962   0.460E-04 0.298E-04
CGA:  12    -0.354254480863E+03   -0.15429E-04   -0.15359E-04 10962   0.198E-04 0.223E-05
CGA:  13    -0.354254487447E+03   -0.65839E-05   -0.66084E-05 10962   0.112E-04-0.371E-06
 108 F= -.35425449E+03 E0= -.35425449E+03  d E =-.915622E-02  mag=     8.0000
       N       E                     dE             d eps       ncg     rms          ort
SDA:   1    -0.353809071317E+03    0.44541E+00    0.00000E+00 10962   0.114E+01 0.000E+00
CGA:   2    -0.354134267573E+03   -0.32520E+00   -0.32534E+00 10962   0.611E+00-0.562E-02
CGA:   3    -0.354225885951E+03   -0.91618E-01   -0.91729E-01 10962   0.188E+00 0.876E-03
CGA:   4    -0.354251867554E+03   -0.25982E-01   -0.26177E-01 10962   0.390E-01 0.163E-02
CGA:   5    -0.354258047339E+03   -0.61798E-02   -0.62201E-02 10962   0.116E-01 0.436E-03
CGA:   6    -0.354260181124E+03   -0.21338E-02   -0.21339E-02 10962   0.375E-02-0.431E-06
CGA:   7    -0.354260954114E+03   -0.77299E-03   -0.76824E-03 10962   0.147E-02-0.132E-03
CGA:   8    -0.354261318729E+03   -0.36462E-03   -0.36702E-03 10962   0.749E-03-0.125E-03
CGA:   9    -0.354261496794E+03   -0.17806E-03   -0.17832E-03 10962   0.336E-03-0.131E-04
CGA:  10    -0.354261589524E+03   -0.92730E-04   -0.93377E-04 10962   0.132E-03-0.158E-04
CGA:  11    -0.354261627455E+03   -0.37931E-04   -0.39626E-04 10962   0.616E-04-0.236E-04
CGA:  12    -0.354261640710E+03   -0.13255E-04   -0.13225E-04 10962   0.228E-04 0.202E-05
CGA:  13    -0.354261649573E+03   -0.88634E-05   -0.10644E-04 10962   0.228E-04-0.876E-05
 109 F= -.35426165E+03 E0= -.35426165E+03  d E =-.716213E-02  mag=     8.0000
       N       E                     dE             d eps       ncg     rms          ort
SDA:   1    -0.353993038717E+03    0.26860E+00    0.00000E+00 10962   0.796E+00 0.000E+00
CGA:   2    -0.354149130675E+03   -0.15609E+00   -0.15635E+00 10962   0.460E+00 0.356E-02
CGA:   3    -0.354227482505E+03   -0.78352E-01   -0.78398E-01 10962   0.168E+00 0.487E-03
CGA:   4    -0.354251747810E+03   -0.24265E-01   -0.24159E-01 10962   0.368E-01-0.103E-02
CGA:   5    -0.354257300274E+03   -0.55525E-02   -0.54882E-02 10962   0.999E-02-0.671E-03
CGA:   6    -0.354259046341E+03   -0.17461E-02   -0.17346E-02 10962   0.325E-02-0.177E-03
CGA:   7    -0.354259634112E+03   -0.58777E-03   -0.59282E-03 10962   0.987E-03 0.929E-04
CGA:   8    -0.354259839834E+03   -0.20572E-03   -0.20892E-03 10962   0.353E-03 0.103E-03
CGA:   9    -0.354259937849E+03   -0.98015E-04   -0.97474E-04 10962   0.163E-03 0.364E-04
CGA:  10    -0.354259988356E+03   -0.50507E-04   -0.50211E-04 10962   0.775E-04 0.689E-05
CGA:  11    -0.354260010913E+03   -0.22558E-04   -0.22538E-04 10962   0.325E-04 0.447E-06
CGA:  12    -0.354260020451E+03   -0.95380E-05   -0.95628E-05 10962   0.129E-04-0.487E-06
 110 F= -.35426002E+03 E0= -.35426002E+03  d E =0.162912E-02  mag=     8.0000
       N       E                     dE             d eps       ncg     rms          ort
SDA:   1    -0.354082818311E+03    0.17719E+00    0.00000E+00 10962   0.451E+00 0.000E+00
CGA:   2    -0.354207863222E+03   -0.12504E+00   -0.12487E+00 10962   0.236E+00 0.450E-02
CGA:   3    -0.354244646870E+03   -0.36784E-01   -0.36734E-01 10962   0.753E-01-0.623E-03
CGA:   4    -0.354255434364E+03   -0.10787E-01   -0.10677E-01 10962   0.158E-01-0.117E-02
CGA:   5    -0.354257938802E+03   -0.25044E-02   -0.24758E-02 10962   0.478E-02-0.391E-03
CGA:   6    -0.354258743287E+03   -0.80449E-03   -0.80579E-03 10962   0.143E-02 0.220E-04
CGA:   7    -0.354258999126E+03   -0.25584E-03   -0.26118E-03 10962   0.453E-03 0.120E-03
CGA:   8    -0.354259105528E+03   -0.10640E-03   -0.10686E-03 10962   0.194E-03 0.704E-04
CGA:   9    -0.354259166075E+03   -0.60546E-04   -0.59452E-04 10962   0.107E-03 0.266E-04
CGA:  10    -0.354259198273E+03   -0.32199E-04   -0.31587E-04 10962   0.476E-04 0.177E-04
CGA:  11    -0.354259213770E+03   -0.15497E-04   -0.15289E-04 10962   0.202E-04 0.429E-05
CGA:  12    -0.354259221156E+03   -0.73859E-05   -0.76636E-05 10962   0.121E-04-0.236E-05
 111 F= -.35425922E+03 E0= -.35425922E+03  d E =0.799295E-03  mag=     8.0000
       N       E                     dE             d eps       ncg     rms          ort
SDA:   1    -0.354142544257E+03    0.11667E+00    0.00000E+00 10962   0.355E+00 0.000E+00
CGA:   2    -0.354207881338E+03   -0.65337E-01   -0.65434E-01 10962   0.200E+00 0.153E-02
CGA:   3    -0.354243445032E+03   -0.35564E-01   -0.35587E-01 10962   0.784E-01 0.332E-03
CGA:   4    -0.354254707058E+03   -0.11262E-01   -0.11223E-01 10962   0.168E-01-0.450E-03
CGA:   5    -0.354257244241E+03   -0.25372E-02   -0.25282E-02 10962   0.470E-02-0.120E-03
CGA:   6    -0.354258069288E+03   -0.82505E-03   -0.82442E-03 10962   0.151E-02-0.141E-04
CGA:   7    -0.354258351875E+03   -0.28259E-03   -0.28419E-03 10962   0.472E-03 0.450E-04
CGA:   8    -0.354258444255E+03   -0.92379E-04   -0.94387E-04 10962   0.160E-03 0.724E-04
CGA:   9    -0.354258485979E+03   -0.41724E-04   -0.41591E-04 10962   0.659E-04 0.309E-04
CGA:  10    -0.354258507264E+03   -0.21285E-04   -0.20945E-04 10962   0.320E-04 0.743E-05
CGA:  11    -0.354258514440E+03   -0.71758E-05   -0.73419E-05 10962   0.116E-04 0.993E-05
 112 F= -.35425851E+03 E0= -.35425851E+03  d E =0.706716E-03  mag=     8.0000
       N       E                     dE             d eps       ncg     rms          ort
SDA:   1    -0.354204167787E+03    0.54339E-01    0.00000E+00 10962   0.145E+00 0.000E+00
CGA:   2    -0.354244035683E+03   -0.39868E-01   -0.40006E-01 10962   0.771E-01-0.261E-02
CGA:   3    -0.354255660718E+03   -0.11625E-01   -0.11646E-01 10962   0.246E-01 0.276E-03
CGA:   4    -0.354259014837E+03   -0.33541E-02   -0.34076E-02 10962   0.495E-02 0.631E-03
CGA:   5    -0.354259796787E+03   -0.78195E-03   -0.79408E-03 10962   0.146E-02 0.197E-03
CGA:   6    -0.354260071686E+03   -0.27490E-03   -0.27553E-03 10962   0.482E-03 0.192E-04
CGA:   7    -0.354260187088E+03   -0.11540E-03   -0.11819E-03 10962   0.260E-03-0.968E-04
CGA:   8    -0.354260241400E+03   -0.54312E-04   -0.60783E-04 10962   0.178E-03-0.834E-04
CGA:   9    -0.354260268084E+03   -0.26684E-04   -0.26705E-04 10962   0.709E-04-0.967E-05
CGA:  10    -0.354260283216E+03   -0.15131E-04   -0.15107E-04 10962   0.266E-04 0.351E-05
CGA:  11    -0.354260288594E+03   -0.53787E-05   -0.54728E-05 10962   0.925E-05 0.407E-05
 113 F= -.35426029E+03 E0= -.35426029E+03  d E =-.177415E-02  mag=     8.0000
