       N       E                     dE             d eps       ncg     rms          ort
DAV:   1     0.874614738434E+04    0.87461E+04   -0.53132E+05   624   0.153E+03
DAV:   2    -0.948376906531E+03   -0.96945E+04   -0.92336E+04   624   0.410E+02
DAV:   3    -0.190260288049E+04   -0.95423E+03   -0.93371E+03   624   0.147E+02
DAV:   4    -0.194380973647E+04   -0.41207E+02   -0.40586E+02   624   0.340E+01
DAV:   5    -0.194605749769E+04   -0.22478E+01   -0.22387E+01   624   0.578E+00
SDA:   6    -0.106330753217E+04    0.88275E+03   -0.22387E+01   624   0.316E+04 0.000E+00
CGA:   7    -0.122099646610E+04   -0.15769E+03   -0.32222E+03   624   0.484E+04-0.135E+03
CGA:   8    -0.131227680658E+04   -0.91280E+02   -0.27641E+03   624   0.204E+04-0.861E+03
CGA:   9    -0.132453424139E+04   -0.12257E+02   -0.10400E+03   624   0.250E+04-0.133E+04
CGA:  10    -0.137637329757E+04   -0.51839E+02   -0.20891E+03   624   0.141E+04-0.617E+03
CGA:  11    -0.144325225964E+04   -0.66879E+02   -0.71721E+02   624   0.859E+03-0.230E+03
CGA:  12    -0.143579668698E+04    0.74556E+01   -0.36906E+02   624   0.264E+04-0.116E+03
CGA:  13    -0.136953226295E+04    0.66264E+02   -0.11260E+03   624   0.175E+04-0.822E+03
CGA:  14    -0.141498773126E+04   -0.45455E+02   -0.74929E+02   624   0.998E+03-0.394E+03
CGA:  15    -0.142986216542E+04   -0.14874E+02   -0.43000E+02   624   0.780E+03-0.230E+03
CGA:  16    -0.146893416072E+04   -0.39072E+02   -0.33260E+02   624   0.573E+03-0.106E+03
CGA:  17    -0.148269106801E+04   -0.13757E+02   -0.22642E+02   624   0.549E+03-0.152E+03
CGA:  18    -0.147621852759E+04    0.64725E+01   -0.14206E+02   624   0.844E+03-0.428E+03
CGA:  19    -0.148618411955E+04   -0.99656E+01   -0.41974E+02   624   0.339E+03-0.305E+03
CGA:  20    -0.150252871723E+04   -0.16345E+02   -0.90581E+01   624   0.269E+03-0.394E+03
CGA:  21    -0.149539204370E+04    0.71367E+01   -0.11367E+02   624   0.274E+03-0.134E+03
CGA:  22    -0.149263525204E+04    0.27568E+01   -0.51186E+01   624   0.738E+03-0.504E+03
CGA:  23    -0.148961234055E+04    0.30229E+01   -0.38452E+02   624   0.257E+03-0.131E+03
CGA:  24    -0.150473710138E+04   -0.15125E+02   -0.80687E+01   624   0.432E+03 0.651E+03
CGA:  25    -0.149715114971E+04    0.75860E+01   -0.15308E+02   624   0.110E+04-0.658E+03
CGA:  26    -0.149057525777E+04    0.65759E+01   -0.51827E+02   624   0.275E+03-0.167E+03
CGA:  27    -0.150395351268E+04   -0.13378E+02   -0.54445E+01   624   0.503E+03 0.644E+03
CGA:  28    -0.149252976908E+04    0.11424E+02   -0.19233E+02   624   0.197E+03-0.123E+03
CGA:  29    -0.149939983502E+04   -0.68701E+01   -0.60093E+01   624   0.231E+03-0.752E+02
CGA:  30    -0.151025953008E+04   -0.10860E+02   -0.44636E+01   624   0.138E+03-0.208E+03
CGA:  31    -0.151460992301E+04   -0.43504E+01   -0.23445E+01   624   0.911E+02-0.146E+03
CGA:  32    -0.151442820374E+04    0.18172E+00   -0.16683E+01   624   0.112E+03-0.817E+02
CGA:  33    -0.151327886140E+04    0.11493E+01   -0.23340E+01   624   0.279E+03-0.176E+03
CGA:  34    -0.150990933675E+04    0.33695E+01   -0.73525E+01   624   0.355E+03-0.207E+03
CGA:  35    -0.150134023703E+04    0.85691E+01   -0.96669E+01   624   0.846E+03-0.518E+03
CGA:  36    -0.149092650666E+04    0.10414E+02   -0.27379E+02   624   0.212E+03-0.152E+03
CGA:  37    -0.150046000612E+04   -0.95335E+01   -0.49647E+01   624   0.241E+03-0.288E+03
CGA:  38    -0.150553468488E+04   -0.50747E+01   -0.51951E+01   624   0.100E+04-0.129E+04
CGA:  39    -0.149758087818E+04    0.79538E+01   -0.29894E+02   624   0.182E+03-0.130E+03
CGA:  40    -0.151440303959E+04   -0.16822E+02   -0.30435E+01   624   0.266E+03-0.759E+03
CGA:  41    -0.151178167049E+04    0.26214E+01   -0.55325E+01   624   0.508E+03-0.318E+03
CGA:  42    -0.150671606040E+04    0.50656E+01   -0.11493E+02   624   0.815E+03-0.494E+03
CGA:  43    -0.149965655996E+04    0.70595E+01   -0.20757E+02   624   0.289E+03-0.216E+03
CGA:  44    -0.151095725098E+04   -0.11301E+02   -0.40177E+01   624   0.727E+03-0.109E+04
CGA:  45    -0.150141076891E+04    0.95465E+01   -0.17289E+02   624   0.279E+03-0.140E+03
CGA:  46    -0.150931270240E+04   -0.79019E+01   -0.38754E+01   624   0.103E+04-0.131E+04
CGA:  47    -0.150070994778E+04    0.86028E+01   -0.24124E+02   624   0.232E+03-0.143E+03
CGA:  48    -0.151429993532E+04   -0.13590E+02   -0.30733E+01   624   0.463E+03-0.104E+04
CGA:  49    -0.150644121985E+04    0.78587E+01   -0.85486E+01   624   0.863E+03-0.424E+03
CGA:  50    -0.149468946817E+04    0.11752E+02   -0.16859E+02   624   0.552E+03-0.368E+03
CGA:  51    -0.150420173124E+04   -0.95123E+01   -0.87292E+01   624   0.187E+03-0.127E+03
CGA:  52    -0.151065306089E+04   -0.64513E+01   -0.15262E+01   624   0.669E+03 0.908E+03
CGA:  53    -0.150518085728E+04    0.54722E+01   -0.10983E+02   624   0.141E+04-0.988E+03
CGA:  54    -0.150329169287E+04    0.18892E+01   -0.28202E+02   624   0.249E+03-0.167E+03
CGA:  55    -0.151623595454E+04   -0.12944E+02   -0.25349E+01   624   0.171E+03 0.521E+03
CGA:  56    -0.151710347999E+04   -0.86753E+00   -0.15598E+01   624   0.492E+02-0.749E+02
CGA:  57    -0.151739232595E+04   -0.28885E+00   -0.31751E+00   624   0.531E+01-0.245E+01
CGA:  58    -0.151747656064E+04   -0.84235E-01   -0.85431E-01   624   0.309E+01-0.215E+00
CGA:  59    -0.151761055568E+04   -0.13400E+00   -0.13052E+00   624   0.141E+02 0.184E+00
CGA:  60    -0.151848015007E+04   -0.86959E+00   -0.85086E+00   624   0.100E+02 0.108E+01
CGA:  61    -0.151878615820E+04   -0.30601E+00   -0.31840E+00   624   0.311E+01 0.125E+00
CGA:  62    -0.151891721559E+04   -0.13106E+00   -0.13073E+00   624   0.171E+01-0.533E-01
CGA:  63    -0.151905169995E+04   -0.13448E+00   -0.14219E+00   624   0.290E+01-0.145E+00
CGA:  64    -0.151928355509E+04   -0.23186E+00   -0.23697E+00   624   0.164E+01-0.791E-01
CGA:  65    -0.151938301227E+04   -0.99457E-01   -0.10187E+00   624   0.914E+00-0.127E+00
CGA:  66    -0.151948991262E+04   -0.10690E+00   -0.10896E+00   624   0.661E+00 0.176E-01
CGA:  67    -0.151956196948E+04   -0.72057E-01   -0.91504E-01   624   0.130E+01-0.197E+00
CGA:  68    -0.151963637296E+04   -0.74403E-01   -0.94821E-01   624   0.969E+00-0.381E+00
CGA:  69    -0.151968821801E+04   -0.51845E-01   -0.54372E-01   624   0.393E+00-0.119E+00
CGA:  70    -0.151972138583E+04   -0.33168E-01   -0.55021E-01   624   0.977E+00-0.206E+00
CGA:  71    -0.151976072512E+04   -0.39339E-01   -0.41598E-01   624   0.292E+00-0.238E-01
CGA:  72    -0.151978790506E+04   -0.27180E-01   -0.28081E-01   624   0.346E+00-0.189E-01
CGA:  73    -0.151983256378E+04   -0.44659E-01   -0.50871E-01   624   0.602E+00-0.577E-01
CGA:  74    -0.151990419470E+04   -0.71631E-01   -0.78634E-01   624   0.325E+00-0.668E-01
CGA:  75    -0.151992710911E+04   -0.22914E-01   -0.22921E-01   624   0.264E+00-0.124E-01
CGA:  76    -0.151995128940E+04   -0.24180E-01   -0.23813E-01   624   0.177E+00 0.204E-01
CGA:  77    -0.151999630487E+04   -0.45015E-01   -0.45324E-01   624   0.281E+00 0.886E-03
CGA:  78    -0.152002280502E+04   -0.26500E-01   -0.27400E-01   624   0.385E+00-0.347E-01
CGA:  79    -0.152006449554E+04   -0.41691E-01   -0.44404E-01   624   0.427E+00-0.498E-01
CGA:  80    -0.152011625138E+04   -0.51756E-01   -0.58373E-01   624   0.761E+00-0.913E-01
CGA:  81    -0.152015246306E+04   -0.36212E-01   -0.33092E-01   624   0.492E+00-0.301E-01
CGA:  82    -0.152021479460E+04   -0.62332E-01   -0.65703E-01   624   0.851E+00-0.759E-01
CGA:  83    -0.152025278706E+04   -0.37992E-01   -0.38361E-01   624   0.526E+00-0.148E+00
CGA:  84    -0.152031034124E+04   -0.57554E-01   -0.10473E+00   624   0.737E+00-0.292E+00
CGA:  85    -0.152039862941E+04   -0.88288E-01   -0.12138E+00   624   0.195E+01-0.499E+00
CGA:  86    -0.152047670879E+04   -0.78079E-01   -0.11792E+00   624   0.292E+00-0.173E-01
CGA:  87    -0.152054099477E+04   -0.64286E-01   -0.75319E-01   624   0.108E+01-0.108E+00
CGA:  88    -0.152062424168E+04   -0.83247E-01   -0.81566E-01   624   0.106E+01 0.110E+00
CGA:  89    -0.152067705655E+04   -0.52815E-01   -0.73243E-01   624   0.261E+00 0.488E-02
CGA:  90    -0.152072165503E+04   -0.44598E-01   -0.43571E-01   624   0.162E+00 0.195E-01
CGA:  91    -0.152077842864E+04   -0.56774E-01   -0.51666E-01   624   0.145E+00 0.252E-01
CGA:  92    -0.152080778135E+04   -0.29353E-01   -0.28762E-01   624   0.122E+00 0.671E-02
CGA:  93    -0.152086062547E+04   -0.52844E-01   -0.49615E-01   624   0.149E+00 0.104E-01
CGA:  94    -0.152090230046E+04   -0.41675E-01   -0.42145E-01   624   0.128E+00-0.440E-02
CGA:  95    -0.152093256275E+04   -0.30262E-01   -0.32878E-01   624   0.141E+00-0.219E-01
CGA:  96    -0.152096101271E+04   -0.28450E-01   -0.31854E-01   624   0.106E+00-0.287E-01
CGA:  97    -0.152098322343E+04   -0.22211E-01   -0.28965E-01   624   0.141E+00-0.362E-01
CGA:  98    -0.152100112815E+04   -0.17905E-01   -0.19758E-01   624   0.100E+00-0.365E-01
CGA:  99    -0.152101374349E+04   -0.12615E-01   -0.12662E-01   624   0.588E-01-0.720E-02
CGA: 100    -0.152102488853E+04   -0.11145E-01   -0.10866E-01   624   0.631E-01 0.795E-02
CGA: 101    -0.152103936066E+04   -0.14472E-01   -0.14146E-01   624   0.329E-01 0.961E-02
CGA: 102    -0.152104668894E+04   -0.73283E-02   -0.71146E-02   624   0.247E-01 0.104E-01
CGA: 103    -0.152105247906E+04   -0.57901E-02   -0.56920E-02   624   0.173E-01 0.144E-01
CGA: 104    -0.152105650943E+04   -0.40304E-02   -0.38658E-02   624   0.113E-01 0.310E-02
CGA: 105    -0.152106079375E+04   -0.42843E-02   -0.35717E-02   624   0.629E-02 0.738E-02
CGA: 106    -0.152106249850E+04   -0.17048E-02   -0.15269E-02   624   0.474E-02 0.268E-02
CGA: 107    -0.152106470021E+04   -0.22017E-02   -0.17626E-02   624   0.404E-02 0.542E-02
CGA: 108    -0.152106624169E+04   -0.15415E-02   -0.13379E-02   624   0.444E-02 0.138E-02
CGA: 109    -0.152106859754E+04   -0.23558E-02   -0.18238E-02   624   0.336E-02 0.457E-02
CGA: 110    -0.152106980954E+04   -0.12120E-02   -0.12427E-02   624   0.639E-02-0.155E-03
CGA: 111    -0.152107149815E+04   -0.16886E-02   -0.15315E-02   624   0.585E-02 0.338E-02
CGA: 112    -0.152107292652E+04   -0.14284E-02   -0.14456E-02   624   0.274E-02-0.425E-03
CGA: 113    -0.152107463578E+04   -0.17093E-02   -0.13068E-02   624   0.315E-02 0.129E-02
CGA: 114    -0.152107775198E+04   -0.31162E-02   -0.43703E-02   624   0.308E-01-0.176E-02
CGA: 115    -0.152108049879E+04   -0.27468E-02   -0.28344E-02   624   0.252E-02 0.510E-02
CGA: 116    -0.152108093044E+04   -0.43165E-03   -0.46600E-03   624   0.145E-02 0.385E-03
CGA: 117    -0.152108113619E+04   -0.20575E-03   -0.10340E-02   624   0.133E-01-0.220E-02
CGA: 118    -0.152108250158E+04   -0.13654E-02   -0.15472E-02   624   0.208E-02 0.202E-02
CGA: 119    -0.152108311376E+04   -0.61218E-03   -0.61083E-03   624   0.146E-02-0.317E-03
CGA: 120    -0.152108376246E+04   -0.64869E-03    0.11477E-01   624   0.167E-02 0.784E-03
CGA: 121    -0.152108409437E+04   -0.33191E-03   -0.35127E-03   624   0.930E-03 0.419E-03
CGA: 122    -0.152108242868E+04    0.16657E-02   -0.10500E-02   624   0.335E-01-0.266E-02
CGA: 123    -0.152108601480E+04   -0.35861E-02   -0.32911E-02   624   0.550E-02 0.914E-02
CGA: 124    -0.152108706453E+04   -0.10497E-02   -0.11853E-02   624   0.265E-02 0.608E-03
CGA: 125    -0.152108769654E+04   -0.63201E-03   -0.48195E-03   624   0.116E-02-0.595E-03
CGA: 126    -0.152108811178E+04   -0.41524E-03   -0.96585E-03   624   0.753E-02-0.856E-03
CGA: 127    -0.152108914108E+04   -0.10293E-02   -0.12314E-02   624   0.190E-02 0.959E-03
CGA: 128    -0.152108977553E+04   -0.63445E-03   -0.55780E-03   624   0.126E-02-0.431E-03
CGA: 129    -0.152108996290E+04   -0.18737E-03   -0.22780E-03   624   0.741E-03 0.213E-03
CGA: 130    -0.152109041383E+04   -0.45094E-03   -0.44715E-03   624   0.202E-02 0.381E-04
CGA: 131    -0.152109138867E+04   -0.97483E-03   -0.15168E-02   624   0.104E-01-0.175E-02
CGA: 132    -0.152109246740E+04   -0.10787E-02   -0.13009E-02   624   0.175E-02 0.154E-02
CGA: 133    -0.152109294772E+04   -0.48032E-03   -0.44784E-03   624   0.384E-03-0.157E-03
CGA: 134    -0.152109272305E+04    0.22467E-03   -0.38607E-03   624   0.377E-02-0.882E-03
CGA: 135    -0.152109307930E+04   -0.35624E-03   -0.53186E-03   624   0.775E-03 0.703E-03
CGA: 136    -0.152109329507E+04   -0.21578E-03   -0.20528E-03   624   0.211E-03-0.462E-04
CGA: 137    -0.152109333495E+04   -0.39877E-04   -0.47206E-04   624   0.647E-04 0.398E-04
CGA: 138    -0.152109337896E+04   -0.44010E-04   -0.55810E-04   624   0.305E-03-0.380E-04
CGA: 139    -0.152109346404E+04   -0.85081E-04   -0.73975E-04   624   0.975E-04-0.577E-04
CGA: 140    -0.152109345652E+04    0.75199E-05   -0.78280E-05   624   0.553E-04 0.488E-04
CGA: 141    -0.152109345927E+04   -0.27457E-05   -0.11916E-04   624   0.561E-04 0.360E-04
   1 F= -.15210935E+04 E0= -.15210933E+04  d E =-.152109E+04  mag=    16.0000
       N       E                     dE             d eps       ncg     rms          ort
SDA:   1    -0.152113879601E+04   -0.45339E-01    0.00000E+00   624   0.420E-01 0.000E+00
CGA:   2    -0.152114360842E+04   -0.48124E-02   -0.49605E-02   624   0.988E-02-0.710E-02
CGA:   3    -0.152114496852E+04   -0.13601E-02   -0.14639E-02   624   0.135E-02 0.608E-03
CGA:   4    -0.152114548563E+04   -0.51711E-03   -0.51426E-03   624   0.878E-03-0.358E-03
CGA:   5    -0.152114560909E+04   -0.12346E-03   -0.11489E-03   624   0.222E-03-0.453E-04
CGA:   6    -0.152114566987E+04   -0.60780E-04   -0.56568E-04   624   0.151E-03-0.475E-04
CGA:   7    -0.152114569918E+04   -0.29313E-04   -0.31300E-04   624   0.997E-04 0.223E-04
CGA:   8    -0.152114573030E+04   -0.31116E-04   -0.73718E-04   624   0.428E-03-0.144E-03
CGA:   9    -0.152114580784E+04   -0.77541E-04   -0.81442E-04   624   0.468E-04 0.226E-04
CGA:  10    -0.152114586604E+04   -0.58200E-04    0.13161E-04   624   0.624E-04-0.618E-05
CGA:  11    -0.152114586682E+04   -0.77882E-06   -0.66287E-05   624   0.328E-04 0.254E-04
   2 F= -.15211459E+04 E0= -.15211458E+04  d E =-.524075E-01  mag=    16.0000
       N       E                     dE             d eps       ncg     rms          ort
SDA:   1    -0.151346987004E+04    0.76760E+01    0.00000E+00   624   0.302E+02 0.000E+00
CGA:   2    -0.152077144202E+04   -0.73016E+01   -0.73091E+01   624   0.683E+01-0.231E-01
CGA:   3    -0.152254658309E+04   -0.17751E+01   -0.17735E+01   624   0.196E+01-0.229E-01
CGA:   4    -0.152294104601E+04   -0.39446E+00   -0.39425E+00   624   0.527E+00-0.152E-03
CGA:   5    -0.152305597550E+04   -0.11493E+00   -0.11458E+00   624   0.167E+00-0.479E-02
CGA:   6    -0.152310488303E+04   -0.48908E-01   -0.48909E-01   624   0.798E-01 0.164E-03
CGA:   7    -0.152313031882E+04   -0.25436E-01   -0.25448E-01   624   0.387E-01-0.157E-02
CGA:   8    -0.152314108581E+04   -0.10767E-01   -0.10793E-01   624   0.148E-01 0.104E-02
CGA:   9    -0.152314569858E+04   -0.46128E-02   -0.46057E-02   624   0.758E-02-0.109E-02
CGA:  10    -0.152314737542E+04   -0.16768E-02   -0.17006E-02   624   0.300E-02 0.386E-03
CGA:  11    -0.152314857347E+04   -0.11980E-02   -0.12537E-02   624   0.209E-02-0.606E-03
CGA:  12    -0.152314905067E+04   -0.47720E-03   -0.47939E-03   624   0.874E-03 0.952E-04
CGA:  13    -0.152314931344E+04   -0.26277E-03   -0.26209E-03   624   0.315E-03-0.291E-04
CGA:  14    -0.152314940999E+04   -0.96553E-04   -0.96661E-04   624   0.136E-03-0.114E-04
CGA:  15    -0.152314944013E+04   -0.30135E-04   -0.31531E-04   624   0.625E-04 0.205E-04
CGA:  16    -0.152314946939E+04   -0.29258E-04   -0.30699E-04   624   0.536E-04-0.118E-04
CGA:  17    -0.152314948777E+04   -0.18382E-04   -0.18153E-04   624   0.520E-04 0.221E-05
CGA:  18    -0.152314927675E+04    0.21102E-03   -0.11559E-03   624   0.115E-02-0.193E-03
CGA:  19    -0.152314951847E+04   -0.24171E-03   -0.26440E-03   624   0.298E-03 0.691E-04
CGA:  20    -0.152314960349E+04   -0.85022E-04   -0.72449E-04   624   0.775E-04-0.364E-04
CGA:  21    -0.152314961760E+04   -0.14109E-04   -0.18575E-04   624   0.278E-04 0.169E-04
CGA:  22    -0.152314959580E+04    0.21793E-04   -0.45755E-04   624   0.371E-03-0.822E-04
CGA:  23    -0.152314961861E+04   -0.22803E-04   -0.50714E-04   624   0.609E-04 0.671E-04
CGA:  24    -0.152314963683E+04   -0.18223E-04   -0.19318E-04   624   0.181E-04 0.391E-05
CGA:  25    -0.152314964708E+04   -0.10254E-04   -0.10392E-04   624   0.926E-04-0.302E-04
CGA:  26    -0.152314964555E+04    0.15289E-05   -0.92696E-05   624   0.102E-04 0.254E-04
   3 F= -.15231496E+04 E0= -.15231496E+04  d E =-.200378E+01  mag=    16.0000
       N       E                     dE             d eps       ncg     rms          ort
SDA:   1    -0.151259706427E+04    0.10553E+02    0.00000E+00   624   0.379E+02 0.000E+00
CGA:   2    -0.152137513807E+04   -0.87781E+01   -0.89015E+01   624   0.803E+01 0.260E+00
CGA:   3    -0.152346766680E+04   -0.20925E+01   -0.20892E+01   624   0.242E+01 0.111E-01
CGA:   4    -0.152395720477E+04   -0.48954E+00   -0.48888E+00   624   0.604E+00-0.464E-03
CGA:   5    -0.152408675171E+04   -0.12955E+00   -0.12959E+00   624   0.181E+00 0.202E-03
CGA:   6    -0.152413987361E+04   -0.53122E-01   -0.53151E-01   624   0.877E-01-0.842E-04
CGA:   7    -0.152416911660E+04   -0.29243E-01   -0.29149E-01   624   0.442E-01-0.967E-03
CGA:   8    -0.152418356909E+04   -0.14452E-01   -0.14372E-01   624   0.175E-01-0.737E-03
CGA:   9    -0.152418933559E+04   -0.57665E-02   -0.57233E-02   624   0.671E-02-0.454E-03
CGA:  10    -0.152419155062E+04   -0.22150E-02   -0.22044E-02   624   0.302E-02-0.122E-03
CGA:  11    -0.152419256071E+04   -0.10101E-02   -0.10012E-02   624   0.169E-02-0.106E-03
CGA:  12    -0.152419299908E+04   -0.43837E-03   -0.43932E-03   624   0.689E-03 0.119E-04
CGA:  13    -0.152419321465E+04   -0.21557E-03   -0.21336E-03   624   0.249E-03-0.215E-04
CGA:  14    -0.152419329776E+04   -0.83112E-04   -0.81035E-04   624   0.155E-03-0.311E-04
CGA:  15    -0.152419331413E+04   -0.16367E-04   -0.25166E-04   624   0.609E-04 0.415E-04
CGA:  16    -0.152419332793E+04   -0.13805E-04   -0.18318E-04   624   0.489E-04 0.300E-04
CGA:  17    -0.152419335169E+04   -0.23754E-04   -0.24097E-04   624   0.521E-04 0.675E-05
CGA:  18    -0.152419336907E+04   -0.17384E-04   -0.18932E-04   624   0.554E-04 0.259E-04
CGA:  19    -0.152419339556E+04   -0.26484E-04   -0.27468E-04   624   0.603E-04 0.215E-04
CGA:  20    -0.152419343570E+04   -0.40142E-04   -0.59240E-04   624   0.224E-03-0.614E-04
CGA:  21    -0.152419345751E+04   -0.21814E-04   -0.33541E-04   624   0.573E-04 0.503E-04
CGA:  22    -0.152419347569E+04   -0.18178E-04   -0.19124E-04   624   0.160E-04 0.904E-05
CGA:  23    -0.152419349200E+04   -0.16307E-04    0.18464E-04   624   0.288E-04-0.356E-05
CGA:  24    -0.152419349785E+04   -0.58566E-05   -0.57350E-05   624   0.192E-04-0.111E-05
   4 F= -.15241935E+04 E0= -.15241935E+04  d E =-.104385E+01  mag=    16.0000
       N       E                     dE             d eps       ncg     rms          ort
SDA:   1    -0.151862004960E+04    0.55734E+01    0.00000E+00   624   0.185E+02 0.000E+00
CGA:   2    -0.152295842862E+04   -0.43384E+01   -0.43440E+01   624   0.450E+01-0.299E-02
CGA:   3    -0.152414993113E+04   -0.11915E+01   -0.11905E+01   624   0.128E+01-0.686E-02
CGA:   4    -0.152439856926E+04   -0.24864E+00   -0.24846E+00   624   0.293E+00-0.141E-02
CGA:   5    -0.152446070648E+04   -0.62137E-01   -0.62089E-01   624   0.840E-01-0.374E-03
CGA:   6    -0.152448531100E+04   -0.24605E-01   -0.24602E-01   624   0.408E-01-0.131E-04
CGA:   7    -0.152449895795E+04   -0.13647E-01   -0.13649E-01   624   0.221E-01-0.299E-03
CGA:   8    -0.152450636766E+04   -0.74097E-02   -0.74127E-02   624   0.948E-02-0.273E-03
CGA:   9    -0.152450949282E+04   -0.31252E-02   -0.31282E-02   624   0.389E-02-0.460E-03
CGA:  10    -0.152451056552E+04   -0.10727E-02   -0.10721E-02   624   0.156E-02-0.927E-05
CGA:  11    -0.152451104628E+04   -0.48075E-03   -0.47920E-03   624   0.766E-03-0.846E-04
CGA:  12    -0.152451125642E+04   -0.21015E-03   -0.21069E-03   624   0.292E-03 0.175E-04
CGA:  13    -0.152451135767E+04   -0.10125E-03   -0.10168E-03   624   0.136E-03-0.246E-04
CGA:  14    -0.152451140063E+04   -0.42961E-04   -0.43977E-04   624   0.106E-03-0.344E-04
CGA:  15    -0.152451141127E+04   -0.10637E-04   -0.14110E-04   624   0.445E-04 0.236E-04
CGA:  16    -0.152451141981E+04   -0.85451E-05   -0.10730E-04   624   0.353E-04 0.180E-04
CGA:  17    -0.152451143785E+04   -0.18032E-04   -0.18156E-04   624   0.364E-04-0.249E-05
CGA:  18    -0.152451145253E+04   -0.14686E-04   -0.14389E-04   624   0.572E-04 0.215E-05
CGA:  19    -0.152451147144E+04   -0.18909E-04   -0.18911E-04   624   0.486E-04-0.848E-06
CGA:  20    -0.152451141589E+04    0.55547E-04   -0.59338E-04   624   0.392E-03-0.129E-03
CGA:  21    -0.152451147615E+04   -0.60258E-04   -0.72711E-04   624   0.100E-03 0.705E-04
CGA:  22    -0.152451151313E+04   -0.36979E-04   -0.36711E-04   624   0.258E-04-0.556E-05
CGA:  23    -0.152451151924E+04   -0.61060E-05   -0.67233E-05   624   0.168E-04 0.791E-05
   5 F= -.15245115E+04 E0= -.15245115E+04  d E =-.318021E+00  mag=    16.0000
       N       E                     dE             d eps       ncg     rms          ort
SDA:   1    -0.151956574189E+04    0.49458E+01    0.00000E+00   624   0.141E+02 0.000E+00
CGA:   2    -0.152328979213E+04   -0.37241E+01   -0.37228E+01   624   0.459E+01-0.140E-01
CGA:   3    -0.152437362691E+04   -0.10838E+01   -0.10839E+01   624   0.115E+01-0.123E-02
CGA:   4    -0.152458300701E+04   -0.20938E+00   -0.20963E+00   624   0.227E+00 0.226E-02
CGA:   5    -0.152463232955E+04   -0.49323E-01   -0.49346E-01   624   0.634E-01 0.208E-03
CGA:   6    -0.152464985639E+04   -0.17527E-01   -0.17509E-01   624   0.276E-01-0.288E-03
CGA:   7    -0.152465887576E+04   -0.90194E-02   -0.90198E-02   624   0.152E-01-0.498E-03
CGA:   8    -0.152466404205E+04   -0.51663E-02   -0.51728E-02   624   0.750E-02-0.338E-03
CGA:   9    -0.152466626401E+04   -0.22220E-02   -0.22196E-02   624   0.308E-02-0.821E-04
CGA:  10    -0.152466712291E+04   -0.85890E-03   -0.85174E-03   624   0.133E-02-0.144E-03
CGA:  11    -0.152466749292E+04   -0.37001E-03   -0.36905E-03   624   0.567E-03-0.251E-04
CGA:  12    -0.152466770391E+04   -0.21099E-03   -0.21544E-03   624   0.321E-03-0.682E-04
CGA:  13    -0.152466778164E+04   -0.77731E-04   -0.79308E-04   624   0.136E-03 0.352E-04
CGA:  14    -0.152466783946E+04   -0.57815E-04   -0.58800E-04   624   0.921E-04-0.152E-04
CGA:  15    -0.152466785732E+04   -0.17864E-04   -0.20587E-04   624   0.571E-04 0.359E-04
CGA:  16    -0.152466788859E+04   -0.31269E-04   -0.30257E-04   624   0.530E-04 0.169E-04
CGA:  17    -0.152466790904E+04   -0.20451E-04   -0.80053E-04   624   0.491E-03-0.727E-04
CGA:  18    -0.152466795894E+04   -0.49903E-04   -0.68136E-04   624   0.905E-04 0.827E-04
CGA:  19    -0.152466798810E+04   -0.29157E-04   -0.30014E-04   624   0.277E-04 0.117E-04
CGA:  20    -0.152466786072E+04    0.12738E-03   -0.43880E-04   624   0.140E-02-0.162E-03
CGA:  21    -0.152466799087E+04   -0.13015E-03   -0.16390E-03   624   0.742E-04 0.132E-03
CGA:  22    -0.152466800582E+04   -0.14951E-04   -0.18487E-04   624   0.375E-04 0.217E-04
CGA:  23    -0.152466802470E+04   -0.18880E-04   -0.19663E-04   624   0.473E-04-0.340E-04
CGA:  24    -0.152466802506E+04   -0.35939E-06   -0.50865E-05   624   0.114E-04 0.173E-04
   6 F= -.15246680E+04 E0= -.15246680E+04  d E =-.156506E+00  mag=    16.0000
       N       E                     dE             d eps       ncg     rms          ort
SDA:   1    -0.151136664116E+04    0.13301E+02    0.00000E+00   624   0.327E+02 0.000E+00
CGA:   2    -0.152182286546E+04   -0.10456E+02   -0.10454E+02   624   0.113E+02-0.354E-01
CGA:   3    -0.152416286770E+04   -0.23400E+01   -0.23444E+01   624   0.228E+01 0.446E-02
CGA:   4    -0.152458456375E+04   -0.42170E+00   -0.42230E+00   624   0.474E+00 0.715E-02
CGA:   5    -0.152468958530E+04   -0.10502E+00   -0.10510E+00   624   0.130E+00 0.806E-03
CGA:   6    -0.152472316609E+04   -0.33581E-01   -0.33579E-01   624   0.459E-01-0.191E-04
CGA:   7    -0.152473718854E+04   -0.14022E-01   -0.14016E-01   624   0.217E-01-0.234E-03
CGA:   8    -0.152474441116E+04   -0.72226E-02   -0.72255E-02   624   0.106E-01-0.594E-03
CGA:   9    -0.152474736008E+04   -0.29489E-02   -0.29557E-02   624   0.412E-02 0.178E-03
CGA:  10    -0.152474855848E+04   -0.11984E-02   -0.11938E-02   624   0.179E-02-0.999E-04
CGA:  11    -0.152474906104E+04   -0.50256E-03   -0.50778E-03   624   0.749E-03 0.155E-03
CGA:  12    -0.152474937825E+04   -0.31721E-03   -0.31495E-03   624   0.448E-03 0.356E-04
CGA:  13    -0.152474952912E+04   -0.15087E-03   -0.15135E-03   624   0.226E-03 0.108E-03
CGA:  14    -0.152474961839E+04   -0.89277E-04   -0.89756E-04   624   0.121E-03 0.707E-04
CGA:  15    -0.152474964425E+04   -0.25860E-04   -0.35702E-04   624   0.775E-04 0.962E-04
CGA:  16    -0.152474967075E+04   -0.26499E-04   -0.25936E-04   624   0.511E-04 0.417E-04
CGA:  17    -0.152474968220E+04   -0.11452E-04   -0.13565E-04   624   0.474E-04 0.375E-04
CGA:  18    -0.152474969856E+04   -0.16357E-04   -0.15879E-04   624   0.562E-04 0.297E-04
CGA:  19    -0.152474970440E+04   -0.58407E-05   -0.10028E-04   624   0.415E-04 0.297E-04
CGA:  20    -0.152474972004E+04   -0.15639E-04   -0.14549E-04   624   0.505E-04 0.285E-04
CGA:  21    -0.152474972451E+04   -0.44683E-05   -0.85637E-05   624   0.373E-04 0.283E-04
CGA:  22    -0.152474973915E+04   -0.14638E-04   -0.13283E-04   624   0.443E-04 0.278E-04
CGA:  23    -0.152474974258E+04   -0.34326E-05   -0.73634E-05   624   0.339E-04 0.274E-04
CGA:  24    -0.152474975671E+04   -0.14127E-04   -0.12424E-04   624   0.395E-04 0.268E-04
CGA:  25    -0.152474975917E+04   -0.24655E-05   -0.63253E-05   624   0.309E-04 0.265E-04
CGA:  26    -0.152474977254E+04   -0.13372E-04   -0.11476E-04   624   0.344E-04 0.261E-04
CGA:  27    -0.152474977435E+04   -0.18089E-05   -0.54702E-05   624   0.285E-04 0.256E-04
CGA:  28    -0.152474978678E+04   -0.12427E-04   -0.10540E-04   624   0.305E-04 0.251E-04
CGA:  29    -0.152474978817E+04   -0.13899E-05   -0.48301E-05   624   0.264E-04 0.245E-04
   7 F= -.15247498E+04 E0= -.15247498E+04  d E =-.817631E-01  mag=    16.0000
       N       E                     dE             d eps       ncg     rms          ort
SDA:   1    -0.152090909544E+04    0.38407E+01    0.00000E+00   624   0.954E+01 0.000E+00
CGA:   2    -0.152409215958E+04   -0.31831E+01   -0.31836E+01   624   0.331E+01-0.122E-01
CGA:   3    -0.152473132531E+04   -0.63917E+00   -0.63942E+00   624   0.669E+00 0.232E-02
CGA:   4    -0.152485955389E+04   -0.12823E+00   -0.12827E+00   624   0.134E+00 0.870E-03
CGA:   5    -0.152488823677E+04   -0.28683E-01   -0.28699E-01   624   0.352E-01 0.256E-03
CGA:   6    -0.152489674113E+04   -0.85044E-02   -0.84942E-02   624   0.111E-01-0.239E-03
CGA:   7    -0.152489992008E+04   -0.31789E-02   -0.31833E-02   624   0.463E-02-0.487E-03
CGA:   8    -0.152490136230E+04   -0.14422E-02   -0.14547E-02   624   0.216E-02-0.260E-03
CGA:   9    -0.152490193861E+04   -0.57631E-03   -0.57627E-03   624   0.822E-03-0.410E-04
CGA:  10    -0.152490216079E+04   -0.22218E-03   -0.22205E-03   624   0.312E-03-0.142E-04
CGA:  11    -0.152490227497E+04   -0.11417E-03   -0.11832E-03   624   0.207E-03-0.407E-04
CGA:  12    -0.152490235608E+04   -0.81114E-04   -0.89429E-04   624   0.230E-03-0.413E-04
CGA:  13    -0.152490240833E+04   -0.52245E-04   -0.52759E-04   624   0.131E-03 0.386E-04
CGA:  14    -0.152490246530E+04   -0.56976E-04   -0.55092E-04   624   0.787E-04 0.290E-04
CGA:  15    -0.152490249125E+04   -0.25944E-04   -0.26785E-04   624   0.563E-04 0.358E-04
CGA:  16    -0.152490250686E+04   -0.15613E-04   -0.18828E-04   624   0.331E-04 0.445E-04
CGA:  17    -0.152490251695E+04   -0.10093E-04   -0.99949E-05   624   0.212E-04 0.171E-04
CGA:  18    -0.152490251831E+04   -0.13596E-05   -0.35346E-05   624   0.170E-04 0.166E-04
   8 F= -.15249025E+04 E0= -.15249025E+04  d E =-.152730E+00  mag=    16.0000
       N       E                     dE             d eps       ncg     rms          ort
SDA:   1    -0.152173530446E+04    0.31672E+01    0.00000E+00   624   0.776E+01 0.000E+00
CGA:   2    -0.152435100330E+04   -0.26157E+01   -0.26164E+01   624   0.245E+01-0.141E-01
CGA:   3    -0.152484670962E+04   -0.49571E+00   -0.49640E+00   624   0.483E+00 0.743E-02
CGA:   4    -0.152493735612E+04   -0.90647E-01   -0.91010E-01   624   0.987E-01 0.368E-02
CGA:   5    -0.152495836972E+04   -0.21014E-01   -0.21030E-01   624   0.250E-01 0.247E-03
CGA:   6    -0.152496449813E+04   -0.61284E-02   -0.61132E-02   624   0.757E-02-0.422E-03
CGA:   7    -0.152496666491E+04   -0.21668E-02   -0.21704E-02   624   0.312E-02-0.261E-03
CGA:   8    -0.152496760365E+04   -0.93874E-03   -0.93560E-03   624   0.123E-02 0.100E-03
CGA:   9    -0.152496793663E+04   -0.33298E-03   -0.33641E-03   624   0.395E-03 0.224E-03
CGA:  10    -0.152496808697E+04   -0.15034E-03   -0.14979E-03   624   0.197E-03 0.131E-04
CGA:  11    -0.152496815737E+04   -0.70404E-04   -0.69247E-04   624   0.122E-03 0.187E-04
CGA:  12    -0.152496822485E+04   -0.67480E-04   -0.90413E-04   624   0.287E-03-0.603E-04
CGA:  13    -0.152496824594E+04   -0.21090E-04   -0.24692E-04   624   0.255E-03 0.239E-04
CGA:  14    -0.152496828982E+04   -0.43876E-04   -0.50402E-04   624   0.173E-03 0.536E-04
CGA:  15    -0.152496834715E+04   -0.57338E-04   -0.57162E-04   624   0.123E-03-0.123E-04
CGA:  16    -0.152496838943E+04   -0.42282E-04   -0.51271E-04   624   0.248E-03-0.597E-04
CGA:  17    -0.152496840745E+04   -0.18013E-04   -0.16894E-04   624   0.203E-03-0.793E-05
CGA:  18    -0.152496843497E+04   -0.27519E-04   -0.28056E-04   624   0.152E-03 0.323E-05
CGA:  19    -0.152496848131E+04   -0.46347E-04   -0.49480E-04   624   0.221E-03-0.829E-04
CGA:  20    -0.152496854082E+04   -0.59506E-04   -0.57822E-04   624   0.161E-03-0.724E-04
CGA:  21    -0.152496855796E+04   -0.17140E-04   -0.20253E-04   624   0.556E-04 0.328E-04
CGA:  22    -0.152496856178E+04   -0.38227E-05   -0.74965E-05   624   0.207E-04 0.222E-04
   9 F= -.15249686E+04 E0= -.15249686E+04  d E =-.660435E-01  mag=    16.0000
       N       E                     dE             d eps       ncg     rms          ort
SDA:   1    -0.151929382287E+04    0.56747E+01    0.00000E+00   624   0.136E+02 0.000E+00
CGA:   2    -0.152398536360E+04   -0.46915E+01   -0.46929E+01   624   0.417E+01-0.144E-01
CGA:   3    -0.152481382397E+04   -0.82846E+00   -0.82877E+00   624   0.814E+00 0.333E-02
CGA:   4    -0.152496701696E+04   -0.15319E+00   -0.15349E+00   624   0.167E+00 0.479E-02
CGA:   5    -0.152500305676E+04   -0.36040E-01   -0.36048E-01   624   0.414E-01 0.213E-03
CGA:   6    -0.152501307738E+04   -0.10021E-01   -0.10013E-01   624   0.122E-01-0.381E-03
CGA:   7    -0.152501653801E+04   -0.34606E-02   -0.34651E-02   624   0.501E-02-0.173E-03
CGA:   8    -0.152501805775E+04   -0.15197E-02   -0.15151E-02   624   0.208E-02 0.110E-03
CGA:   9    -0.152501860163E+04   -0.54388E-03   -0.54610E-03   624   0.672E-03 0.296E-03
CGA:  10    -0.152501882909E+04   -0.22746E-03   -0.22738E-03   624   0.271E-03 0.324E-05
CGA:  11    -0.152501890593E+04   -0.76835E-04   -0.76248E-04   624   0.106E-03 0.412E-04
CGA:  12    -0.152501896241E+04   -0.56484E-04   -0.66750E-04   624   0.150E-03-0.371E-04
CGA:  13    -0.152501897679E+04   -0.14382E-04   -0.18038E-04   624   0.113E-03 0.379E-04
CGA:  14    -0.152501899721E+04   -0.20413E-04   -0.25184E-04   624   0.582E-04 0.487E-04
CGA:  15    -0.152501901897E+04   -0.21761E-04   -0.21836E-04   624   0.371E-04 0.815E-05
CGA:  16    -0.152501902930E+04   -0.10330E-04   -0.10616E-04   624   0.295E-04 0.144E-04
CGA:  17    -0.152501903598E+04   -0.66843E-05   -0.79936E-05   624   0.178E-04 0.175E-04
CGA:  18    -0.152501904663E+04   -0.10648E-04    0.18294E-04   624   0.769E-05 0.807E-05
CGA:  19    -0.152501905245E+04   -0.58229E-05   -0.52488E-05   624   0.920E-05 0.275E-05
  10 F= -.15250191E+04 E0= -.15250191E+04  d E =-.504907E-01  mag=    16.0000
       N       E                     dE             d eps       ncg     rms          ort
SDA:   1    -0.149820107779E+04    0.26818E+02    0.00000E+00   624   0.641E+02 0.000E+00
CGA:   2    -0.152013428016E+04   -0.21933E+02   -0.21926E+02   624   0.193E+02 0.111E+00
CGA:   3    -0.152404103787E+04   -0.39068E+01   -0.39020E+01   624   0.380E+01-0.295E-02
CGA:   4    -0.152477167540E+04   -0.73064E+00   -0.73130E+00   624   0.808E+00 0.723E-02
CGA:   5    -0.152494969785E+04   -0.17802E+00   -0.17820E+00   624   0.221E+00 0.321E-02
CGA:   6    -0.152500392798E+04   -0.54230E-01   -0.54213E-01   624   0.733E-01-0.700E-03
CGA:   7    -0.152502538720E+04   -0.21459E-01   -0.21489E-01   624   0.313E-01-0.111E-02
CGA:   8    -0.152503531913E+04   -0.99319E-02   -0.99387E-02   624   0.126E-01-0.100E-03
CGA:   9    -0.152503914198E+04   -0.38228E-02   -0.38241E-02   624   0.443E-02-0.302E-04
CGA:  10    -0.152504043648E+04   -0.12945E-02   -0.12974E-02   624   0.168E-02-0.133E-03
CGA:  11    -0.152504097482E+04   -0.53834E-03   -0.54466E-03   624   0.900E-03-0.102E-03
CGA:  12    -0.152504131308E+04   -0.33827E-03   -0.35162E-03   624   0.737E-03-0.956E-04
CGA:  13    -0.152504157846E+04   -0.26538E-03   -0.26786E-03   624   0.508E-03-0.211E-04
CGA:  14    -0.152504177076E+04   -0.19229E-03   -0.19451E-03   624   0.318E-03-0.225E-04
CGA:  15    -0.152504184516E+04   -0.74406E-04   -0.77882E-04   624   0.138E-03 0.878E-04
CGA:  16    -0.152504190580E+04   -0.60638E-04   -0.58546E-04   624   0.848E-04 0.525E-04
CGA:  17    -0.152504194125E+04   -0.35449E-04   -0.35167E-04   624   0.718E-04 0.541E-04
CGA:  18    -0.152504195928E+04   -0.18031E-04   -0.18784E-04   624   0.469E-04 0.221E-04
CGA:  19    -0.152504198906E+04   -0.29781E-04   -0.26978E-04   624   0.467E-04 0.189E-04
CGA:  20    -0.152504200847E+04   -0.19404E-04   -0.19550E-04   624   0.322E-04 0.477E-04
CGA:  21    -0.152504201933E+04   -0.10864E-04   -0.10505E-04   624   0.192E-04 0.141E-04
CGA:  22    -0.152504202711E+04   -0.77842E-05   -0.79924E-05   624   0.164E-04 0.172E-04
  11 F= -.15250420E+04 E0= -.15250420E+04  d E =-.229747E-01  mag=    16.0000
       N       E                     dE             d eps       ncg     rms          ort
SDA:   1    -0.152007671781E+04    0.49653E+01    0.00000E+00   624   0.122E+02 0.000E+00
CGA:   2    -0.152399263519E+04   -0.39159E+01   -0.39159E+01   624   0.427E+01 0.403E-02
CGA:   3    -0.152486727707E+04   -0.87464E+00   -0.87431E+00   624   0.900E+00-0.479E-02
CGA:   4    -0.152503389756E+04   -0.16662E+00   -0.16668E+00   624   0.179E+00 0.352E-02
CGA:   5    -0.152507232889E+04   -0.38431E-01   -0.38507E-01   624   0.471E-01 0.939E-03
CGA:   6    -0.152508401617E+04   -0.11687E-01   -0.11700E-01   624   0.157E-01 0.290E-03
CGA:   7    -0.152508850146E+04   -0.44853E-02   -0.44864E-02   624   0.656E-02 0.237E-03
CGA:   8    -0.152509069170E+04   -0.21902E-02   -0.21895E-02   624   0.317E-02 0.201E-04
CGA:   9    -0.152509149737E+04   -0.80567E-03   -0.81978E-03   624   0.112E-02 0.444E-03
CGA:  10    -0.152509188959E+04   -0.39222E-03   -0.39176E-03   624   0.524E-03 0.272E-04
CGA:  11    -0.152509201972E+04   -0.13012E-03   -0.13618E-03   624   0.232E-03 0.169E-03
CGA:  12    -0.152509212097E+04   -0.10125E-03   -0.98298E-04   624   0.159E-03 0.890E-04
CGA:  13    -0.152509219568E+04   -0.74710E-04   -0.71574E-04   624   0.128E-03 0.881E-04
CGA:  14    -0.152509221025E+04   -0.14570E-04   -0.22321E-04   624   0.621E-04 0.668E-04
CGA:  15    -0.152509225893E+04   -0.48680E-04   -0.44129E-04   624   0.140E-03 0.102E-04
CGA:  16    -0.152509226807E+04   -0.91413E-05   -0.24988E-04   624   0.619E-04 0.103E-03
CGA:  17    -0.152509227648E+04   -0.84053E-05   -0.12118E-04   624   0.363E-04 0.359E-04
CGA:  18    -0.152509229912E+04   -0.22646E-04    0.88502E-04   624   0.338E-04 0.253E-04
CGA:  19    -0.152509229860E+04    0.52410E-06   -0.41276E-05   624   0.270E-04 0.271E-04
CGA:  20    -0.152509231605E+04   -0.17451E-04   -0.12698E-04   624   0.244E-04 0.254E-04
CGA:  21    -0.152509232319E+04   -0.71394E-05   -0.71573E-05   624   0.231E-04 0.233E-04
CGA:  22    -0.152509236048E+04   -0.37290E-04   -0.23506E-04   624   0.332E-04 0.186E-04
CGA:  23    -0.152509235746E+04    0.30161E-05   -0.26934E-05   624   0.197E-04 0.229E-04
  12 F= -.15250924E+04 E0= -.15250924E+04  d E =-.503303E-01  mag=    16.0000
       N       E                     dE             d eps       ncg     rms          ort
SDA:   1    -0.152168097005E+04    0.34114E+01    0.00000E+00   624   0.814E+01 0.000E+00
CGA:   2    -0.152449999399E+04   -0.28190E+01   -0.28189E+01   624   0.255E+01 0.309E-02
CGA:   3    -0.152500783313E+04   -0.50784E+00   -0.50705E+00   624   0.508E+00-0.228E-02
CGA:   4    -0.152510548254E+04   -0.97649E-01   -0.97464E-01   624   0.107E+00-0.208E-02
CGA:   5    -0.152512849364E+04   -0.23011E-01   -0.22995E-01   624   0.271E-01-0.151E-03
CGA:   6    -0.152513509214E+04   -0.65985E-02   -0.65757E-02   624   0.859E-02-0.426E-03
CGA:   7    -0.152513752078E+04   -0.24286E-02   -0.24268E-02   624   0.356E-02-0.291E-03
CGA:   8    -0.152513866841E+04   -0.11476E-02   -0.11607E-02   624   0.170E-02-0.288E-03
CGA:   9    -0.152513921906E+04   -0.55065E-03   -0.61972E-03   624   0.132E-02-0.674E-03
CGA:  10    -0.152513940258E+04   -0.18351E-03   -0.17176E-03   624   0.453E-03-0.135E-03
CGA:  11    -0.152513952078E+04   -0.11821E-03   -0.11778E-03   624   0.264E-03-0.705E-04
CGA:  12    -0.152513958935E+04   -0.68570E-04   -0.70117E-04   624   0.247E-03-0.792E-04
CGA:  13    -0.152513963347E+04   -0.44112E-04   -0.43848E-04   624   0.130E-03-0.606E-05
CGA:  14    -0.152513967312E+04   -0.39658E-04   -0.40569E-04   624   0.126E-03-0.376E-04
CGA:  15    -0.152513969990E+04   -0.26780E-04   -0.28227E-04   624   0.992E-04-0.794E-04
CGA:  16    -0.152513970927E+04   -0.93698E-05   -0.15297E-04   624   0.275E-04 0.417E-04
  13 F= -.15251397E+04 E0= -.15251397E+04  d E =-.473518E-01  mag=    16.0000
       N       E                     dE             d eps       ncg     rms          ort
SDA:   1    -0.152452887797E+04    0.61082E+00    0.00000E+00   624   0.150E+01 0.000E+00
CGA:   2    -0.152502339370E+04   -0.49452E+00   -0.49439E+00   624   0.534E+00 0.285E-02
CGA:   3    -0.152512916277E+04   -0.10577E+00   -0.10556E+00   624   0.102E+00-0.213E-02
CGA:   4    -0.152514825749E+04   -0.19095E-01   -0.18998E-01   624   0.216E-01-0.998E-03
CGA:   5    -0.152515272002E+04   -0.44625E-02   -0.44564E-02   624   0.522E-02-0.856E-04
CGA:   6    -0.152515392028E+04   -0.12003E-02   -0.12068E-02   624   0.143E-02 0.155E-03
CGA:   7    -0.152515432063E+04   -0.40036E-03   -0.40033E-03   624   0.540E-03 0.723E-04
CGA:   8    -0.152515451104E+04   -0.19041E-03   -0.19008E-03   624   0.261E-03 0.549E-05
CGA:   9    -0.152515460325E+04   -0.92205E-04   -0.96266E-04   624   0.146E-03-0.446E-04
CGA:  10    -0.152515463137E+04   -0.28116E-04   -0.28320E-04   624   0.507E-04 0.462E-05
CGA:  11    -0.152515463949E+04   -0.81263E-05   -0.98854E-05   624   0.209E-04 0.199E-04
  14 F= -.15251546E+04 E0= -.15251546E+04  d E =-.149302E-01  mag=    16.0000
       N       E                     dE             d eps       ncg     rms          ort
SDA:   1    -0.151795428400E+04    0.72003E+01    0.00000E+00   624   0.170E+02 0.000E+00
CGA:   2    -0.152387206664E+04   -0.59178E+01   -0.59181E+01   624   0.533E+01-0.288E-03
CGA:   3    -0.152494144934E+04   -0.10694E+01   -0.10685E+01   624   0.978E+00-0.893E-02
CGA:   4    -0.152512483441E+04   -0.18339E+00   -0.18336E+00   624   0.212E+00-0.170E-03
CGA:   5    -0.152516967169E+04   -0.44837E-01   -0.44862E-01   624   0.524E-01 0.470E-03
CGA:   6    -0.152518223160E+04   -0.12560E-01   -0.12563E-01   624   0.152E-01 0.137E-03
CGA:   7    -0.152518668556E+04   -0.44540E-02   -0.44594E-02   624   0.647E-02-0.175E-03
CGA:   8    -0.152518882273E+04   -0.21372E-02   -0.21452E-02   624   0.290E-02-0.107E-03
CGA:   9    -0.152518974831E+04   -0.92559E-03   -0.93098E-03   624   0.111E-02-0.896E-04
CGA:  10    -0.152519007535E+04   -0.32704E-03   -0.32947E-03   624   0.502E-03-0.667E-04
CGA:  11    -0.152519018480E+04   -0.10944E-03   -0.11226E-03   624   0.211E-03 0.837E-04
CGA:  12    -0.152519029995E+04   -0.11516E-03   -0.12437E-03   624   0.256E-03-0.399E-04
CGA:  13    -0.152519037715E+04   -0.77198E-04   -0.74461E-04   624   0.220E-03 0.340E-04
CGA:  14    -0.152519044842E+04   -0.71272E-04   -0.71232E-04   624   0.126E-03 0.485E-04
CGA:  15    -0.152519050348E+04   -0.55057E-04   -0.53106E-04   624   0.961E-04 0.321E-04
CGA:  16    -0.152519053115E+04   -0.27674E-04   -0.30025E-04   624   0.692E-04 0.590E-04
CGA:  17    -0.152519057082E+04   -0.39662E-04   -0.44666E-04   624   0.901E-04-0.141E-04
CGA:  18    -0.152519058565E+04   -0.14830E-04   -0.16916E-04   624   0.628E-04 0.304E-04
CGA:  19    -0.152519060851E+04   -0.22866E-04   -0.23639E-04   624   0.412E-04 0.390E-04
CGA:  20    -0.152519062186E+04   -0.13352E-04   -0.22058E-04   624   0.158E-03-0.367E-04
CGA:  21    -0.152519063592E+04   -0.14051E-04   -0.18953E-04   624   0.160E-04 0.265E-04
CGA:  22    -0.152519063746E+04   -0.15409E-05   -0.30884E-05   624   0.156E-04 0.113E-04
CGA:  23    -0.152519062269E+04    0.14769E-04   -0.10817E-04   624   0.559E-03-0.290E-04
CGA:  24    -0.152519068100E+04   -0.58312E-04   -0.68819E-04   624   0.118E-04 0.305E-04
CGA:  25    -0.152519068163E+04   -0.63362E-06   -0.27708E-05   624   0.112E-04 0.721E-05
CGA:  26    -0.152519059235E+04    0.89278E-04   -0.48288E-04   624   0.128E-02-0.470E-04
CGA:  27    -0.152519072410E+04   -0.13175E-03   -0.16101E-03   624   0.123E-04 0.535E-04
CGA:  28    -0.152519072366E+04    0.44232E-06   -0.24901E-05   624   0.687E-05 0.430E-05
  15 F= -.15251907E+04 E0= -.15251907E+04  d E =-.360842E-01  mag=    16.0000
       N       E                     dE             d eps       ncg     rms          ort
SDA:   1    -0.148752979603E+04    0.37661E+02    0.00000E+00   624   0.933E+02 0.000E+00
CGA:   2    -0.151359262984E+04   -0.26063E+02   -0.24760E+02   624   0.326E+02 0.735E+01
CGA:   3    -0.152136212725E+04   -0.77695E+01   -0.71734E+01   624   0.763E+01 0.335E+01
CGA:   4    -0.152285334414E+04   -0.14912E+01   -0.12264E+01   624   0.261E+01 0.158E+01
CGA:   5    -0.152323456580E+04   -0.38122E+00   -0.62550E+00   624   0.181E+01-0.501E+00
CGA:   6    -0.152328932857E+04   -0.54763E-01   -0.29315E-01   624   0.152E+01 0.133E+01
CGA:   7    -0.152334714918E+04   -0.57821E-01   -0.30127E-01   624   0.116E+01 0.145E+01
CGA:   8    -0.152339353030E+04   -0.46381E-01   -0.24832E-01   624   0.804E+00 0.106E+01
CGA:   9    -0.152342603497E+04   -0.32505E-01   -0.18558E-01   624   0.480E+00 0.649E+00
CGA:  10    -0.152344296725E+04   -0.16932E-01   -0.97123E-02   624   0.325E+00 0.396E+00
CGA:  11    -0.152346882481E+04   -0.25858E-01   -0.16134E-01   624   0.205E+00 0.216E+00
CGA:  12    -0.152353662219E+04   -0.67797E-01   -0.68453E-01   624   0.344E+00-0.622E-02
CGA:  13    -0.152354389705E+04   -0.72749E-02   -0.41724E-02   624   0.253E+00 0.289E+00
CGA:  14    -0.152354799572E+04   -0.40987E-02   -0.24489E-02   624   0.180E+00 0.218E+00
CGA:  15    -0.152355145039E+04   -0.34547E-02   -0.21439E-02   624   0.121E+00 0.149E+00
CGA:  16    -0.152355518640E+04   -0.37360E-02   -0.25114E-02   624   0.693E-01 0.880E-01
CGA:  17    -0.152356227246E+04   -0.70861E-02   -0.60412E-02   624   0.741E-01 0.248E-01
CGA:  18    -0.152358381086E+04   -0.21538E-01   -0.21525E-01   624   0.919E-01-0.321E-02
CGA:  19    -0.152358856896E+04   -0.47581E-02   -0.38091E-02   624   0.421E-01 0.441E-01
CGA:  20    -0.152359250921E+04   -0.39402E-02   -0.36690E-02   624   0.520E-01 0.205E-01
CGA:  21    -0.152359926965E+04   -0.67604E-02   -0.67030E-02   624   0.275E-01-0.351E-03
CGA:  22    -0.152360218428E+04   -0.29146E-02   -0.24098E-02   624   0.482E-01-0.382E-02
CGA:  23    -0.152360443554E+04   -0.22513E-02   -0.23609E-02   624   0.198E-01 0.258E-02
CGA:  24    -0.152360467784E+04   -0.24230E-03   -0.41147E-03   624   0.813E-02 0.812E-02
CGA:  25    -0.152360478616E+04   -0.10832E-03   -0.36606E-03   624   0.897E-02 0.304E-02
CGA:  26    -0.152360523018E+04   -0.44401E-03   -0.69602E-03   624   0.128E-01 0.126E-02
CGA:  27    -0.152360573707E+04   -0.50689E-03   -0.42345E-03   624   0.609E-02-0.852E-03
CGA:  28    -0.152360611134E+04   -0.37427E-03   -0.24515E-03   624   0.101E-01-0.779E-03
CGA:  29    -0.152360645613E+04   -0.34479E-03   -0.44980E-03   624   0.167E-01 0.511E-03
CGA:  30    -0.152360654331E+04   -0.87173E-04   -0.39579E-03   624   0.752E-02 0.479E-02
CGA:  31    -0.152360651301E+04    0.30301E-04   -0.17766E-03   624   0.464E-02 0.329E-02
CGA:  32    -0.152360655481E+04   -0.41798E-04   -0.23771E-03   624   0.850E-02 0.182E-02
CGA:  33    -0.152360697466E+04   -0.41986E-03   -0.53189E-03   624   0.124E-01 0.938E-03
CGA:  34    -0.152360742495E+04   -0.45029E-03   -0.29508E-03   624   0.567E-02-0.732E-03
CGA:  35    -0.152360773137E+04   -0.30642E-03   -0.14217E-03   624   0.644E-02-0.104E-02
CGA:  36    -0.152360799375E+04   -0.26238E-03   -0.20297E-03   624   0.128E-01-0.363E-03
CGA:  37    -0.152360808145E+04   -0.87697E-04   -0.29541E-03   624   0.841E-02 0.155E-02
CGA:  38    -0.152360801397E+04    0.67479E-04   -0.12655E-03   624   0.357E-02 0.274E-02
CGA:  39    -0.152360793615E+04    0.77815E-04   -0.77432E-04   624   0.302E-02 0.149E-02
CGA:  40    -0.152360789889E+04    0.37257E-04   -0.12775E-03   624   0.577E-02 0.142E-02
CGA:  41    -0.152360807735E+04   -0.17846E-03   -0.31021E-03   624   0.611E-02 0.109E-02
CGA:  42    -0.152360831218E+04   -0.23483E-03   -0.14818E-03   624   0.227E-02-0.627E-03
CGA:  43    -0.152360850857E+04   -0.19639E-03   -0.84441E-04   624   0.455E-02-0.114E-02
CGA:  44    -0.152360848977E+04    0.18798E-04   -0.11702E-03   624   0.153E-02 0.144E-02
CGA:  45    -0.152360858027E+04   -0.90496E-04   -0.13256E-03   624   0.214E-02 0.667E-03
CGA:  46    -0.152360894877E+04   -0.36850E-03   -0.27350E-03   624   0.353E-02-0.247E-02
CGA:  47    -0.152360889878E+04    0.49997E-04   -0.75058E-04   624   0.101E-02 0.133E-02
CGA:  48    -0.152360887016E+04    0.28612E-04   -0.37910E-04   624   0.900E-03 0.730E-03
CGA:  49    -0.152360910098E+04   -0.23081E-03    0.47050E-03   624   0.461E-02-0.847E-03
CGA:  50    -0.152360905000E+04    0.50976E-04   -0.75568E-04   624   0.595E-03 0.152E-02
CGA:  51    -0.152360901970E+04    0.30300E-04   -0.87432E-05   624   0.246E-03 0.407E-03
CGA:  52    -0.152360900955E+04    0.10154E-04   -0.60656E-05   624   0.203E-03 0.201E-03
CGA:  53    -0.152360905455E+04   -0.45003E-04    0.11047E-03   624   0.181E-03 0.186E-03
CGA:  54    -0.152360906561E+04   -0.11060E-04   -0.14567E-04   624   0.181E-03 0.166E-03
CGA:  55    -0.152360914590E+04   -0.80285E-04    0.74993E-05   624   0.307E-03 0.113E-03
CGA:  56    -0.152360913060E+04    0.15292E-04   -0.39546E-05   624   0.187E-03 0.221E-03
CGA:  57    -0.152360912227E+04    0.83289E-05   -0.37678E-05   624   0.158E-03 0.160E-03
CGA:  58    -0.152360914943E+04   -0.27158E-04   -0.21170E-04   624   0.149E-03 0.144E-03
CGA:  59    -0.152360921487E+04   -0.65436E-04    0.53096E-05   624   0.232E-03 0.988E-04
CGA:  60    -0.152360920299E+04    0.11875E-04   -0.27422E-05   624   0.154E-03 0.178E-03
CGA:  61    -0.152360919596E+04    0.70386E-05   -0.27205E-05   624   0.131E-03 0.135E-03
  16 F= -.15236092E+04 E0= -.15236016E+04  d E =0.158153E+01  mag=    16.0000
       N       E                     dE             d eps       ncg     rms          ort
SDA:   1    -0.151068157870E+04    0.12928E+02    0.00000E+00   624   0.356E+02 0.000E+00
CGA:   2    -0.152163249815E+04   -0.10951E+02   -0.10811E+02   624   0.122E+02 0.781E+00
CGA:   3    -0.152416843908E+04   -0.25359E+01   -0.25436E+01   624   0.328E+01-0.809E-01
CGA:   4    -0.152481295767E+04   -0.64452E+00   -0.64306E+00   624   0.621E+00 0.138E-01
CGA:   5    -0.152495018537E+04   -0.13723E+00   -0.13672E+00   624   0.183E+00 0.525E-02
CGA:   6    -0.152499974908E+04   -0.49564E-01   -0.49814E-01   624   0.703E-01-0.148E-02
CGA:   7    -0.152501871297E+04   -0.18964E-01   -0.19411E-01   624   0.274E-01-0.278E-02
CGA:   8    -0.152502682666E+04   -0.81137E-02   -0.96718E-02   624   0.155E-01-0.644E-02
CGA:   9    -0.152502982441E+04   -0.29977E-02   -0.33725E-02   624   0.614E-02-0.254E-02
CGA:  10    -0.152503118550E+04   -0.13611E-02   -0.17211E-02   624   0.353E-02-0.190E-02
CGA:  11    -0.152503186711E+04   -0.68161E-03   -0.96163E-03   624   0.291E-02-0.117E-02
CGA:  12    -0.152503232403E+04   -0.45691E-03   -0.10617E-02   624   0.436E-02-0.160E-02
CGA:  13    -0.152503311249E+04   -0.78847E-03   -0.78912E-03   624   0.118E-02 0.128E-03
CGA:  14    -0.152503346110E+04   -0.34860E-03   -0.33577E-03   624   0.368E-03 0.145E-03
CGA:  15    -0.152503359769E+04   -0.13659E-03   -0.12098E-03   624   0.175E-03 0.154E-03
CGA:  16    -0.152503366349E+04   -0.65797E-04   -0.60020E-04   624   0.113E-03 0.126E-03
CGA:  17    -0.152503369343E+04   -0.29939E-04   -0.27195E-04   624   0.833E-04 0.660E-04
CGA:  18    -0.152503372820E+04   -0.34774E-04   -0.28260E-04   624   0.958E-04 0.471E-04
CGA:  19    -0.152503375365E+04   -0.25450E-04   -0.24407E-04   624   0.979E-04 0.225E-04
CGA:  20    -0.152503386615E+04   -0.11250E-03   -0.74082E-04   624   0.589E-04 0.945E-04
CGA:  21    -0.152503388793E+04   -0.21778E-04   -0.37870E-04   624   0.332E-03-0.389E-04
CGA:  22    -0.152503393310E+04   -0.45174E-04   -0.45734E-04   624   0.373E-04 0.716E-05
CGA:  23    -0.152503400461E+04   -0.71510E-04   -0.73871E-05   624   0.241E-03 0.173E-05
CGA:  24    -0.152503418626E+04   -0.18165E-03   -0.28803E-03   624   0.686E-03-0.168E-03
CGA:  25    -0.152503427898E+04   -0.92722E-04   -0.96642E-04   624   0.246E-04 0.158E-04
CGA:  26    -0.152503429204E+04   -0.13064E-04   -0.14940E-04   624   0.538E-04-0.142E-04
CGA:  27    -0.152503429589E+04   -0.38458E-05   -0.87244E-05   624   0.104E-04 0.159E-04
  17 F= -.15250343E+04 E0= -.15250343E+04  d E =-.142510E+01  mag=    16.0000
       N       E                     dE             d eps       ncg     rms          ort
SDA:   1    -0.152478238589E+04    0.25191E+00    0.00000E+00   624   0.908E+00 0.000E+00
CGA:   2    -0.152502606853E+04   -0.24368E+00   -0.24382E+00   624   0.387E+00 0.984E-03
CGA:   3    -0.152510749085E+04   -0.81422E-01   -0.81346E-01   624   0.889E-01-0.359E-03
CGA:   4    -0.152512467187E+04   -0.17181E-01   -0.17008E-01   624   0.191E-01-0.703E-03
CGA:   5    -0.152512860359E+04   -0.39317E-02   -0.39061E-02   624   0.473E-02-0.121E-03
CGA:   6    -0.152512974396E+04   -0.11404E-02   -0.11520E-02   624   0.158E-02 0.747E-04
CGA:   7    -0.152513018100E+04   -0.43704E-03   -0.44223E-03   624   0.549E-03 0.435E-04
CGA:   8    -0.152513038810E+04   -0.20710E-03   -0.20525E-03   624   0.299E-03-0.758E-04
CGA:   9    -0.152513048640E+04   -0.98303E-04   -0.97602E-04   624   0.183E-03-0.882E-04
CGA:  10    -0.152513052504E+04   -0.38640E-04   -0.36139E-04   624   0.834E-04-0.235E-04
CGA:  11    -0.152513055585E+04   -0.30805E-04   -0.37369E-04   624   0.134E-03-0.496E-04
CGA:  12    -0.152513057361E+04   -0.17764E-04   -0.22591E-04   624   0.294E-04 0.224E-04
CGA:  13    -0.152513058242E+04   -0.88045E-05   -0.26970E-04   624   0.153E-03-0.444E-04
CGA:  14    -0.152513059586E+04   -0.13441E-04   -0.22405E-04   624   0.249E-04 0.362E-04
CGA:  15    -0.152513060531E+04   -0.94490E-05   -0.88944E-05   624   0.101E-04-0.574E-05
CGA:  16    -0.152513061128E+04   -0.59741E-05    0.16200E-03   624   0.936E-05 0.241E-05
  18 F= -.15251306E+04 E0= -.15251306E+04  d E =-.963154E-01  mag=    16.0000
       N       E                     dE             d eps       ncg     rms          ort
SDA:   1    -0.152414981850E+04    0.98079E+00    0.00000E+00   624   0.287E+01 0.000E+00
CGA:   2    -0.152487567231E+04   -0.72585E+00   -0.72603E+00   624   0.124E+01 0.170E-02
CGA:   3    -0.152514444587E+04   -0.26877E+00   -0.26868E+00   624   0.282E+00-0.760E-03
CGA:   4    -0.152519639321E+04   -0.51947E-01   -0.51827E-01   624   0.581E-01-0.543E-03
CGA:   5    -0.152520843231E+04   -0.12039E-01   -0.12034E-01   624   0.144E-01-0.297E-04
CGA:   6    -0.152521194234E+04   -0.35100E-02   -0.35169E-02   624   0.473E-02 0.669E-04
CGA:   7    -0.152521326647E+04   -0.13241E-02   -0.13258E-02   624   0.166E-02 0.259E-04
CGA:   8    -0.152521382881E+04   -0.56233E-03   -0.56181E-03   624   0.761E-03-0.108E-03
CGA:   9    -0.152521406825E+04   -0.23945E-03   -0.23910E-03   624   0.340E-03-0.676E-04
CGA:  10    -0.152521417923E+04   -0.11098E-03   -0.11260E-03   624   0.233E-03-0.740E-04
CGA:  11    -0.152521423604E+04   -0.56807E-04   -0.56179E-04   624   0.148E-03-0.177E-04
CGA:  12    -0.152521429947E+04   -0.63431E-04   -0.81956E-04   624   0.242E-03-0.722E-04
CGA:  13    -0.152521434234E+04   -0.42866E-04   -0.42708E-04   624   0.191E-03-0.196E-04
CGA:  14    -0.152521440011E+04   -0.57778E-04   -0.57297E-04   624   0.112E-03-0.189E-04
CGA:  15    -0.152521443385E+04   -0.33735E-04   -0.33255E-04   624   0.803E-04-0.221E-04
CGA:  16    -0.152521444643E+04   -0.12576E-04   -0.13805E-04   624   0.384E-04 0.892E-05
CGA:  17    -0.152521445396E+04   -0.75332E-05   -0.91205E-05   624   0.219E-04 0.121E-04
  19 F= -.15252145E+04 E0= -.15252145E+04  d E =-.838427E-01  mag=    16.0000
       N       E                     dE             d eps       ncg     rms          ort
SDA:   1    -0.152514259860E+04    0.71848E-01    0.00000E+00   624   0.233E+00 0.000E+00
CGA:   2    -0.152519810018E+04   -0.55502E-01   -0.55520E-01   624   0.958E-01 0.227E-03
CGA:   3    -0.152521940936E+04   -0.21309E-01   -0.21335E-01   624   0.223E-01 0.220E-03
CGA:   4    -0.152522334669E+04   -0.39373E-02   -0.39483E-02   624   0.418E-02 0.821E-04
CGA:   5    -0.152522420436E+04   -0.85767E-03   -0.86203E-03   624   0.100E-02 0.404E-04
CGA:   6    -0.152522445725E+04   -0.25289E-03   -0.25137E-03   624   0.326E-03-0.254E-04
CGA:   7    -0.152522455726E+04   -0.10002E-03   -0.10059E-03   624   0.149E-03-0.484E-04
CGA:   8    -0.152522460130E+04   -0.44031E-04   -0.45786E-04   624   0.799E-04-0.309E-04
CGA:   9    -0.152522461735E+04   -0.16056E-04   -0.16364E-04   624   0.256E-04 0.622E-05
CGA:  10    -0.152522462798E+04   -0.10631E-04   -0.13894E-04   624   0.362E-04-0.165E-04
CGA:  11    -0.152522463337E+04   -0.53874E-05   -0.63250E-05   624   0.633E-05 0.670E-05
  20 F= -.15252246E+04 E0= -.15252246E+04  d E =-.101794E-01  mag=    16.0000
       N       E                     dE             d eps       ncg     rms          ort
SDA:   1    -0.152484114675E+04    0.38348E+00    0.00000E+00   624   0.112E+01 0.000E+00
CGA:   2    -0.152511163673E+04   -0.27049E+00   -0.27052E+00   624   0.459E+00 0.506E-03
CGA:   3    -0.152521284653E+04   -0.10121E+00   -0.10127E+00   624   0.106E+00 0.604E-03
CGA:   4    -0.152523152970E+04   -0.18683E-01   -0.18706E-01   624   0.196E-01 0.192E-03
CGA:   5    -0.152523555553E+04   -0.40258E-02   -0.40342E-02   624   0.468E-02 0.938E-04
CGA:   6    -0.152523671195E+04   -0.11564E-02   -0.11531E-02   624   0.148E-02-0.722E-04
CGA:   7    -0.152523714892E+04   -0.43697E-03   -0.43853E-03   624   0.627E-03-0.121E-03
CGA:   8    -0.152523734627E+04   -0.19735E-03   -0.20105E-03   624   0.314E-03-0.614E-04
CGA:   9    -0.152523743383E+04   -0.87554E-04   -0.87374E-04   624   0.117E-03 0.105E-04
CGA:  10    -0.152523748125E+04   -0.47422E-04   -0.52836E-04   624   0.107E-03-0.374E-04
CGA:  11    -0.152523750229E+04   -0.21039E-04   -0.20964E-04   624   0.682E-04-0.748E-05
CGA:  12    -0.152523748824E+04    0.14043E-04   -0.58653E-04   624   0.379E-03-0.117E-03
CGA:  13    -0.152523755118E+04   -0.62933E-04   -0.71968E-04   624   0.487E-04 0.646E-04
CGA:  14    -0.152523757160E+04   -0.20427E-04   -0.22036E-04   624   0.571E-04-0.252E-04
CGA:  15    -0.152523757298E+04   -0.13781E-05   -0.62018E-05   624   0.144E-04 0.223E-04
  21 F= -.15252376E+04 E0= -.15252376E+04  d E =-.129396E-01  mag=    16.0000
       N       E                     dE             d eps       ncg     rms          ort
SDA:   1    -0.152513797635E+04    0.99595E-01    0.00000E+00   624   0.277E+00 0.000E+00
CGA:   2    -0.152521299708E+04   -0.75021E-01   -0.75063E-01   624   0.113E+00 0.116E-02
CGA:   3    -0.152523676583E+04   -0.23769E-01   -0.23740E-01   624   0.239E-01-0.285E-03
CGA:   4    -0.152524107640E+04   -0.43106E-02   -0.42790E-02   624   0.456E-02-0.259E-03
CGA:   5    -0.152524201613E+04   -0.93973E-03   -0.93528E-03   624   0.109E-02-0.506E-04
CGA:   6    -0.152524226530E+04   -0.24917E-03   -0.25014E-03   624   0.312E-03 0.167E-04
CGA:   7    -0.152524235781E+04   -0.92509E-04   -0.92537E-04   624   0.129E-03-0.647E-05
CGA:   8    -0.152524240925E+04   -0.51443E-04   -0.65532E-04   624   0.158E-03-0.609E-04
CGA:   9    -0.152524242945E+04   -0.20196E-04   -0.19639E-04   624   0.804E-04-0.900E-05
CGA:  10    -0.152524244890E+04   -0.19454E-04   -0.18954E-04   624   0.448E-04-0.110E-04
CGA:  11    -0.152524246256E+04   -0.13657E-04   -0.15582E-04   624   0.495E-04-0.177E-04
CGA:  12    -0.152524246807E+04   -0.55089E-05   -0.59670E-05   624   0.371E-04 0.443E-05
CGA:  13    -0.152524247826E+04   -0.10193E-04   -0.10276E-04   624   0.255E-04 0.187E-05
CGA:  14    -0.152524248514E+04   -0.68781E-05   -0.14766E-04   624   0.770E-04-0.307E-04
  22 F= -.15252425E+04 E0= -.15252425E+04  d E =-.491215E-02  mag=    16.0000
       N       E                     dE             d eps       ncg     rms          ort
SDA:   1    -0.152353602213E+04    0.17065E+01    0.00000E+00   624   0.435E+01 0.000E+00
CGA:   2    -0.152481602338E+04   -0.12800E+01   -0.12800E+01   624   0.176E+01 0.232E-02
CGA:   3    -0.152517006928E+04   -0.35405E+00   -0.35381E+00   624   0.342E+00-0.107E-02
CGA:   4    -0.152523110198E+04   -0.61033E-01   -0.60973E-01   624   0.668E-01-0.697E-03
CGA:   5    -0.152524492045E+04   -0.13818E-01   -0.13844E-01   624   0.158E-01 0.340E-03
CGA:   6    -0.152524865080E+04   -0.37304E-02   -0.37321E-02   624   0.457E-02 0.389E-04
CGA:   7    -0.152524999676E+04   -0.13460E-02   -0.13493E-02   624   0.190E-02-0.219E-03
CGA:   8    -0.152525061318E+04   -0.61643E-03   -0.61838E-03   624   0.893E-03-0.318E-04
CGA:   9    -0.152525092521E+04   -0.31203E-03   -0.32028E-03   624   0.449E-03-0.101E-03
CGA:  10    -0.152525102626E+04   -0.10104E-03   -0.10216E-03   624   0.167E-03 0.363E-04
CGA:  11    -0.152525109627E+04   -0.70017E-04   -0.84494E-04   624   0.209E-03-0.795E-04
CGA:  12    -0.152525111955E+04   -0.23277E-04   -0.24273E-04   624   0.157E-03 0.131E-04
CGA:  13    -0.152525115262E+04   -0.33068E-04   -0.35481E-04   624   0.949E-04 0.299E-04
CGA:  14    -0.152525118976E+04   -0.37138E-04   -0.37985E-04   624   0.882E-04-0.179E-04
CGA:  15    -0.152525120634E+04   -0.16580E-04   -0.17409E-04   624   0.733E-04 0.170E-04
CGA:  16    -0.152525122094E+04   -0.14609E-04   -0.17285E-04   624   0.463E-04 0.291E-04
CGA:  17    -0.152525124012E+04   -0.19180E-04   -0.19041E-04   624   0.378E-04 0.117E-04
CGA:  18    -0.152525125883E+04   -0.18703E-04   -0.18154E-04   624   0.543E-04 0.428E-05
CGA:  19    -0.152525126909E+04   -0.10266E-04   -0.12514E-04   624   0.465E-04 0.262E-04
CGA:  20    -0.152525128111E+04   -0.12019E-04   -0.14296E-04   624   0.333E-04 0.282E-04
CGA:  21    -0.152525129992E+04   -0.18809E-04    0.72567E-03   624   0.159E-04 0.489E-05
CGA:  22    -0.152525130050E+04   -0.57858E-06   -0.22469E-05   624   0.624E-05 0.106E-04
  23 F= -.15252513E+04 E0= -.15252513E+04  d E =-.881536E-02  mag=    16.0000
       N       E                     dE             d eps       ncg     rms          ort
SDA:   1    -0.152470362913E+04    0.54767E+00    0.00000E+00   624   0.132E+01 0.000E+00
CGA:   2    -0.152514716563E+04   -0.44354E+00   -0.44352E+00   624   0.469E+00 0.350E-03
CGA:   3    -0.152523862558E+04   -0.91460E-01   -0.91369E-01   624   0.837E-01-0.121E-02
CGA:   4    -0.152525418127E+04   -0.15556E-01   -0.15564E-01   624   0.179E-01 0.129E-03
CGA:   5    -0.152525786420E+04   -0.36829E-02   -0.36976E-02   624   0.414E-02 0.274E-03
CGA:   6    -0.152525888318E+04   -0.10190E-02   -0.10185E-02   624   0.118E-02-0.339E-04
CGA:   7    -0.152525922483E+04   -0.34165E-03   -0.34369E-03   624   0.490E-03-0.554E-04
CGA:   8    -0.152525936835E+04   -0.14352E-03   -0.14253E-03   624   0.195E-03 0.213E-04
CGA:   9    -0.152525942787E+04   -0.59521E-04   -0.58837E-04   624   0.671E-04 0.234E-04
CGA:  10    -0.152525944920E+04   -0.21329E-04   -0.21112E-04   624   0.265E-04 0.114E-04
CGA:  11    -0.152525946273E+04   -0.13523E-04   -0.16566E-04   624   0.404E-04-0.113E-04
CGA:  12    -0.152525946532E+04   -0.25987E-05   -0.35868E-05   624   0.314E-04 0.802E-05
  24 F= -.15252595E+04 E0= -.15252595E+04  d E =-.816482E-02  mag=    16.0000
       N       E                     dE             d eps       ncg     rms          ort
SDA:   1    -0.152509884584E+04    0.16062E+00    0.00000E+00   624   0.423E+00 0.000E+00
CGA:   2    -0.152522028874E+04   -0.12144E+00   -0.12143E+00   624   0.176E+00 0.818E-03
CGA:   3    -0.152525625710E+04   -0.35968E-01   -0.35891E-01   624   0.362E-01-0.122E-02
CGA:   4    -0.152526277040E+04   -0.65133E-02   -0.64863E-02   624   0.707E-02-0.317E-03
CGA:   5    -0.152526424424E+04   -0.14738E-02   -0.14703E-02   624   0.173E-02-0.707E-04
CGA:   6    -0.152526463497E+04   -0.39073E-03   -0.39213E-03   624   0.484E-03 0.503E-04
CGA:   7    -0.152526476601E+04   -0.13104E-03   -0.13080E-03   624   0.165E-03 0.330E-04
CGA:   8    -0.152526482983E+04   -0.63813E-04   -0.64798E-04   624   0.925E-04-0.867E-05
CGA:   9    -0.152526486075E+04   -0.30926E-04   -0.32809E-04   624   0.506E-04-0.166E-04
CGA:  10    -0.152526487465E+04   -0.13901E-04   -0.16579E-04   624   0.397E-04-0.202E-04
CGA:  11    -0.152526487748E+04   -0.28329E-05   -0.37284E-05   624   0.198E-04 0.766E-05
  25 F= -.15252649E+04 E0= -.15252649E+04  d E =-.541216E-02  mag=    16.0000
       N       E                     dE             d eps       ncg     rms          ort
SDA:   1    -0.152453895323E+04    0.72592E+00    0.00000E+00   624   0.173E+01 0.000E+00
CGA:   2    -0.152513308339E+04   -0.59413E+00   -0.59395E+00   624   0.575E+00 0.218E-02
CGA:   3    -0.152524805113E+04   -0.11497E+00   -0.11476E+00   624   0.101E+00-0.289E-02
CGA:   4    -0.152526672096E+04   -0.18670E-01   -0.18690E-01   624   0.220E-01 0.261E-03
CGA:   5    -0.152527133180E+04   -0.46108E-02   -0.46175E-02   624   0.514E-02 0.133E-03
CGA:   6    -0.152527256257E+04   -0.12308E-02   -0.12314E-02   624   0.144E-02 0.304E-04
CGA:   7    -0.152527297798E+04   -0.41541E-03   -0.41562E-03   624   0.588E-03-0.681E-05
CGA:   8    -0.152527317711E+04   -0.19914E-03   -0.19943E-03   624   0.276E-03-0.325E-05
CGA:   9    -0.152527325414E+04   -0.77023E-04   -0.76389E-04   624   0.904E-04 0.408E-04
CGA:  10    -0.152527329328E+04   -0.39146E-04   -0.43946E-04   624   0.795E-04-0.300E-04
CGA:  11    -0.152527329895E+04   -0.56641E-05   -0.81112E-05   624   0.450E-04 0.206E-04
  26 F= -.15252733E+04 E0= -.15252733E+04  d E =-.842146E-02  mag=    16.0000
       N       E                     dE             d eps       ncg     rms          ort
SDA:   1    -0.149086909048E+04    0.34404E+02    0.00000E+00   624   0.868E+02 0.000E+00
CGA:   2    -0.151540555875E+04   -0.24536E+02   -0.24529E+02   624   0.339E+02 0.210E+00
CGA:   3    -0.152249055193E+04   -0.70850E+01   -0.70782E+01   624   0.747E+01-0.265E-01
CGA:   4    -0.152387978505E+04   -0.13892E+01   -0.13915E+01   624   0.151E+01 0.128E-01
CGA:   5    -0.152419456775E+04   -0.31478E+00   -0.31505E+00   624   0.376E+00 0.615E-02
CGA:   6    -0.152429059022E+04   -0.96022E-01   -0.96026E-01   624   0.131E+00-0.240E-02
CGA:   7    -0.152432865922E+04   -0.38069E-01   -0.38179E-01   624   0.538E-01-0.276E-02
CGA:   8    -0.152434553005E+04   -0.16871E-01   -0.16853E-01   624   0.234E-01 0.286E-03
CGA:   9    -0.152435280969E+04   -0.72796E-02   -0.72910E-02   624   0.101E-01-0.201E-03
CGA:  10    -0.152435567208E+04   -0.28624E-02   -0.28648E-02   624   0.454E-02-0.746E-04
CGA:  11    -0.152435732934E+04   -0.16573E-02   -0.17478E-02   624   0.350E-02-0.717E-03
CGA:  12    -0.152435841175E+04   -0.10824E-02   -0.10773E-02   624   0.235E-02 0.436E-04
CGA:  13    -0.152435942269E+04   -0.10109E-02   -0.10075E-02   624   0.164E-02 0.702E-05
CGA:  14    -0.152436002350E+04   -0.60081E-03   -0.58230E-03   624   0.917E-03 0.239E-03
CGA:  15    -0.152436048250E+04   -0.45900E-03   -0.50907E-03   624   0.119E-02-0.260E-03
CGA:  16    -0.152436063921E+04   -0.15671E-03   -0.17296E-03   624   0.724E-03 0.169E-03
CGA:  17    -0.152436082605E+04   -0.18684E-03   -0.19650E-03   624   0.606E-03 0.177E-03
CGA:  18    -0.152436105583E+04   -0.22978E-03   -0.23239E-03   624   0.499E-03-0.133E-03
CGA:  19    -0.152436119001E+04   -0.13418E-03   -0.13229E-03   624   0.454E-03 0.291E-04
CGA:  20    -0.152436130029E+04   -0.11028E-03   -0.11335E-03   624   0.265E-03 0.515E-04
CGA:  21    -0.152436140773E+04   -0.10744E-03   -0.13819E-03   624   0.353E-03-0.175E-03
CGA:  22    -0.152436143786E+04   -0.30123E-04   -0.51326E-04   624   0.107E-03 0.141E-03
CGA:  23    -0.152436146333E+04   -0.25470E-04   -0.29951E-04   624   0.477E-04 0.499E-04
CGA:  24    -0.152436128596E+04    0.17737E-03   -0.97878E-04   624   0.164E-02-0.248E-03
CGA:  25    -0.152436145796E+04   -0.17200E-03   -0.22057E-03   624   0.250E-03 0.252E-03
CGA:  26    -0.152436156401E+04   -0.10605E-03   -0.10976E-03   624   0.114E-03-0.742E-04
CGA:  27    -0.152436152539E+04    0.38613E-04   -0.57082E-04   624   0.111E-02-0.253E-03
CGA:  28    -0.152436160532E+04   -0.79924E-04   -0.12440E-03   624   0.812E-04 0.196E-03
CGA:  29    -0.152436161157E+04   -0.62547E-05   -0.13271E-04   624   0.401E-04 0.351E-04
CGA:  30    -0.152436163268E+04   -0.21106E-04   -0.21907E-04   624   0.381E-04-0.159E-04
CGA:  31    -0.152436163731E+04   -0.46294E-05   -0.10670E-04   624   0.134E-03-0.464E-04
CGA:  32    -0.152436165540E+04   -0.18089E-04   -0.23380E-04   624   0.382E-04 0.328E-04
CGA:  33    -0.152436167661E+04   -0.21210E-04   -0.23140E-04   624   0.226E-04-0.126E-04
CGA:  34    -0.152436160291E+04    0.73694E-04   -0.40024E-04   624   0.882E-03-0.598E-04
CGA:  35    -0.152436172476E+04   -0.12185E-03   -0.12970E-03   624   0.598E-04 0.224E-04
CGA:  36    -0.152436175420E+04   -0.29442E-04   -0.29258E-04   624   0.262E-04-0.162E-05
CGA:  37    -0.152436176930E+04   -0.15101E-04   -0.11453E-04   624   0.663E-04-0.264E-04
CGA:  38    -0.152436176786E+04    0.14401E-05   -0.76721E-05   624   0.115E-04 0.199E-04
  27 F= -.15243618E+04 E0= -.15243618E+04  d E =0.911531E+00  mag=    16.0000
       N       E                     dE             d eps       ncg     rms          ort
SDA:   1    -0.151267447651E+04    0.11687E+02    0.00000E+00   624   0.312E+02 0.000E+00
CGA:   2    -0.152189190834E+04   -0.92174E+01   -0.92327E+01   624   0.121E+02 0.286E-01
CGA:   3    -0.152437351565E+04   -0.24816E+01   -0.24785E+01   624   0.281E+01 0.165E-03
CGA:   4    -0.152493260801E+04   -0.55909E+00   -0.55732E+00   624   0.596E+00-0.433E-02
CGA:   5    -0.152505430598E+04   -0.12170E+00   -0.12181E+00   624   0.158E+00 0.390E-03
CGA:   6    -0.152509392497E+04   -0.39619E-01   -0.39918E-01   624   0.535E-01 0.139E-02
CGA:   7    -0.152510901050E+04   -0.15086E-01   -0.15185E-01   624   0.196E-01 0.525E-03
CGA:   8    -0.152511563781E+04   -0.66273E-02   -0.65330E-02   624   0.832E-02-0.743E-03
CGA:   9    -0.152511834569E+04   -0.27079E-02   -0.26462E-02   624   0.337E-02-0.511E-03
CGA:  10    -0.152511940188E+04   -0.10562E-02   -0.10387E-02   624   0.161E-02-0.152E-03
CGA:  11    -0.152511999881E+04   -0.59693E-03   -0.59343E-03   624   0.131E-02-0.704E-04
CGA:  12    -0.152512060760E+04   -0.60879E-03   -0.62169E-03   624   0.168E-02-0.231E-03
CGA:  13    -0.152512123754E+04   -0.62995E-03   -0.63410E-03   624   0.159E-02-0.269E-03
CGA:  14    -0.152512186008E+04   -0.62254E-03   -0.64646E-03   624   0.148E-02-0.595E-03
CGA:  15    -0.152512203683E+04   -0.17674E-03   -0.19274E-03   624   0.643E-03 0.550E-04
CGA:  16    -0.152512216961E+04   -0.13278E-03   -0.15357E-03   624   0.353E-03 0.988E-04
CGA:  17    -0.152512226057E+04   -0.90955E-04   -0.95016E-04   624   0.206E-03 0.208E-04
CGA:  18    -0.152512228046E+04   -0.19897E-04   -0.42271E-04   624   0.135E-03 0.102E-03
CGA:  19    -0.152512228602E+04   -0.55523E-05   -0.30291E-04   624   0.759E-04 0.985E-04
CGA:  20    -0.152512232966E+04   -0.43639E-04   -0.44659E-04   624   0.121E-03-0.500E-05
CGA:  21    -0.152512232453E+04    0.51287E-05   -0.13247E-04   624   0.587E-04 0.655E-04
  28 F= -.15251223E+04 E0= -.15251223E+04  d E =-.760557E+00  mag=    16.0000
       N       E                     dE             d eps       ncg     rms          ort
SDA:   1    -0.152491454101E+04    0.20779E+00    0.00000E+00   624   0.749E+00 0.000E+00
CGA:   2    -0.152512453178E+04   -0.20999E+00   -0.20973E+00   624   0.336E+00-0.278E-02
CGA:   3    -0.152519135298E+04   -0.66821E-01   -0.66910E-01   624   0.709E-01 0.793E-03
CGA:   4    -0.152520497678E+04   -0.13624E-01   -0.13644E-01   624   0.148E-01 0.142E-03
CGA:   5    -0.152520805501E+04   -0.30782E-02   -0.30993E-02   624   0.379E-02 0.154E-03
CGA:   6    -0.152520903113E+04   -0.97612E-03   -0.96853E-03   624   0.137E-02-0.833E-04
CGA:   7    -0.152520945921E+04   -0.42808E-03   -0.42383E-03   624   0.621E-03-0.195E-03
CGA:   8    -0.152520960987E+04   -0.15066E-03   -0.15068E-03   624   0.226E-03 0.382E-06
CGA:   9    -0.152520969074E+04   -0.80864E-04   -0.82818E-04   624   0.150E-03-0.613E-04
CGA:  10    -0.152520971255E+04   -0.21808E-04   -0.23255E-04   624   0.606E-04 0.118E-04
CGA:  11    -0.152520972226E+04   -0.97161E-05   -0.47114E-04   624   0.267E-03-0.961E-04
CGA:  12    -0.152520977740E+04   -0.55139E-04   -0.55764E-04   624   0.367E-04 0.473E-05
CGA:  13    -0.152520978127E+04   -0.38688E-05   -0.61738E-05   624   0.124E-04 0.131E-04
  29 F= -.15252098E+04 E0= -.15252098E+04  d E =-.874567E-01  mag=    16.0000
       N       E                     dE             d eps       ncg     rms          ort
SDA:   1    -0.152428715278E+04    0.92262E+00    0.00000E+00   624   0.268E+01 0.000E+00
CGA:   2    -0.152495826055E+04   -0.67111E+00   -0.67093E+00   624   0.117E+01-0.274E-02
CGA:   3    -0.152520615792E+04   -0.24790E+00   -0.24779E+00   624   0.258E+00-0.105E-03
CGA:   4    -0.152525274207E+04   -0.46584E-01   -0.46643E-01   624   0.502E-01 0.377E-03
CGA:   5    -0.152526310032E+04   -0.10358E-01   -0.10420E-01   624   0.120E-01 0.554E-03
CGA:   6    -0.152526597594E+04   -0.28756E-02   -0.28816E-02   624   0.374E-02 0.812E-04
CGA:   7    -0.152526709241E+04   -0.11165E-02   -0.11138E-02   624   0.148E-02-0.195E-03
CGA:   8    -0.152526751536E+04   -0.42295E-03   -0.42314E-03   624   0.602E-03 0.263E-04
CGA:   9    -0.152526772466E+04   -0.20930E-03   -0.21145E-03   624   0.322E-03-0.582E-04
CGA:  10    -0.152526778943E+04   -0.64762E-04   -0.68826E-04   624   0.130E-03 0.549E-04
CGA:  11    -0.152526785610E+04   -0.66677E-04   -0.80274E-04   624   0.205E-03-0.618E-04
CGA:  12    -0.152526788494E+04   -0.28838E-04   -0.28811E-04   624   0.216E-03-0.232E-05
CGA:  13    -0.152526793850E+04   -0.53560E-04   -0.54987E-04   624   0.154E-03 0.219E-04
CGA:  14    -0.152526800724E+04   -0.68742E-04   -0.73204E-04   624   0.182E-03-0.409E-04
CGA:  15    -0.152526803972E+04   -0.32479E-04   -0.33524E-04   624   0.155E-03 0.118E-04
CGA:  16    -0.152526807402E+04   -0.34295E-04   -0.37416E-04   624   0.918E-04 0.324E-04
CGA:  17    -0.152526810095E+04   -0.26935E-04   -0.27724E-04   624   0.544E-04 0.113E-04
CGA:  18    -0.152526811089E+04   -0.99384E-05   -0.12574E-04   624   0.389E-04 0.251E-04
  30 F= -.15252681E+04 E0= -.15252681E+04  d E =-.583296E-01  mag=    16.0000
       N       E                     dE             d eps       ncg     rms          ort
SDA:   1    -0.152495706521E+04    0.31104E+00    0.00000E+00   624   0.908E+00 0.000E+00
CGA:   2    -0.152518815754E+04   -0.23109E+00   -0.23103E+00   624   0.380E+00-0.161E-02
CGA:   3    -0.152526871326E+04   -0.80556E-01   -0.80509E-01   624   0.852E-01-0.618E-03
CGA:   4    -0.152528389208E+04   -0.15179E-01   -0.15247E-01   624   0.163E-01 0.640E-03
CGA:   5    -0.152528714992E+04   -0.32578E-02   -0.32931E-02   624   0.364E-02 0.424E-03
CGA:   6    -0.152528804773E+04   -0.89781E-03   -0.89909E-03   624   0.115E-02 0.333E-04
CGA:   7    -0.152528839842E+04   -0.35068E-03   -0.35292E-03   624   0.485E-03-0.816E-04
CGA:   8    -0.152528853008E+04   -0.13166E-03   -0.13111E-03   624   0.187E-03 0.454E-04
CGA:   9    -0.152528858999E+04   -0.59915E-04   -0.59461E-04   624   0.780E-04 0.425E-04
CGA:  10    -0.152528861551E+04   -0.25514E-04   -0.25865E-04   624   0.416E-04 0.363E-04
CGA:  11    -0.152528864019E+04   -0.24680E-04   -0.22642E-04   624   0.384E-04 0.216E-04
CGA:  12    -0.152528865632E+04   -0.16132E-04   -0.15254E-04   624   0.288E-04 0.756E-05
CGA:  13    -0.152528868702E+04   -0.30700E-04   -0.23271E-04   624   0.332E-04 0.185E-04
CGA:  14    -0.152528870186E+04   -0.14840E-04   -0.14392E-04   624   0.282E-04 0.344E-05
CGA:  15    -0.152528870675E+04   -0.48900E-05   -0.68526E-05   624   0.203E-04 0.205E-04
CGA:  16    -0.152528871587E+04   -0.91201E-05   -0.28259E-04   624   0.147E-03-0.183E-04
CGA:  17    -0.152528873626E+04   -0.20391E-04   -0.26251E-04   624   0.296E-04 0.320E-04
CGA:  18    -0.152528875032E+04   -0.14064E-04   -0.14646E-04   624   0.318E-04-0.115E-04
CGA:  19    -0.152528875341E+04   -0.30815E-05   -0.45212E-05   624   0.357E-04 0.112E-04
CGA:  20    -0.152528876463E+04   -0.11220E-04   -0.13221E-04   624   0.290E-04 0.251E-04
CGA:  21    -0.152528878501E+04   -0.20380E-04    0.47253E-03   624   0.280E-04-0.230E-05
CGA:  22    -0.152528878807E+04   -0.30653E-05   -0.49071E-05   624   0.124E-04 0.117E-04
  31 F= -.15252888E+04 E0= -.15252888E+04  d E =-.206772E-01  mag=    16.0000
       N       E                     dE             d eps       ncg     rms          ort
SDA:   1    -0.152489169264E+04    0.39709E+00    0.00000E+00   624   0.107E+01 0.000E+00
CGA:   2    -0.152519134869E+04   -0.29966E+00   -0.29955E+00   624   0.417E+00-0.218E-02
CGA:   3    -0.152527778701E+04   -0.86438E-01   -0.86383E-01   624   0.917E-01-0.538E-03
CGA:   4    -0.152529443084E+04   -0.16644E-01   -0.16762E-01   624   0.179E-01 0.873E-03
CGA:   5    -0.152529797318E+04   -0.35423E-02   -0.35914E-02   624   0.404E-02 0.425E-03
CGA:   6    -0.152529901893E+04   -0.10457E-02   -0.10431E-02   624   0.134E-02-0.462E-04
CGA:   7    -0.152529941863E+04   -0.39971E-03   -0.39942E-03   624   0.574E-03-0.786E-04
CGA:   8    -0.152529958517E+04   -0.16653E-03   -0.16643E-03   624   0.231E-03 0.381E-04
CGA:   9    -0.152529966240E+04   -0.77231E-04   -0.77015E-04   624   0.913E-04 0.301E-04
CGA:  10    -0.152529969281E+04   -0.30416E-04   -0.30648E-04   624   0.420E-04 0.257E-04
CGA:  11    -0.152529972121E+04   -0.28399E-04   -0.29342E-04   624   0.578E-04-0.454E-05
CGA:  12    -0.152529973423E+04   -0.13021E-04   -0.13985E-04   624   0.478E-04 0.198E-04
CGA:  13    -0.152529975469E+04   -0.20455E-04   -0.20406E-04   624   0.363E-04 0.146E-04
CGA:  14    -0.152529978004E+04   -0.25352E-04   -0.28519E-04   624   0.740E-04-0.136E-04
CGA:  15    -0.152529978238E+04   -0.23393E-05   -0.57312E-05   624   0.623E-04 0.141E-04
  32 F= -.15252998E+04 E0= -.15252998E+04  d E =-.109943E-01  mag=    16.0000
       N       E                     dE             d eps       ncg     rms          ort
SDA:   1    -0.152516858370E+04    0.13120E+00    0.00000E+00   624   0.342E+00 0.000E+00
CGA:   2    -0.152527119951E+04   -0.10262E+00   -0.10261E+00   624   0.128E+00-0.112E-02
CGA:   3    -0.152529708781E+04   -0.25888E-01   -0.25915E-01   624   0.268E-01 0.243E-03
CGA:   4    -0.152530185667E+04   -0.47689E-02   -0.48350E-02   624   0.505E-02 0.548E-03
CGA:   5    -0.152530289265E+04   -0.10360E-02   -0.10500E-02   624   0.118E-02 0.150E-03
CGA:   6    -0.152530319795E+04   -0.30530E-03   -0.30431E-03   624   0.390E-03-0.237E-04
CGA:   7    -0.152530330118E+04   -0.10323E-03   -0.10327E-03   624   0.141E-03 0.204E-05
CGA:   8    -0.152530334404E+04   -0.42858E-04   -0.42681E-04   624   0.564E-04 0.150E-04
CGA:   9    -0.152530335256E+04   -0.85217E-05   -0.11547E-04   624   0.213E-04 0.287E-04
  33 F= -.15253034E+04 E0= -.15253034E+04  d E =-.357018E-02  mag=    16.0000
       N       E                     dE             d eps       ncg     rms          ort
SDA:   1    -0.152477073152E+04    0.53261E+00    0.00000E+00   624   0.133E+01 0.000E+00
CGA:   2    -0.152518107891E+04   -0.41035E+00   -0.41042E+00   624   0.523E+00-0.311E-02
CGA:   3    -0.152528347787E+04   -0.10240E+00   -0.10245E+00   624   0.101E+00 0.790E-03
CGA:   4    -0.152530174694E+04   -0.18269E-01   -0.18333E-01   624   0.202E-01 0.639E-03
CGA:   5    -0.152530585332E+04   -0.41064E-02   -0.41380E-02   624   0.460E-02 0.440E-03
CGA:   6    -0.152530700198E+04   -0.11487E-02   -0.11471E-02   624   0.141E-02-0.560E-04
CGA:   7    -0.152530741979E+04   -0.41781E-03   -0.42180E-03   624   0.622E-03-0.124E-03
CGA:   8    -0.152530758194E+04   -0.16215E-03   -0.16136E-03   624   0.229E-03 0.639E-04
CGA:   9    -0.152530766737E+04   -0.85436E-04   -0.85412E-04   624   0.110E-03 0.399E-06
CGA:  10    -0.152530768698E+04   -0.19609E-04   -0.22470E-04   624   0.410E-04 0.395E-04
CGA:  11    -0.152530770734E+04   -0.20355E-04   -0.21202E-04   624   0.401E-04-0.803E-05
CGA:  12    -0.152530771496E+04   -0.76194E-05   -0.22396E-04   624   0.112E-03-0.361E-04
CGA:  13    -0.152530772252E+04   -0.75583E-05   -0.15313E-04   624   0.339E-04 0.483E-04
  34 F= -.15253077E+04 E0= -.15253077E+04  d E =-.436995E-02  mag=    16.0000
       N       E                     dE             d eps       ncg     rms          ort
SDA:   1    -0.152512221264E+04    0.18550E+00    0.00000E+00   624   0.455E+00 0.000E+00
CGA:   2    -0.152526773065E+04   -0.14552E+00   -0.14550E+00   624   0.175E+00 0.553E-03
CGA:   3    -0.152530196671E+04   -0.34236E-01   -0.34160E-01   624   0.333E-01-0.797E-03
CGA:   4    -0.152530817801E+04   -0.62113E-02   -0.62082E-02   624   0.674E-02-0.174E-04
CGA:   5    -0.152530958699E+04   -0.14090E-02   -0.14097E-02   624   0.166E-02 0.117E-04
CGA:   6    -0.152530998923E+04   -0.40224E-03   -0.40126E-03   624   0.510E-03-0.302E-04
CGA:   7    -0.152531014451E+04   -0.15528E-03   -0.15861E-03   624   0.254E-03-0.750E-04
CGA:   8    -0.152531021826E+04   -0.73757E-04   -0.77417E-04   624   0.138E-03-0.441E-04
CGA:   9    -0.152531024708E+04   -0.28815E-04   -0.29060E-04   624   0.460E-04 0.100E-04
CGA:  10    -0.152531023872E+04    0.83560E-05   -0.42639E-04   624   0.273E-03-0.869E-04
CGA:  11    -0.152531027314E+04   -0.34421E-04   -0.42619E-04   624   0.401E-04 0.549E-04
CGA:  12    -0.152531028903E+04   -0.15886E-04   -0.22999E-04   624   0.658E-04-0.401E-04
CGA:  13    -0.152531029475E+04   -0.57199E-05   -0.94773E-05   624   0.129E-04 0.230E-04
  35 F= -.15253103E+04 E0= -.15253103E+04  d E =-.257223E-02  mag=    16.0000
       N       E                     dE             d eps       ncg     rms          ort
SDA:   1    -0.152518776797E+04    0.12252E+00    0.00000E+00   624   0.318E+00 0.000E+00
CGA:   2    -0.152528006830E+04   -0.92300E-01   -0.92318E-01   624   0.128E+00 0.243E-02
CGA:   3    -0.152530684196E+04   -0.26774E-01   -0.26674E-01   624   0.256E-01-0.109E-02
CGA:   4    -0.152531139874E+04   -0.45568E-02   -0.45421E-02   624   0.508E-02-0.120E-03
CGA:   5    -0.152531249279E+04   -0.10940E-02   -0.10841E-02   624   0.127E-02-0.136E-03
CGA:   6    -0.152531278078E+04   -0.28799E-03   -0.28899E-03   624   0.364E-03 0.198E-04
CGA:   7    -0.152531286680E+04   -0.86022E-04   -0.88547E-04   624   0.119E-03 0.609E-04
[...]
CGA:  14    -0.152451545582E+04   -0.10126E-02   -0.10476E-02   624   0.355E-02 0.642E-03
CGA:  15    -0.152451598430E+04   -0.52848E-03   -0.60955E-03   624   0.239E-02 0.103E-02
CGA:  16    -0.152451668191E+04   -0.69761E-03   -0.69559E-03   624   0.209E-02-0.297E-03
CGA:  17    -0.152451679342E+04   -0.11151E-03   -0.20392E-03   624   0.164E-02 0.784E-03
CGA:  18    -0.152451704427E+04   -0.25085E-03   -0.32549E-03   624   0.148E-02 0.939E-03
CGA:  19    -0.152450676166E+04    0.10283E-01   -0.64482E-02   624   0.145E+00-0.926E-02
CGA:  20    -0.152450980515E+04   -0.30435E-02   -0.17861E-02   624   0.109E+00 0.128E+00
CGA:  21    -0.152451269671E+04   -0.28916E-02   -0.17895E-02   624   0.715E-01 0.902E-01
CGA:  22    -0.152451517083E+04   -0.24741E-02   -0.16960E-02   624   0.366E-01 0.524E-01
CGA:  23    -0.152451671414E+04   -0.15433E-02   -0.13220E-02   624   0.115E-01 0.205E-01
CGA:  24    -0.152451719019E+04   -0.47606E-03   -0.68817E-03   624   0.279E-02 0.398E-02
CGA:  25    -0.152451740487E+04   -0.21467E-03   -0.39045E-03   624   0.282E-02 0.103E-02
CGA:  26    -0.152451803030E+04   -0.62543E-03   -0.55952E-03   624   0.632E-03-0.397E-03
CGA:  27    -0.152451711536E+04    0.91494E-03   -0.40150E-03   624   0.218E-01-0.284E-02
CGA:  28    -0.152451802152E+04   -0.90616E-03   -0.88339E-03   624   0.600E-02 0.114E-01
CGA:  29    -0.152451819781E+04   -0.17629E-03   -0.35353E-03   624   0.121E-02 0.213E-02
CGA:  30    -0.152451821990E+04   -0.22093E-04   -0.11482E-03   624   0.654E-03 0.528E-03
CGA:  31    -0.152451837736E+04   -0.15745E-03   -0.14553E-03   624   0.706E-03-0.882E-04
CGA:  32    -0.152451853899E+04   -0.16163E-03   -0.10721E-03   624   0.928E-03-0.522E-03
CGA:  33    -0.152451853059E+04    0.83990E-05   -0.61014E-04   624   0.260E-03 0.356E-03
CGA:  34    -0.152451855530E+04   -0.24710E-04   -0.39238E-04   624   0.182E-03 0.955E-04
CGA:  35    -0.152451870810E+04   -0.15280E-03    0.15786E-03   624   0.504E-03-0.176E-03
CGA:  36    -0.152451868145E+04    0.26643E-04   -0.24894E-04   624   0.175E-03 0.267E-03
CGA:  37    -0.152451867711E+04    0.43465E-05   -0.13110E-04   624   0.781E-04 0.104E-03
CGA:  38    -0.152451866206E+04    0.15048E-04   -0.79894E-04   624   0.961E-03-0.120E-03
CGA:  39    -0.152451873135E+04   -0.69294E-04   -0.10171E-03   624   0.140E-03 0.200E-03
CGA:  40    -0.152451885982E+04   -0.12846E-03    0.54092E-04   624   0.398E-03-0.171E-03
CGA:  41    -0.152451883132E+04    0.28501E-04   -0.17060E-04   624   0.136E-03 0.216E-03
CGA:  42    -0.152451882031E+04    0.11011E-04   -0.68536E-05   624   0.651E-04 0.882E-04
CGA:  43    -0.152451882021E+04    0.99710E-07   -0.60167E-05   624   0.326E-04 0.401E-04
  44 F= -.15245188E+04 E0= -.15245175E+04  d E =0.811659E+00  mag=    16.0000
       N       E                     dE             d eps       ncg     rms          ort
SDA:   1    -0.151614952101E+04    0.83693E+01    0.00000E+00   624   0.220E+02 0.000E+00
CGA:   2    -0.152302564111E+04   -0.68761E+01   -0.68710E+01   624   0.839E+01 0.458E-01
CGA:   3    -0.152471604268E+04   -0.16904E+01   -0.16900E+01   624   0.203E+01-0.312E-02
CGA:   4    -0.152511515327E+04   -0.39911E+00   -0.39940E+00   624   0.406E+00 0.491E-02
CGA:   5    -0.152520252138E+04   -0.87368E-01   -0.87383E-01   624   0.115E+00 0.730E-03
CGA:   6    -0.152523261066E+04   -0.30089E-01   -0.30140E-01   624   0.447E-01-0.198E-02
CGA:   7    -0.152524474844E+04   -0.12138E-01   -0.12201E-01   624   0.169E-01-0.156E-02
CGA:   8    -0.152524988659E+04   -0.51382E-02   -0.52575E-02   624   0.713E-02-0.144E-02
CGA:   9    -0.152525177656E+04   -0.18900E-02   -0.19127E-02   624   0.251E-02-0.442E-03
CGA:  10    -0.152525252838E+04   -0.75182E-03   -0.80867E-03   624   0.139E-02-0.584E-03
CGA:  11    -0.152525287103E+04   -0.34265E-03   -0.37762E-03   624   0.104E-02-0.337E-03
CGA:  12    -0.152525314298E+04   -0.27195E-03   -0.39933E-03   624   0.156E-02-0.509E-03
CGA:  13    -0.152525340101E+04   -0.25803E-03   -0.31001E-03   624   0.133E-02-0.437E-03
CGA:  14    -0.152525376492E+04   -0.36391E-03   -0.37945E-03   624   0.811E-03-0.142E-03
CGA:  15    -0.152525398135E+04   -0.21643E-03   -0.21598E-03   624   0.514E-03 0.220E-04
CGA:  16    -0.152525407703E+04   -0.95682E-04   -0.10938E-03   624   0.224E-03 0.182E-03
CGA:  17    -0.152525410842E+04   -0.31389E-04   -0.50339E-04   624   0.137E-03 0.168E-03
CGA:  18    -0.152525412807E+04   -0.19649E-04   -0.25938E-04   624   0.801E-04 0.751E-04
CGA:  19    -0.152525413027E+04   -0.22054E-05   -0.10774E-04   624   0.614E-04 0.639E-04
  45 F= -.15252541E+04 E0= -.15252541E+04  d E =-.735310E+00  mag=    16.0000
       N       E                     dE             d eps       ncg     rms          ort
SDA:   1    -0.152510810786E+04    0.14602E+00    0.00000E+00   624   0.427E+00 0.000E+00
CGA:   2    -0.152524735806E+04   -0.13925E+00   -0.13937E+00   624   0.166E+00-0.144E-02
CGA:   3    -0.152527855819E+04   -0.31200E-01   -0.31233E-01   624   0.388E-01 0.624E-03
CGA:   4    -0.152528659653E+04   -0.80383E-02   -0.80532E-02   624   0.654E-02 0.371E-03
CGA:   5    -0.152528811970E+04   -0.15232E-02   -0.15203E-02   624   0.230E-02-0.125E-03
CGA:   6    -0.152528870496E+04   -0.58526E-03   -0.58681E-03   624   0.884E-03-0.178E-03
CGA:   7    -0.152528893844E+04   -0.23348E-03   -0.23504E-03   624   0.317E-03-0.425E-04
CGA:   8    -0.152528900806E+04   -0.69618E-04   -0.70963E-04   624   0.942E-04 0.702E-04
CGA:   9    -0.152528904266E+04   -0.34602E-04   -0.34316E-04   624   0.424E-04 0.635E-05
CGA:  10    -0.152528905638E+04   -0.13720E-04   -0.13636E-04   624   0.198E-04 0.185E-05
CGA:  11    -0.152528906261E+04   -0.62265E-05   -0.60987E-05   624   0.109E-04 0.343E-05
  46 F= -.15252891E+04 E0= -.15252891E+04  d E =-.349323E-01  mag=    16.0000
       N       E                     dE             d eps       ncg     rms          ort
SDA:   1    -0.152521345524E+04    0.75601E-01    0.00000E+00   624   0.221E+00 0.000E+00
CGA:   2    -0.152527967340E+04   -0.66218E-01   -0.66299E-01   624   0.920E-01-0.282E-02
CGA:   3    -0.152529729844E+04   -0.17625E-01   -0.17732E-01   624   0.195E-01 0.142E-02
CGA:   4    -0.152530096202E+04   -0.36636E-02   -0.37331E-02   624   0.376E-02 0.878E-03
CGA:   5    -0.152530180950E+04   -0.84748E-03   -0.84946E-03   624   0.102E-02 0.411E-04
CGA:   6    -0.152530211893E+04   -0.30942E-03   -0.32207E-03   624   0.610E-03-0.256E-03
CGA:   7    -0.152530225204E+04   -0.13311E-03   -0.14038E-03   624   0.299E-03-0.171E-03
CGA:   8    -0.152530228494E+04   -0.32904E-04   -0.38636E-04   624   0.108E-03 0.657E-04
CGA:   9    -0.152530229512E+04   -0.10180E-04   -0.17516E-04   624   0.457E-04 0.564E-04
CGA:  10    -0.152530230846E+04   -0.13342E-04   -0.12968E-04   624   0.173E-04 0.137E-04
CGA:  11    -0.152530231055E+04   -0.20899E-05   -0.34313E-05   624   0.738E-05 0.128E-04
  47 F= -.15253023E+04 E0= -.15253023E+04  d E =-.132479E-01  mag=    16.0000
       N       E                     dE             d eps       ncg     rms          ort
SDA:   1    -0.152520546011E+04    0.96848E-01    0.00000E+00   624   0.268E+00 0.000E+00
CGA:   2    -0.152528213302E+04   -0.76673E-01   -0.76734E-01   624   0.113E+00-0.238E-02
CGA:   3    -0.152530466663E+04   -0.22534E-01   -0.22594E-01   624   0.235E-01 0.103E-02
CGA:   4    -0.152530891939E+04   -0.42528E-02   -0.43139E-02   624   0.456E-02 0.802E-03
CGA:   5    -0.152530990281E+04   -0.98341E-03   -0.98807E-03   624   0.112E-02 0.103E-03
CGA:   6    -0.152531023511E+04   -0.33230E-03   -0.34236E-03   624   0.569E-03-0.224E-03
CGA:   7    -0.152531037124E+04   -0.13613E-03   -0.14695E-03   624   0.299E-03-0.161E-03
CGA:   8    -0.152531041054E+04   -0.39299E-04   -0.42387E-04   624   0.102E-03 0.508E-04
CGA:   9    -0.152531042351E+04   -0.12972E-04   -0.18049E-04   624   0.432E-04 0.484E-04
CGA:  10    -0.152531043121E+04   -0.77031E-05   -0.10077E-04   624   0.194E-04 0.259E-04
CGA:  11    -0.152531044111E+04   -0.98920E-05    0.58353E-04   624   0.866E-05 0.806E-05
  48 F= -.15253104E+04 E0= -.15253104E+04  d E =-.813055E-02  mag=    16.0000
       N       E                     dE             d eps       ncg     rms          ort
SDA:   1    -0.152516323362E+04    0.14720E+00    0.00000E+00   624   0.393E+00 0.000E+00
CGA:   2    -0.152527656987E+04   -0.11334E+00   -0.11336E+00   624   0.160E+00-0.793E-03
CGA:   3    -0.152530951360E+04   -0.32944E-01   -0.32950E-01   624   0.325E-01 0.141E-03
CGA:   4    -0.152531540772E+04   -0.58941E-02   -0.59129E-02   624   0.637E-02 0.240E-03
CGA:   5    -0.152531673996E+04   -0.13322E-02   -0.13317E-02   624   0.153E-02-0.108E-04
CGA:   6    -0.152531713337E+04   -0.39341E-03   -0.39361E-03   624   0.537E-03-0.111E-03
CGA:   7    -0.152531727731E+04   -0.14395E-03   -0.14590E-03   624   0.219E-03-0.528E-04
CGA:   8    -0.152531732922E+04   -0.51904E-04   -0.51778E-04   624   0.730E-04 0.292E-04
CGA:   9    -0.152531735649E+04   -0.27273E-04   -0.27068E-04   624   0.348E-04 0.293E-05
CGA:  10    -0.152531737023E+04   -0.13742E-04   -0.18865E-04   624   0.473E-04-0.198E-04
CGA:  11    -0.152531737816E+04   -0.79248E-05   -0.85128E-05   624   0.100E-04 0.629E-05
  49 F= -.15253174E+04 E0= -.15253174E+04  d E =-.693705E-02  mag=    16.0000
       N       E                     dE             d eps       ncg     rms          ort
SDA:   1    -0.152489754757E+04    0.41982E+00    0.00000E+00   624   0.108E+01 0.000E+00
CGA:   2    -0.152521665313E+04   -0.31911E+00   -0.31910E+00   624   0.426E+00 0.201E-03
CGA:   3    -0.152530495371E+04   -0.88301E-01   -0.88264E-01   624   0.845E-01-0.506E-03
CGA:   4    -0.152532051715E+04   -0.15563E-01   -0.15529E-01   624   0.168E-01-0.387E-03
CGA:   5    -0.152532399070E+04   -0.34736E-02   -0.34632E-02   624   0.403E-02-0.175E-03
CGA:   6    -0.152532496350E+04   -0.97280E-03   -0.97159E-03   624   0.121E-02-0.603E-04
CGA:   7    -0.152532530098E+04   -0.33748E-03   -0.33780E-03   624   0.467E-03-0.157E-04
CGA:   8    -0.152532545373E+04   -0.15276E-03   -0.15246E-03   624   0.207E-03 0.440E-05
CGA:   9    -0.152532551675E+04   -0.63019E-04   -0.13530E-03   624   0.429E-03-0.190E-03
CGA:  10    -0.152532557625E+04   -0.59496E-04   -0.68217E-04   624   0.574E-04 0.691E-04
CGA:  11    -0.152532559829E+04   -0.22042E-04   -0.23122E-04   624   0.419E-04-0.160E-04
CGA:  12    -0.152532560344E+04   -0.51464E-05   -0.60525E-05   624   0.252E-04 0.109E-04
  50 F= -.15253256E+04 E0= -.15253256E+04  d E =-.822528E-02  mag=    16.0000
       N       E                     dE             d eps       ncg     rms          ort
SDA:   1    -0.152468907505E+04    0.63652E+00    0.00000E+00   624   0.161E+01 0.000E+00
CGA:   2    -0.152516879493E+04   -0.47972E+00   -0.47969E+00   624   0.621E+00 0.158E-02
CGA:   3    -0.152529620128E+04   -0.12741E+00   -0.12734E+00   624   0.128E+00-0.795E-03
CGA:   4    -0.152531944054E+04   -0.23239E-01   -0.23256E-01   624   0.250E-01 0.257E-03
CGA:   5    -0.152532470736E+04   -0.52668E-02   -0.52516E-02   624   0.616E-02-0.248E-03
CGA:   6    -0.152532619802E+04   -0.14907E-02   -0.14879E-02   624   0.191E-02-0.118E-03
CGA:   7    -0.152532669702E+04   -0.49900E-03   -0.49901E-03   624   0.670E-03 0.657E-04
CGA:   8    -0.152532694052E+04   -0.24350E-03   -0.24593E-03   624   0.343E-03-0.277E-04
CGA:   9    -0.152532704702E+04   -0.10651E-03   -0.10671E-03   624   0.145E-03-0.366E-05
CGA:  10    -0.152532701509E+04    0.31934E-04   -0.12410E-03   624   0.893E-03-0.264E-03
CGA:  11    -0.152532711921E+04   -0.10412E-03   -0.12626E-03   624   0.124E-03 0.141E-03
CGA:  12    -0.152532715517E+04   -0.35960E-04   -0.36282E-04   624   0.401E-04 0.757E-05
CGA:  13    -0.152532711412E+04    0.41054E-04   -0.54865E-04   624   0.501E-03-0.966E-04
CGA:  14    -0.152532717162E+04   -0.57501E-04   -0.72291E-04   624   0.765E-04 0.768E-04
CGA:  15    -0.152532720522E+04   -0.33595E-04   -0.37815E-04   624   0.615E-04-0.440E-04
CGA:  16    -0.152532722106E+04   -0.15840E-04   -0.15582E-04   624   0.881E-05-0.307E-05
CGA:  17    -0.152532722707E+04   -0.60189E-05    0.17548E-04   624   0.636E-05 0.241E-05
  51 F= -.15253272E+04 E0= -.15253272E+04  d E =-.162364E-02  mag=    16.0000
       N       E                     dE             d eps       ncg     rms          ort
SDA:   1    -0.152527073429E+04    0.56487E-01    0.00000E+00   624   0.148E+00 0.000E+00
CGA:   2    -0.152531724952E+04   -0.46515E-01   -0.46509E-01   624   0.582E-01-0.296E-03
CGA:   3    -0.152532869250E+04   -0.11443E-01   -0.11435E-01   624   0.127E-01-0.364E-04
CGA:   4    -0.152533126784E+04   -0.25753E-02   -0.25362E-02   624   0.264E-02-0.298E-03
CGA:   5    -0.152533181340E+04   -0.54556E-03   -0.54400E-03   624   0.712E-03-0.137E-04
CGA:   6    -0.152533197758E+04   -0.16419E-03   -0.16667E-03   624   0.225E-03 0.316E-04
CGA:   7    -0.152533205210E+04   -0.74519E-04   -0.74746E-04   624   0.110E-03-0.263E-04
CGA:   8    -0.152533208591E+04   -0.33812E-04   -0.35141E-04   624   0.628E-04-0.263E-04
CGA:   9    -0.152533197230E+04    0.11361E-03   -0.57476E-04   624   0.927E-03-0.192E-03
CGA:  10    -0.152533209400E+04   -0.12170E-03   -0.13478E-03   624   0.106E-03 0.657E-04
CGA:  11    -0.152533212657E+04   -0.32571E-04   -0.32494E-04   624   0.399E-04-0.113E-05
CGA:  12    -0.152533213639E+04   -0.98256E-05   -0.10643E-04   624   0.158E-04 0.110E-04
  52 F= -.15253321E+04 E0= -.15253321E+04  d E =-.490932E-02  mag=    16.0000
       N       E                     dE             d eps       ncg     rms          ort
SDA:   1    -0.152532344052E+04    0.86861E-02    0.00000E+00   624   0.239E-01 0.000E+00
CGA:   2    -0.152532979693E+04   -0.63564E-02   -0.63610E-02   624   0.100E-01 0.652E-04
CGA:   3    -0.152533192379E+04   -0.21269E-02   -0.21249E-02   624   0.214E-02-0.126E-04
CGA:   4    -0.152533231218E+04   -0.38838E-03   -0.38862E-03   624   0.401E-03 0.240E-05
CGA:   5    -0.152533239729E+04   -0.85115E-04   -0.84232E-04   624   0.103E-03-0.783E-05
CGA:   6    -0.152533242111E+04   -0.23819E-04   -0.23678E-04   624   0.313E-04-0.174E-05
CGA:   7    -0.152533243018E+04   -0.90719E-05   -0.90269E-05   624   0.127E-04-0.244E-05
CGA:   8    -0.152533234540E+04    0.84784E-04   -0.45669E-04   624   0.493E-03-0.630E-04
CGA:   9    -0.152533241565E+04   -0.70245E-04   -0.80729E-04   624   0.567E-04 0.266E-04
CGA:  10    -0.152533243931E+04   -0.23663E-04   -0.20457E-04   624   0.353E-04-0.155E-04
CGA:  11    -0.152533244103E+04   -0.17250E-05   -0.44388E-05   624   0.136E-04 0.752E-05
  53 F= -.15253324E+04 E0= -.15253324E+04  d E =-.304641E-03  mag=    16.0000
       N       E                     dE             d eps       ncg     rms          ort
SDA:   1    -0.152525770589E+04    0.74733E-01    0.00000E+00   624   0.194E+00 0.000E+00
CGA:   2    -0.152531313238E+04   -0.55426E-01   -0.55450E-01   624   0.775E-01 0.119E-03
CGA:   3    -0.152532906385E+04   -0.15931E-01   -0.15911E-01   624   0.163E-01-0.330E-04
CGA:   4    -0.152533196541E+04   -0.29016E-02   -0.29216E-02   624   0.302E-02 0.703E-04
CGA:   5    -0.152533259835E+04   -0.63294E-03   -0.63093E-03   624   0.730E-03-0.744E-05
CGA:   6    -0.152533278368E+04   -0.18533E-03   -0.17906E-03   624   0.225E-03-0.308E-04
CGA:   7    -0.152533284262E+04   -0.58942E-04   -0.58022E-04   624   0.805E-04-0.531E-05
CGA:   8    -0.152533287303E+04   -0.30403E-04   -0.29643E-04   624   0.471E-04-0.141E-04
CGA:   9    -0.152533287867E+04   -0.56381E-05   -0.79539E-05   624   0.154E-04 0.104E-04
  54 F= -.15253329E+04 E0= -.15253329E+04  d E =-.437631E-03  mag=    16.0000
       N       E                     dE             d eps       ncg     rms          ort
SDA:   1    -0.152503757060E+04    0.29530E+00    0.00000E+00   624   0.741E+00 0.000E+00
CGA:   2    -0.152526163807E+04   -0.22407E+00   -0.22402E+00   624   0.281E+00-0.503E-03
CGA:   3    -0.152531914169E+04   -0.57504E-01   -0.57451E-01   624   0.565E-01-0.127E-03
CGA:   4    -0.152532937314E+04   -0.10231E-01   -0.10251E-01   624   0.109E-01 0.877E-04
CGA:   5    -0.152533161046E+04   -0.22373E-02   -0.22507E-02   624   0.267E-02 0.747E-04
CGA:   6    -0.152533227802E+04   -0.66756E-03   -0.65564E-03   624   0.810E-03-0.884E-04
CGA:   7    -0.152533252619E+04   -0.24816E-03   -0.24198E-03   624   0.366E-03-0.982E-04
CGA:   8    -0.152533262706E+04   -0.10087E-03   -0.10035E-03   624   0.138E-03-0.916E-05
CGA:   9    -0.152533267621E+04   -0.49153E-04   -0.49118E-04   624   0.636E-04-0.215E-04
CGA:  10    -0.152533269702E+04   -0.20803E-04   -0.27668E-04   624   0.872E-04-0.460E-04
CGA:  11    -0.152533271833E+04   -0.21316E-04   -0.18451E-04   624   0.276E-04-0.174E-04
CGA:  12    -0.152533272066E+04   -0.23326E-05   -0.36513E-05   624   0.677E-05 0.667E-05
  55 F= -.15253327E+04 E0= -.15253327E+04  d E =0.158001E-03  mag=    16.0000
       N       E                     dE             d eps       ncg     rms          ort
SDA:   1    -0.152500488562E+04    0.32783E+00    0.00000E+00   624   0.827E+00 0.000E+00
CGA:   2    -0.152525199593E+04   -0.24711E+00   -0.24712E+00   624   0.316E+00 0.196E-03
CGA:   3    -0.152531664847E+04   -0.64653E-01   -0.64585E-01   624   0.643E-01-0.416E-03
CGA:   4    -0.152532806016E+04   -0.11412E-01   -0.11506E-01   624   0.121E-01 0.618E-03
CGA:   5    -0.152533060264E+04   -0.25425E-02   -0.25619E-02   624   0.297E-02 0.160E-03
CGA:   6    -0.152533134317E+04   -0.74053E-03   -0.73292E-03   624   0.928E-03-0.941E-04
CGA:   7    -0.152533159713E+04   -0.25396E-03   -0.25291E-03   624   0.351E-03-0.265E-04
CGA:   8    -0.152533170946E+04   -0.11233E-03   -0.11240E-03   624   0.156E-03-0.600E-05
CGA:   9    -0.152533173523E+04   -0.25778E-04   -0.31571E-04   624   0.498E-04 0.510E-04
CGA:  10    -0.152533175438E+04   -0.19149E-04   -0.19235E-04   624   0.242E-04 0.380E-05
CGA:  11    -0.152533175434E+04    0.43510E-07   -0.22992E-04   624   0.119E-03-0.406E-04
CGA:  12    -0.152533176283E+04   -0.84893E-05   -0.16157E-04   624   0.245E-04 0.377E-04
  56 F= -.15253318E+04 E0= -.15253318E+04  d E =0.957836E-03  mag=    16.0000
       N       E                     dE             d eps       ncg     rms          ort
SDA:   1    -0.152523099970E+04    0.10075E+00    0.00000E+00   624   0.263E+00 0.000E+00
CGA:   2    -0.152530760406E+04   -0.76604E-01   -0.76592E-01   624   0.103E+00-0.377E-03
CGA:   3    -0.152532853259E+04   -0.20929E-01   -0.20958E-01   624   0.214E-01 0.251E-03
CGA:   4    -0.152533244432E+04   -0.39117E-02   -0.39436E-02   624   0.408E-02 0.245E-03
CGA:   5    -0.152533329975E+04   -0.85543E-03   -0.85557E-03   624   0.101E-02 0.170E-05
CGA:   6    -0.152533354374E+04   -0.24399E-03   -0.24414E-03   624   0.290E-03 0.234E-05
CGA:   7    -0.152533361936E+04   -0.75622E-04   -0.76341E-04   624   0.972E-04 0.185E-04
CGA:   8    -0.152533365862E+04   -0.39257E-04   -0.41082E-04   624   0.621E-04-0.185E-04
CGA:   9    -0.152533366410E+04   -0.54778E-05   -0.83180E-05   624   0.243E-04 0.205E-04
  57 F= -.15253337E+04 E0= -.15253337E+04  d E =-.190127E-02  mag=    16.0000
       N       E                     dE             d eps       ncg     rms          ort
SDA:   1    -0.152532471332E+04    0.89453E-02    0.00000E+00   624   0.246E-01 0.000E+00
CGA:   2    -0.152533198137E+04   -0.72680E-02   -0.72678E-02   624   0.100E-01 0.499E-04
CGA:   3    -0.152533408692E+04   -0.21056E-02   -0.20868E-02   624   0.229E-02-0.231E-03
CGA:   4    -0.152533453369E+04   -0.44676E-03   -0.43631E-03   624   0.490E-03-0.114E-03
CGA:   5    -0.152533462168E+04   -0.87993E-04   -0.89699E-04   624   0.113E-03 0.194E-04
CGA:   6    -0.152533464404E+04   -0.22362E-04   -0.24021E-04   624   0.321E-04 0.234E-04
CGA:   7    -0.152533465539E+04   -0.11344E-04   -0.11328E-04   624   0.162E-04 0.839E-06
CGA:   8    -0.152533466129E+04   -0.59075E-05   -0.74177E-05   624   0.174E-04-0.872E-05
  58 F= -.15253347E+04 E0= -.15253347E+04  d E =-.997194E-03  mag=    16.0000
