       N       E                     dE             d eps       ncg     rms          ort
DAV:   1     0.251244983064E+04    0.25124E+04   -0.15760E+05 11088   0.159E+03
DAV:   2    -0.177362865710E+03   -0.26898E+04   -0.25353E+04 11088   0.428E+02
DAV:   3    -0.428081838069E+03   -0.25072E+03   -0.24476E+03 11088   0.148E+02
DAV:   4    -0.436447049148E+03   -0.83652E+01   -0.80260E+01 11088   0.274E+01
DAV:   5    -0.436887870295E+03   -0.44082E+00   -0.43372E+00 11088   0.468E+00
SDA:   6    -0.165305115219E+03    0.27158E+03   -0.43372E+00 11088   0.492E+04 0.000E+00
CGA:   7    -0.271215369301E+03   -0.10591E+03   -0.47860E+03 11088   0.121E+04-0.200E+03
CGA:   8    -0.195381053905E+03    0.75834E+02   -0.86117E+02 11088   0.124E+04-0.247E+03
CGA:   9    -0.281729655803E+03   -0.86349E+02   -0.38914E+02 11088   0.403E+03-0.108E+03
CGA:  10    -0.296672612917E+03   -0.14943E+02   -0.16988E+02 11088   0.712E+03-0.456E+03
CGA:  11    -0.299032571360E+03   -0.23600E+01   -0.36949E+02 11088   0.341E+03-0.151E+03
CGA:  12    -0.286642032727E+03    0.12391E+02   -0.93444E+01 11088   0.350E+03-0.352E+02
CGA:  13    -0.321405651262E+03   -0.34764E+02   -0.10709E+02 11088   0.670E+03-0.183E+03
CGA:  14    -0.306804150358E+03    0.14602E+02   -0.46622E+02 11088   0.212E+03-0.344E+02
CGA:  15    -0.291818129849E+03    0.14986E+02   -0.46470E+01 11088   0.107E+04 0.497E+01
CGA:  16    -0.299587990838E+03   -0.77699E+01   -0.34540E+02 11088   0.144E+04-0.712E+03
CGA:  17    -0.321616489266E+03   -0.22028E+02   -0.88934E+02 11088   0.973E+02-0.168E+03
CGA:  18    -0.326671249510E+03   -0.50548E+01   -0.28761E+01 11088   0.432E+02 0.713E+02
CGA:  19    -0.328613459739E+03   -0.19422E+01   -0.12734E+01 11088   0.107E+02 0.207E+02
CGA:  20    -0.329117874506E+03   -0.50441E+00   -0.31577E+00 11088   0.470E+01 0.938E+01
CGA:  21    -0.329681609508E+03   -0.56374E+00   -0.57983E+00 11088   0.125E+02-0.240E+01
CGA:  22    -0.330144490717E+03   -0.46288E+00   -0.60037E+00 11088   0.360E+01-0.171E+01
CGA:  23    -0.322423361380E+03    0.77211E+01   -0.99987E+00 11088   0.312E+03-0.141E+02
CGA:  24    -0.323718389069E+03   -0.12950E+01   -0.15732E+02 11088   0.156E+03-0.160E+03
CGA:  25    -0.330390385808E+03   -0.66720E+01   -0.60566E+01 11088   0.101E+03-0.177E+03
CGA:  26    -0.330005408157E+03    0.38498E+00   -0.46660E+01 11088   0.685E+02-0.465E+02
CGA:  27    -0.331768708885E+03   -0.17633E+01   -0.11386E+01 11088   0.842E+01 0.107E+02
CGA:  28    -0.331904120662E+03   -0.13541E+00   -0.76006E-01 11088   0.547E+01 0.763E+01
CGA:  29    -0.331993192341E+03   -0.89072E-01   -0.45959E-01 11088   0.417E+01 0.512E+01
CGA:  30    -0.332085513185E+03   -0.92321E-01   -0.49920E-01 11088   0.250E+01 0.346E+01
CGA:  31    -0.332168504915E+03   -0.82992E-01   -0.53259E-01 11088   0.907E+00 0.124E+01
CGA:  32    -0.332221851627E+03   -0.53347E-01   -0.43949E-01 11088   0.168E+01 0.178E+00
CGA:  33    -0.332306037607E+03   -0.84186E-01   -0.72906E-01 11088   0.646E+01 0.569E-01
CGA:  34    -0.332407812485E+03   -0.10177E+00   -0.12212E+00 11088   0.119E+02-0.233E+01
CGA:  35    -0.332301509755E+03    0.10630E+00   -0.88962E-01 11088   0.826E+01-0.190E+02
CGA:  36    -0.332534129804E+03   -0.23262E+00   -0.34663E+00 11088   0.272E+01-0.924E+00
CGA:  37    -0.332671065925E+03   -0.13694E+00   -0.14514E+00 11088   0.201E+01 0.770E-01
CGA:  38    -0.332808590805E+03   -0.13752E+00   -0.14034E+00 11088   0.833E+00 0.914E-01
CGA:  39    -0.332918264449E+03   -0.10967E+00   -0.11070E+00 11088   0.577E+00-0.138E-01
CGA:  40    -0.332970071903E+03   -0.51807E-01   -0.54792E-01 11088   0.320E+00-0.125E+00
CGA:  41    -0.333030386873E+03   -0.60315E-01   -0.56265E-01 11088   0.157E+00 0.358E-01
CGA:  42    -0.333045476613E+03   -0.15090E-01   -0.15081E-01 11088   0.843E-01-0.332E-02
CGA:  43    -0.333064280263E+03   -0.18804E-01   -0.14745E-02 11088   0.313E+00-0.608E-01
CGA:  44    -0.333100300773E+03   -0.36021E-01   -0.35245E-01 11088   0.815E-01-0.959E-02
CGA:  45    -0.333107446971E+03   -0.71462E-02   -0.69331E-02 11088   0.243E-01-0.297E-03
CGA:  46    -0.333113223504E+03   -0.57765E-02   -0.53655E-02 11088   0.361E-01 0.601E-02
CGA:  47    -0.333115618467E+03   -0.23950E-02   -0.14268E-01 11088   0.493E+00-0.737E-01
CGA:  48    -0.333143237536E+03   -0.27619E-01   -0.26835E-01 11088   0.111E+00-0.227E-01
CGA:  49    -0.333152559586E+03   -0.93221E-02   -0.82541E-02 11088   0.531E-01-0.896E-02
CGA:  50    -0.333148659422E+03    0.39002E-02   -0.25568E-01 11088   0.141E+01-0.119E+00
CGA:  51    -0.333191348926E+03   -0.42690E-01   -0.44804E-01 11088   0.228E+00-0.720E-01
CGA:  52    -0.333216011580E+03   -0.24663E-01   -0.24968E-01 11088   0.113E+00 0.958E-02
CGA:  53    -0.333234169612E+03   -0.18158E-01   -0.18257E-01 11088   0.463E+00 0.346E-02
CGA:  54    -0.333286914225E+03   -0.52745E-01   -0.38414E-01 11088   0.825E+00-0.266E-01
CGA:  55    -0.333416089824E+03   -0.12918E+00   -0.10321E+00 11088   0.183E+01-0.368E+00
CGA:  56    -0.333428783061E+03   -0.12693E-01   -0.14160E-01 11088   0.162E+01-0.235E+00
CGA:  57    -0.333460925332E+03   -0.32142E-01   -0.31426E-01 11088   0.137E+01-0.636E-01
CGA:  58    -0.333499710980E+03   -0.38786E-01   -0.34940E-01 11088   0.137E+01-0.189E-01
CGA:  59    -0.333534173651E+03   -0.34463E-01   -0.36285E-01 11088   0.138E+01-0.137E+00
CGA:  60    -0.333561234871E+03   -0.27061E-01   -0.30772E-01 11088   0.126E+01-0.152E+00
CGA:  61    -0.333585747239E+03   -0.24512E-01   -0.28349E-01 11088   0.104E+01-0.106E+00
CGA:  62    -0.333609498233E+03   -0.23751E-01   -0.25818E-01 11088   0.809E+00-0.233E-01
CGA:  63    -0.333632099426E+03   -0.22601E-01   -0.23810E-01 11088   0.634E+00 0.787E-02
CGA:  64    -0.333652342836E+03   -0.20243E-01   -0.21377E-01 11088   0.548E+00 0.116E-01
CGA:  65    -0.333671676744E+03   -0.19334E-01   -0.20424E-01 11088   0.530E+00 0.130E-01
CGA:  66    -0.333691390666E+03   -0.19714E-01   -0.20719E-01 11088   0.524E+00 0.137E-01
CGA:  67    -0.333710479876E+03   -0.19089E-01   -0.20025E-01 11088   0.473E+00 0.117E-01
CGA:  68    -0.333726791393E+03   -0.16312E-01   -0.17089E-01 11088   0.387E+00 0.122E-01
CGA:  69    -0.333739997056E+03   -0.13206E-01   -0.13885E-01 11088   0.316E+00 0.145E-01
CGA:  70    -0.333751228668E+03   -0.11232E-01   -0.11826E-01 11088   0.282E+00 0.209E-01
CGA:  71    -0.333761722921E+03   -0.10494E-01   -0.11118E-01 11088   0.275E+00 0.265E-01
CGA:  72    -0.333771825729E+03   -0.10103E-01   -0.11040E-01 11088   0.274E+00 0.277E-01
CGA:  73    -0.333781155123E+03   -0.93294E-02   -0.10549E-01 11088   0.254E+00 0.265E-01
CGA:  74    -0.333788999641E+03   -0.78445E-02   -0.89550E-02 11088   0.209E+00 0.250E-01
CGA:  75    -0.333795164709E+03   -0.61651E-02   -0.69922E-02 11088   0.165E+00 0.205E-01
CGA:  76    -0.333800189494E+03   -0.50248E-02   -0.57252E-02 11088   0.140E+00 0.125E-01
CGA:  77    -0.333804802768E+03   -0.46133E-02   -0.51648E-02 11088   0.131E+00 0.865E-02
CGA:  78    -0.333809413205E+03   -0.46104E-02   -0.49866E-02 11088   0.121E+00 0.633E-02
CGA:  79    -0.333813747169E+03   -0.43340E-02   -0.45913E-02 11088   0.104E+00 0.338E-02
CGA:  80    -0.333817531824E+03   -0.37847E-02   -0.38928E-02 11088   0.839E-01 0.168E-02
SDA:  81    -0.333820665086E+03   -0.31333E-02   -0.31544E-02 11088   0.678E-01 0.574E-03
CGA:  82    -0.333834127242E+03   -0.13462E-01   -0.13876E-01 11088   0.202E-01-0.313E-02
CGA:  83    -0.333836164862E+03   -0.20376E-02   -0.77915E-03 11088   0.425E-01-0.177E-01
CGA:  84    -0.333841531619E+03   -0.53668E-02   -0.53945E-02 11088   0.487E-02 0.432E-02
CGA:  85    -0.333843046177E+03   -0.15146E-02   -0.16413E-02 11088   0.187E-02-0.733E-03
CGA:  86    -0.333843529145E+03   -0.48297E-03    0.16016E-02 11088   0.125E-02 0.106E-02
CGA:  87    -0.333844019110E+03   -0.48997E-03   -0.71238E-03 11088   0.179E-02-0.527E-03
CGA:  88    -0.333844413458E+03   -0.39435E-03    0.49276E-03 11088   0.140E-02 0.602E-03
CGA:  89    -0.333841914325E+03    0.24991E-02   -0.14109E-02 11088   0.215E-01-0.503E-02
CGA:  90    -0.333845064159E+03   -0.31498E-02   -0.33158E-02 11088   0.235E-02 0.138E-02
CGA:  91    -0.333845686887E+03   -0.62273E-03   -0.61659E-03 11088   0.384E-03-0.142E-03
CGA:  92    -0.333845787531E+03   -0.10064E-03   -0.10190E-03 11088   0.189E-03 0.216E-03
CGA:  93    -0.333845826166E+03   -0.38635E-04   -0.44520E-04 11088   0.105E-03 0.113E-03
CGA:  94    -0.333845879376E+03   -0.53211E-04   -0.44888E-04 11088   0.895E-04 0.593E-04
CGA:  95    -0.333845874708E+03    0.46680E-05   -0.80209E-05 11088   0.548E-04 0.626E-04
   1 F= -.33384587E+03 E0= -.33384586E+03  d E =-.333846E+03  mag=     6.0000
       N       E                     dE             d eps       ncg     rms          ort
SDA:   1    -0.333916063777E+03   -0.70184E-01    0.00000E+00 11088   0.102E-01 0.000E+00
CGA:   2    -0.333919603995E+03   -0.35402E-02   -0.35298E-02 11088   0.356E-02 0.147E-03
CGA:   3    -0.333920423411E+03   -0.81942E-03   -0.79854E-03 11088   0.171E-02-0.366E-03
CGA:   4    -0.333920583433E+03   -0.16002E-03   -0.18446E-03 11088   0.309E-03 0.158E-03
CGA:   5    -0.333920626152E+03   -0.42719E-04   -0.50926E-04 11088   0.135E-03 0.702E-04
CGA:   6    -0.333920673404E+03   -0.47252E-04   -0.54282E-04 11088   0.224E-03-0.106E-03
CGA:   7    -0.333920682626E+03   -0.92216E-05   -0.21244E-04 11088   0.436E-04 0.705E-04
   2 F= -.33392068E+03 E0= -.33392067E+03  d E =-.748079E-01  mag=     6.0000
       N       E                     dE             d eps       ncg     rms          ort
SDA:   1    -0.332852520146E+03    0.10682E+01    0.00000E+00 11088   0.500E+01 0.000E+00
CGA:   2    -0.334622207878E+03   -0.17697E+01   -0.17715E+01 11088   0.168E+01-0.183E-01
CGA:   3    -0.334958914734E+03   -0.33671E+00   -0.33643E+00 11088   0.610E+00-0.627E-02
CGA:   4    -0.335046434152E+03   -0.87519E-01   -0.87632E-01 11088   0.140E+00 0.238E-02
CGA:   5    -0.335074798547E+03   -0.28364E-01   -0.28330E-01 11088   0.573E-01-0.724E-03
CGA:   6    -0.335085434993E+03   -0.10636E-01   -0.10560E-01 11088   0.222E-01-0.128E-02
CGA:   7    -0.335090651662E+03   -0.52167E-02   -0.52168E-02 11088   0.981E-02 0.845E-04
CGA:   8    -0.335093145838E+03   -0.24942E-02   -0.25099E-02 11088   0.471E-02-0.123E-02
CGA:   9    -0.335094066296E+03   -0.92046E-03   -0.92178E-03 11088   0.149E-02 0.697E-04
CGA:  10    -0.335094441130E+03   -0.37483E-03   -0.37526E-03 11088   0.465E-03-0.595E-04
CGA:  11    -0.335094571265E+03   -0.13013E-03   -0.13567E-03 11088   0.215E-03-0.897E-04
CGA:  12    -0.335094612634E+03   -0.41369E-04   -0.41354E-04 11088   0.762E-04-0.235E-05
CGA:  13    -0.335094635814E+03   -0.23180E-04   -0.23795E-04 11088   0.492E-04-0.891E-05
CGA:  14    -0.335094672296E+03   -0.36482E-04    0.78482E-05 11088   0.277E-04 0.416E-05
CGA:  15    -0.335094682164E+03   -0.98684E-05   -0.18599E-04 11088   0.714E-04-0.240E-04
CGA:  16    -0.335094700541E+03   -0.18377E-04   -0.29396E-04 11088   0.155E-03-0.760E-04
CGA:  17    -0.335094700599E+03   -0.57233E-07   -0.11696E-04 11088   0.271E-04 0.586E-04
   3 F= -.33509470E+03 E0= -.33509469E+03  d E =-.117402E+01  mag=     6.0000
       N       E                     dE             d eps       ncg     rms          ort
SDA:   1    -0.332535099390E+03    0.25596E+01    0.00000E+00 11088   0.678E+01 0.000E+00
CGA:   2    -0.334845449193E+03   -0.23103E+01   -0.23120E+01 11088   0.258E+01-0.205E-01
CGA:   3    -0.335317591622E+03   -0.47214E+00   -0.47213E+00 11088   0.949E+00-0.252E-02
CGA:   4    -0.335456446037E+03   -0.13885E+00   -0.13891E+00 11088   0.222E+00 0.196E-02
CGA:   5    -0.335497869599E+03   -0.41424E-01   -0.41373E-01 11088   0.860E-01-0.680E-03
CGA:   6    -0.335514528262E+03   -0.16659E-01   -0.16582E-01 11088   0.313E-01-0.147E-02
CGA:   7    -0.335522083165E+03   -0.75549E-02   -0.75558E-02 11088   0.150E-01-0.398E-03
CGA:   8    -0.335525756806E+03   -0.36736E-02   -0.36800E-02 11088   0.640E-02-0.123E-02
CGA:   9    -0.335527234814E+03   -0.14780E-02   -0.14806E-02 11088   0.250E-02-0.306E-03
CGA:  10    -0.335527865409E+03   -0.63059E-03   -0.64311E-03 11088   0.113E-02-0.483E-03
CGA:  11    -0.335528072106E+03   -0.20670E-03   -0.20385E-03 11088   0.480E-03-0.130E-03
CGA:  12    -0.335528137245E+03   -0.65139E-04   -0.21255E-03 11088   0.135E-02-0.574E-03
CGA:  13    -0.335528277412E+03   -0.14017E-03   -0.16143E-03 11088   0.220E-03 0.157E-03
CGA:  14    -0.335528350186E+03   -0.72774E-04   -0.89169E-04 11088   0.222E-03-0.146E-03
CGA:  15    -0.335528385475E+03   -0.35289E-04   -0.37946E-04 11088   0.373E-04 0.312E-04
CGA:  16    -0.335528411405E+03   -0.25930E-04    0.25197E-04 11088   0.352E-04-0.456E-06
CGA:  17    -0.335528421361E+03   -0.99560E-05   -0.33082E-04 11088   0.172E-03-0.346E-04
CGA:  18    -0.335528464569E+03   -0.43207E-04   -0.39993E-04 11088   0.142E-03-0.599E-04
CGA:  19    -0.335528462789E+03    0.17801E-05   -0.71657E-05 11088   0.614E-04 0.434E-04
   4 F= -.33552846E+03 E0= -.33552844E+03  d E =-.433762E+00  mag=     6.0000
       N       E                     dE             d eps       ncg     rms          ort
SDA:   1    -0.335377195050E+03    0.15127E+00    0.00000E+00 11088   0.414E+00 0.000E+00
CGA:   2    -0.335485903537E+03   -0.10871E+00   -0.10871E+00 11088   0.238E+00 0.281E-03
CGA:   3    -0.335524974367E+03   -0.39071E-01   -0.39080E-01 11088   0.742E-01 0.683E-04
CGA:   4    -0.335536255448E+03   -0.11281E-01   -0.11295E-01 11088   0.187E-01 0.103E-03
CGA:   5    -0.335539372531E+03   -0.31171E-02   -0.31189E-02 11088   0.571E-02 0.156E-04
CGA:   6    -0.335540539405E+03   -0.11669E-02   -0.11606E-02 11088   0.204E-02-0.142E-03
CGA:   7    -0.335540985931E+03   -0.44653E-03   -0.44615E-03 11088   0.874E-03-0.181E-04
CGA:   8    -0.335541186913E+03   -0.20098E-03   -0.20162E-03 11088   0.318E-03 0.547E-04
CGA:   9    -0.335541289672E+03   -0.10276E-03   -0.10824E-03 11088   0.191E-03-0.717E-04
CGA:  10    -0.335541327596E+03   -0.37924E-04   -0.38124E-04 11088   0.728E-04-0.200E-04
CGA:  11    -0.335540900578E+03    0.42702E-03   -0.23028E-03 11088   0.262E-02-0.391E-03
CGA:  12    -0.335541255933E+03   -0.35535E-03   -0.40096E-03 11088   0.496E-03 0.155E-03
CGA:  13    -0.335541352777E+03   -0.96844E-04   -0.92705E-04 11088   0.110E-03-0.158E-04
CGA:  14    -0.335541363683E+03   -0.10906E-04   -0.19002E-04 11088   0.312E-04 0.329E-04
CGA:  15    -0.335541364462E+03   -0.77880E-06   -0.64876E-05 11088   0.170E-04 0.226E-04
   5 F= -.33554136E+03 E0= -.33554133E+03  d E =-.129017E-01  mag=     6.0000
       N       E                     dE             d eps       ncg     rms          ort
SDA:   1    -0.335444953806E+03    0.96410E-01    0.00000E+00 11088   0.323E+00 0.000E+00
CGA:   2    -0.335524656719E+03   -0.79703E-01   -0.79811E-01 11088   0.189E+00 0.570E-03
CGA:   3    -0.335555975785E+03   -0.31319E-01   -0.31400E-01 11088   0.586E-01 0.341E-03
CGA:   4    -0.335564744724E+03   -0.87689E-02   -0.88182E-02 11088   0.146E-01 0.200E-03
CGA:   5    -0.335567170557E+03   -0.24258E-02   -0.24404E-02 11088   0.426E-02 0.700E-04
CGA:   6    -0.335567993290E+03   -0.82273E-03   -0.82491E-03 11088   0.141E-02 0.123E-04
CGA:   7    -0.335568265311E+03   -0.27202E-03   -0.29000E-03 11088   0.524E-03 0.131E-03
CGA:   8    -0.335568360970E+03   -0.95660E-04   -0.11448E-03 11088   0.182E-03 0.139E-03
CGA:   9    -0.335568394078E+03   -0.33108E-04   -0.43794E-04 11088   0.711E-04 0.769E-04
CGA:  10    -0.335568405895E+03   -0.11816E-04   -0.17941E-04 11088   0.292E-04 0.424E-04
CGA:  11    -0.335568409428E+03   -0.35334E-05   -0.54315E-05 11088   0.127E-04 0.147E-04
   6 F= -.33556841E+03 E0= -.33556839E+03  d E =-.270450E-01  mag=     6.0000
       N       E                     dE             d eps       ncg     rms          ort
SDA:   1    -0.335373340972E+03    0.19506E+00    0.00000E+00 11088   0.559E+00 0.000E+00
CGA:   2    -0.335507279068E+03   -0.13394E+00   -0.13402E+00 11088   0.331E+00 0.112E-02
CGA:   3    -0.335563251216E+03   -0.55972E-01   -0.56042E-01 11088   0.104E+00 0.495E-03
CGA:   4    -0.335578597772E+03   -0.15347E-01   -0.15405E-01 11088   0.252E-01 0.369E-03
CGA:   5    -0.335582759967E+03   -0.41622E-02   -0.41848E-02 11088   0.731E-02 0.184E-03
CGA:   6    -0.335584175926E+03   -0.14160E-02   -0.14201E-02 11088   0.242E-02 0.465E-04
CGA:   7    -0.335584658055E+03   -0.48213E-03   -0.49765E-03 11088   0.890E-03 0.229E-03
CGA:   8    -0.335584839916E+03   -0.18186E-03   -0.19706E-03 11088   0.314E-03 0.228E-03
CGA:   9    -0.335584905456E+03   -0.65539E-04   -0.75342E-04 11088   0.122E-03 0.131E-03
CGA:  10    -0.335584930823E+03   -0.25367E-04   -0.31228E-04 11088   0.501E-04 0.715E-04
CGA:  11    -0.335584939355E+03   -0.85319E-05   -0.99281E-05 11088   0.215E-04 0.234E-04
   7 F= -.33558494E+03 E0= -.33558492E+03  d E =-.165299E-01  mag=     6.0000
       N       E                     dE             d eps       ncg     rms          ort
SDA:   1    -0.335436844834E+03    0.14809E+00    0.00000E+00 11088   0.453E+00 0.000E+00
CGA:   2    -0.335527711311E+03   -0.90866E-01   -0.90910E-01 11088   0.251E+00 0.687E-03
CGA:   3    -0.335574559937E+03   -0.46849E-01   -0.46861E-01 11088   0.917E-01 0.150E-03
CGA:   4    -0.335587584291E+03   -0.13024E-01   -0.13071E-01 11088   0.191E-01 0.428E-03
CGA:   5    -0.335590587858E+03   -0.30036E-02   -0.30297E-02 11088   0.513E-02 0.321E-03
CGA:   6    -0.335591584788E+03   -0.99693E-03   -0.10001E-02 11088   0.160E-02 0.743E-04
CGA:   7    -0.335591889166E+03   -0.30438E-03   -0.31114E-03 11088   0.507E-03 0.168E-03
CGA:   8    -0.335591985822E+03   -0.96656E-04   -0.10354E-03 11088   0.175E-03 0.154E-03
CGA:   9    -0.335592015670E+03   -0.29848E-04   -0.36552E-04 11088   0.756E-04 0.100E-03
CGA:  10    -0.335592028205E+03   -0.12535E-04   -0.14005E-04 11088   0.352E-04 0.381E-04
CGA:  11    -0.335592030732E+03   -0.25266E-05   -0.48558E-05 11088   0.250E-04 0.277E-04
   8 F= -.33559203E+03 E0= -.33559202E+03  d E =-.709138E-02  mag=     6.0000
       N       E                     dE             d eps       ncg     rms          ort
SDA:   1    -0.334404429868E+03    0.11876E+01    0.00000E+00 11088   0.367E+01 0.000E+00
CGA:   2    -0.335089636049E+03   -0.68521E+00   -0.68537E+00 11088   0.192E+01 0.338E-02
CGA:   3    -0.335464962503E+03   -0.37533E+00   -0.37528E+00 11088   0.761E+00-0.294E-02
CGA:   4    -0.335572485829E+03   -0.10752E+00   -0.10757E+00 11088   0.146E+00 0.446E-03
CGA:   5    -0.335594647972E+03   -0.22162E-01   -0.22264E-01 11088   0.371E-01 0.178E-02
CGA:   6    -0.335601760960E+03   -0.71130E-02   -0.71255E-02 11088   0.111E-01 0.843E-03
CGA:   7    -0.335604007143E+03   -0.22462E-02   -0.22481E-02 11088   0.335E-02 0.381E-03
CGA:   8    -0.335604727752E+03   -0.72061E-03   -0.71881E-03 11088   0.110E-02 0.415E-03
CGA:   9    -0.335604991481E+03   -0.26373E-03   -0.26138E-03 11088   0.397E-03 0.309E-03
CGA:  10    -0.335605068926E+03   -0.77445E-04   -0.85492E-04 11088   0.158E-03 0.227E-03
CGA:  11    -0.335605080456E+03   -0.11530E-04   -0.19754E-04 11088   0.843E-04 0.107E-03
CGA:  12    -0.335605081711E+03   -0.12557E-05   -0.84182E-05 11088   0.644E-04 0.729E-04
   9 F= -.33560508E+03 E0= -.33560508E+03  d E =-.130510E-01  mag=     6.0000
       N       E                     dE             d eps       ncg     rms          ort
SDA:   1    -0.335075530481E+03    0.52955E+00    0.00000E+00 11088   0.135E+01 0.000E+00
CGA:   2    -0.335419647694E+03   -0.34412E+00   -0.34395E+00 11088   0.796E+00 0.229E-02
CGA:   3    -0.335547881240E+03   -0.12823E+00   -0.12818E+00 11088   0.228E+00-0.172E-02
CGA:   4    -0.335581945941E+03   -0.34065E-01   -0.34063E-01 11088   0.527E-01-0.135E-03
CGA:   5    -0.335590310651E+03   -0.83647E-02   -0.83750E-02 11088   0.141E-01 0.341E-03
CGA:   6    -0.335592969769E+03   -0.26591E-02   -0.26590E-02 11088   0.438E-02 0.714E-04
CGA:   7    -0.335593870810E+03   -0.90104E-03   -0.89653E-03 11088   0.151E-02 0.258E-03
CGA:   8    -0.335594258571E+03   -0.38776E-03   -0.38355E-03 11088   0.620E-03 0.795E-04
CGA:   9    -0.335594397525E+03   -0.13895E-03   -0.13581E-03 11088   0.219E-03 0.170E-03
CGA:  10    -0.335594442873E+03   -0.45348E-04   -0.47669E-04 11088   0.803E-04 0.117E-03
CGA:  11    -0.335594452127E+03   -0.92547E-05   -0.11524E-04 11088   0.386E-04 0.492E-04
  10 F= -.33559445E+03 E0= -.33559445E+03  d E =0.106296E-01  mag=     6.0000
       N       E                     dE             d eps       ncg     rms          ort
SDA:   1    -0.335506766759E+03    0.87676E-01    0.00000E+00 11088   0.251E+00 0.000E+00
CGA:   2    -0.335563403476E+03   -0.56637E-01   -0.56613E-01 11088   0.150E+00 0.471E-03
CGA:   3    -0.335589822304E+03   -0.26419E-01   -0.26420E-01 11088   0.484E-01 0.545E-04
CGA:   4    -0.335596957415E+03   -0.71351E-02   -0.71237E-02 11088   0.111E-01-0.327E-03
CGA:   5    -0.335598789269E+03   -0.18319E-02   -0.18290E-02 11088   0.331E-02-0.173E-03
CGA:   6    -0.335599405599E+03   -0.61633E-03   -0.61620E-03 11088   0.101E-02 0.163E-04
CGA:   7    -0.335599624378E+03   -0.21878E-03   -0.21842E-03 11088   0.389E-03 0.107E-04
CGA:   8    -0.335599714275E+03   -0.89896E-04   -0.88329E-04 11088   0.139E-03 0.382E-04
CGA:   9    -0.335599756295E+03   -0.42021E-04   -0.42381E-04 11088   0.619E-04-0.395E-05
CGA:  10    -0.335599763244E+03   -0.69484E-05   -0.83874E-05 11088   0.227E-04 0.282E-04
  11 F= -.33559976E+03 E0= -.33559976E+03  d E =-.531112E-02  mag=     6.0000
       N       E                     dE             d eps       ncg     rms          ort
SDA:   1    -0.335564192981E+03    0.35563E-01    0.00000E+00 11088   0.967E-01 0.000E+00
CGA:   2    -0.335582326285E+03   -0.18133E-01   -0.18129E-01 11088   0.467E-01 0.111E-02
CGA:   3    -0.335591267508E+03   -0.89412E-02   -0.89415E-02 11088   0.192E-01-0.739E-04
CGA:   4    -0.335594152253E+03   -0.28847E-02   -0.28748E-02 11088   0.425E-02-0.302E-03
CGA:   5    -0.335594818797E+03   -0.66654E-03   -0.66312E-03 11088   0.113E-02-0.145E-03
CGA:   6    -0.335595028893E+03   -0.21010E-03   -0.21073E-03 11088   0.355E-03-0.520E-04
CGA:   7    -0.335595090791E+03   -0.61898E-04   -0.61861E-04 11088   0.101E-03 0.315E-04
CGA:   8    -0.335595114339E+03   -0.23548E-04   -0.23083E-04 11088   0.352E-04 0.164E-04
CGA:   9    -0.335595123164E+03   -0.88254E-05   -0.85489E-05 11088   0.139E-04 0.106E-04
  12 F= -.33559512E+03 E0= -.33559512E+03  d E =0.464008E-02  mag=     6.0000
       N       E                     dE             d eps       ncg     rms          ort
SDA:   1    -0.335249611265E+03    0.34550E+00    0.00000E+00 11088   0.934E+00 0.000E+00
CGA:   2    -0.335457708151E+03   -0.20810E+00   -0.20781E+00 11088   0.473E+00 0.641E-02
CGA:   3    -0.335541157650E+03   -0.83449E-01   -0.83444E-01 11088   0.167E+00-0.812E-03
CGA:   4    -0.335566074885E+03   -0.24917E-01   -0.24881E-01 11088   0.370E-01-0.117E-02
CGA:   5    -0.335571881838E+03   -0.58070E-02   -0.57972E-02 11088   0.947E-02-0.442E-03
CGA:   6    -0.335573630417E+03   -0.17486E-02   -0.17495E-02 11088   0.293E-02-0.120E-03
CGA:   7    -0.335574184383E+03   -0.55397E-03   -0.55134E-03 11088   0.890E-03 0.242E-03
CGA:   8    -0.335574405519E+03   -0.22114E-03   -0.21597E-03 11088   0.348E-03 0.117E-03
CGA:   9    -0.335574500423E+03   -0.94904E-04   -0.90724E-04 11088   0.141E-03 0.864E-04
CGA:  10    -0.335574529342E+03   -0.28919E-04   -0.30073E-04 11088   0.555E-04 0.800E-04
CGA:  11    -0.335574537540E+03   -0.81979E-05   -0.89381E-05 11088   0.252E-04 0.321E-04
  13 F= -.33557454E+03 E0= -.33557454E+03  d E =0.205856E-01  mag=     6.0000
       N       E                     dE             d eps       ncg     rms          ort
SDA:   1    -0.334725518807E+03    0.84901E+00    0.00000E+00 11088   0.225E+01 0.000E+00
CGA:   2    -0.335272242084E+03   -0.54672E+00   -0.54564E+00 11088   0.105E+01 0.161E-01
CGA:   3    -0.335456714368E+03   -0.18447E+00   -0.18446E+00 11088   0.378E+00-0.203E-02
CGA:   4    -0.335513185195E+03   -0.56471E-01   -0.56386E-01 11088   0.824E-01-0.280E-02
CGA:   5    -0.335526167752E+03   -0.12983E-01   -0.12959E-01 11088   0.222E-01-0.108E-02
CGA:   6    -0.335530279939E+03   -0.41122E-02   -0.41137E-02 11088   0.702E-02-0.176E-03
CGA:   7    -0.335531668226E+03   -0.13883E-02   -0.13798E-02 11088   0.233E-02 0.461E-03
CGA:   8    -0.335532278464E+03   -0.61024E-03   -0.59602E-03 11088   0.101E-02 0.237E-03
CGA:   9    -0.335532565157E+03   -0.28669E-03   -0.27618E-03 11088   0.417E-03 0.160E-03
CGA:  10    -0.335532676875E+03   -0.11172E-03   -0.10740E-03 11088   0.142E-03 0.123E-03
CGA:  11    -0.335532711703E+03   -0.34828E-04   -0.34802E-04 11088   0.499E-04 0.715E-04
CGA:  12    -0.335532716520E+03   -0.48172E-05   -0.66391E-05 11088   0.256E-04 0.328E-04
  14 F= -.33553272E+03 E0= -.33553272E+03  d E =0.418210E-01  mag=     6.0000
       N       E                     dE             d eps       ncg     rms          ort
SDA:   1    -0.331351093050E+03    0.41816E+01    0.00000E+00 11088   0.112E+02 0.000E+00
CGA:   2    -0.334180088351E+03   -0.28290E+01   -0.28251E+01 11088   0.495E+01 0.479E-01
CGA:   3    -0.335054643732E+03   -0.87456E+00   -0.87449E+00 11088   0.180E+01-0.608E-02
CGA:   4    -0.335322486797E+03   -0.26784E+00   -0.26762E+00 11088   0.385E+00-0.722E-02
CGA:   5    -0.335383834324E+03   -0.61348E-01   -0.61294E-01 11088   0.108E+00-0.239E-02
CGA:   6    -0.335404039298E+03   -0.20205E-01   -0.20205E-01 11088   0.340E-01 0.360E-04
CGA:   7    -0.335411260138E+03   -0.72208E-02   -0.71926E-02 11088   0.128E-01 0.946E-03
CGA:   8    -0.335414642422E+03   -0.33823E-02   -0.33517E-02 11088   0.589E-02 0.428E-03
CGA:   9    -0.335416268669E+03   -0.16262E-02   -0.16080E-02 11088   0.254E-02 0.235E-03
CGA:  10    -0.335416897044E+03   -0.62837E-03   -0.61574E-03 11088   0.876E-03 0.299E-03
CGA:  11    -0.335417118270E+03   -0.22123E-03   -0.21827E-03 11088   0.310E-03 0.996E-04
CGA:  12    -0.335417159280E+03   -0.41009E-04   -0.48841E-04 11088   0.107E-03 0.148E-03
CGA:  13    -0.335417171813E+03   -0.12534E-04   -0.19005E-04 11088   0.581E-04 0.904E-04
CGA:  14    -0.335417178258E+03   -0.64445E-05   -0.82397E-05 11088   0.358E-04 0.385E-04
  15 F= -.33541718E+03 E0= -.33541718E+03  d E =0.115538E+00  mag=     6.0000
       N       E                     dE             d eps       ncg     rms          ort
SDA:   1    -0.334588026923E+03    0.82914E+00    0.00000E+00 11088   0.258E+01 0.000E+00
CGA:   2    -0.335138518147E+03   -0.55049E+00   -0.55068E+00 11088   0.128E+01-0.703E-02
CGA:   3    -0.335368851600E+03   -0.23033E+00   -0.23033E+00 11088   0.477E+00-0.224E-02
CGA:   4    -0.335439424725E+03   -0.70573E-01   -0.70656E-01 11088   0.109E+00 0.227E-02
CGA:   5    -0.335456533322E+03   -0.17109E-01   -0.17152E-01 11088   0.280E-01 0.183E-02
CGA:   6    -0.335461901690E+03   -0.53684E-02   -0.53658E-02 11088   0.886E-02 0.259E-03
CGA:   7    -0.335463859600E+03   -0.19579E-02   -0.19688E-02 11088   0.338E-02-0.271E-03
CGA:   8    -0.335464692699E+03   -0.83310E-03   -0.85071E-03 11088   0.153E-02-0.226E-03
CGA:   9    -0.335465085890E+03   -0.39319E-03   -0.41675E-03 11088   0.715E-03-0.224E-03
CGA:  10    -0.335465238934E+03   -0.15304E-03   -0.15575E-03 11088   0.232E-03-0.422E-04
CGA:  11    -0.335465292398E+03   -0.53464E-04   -0.96188E-04 11088   0.283E-03-0.173E-03
CGA:  12    -0.335465334874E+03   -0.42476E-04   -0.43006E-04 11088   0.591E-04 0.980E-05
CGA:  13    -0.335465317936E+03    0.16938E-04   -0.36222E-04 11088   0.465E-03-0.137E-03
CGA:  14    -0.335465365833E+03   -0.47897E-04   -0.49896E-04 11088   0.484E-04 0.177E-04
CGA:  15    -0.335465374464E+03   -0.86303E-05   -0.24282E-04 11088   0.774E-04-0.588E-04
CGA:  16    -0.335465386189E+03   -0.11725E-04   -0.12512E-04 11088   0.137E-04 0.114E-04
CGA:  17    -0.335465395162E+03   -0.89736E-05    0.68479E-05 11088   0.678E-05-0.680E-05
  16 F= -.33546540E+03 E0= -.33546539E+03  d E =-.482169E-01  mag=     6.0000
       N       E                     dE             d eps       ncg     rms          ort
SDA:   1    -0.335182382703E+03    0.28300E+00    0.00000E+00 11088   0.859E+00 0.000E+00
CGA:   2    -0.335392458738E+03   -0.21008E+00   -0.21000E+00 11088   0.422E+00-0.377E-02
CGA:   3    -0.335463889229E+03   -0.71430E-01   -0.71463E-01 11088   0.143E+00 0.868E-04
CGA:   4    -0.335485594793E+03   -0.21706E-01   -0.21840E-01 11088   0.305E-01 0.121E-02
CGA:   5    -0.335490386773E+03   -0.47920E-02   -0.48375E-02 11088   0.822E-02 0.457E-03
CGA:   6    -0.335491930405E+03   -0.15436E-02   -0.15474E-02 11088   0.271E-02 0.565E-04
CGA:   7    -0.335492514348E+03   -0.58394E-03   -0.58272E-03 11088   0.106E-02-0.371E-04
CGA:   8    -0.335492771589E+03   -0.25724E-03   -0.25725E-03 11088   0.494E-03-0.196E-04
CGA:   9    -0.335492880789E+03   -0.10920E-03   -0.11007E-03 11088   0.188E-03 0.471E-04
CGA:  10    -0.335492945451E+03   -0.64661E-04   -0.71814E-04 11088   0.148E-03-0.691E-04
CGA:  11    -0.335492953557E+03   -0.81061E-05   -0.11263E-04 11088   0.652E-04 0.243E-04
  17 F= -.33549295E+03 E0= -.33549295E+03  d E =-.275584E-01  mag=     6.0000
       N       E                     dE             d eps       ncg     rms          ort
SDA:   1    -0.335404740154E+03    0.88205E-01    0.00000E+00 11088   0.213E+00 0.000E+00
CGA:   2    -0.335454861868E+03   -0.50122E-01   -0.50128E-01 11088   0.102E+00 0.340E-02
CGA:   3    -0.335472641566E+03   -0.17780E-01   -0.17756E-01 11088   0.361E-01-0.381E-03
CGA:   4    -0.335478190741E+03   -0.55492E-02   -0.54854E-02 11088   0.835E-02-0.797E-03
CGA:   5    -0.335479528041E+03   -0.13373E-02   -0.13126E-02 11088   0.231E-02-0.360E-03
CGA:   6    -0.335479953788E+03   -0.42575E-03   -0.42156E-03 11088   0.722E-03-0.118E-03
CGA:   7    -0.335480079314E+03   -0.12553E-03   -0.12787E-03 11088   0.216E-03 0.614E-04
CGA:   8    -0.335480137420E+03   -0.58107E-04   -0.57819E-04 11088   0.962E-04 0.118E-04
CGA:   9    -0.335480167302E+03   -0.29882E-04   -0.30690E-04 11088   0.547E-04-0.103E-04
CGA:  10    -0.335480116369E+03    0.50933E-04   -0.45719E-04 11088   0.469E-03-0.136E-03
CGA:  11    -0.335480173963E+03   -0.57594E-04   -0.64716E-04 11088   0.594E-04 0.568E-04
CGA:  12    -0.335480194651E+03   -0.20688E-04   -0.23311E-04 11088   0.622E-04-0.282E-04
CGA:  13    -0.335480194266E+03    0.38539E-06   -0.23304E-05 11088   0.393E-04 0.143E-04
  18 F= -.33548019E+03 E0= -.33548019E+03  d E =0.127593E-01  mag=     6.0000
       N       E                     dE             d eps       ncg     rms          ort
SDA:   1    -0.333941912697E+03    0.15383E+01    0.00000E+00 11088   0.415E+01 0.000E+00
CGA:   2    -0.334925095290E+03   -0.98318E+00   -0.98330E+00 11088   0.205E+01 0.162E-01
CGA:   3    -0.335271142938E+03   -0.34605E+00   -0.34591E+00 11088   0.707E+00-0.694E-03
CGA:   4    -0.335378762779E+03   -0.10762E+00   -0.10728E+00 11088   0.158E+00-0.428E-02
CGA:   5    -0.335403427236E+03   -0.24664E-01   -0.24546E-01 11088   0.418E-01-0.158E-02
CGA:   6    -0.335411162189E+03   -0.77350E-02   -0.77262E-02 11088   0.127E-01-0.206E-03
CGA:   7    -0.335413818761E+03   -0.26566E-02   -0.26596E-02 11088   0.457E-02 0.169E-03
CGA:   8    -0.335414919115E+03   -0.11004E-02   -0.10979E-02 11088   0.195E-02 0.258E-03
CGA:   9    -0.335415521787E+03   -0.60267E-03   -0.61394E-03 11088   0.107E-02-0.161E-03
CGA:  10    -0.335415745072E+03   -0.22329E-03   -0.22347E-03 11088   0.424E-03 0.374E-04
CGA:  11    -0.335415860277E+03   -0.11521E-03   -0.11924E-03 11088   0.231E-03-0.100E-03
CGA:  12    -0.335415883454E+03   -0.23177E-04   -0.25873E-04 11088   0.779E-04 0.311E-04
CGA:  13    -0.335415901402E+03   -0.17947E-04   -0.18089E-04 11088   0.431E-04 0.573E-05
CGA:  14    -0.335415897473E+03    0.39294E-05   -0.25380E-04 11088   0.294E-03-0.914E-04
CGA:  15    -0.335415914618E+03   -0.17145E-04   -0.27041E-04 11088   0.432E-04 0.654E-04
CGA:  16    -0.335415920224E+03   -0.56066E-05   -0.73634E-05 11088   0.210E-04 0.181E-04
  19 F= -.33541592E+03 E0= -.33541592E+03  d E =0.642740E-01  mag=     6.0000
       N       E                     dE             d eps       ncg     rms          ort
SDA:   1    -0.328704523873E+03    0.67114E+01    0.00000E+00 11088   0.180E+02 0.000E+00
CGA:   2    -0.333075123493E+03   -0.43706E+01   -0.43700E+01 11088   0.943E+01 0.487E-01
CGA:   3    -0.334651988268E+03   -0.15769E+01   -0.15756E+01 11088   0.303E+01-0.283E-02
CGA:   4    -0.335108423326E+03   -0.45644E+00   -0.45578E+00 11088   0.672E+00-0.918E-02
CGA:   5    -0.335214143182E+03   -0.10572E+00   -0.10558E+00 11088   0.181E+00-0.241E-02
CGA:   6    -0.335248192123E+03   -0.34049E-01   -0.34042E-01 11088   0.564E-01-0.201E-03
CGA:   7    -0.335260156137E+03   -0.11964E-01   -0.11964E-01 11088   0.213E-01 0.253E-04
CGA:   8    -0.335265172061E+03   -0.50159E-02   -0.50093E-02 11088   0.965E-02 0.506E-03
CGA:   9    -0.335267826401E+03   -0.26543E-02   -0.26931E-02 11088   0.546E-02-0.778E-03
CGA:  10    -0.335268878253E+03   -0.10519E-02   -0.10504E-02 11088   0.228E-02-0.920E-04
CGA:  11    -0.335269426223E+03   -0.54797E-03   -0.55583E-03 11088   0.909E-03-0.337E-03
CGA:  12    -0.335269614915E+03   -0.18869E-03   -0.19120E-03 11088   0.399E-03-0.117E-03
CGA:  13    -0.335269685487E+03   -0.70572E-04   -0.16247E-03 11088   0.105E-02-0.382E-03
CGA:  14    -0.335269789574E+03   -0.10409E-03   -0.11350E-03 11088   0.175E-03 0.741E-04
CGA:  15    -0.335269843990E+03   -0.54416E-04   -0.88952E-04 11088   0.235E-03-0.142E-03
CGA:  16    -0.335269889466E+03   -0.45476E-04   -0.46695E-04 11088   0.370E-04 0.268E-04
CGA:  17    -0.335269919865E+03   -0.30399E-04    0.94887E-05 11088   0.420E-04-0.512E-05
CGA:  18    -0.335269944961E+03   -0.25096E-04    0.10115E-04 11088   0.293E-04 0.102E-04
CGA:  19    -0.335269870022E+03    0.74938E-04   -0.42699E-04 11088   0.142E-02-0.109E-03
CGA:  20    -0.335270084072E+03   -0.21405E-03   -0.15590E-03 11088   0.115E-03-0.179E-03
CGA:  21    -0.335270097929E+03   -0.13857E-04   -0.17031E-04 11088   0.180E-04 0.126E-04
CGA:  22    -0.335270095518E+03    0.24110E-05   -0.19097E-05 11088   0.946E-05 0.137E-04
  20 F= -.33527010E+03 E0= -.33527010E+03  d E =0.145825E+00  mag=     6.0000
       N       E                     dE             d eps       ncg     rms          ort
SDA:   1    -0.328453979301E+03    0.68161E+01    0.00000E+00 11088   0.171E+02 0.000E+00
CGA:   2    -0.333094131859E+03   -0.46402E+01   -0.46428E+01 11088   0.959E+01 0.749E-02
CGA:   3    -0.334630925780E+03   -0.15368E+01   -0.15383E+01 11088   0.268E+01 0.214E-01
CGA:   4    -0.335026758955E+03   -0.39583E+00   -0.39516E+00 11088   0.616E+00-0.532E-03
CGA:   5    -0.335127639699E+03   -0.10088E+00   -0.10071E+00 11088   0.167E+00-0.131E-02
CGA:   6    -0.335158660901E+03   -0.31021E-01   -0.31005E-01 11088   0.539E-01-0.159E-03
CGA:   7    -0.335170060067E+03   -0.11399E-01   -0.11360E-01 11088   0.197E-01-0.321E-03
CGA:   8    -0.335174726088E+03   -0.46660E-02   -0.46705E-02 11088   0.874E-02 0.524E-04
CGA:   9    -0.335177055147E+03   -0.23291E-02   -0.22934E-02 11088   0.466E-02-0.551E-03
CGA:  10    -0.335178081578E+03   -0.10264E-02   -0.99441E-03 11088   0.202E-02-0.331E-03
CGA:  11    -0.335178586182E+03   -0.50460E-03   -0.47505E-03 11088   0.992E-03-0.453E-03
CGA:  12    -0.335178777516E+03   -0.19133E-03   -0.17638E-03 11088   0.421E-03-0.174E-03
CGA:  13    -0.335178565062E+03    0.21245E-03   -0.29652E-03 11088   0.415E-02-0.939E-03
CGA:  14    -0.335179018255E+03   -0.45319E-03   -0.48707E-03 11088   0.724E-03 0.170E-03
CGA:  15    -0.335179210199E+03   -0.19194E-03   -0.18265E-03 11088   0.171E-03-0.110E-03
CGA:  16    -0.335179263460E+03   -0.53261E-04   -0.81479E-04 11088   0.328E-03-0.119E-03
CGA:  17    -0.335179314327E+03   -0.50867E-04   -0.47040E-04 11088   0.928E-04-0.202E-04
CGA:  18    -0.335179336781E+03   -0.22453E-04   -0.20971E-04 11088   0.377E-04-0.177E-04
CGA:  19    -0.335179381618E+03   -0.44837E-04    0.38059E-05 11088   0.244E-04 0.380E-05
CGA:  20    -0.335179400050E+03   -0.18432E-04    0.63779E-04 11088   0.267E-04 0.311E-05
CGA:  21    -0.335179459333E+03   -0.59283E-04    0.23261E-05 11088   0.169E-04 0.136E-04
CGA:  22    -0.335179470208E+03   -0.10876E-04    0.15406E-02 11088   0.252E-04-0.474E-05
CGA:  23    -0.335179490655E+03   -0.20447E-04    0.38656E-05 11088   0.344E-04-0.123E-04
CGA:  24    -0.335179518741E+03   -0.28086E-04    0.19221E-05 11088   0.394E-04 0.914E-05
CGA:  25    -0.335179566867E+03   -0.48127E-04    0.15863E-04 11088   0.604E-04-0.150E-04
CGA:  26    -0.335179639441E+03   -0.72574E-04    0.29600E-05 11088   0.881E-04-0.502E-04
CGA:  27    -0.335179641126E+03   -0.16850E-05   -0.10171E-04 11088   0.256E-04 0.413E-04
  21 F= -.33517964E+03 E0= -.33517964E+03  d E =0.904544E-01  mag=     6.0000
       N       E                     dE             d eps       ncg     rms          ort
SDA:   1    -0.322675466353E+03    0.12504E+02    0.00000E+00 11088   0.374E+02 0.000E+00
CGA:   2    -0.330676425553E+03   -0.80010E+01   -0.80199E+01 11088   0.188E+02 0.279E-01
CGA:   3    -0.334025971943E+03   -0.33495E+01   -0.33431E+01 11088   0.661E+01 0.176E-01
CGA:   4    -0.335028818945E+03   -0.10028E+01   -0.10044E+01 11088   0.147E+01 0.905E-02
CGA:   5    -0.335257748909E+03   -0.22893E+00   -0.23008E+00 11088   0.386E+00 0.606E-02
CGA:   6    -0.335330118707E+03   -0.72370E-01   -0.72492E-01 11088   0.122E+00 0.128E-02
CGA:   7    -0.335355876530E+03   -0.25758E-01   -0.25743E-01 11088   0.454E-01-0.285E-03
CGA:   8    -0.335366418137E+03   -0.10542E-01   -0.10547E-01 11088   0.207E-01 0.112E-03
CGA:   9    -0.335371632181E+03   -0.52140E-02   -0.52075E-02 11088   0.996E-02-0.379E-03
CGA:  10    -0.335373918759E+03   -0.22866E-02   -0.22766E-02 11088   0.436E-02-0.295E-03
CGA:  11    -0.335374744800E+03   -0.82604E-03   -0.84436E-03 11088   0.136E-02 0.279E-03
CGA:  12    -0.335375137103E+03   -0.39230E-03   -0.39370E-03 11088   0.572E-03-0.138E-03
CGA:  13    -0.335375212183E+03   -0.75080E-04   -0.88695E-04 11088   0.217E-03 0.151E-03
CGA:  14    -0.335375267020E+03   -0.54837E-04   -0.58167E-04 11088   0.997E-04 0.723E-04
CGA:  15    -0.335375312188E+03   -0.45167E-04   -0.44906E-04 11088   0.111E-03 0.268E-05
CGA:  16    -0.335375313785E+03   -0.15977E-05   -0.11743E-04 11088   0.720E-04 0.645E-04
  22 F= -.33537531E+03 E0= -.33537531E+03  d E =-.195673E+00  mag=     6.0000
       N       E                     dE             d eps       ncg     rms          ort
SDA:   1    -0.314643310707E+03    0.20732E+02    0.00000E+00 11088   0.498E+02 0.000E+00
CGA:   2    -0.328046618211E+03   -0.13403E+02   -0.13401E+02 11088   0.271E+02 0.338E-01
CGA:   3    -0.332477125249E+03   -0.44305E+01   -0.44297E+01 11088   0.827E+01 0.287E-01
CGA:   4    -0.333764156583E+03   -0.12870E+01   -0.12882E+01 11088   0.225E+01 0.417E-02
CGA:   5    -0.334144632433E+03   -0.38048E+00   -0.38085E+00 11088   0.663E+00 0.402E-02
CGA:   6    -0.334272198232E+03   -0.12757E+00   -0.12772E+00 11088   0.235E+00 0.366E-02
CGA:   7    -0.334326777105E+03   -0.54579E-01   -0.54582E-01 11088   0.101E+00 0.197E-02
CGA:   8    -0.334352292386E+03   -0.25515E-01   -0.25506E-01 11088   0.404E-01 0.592E-03
CGA:   9    -0.334362419107E+03   -0.10127E-01   -0.10108E-01 11088   0.141E-01 0.125E-02
CGA:  10    -0.334366058708E+03   -0.36396E-02   -0.36277E-02 11088   0.420E-02 0.755E-03
CGA:  11    -0.334367110382E+03   -0.10517E-02   -0.10505E-02 11088   0.127E-02 0.513E-03
CGA:  12    -0.334367375072E+03   -0.26469E-03   -0.28029E-03 11088   0.432E-03 0.408E-03
CGA:  13    -0.334367462141E+03   -0.87069E-04   -0.10085E-03 11088   0.179E-03 0.242E-03
CGA:  14    -0.334367474829E+03   -0.12688E-04   -0.24973E-04 11088   0.112E-03 0.135E-03
CGA:  15    -0.334367475804E+03   -0.97561E-06   -0.12538E-04 11088   0.927E-04 0.102E-03
  23 F= -.33436748E+03 E0= -.33436747E+03  d E =0.100784E+01  mag=     6.0000
       N       E                     dE             d eps       ncg     rms          ort
SDA:   1    -0.330349160131E+03    0.40183E+01    0.00000E+00 11088   0.112E+02 0.000E+00
CGA:   2    -0.334208788031E+03   -0.38596E+01   -0.38673E+01 11088   0.370E+01-0.609E-01
CGA:   3    -0.334926521382E+03   -0.71773E+00   -0.71779E+00 11088   0.140E+01 0.149E-03
CGA:   4    -0.335130528695E+03   -0.20401E+00   -0.20390E+00 11088   0.342E+00-0.180E-02
CGA:   5    -0.335194016027E+03   -0.63487E-01   -0.63432E-01 11088   0.126E+00-0.186E-02
CGA:   6    -0.335218882205E+03   -0.24866E-01   -0.24853E-01 11088   0.493E-01-0.830E-03
CGA:   7    -0.335231203017E+03   -0.12321E-01   -0.12386E-01 11088   0.235E-01-0.166E-02
CGA:   8    -0.335236607780E+03   -0.54048E-02   -0.54233E-02 11088   0.911E-02-0.793E-03
CGA:   9    -0.335238953494E+03   -0.23457E-02   -0.23781E-02 11088   0.353E-02-0.603E-03
CGA:  10    -0.335239754475E+03   -0.80098E-03   -0.80700E-03 11088   0.118E-02-0.236E-03
CGA:  11    -0.335240055951E+03   -0.30148E-03   -0.34817E-03 11088   0.940E-03-0.486E-03
CGA:  12    -0.335240142848E+03   -0.86897E-04   -0.82936E-04 11088   0.351E-03-0.521E-04
CGA:  13    -0.335240225958E+03   -0.83109E-04   -0.88990E-04 11088   0.352E-03-0.125E-03
CGA:  14    -0.335240182514E+03    0.43444E-04   -0.99658E-04 11088   0.160E-02-0.666E-03
CGA:  15    -0.335240344282E+03   -0.16177E-03   -0.18191E-03 11088   0.268E-03 0.170E-03
CGA:  16    -0.335240426928E+03   -0.82646E-04   -0.87049E-04 11088   0.596E-04-0.678E-04
CGA:  17    -0.335240453096E+03   -0.26168E-04    0.19375E-04 11088   0.255E-04 0.111E-04
CGA:  18    -0.335240459415E+03   -0.63197E-05   -0.63568E-05 11088   0.107E-04 0.171E-05
  24 F= -.33524046E+03 E0= -.33524046E+03  d E =-.872984E+00  mag=     6.0000
       N       E                     dE             d eps       ncg     rms          ort
SDA:   1    -0.334663870278E+03    0.57658E+00    0.00000E+00 11088   0.163E+01 0.000E+00
CGA:   2    -0.335161158076E+03   -0.49729E+00   -0.49721E+00 11088   0.742E+00 0.626E-03
CGA:   3    -0.335282397934E+03   -0.12124E+00   -0.12133E+00 11088   0.253E+00 0.739E-03
CGA:   4    -0.335323072401E+03   -0.40674E-01   -0.40636E-01 11088   0.684E-01-0.597E-03
CGA:   5    -0.335334682891E+03   -0.11610E-01   -0.11567E-01 11088   0.212E-01-0.776E-03
CGA:   6    -0.335338911275E+03   -0.42284E-02   -0.42155E-02 11088   0.819E-02-0.561E-03
CGA:   7    -0.335340886707E+03   -0.19754E-02   -0.19910E-02 11088   0.404E-02-0.587E-03
CGA:   8    -0.335341807280E+03   -0.92057E-03   -0.92605E-03 11088   0.158E-02-0.248E-03
CGA:   9    -0.335342237627E+03   -0.43035E-03   -0.48106E-03 11088   0.990E-03-0.514E-03
CGA:  10    -0.335342400324E+03   -0.16270E-03   -0.16702E-03 11088   0.412E-03-0.223E-03
CGA:  11    -0.335342261600E+03    0.13872E-03   -0.21125E-03 11088   0.265E-02-0.813E-03
CGA:  12    -0.335342536134E+03   -0.27453E-03   -0.30123E-03 11088   0.379E-03 0.198E-03
CGA:  13    -0.335342635419E+03   -0.99285E-04   -0.99102E-04 11088   0.100E-03-0.595E-04
CGA:  14    -0.335342663208E+03   -0.27789E-04   -0.49848E-04 11088   0.156E-03-0.645E-04
CGA:  15    -0.335342697071E+03   -0.33864E-04   -0.32116E-04 11088   0.570E-04-0.301E-04
CGA:  16    -0.335342709064E+03   -0.11992E-04   -0.12301E-04 11088   0.695E-04-0.438E-04
CGA:  17    -0.335342719916E+03   -0.10853E-04   -0.90485E-05 11088   0.134E-04-0.138E-04
CGA:  18    -0.335342727478E+03   -0.75616E-05    0.35325E-05 11088   0.576E-05-0.442E-05
  25 F= -.33534273E+03 E0= -.33534273E+03  d E =-.102268E+00  mag=     6.0000
       N       E                     dE             d eps       ncg     rms          ort
SDA:   1    -0.334728063212E+03    0.61466E+00    0.00000E+00 11088   0.168E+01 0.000E+00
CGA:   2    -0.335186811406E+03   -0.45875E+00   -0.45869E+00 11088   0.884E+00 0.256E-02
CGA:   3    -0.335329429770E+03   -0.14262E+00   -0.14272E+00 11088   0.280E+00 0.628E-03
CGA:   4    -0.335374283749E+03   -0.44854E-01   -0.44806E-01 11088   0.792E-01-0.597E-03
CGA:   5    -0.335387732302E+03   -0.13449E-01   -0.13389E-01 11088   0.226E-01-0.806E-03
CGA:   6    -0.335392157548E+03   -0.44252E-02   -0.44000E-02 11088   0.846E-02-0.568E-03
CGA:   7    -0.335394106794E+03   -0.19492E-02   -0.19481E-02 11088   0.379E-02-0.326E-03
CGA:   8    -0.335395019001E+03   -0.91221E-03   -0.91394E-03 11088   0.151E-02-0.154E-03
CGA:   9    -0.335395449799E+03   -0.43080E-03   -0.46552E-03 11088   0.863E-03-0.431E-03
CGA:  10    -0.335395622331E+03   -0.17253E-03   -0.20249E-03 11088   0.495E-03-0.358E-03
CGA:  11    -0.335394645523E+03    0.97681E-03   -0.33058E-03 11088   0.760E-02-0.147E-02
CGA:  12    -0.335395586537E+03   -0.94101E-03   -0.99984E-03 11088   0.125E-02 0.374E-03
CGA:  13    -0.335395860244E+03   -0.27371E-03   -0.26913E-03 11088   0.407E-03-0.572E-04
CGA:  14    -0.335395936566E+03   -0.76322E-04   -0.81291E-04 11088   0.119E-03 0.696E-04
CGA:  15    -0.335395975514E+03   -0.38947E-04   -0.38888E-04 11088   0.538E-04 0.344E-04
CGA:  16    -0.335396002978E+03   -0.27464E-04   -0.30990E-04 11088   0.491E-04-0.208E-04
CGA:  17    -0.335396003047E+03   -0.69511E-07   -0.26608E-05 11088   0.292E-04 0.131E-04
  26 F= -.33539600E+03 E0= -.33539600E+03  d E =-.532756E-01  mag=     6.0000
       N       E                     dE             d eps       ncg     rms          ort
SDA:   1    -0.335198814714E+03    0.19719E+00    0.00000E+00 11088   0.554E+00 0.000E+00
CGA:   2    -0.335340462753E+03   -0.14165E+00   -0.14168E+00 11088   0.307E+00 0.209E-02
CGA:   3    -0.335391645846E+03   -0.51183E-01   -0.51186E-01 11088   0.975E-01 0.587E-04
CGA:   4    -0.335406811424E+03   -0.15166E-01   -0.15159E-01 11088   0.266E-01-0.102E-03
CGA:   5    -0.335411351916E+03   -0.45405E-02   -0.45150E-02 11088   0.753E-02-0.304E-03
CGA:   6    -0.335412860237E+03   -0.15083E-02   -0.14895E-02 11088   0.287E-02-0.367E-03
CGA:   7    -0.335413460697E+03   -0.60046E-03   -0.60044E-03 11088   0.113E-02-0.119E-05
CGA:   8    -0.335413743964E+03   -0.28327E-03   -0.28331E-03 11088   0.451E-03-0.155E-04
CGA:   9    -0.335413874892E+03   -0.13093E-03   -0.13730E-03 11088   0.258E-03-0.105E-03
CGA:  10    -0.335413795273E+03    0.79619E-04   -0.14095E-03 11088   0.145E-02-0.480E-03
CGA:  11    -0.335413956886E+03   -0.16161E-03   -0.17751E-03 11088   0.207E-03 0.106E-03
CGA:  12    -0.335414015757E+03   -0.58870E-04   -0.58797E-04 11088   0.124E-03-0.528E-04
CGA:  13    -0.335414025314E+03   -0.95576E-05   -0.12983E-04 11088   0.440E-04 0.274E-04
  27 F= -.33541403E+03 E0= -.33541402E+03  d E =-.180223E-01  mag=     6.0000
       N       E                     dE             d eps       ncg     rms          ort
SDA:   1    -0.335395885602E+03    0.18130E-01    0.00000E+00 11088   0.521E-01 0.000E+00
CGA:   2    -0.335410922437E+03   -0.15037E-01   -0.15018E-01 11088   0.288E-01 0.565E-03
CGA:   3    -0.335415599075E+03   -0.46766E-02   -0.46448E-02 11088   0.907E-02-0.337E-03
CGA:   4    -0.335416950011E+03   -0.13509E-02   -0.13751E-02 11088   0.208E-02 0.242E-03
CGA:   5    -0.335417287713E+03   -0.33770E-03   -0.34660E-03 11088   0.644E-03 0.104E-03
CGA:   6    -0.335417434710E+03   -0.14700E-03   -0.14522E-03 11088   0.304E-03-0.628E-04
CGA:   7    -0.335417466491E+03   -0.31782E-04   -0.39693E-04 11088   0.100E-03 0.816E-04
CGA:   8    -0.335417478452E+03   -0.11960E-04   -0.17154E-04 11088   0.474E-04 0.509E-04
CGA:   9    -0.335417491615E+03   -0.13164E-04   -0.20477E-04 11088   0.149E-03-0.365E-04
CGA:  10    -0.335417494612E+03   -0.29965E-05   -0.10722E-04 11088   0.192E-04 0.456E-04
  28 F= -.33541749E+03 E0= -.33541749E+03  d E =-.346930E-02  mag=     6.0000
       N       E                     dE             d eps       ncg     rms          ort
SDA:   1    -0.335411381559E+03    0.61101E-02    0.00000E+00 11088   0.173E-01 0.000E+00
CGA:   2    -0.335415892687E+03   -0.45111E-02   -0.45071E-02 11088   0.988E-02 0.107E-03
CGA:   3    -0.335417524589E+03   -0.16319E-02   -0.16236E-02 11088   0.309E-02-0.134E-03
CGA:   4    -0.335417958395E+03   -0.43381E-03   -0.44647E-03 11088   0.678E-03 0.164E-03
CGA:   5    -0.335418055421E+03   -0.97026E-04   -0.10513E-03 11088   0.174E-03 0.112E-03
CGA:   6    -0.335418091860E+03   -0.36439E-04   -0.37306E-04 11088   0.640E-04 0.271E-04
CGA:   7    -0.335418096920E+03   -0.50604E-05   -0.87544E-05 11088   0.285E-04 0.386E-04
  29 F= -.33541810E+03 E0= -.33541810E+03  d E =-.602308E-03  mag=     6.0000
       N       E                     dE             d eps       ncg     rms          ort
SDA:   1    -0.335407359377E+03    0.10732E-01    0.00000E+00 11088   0.294E-01 0.000E+00
CGA:   2    -0.335414708179E+03   -0.73488E-02   -0.73443E-02 11088   0.167E-01 0.921E-04
CGA:   3    -0.335417465973E+03   -0.27578E-02   -0.27464E-02 11088   0.513E-02-0.268E-03
CGA:   4    -0.335418181564E+03   -0.71559E-03   -0.72760E-03 11088   0.115E-02 0.197E-03
CGA:   5    -0.335418340084E+03   -0.15852E-03   -0.16867E-03 11088   0.266E-03 0.170E-03
CGA:   6    -0.335418392385E+03   -0.52300E-04   -0.53265E-04 11088   0.866E-04 0.401E-04
CGA:   7    -0.335418402204E+03   -0.98192E-05   -0.12832E-04 11088   0.333E-04 0.439E-04
  30 F= -.33541840E+03 E0= -.33541840E+03  d E =-.305284E-03  mag=     6.0000
       N       E                     dE             d eps       ncg     rms          ort
SDA:   1    -0.335375319609E+03    0.43073E-01    0.00000E+00 11088   0.100E+00 0.000E+00
CGA:   2    -0.335405442123E+03   -0.30123E-01   -0.30044E-01 11088   0.478E-01 0.709E-03
CGA:   3    -0.335412923654E+03   -0.74815E-02   -0.74497E-02 11088   0.147E-01-0.785E-03
CGA:   4    -0.335415099872E+03   -0.21762E-02   -0.21920E-02 11088   0.308E-02 0.368E-03
CGA:   5    -0.335415555935E+03   -0.45606E-03   -0.46736E-03 11088   0.761E-03 0.258E-03
CGA:   6    -0.335415708416E+03   -0.15248E-03   -0.15260E-03 11088   0.270E-03 0.267E-04
CGA:   7    -0.335415738055E+03   -0.29639E-04   -0.36146E-04 11088   0.874E-04 0.109E-03
CGA:   8    -0.335415746102E+03   -0.80474E-05   -0.13130E-04 11088   0.433E-04 0.641E-04
  31 F= -.33541575E+03 E0= -.33541574E+03  d E =0.265610E-02  mag=     6.0000
       N       E                     dE             d eps       ncg     rms          ort
SDA:   1    -0.335252704013E+03    0.16303E+00    0.00000E+00 11088   0.369E+00 0.000E+00
CGA:   2    -0.335363320342E+03   -0.11062E+00   -0.11023E+00 11088   0.148E+00 0.320E-02
CGA:   3    -0.335389875681E+03   -0.26555E-01   -0.26540E-01 11088   0.534E-01-0.164E-02
CGA:   4    -0.335397619239E+03   -0.77436E-02   -0.77294E-02 11088   0.117E-01-0.369E-03
CGA:   5    -0.335399537601E+03   -0.19184E-02   -0.19202E-02 11088   0.342E-02 0.908E-04
CGA:   6    -0.335400212091E+03   -0.67449E-03   -0.67494E-03 11088   0.120E-02-0.383E-04
CGA:   7    -0.335400455454E+03   -0.24336E-03   -0.24146E-03 11088   0.426E-03 0.965E-04
CGA:   8    -0.335400582230E+03   -0.12678E-03   -0.13115E-03 11088   0.240E-03-0.438E-04
CGA:   9    -0.335400634434E+03   -0.52204E-04   -0.51819E-04 11088   0.908E-04 0.766E-05
CGA:  10    -0.335400649074E+03   -0.14640E-04   -0.15484E-04 11088   0.274E-04 0.308E-04
CGA:  11    -0.335400651174E+03   -0.21006E-05   -0.38661E-05 11088   0.120E-04 0.205E-04
  32 F= -.33540065E+03 E0= -.33540065E+03  d E =0.150949E-01  mag=     6.0000
       N       E                     dE             d eps       ncg     rms          ort
SDA:   1    -0.335297517775E+03    0.10313E+00    0.00000E+00 11088   0.234E+00 0.000E+00
CGA:   2    -0.335367504171E+03   -0.69986E-01   -0.69565E-01 11088   0.971E-01 0.366E-02
CGA:   3    -0.335385730506E+03   -0.18226E-01   -0.18223E-01 11088   0.359E-01-0.868E-03
CGA:   4    -0.335390939137E+03   -0.52086E-02   -0.51831E-02 11088   0.819E-02-0.607E-03
CGA:   5    -0.335392326772E+03   -0.13876E-02   -0.13853E-02 11088   0.265E-02-0.165E-03
CGA:   6    -0.335392810389E+03   -0.48362E-03   -0.48356E-03 11088   0.854E-03 0.764E-04
CGA:   7    -0.335392978768E+03   -0.16838E-03   -0.16756E-03 11088   0.305E-03 0.163E-03
CGA:   8    -0.335393068849E+03   -0.90081E-04   -0.87759E-04 11088   0.142E-03 0.418E-04
CGA:   9    -0.335393099647E+03   -0.30798E-04   -0.30716E-04 11088   0.526E-04 0.478E-04
CGA:  10    -0.335393109514E+03   -0.98675E-05   -0.10930E-04 11088   0.201E-04 0.319E-04
  33 F= -.33539311E+03 E0= -.33539311E+03  d E =0.754166E-02  mag=     6.0000
       N       E                     dE             d eps       ncg     rms          ort
SDA:   1    -0.335381987753E+03    0.11112E-01    0.00000E+00 11088   0.223E-01 0.000E+00
CGA:   2    -0.335387524888E+03   -0.55371E-02   -0.54750E-02 11088   0.101E-01 0.102E-02
CGA:   3    -0.335389366075E+03   -0.18412E-02   -0.18427E-02 11088   0.390E-02 0.122E-03
CGA:   4    -0.335390050249E+03   -0.68417E-03   -0.67828E-03 11088   0.114E-02-0.400E-03
CGA:   5    -0.335390222154E+03   -0.17190E-03   -0.16933E-03 11088   0.348E-03-0.130E-03
CGA:   6    -0.335390270637E+03   -0.48483E-04   -0.49234E-04 11088   0.904E-04 0.296E-04
CGA:   7    -0.335390289124E+03   -0.18487E-04   -0.18416E-04 11088   0.357E-04 0.179E-04
CGA:   8    -0.335390297303E+03   -0.81782E-05   -0.81205E-05 11088   0.144E-04 0.994E-05
CGA:   9    -0.335390298790E+03   -0.14877E-05   -0.11154E-04 11088   0.528E-04-0.228E-04
  34 F= -.33539030E+03 E0= -.33539030E+03  d E =0.281072E-02  mag=     6.0000
       N       E                     dE             d eps       ncg     rms          ort
SDA:   1    -0.335377861483E+03    0.12436E-01    0.00000E+00 11088   0.202E-01 0.000E+00
CGA:   2    -0.335382667235E+03   -0.48058E-02   -0.47615E-02 11088   0.650E-02 0.140E-02
CGA:   3    -0.335384076613E+03   -0.14094E-02   -0.14095E-02 11088   0.333E-02 0.401E-04
CGA:   4    -0.335384587100E+03   -0.51049E-03   -0.48965E-03 11088   0.805E-03-0.352E-03
CGA:   5    -0.335384714116E+03   -0.12702E-03   -0.12259E-03 11088   0.287E-03-0.137E-03
CGA:   6    -0.335384751785E+03   -0.37670E-04   -0.38243E-04 11088   0.700E-04 0.142E-04
CGA:   7    -0.335384766415E+03   -0.14630E-04   -0.14628E-04 11088   0.306E-04 0.752E-05
CGA:   8    -0.335384770321E+03   -0.39061E-05   -0.46805E-05 11088   0.110E-04 0.127E-04
  35 F= -.33538477E+03 E0= -.33538477E+03  d E =0.552847E-02  mag=     6.0000
       N       E                     dE             d eps       ncg     rms          ort
SDA:   1    -0.334987475906E+03    0.39729E+00    0.00000E+00 11088   0.975E+00 0.000E+00
CGA:   2    -0.335245640192E+03   -0.25816E+00   -0.25744E+00 11088   0.377E+00 0.104E-01
CGA:   3    -0.335317079170E+03   -0.71439E-01   -0.71423E-01 11088   0.152E+00-0.130E-02
CGA:   4    -0.335338753203E+03   -0.21674E-01   -0.21535E-01 11088   0.294E-01-0.250E-02
CGA:   5    -0.335343583412E+03   -0.48302E-02   -0.48080E-02 11088   0.901E-02-0.759E-03
CGA:   6    -0.335345223299E+03   -0.16399E-02   -0.16394E-02 11088   0.275E-02-0.623E-04
CGA:   7    -0.335345824084E+03   -0.60079E-03   -0.60096E-03 11088   0.116E-02-0.725E-05
CGA:   8    -0.335346104831E+03   -0.28075E-03   -0.27927E-03 11088   0.546E-03 0.322E-04
CGA:   9    -0.335346269419E+03   -0.16459E-03   -0.20439E-03 11088   0.610E-03-0.239E-03
CGA:  10    -0.335346316809E+03   -0.47391E-04   -0.46691E-04 11088   0.267E-03-0.100E-04
CGA:  11    -0.335346354639E+03   -0.37830E-04   -0.38156E-04 11088   0.134E-03 0.559E-05
CGA:  12    -0.335346382744E+03   -0.28105E-04   -0.28860E-04 11088   0.863E-04-0.667E-04
CGA:  13    -0.335346391863E+03   -0.91186E-05   -0.96286E-05 11088   0.583E-04-0.234E-04
CGA:  14    -0.335346401610E+03   -0.97472E-05   -0.12712E-04 11088   0.777E-04-0.305E-04
CGA:  15    -0.335346418791E+03   -0.17181E-04   -0.19667E-04 11088   0.115E-03-0.529E-04
CGA:  16    -0.335346422379E+03   -0.35884E-05   -0.79712E-05 11088   0.120E-04 0.316E-04
  36 F= -.33534642E+03 E0= -.33534642E+03  d E =0.383479E-01  mag=     6.0000
       N       E                     dE             d eps       ncg     rms          ort
SDA:   1    -0.334863778537E+03    0.48264E+00    0.00000E+00 11088   0.112E+01 0.000E+00
CGA:   2    -0.335189147497E+03   -0.32537E+00   -0.32449E+00 11088   0.423E+00 0.901E-02
CGA:   3    -0.335268983892E+03   -0.79836E-01   -0.79842E-01 11088   0.165E+00 0.444E-03
CGA:   4    -0.335292943690E+03   -0.23960E-01   -0.23812E-01 11088   0.340E-01-0.283E-02
CGA:   5    -0.335298938090E+03   -0.59944E-02   -0.59843E-02 11088   0.119E-01-0.625E-03
CGA:   6    -0.335300972552E+03   -0.20345E-02   -0.20452E-02 11088   0.351E-02 0.536E-03
CGA:   7    -0.335301797252E+03   -0.82470E-03   -0.81854E-03 11088   0.155E-02 0.210E-03
CGA:   8    -0.335302135728E+03   -0.33848E-03   -0.33569E-03 11088   0.583E-03 0.296E-03
CGA:   9    -0.335302308272E+03   -0.17254E-03   -0.16818E-03 11088   0.246E-03 0.941E-04
CGA:  10    -0.335302365959E+03   -0.57687E-04   -0.57424E-04 11088   0.797E-04 0.789E-04
CGA:  11    -0.335302378005E+03   -0.12046E-04   -0.15038E-04 11088   0.318E-04 0.541E-04
CGA:  12    -0.335302379404E+03   -0.13984E-05   -0.34365E-05 11088   0.186E-04 0.233E-04
  37 F= -.33530238E+03 E0= -.33530238E+03  d E =0.440430E-01  mag=     6.0000
       N       E                     dE             d eps       ncg     rms          ort
SDA:   1    -0.334990865358E+03    0.31151E+00    0.00000E+00 11088   0.943E+00 0.000E+00
CGA:   2    -0.335253824961E+03   -0.26296E+00   -0.26383E+00 11088   0.381E+00-0.950E-02
CGA:   3    -0.335322237238E+03   -0.68412E-01   -0.68415E-01 11088   0.144E+00 0.213E-03
CGA:   4    -0.335342254730E+03   -0.20017E-01   -0.20143E-01 11088   0.277E-01 0.249E-02
CGA:   5    -0.335346935264E+03   -0.46805E-02   -0.46955E-02 11088   0.868E-02 0.737E-03
CGA:   6    -0.335348706998E+03   -0.17717E-02   -0.17757E-02 11088   0.301E-02-0.303E-03
CGA:   7    -0.335349363123E+03   -0.65612E-03   -0.66132E-03 11088   0.134E-02-0.126E-03
CGA:   8    -0.335349714395E+03   -0.35127E-03   -0.39828E-03 11088   0.977E-03-0.387E-03
CGA:   9    -0.335349849586E+03   -0.13519E-03   -0.13519E-03 11088   0.365E-03 0.136E-06
CGA:  10    -0.335349935226E+03   -0.85639E-04   -0.88330E-04 11088   0.156E-03-0.574E-04
CGA:  11    -0.335349965821E+03   -0.30595E-04   -0.31798E-04 11088   0.599E-04-0.268E-04
CGA:  12    -0.335349977801E+03   -0.11981E-04   -0.12205E-04 11088   0.259E-04-0.482E-05
CGA:  13    -0.335349991811E+03   -0.14010E-04    0.52236E-05 11088   0.113E-04 0.136E-05
CGA:  14    -0.335349998135E+03   -0.63237E-05    0.37523E-05 11088   0.459E-05 0.267E-05
  38 F= -.33535000E+03 E0= -.33535000E+03  d E =-.476187E-01  mag=     6.0000
       N       E                     dE             d eps       ncg     rms          ort
SDA:   1    -0.335335542324E+03    0.14449E-01    0.00000E+00 11088   0.345E-01 0.000E+00
CGA:   2    -0.335343283422E+03   -0.77411E-02   -0.77196E-02 11088   0.186E-01 0.954E-03
CGA:   3    -0.335346688821E+03   -0.34054E-02   -0.34043E-02 11088   0.655E-02-0.500E-04
CGA:   4    -0.335347714503E+03   -0.10257E-02   -0.10186E-02 11088   0.168E-02-0.158E-03
CGA:   5    -0.335347990555E+03   -0.27605E-03   -0.27389E-03 11088   0.502E-03-0.684E-04
CGA:   6    -0.335348082973E+03   -0.92417E-04   -0.92318E-04 11088   0.164E-03-0.171E-04
CGA:   7    -0.335348106133E+03   -0.23160E-04   -0.24924E-04 11088   0.496E-04 0.436E-04
CGA:   8    -0.335348113610E+03   -0.74768E-05   -0.89191E-05 11088   0.215E-04 0.271E-04
  39 F= -.33534811E+03 E0= -.33534811E+03  d E =0.188453E-02  mag=     6.0000
       N       E                     dE             d eps       ncg     rms          ort
SDA:   1    -0.335336032445E+03    0.12074E-01    0.00000E+00 11088   0.219E-01 0.000E+00
CGA:   2    -0.335341834735E+03   -0.58023E-02   -0.57396E-02 11088   0.957E-02 0.918E-03
CGA:   3    -0.335343550380E+03   -0.17156E-02   -0.17166E-02 11088   0.363E-02 0.371E-04
CGA:   4    -0.335344147040E+03   -0.59666E-03   -0.58311E-03 11088   0.103E-02-0.376E-03
CGA:   5    -0.335344302682E+03   -0.15564E-03   -0.15141E-03 11088   0.326E-03-0.142E-03
CGA:   6    -0.335344348487E+03   -0.45805E-04   -0.46260E-04 11088   0.807E-04 0.161E-04
CGA:   7    -0.335344366833E+03   -0.18346E-04   -0.18310E-04 11088   0.346E-04 0.144E-05
CGA:   8    -0.335344373998E+03   -0.71648E-05   -0.71298E-05 11088   0.133E-04 0.354E-05
  40 F= -.33534437E+03 E0= -.33534437E+03  d E =0.373961E-02  mag=     6.0000
       N       E                     dE             d eps       ncg     rms          ort
SDA:   1    -0.335328096047E+03    0.16271E-01    0.00000E+00 11088   0.282E-01 0.000E+00
CGA:   2    -0.335335938267E+03   -0.78422E-02   -0.76992E-02 11088   0.815E-02 0.178E-02
CGA:   3    -0.335338005738E+03   -0.20675E-02   -0.20860E-02 11088   0.348E-02-0.425E-03
CGA:   4    -0.335338478613E+03   -0.47287E-03   -0.44938E-03 11088   0.806E-03-0.373E-03
CGA:   5    -0.335338608732E+03   -0.13012E-03   -0.12959E-03 11088   0.238E-03-0.329E-04
CGA:   6    -0.335338646547E+03   -0.37815E-04   -0.38231E-04 11088   0.726E-04 0.150E-04
CGA:   7    -0.335338667249E+03   -0.20702E-04   -0.23098E-04 11088   0.611E-04-0.227E-04
CGA:   8    -0.335338672094E+03   -0.48452E-05   -0.54429E-05 11088   0.262E-04 0.860E-05
  41 F= -.33533867E+03 E0= -.33533867E+03  d E =0.570190E-02  mag=     6.0000
       N       E                     dE             d eps       ncg     rms          ort
SDA:   1    -0.334237256872E+03    0.11014E+01    0.00000E+00 11088   0.321E+01 0.000E+00
CGA:   2    -0.334905160526E+03   -0.66790E+00   -0.66771E+00 11088   0.143E+01 0.175E-01
CGA:   3    -0.335161061111E+03   -0.25590E+00   -0.25590E+00 11088   0.566E+00 0.274E-03
CGA:   4    -0.335249936977E+03   -0.88876E-01   -0.88748E-01 11088   0.136E+00-0.341E-02
CGA:   5    -0.335271173692E+03   -0.21237E-01   -0.21173E-01 11088   0.352E-01-0.170E-02
CGA:   6    -0.335277816090E+03   -0.66424E-02   -0.66409E-02 11088   0.111E-01-0.610E-03
CGA:   7    -0.335280069838E+03   -0.22537E-02   -0.22475E-02 11088   0.386E-02 0.522E-03
CGA:   8    -0.335281032385E+03   -0.96255E-03   -0.94709E-03 11088   0.155E-02 0.384E-03
CGA:   9    -0.335281482063E+03   -0.44968E-03   -0.43893E-03 11088   0.633E-03 0.175E-03
CGA:  10    -0.335281687560E+03   -0.20550E-03   -0.20492E-03 11088   0.268E-03 0.591E-05
CGA:  11    -0.335281755367E+03   -0.67807E-04   -0.66843E-04 11088   0.905E-04 0.224E-04
CGA:  12    -0.335281785160E+03   -0.29793E-04   -0.33096E-04 11088   0.670E-04-0.252E-04
CGA:  13    -0.335281786880E+03   -0.17196E-05   -0.44594E-05 11088   0.335E-04 0.227E-04
  42 F= -.33528179E+03 E0= -.33528179E+03  d E =0.568852E-01  mag=     6.0000
       N       E                     dE             d eps       ncg     rms          ort
SDA:   1    -0.335056271723E+03    0.22551E+00    0.00000E+00 11088   0.622E+00 0.000E+00
CGA:   2    -0.335247750892E+03   -0.19148E+00   -0.19227E+00 11088   0.236E+00-0.733E-02
CGA:   3    -0.335290570744E+03   -0.42820E-01   -0.42850E-01 11088   0.817E-01 0.124E-02
CGA:   4    -0.335301808288E+03   -0.11238E-01   -0.11348E-01 11088   0.155E-01 0.164E-02
CGA:   5    -0.335304642523E+03   -0.28342E-02   -0.28374E-02 11088   0.528E-02 0.144E-03
CGA:   6    -0.335305692920E+03   -0.10504E-02   -0.10495E-02 11088   0.193E-02-0.255E-03
CGA:   7    -0.335306103775E+03   -0.41086E-03   -0.41360E-03 11088   0.878E-03-0.109E-03
CGA:   8    -0.335306326382E+03   -0.22261E-03   -0.25574E-03 11088   0.720E-03-0.309E-03
CGA:   9    -0.335306407049E+03   -0.80667E-04   -0.80590E-04 11088   0.275E-03-0.210E-05
CGA:  10    -0.335306466078E+03   -0.59029E-04   -0.59383E-04 11088   0.121E-03-0.309E-04
CGA:  11    -0.335306476269E+03   -0.10191E-04   -0.44950E-04 11088   0.360E-03-0.165E-03
CGA:  12    -0.335306501263E+03   -0.24994E-04   -0.33672E-04 11088   0.477E-04 0.711E-04
CGA:  13    -0.335306511197E+03   -0.99340E-05   -0.10177E-04 11088   0.202E-04 0.760E-05
  43 F= -.33530651E+03 E0= -.33530651E+03  d E =-.247243E-01  mag=     6.0000
       N       E                     dE             d eps       ncg     rms          ort
SDA:   1    -0.335188466702E+03    0.11803E+00    0.00000E+00 11088   0.427E+00 0.000E+00
CGA:   2    -0.335274620910E+03   -0.86154E-01   -0.86126E-01 11088   0.202E+00-0.431E-02
CGA:   3    -0.335310210657E+03   -0.35590E-01   -0.35568E-01 11088   0.789E-01-0.745E-03
CGA:   4    -0.335322175542E+03   -0.11965E-01   -0.12022E-01 11088   0.184E-01 0.104E-02
CGA:   5    -0.335324920327E+03   -0.27448E-02   -0.27889E-02 11088   0.450E-02 0.807E-03
CGA:   6    -0.335325763084E+03   -0.84276E-03   -0.84925E-03 11088   0.132E-02 0.319E-03
CGA:   7    -0.335326097589E+03   -0.33450E-03   -0.33864E-03 11088   0.618E-03-0.104E-03
CGA:   8    -0.335326229231E+03   -0.13164E-03   -0.13190E-03 11088   0.272E-03-0.880E-05
CGA:   9    -0.335326303646E+03   -0.74415E-04   -0.78597E-04 11088   0.150E-03-0.468E-04
CGA:  10    -0.335326320457E+03   -0.16811E-04   -0.18719E-04 11088   0.531E-04 0.329E-04
CGA:  11    -0.335326329246E+03   -0.87886E-05   -0.97704E-05 11088   0.184E-04 0.180E-04
  44 F= -.33532633E+03 E0= -.33532633E+03  d E =-.198180E-01  mag=     6.0000
       N       E                     dE             d eps       ncg     rms          ort
SDA:   1    -0.335178355293E+03    0.14797E+00    0.00000E+00 11088   0.498E+00 0.000E+00
CGA:   2    -0.335257195037E+03   -0.78840E-01   -0.78913E-01 11088   0.210E+00 0.127E-02
CGA:   3    -0.335300379564E+03   -0.43185E-01   -0.43182E-01 11088   0.104E+00 0.408E-03
CGA:   4    -0.335316205321E+03   -0.15826E-01   -0.15810E-01 11088   0.220E-01-0.395E-03
CGA:   5    -0.335319467860E+03   -0.32625E-02   -0.32532E-02 11088   0.528E-02-0.205E-03
CGA:   6    -0.335320491511E+03   -0.10237E-02   -0.10238E-02 11088   0.167E-02-0.142E-03
CGA:   7    -0.335320826384E+03   -0.33487E-03   -0.33588E-03 11088   0.521E-03-0.858E-04
CGA:   8    -0.335320918295E+03   -0.91911E-04   -0.92398E-04 11088   0.148E-03 0.597E-04
CGA:   9    -0.335320966919E+03   -0.48623E-04   -0.55957E-04 11088   0.107E-03-0.508E-04
CGA:  10    -0.335320969858E+03   -0.29392E-05   -0.35334E-04 11088   0.202E-03-0.108E-03
CGA:  11    -0.335321013260E+03   -0.43403E-04   -0.43287E-04 11088   0.818E-04-0.512E-04
CGA:  12    -0.335321022831E+03   -0.95707E-05   -0.98950E-05 11088   0.198E-04 0.596E-05
CGA:  13    -0.335321032653E+03   -0.98219E-05    0.28474E-04 11088   0.708E-05-0.567E-05
  45 F= -.33532103E+03 E0= -.33532103E+03  d E =0.529659E-02  mag=     6.0000
       N       E                     dE             d eps       ncg     rms          ort
SDA:   1    -0.335261983695E+03    0.59039E-01    0.00000E+00 11088   0.199E+00 0.000E+00
CGA:   2    -0.335294179983E+03   -0.32196E-01   -0.32248E-01 11088   0.863E-01 0.869E-03
CGA:   3    -0.335311802347E+03   -0.17622E-01   -0.17624E-01 11088   0.420E-01 0.147E-03
CGA:   4    -0.335318186975E+03   -0.63846E-02   -0.63761E-02 11088   0.889E-02-0.164E-03
CGA:   5    -0.335319526376E+03   -0.13394E-02   -0.13363E-02 11088   0.221E-02-0.568E-04
CGA:   6    -0.335319945326E+03   -0.41895E-03   -0.41899E-03 11088   0.673E-03 0.174E-05
CGA:   7    -0.335320070340E+03   -0.12501E-03   -0.12591E-03 11088   0.185E-03 0.509E-04
CGA:   8    -0.335320108588E+03   -0.38249E-04   -0.38603E-04 11088   0.586E-04 0.361E-04
CGA:   9    -0.335320120583E+03   -0.11995E-04   -0.12570E-04 11088   0.217E-04 0.245E-04
CGA:  10    -0.335320124504E+03   -0.39205E-05   -0.46669E-05 11088   0.974E-05 0.149E-04
  46 F= -.33532012E+03 E0= -.33532012E+03  d E =0.908149E-03  mag=     6.0000
