       N       E                     dE             d eps       ncg     rms          ort
DAV:   1     0.281974898811E+04    0.28197E+04   -0.13580E+05 10710   0.179E+03
DAV:   2    -0.622879007951E+01   -0.28260E+04   -0.26225E+04 10710   0.455E+02
DAV:   3    -0.398049522273E+03   -0.39182E+03   -0.37206E+03 10710   0.187E+02
DAV:   4    -0.416567531865E+03   -0.18518E+02   -0.18277E+02 10710   0.397E+01
DAV:   5    -0.417161812686E+03   -0.59428E+00   -0.59121E+00 10710   0.584E+00
SDA:   6    -0.266830720891E+03    0.15033E+03   -0.59121E+00 10710   0.133E+04 0.000E+00
CGA:   7    -0.255453999233E+03    0.11377E+02   -0.62315E+02 10710   0.623E+03-0.529E+03
CGA:   8    -0.287358825040E+03   -0.31905E+02   -0.78755E+01 10710   0.247E+04 0.287E+04
CGA:   9    -0.238139879945E+03    0.49219E+02   -0.13863E+03 10710   0.631E+03-0.458E+03
CGA:  10    -0.274220587187E+03   -0.36081E+02   -0.11947E+02 10710   0.233E+04 0.277E+04
CGA:  11    -0.248481711483E+03    0.25739E+02   -0.11789E+03 10710   0.587E+03-0.464E+03
CGA:  12    -0.266607835647E+03   -0.18126E+02   -0.89096E+01 10710   0.561E+03 0.523E+03
CGA:  13    -0.333223228079E+03   -0.66615E+02   -0.10691E+02 10710   0.683E+03-0.232E+04
CGA:  14    -0.272694514804E+03    0.60529E+02   -0.35733E+02 10710   0.789E+03-0.224E+03
CGA:  15    -0.331801016423E+03   -0.59107E+02   -0.94499E+01 10710   0.107E+04-0.270E+04
CGA:  16    -0.267030794116E+03    0.64770E+02   -0.56565E+02 10710   0.552E+03-0.163E+03
CGA:  17    -0.331606298401E+03   -0.64576E+02   -0.64833E+01 10710   0.118E+04 0.207E+04
CGA:  18    -0.302529435093E+03    0.29077E+02   -0.62973E+02 10710   0.105E+04-0.207E+03
CGA:  19    -0.274787748440E+03    0.27742E+02   -0.35836E+02 10710   0.183E+04-0.575E+03
CGA:  20    -0.250080416246E+03    0.24707E+02   -0.71429E+02 10710   0.552E+03-0.456E+03
CGA:  21    -0.304812820714E+03   -0.54732E+02   -0.74969E+01 10710   0.185E+04 0.435E+04
CGA:  22    -0.260853691260E+03    0.43959E+02   -0.85013E+02 10710   0.488E+03-0.296E+03
CGA:  23    -0.293340521353E+03   -0.32487E+02   -0.12557E+02 10710   0.443E+03-0.134E+04
CGA:  24    -0.314056488456E+03   -0.20716E+02   -0.79987E+01 10710   0.861E+03-0.115E+04
CGA:  25    -0.261702734902E+03    0.52354E+02   -0.28376E+02 10710   0.976E+03-0.391E+03
CGA:  26    -0.268813848077E+03   -0.71111E+01   -0.20331E+02 10710   0.399E+03-0.241E+03
CGA:  27    -0.306911249020E+03   -0.38097E+02   -0.64356E+01 10710   0.264E+04-0.254E+04
CGA:  28    -0.231146934628E+03    0.75764E+02   -0.96037E+02 10710   0.650E+03-0.321E+03
CGA:  29    -0.271197260469E+03   -0.40050E+02   -0.20900E+02 10710   0.390E+03-0.449E+03
CGA:  30    -0.304189577115E+03   -0.32992E+02   -0.73184E+01 10710   0.263E+04 0.453E+04
CGA:  31    -0.232778720844E+03    0.71411E+02   -0.85951E+02 10710   0.634E+03-0.332E+03
CGA:  32    -0.269666654493E+03   -0.36888E+02   -0.20933E+02 10710   0.393E+03-0.440E+03
CGA:  33    -0.283676266396E+03   -0.14010E+02   -0.69402E+01 10710   0.484E+03 0.553E+03
CGA:  34    -0.287506573158E+03   -0.38303E+01   -0.79431E+01 10710   0.318E+04-0.489E+04
CGA:  35    -0.273497005289E+03    0.14010E+02   -0.10350E+03 10710   0.377E+03-0.322E+03
CGA:  36    -0.293100478136E+03   -0.19603E+02   -0.49721E+01 10710   0.228E+04 0.305E+04
CGA:  37    -0.237704140481E+03    0.55396E+02   -0.58956E+02 10710   0.624E+03-0.384E+03
CGA:  38    -0.269858374410E+03   -0.32154E+02   -0.18838E+02 10710   0.391E+03-0.409E+03
CGA:  39    -0.281494769715E+03   -0.11636E+02   -0.57001E+01 10710   0.528E+03 0.589E+03
CGA:  40    -0.298800493428E+03   -0.17306E+02   -0.74356E+01 10710   0.418E+04 0.404E+03
CGA:  41    -0.252098273106E+03    0.46702E+02   -0.10722E+03 10710   0.547E+03-0.323E+03
CGA:  42    -0.277027860745E+03   -0.24930E+02   -0.12113E+02 10710   0.254E+04-0.262E+04
CGA:  43    -0.275323747734E+03    0.17041E+01   -0.59703E+02 10710   0.544E+04-0.541E+04
CGA:  44    -0.269165943566E+03    0.61578E+01   -0.13821E+03 10710   0.953E+03-0.897E+03
CGA:  45    -0.293275613802E+03   -0.24110E+02   -0.15053E+02 10710   0.260E+04 0.302E+04
CGA:  46    -0.244714911931E+03    0.48561E+02   -0.51533E+02 10710   0.826E+03-0.553E+03
CGA:  47    -0.271502179347E+03   -0.26787E+02   -0.19946E+02 10710   0.381E+03-0.370E+03
CGA:  48    -0.275543121060E+03   -0.40409E+01   -0.20059E+01 10710   0.377E+03 0.218E+03
CGA:  49    -0.307903394758E+03   -0.32360E+02   -0.34982E+01 10710   0.281E+04 0.504E+04
CGA:  50    -0.249974665788E+03    0.57929E+02   -0.47354E+02 10710   0.230E+04-0.118E+04
CGA:  51    -0.277345312633E+03   -0.27371E+02   -0.34016E+02 10710   0.402E+03-0.280E+03
CGA:  52    -0.308581408675E+03   -0.31236E+02   -0.28139E+01 10710   0.335E+04 0.476E+04
CGA:  53    -0.290073954974E+03    0.18507E+02   -0.52601E+02 10710   0.299E+04-0.244E+04
CGA:  54    -0.283475581893E+03    0.65984E+01   -0.52780E+02 10710   0.186E+04-0.140E+04
CGA:  55    -0.337411988013E+03   -0.53936E+02   -0.12250E+02 10710   0.313E+03-0.353E+03
CGA:  56    -0.338357813847E+03   -0.94583E+00   -0.13828E+01 10710   0.122E+03-0.617E+02
CGA:  57    -0.338743071186E+03   -0.38526E+00   -0.49583E+00 10710   0.620E+02-0.258E+02
CGA:  58    -0.338976832448E+03   -0.23376E+00   -0.20033E+00 10710   0.328E+02 0.812E+01
CGA:  59    -0.339119199526E+03   -0.14237E+00   -0.13308E+00 10710   0.738E+01 0.186E+01
CGA:  60    -0.339158138456E+03   -0.38939E-01   -0.49336E-01 10710   0.737E+01-0.180E+01
CGA:  61    -0.339230020860E+03   -0.71882E-01   -0.75687E-01 10710   0.158E+02-0.546E+00
CGA:  62    -0.339397686449E+03   -0.16767E+00   -0.18405E+00 10710   0.312E+02-0.246E+01
CGA:  63    -0.339735093705E+03   -0.33741E+00   -0.44929E+00 10710   0.218E+02-0.291E+01
CGA:  64    -0.340073939139E+03   -0.33885E+00   -0.38789E+00 10710   0.792E+01 0.114E+01
CGA:  65    -0.340183820149E+03   -0.10988E+00   -0.70040E-01 10710   0.207E+01 0.421E+01
CGA:  66    -0.340222139031E+03   -0.38319E-01   -0.37751E-01 10710   0.136E+01-0.262E-01
CGA:  67    -0.340356973355E+03   -0.13483E+00   -0.84652E-03 10710   0.104E+02-0.545E+00
CGA:  68    -0.340411708119E+03   -0.54735E-01   -0.58588E-01 10710   0.583E+01-0.912E+00
CGA:  69    -0.340459329281E+03   -0.47621E-01   -0.59484E-01 10710   0.261E+01-0.125E+01
CGA:  70    -0.340487041499E+03   -0.27712E-01   -0.29116E-01 10710   0.150E+01-0.270E+00
CGA:  71    -0.340527329900E+03   -0.40288E-01   -0.39865E-01 10710   0.385E+01-0.105E+00
CGA:  72    -0.340659540253E+03   -0.13221E+00   -0.12165E+00 10710   0.257E+01-0.610E+00
CGA:  73    -0.340691682284E+03   -0.32142E-01   -0.31017E-01 10710   0.102E+01-0.271E+00
CGA:  74    -0.340708592341E+03   -0.16910E-01   -0.17669E-01 10710   0.616E+00-0.129E+00
CGA:  75    -0.340721747416E+03   -0.13155E-01   -0.13234E-01 10710   0.753E+00-0.126E-01
CGA:  76    -0.340757196614E+03   -0.35449E-01   -0.36273E-01 10710   0.110E+01-0.646E-01
CGA:  77    -0.340784464749E+03   -0.27268E-01   -0.27059E-01 10710   0.526E+00-0.125E+00
CGA:  78    -0.340795792174E+03   -0.11327E-01   -0.11241E-01 10710   0.150E+00-0.699E-01
CGA:  79    -0.340799608913E+03   -0.38167E-02   -0.38475E-02 10710   0.147E+00 0.264E-02
CGA:  80    -0.340810601168E+03   -0.10992E-01   -0.13936E-01 10710   0.502E+00-0.508E-01
CGA:  81    -0.340823330677E+03   -0.12730E-01   -0.12623E-01 10710   0.320E+00-0.110E+00
CGA:  82    -0.340828422341E+03   -0.50917E-02   -0.48191E-02 10710   0.707E-01-0.413E-01
CGA:  83    -0.340830414742E+03   -0.19924E-02   -0.19993E-02 10710   0.983E-01 0.138E-02
CGA:  84    -0.340840946050E+03   -0.10531E-01   -0.15929E-01 10710   0.259E+00-0.441E-01
CGA:  85    -0.340843474431E+03   -0.25284E-02   -0.19337E-02 10710   0.813E-01-0.382E-01
CGA:  86    -0.340845269108E+03   -0.17947E-02   -0.12666E-02 10710   0.484E-01-0.286E-01
CGA:  87    -0.340847945387E+03   -0.26763E-02    0.21567E-01 10710   0.106E+00 0.765E-02
CGA:  88    -0.340856808066E+03   -0.88627E-02   -0.11406E-01 10710   0.536E-01-0.464E-01
CGA:  89    -0.340856893483E+03   -0.85417E-04   -0.30414E-02 10710   0.176E+00-0.494E-01
CGA:  90    -0.340860077140E+03   -0.31837E-02   -0.37102E-02 10710   0.297E-01 0.315E-01
CGA:  91    -0.340861976843E+03   -0.18997E-02   -0.18134E-02 10710   0.411E-01 0.143E-01
CGA:  92    -0.340865820247E+03   -0.38434E-02   -0.38903E-02 10710   0.129E-01-0.258E-02
CGA:  93    -0.340865958127E+03   -0.13788E-03   -0.28554E-03 10710   0.623E-02 0.651E-02
CGA:  94    -0.340866425649E+03   -0.46752E-03   -0.39344E-03 10710   0.523E-02 0.428E-02
CGA:  95    -0.340866990703E+03   -0.56505E-03    0.75331E-03 10710   0.521E-02 0.255E-02
CGA:  96    -0.340867977109E+03   -0.98641E-03   -0.73649E-03 10710   0.302E-02 0.530E-02
CGA:  97    -0.340868280093E+03   -0.30298E-03   -0.24112E-03 10710   0.350E-02 0.204E-02
CGA:  98    -0.340868484820E+03   -0.20473E-03   -0.19660E-03 10710   0.346E-02 0.146E-02
CGA:  99    -0.340870264970E+03   -0.17801E-02   -0.11434E-02 10710   0.489E-02 0.377E-02
CGA: 100    -0.340870245463E+03    0.19507E-04   -0.85847E-04 10710   0.208E-02 0.254E-02
CGA: 101    -0.340870346211E+03   -0.10075E-03   -0.10950E-03 10710   0.205E-02 0.170E-02
CGA: 102    -0.340870635362E+03   -0.28915E-03    0.25700E-03 10710   0.226E-02 0.154E-02
CGA: 103    -0.340870644869E+03   -0.95069E-05   -0.60726E-04 10710   0.183E-02 0.168E-02
CGA: 104    -0.340870870694E+03   -0.22582E-03    0.51726E-03 10710   0.188E-02 0.170E-02
CGA: 105    -0.340870935442E+03   -0.64748E-04   -0.83421E-04 10710   0.191E-02 0.161E-02
CGA: 106    -0.340871206465E+03   -0.27102E-03    0.18798E-03 10710   0.221E-02 0.143E-02
CGA: 107    -0.340871208850E+03   -0.23851E-05   -0.52966E-04 10710   0.173E-02 0.162E-02
CGA: 108    -0.340871404800E+03   -0.19595E-03    0.85040E-03 10710   0.173E-02 0.166E-02
CGA: 109    -0.340871524889E+03   -0.12009E-03   -0.10743E-03 10710   0.186E-02 0.157E-02
CGA: 110    -0.340871794845E+03   -0.26996E-03    0.14854E-03 10710   0.220E-02 0.132E-02
CGA: 111    -0.340871792634E+03    0.22114E-05   -0.48451E-04 10710   0.164E-02 0.158E-02
CGA: 112    -0.340871965767E+03   -0.17313E-03    0.25407E-01 10710   0.163E-02 0.161E-02
CGA: 113    -0.340872199665E+03   -0.23390E-03   -0.16257E-03 10710   0.179E-02 0.154E-02
CGA: 114    -0.340872470852E+03   -0.27119E-03    0.13106E-03 10710   0.218E-02 0.123E-02
CGA: 115    -0.340872465435E+03    0.54163E-05   -0.46233E-04 10710   0.158E-02 0.154E-02
CGA: 116    -0.340873496442E+03   -0.10310E-02   -0.51976E-02 10710   0.180E-02 0.148E-02
CGA: 117    -0.340873511684E+03   -0.15243E-04   -0.77345E-04 10710   0.189E-02 0.116E-02
CGA: 118    -0.340873961548E+03   -0.44986E-03    0.34171E-03 10710   0.671E-02 0.886E-04
CGA: 119    -0.340877574182E+03   -0.36126E-02   -0.39765E-06 10710   0.139E+00-0.340E-02
CGA: 120    -0.340881671843E+03   -0.40977E-02   -0.37356E-02 10710   0.171E-01-0.396E-01
CGA: 121    -0.340881787831E+03   -0.11599E-03   -0.34734E-03 10710   0.207E-02 0.242E-02
CGA: 122    -0.340881859461E+03   -0.71630E-04   -0.15232E-03 10710   0.446E-02 0.899E-03
CGA: 123    -0.340883961225E+03   -0.21018E-02    0.69014E-02 10710   0.105E-01 0.411E-02
CGA: 124    -0.340884231779E+03   -0.27055E-03   -0.32817E-03 10710   0.219E-02 0.867E-03
CGA: 125    -0.340881338148E+03    0.28936E-02   -0.18097E-02 10710   0.245E+00-0.611E-02
CGA: 126    -0.340886243651E+03   -0.49055E-02   -0.38295E-02 10710   0.556E-01 0.111E+00
CGA: 127    -0.340887530280E+03   -0.12866E-02   -0.11834E-02 10710   0.140E-01 0.265E-01
CGA: 128    -0.340888185580E+03   -0.65530E-03   -0.59270E-03 10710   0.929E-02 0.264E-03
CGA: 129    -0.340888915771E+03   -0.73019E-03   -0.40397E-03 10710   0.131E-01-0.248E-02
CGA: 130    -0.340889527502E+03   -0.61173E-03   -0.36137E-03 10710   0.189E-01-0.215E-02
CGA: 131    -0.340889904593E+03   -0.37709E-03   -0.38632E-03 10710   0.152E-01 0.145E-02
CGA: 132    -0.340890127583E+03   -0.22299E-03   -0.36988E-03 10710   0.109E-01 0.292E-02
CGA: 133    -0.340890419038E+03   -0.29145E-03   -0.34147E-03 10710   0.928E-02 0.160E-02
CGA: 134    -0.340891035883E+03   -0.61685E-03   -0.51787E-03 10710   0.254E-01-0.149E-02
CGA: 135    -0.340892713629E+03   -0.16777E-02   -0.15546E-02 10710   0.119E+00-0.237E-02
CGA: 136    -0.340893597447E+03   -0.88382E-03   -0.44534E-03 10710   0.120E+00 0.991E-01
CGA: 137    -0.340897052542E+03   -0.34551E-02   -0.31100E-02 10710   0.119E-01 0.205E-01
CGA: 138    -0.340898141062E+03   -0.10885E-02   -0.85643E-03 10710   0.125E-01-0.304E-02
CGA: 139    -0.340899194283E+03   -0.10532E-02   -0.89935E-03 10710   0.215E-01-0.257E-02
CGA: 140    -0.340900027678E+03   -0.83339E-03   -0.86208E-03 10710   0.175E-01 0.168E-02
CGA: 141    -0.340900879491E+03   -0.85181E-03   -0.83707E-03 10710   0.101E-01 0.669E-03
CGA: 142    -0.340902303484E+03   -0.14240E-02   -0.14116E-02 10710   0.475E-01-0.224E-02
CGA: 143    -0.340904490055E+03   -0.21866E-02   -0.18610E-02 10710   0.603E-01 0.621E-02
CGA: 144    -0.340906452803E+03   -0.19627E-02   -0.15795E-02 10710   0.339E-01 0.206E-01
CGA: 145    -0.340908507114E+03   -0.20543E-02   -0.17179E-02 10710   0.497E-01 0.133E-02
CGA: 146    -0.340912771669E+03   -0.42646E-02   -0.35450E-02 10710   0.184E+00-0.626E-02
CGA: 147    -0.340915233691E+03   -0.24620E-02   -0.11891E-02 10710   0.197E+00 0.122E+00
CGA: 148    -0.340921998273E+03   -0.67646E-02   -0.69775E-02 10710   0.185E-01-0.425E-02
CGA: 149    -0.340922918060E+03   -0.91979E-03   -0.10227E-02 10710   0.881E-02 0.249E-02
CGA: 150    -0.340919216910E+03    0.37011E-02   -0.26859E-02 10710   0.206E+00-0.171E-01
   1 F= -.34091922E+03 E0= -.34091443E+03  d E =-.340919E+03  mag=    14.0000
       N       E                     dE             d eps       ncg     rms          ort
SDA:   1    -0.293268100186E+03    0.47655E+02    0.00000E+00 10710   0.713E+03 0.000E+00
CGA:   2    -0.315014999630E+03   -0.21747E+02   -0.59357E+02 10710   0.101E+03-0.193E+02
CGA:   3    -0.321924248100E+03   -0.69092E+01   -0.38015E+01 10710   0.612E+02 0.807E+02
CGA:   4    -0.325757522002E+03   -0.38333E+01   -0.21330E+01 10710   0.424E+02 0.477E+02
CGA:   5    -0.328727380271E+03   -0.29699E+01   -0.16513E+01 10710   0.290E+02 0.345E+02
CGA:   6    -0.330456392632E+03   -0.17290E+01   -0.88909E+00 10710   0.244E+02 0.276E+02
CGA:   7    -0.332315061294E+03   -0.18587E+01   -0.98827E+00 10710   0.173E+02 0.190E+02
CGA:   8    -0.338661269837E+03   -0.63462E+01   -0.68554E+01 10710   0.511E+02-0.236E+01
CGA:   9    -0.339480957218E+03   -0.81969E+00   -0.17597E+01 10710   0.129E+02-0.147E+02
CGA:  10    -0.339618132191E+03   -0.13717E+00   -0.24904E+00 10710   0.641E+01-0.463E+01
CGA:  11    -0.339946476623E+03   -0.32834E+00   -0.30169E+00 10710   0.348E+01 0.234E+00
CGA:  12    -0.340073281960E+03   -0.12681E+00   -0.16835E+00 10710   0.513E+01-0.785E+00
CGA:  13    -0.340226738559E+03   -0.15346E+00   -0.13695E+00 10710   0.168E+01 0.455E+00
CGA:  14    -0.340275644155E+03   -0.48906E-01   -0.43523E-01 10710   0.116E+01 0.231E+00
CGA:  15    -0.340332556559E+03   -0.56912E-01   -0.49096E-01 10710   0.882E+00 0.185E+00
CGA:  16    -0.340369238214E+03   -0.36682E-01   -0.39746E-01 10710   0.153E+01-0.924E-01
CGA:  17    -0.340429978711E+03   -0.60740E-01   -0.59521E-01 10710   0.128E+01-0.430E-02
CGA:  18    -0.340449263540E+03   -0.19285E-01   -0.18893E-01 10710   0.199E+00 0.259E-02
CGA:  19    -0.340454616351E+03   -0.53528E-02   -0.58053E-02 10710   0.226E+00-0.234E-01
CGA:  20    -0.340463356801E+03   -0.87404E-02   -0.89590E-02 10710   0.269E+00-0.146E-01
CGA:  21    -0.340473190212E+03   -0.98334E-02   -0.97421E-02 10710   0.253E+00 0.102E-01
CGA:  22    -0.340478283955E+03   -0.50937E-02   -0.49051E-02 10710   0.634E-01 0.387E-01
CGA:  23    -0.340480151309E+03   -0.18674E-02   -0.19167E-02 10710   0.705E-01-0.120E-02
CGA:  24    -0.340485205847E+03   -0.50545E-02   -0.48172E-02 10710   0.177E+00-0.112E-01
CGA:  25    -0.340488729791E+03   -0.35239E-02   -0.29829E-02 10710   0.899E-01-0.886E-02
CGA:  26    -0.340490629896E+03   -0.19001E-02   -0.18593E-02 10710   0.669E-01 0.127E-02
CGA:  27    -0.340491688507E+03   -0.10586E-02   -0.11823E-02 10710   0.269E-01 0.797E-02
CGA:  28    -0.340492059399E+03   -0.37089E-03   -0.51370E-03 10710   0.184E-01 0.180E-02
CGA:  29    -0.340492959219E+03   -0.89982E-03   -0.96670E-03 10710   0.607E-01 0.179E-02
CGA:  30    -0.340495351009E+03   -0.23918E-02   -0.23827E-02 10710   0.383E-01-0.129E-03
CGA:  31    -0.340496058459E+03   -0.70745E-03   -0.58411E-03 10710   0.113E-01-0.217E-02
CGA:  32    -0.340496817740E+03   -0.75928E-03   -0.70936E-03 10710   0.526E-01-0.737E-02
CGA:  33    -0.340497733186E+03   -0.91545E-03   -0.10362E-02 10710   0.830E-02 0.114E-02
CGA:  34    -0.340498300811E+03   -0.56762E-03   -0.57157E-03 10710   0.720E-02 0.145E-02
CGA:  35    -0.340496078525E+03    0.22223E-02   -0.26071E-02 10710   0.109E+00-0.199E-01
CGA:  36    -0.340498674736E+03   -0.25962E-02   -0.29873E-02 10710   0.258E-01 0.756E-02
CGA:  37    -0.340499501827E+03   -0.82709E-03   -0.10009E-02 10710   0.163E-01 0.431E-02
CGA:  38    -0.340500705706E+03   -0.12039E-02   -0.12314E-02 10710   0.194E-02 0.217E-02
CGA:  39    -0.340500776855E+03   -0.71148E-04   -0.69283E-04 10710   0.174E-02-0.597E-04
CGA:  40    -0.340501089610E+03   -0.31275E-03   -0.34783E-04 10710   0.710E-02-0.115E-02
CGA:  41    -0.340501414766E+03   -0.32516E-03   -0.38936E-03 10710   0.513E-02 0.105E-02
CGA:  42    -0.340502102751E+03   -0.68799E-03   -0.64321E-03 10710   0.124E-01-0.203E-02
CGA:  43    -0.340502348564E+03   -0.24581E-03   -0.14088E-03 10710   0.378E-02-0.938E-03
CGA:  44    -0.340502414636E+03   -0.66072E-04   -0.54043E-04 10710   0.196E-02-0.128E-03
CGA:  45    -0.340502478001E+03   -0.63364E-04   -0.81929E-04 10710   0.502E-02 0.247E-03
CGA:  46    -0.340502636378E+03   -0.15838E-03   -0.22077E-03 10710   0.377E-02 0.772E-03
CGA:  47    -0.340502717102E+03   -0.80723E-04   -0.10903E-03 10710   0.260E-02 0.274E-03
CGA:  48    -0.340502797740E+03   -0.80639E-04   -0.98181E-04 10710   0.225E-02 0.277E-03
CGA:  49    -0.340502877256E+03   -0.79516E-04   -0.87117E-04 10710   0.368E-02 0.142E-03
CGA:  50    -0.340503348820E+03   -0.47156E-03   -0.50204E-03 10710   0.258E-01-0.878E-03
CGA:  51    -0.340503827240E+03   -0.47842E-03   -0.30110E-03 10710   0.220E-01 0.243E-02
CGA:  52    -0.340504409465E+03   -0.58223E-03   -0.40187E-03 10710   0.994E-02-0.505E-02
CGA:  53    -0.340504952121E+03   -0.54266E-03   -0.30519E-03 10710   0.188E-01-0.575E-02
CGA:  54    -0.340505264478E+03   -0.31236E-03   -0.41275E-03 10710   0.504E-02 0.142E-02
CGA:  55    -0.340505753680E+03   -0.48920E-03   -0.48431E-03 10710   0.340E-02 0.226E-02
CGA:  56    -0.340506064146E+03   -0.31047E-03   -0.27400E-03 10710   0.575E-02-0.119E-02
CGA:  57    -0.340506178542E+03   -0.11440E-03   -0.10580E-03 10710   0.390E-02-0.169E-03
CGA:  58    -0.340506189873E+03   -0.11331E-04   -0.52100E-04 10710   0.136E-02 0.583E-03
CGA:  59    -0.340506174029E+03    0.15843E-04   -0.22143E-04 10710   0.925E-03 0.604E-03
CGA:  60    -0.340506162630E+03    0.11399E-04   -0.21825E-04 10710   0.713E-03 0.577E-03
CGA:  61    -0.340506269153E+03   -0.10652E-03    0.12672E-02 10710   0.249E-02-0.374E-03
CGA:  62    -0.340506286118E+03   -0.16965E-04   -0.41911E-04 10710   0.318E-03 0.439E-03
CGA:  63    -0.340506287099E+03   -0.98094E-06   -0.10567E-04 10710   0.371E-03 0.229E-03
CGA:  64    -0.340505552776E+03    0.73432E-03   -0.39615E-03 10710   0.628E-01-0.243E-02
CGA:  65    -0.340506517965E+03   -0.96519E-03   -0.10830E-02 10710   0.326E-03 0.145E-02
CGA:  66    -0.340506510819E+03    0.71459E-05   -0.10552E-04 10710   0.268E-03 0.204E-03
CGA:  67    -0.340506551172E+03   -0.40353E-04   -0.48239E-04 10710   0.311E-02-0.118E-03
CGA:  68    -0.340506589296E+03   -0.38124E-04   -0.61788E-04 10710   0.710E-02 0.353E-03
CGA:  69    -0.340506687922E+03   -0.98626E-04   -0.21041E-03 10710   0.172E-02 0.105E-02
CGA:  70    -0.340506786399E+03   -0.98478E-04   -0.12459E-03 10710   0.492E-02 0.597E-03
CGA:  71    -0.340507690972E+03   -0.90457E-03   -0.10598E-02 10710   0.204E-01-0.176E-02
CGA:  72    -0.340507862710E+03   -0.17174E-03   -0.10234E-03 10710   0.216E-01 0.735E-02
CGA:  73    -0.340508677640E+03   -0.81493E-03   -0.56943E-03 10710   0.112E-01 0.577E-02
CGA:  74    -0.340509254130E+03   -0.57649E-03   -0.58757E-03 10710   0.173E-01-0.347E-02
CGA:  75    -0.340510058888E+03   -0.80476E-03   -0.64585E-03 10710   0.172E-01 0.584E-02
CGA:  76    -0.340510326746E+03   -0.26786E-03   -0.31020E-03 10710   0.694E-02 0.104E-01
CGA:  77    -0.340510566387E+03   -0.23964E-03   -0.30680E-03 10710   0.374E-02 0.146E-02
CGA:  78    -0.340510940310E+03   -0.37392E-03   -0.37851E-03 10710   0.259E-02 0.873E-03
CGA:  79    -0.340510982568E+03   -0.42258E-04   -0.99354E-04 10710   0.914E-03 0.987E-03
CGA:  80    -0.340511019319E+03   -0.36752E-04   -0.65150E-04 10710   0.104E-02 0.841E-03
CGA:  81    -0.340508735660E+03    0.22837E-02   -0.12269E-02 10710   0.133E+00-0.629E-02
CGA:  82    -0.340511318797E+03   -0.25831E-02   -0.29947E-02 10710   0.972E-02 0.220E-02
CGA:  83    -0.340511510713E+03   -0.19192E-03   -0.27094E-03 10710   0.809E-03 0.956E-03
CGA:  84    -0.340511523117E+03   -0.12404E-04   -0.48510E-04 10710   0.833E-03 0.422E-03
CGA:  85    -0.340511547149E+03   -0.24033E-04   -0.32119E-04 10710   0.640E-03 0.806E-04
CGA:  86    -0.340511610055E+03   -0.62905E-04   -0.68562E-04 10710   0.813E-03 0.167E-03
CGA:  87    -0.340511594976E+03    0.15079E-04   -0.40348E-04 10710   0.367E-03 0.628E-03
CGA:  88    -0.340511611095E+03   -0.16119E-04   -0.25532E-04 10710   0.424E-03 0.172E-03
CGA:  89    -0.340511652352E+03   -0.41256E-04   -0.18454E-03 10710   0.109E-01-0.818E-03
CGA:  90    -0.340511801022E+03   -0.14867E-03   -0.21280E-03 10710   0.876E-03 0.628E-03
CGA:  91    -0.340511839074E+03   -0.38052E-04   -0.62400E-04 10710   0.681E-03 0.418E-03
CGA:  92    -0.340511854723E+03   -0.15649E-04   -0.36299E-04 10710   0.296E-03 0.234E-03
CGA:  93    -0.340511840770E+03    0.13953E-04   -0.11372E-04 10710   0.174E-03 0.283E-03
CGA:  94    -0.340511845153E+03   -0.43833E-05   -0.10335E-04 10710   0.245E-03 0.110E-03
CGA:  95    -0.340511866365E+03   -0.21211E-04   -0.16986E-04 10710   0.840E-03-0.102E-03
CGA:  96    -0.340511891234E+03   -0.24869E-04   -0.35276E-04 10710   0.288E-02 0.287E-03
CGA:  97    -0.340511992750E+03   -0.10152E-03   -0.18251E-03 10710   0.713E-03 0.143E-02
CGA:  98    -0.340512100164E+03   -0.10741E-03   -0.10498E-03 10710   0.395E-02-0.417E-03
CGA:  99    -0.340512114423E+03   -0.14259E-04   -0.65544E-04 10710   0.198E-03 0.600E-03
CGA: 100    -0.340512105053E+03    0.93699E-05   -0.29559E-05 10710   0.125E-03 0.143E-03
   2 F= -.34051211E+03 E0= -.34050426E+03  d E =0.407112E+00  mag=    14.0000
       N       E                     dE             d eps       ncg     rms          ort
SDA:   1    -0.333486605458E+03    0.70255E+01    0.00000E+00 10710   0.482E+02 0.000E+00
CGA:   2    -0.334827211890E+03   -0.13406E+01   -0.24631E+01 10710   0.368E+02-0.682E+01
CGA:   3    -0.337609167989E+03   -0.27820E+01   -0.25240E+01 10710   0.626E+02-0.106E+02
CGA:   4    -0.338852837345E+03   -0.12437E+01   -0.15917E+01 10710   0.489E+02-0.135E+02
CGA:   5    -0.339675296286E+03   -0.82246E+00   -0.11473E+01 10710   0.130E+02-0.134E+02
CGA:   6    -0.340048077495E+03   -0.37278E+00   -0.20559E+00 10710   0.514E+01 0.673E+01
CGA:   7    -0.340213705624E+03   -0.16563E+00   -0.14586E+00 10710   0.343E+01 0.461E+00
CGA:   8    -0.340615918044E+03   -0.40221E+00   -0.40192E+00 10710   0.310E+01 0.143E-01
CGA:   9    -0.340680918542E+03   -0.65000E-01   -0.88604E-01 10710   0.598E+00-0.668E+00
CGA:  10    -0.340725143292E+03   -0.44225E-01   -0.44971E-01 10710   0.100E+01-0.230E-01
CGA:  11    -0.340782090132E+03   -0.56947E-01   -0.58189E-01 10710   0.573E+00-0.125E-02
CGA:  12    -0.340799759409E+03   -0.17669E-01   -0.18109E-01 10710   0.225E+00-0.213E-01
CGA:  13    -0.340812096433E+03   -0.12337E-01   -0.12560E-01 10710   0.165E+00 0.687E-02
CGA:  14    -0.340823897536E+03   -0.11801E-01   -0.11763E-01 10710   0.101E+00-0.123E-01
CGA:  15    -0.340828003738E+03   -0.41062E-02   -0.43326E-02 10710   0.261E-01 0.626E-02
CGA:  16    -0.340830389504E+03   -0.23858E-02   -0.24887E-02 10710   0.863E-01-0.619E-02
CGA:  17    -0.340834487383E+03   -0.40979E-02   -0.40224E-02 10710   0.480E-01-0.788E-02
CGA:  18    -0.340835237329E+03   -0.74995E-03   -0.93308E-03 10710   0.144E-01 0.154E-02
CGA:  19    -0.340835668266E+03   -0.43094E-03   -0.52488E-03 10710   0.144E-01 0.287E-02
CGA:  20    -0.340837294445E+03   -0.16262E-02   -0.16986E-02 10710   0.471E-01-0.254E-02
CGA:  21    -0.340838502400E+03   -0.12080E-02   -0.10164E-02 10710   0.191E-01-0.512E-02
CGA:  22    -0.340838856467E+03   -0.35407E-03   -0.28478E-03 10710   0.698E-02-0.155E-02
CGA:  23    -0.340839115026E+03   -0.25856E-03   -0.22936E-03 10710   0.103E-01-0.105E-02
CGA:  24    -0.340839487393E+03   -0.37237E-03   -0.33914E-03 10710   0.148E-01-0.143E-02
CGA:  25    -0.340839926497E+03   -0.43910E-03   -0.41972E-03 10710   0.157E-01-0.846E-03
CGA:  26    -0.340840197469E+03   -0.27097E-03   -0.30064E-03 10710   0.520E-02 0.638E-03
CGA:  27    -0.340840243600E+03   -0.46131E-04   -0.80026E-04 10710   0.204E-02 0.774E-03
CGA:  28    -0.340840281124E+03   -0.37524E-04   -0.59321E-04 10710   0.296E-02 0.694E-03
CGA:  29    -0.340840548508E+03   -0.26738E-03   -0.26234E-03 10710   0.729E-02 0.466E-03
CGA:  30    -0.340840945388E+03   -0.39688E-03   -0.33213E-03 10710   0.492E-02-0.402E-02
CGA:  31    -0.340841224290E+03   -0.27890E-03   -0.30176E-03 10710   0.928E-02-0.360E-02
CGA:  32    -0.340841348127E+03   -0.12384E-03   -0.18082E-03 10710   0.109E-02 0.170E-02
CGA:  33    -0.340841342962E+03    0.51655E-05   -0.23671E-04 10710   0.816E-03 0.827E-03
CGA:  34    -0.340841387445E+03   -0.44484E-04   -0.43591E-04 10710   0.729E-03 0.500E-03
CGA:  35    -0.340841431588E+03   -0.44143E-04   -0.44022E-04 10710   0.137E-02 0.107E-04
CGA:  36    -0.340841530646E+03   -0.99058E-04   -0.89884E-04 10710   0.530E-03 0.725E-03
CGA:  37    -0.340841556839E+03   -0.26194E-04   -0.25678E-04 10710   0.785E-03-0.119E-03
CGA:  38    -0.340841631871E+03   -0.75031E-04    0.92464E-04 10710   0.827E-03 0.464E-03
CGA:  39    -0.340841651095E+03   -0.19225E-04   -0.21488E-04 10710   0.259E-03 0.869E-04
CGA:  40    -0.340841705152E+03   -0.54057E-04   -0.51298E-04 10710   0.153E-02 0.249E-04
CGA:  41    -0.340841912528E+03   -0.20738E-03    0.68619E-03 10710   0.154E-02 0.122E-02
CGA:  42    -0.340841942589E+03   -0.30061E-04   -0.41014E-04 10710   0.244E-03 0.350E-03
CGA:  43    -0.340841939748E+03    0.28406E-05   -0.50561E-05 10710   0.160E-03 0.201E-03
   3 F= -.34084194E+03 E0= -.34083431E+03  d E =0.772772E-01  mag=    14.0000
       N       E                     dE             d eps       ncg     rms          ort
SDA:   1    -0.340066605234E+03    0.77534E+00    0.00000E+00 10710   0.569E+01 0.000E+00
CGA:   2    -0.340226867484E+03   -0.16026E+00   -0.15251E+00 10710   0.223E+01 0.121E+00
CGA:   3    -0.340675751250E+03   -0.44888E+00   -0.45845E+00 10710   0.356E+01-0.808E-01
CGA:   4    -0.340773921967E+03   -0.98171E-01   -0.10206E+00 10710   0.558E+00-0.176E+00
CGA:   5    -0.340850617415E+03   -0.76695E-01   -0.76725E-01 10710   0.102E+01-0.506E-03
CGA:   6    -0.340881656726E+03   -0.31039E-01   -0.31109E-01 10710   0.111E+00-0.119E-01
CGA:   7    -0.340890539916E+03   -0.88832E-02   -0.89779E-02 10710   0.114E+00-0.435E-02
CGA:   8    -0.340897313333E+03   -0.67734E-02   -0.67689E-02 10710   0.619E-01-0.841E-02
CGA:   9    -0.340898922409E+03   -0.16091E-02   -0.18352E-02 10710   0.126E-01 0.868E-02
CGA:  10    -0.340900064608E+03   -0.11422E-02   -0.10808E-02 10710   0.189E-01 0.429E-02
CGA:  11    -0.340902108441E+03   -0.20438E-02   -0.23668E-02 10710   0.215E-01-0.102E-01
CGA:  12    -0.340902410478E+03   -0.30204E-03   -0.45962E-03 10710   0.411E-02 0.376E-02
CGA:  13    -0.340902653567E+03   -0.24309E-03   -0.25944E-03 10710   0.478E-02 0.225E-02
CGA:  14    -0.340902868074E+03   -0.21451E-03   -0.43436E-03 10710   0.303E-01-0.735E-02
CGA:  15    -0.340903234108E+03   -0.36603E-03   -0.56173E-03 10710   0.175E-02 0.447E-02
CGA:  16    -0.340903232656E+03    0.14523E-05   -0.39909E-04 10710   0.115E-02 0.103E-02
CGA:  17    -0.340903377234E+03   -0.14458E-03    0.40195E-03 10710   0.119E-02 0.866E-03
CGA:  18    -0.340903419747E+03   -0.42513E-04   -0.51301E-04 10710   0.124E-02 0.582E-03
CGA:  19    -0.340903632928E+03   -0.21318E-03    0.44789E-02 10710   0.789E-03 0.157E-02
CGA:  20    -0.340903748735E+03   -0.11581E-03    0.80219E-04 10710   0.103E-02 0.424E-03
CGA:  21    -0.340903757225E+03   -0.84900E-05   -0.25284E-04 10710   0.635E-03 0.511E-03
CGA:  22    -0.340903865344E+03   -0.10812E-03   -0.87307E-04 10710   0.203E-02 0.575E-03
CGA:  23    -0.340903963008E+03   -0.97664E-04   -0.14384E-03 10710   0.107E-01-0.347E-02
CGA:  24    -0.340904063313E+03   -0.10030E-03   -0.17892E-03 10710   0.687E-03 0.194E-02
CGA:  25    -0.340904058754E+03    0.45583E-05   -0.12829E-04 10710   0.450E-03 0.431E-03
CGA:  26    -0.340904113122E+03   -0.54368E-04    0.10354E-03 10710   0.451E-03 0.406E-03
CGA:  27    -0.340904217347E+03   -0.10422E-03   -0.11744E-03 10710   0.554E-02-0.617E-04
CGA:  28    -0.340903877439E+03    0.33991E-03   -0.14601E-02 10710   0.974E-02-0.753E-02
CGA:  29    -0.340904130808E+03   -0.25337E-03   -0.29173E-03 10710   0.381E-02 0.102E-02
CGA:  30    -0.340905067402E+03   -0.93659E-03   -0.94272E-03 10710   0.158E-01-0.317E-04
CGA:  31    -0.340905915656E+03   -0.84825E-03   -0.79043E-03 10710   0.510E-02-0.198E-02
CGA:  32    -0.340905925120E+03   -0.94641E-05   -0.96698E-04 10710   0.153E-02 0.154E-02
CGA:  33    -0.340905903513E+03    0.21607E-04   -0.35308E-04 10710   0.929E-03 0.965E-03
CGA:  34    -0.340906197153E+03   -0.29364E-03   -0.26350E-05 10710   0.451E-02-0.534E-03
CGA:  35    -0.340906177058E+03    0.20094E-04   -0.97797E-04 10710   0.741E-03 0.108E-02
CGA:  36    -0.340906168075E+03    0.89828E-05   -0.28910E-04 10710   0.557E-03 0.392E-03
CGA:  37    -0.340906353377E+03   -0.18530E-03    0.10361E-03 10710   0.353E-02-0.531E-03
CGA:  38    -0.340906325578E+03    0.27800E-04   -0.62109E-04 10710   0.309E-03 0.850E-03
CGA:  39    -0.340906308984E+03    0.16593E-04   -0.50528E-05 10710   0.155E-03 0.204E-03
CGA:  40    -0.340906307988E+03    0.99674E-06   -0.74346E-05 10710   0.140E-03 0.128E-03
CGA:  41    -0.340906350700E+03   -0.42712E-04    0.20486E-04 10710   0.257E-03 0.817E-04
CGA:  42    -0.340906344206E+03    0.64940E-05   -0.49689E-05 10710   0.111E-03 0.127E-03
   4 F= -.34090634E+03 E0= -.34089904E+03  d E =0.128727E-01  mag=    14.0000
       N       E                     dE             d eps       ncg     rms          ort
SDA:   1    -0.338834769841E+03    0.20716E+01    0.00000E+00 10710   0.105E+02 0.000E+00
CGA:   2    -0.339223166390E+03   -0.38840E+00   -0.36765E+00 10710   0.717E+01-0.180E+00
CGA:   3    -0.340322331210E+03   -0.10992E+01   -0.11210E+01 10710   0.115E+02-0.318E+00
CGA:   4    -0.340588328718E+03   -0.26600E+00   -0.37863E+00 10710   0.250E+01-0.280E+01
CGA:   5    -0.340739925381E+03   -0.15160E+00   -0.15031E+00 10710   0.220E+01 0.161E-01
CGA:   6    -0.340861096442E+03   -0.12117E+00   -0.13308E+00 10710   0.123E+01-0.897E-01
CGA:   7    -0.340908328335E+03   -0.47232E-01   -0.47172E-01 10710   0.261E+00-0.793E-02
CGA:   8    -0.340925390719E+03   -0.17062E-01   -0.17060E-01 10710   0.213E+00 0.141E-01
CGA:   9    -0.340941327238E+03   -0.15937E-01   -0.15683E-01 10710   0.124E+00-0.159E-01
CGA:  10    -0.340946000656E+03   -0.46734E-02   -0.48866E-02 10710   0.373E-01 0.904E-02
CGA:  11    -0.340949018560E+03   -0.30179E-02   -0.30108E-02 10710   0.567E-01-0.243E-03
CGA:  12    -0.340953633043E+03   -0.46145E-02   -0.45865E-02 10710   0.242E-01-0.511E-02
CGA:  13    -0.340954034041E+03   -0.40100E-03   -0.65350E-03 10710   0.817E-02 0.474E-02
CGA:  14    -0.340954575709E+03   -0.54167E-03   -0.60355E-03 10710   0.129E-01 0.284E-02
CGA:  15    -0.340956402766E+03   -0.18271E-02   -0.19716E-02 10710   0.178E-01-0.481E-02
CGA:  16    -0.340956570856E+03   -0.16809E-03   -0.22282E-03 10710   0.733E-02 0.104E-02
CGA:  17    -0.340956635194E+03   -0.64338E-04   -0.14073E-03 10710   0.399E-02 0.135E-02
CGA:  18    -0.340956813663E+03   -0.17847E-03   -0.19952E-03 10710   0.808E-02 0.634E-03
CGA:  19    -0.340957519946E+03   -0.70628E-03   -0.69808E-03 10710   0.189E-01-0.452E-02
CGA:  20    -0.340958202915E+03   -0.68297E-03   -0.65279E-03 10710   0.306E-02-0.119E-02
CGA:  21    -0.340958223159E+03   -0.20243E-04   -0.79642E-04 10710   0.124E-02 0.130E-02
CGA:  22    -0.340958257555E+03   -0.34396E-04   -0.66543E-04 10710   0.150E-02 0.948E-03
CGA:  23    -0.340958474866E+03   -0.21731E-03    0.16683E-02 10710   0.319E-02-0.535E-03
CGA:  24    -0.340958679677E+03   -0.20481E-03   -0.46439E-03 10710   0.115E-01-0.162E-02
CGA:  25    -0.340958868451E+03   -0.18877E-03   -0.31082E-03 10710   0.183E-02 0.272E-02
CGA:  26    -0.340958957561E+03   -0.89110E-04   -0.10100E-03 10710   0.121E-02 0.400E-03
CGA:  27    -0.340959197256E+03   -0.23969E-03    0.52144E-03 10710   0.154E-02 0.417E-03
CGA:  28    -0.340959363603E+03   -0.16635E-03   -0.17857E-03 10710   0.175E-02-0.946E-03
CGA:  29    -0.340959450815E+03   -0.87212E-04   -0.92599E-04 10710   0.990E-03 0.248E-03
CGA:  30    -0.340959460926E+03   -0.10111E-04   -0.38789E-04 10710   0.581E-03 0.736E-03
CGA:  31    -0.340959524561E+03   -0.63635E-04   -0.70479E-04 10710   0.134E-02-0.129E-03
CGA:  32    -0.340959719302E+03   -0.19474E-03   -0.24419E-03 10710   0.450E-02-0.263E-03
CGA:  33    -0.340959753777E+03   -0.34475E-04   -0.10671E-03 10710   0.243E-02 0.149E-02
CGA:  34    -0.340959839856E+03   -0.86080E-04   -0.13287E-03 10710   0.316E-02 0.129E-02
CGA:  35    -0.340957307951E+03    0.25319E-02   -0.96767E-03 10710   0.157E+00-0.150E-01
CGA:  36    -0.340960412424E+03   -0.31045E-02   -0.32677E-02 10710   0.720E-02 0.271E-01
CGA:  37    -0.340960453668E+03   -0.41244E-04   -0.17208E-03 10710   0.171E-02 0.223E-02
CGA:  38    -0.340960461882E+03   -0.82137E-05   -0.55725E-04 10710   0.883E-03 0.841E-03
CGA:  39    -0.340960502698E+03   -0.40816E-04   -0.50748E-04 10710   0.871E-03 0.240E-03
CGA:  40    -0.340960548199E+03   -0.45501E-04   -0.53667E-04 10710   0.107E-02 0.286E-03
CGA:  41    -0.340960558637E+03   -0.10438E-04   -0.35152E-04 10710   0.521E-03 0.493E-03
CGA:  42    -0.340960565161E+03   -0.65245E-05   -0.21036E-04 10710   0.594E-03 0.326E-03
CGA:  43    -0.340960683885E+03   -0.11872E-03    0.51770E-04 10710   0.636E-03 0.170E-03
CGA:  44    -0.340960747177E+03   -0.63291E-04   -0.62210E-04 10710   0.446E-03 0.220E-03
CGA:  45    -0.340960872618E+03   -0.12544E-03    0.45823E-04 10710   0.402E-03 0.361E-03
CGA:  46    -0.340960871075E+03    0.15427E-05   -0.11993E-04 10710   0.307E-03 0.327E-03
CGA:  47    -0.340960893822E+03   -0.22747E-04   -0.22054E-04 10710   0.249E-03 0.255E-03
CGA:  48    -0.340960905800E+03   -0.11978E-04   -0.14454E-04 10710   0.248E-03 0.218E-03
CGA:  49    -0.340960940504E+03   -0.34704E-04    0.51861E-03 10710   0.308E-03 0.181E-03
CGA:  50    -0.340960942384E+03   -0.18792E-05   -0.92748E-05 10710   0.230E-03 0.192E-03
CGA:  51    -0.340961068057E+03   -0.12567E-03   -0.18236E-04 10710   0.349E-02 0.378E-04
CGA:  52    -0.340961973608E+03   -0.90555E-03   -0.79507E-03 10710   0.391E-02 0.200E-02
CGA:  53    -0.340962278144E+03   -0.30454E-03   -0.16039E-03 10710   0.233E-02-0.185E-02
CGA:  54    -0.340962326710E+03   -0.48566E-04   -0.73215E-04 10710   0.589E-03 0.406E-03
CGA:  55    -0.340962324714E+03    0.19958E-05   -0.18870E-04 10710   0.263E-03 0.237E-03
CGA:  56    -0.340962004926E+03    0.31979E-03   -0.17804E-03 10710   0.199E-01-0.134E-02
CGA:  57    -0.340962668893E+03   -0.66397E-03   -0.70670E-03 10710   0.890E-03 0.569E-03
CGA:  58    -0.340962642265E+03    0.26627E-04   -0.17638E-04 10710   0.293E-03 0.417E-03
CGA:  59    -0.340962623462E+03    0.18803E-04   -0.84876E-05 10710   0.270E-03 0.268E-03
CGA:  60    -0.340962697920E+03   -0.74458E-04    0.87243E-04 10710   0.691E-03 0.689E-04
CGA:  61    -0.340962698687E+03   -0.76706E-06   -0.40915E-04 10710   0.248E-03 0.586E-03
   5 F= -.34096270E+03 E0= -.34095585E+03  d E =-.434818E-01  mag=    14.0000
       N       E                     dE             d eps       ncg     rms          ort
SDA:   1    -0.340816414706E+03    0.14628E+00    0.00000E+00 10710   0.703E+00 0.000E+00
CGA:   2    -0.340842522637E+03   -0.26108E-01   -0.25106E-01 10710   0.437E+00 0.711E-01
CGA:   3    -0.340933667418E+03   -0.91145E-01   -0.91905E-01 10710   0.261E+00-0.884E-02
CGA:   4    -0.340944033865E+03   -0.10366E-01   -0.10256E-01 10710   0.154E+00-0.311E-01
CGA:   5    -0.340957724519E+03   -0.13691E-01   -0.13707E-01 10710   0.914E-01 0.471E-02
CGA:   6    -0.340963001692E+03   -0.52772E-02   -0.51226E-02 10710   0.351E-01-0.597E-02
CGA:   7    -0.340964653725E+03   -0.16520E-02   -0.15451E-02 10710   0.197E-01-0.273E-02
CGA:   8    -0.340965996090E+03   -0.13424E-02   -0.13935E-02 10710   0.409E-02 0.231E-02
CGA:   9    -0.340966527368E+03   -0.53128E-03   -0.75896E-03 10710   0.273E-01-0.342E-02
CGA:  10    -0.340966921131E+03   -0.39376E-03   -0.56071E-03 10710   0.163E-02 0.397E-02
CGA:  11    -0.340966927883E+03   -0.67519E-05   -0.56039E-04 10710   0.121E-02 0.736E-03
CGA:  12    -0.340967039364E+03   -0.11148E-03   -0.12565E-03 10710   0.188E-02 0.597E-03
CGA:  13    -0.340967333244E+03   -0.29388E-03   -0.30650E-03 10710   0.532E-02-0.812E-03
CGA:  14    -0.340967354928E+03   -0.21684E-04   -0.42479E-04 10710   0.394E-02 0.349E-03
CGA:  15    -0.340967358691E+03   -0.37625E-05   -0.50287E-04 10710   0.160E-02 0.775E-03
CGA:  16    -0.340967350469E+03    0.82214E-05   -0.27686E-04 10710   0.145E-02 0.539E-03
CGA:  17    -0.340967365626E+03   -0.15157E-04   -0.52910E-04 10710   0.321E-02 0.710E-03
CGA:  18    -0.340967542655E+03   -0.17703E-03   -0.21277E-03 10710   0.669E-02 0.116E-02
CGA:  19    -0.340967762190E+03   -0.21954E-03   -0.21766E-03 10710   0.229E-02-0.100E-03
CGA:  20    -0.340967856444E+03   -0.94255E-04   -0.58677E-04 10710   0.187E-02-0.776E-03
CGA:  21    -0.340967941448E+03   -0.85004E-04   -0.81632E-04 10710   0.625E-02-0.405E-03
CGA:  22    -0.340968049575E+03   -0.10813E-03   -0.14372E-03 10710   0.604E-02 0.156E-02
CGA:  23    -0.340968171686E+03   -0.12211E-03   -0.17124E-03 10710   0.444E-02 0.228E-02
CGA:  24    -0.340968413128E+03   -0.24144E-03   -0.23635E-03 10710   0.680E-02 0.573E-03
CGA:  25    -0.340968727712E+03   -0.31458E-03   -0.25934E-03 10710   0.100E-01-0.836E-03
CGA:  26    -0.340968992857E+03   -0.26515E-03   -0.23247E-03 10710   0.142E-01-0.227E-03
CGA:  27    -0.340969259671E+03   -0.26681E-03   -0.29710E-03 10710   0.122E-01 0.399E-02
CGA:  28    -0.340969421620E+03   -0.16195E-03   -0.24844E-03 10710   0.574E-02 0.488E-02
CGA:  29    -0.340969514551E+03   -0.92931E-04   -0.15294E-03 10710   0.439E-02 0.187E-02
CGA:  30    -0.340969693618E+03   -0.17907E-03   -0.20474E-03 10710   0.921E-02 0.135E-02
CGA:  31    -0.340970112456E+03   -0.41884E-03   -0.46314E-03 10710   0.141E-01 0.429E-02
CGA:  32    -0.340970425381E+03   -0.31292E-03   -0.40038E-03 10710   0.739E-02 0.729E-02
CGA:  33    -0.340970450432E+03   -0.25051E-04   -0.11182E-02 10710   0.479E-01-0.109E-01
CGA:  34    -0.340971435907E+03   -0.98547E-03   -0.11976E-02 10710   0.522E-02 0.857E-02
CGA:  35    -0.340971583977E+03   -0.14807E-03   -0.18309E-03 10710   0.143E-02 0.135E-02
CGA:  36    -0.340971719621E+03   -0.13564E-03   -0.13648E-03 10710   0.417E-02-0.401E-04
CGA:  37    -0.340971883362E+03   -0.16374E-03   -0.18501E-03 10710   0.705E-02 0.203E-02
CGA:  38    -0.340972109086E+03   -0.22572E-03   -0.32077E-03 10710   0.189E-02 0.392E-02
CGA:  39    -0.340971037344E+03    0.10717E-02   -0.48338E-03 10710   0.471E-01-0.760E-02
CGA:  40    -0.340972265388E+03   -0.12280E-02   -0.14071E-02 10710   0.317E-02 0.738E-02
CGA:  41    -0.340972375214E+03   -0.10983E-03   -0.11082E-03 10710   0.264E-03 0.293E-04
CGA:  42    -0.340972371035E+03    0.41791E-05   -0.56262E-05 10710   0.243E-03 0.245E-03
   6 F= -.34097237E+03 E0= -.34096542E+03  d E =-.531541E-01  mag=    14.0000
       N       E                     dE             d eps       ncg     rms          ort
SDA:   1    -0.340957405426E+03    0.14970E-01    0.00000E+00 10710   0.838E-01 0.000E+00
CGA:   2    -0.340959674527E+03   -0.22691E-02   -0.25124E-02 10710   0.388E-01 0.120E-01
CGA:   3    -0.340968805427E+03   -0.91309E-02   -0.91566E-02 10710   0.470E-01-0.169E-03
CGA:   4    -0.340970556369E+03   -0.17509E-02   -0.14872E-02 10710   0.160E-01-0.102E-01
CGA:   5    -0.340972110912E+03   -0.15545E-02   -0.15530E-02 10710   0.853E-02 0.255E-04
CGA:   6    -0.340972743526E+03   -0.63261E-03   -0.67669E-03 10710   0.819E-02-0.324E-02
CGA:   7    -0.340972794727E+03   -0.51201E-04   -0.12592E-03 10710   0.372E-02 0.181E-02
CGA:   8    -0.340972843020E+03   -0.48293E-04   -0.99494E-04 10710   0.161E-02 0.126E-02
CGA:   9    -0.340972981537E+03   -0.13852E-03   -0.15121E-03 10710   0.359E-02-0.151E-02
CGA:  10    -0.340973119884E+03   -0.13835E-03   -0.13955E-03 10710   0.473E-03 0.591E-04
CGA:  11    -0.340973108698E+03    0.11186E-04   -0.69073E-05 10710   0.336E-03 0.386E-03
CGA:  12    -0.340973106466E+03    0.22320E-05   -0.77729E-05 10710   0.262E-03 0.280E-03
CGA:  13    -0.340973165857E+03   -0.59390E-04   -0.41802E-04 10710   0.169E-03 0.173E-03
CGA:  14    -0.340973162056E+03    0.38006E-05   -0.29471E-05 10710   0.142E-03 0.151E-03
   7 F= -.34097316E+03 E0= -.34096621E+03  d E =-.539451E-01  mag=    14.0000
       N       E                     dE             d eps       ncg     rms          ort
SDA:   1    -0.340969699015E+03    0.34668E-02    0.00000E+00 10710   0.139E-01 0.000E+00
CGA:   2    -0.340970127056E+03   -0.42804E-03   -0.51152E-03 10710   0.965E-02 0.401E-02
CGA:   3    -0.340972143551E+03   -0.20165E-02   -0.29460E-02 10710   0.105E-01-0.517E-02
CGA:   4    -0.340972730695E+03   -0.58714E-03   -0.59587E-03 10710   0.390E-02 0.969E-03
CGA:   5    -0.340973141862E+03   -0.41117E-03   -0.40683E-03 10710   0.232E-02 0.147E-03
CGA:   6    -0.340973233264E+03   -0.91403E-04   -0.23182E-03 10710   0.140E-01-0.488E-02
CGA:   7    -0.340973358131E+03   -0.12487E-03   -0.25536E-03 10710   0.107E-02 0.302E-02
CGA:   8    -0.340973346713E+03    0.11418E-04   -0.20071E-04 10710   0.483E-03 0.628E-03
CGA:   9    -0.340973381795E+03   -0.35083E-04   -0.33743E-04 10710   0.272E-03 0.220E-03
CGA:  10    -0.340973394318E+03   -0.12523E-04   -0.17717E-04 10710   0.149E-03 0.270E-03
CGA:  11    -0.340973432441E+03   -0.38123E-04    0.45941E-05 10710   0.130E-03 0.925E-04
CGA:  12    -0.340973428029E+03    0.44117E-05   -0.15449E-05 10710   0.110E-03 0.117E-03
   8 F= -.34097343E+03 E0= -.34096647E+03  d E =-.542111E-01  mag=    14.0000
       N       E                     dE             d eps       ncg     rms          ort
SDA:   1    -0.340972938480E+03    0.49396E-03    0.00000E+00 10710   0.363E-02 0.000E+00
CGA:   2    -0.340968939426E+03    0.39991E-02   -0.98921E-03 10710   0.252E+00-0.229E-01
CGA:   3    -0.340973409532E+03   -0.44701E-02   -0.49062E-02 10710   0.811E-02 0.335E-01
CGA:   4    -0.340973454542E+03   -0.45010E-04   -0.16955E-03 10710   0.166E-02 0.278E-02
CGA:   5    -0.340973464354E+03   -0.98127E-05   -0.42346E-04 10710   0.452E-03 0.740E-03
CGA:   6    -0.340973489037E+03   -0.24683E-04   -0.22225E-04 10710   0.361E-03-0.871E-04
CGA:   7    -0.340973499379E+03   -0.10342E-04   -0.12669E-04 10710   0.671E-03 0.136E-03
CGA:   8    -0.340973511625E+03   -0.12247E-04   -0.28384E-04 10710   0.294E-03 0.558E-03
CGA:   9    -0.340973528848E+03   -0.17223E-04   -0.17231E-04 10710   0.170E-03-0.354E-04
CGA:  10    -0.340973555053E+03   -0.26205E-04    0.86739E-05 10710   0.153E-03 0.962E-04
CGA:  11    -0.340973550030E+03    0.50235E-05   -0.13467E-05 10710   0.112E-03 0.129E-03
   9 F= -.34097355E+03 E0= -.34096656E+03  d E =-.543331E-01  mag=    14.0000
       N       E                     dE             d eps       ncg     rms          ort
SDA:   1    -0.340972393893E+03    0.11612E-02    0.00000E+00 10710   0.226E-01 0.000E+00
CGA:   2    -0.340973501766E+03   -0.11079E-02   -0.10256E-02 10710   0.998E-02-0.108E-01
CGA:   3    -0.340973534795E+03   -0.33028E-04   -0.94970E-04 10710   0.379E-02 0.183E-02
CGA:   4    -0.340973516465E+03    0.18330E-04   -0.51806E-04 10710   0.125E-02 0.180E-02
CGA:   5    -0.340973500551E+03    0.15914E-04   -0.19351E-04 10710   0.621E-03 0.918E-03
CGA:   6    -0.340973536314E+03   -0.35763E-04   -0.45338E-04 10710   0.832E-03-0.371E-03
CGA:   7    -0.340973536283E+03    0.30494E-07   -0.13296E-04 10710   0.257E-03 0.410E-03
  10 F= -.34097354E+03 E0= -.34096653E+03  d E =-.543194E-01  mag=    14.0000
       N       E                     dE             d eps       ncg     rms          ort
SDA:   1    -0.340972677861E+03    0.85845E-03    0.00000E+00 10710   0.713E-01 0.000E+00
CGA:   2    -0.340973715376E+03   -0.10375E-02   -0.13398E-02 10710   0.445E-02 0.137E-01
CGA:   3    -0.340973722294E+03   -0.69180E-05   -0.75990E-04 10710   0.130E-02 0.236E-02
CGA:   4    -0.340973734675E+03   -0.12381E-04   -0.26596E-04 10710   0.346E-03 0.643E-03
CGA:   5    -0.340973730461E+03    0.42148E-05   -0.58101E-05 10710   0.164E-03 0.331E-03
CGA:   6    -0.340973727577E+03    0.28832E-05   -0.15536E-05 10710   0.129E-03 0.145E-03
  11 F= -.34097373E+03 E0= -.34096671E+03  d E =-.545107E-01  mag=    14.0000
       N       E                     dE             d eps       ncg     rms          ort
SDA:   1    -0.340972274865E+03    0.14556E-02    0.00000E+00 10710   0.298E-01 0.000E+00
CGA:   2    -0.340973597663E+03   -0.13228E-02   -0.15821E-02 10710   0.138E-01-0.164E-01
CGA:   3    -0.340973697358E+03   -0.99694E-04   -0.21501E-03 10710   0.239E-02 0.529E-02
CGA:   4    -0.340973685509E+03    0.11849E-04   -0.33760E-04 10710   0.828E-03 0.173E-02
CGA:   5    -0.340973686310E+03   -0.80118E-06   -0.12028E-04 10710   0.359E-03 0.538E-03
CGA:   6    -0.340973686268E+03    0.41397E-07   -0.51083E-05 10710   0.188E-03 0.255E-03
  12 F= -.34097369E+03 E0= -.34096666E+03  d E =-.544694E-01  mag=    14.0000
       N       E                     dE             d eps       ncg     rms          ort
SDA:   1    -0.340973061197E+03    0.62511E-03    0.00000E+00 10710   0.134E-01 0.000E+00
CGA:   2    -0.340973446070E+03   -0.38487E-03   -0.10356E-02 10710   0.185E-01-0.143E-01
CGA:   3    -0.340973726678E+03   -0.28061E-03   -0.37648E-03 10710   0.312E-02 0.688E-02
CGA:   4    -0.340973754755E+03   -0.28077E-04   -0.63814E-04 10710   0.752E-03 0.189E-02
CGA:   5    -0.340973777645E+03   -0.22889E-04   -0.23257E-04 10710   0.115E-03 0.172E-03
CGA:   6    -0.340973775224E+03    0.24202E-05   -0.93899E-06 10710   0.973E-04 0.127E-03
  13 F= -.34097378E+03 E0= -.34096672E+03  d E =-.545583E-01  mag=    14.0000
       N       E                     dE             d eps       ncg     rms          ort
SDA:   1    -0.340973133628E+03    0.64402E-03    0.00000E+00 10710   0.121E-01 0.000E+00
CGA:   2    -0.340972603631E+03    0.53000E-03   -0.94446E-03 10710   0.846E-01-0.310E-01
CGA:   3    -0.340973776171E+03   -0.11725E-02   -0.14216E-02 10710   0.360E-02 0.175E-01
CGA:   4    -0.340973764154E+03    0.12016E-04   -0.38178E-04 10710   0.929E-03 0.218E-02
CGA:   5    -0.340973754269E+03    0.98851E-05   -0.61078E-05 10710   0.475E-03 0.661E-03
CGA:   6    -0.340973747775E+03    0.64944E-05   -0.25456E-05 10710   0.296E-03 0.373E-03
  14 F= -.34097375E+03 E0= -.34096670E+03  d E =-.545309E-01  mag=    14.0000
       N       E                     dE             d eps       ncg     rms          ort
SDA:   1    -0.340963904619E+03    0.98497E-02    0.00000E+00 10710   0.423E+00 0.000E+00
CGA:   2    -0.340973712731E+03   -0.98081E-02   -0.96609E-02 10710   0.770E-02-0.511E-01
CGA:   3    -0.340973744474E+03   -0.31743E-04   -0.83542E-04 10710   0.214E-02 0.356E-02
CGA:   4    -0.340973732636E+03    0.11838E-04   -0.22436E-04 10710   0.785E-03 0.180E-02
CGA:   5    -0.340973727201E+03    0.54348E-05   -0.58082E-05 10710   0.508E-03 0.628E-03
CGA:   6    -0.340973723874E+03    0.33267E-05   -0.39107E-05 10710   0.371E-03 0.433E-03
  15 F= -.34097372E+03 E0= -.34096661E+03  d E =-.545070E-01  mag=    14.0000
       N       E                     dE             d eps       ncg     rms          ort
SDA:   1    -0.340919064485E+03    0.54663E-01    0.00000E+00 10710   0.233E+00 0.000E+00
CGA:   2    -0.340931909466E+03   -0.12845E-01   -0.13386E-01 10710   0.234E+00-0.150E-01
CGA:   3    -0.340953776940E+03   -0.21867E-01   -0.23513E-01 10710   0.288E+00-0.192E-01
CGA:   4    -0.340966803916E+03   -0.13027E-01   -0.13140E-01 10710   0.538E-01-0.478E-02
CGA:   5    -0.340968304390E+03   -0.15005E-02   -0.15197E-02 10710   0.246E-01 0.183E-01
CGA:   6    -0.340970955872E+03   -0.26515E-02   -0.22461E-02 10710   0.244E-01 0.106E-01
CGA:   7    -0.340972363988E+03   -0.14081E-02   -0.24034E-02 10710   0.435E-01-0.266E-01
CGA:   8    -0.340972917671E+03   -0.55368E-03   -0.75850E-03 10710   0.609E-02 0.129E-01
CGA:   9    -0.340972975382E+03   -0.57711E-04   -0.12572E-03 10710   0.336E-02 0.406E-02
CGA:  10    -0.340973201668E+03   -0.22629E-03    0.92304E-03 10710   0.209E-02 0.254E-02
CGA:  11    -0.340973415550E+03   -0.21388E-03   -0.15920E-03 10710   0.114E-02 0.124E-02
CGA:  12    -0.340973538105E+03   -0.12255E-03    0.33087E-04 10710   0.797E-03 0.653E-03
CGA:  13    -0.340973546601E+03   -0.84964E-05   -0.16952E-04 10710   0.616E-03 0.661E-03
CGA:  14    -0.340973747435E+03   -0.20083E-03   -0.90742E-04 10710   0.226E-03 0.284E-03
CGA:  15    -0.340973769901E+03   -0.22466E-04   -0.21399E-04 10710   0.191E-03 0.270E-03
CGA:  16    -0.340973805904E+03   -0.36003E-04    0.10756E-04 10710   0.206E-03 0.134E-03
CGA:  17    -0.340973800943E+03    0.49615E-05   -0.29089E-05 10710   0.156E-03 0.167E-03
  16 F= -.34097380E+03 E0= -.34096667E+03  d E =-.770685E-04  mag=    14.0000
       N       E                     dE             d eps       ncg     rms          ort
SDA:   1    -0.340963854288E+03    0.99516E-02    0.00000E+00 10710   0.440E-01 0.000E+00
CGA:   2    -0.340965951808E+03   -0.20975E-02   -0.21211E-02 10710   0.381E-01 0.282E-02
CGA:   3    -0.340971013696E+03   -0.50619E-02   -0.51396E-02 10710   0.408E-01-0.105E-02
CGA:   4    -0.340972732466E+03   -0.17188E-02   -0.17548E-02 10710   0.833E-02 0.271E-02
CGA:   5    -0.340972483302E+03    0.24916E-03   -0.15021E-02 10710   0.860E-01-0.159E-01
CGA:   6    -0.340973899884E+03   -0.14166E-02   -0.18672E-02 10710   0.630E-02 0.134E-01
CGA:   7    -0.340974013694E+03   -0.11381E-03   -0.18252E-03 10710   0.149E-02 0.192E-02
CGA:   8    -0.340974124383E+03   -0.11069E-03   -0.10623E-03 10710   0.205E-02-0.694E-03
CGA:   9    -0.340974160463E+03   -0.36080E-04   -0.38455E-04 10710   0.272E-02 0.932E-04
CGA:  10    -0.340974213577E+03   -0.53115E-04   -0.72122E-04 10710   0.884E-03 0.570E-03
CGA:  11    -0.340974260996E+03   -0.47419E-04   -0.39655E-04 10710   0.431E-03-0.370E-03
CGA:  12    -0.340974330495E+03   -0.69499E-04    0.49280E-05 10710   0.615E-03-0.294E-04
CGA:  13    -0.340974345036E+03   -0.14541E-04   -0.19510E-04 10710   0.254E-03 0.221E-03
CGA:  14    -0.340974336004E+03    0.90323E-05   -0.29224E-05 10710   0.141E-03 0.254E-03
  17 F= -.34097434E+03 E0= -.34096721E+03  d E =-.612130E-03  mag=    14.0000
       N       E                     dE             d eps       ncg     rms          ort
SDA:   1    -0.340970643007E+03    0.37020E-02    0.00000E+00 10710   0.785E-01 0.000E+00
CGA:   2    -0.340973561796E+03   -0.29188E-02   -0.26111E-02 10710   0.148E-01-0.204E-01
CGA:   3    -0.340973719201E+03   -0.15740E-03   -0.25110E-03 10710   0.288E-02 0.356E-02
CGA:   4    -0.340973712884E+03    0.63163E-05   -0.53662E-04 10710   0.143E-02 0.178E-02
CGA:   5    -0.340973896639E+03   -0.18375E-03   -0.16013E-03 10710   0.197E-02 0.368E-03
CGA:   6    -0.340974141472E+03   -0.24483E-03   -0.28504E-03 10710   0.368E-02-0.607E-03
CGA:   7    -0.340974276997E+03   -0.13553E-03   -0.13133E-03 10710   0.129E-02-0.233E-02
CGA:   8    -0.340974267689E+03    0.93083E-05   -0.20602E-04 10710   0.569E-03 0.803E-03
CGA:   9    -0.340974266621E+03    0.10680E-05   -0.11734E-04 10710   0.328E-03 0.415E-03
CGA:  10    -0.340974273256E+03   -0.66349E-05   -0.10904E-04 10710   0.211E-03 0.255E-03
CGA:  11    -0.340974283645E+03   -0.10389E-04   -0.10376E-04 10710   0.137E-03 0.171E-03
CGA:  12    -0.340974290765E+03   -0.71203E-05   -0.69376E-05 10710   0.926E-04 0.113E-03
  18 F= -.34097429E+03 E0= -.34096714E+03  d E =-.566891E-03  mag=    14.0000
       N       E                     dE             d eps       ncg     rms          ort
SDA:   1    -0.340972841511E+03    0.14421E-02    0.00000E+00 10710   0.561E-02 0.000E+00
CGA:   2    -0.340973221282E+03   -0.37977E-03   -0.48583E-03 10710   0.107E-01-0.278E-02
CGA:   3    -0.340973528217E+03   -0.30694E-03   -0.30704E-03 10710   0.121E-01-0.489E-05
CGA:   4    -0.340973938894E+03   -0.41068E-03   -0.43170E-03 10710   0.360E-02 0.147E-02
CGA:   5    -0.340974027494E+03   -0.88600E-04   -0.10072E-03 10710   0.616E-03 0.499E-03
CGA:   6    -0.340974045753E+03   -0.18259E-04   -0.23557E-04 10710   0.529E-03 0.345E-03
CGA:   7    -0.340974036179E+03    0.95735E-05   -0.77165E-04 10710   0.499E-02-0.882E-03
CGA:   8    -0.340974144618E+03   -0.10844E-03   -0.11413E-03 10710   0.181E-03 0.230E-03
CGA:   9    -0.340974139984E+03    0.46341E-05   -0.17697E-05 10710   0.123E-03 0.152E-03
  19 F= -.34097414E+03 E0= -.34096698E+03  d E =-.416109E-03  mag=    14.0000
       N       E                     dE             d eps       ncg     rms          ort
SDA:   1    -0.340972618230E+03    0.15264E-02    0.00000E+00 10710   0.270E-01 0.000E+00
CGA:   2    -0.340973885036E+03   -0.12668E-02   -0.12515E-02 10710   0.131E-01-0.127E-01
CGA:   3    -0.340973953131E+03   -0.68094E-04   -0.13739E-03 10710   0.542E-02 0.256E-02
CGA:   4    -0.340973955901E+03   -0.27700E-05   -0.86971E-04 10710   0.207E-02 0.262E-02
CGA:   5    -0.340973958648E+03   -0.27479E-05   -0.44458E-04 10710   0.117E-02 0.141E-02
CGA:   6    -0.340974082035E+03   -0.12339E-03    0.10907E-03 10710   0.867E-03 0.282E-04
CGA:   7    -0.340974101167E+03   -0.19132E-04   -0.27074E-04 10710   0.546E-03 0.638E-03
CGA:   8    -0.340974102485E+03   -0.13182E-05   -0.10055E-04 10710   0.316E-03 0.366E-03
CGA:   9    -0.340974129024E+03   -0.26539E-04    0.33173E-03 10710   0.237E-03 0.254E-03
CGA:  10    -0.340974153259E+03   -0.24234E-04    0.19881E-04 10710   0.194E-03 0.210E-03
CGA:  11    -0.340974170036E+03   -0.16777E-04   -0.12806E-04 10710   0.145E-03 0.159E-03
CGA:  12    -0.340974194185E+03   -0.24149E-04    0.31964E-05 10710   0.122E-03 0.118E-03
CGA:  13    -0.340974193284E+03    0.90044E-06   -0.19940E-05 10710   0.107E-03 0.111E-03
  20 F= -.34097419E+03 E0= -.34096702E+03  d E =-.469410E-03  mag=    14.0000
       N       E                     dE             d eps       ncg     rms          ort
SDA:   1    -0.340974226218E+03   -0.32033E-04    0.00000E+00 10710   0.817E-02 0.000E+00
CGA:   2    -0.340974236858E+03   -0.10640E-04   -0.10496E-03 10710   0.130E-02 0.320E-02
CGA:   3    -0.340974215648E+03    0.21209E-04   -0.12813E-04 10710   0.431E-03 0.997E-03
CGA:   4    -0.340974206995E+03    0.86538E-05   -0.26522E-05 10710   0.269E-03 0.337E-03
CGA:   5    -0.340974201124E+03    0.58709E-05   -0.14867E-05 10710   0.193E-03 0.226E-03
CGA:   6    -0.340974196855E+03    0.42691E-05   -0.10271E-05 10710   0.152E-03 0.170E-03
  21 F= -.34097420E+03 E0= -.34096703E+03  d E =-.472981E-03  mag=    14.0000
       N       E                     dE             d eps       ncg     rms          ort
SDA:   1    -0.340971487712E+03    0.27134E-02    0.00000E+00 10710   0.938E-01 0.000E+00
CGA:   2    -0.340974190192E+03   -0.27025E-02   -0.25341E-02 10710   0.952E-02-0.288E-01
CGA:   3    -0.340974236403E+03   -0.46211E-04   -0.10235E-03 10710   0.228E-02 0.323E-02
CGA:   4    -0.340974220159E+03    0.16244E-04   -0.22896E-04 10710   0.633E-03 0.160E-02
CGA:   5    -0.340974211753E+03    0.84060E-05   -0.35735E-05 10710   0.355E-03 0.474E-03
CGA:   6    -0.340974206211E+03    0.55421E-05   -0.16288E-05 10710   0.230E-03 0.286E-03
  22 F= -.34097421E+03 E0= -.34096703E+03  d E =-.482337E-03  mag=    14.0000
       N       E                     dE             d eps       ncg     rms          ort
SDA:   1    -0.340956214314E+03    0.17997E-01    0.00000E+00 10710   0.277E+00 0.000E+00
CGA:   2    -0.340963694115E+03   -0.74798E-02   -0.74700E-02 10710   0.513E-01-0.494E-01
CGA:   3    -0.340967458017E+03   -0.37639E-02   -0.30367E-02 10710   0.235E-01 0.162E-01
CGA:   4    -0.340970142608E+03   -0.26846E-02   -0.18999E-03 10710   0.191E+00-0.215E-01
CGA:   5    -0.340973599418E+03   -0.34568E-02   -0.36415E-02 10710   0.536E-02 0.236E-01
CGA:   6    -0.340973695170E+03   -0.95752E-04   -0.14357E-03 10710   0.288E-02 0.176E-02
CGA:   7    -0.340974115455E+03   -0.42028E-03   -0.40661E-03 10710   0.749E-02 0.250E-03
CGA:   8    -0.340974434608E+03   -0.31915E-03   -0.28702E-03 10710   0.193E-02-0.179E-02
CGA:   9    -0.340974448992E+03   -0.14384E-04   -0.33369E-04 10710   0.132E-02 0.645E-03
CGA:  10    -0.340974471934E+03   -0.22942E-04   -0.46302E-04 10710   0.103E-02 0.948E-03
CGA:  11    -0.340974611080E+03   -0.13915E-03    0.70659E-04 10710   0.703E-03 0.319E-03
CGA:  12    -0.340974684461E+03   -0.73380E-04   -0.67122E-04 10710   0.184E-03 0.270E-03
CGA:  13    -0.340974566077E+03    0.11838E-03   -0.66385E-04 10710   0.484E-02-0.733E-03
CGA:  14    -0.340974672633E+03   -0.10656E-03   -0.14130E-03 10710   0.453E-03 0.622E-03
CGA:  15    -0.340974791280E+03   -0.11865E-03    0.77925E-04 10710   0.130E-02-0.504E-03
CGA:  16    -0.340974768578E+03    0.22703E-04   -0.22133E-04 10710   0.342E-03 0.628E-03
CGA:  17    -0.340974755141E+03    0.13436E-04   -0.61216E-05 10710   0.123E-03 0.268E-03
CGA:  18    -0.340974755640E+03   -0.49834E-06   -0.36398E-05 10710   0.439E-04 0.600E-04
  23 F= -.34097476E+03 E0= -.34096758E+03  d E =-.549429E-03  mag=    14.0000
       N       E                     dE             d eps       ncg     rms          ort
SDA:   1    -0.340962151242E+03    0.12604E-01    0.00000E+00 10710   0.336E-01 0.000E+00
CGA:   2    -0.340967309922E+03   -0.51587E-02   -0.48269E-02 10710   0.689E-01 0.500E-02
CGA:   3    -0.340972548898E+03   -0.52390E-02   -0.50598E-02 10710   0.453E-01-0.121E-01
CGA:   4    -0.340973535265E+03   -0.98637E-03   -0.12589E-02 10710   0.787E-02 0.647E-02
CGA:   5    -0.340973830486E+03   -0.29522E-03   -0.38045E-03 10710   0.699E-02 0.251E-02
CGA:   6    -0.340974700432E+03   -0.86995E-03   -0.11079E-02 10710   0.107E-01-0.529E-02
CGA:   7    -0.340974799956E+03   -0.99524E-04   -0.23386E-03 10710   0.200E-02 0.266E-02
CGA:   8    -0.340974860642E+03   -0.60686E-04   -0.93297E-04 10710   0.135E-02 0.883E-03
CGA:   9    -0.340975010367E+03   -0.14973E-03   -0.17415E-03 10710   0.329E-02-0.148E-02
CGA:  10    -0.340975022323E+03   -0.11956E-04   -0.61041E-04 10710   0.468E-03 0.939E-03
CGA:  11    -0.340975029685E+03   -0.73622E-05   -0.14637E-04 10710   0.225E-03 0.159E-03
CGA:  12    -0.340975091836E+03   -0.62150E-04    0.20456E-04 10710   0.430E-03-0.116E-03
CGA:  13    -0.340975088156E+03    0.36791E-05   -0.79410E-05 10710   0.137E-03 0.234E-03
  24 F= -.34097509E+03 E0= -.34096792E+03  d E =-.881945E-03  mag=    14.0000
       N       E                     dE             d eps       ncg     rms          ort
SDA:   1    -0.340967004649E+03    0.80872E-02    0.00000E+00 10710   0.533E-01 0.000E+00
CGA:   2    -0.340969195783E+03   -0.21911E-02   -0.22054E-02 10710   0.255E-01 0.171E-02
CGA:   3    -0.340971883036E+03   -0.26873E-02   -0.34779E-02 10710   0.898E-01-0.112E-01
CGA:   4    -0.340973465000E+03   -0.15820E-02   -0.16649E-02 10710   0.598E-01 0.255E-02
CGA:   5    -0.340974338899E+03   -0.87390E-03   -0.10970E-02 10710   0.136E-01 0.779E-02
CGA:   6    -0.340974594571E+03   -0.25567E-03   -0.33731E-03 10710   0.689E-02 0.238E-02
CGA:   7    -0.340974908926E+03   -0.31435E-03   -0.30750E-03 10710   0.777E-02-0.307E-03
CGA:   8    -0.340975334923E+03   -0.42600E-03   -0.42145E-03 10710   0.138E-01-0.205E-02
CGA:   9    -0.340975538950E+03   -0.20403E-03   -0.19549E-03 10710   0.706E-02-0.191E-03
CGA:  10    -0.340975619254E+03   -0.80305E-04   -0.94872E-04 10710   0.211E-02 0.440E-03
CGA:  11    -0.340975660490E+03   -0.41236E-04   -0.41149E-04 10710   0.138E-02 0.149E-04
CGA:  12    -0.340975725940E+03   -0.65450E-04   -0.10342E-03 10710   0.617E-02-0.177E-02
CGA:  13    -0.340975888533E+03   -0.16259E-03   -0.18134E-03 10710   0.712E-03 0.809E-03
CGA:  14    -0.340975886546E+03    0.19872E-05   -0.14752E-04 10710   0.339E-03 0.489E-03
CGA:  15    -0.340975895879E+03   -0.93323E-05   -0.12567E-04 10710   0.237E-03 0.234E-03
CGA:  16    -0.340975922602E+03   -0.26723E-04    0.48360E-04 10710   0.184E-03 0.168E-03
CGA:  17    -0.340975923301E+03   -0.69898E-06   -0.44755E-05 10710   0.137E-03 0.145E-03
CGA:  18    -0.340975937995E+03   -0.14695E-04    0.36760E-04 10710   0.105E-03 0.119E-03
CGA:  19    -0.340975941842E+03   -0.38470E-05   -0.44672E-05 10710   0.859E-04 0.934E-04
  25 F= -.34097594E+03 E0= -.34096879E+03  d E =-.853686E-03  mag=    14.0000
       N       E                     dE             d eps       ncg     rms          ort
SDA:   1    -0.340905460189E+03    0.70478E-01    0.00000E+00 10710   0.230E+00 0.000E+00
CGA:   2    -0.340918852675E+03   -0.13392E-01   -0.13334E-01 10710   0.332E+00 0.112E-01
CGA:   3    -0.340960700826E+03   -0.41848E-01   -0.43524E-01 10710   0.960E-01-0.216E-01
CGA:   4    -0.340963675553E+03   -0.29747E-02   -0.32297E-02 10710   0.454E-01 0.161E-01
CGA:   5    -0.340969852934E+03   -0.61774E-02   -0.63518E-02 10710   0.381E-01-0.252E-02
CGA:   6    -0.340972185028E+03   -0.23321E-02   -0.24514E-02 10710   0.144E-01-0.968E-02
CGA:   7    -0.340972469426E+03   -0.28440E-03   -0.36669E-03 10710   0.867E-02 0.376E-02
CGA:   8    -0.340973123365E+03   -0.65394E-03   -0.64450E-03 10710   0.426E-02 0.242E-02
CGA:   9    -0.340971784698E+03    0.13387E-02   -0.10573E-02 10710   0.108E+00-0.172E-01
CGA:  10    -0.340973384375E+03   -0.15997E-02   -0.20542E-02 10710   0.480E-02 0.147E-01
CGA:  11    -0.340973448550E+03   -0.64175E-04   -0.13959E-03 10710   0.304E-02 0.221E-02
CGA:  12    -0.340973833330E+03   -0.38478E-03   -0.38143E-03 10710   0.277E-02 0.124E-03
CGA:  13    -0.340973987767E+03   -0.15444E-03   -0.19502E-03 10710   0.752E-02-0.516E-02
CGA:  14    -0.340973989605E+03   -0.18384E-05   -0.11714E-03 10710   0.122E-02 0.263E-02
CGA:  15    -0.340973968897E+03    0.20708E-04   -0.19906E-04 10710   0.609E-03 0.890E-03
CGA:  16    -0.340974042041E+03   -0.73144E-04   -0.59935E-04 10710   0.302E-03 0.309E-03
CGA:  17    -0.340974108821E+03   -0.66780E-04    0.94958E-05 10710   0.361E-03 0.136E-04
CGA:  18    -0.340974134658E+03   -0.25838E-04   -0.24469E-04 10710   0.104E-03 0.191E-03
CGA:  19    -0.340974132946E+03    0.17118E-05   -0.15489E-05 10710   0.664E-04 0.757E-04
  26 F= -.34097413E+03 E0= -.34096702E+03  d E =0.955210E-03  mag=    14.0000
       N       E                     dE             d eps       ncg     rms          ort
SDA:   1    -0.340943157814E+03    0.30977E-01    0.00000E+00 10710   0.137E+00 0.000E+00
CGA:   2    -0.340950043971E+03   -0.68862E-02   -0.68547E-02 10710   0.157E+00-0.106E-01
CGA:   3    -0.340969362601E+03   -0.19319E-01   -0.18292E-01 10710   0.535E-01 0.143E-01
CGA:   4    -0.340972016783E+03   -0.26542E-02   -0.25439E-02 10710   0.347E-01-0.991E-02
CGA:   5    -0.340974932202E+03   -0.29154E-02   -0.28411E-02 10710   0.138E-01 0.178E-02
CGA:   6    -0.340975426606E+03   -0.49440E-03   -0.57597E-03 10710   0.303E-02 0.435E-02
CGA:   7    -0.340975742257E+03   -0.31565E-03   -0.44421E-03 10710   0.131E-01-0.242E-02
CGA:   8    -0.340975920736E+03   -0.17848E-03   -0.28119E-03 10710   0.159E-02 0.284E-02
CGA:   9    -0.340976014531E+03   -0.93795E-04   -0.89165E-04 10710   0.127E-02-0.348E-03
CGA:  10    -0.340976197368E+03   -0.18284E-03    0.49965E-04 10710   0.209E-02-0.908E-04
CGA:  11    -0.340976335958E+03   -0.13859E-03   -0.13768E-03 10710   0.175E-02 0.784E-04
CGA:  12    -0.340976312179E+03    0.23779E-04   -0.21419E-04 10710   0.628E-03 0.961E-03
CGA:  13    -0.340976299280E+03    0.12900E-04   -0.62872E-05 10710   0.287E-03 0.412E-03
CGA:  14    -0.340976292112E+03    0.71677E-05   -0.27532E-05 10710   0.180E-03 0.222E-03
  27 F= -.34097629E+03 E0= -.34096917E+03  d E =-.120396E-02  mag=    14.0000
       N       E                     dE             d eps       ncg     rms          ort
SDA:   1    -0.340974722873E+03    0.15764E-02    0.00000E+00 10710   0.344E-01 0.000E+00
CGA:   2    -0.340975917470E+03   -0.11946E-02   -0.10307E-02 10710   0.449E-02-0.965E-02
CGA:   3    -0.340975952380E+03   -0.34910E-04   -0.76295E-04 10710   0.117E-02 0.163E-02
CGA:   4    -0.340975954374E+03   -0.19940E-05   -0.27034E-04 10710   0.631E-03 0.815E-03
CGA:   5    -0.340976031344E+03   -0.76971E-04    0.45967E-04 10710   0.501E-03 0.522E-03
CGA:   6    -0.340976051121E+03   -0.19777E-04   -0.21294E-04 10710   0.413E-03 0.405E-03
CGA:   7    -0.340976115605E+03   -0.64484E-04    0.13721E-04 10710   0.350E-03 0.314E-03
CGA:   8    -0.340976115374E+03    0.23080E-06   -0.72504E-05 10710   0.285E-03 0.295E-03
CGA:   9    -0.340976143364E+03   -0.27989E-04    0.67179E-04 10710   0.231E-03 0.255E-03
CGA:  10    -0.340976165452E+03   -0.22088E-04    0.76184E-04 10710   0.187E-03 0.206E-03
CGA:  11    -0.340976184762E+03   -0.19311E-04    0.27730E-04 10710   0.152E-03 0.168E-03
CGA:  12    -0.340976199332E+03   -0.14570E-04    0.48871E-04 10710   0.124E-03 0.136E-03
CGA:  13    -0.340976213078E+03   -0.13745E-04    0.11463E-04 10710   0.101E-03 0.111E-03
CGA:  14    -0.340976222411E+03   -0.93333E-05    0.62677E-04 10710   0.819E-04 0.902E-04
  28 F= -.34097622E+03 E0= -.34096910E+03  d E =-.113425E-02  mag=    14.0000
       N       E                     dE             d eps       ncg     rms          ort
SDA:   1    -0.340976017080E+03    0.19600E-03    0.00000E+00 10710   0.250E-02 0.000E+00
CGA:   2    -0.340975824614E+03    0.19247E-03   -0.27918E-03 10710   0.318E-01-0.698E-02
CGA:   3    -0.340976244736E+03   -0.42012E-03   -0.56009E-03 10710   0.127E-02 0.568E-02
CGA:   4    -0.340976246302E+03   -0.15661E-05   -0.20350E-04 10710   0.347E-03 0.578E-03
CGA:   5    -0.340976251425E+03   -0.51226E-05   -0.98742E-05 10710   0.315E-03 0.189E-03
CGA:   6    -0.340976303198E+03   -0.51773E-04    0.78487E-05 10710   0.283E-03 0.126E-03
CGA:   7    -0.340976335384E+03   -0.32186E-04   -0.26376E-04 10710   0.117E-03 0.255E-03
CGA:   8    -0.340976335579E+03   -0.19497E-06   -0.24025E-05 10710   0.869E-04 0.910E-04
CGA:   9    -0.340976352632E+03   -0.17052E-04   -0.11776E-04 10710   0.534E-04 0.575E-04
CGA:  10    -0.340976356525E+03   -0.38933E-05   -0.34460E-05 10710   0.498E-04 0.276E-04
  29 F= -.34097636E+03 E0= -.34096923E+03  d E =-.126837E-02  mag=    14.0000
       N       E                     dE             d eps       ncg     rms          ort
SDA:   1    -0.340975062687E+03    0.12899E-02    0.00000E+00 10710   0.431E-01 0.000E+00
CGA:   2    -0.340976311464E+03   -0.12488E-02   -0.11415E-02 10710   0.134E-02-0.676E-02
CGA:   3    -0.340976306995E+03    0.44694E-05   -0.16199E-04 10710   0.411E-03 0.620E-03
CGA:   4    -0.340976300094E+03    0.69004E-05   -0.55118E-05 10710   0.160E-03 0.336E-03
CGA:   5    -0.340976299141E+03    0.95342E-06   -0.25451E-05 10710   0.106E-03 0.123E-03
CGA:   6    -0.340976304668E+03   -0.55275E-05   -0.51029E-05 10710   0.762E-04 0.803E-04
  30 F= -.34097630E+03 E0= -.34096918E+03  d E =-.121651E-02  mag=    14.0000
       N       E                     dE             d eps       ncg     rms          ort
SDA:   1    -0.340976197913E+03    0.10123E-03    0.00000E+00 10710   0.251E-02 0.000E+00
CGA:   2    -0.340975151273E+03    0.10466E-02   -0.38240E-03 10710   0.727E-01-0.129E-01
CGA:   3    -0.340976388493E+03   -0.12372E-02   -0.14385E-02 10710   0.172E-02 0.110E-01
CGA:   4    -0.340976387408E+03    0.10851E-05   -0.24783E-04 10710   0.265E-03 0.761E-03
CGA:   5    -0.340976382779E+03    0.46292E-05   -0.29952E-05 10710   0.828E-04 0.204E-03
CGA:   6    -0.340976381252E+03    0.15272E-05   -0.65622E-06 10710   0.474E-04 0.613E-04
  31 F= -.34097638E+03 E0= -.34096925E+03  d E =-.129310E-02  mag=    14.0000
       N       E                     dE             d eps       ncg     rms          ort
SDA:   1    -0.340965828942E+03    0.10554E-01    0.00000E+00 10710   0.538E-01 0.000E+00
CGA:   2    -0.340967976241E+03   -0.21473E-02   -0.21472E-02 10710   0.363E-01-0.623E-03
CGA:   3    -0.340973657466E+03   -0.56812E-02   -0.48344E-04 10710   0.525E-01-0.160E-01
CGA:   4    -0.340973927501E+03   -0.27004E-03   -0.52227E-03 10710   0.207E-01 0.523E-02
CGA:   5    -0.340974200929E+03   -0.27343E-03   -0.47625E-03 10710   0.136E-01 0.468E-02
CGA:   6    -0.340974825576E+03   -0.62465E-03   -0.67180E-03 10710   0.156E-01 0.181E-02
CGA:   7    -0.340975649780E+03   -0.82420E-03   -0.70878E-03 10710   0.141E-01-0.448E-02
CGA:   8    -0.340975985149E+03   -0.33537E-03   -0.26869E-03 10710   0.819E-02-0.176E-02
CGA:   9    -0.340976066754E+03   -0.81606E-04   -0.11049E-03 10710   0.328E-02 0.735E-03
CGA:  10    -0.340976098847E+03   -0.32092E-04   -0.65904E-04 10710   0.278E-02 0.837E-03
CGA:  11    -0.340976228568E+03   -0.12972E-03   -0.13900E-03 10710   0.478E-02 0.500E-03
CGA:  12    -0.340976457058E+03   -0.22849E-03   -0.19600E-03 10710   0.245E-02-0.141E-02
CGA:  13    -0.340976490681E+03   -0.33623E-04   -0.30140E-04 10710   0.135E-02-0.871E-04
CGA:  14    -0.340976489459E+03    0.12215E-05   -0.17984E-04 10710   0.925E-03 0.478E-03
CGA:  15    -0.340976479120E+03    0.10339E-04   -0.16254E-04 10710   0.723E-03 0.677E-03
CGA:  16    -0.340976534256E+03   -0.55136E-04   -0.49807E-04 10710   0.625E-03 0.293E-03
CGA:  17    -0.340976636208E+03   -0.10195E-03    0.18117E-03 10710   0.198E-03 0.301E-03
CGA:  18    -0.340976632412E+03    0.37967E-05   -0.46566E-05 10710   0.113E-03 0.237E-03
  32 F= -.34097663E+03 E0= -.34096951E+03  d E =-.251160E-03  mag=    14.0000
       N       E                     dE             d eps       ncg     rms          ort
SDA:   1    -0.340923101415E+03    0.53535E-01    0.00000E+00 10710   0.137E+00 0.000E+00
CGA:   2    -0.340950534141E+03   -0.27433E-01   -0.26991E-01 10710   0.328E+00 0.274E-02
CGA:   3    -0.340966300678E+03   -0.15767E-01   -0.15752E-01 10710   0.965E-01-0.121E-01
CGA:   4    -0.340969733433E+03   -0.34328E-02   -0.36427E-02 10710   0.258E-01 0.156E-01
CGA:   5    -0.340973020621E+03   -0.32872E-02   -0.35139E-02 10710   0.600E-01-0.352E-02
CGA:   6    -0.340974857328E+03   -0.18367E-02   -0.17846E-02 10710   0.110E-01-0.248E-02
CGA:   7    -0.340975142189E+03   -0.28486E-03   -0.29575E-03 10710   0.660E-02 0.460E-03
CGA:   8    -0.340975765413E+03   -0.62322E-03   -0.67873E-03 10710   0.899E-02-0.125E-02
CGA:   9    -0.340975954058E+03   -0.18864E-03   -0.17376E-03 10710   0.271E-02-0.443E-03
CGA:  10    -0.340975990266E+03   -0.36208E-04   -0.58896E-04 10710   0.177E-02 0.719E-03
CGA:  11    -0.340976011836E+03   -0.21570E-04   -0.52657E-04 10710   0.128E-02 0.104E-02
CGA:  12    -0.340976073567E+03   -0.61731E-04   -0.16887E-03 10710   0.726E-02-0.133E-02
CGA:  13    -0.340976230826E+03   -0.15726E-03   -0.16785E-03 10710   0.316E-03 0.404E-03
CGA:  14    -0.340976224962E+03    0.58645E-05   -0.45978E-05 10710   0.215E-03 0.258E-03
  33 F= -.34097622E+03 E0= -.34096912E+03  d E =0.156290E-03  mag=    14.0000
       N       E                     dE             d eps       ncg     rms          ort
SDA:   1    -0.340973872313E+03    0.23585E-02    0.00000E+00 10710   0.165E-01 0.000E+00
CGA:   2    -0.340974812768E+03   -0.94045E-03   -0.96150E-03 10710   0.826E-02-0.277E-02
CGA:   3    -0.340973166537E+03    0.16462E-02   -0.10685E-02 10710   0.147E+00-0.139E-01
CGA:   4    -0.340975908339E+03   -0.27418E-02   -0.28992E-02 10710   0.630E-02 0.243E-01
CGA:   5    -0.340975996057E+03   -0.87719E-04   -0.16890E-03 10710   0.229E-02 0.143E-02
CGA:   6    -0.340976204399E+03   -0.20834E-03   -0.21240E-03 10710   0.373E-02 0.389E-03
CGA:   7    -0.340976400741E+03   -0.19634E-03   -0.17093E-03 10710   0.647E-03-0.563E-03
CGA:   8    -0.340976425910E+03   -0.25168E-04   -0.22771E-04 10710   0.259E-03-0.532E-04
CGA:   9    -0.340976480910E+03   -0.55000E-04    0.22756E-04 10710   0.665E-03-0.192E-03
CGA:  10    -0.340976474110E+03    0.68001E-05   -0.11151E-04 10710   0.152E-03 0.282E-03
  34 F= -.34097647E+03 E0= -.34096939E+03  d E =-.249148E-03  mag=    14.0000
       N       E                     dE             d eps       ncg     rms          ort
SDA:   1    -0.340971947414E+03    0.45335E-02    0.00000E+00 10710   0.171E+00 0.000E+00
CGA:   2    -0.340976281069E+03   -0.43337E-02   -0.41934E-02 10710   0.523E-02-0.943E-02
CGA:   3    -0.340976364148E+03   -0.83079E-04   -0.12167E-03 10710   0.517E-03 0.891E-03
CGA:   4    -0.340976464536E+03   -0.10039E-03    0.11435E-03 10710   0.991E-03-0.466E-03
CGA:   5    -0.340976474026E+03   -0.94898E-05   -0.21834E-04 10710   0.141E-03 0.265E-03
CGA:   6    -0.340976470658E+03    0.33683E-05   -0.26343E-05 10710   0.784E-04 0.114E-03
  35 F= -.34097647E+03 E0= -.34096938E+03  d E =-.245696E-03  mag=    14.0000
       N       E                     dE             d eps       ncg     rms          ort
SDA:   1    -0.340976400084E+03    0.73942E-04    0.00000E+00 10710   0.570E-02 0.000E+00
CGA:   2    -0.340976487088E+03   -0.87004E-04   -0.11353E-03 10710   0.118E-03 0.661E-03
CGA:   3    -0.340976495056E+03   -0.79687E-05   -0.69085E-05 10710   0.241E-03-0.129E-03
CGA:   4    -0.340976500073E+03   -0.50164E-05   -0.56293E-05 10710   0.204E-04 0.181E-04
CGA:   5    -0.340976503140E+03   -0.30677E-05    0.33166E-05 10710   0.238E-04 0.155E-04
CGA:   6    -0.340976513835E+03   -0.10695E-04    0.24457E-06 10710   0.321E-04 0.122E-05
CGA:   7    -0.340976520688E+03   -0.68531E-05    0.13480E-05 10710   0.192E-04 0.263E-04
  36 F= -.34097652E+03 E0= -.34096945E+03  d E =-.295726E-03  mag=    14.0000
       N       E                     dE             d eps       ncg     rms          ort
SDA:   1    -0.340976323230E+03    0.19061E-03    0.00000E+00 10710   0.772E-02 0.000E+00
CGA:   2    -0.340976554201E+03   -0.23097E-03   -0.20554E-03 10710   0.246E-03-0.968E-03
CGA:   3    -0.340976550584E+03    0.36171E-05   -0.24513E-05 10710   0.104E-03 0.140E-03
CGA:   4    -0.340976548216E+03    0.23685E-05   -0.87981E-06 10710   0.540E-04 0.738E-04
CGA:   5    -0.340976546729E+03    0.14870E-05   -0.38064E-06 10710   0.351E-04 0.432E-04
CGA:   6    -0.340976545706E+03    0.10229E-05   -0.22524E-06 10710   0.258E-04 0.299E-04
  37 F= -.34097655E+03 E0= -.34096948E+03  d E =-.320744E-03  mag=    14.0000
       N       E                     dE             d eps       ncg     rms          ort
SDA:   1    -0.340976192853E+03    0.35388E-03    0.00000E+00 10710   0.764E-02 0.000E+00
CGA:   2    -0.340976546222E+03   -0.35337E-03   -0.45015E-03 10710   0.929E-02-0.655E-02
CGA:   3    -0.340976677415E+03   -0.13119E-03   -0.18155E-03 10710   0.800E-03 0.214E-02
CGA:   4    -0.340976676790E+03    0.62467E-06   -0.14548E-04 10710   0.396E-03 0.530E-03
CGA:   5    -0.340976692282E+03   -0.15491E-04   -0.15989E-04 10710   0.259E-03 0.281E-03
CGA:   6    -0.340976717011E+03   -0.24729E-04    0.39884E-04 10710   0.211E-03 0.231E-03
CGA:   7    -0.340976736672E+03   -0.19661E-04    0.40922E-04 10710   0.174E-03 0.189E-03
CGA:   8    -0.340976752809E+03   -0.16137E-04    0.35024E-04 10710   0.144E-03 0.157E-03
CGA:   9    -0.340976766497E+03   -0.13688E-04    0.23361E-04 10710   0.120E-03 0.130E-03
CGA:  10    -0.340976777635E+03   -0.11138E-04    0.24363E-04 10710   0.100E-03 0.109E-03
CGA:  11    -0.340976787391E+03   -0.97561E-05    0.13426E-04 10710   0.839E-04 0.909E-04
CGA:  12    -0.340976795154E+03   -0.77627E-05    0.17765E-04 10710   0.704E-04 0.763E-04
  38 F= -.34097680E+03 E0= -.34096974E+03  d E =-.249448E-03  mag=    14.0000
       N       E                     dE             d eps       ncg     rms          ort
SDA:   1    -0.340976748046E+03    0.39345E-04    0.00000E+00 10710   0.113E-02 0.000E+00
CGA:   2    -0.340976801682E+03   -0.53636E-04   -0.54643E-04 10710   0.115E-02-0.156E-03
CGA:   3    -0.340976941850E+03   -0.14017E-03   -0.11574E-03 10710   0.454E-03 0.329E-03
CGA:   4    -0.340977005261E+03   -0.63411E-04    0.76257E-04 10710   0.413E-03-0.128E-03
CGA:   5    -0.340977010699E+03   -0.54384E-05   -0.89119E-05 10710   0.304E-03 0.216E-03
CGA:   6    -0.340977007286E+03    0.34134E-05   -0.32310E-05 10710   0.129E-03 0.192E-03
  39 F= -.34097701E+03 E0= -.34096996E+03  d E =-.461580E-03  mag=    14.0000
       N       E                     dE             d eps       ncg     rms          ort
SDA:   1    -0.340975536518E+03    0.14742E-02    0.00000E+00 10710   0.395E-01 0.000E+00
CGA:   2    -0.340976764493E+03   -0.12280E-02   -0.11393E-02 10710   0.425E-02-0.815E-02
CGA:   3    -0.340976800497E+03   -0.36003E-04   -0.74827E-04 10710   0.161E-02 0.204E-02
CGA:   4    -0.340976819506E+03   -0.19009E-04   -0.46324E-04 10710   0.111E-02 0.131E-02
CGA:   5    -0.340976941363E+03   -0.12186E-03    0.55245E-04 10710   0.919E-03 0.867E-03
CGA:   6    -0.340976968364E+03   -0.27000E-04   -0.31098E-04 10710   0.767E-03 0.758E-03
CGA:   7    -0.340977047289E+03   -0.78925E-04    0.46889E-04 10710   0.647E-03 0.658E-03
CGA:   8    -0.340977076438E+03   -0.29149E-04   -0.27350E-04 10710   0.545E-03 0.549E-03
CGA:   9    -0.340977137863E+03   -0.61425E-04    0.24228E-04 10710   0.461E-03 0.459E-03
CGA:  10    -0.340977149005E+03   -0.11142E-04   -0.14373E-04 10710   0.396E-03 0.403E-03
CGA:  11    -0.340977188682E+03   -0.39677E-04    0.26111E-04 10710   0.335E-03 0.352E-03
CGA:  12    -0.340977205916E+03   -0.17234E-04   -0.15260E-04 10710   0.278E-03 0.292E-03
CGA:  13    -0.340977238351E+03   -0.32434E-04    0.11054E-04 10710   0.235E-03 0.241E-03
CGA:  14    -0.340977242686E+03   -0.43353E-05   -0.66466E-05 10710   0.205E-03 0.213E-03
CGA:  15    -0.340977262121E+03   -0.19436E-04    0.17243E-04 10710   0.174E-03 0.186E-03
CGA:  16    -0.340977273387E+03   -0.11265E-04   -0.91334E-05 10710   0.139E-03 0.152E-03
CGA:  17    -0.340977290243E+03   -0.16857E-04    0.50012E-05 10710   0.118E-03 0.123E-03
CGA:  18    -0.340977291671E+03   -0.14279E-05   -0.29609E-05 10710   0.104E-03 0.109E-03
CGA:  19    -0.340977300777E+03   -0.91065E-05    0.15269E-04 10710   0.886E-04 0.956E-04
  40 F= -.34097730E+03 E0= -.34097026E+03  d E =-.755072E-03  mag=    14.0000
       N       E                     dE             d eps       ncg     rms          ort
SDA:   1    -0.340975251255E+03    0.20404E-02    0.00000E+00 10710   0.997E-02 0.000E+00
CGA:   2    -0.340975570757E+03   -0.31950E-03   -0.33852E-03 10710   0.553E-02 0.324E-02
CGA:   3    -0.340976754328E+03   -0.11836E-02   -0.10477E-04 10710   0.230E-01-0.368E-02
CGA:   4    -0.340977402161E+03   -0.64783E-03   -0.70964E-03 10710   0.270E-02 0.183E-02
CGA:   5    -0.340977474359E+03   -0.72198E-04   -0.10135E-03 10710   0.926E-03 0.844E-03
CGA:   6    -0.340977554564E+03   -0.80206E-04   -0.81102E-04 10710   0.906E-03 0.517E-03
CGA:   7    -0.340977534467E+03    0.20097E-04   -0.12102E-03 10710   0.993E-02-0.215E-02
CGA:   8    -0.340977696470E+03   -0.16200E-03   -0.21525E-03 10710   0.420E-03 0.135E-02
CGA:   9    -0.340977688492E+03    0.79781E-05   -0.70711E-05 10710   0.193E-03 0.279E-03
  41 F= -.34097769E+03 E0= -.34097065E+03  d E =-.114279E-02  mag=    14.0000
       N       E                     dE             d eps       ncg     rms          ort
SDA:   1    -0.340976627769E+03    0.10687E-02    0.00000E+00 10710   0.206E-01 0.000E+00
CGA:   2    -0.340977667630E+03   -0.10399E-02   -0.96321E-03 10710   0.158E-02-0.477E-02
CGA:   3    -0.340977667758E+03   -0.12793E-06   -0.27645E-04 10710   0.581E-03 0.686E-03
CGA:   4    -0.340977665496E+03    0.22622E-05   -0.14837E-04 10710   0.203E-03 0.399E-03
CGA:   5    -0.340977690027E+03   -0.24532E-04    0.23484E-03 10710   0.173E-03 0.711E-04
CGA:   6    -0.340977691277E+03   -0.12496E-05   -0.67023E-05 10710   0.115E-03 0.180E-03
CGA:   7    -0.340977707936E+03   -0.16659E-04    0.12626E-04 10710   0.857E-04 0.566E-04
CGA:   8    -0.340977735079E+03   -0.27143E-04    0.43412E-05 10710   0.676E-04 0.909E-04
CGA:   9    -0.340977732795E+03    0.22841E-05   -0.62775E-06 10710   0.560E-04 0.605E-04
  42 F= -.34097773E+03 E0= -.34097071E+03  d E =-.118709E-02  mag=    14.0000
       N       E                     dE             d eps       ncg     rms          ort
SDA:   1    -0.340977415758E+03    0.31932E-03    0.00000E+00 10710   0.401E-02 0.000E+00
CGA:   2    -0.340977055113E+03    0.36064E-03   -0.52488E-03 10710   0.394E-01-0.112E-01
CGA:   3    -0.340977668936E+03   -0.61382E-03   -0.83610E-03 10710   0.371E-02 0.785E-02
CGA:   4    -0.340977717578E+03   -0.48642E-04   -0.92756E-04 10710   0.645E-03 0.135E-02
CGA:   5    -0.340977737138E+03   -0.19559E-04   -0.20903E-04 10710   0.620E-04 0.496E-04
CGA:   6    -0.340977737611E+03   -0.47366E-06   -0.17869E-05 10710   0.606E-04 0.524E-04
  43 F= -.34097774E+03 E0= -.34097071E+03  d E =-.119191E-02  mag=    14.0000
