       N       E                     dE             d eps       ncg     rms          rms(c)
DAV:   1     0.222636476999E+04    0.22264E+04   -0.12679E+05 24039   0.154E+03
DAV:   2    -0.167752167562E+03   -0.23941E+04   -0.22249E+04 25056   0.419E+02
DAV:   3    -0.403039281371E+03   -0.23529E+03   -0.23101E+03 25452   0.147E+02
DAV:   4    -0.409207277441E+03   -0.61680E+01   -0.61128E+01 27063   0.243E+01
DAV:   5    -0.409377443577E+03   -0.17017E+00   -0.16949E+00 27486   0.379E+00    0.787E+00
DAV:   6    -0.336278266736E+03    0.73099E+02   -0.14424E+01 26514   0.130E+01    0.954E+00
DAV:   7    -0.332813999272E+03    0.34643E+01   -0.21182E+00 24606   0.621E+00    0.292E+00
DAV:   8    -0.332808368960E+03    0.56303E-02   -0.11875E-01 26694   0.139E+00    0.221E+00
DAV:   9    -0.332772271294E+03    0.36098E-01   -0.15107E-01 25812   0.114E+00    0.827E-01
DAV:  10    -0.332778389911E+03   -0.61186E-02   -0.72944E-03 25686   0.371E-01    0.521E-01
DAV:  11    -0.332776423229E+03    0.19667E-02   -0.36088E-03 26487   0.188E-01    0.358E-01
DAV:  12    -0.332775956026E+03    0.46720E-03   -0.12573E-03 25839   0.111E-01    0.187E-01
DAV:  13    -0.332775573954E+03    0.38207E-03   -0.10107E-04 25173   0.344E-02    0.139E-01
DAV:  14    -0.332775493996E+03    0.79959E-04   -0.63575E-04 26199   0.767E-02    0.239E-02
DAV:  15    -0.332775655775E+03   -0.16178E-03   -0.22294E-05 16893   0.156E-02    0.176E-02
DAV:  16    -0.332775635914E+03    0.19861E-04   -0.28371E-06 13941   0.588E-03    0.152E-02
DAV:  17    -0.332775633451E+03    0.24629E-05   -0.52672E-07 13806   0.295E-03
   1 F= -.33277563E+03 E0= -.33277563E+03  d E =-.332776E+03  mag=    16.0000
