       N       E                     dE             d eps       ncg     rms          ort
DAV:   1     0.244937629672E+04    0.24494E+04   -0.13843E+05 10080   0.162E+03
DAV:   2    -0.202431705675E+03   -0.26518E+04   -0.24518E+04 10080   0.435E+02
DAV:   3    -0.488687300389E+03   -0.28626E+03   -0.28161E+03 10080   0.160E+02
DAV:   4    -0.497209835760E+03   -0.85225E+01   -0.84383E+01 10080   0.274E+01
DAV:   5    -0.497538496454E+03   -0.32866E+00   -0.32789E+00 10080   0.419E+00
SDA:   6    -0.238816695865E+03    0.25872E+03   -0.32789E+00 10080   0.782E+03 0.000E+00
CGA:   7    -0.346926087168E+03   -0.10811E+03   -0.10952E+03 10080   0.902E+02 0.725E+01
CGA:   8    -0.364884454099E+03   -0.17958E+02   -0.17959E+02 10080   0.334E+02-0.184E+01
CGA:   9    -0.371645892472E+03   -0.67614E+01   -0.67633E+01 10080   0.160E+02 0.228E-01
CGA:  10    -0.374765606860E+03   -0.31197E+01   -0.31202E+01 10080   0.489E+01 0.147E+00
CGA:  11    -0.375764822096E+03   -0.99922E+00   -0.99917E+00 10080   0.141E+01 0.909E-03
CGA:  12    -0.376070601077E+03   -0.30578E+00   -0.30617E+00 10080   0.465E+00-0.198E-01
CGA:  13    -0.376186590408E+03   -0.11599E+00   -0.11735E+00 10080   0.183E+00-0.241E-01
CGA:  14    -0.376232088225E+03   -0.45498E-01   -0.46120E-01 10080   0.705E-01-0.986E-02
CGA:  15    -0.376249173713E+03   -0.17085E-01   -0.17087E-01 10080   0.255E-01-0.127E-03
CGA:  16    -0.376256095545E+03   -0.69218E-02   -0.69806E-02 10080   0.906E-02-0.893E-03
CGA:  17    -0.376258559360E+03   -0.24638E-02   -0.24479E-02 10080   0.326E-02 0.244E-03
CGA:  18    -0.376259473636E+03   -0.91428E-03   -0.89978E-03 10080   0.111E-02 0.278E-03
CGA:  19    -0.376259473595E+03    0.40553E-07   -0.93002E-03 10080   0.307E-02-0.167E-02
CGA:  20    -0.376260214285E+03   -0.74069E-03   -0.74192E-03 10080   0.416E-03 0.373E-03
CGA:  21    -0.376260466034E+03   -0.25175E-03    0.55001E-03 10080   0.847E-04 0.115E-03
CGA:  22    -0.376260507209E+03   -0.41174E-04   -0.54034E-04 10080   0.692E-04-0.510E-04
CGA:  23    -0.376260553737E+03   -0.46528E-04    0.29096E-04 10080   0.119E-04 0.682E-05
CGA:  24    -0.376260551848E+03    0.18889E-05   -0.59610E-06 10080   0.962E-05 0.117E-04
   1 F= -.37626055E+03 E0= -.37626055E+03  d E =-.376261E+03  mag=    12.0000
       N       E                     dE             d eps       ncg     rms          ort
SDA:   1    -0.376263139838E+03   -0.25861E-02    0.00000E+00 10080   0.631E-03 0.000E+00
CGA:   2    -0.376263250298E+03   -0.11046E-03   -0.35064E-03 10080   0.199E-02-0.752E-03
CGA:   3    -0.376263407204E+03   -0.15691E-03   -0.20970E-03 10080   0.209E-03 0.359E-03
CGA:   4    -0.376263436327E+03   -0.29123E-04   -0.32773E-04 10080   0.335E-04 0.325E-04
CGA:   5    -0.376263469617E+03   -0.33291E-04    0.58011E-05 10080   0.155E-04-0.163E-04
CGA:   6    -0.376263468434E+03    0.11830E-05   -0.23371E-06 10080   0.127E-04 0.676E-05
   2 F= -.37626347E+03 E0= -.37626347E+03  d E =-.291659E-02  mag=    12.0000
       N       E                     dE             d eps       ncg     rms          ort
SDA:   1    -0.375782507881E+03    0.48096E+00    0.00000E+00 10080   0.163E+01 0.000E+00
CGA:   2    -0.376235685914E+03   -0.45318E+00   -0.45311E+00 10080   0.485E+00 0.498E-03
CGA:   3    -0.376344622808E+03   -0.10894E+00   -0.10895E+00 10080   0.164E+00-0.451E-02
CGA:   4    -0.376373434618E+03   -0.28812E-01   -0.28581E-01 10080   0.393E-01-0.501E-02
CGA:   5    -0.376380110602E+03   -0.66760E-02   -0.66778E-02 10080   0.102E-01 0.386E-04
CGA:   6    -0.376382083031E+03   -0.19724E-02   -0.19959E-02 10080   0.324E-02 0.107E-02
CGA:   7    -0.376383205138E+03   -0.11221E-02   -0.11753E-02 10080   0.221E-02-0.473E-03
CGA:   8    -0.376383765124E+03   -0.55999E-03   -0.66309E-03 10080   0.176E-02-0.793E-03
CGA:   9    -0.376384009380E+03   -0.24426E-03   -0.24405E-03 10080   0.682E-03-0.176E-04
CGA:  10    -0.376384131034E+03   -0.12165E-03   -0.12565E-03 10080   0.305E-03 0.967E-04
CGA:  11    -0.376384210496E+03   -0.79461E-04   -0.79371E-04 10080   0.131E-03 0.365E-04
CGA:  12    -0.376384235446E+03   -0.24950E-04   -0.26780E-04 10080   0.610E-04 0.431E-04
CGA:  13    -0.376384243359E+03   -0.79128E-05   -0.11308E-04 10080   0.329E-04 0.405E-04
   3 F= -.37638424E+03 E0= -.37638424E+03  d E =-.120775E+00  mag=    12.0000
       N       E                     dE             d eps       ncg     rms          ort
SDA:   1    -0.375474824280E+03    0.90941E+00    0.00000E+00 10080   0.286E+01 0.000E+00
CGA:   2    -0.376252720179E+03   -0.77790E+00   -0.77755E+00 10080   0.752E+00 0.470E-02
CGA:   3    -0.376438419435E+03   -0.18570E+00   -0.18584E+00 10080   0.233E+00-0.605E-02
CGA:   4    -0.376477901543E+03   -0.39482E-01   -0.39208E-01 10080   0.597E-01-0.508E-02
CGA:   5    -0.376488195845E+03   -0.10294E-01   -0.10306E-01 10080   0.151E-01 0.258E-03
CGA:   6    -0.376491352809E+03   -0.31570E-02   -0.31698E-02 10080   0.572E-02 0.136E-02
CGA:   7    -0.376493326172E+03   -0.19734E-02   -0.20539E-02 10080   0.395E-02-0.724E-03
CGA:   8    -0.376494381679E+03   -0.10555E-02   -0.11006E-02 10080   0.231E-02-0.474E-03
CGA:   9    -0.376494861967E+03   -0.48029E-03   -0.47891E-03 10080   0.782E-03 0.198E-03
CGA:  10    -0.376495107571E+03   -0.24560E-03   -0.24953E-03 10080   0.359E-03-0.612E-04
CGA:  11    -0.376495180833E+03   -0.73262E-04   -0.73701E-04 10080   0.124E-03 0.450E-04
CGA:  12    -0.376495196180E+03   -0.15348E-04   -0.20886E-04 10080   0.593E-04 0.670E-04
CGA:  13    -0.376495210715E+03   -0.14535E-04   -0.14217E-04 10080   0.216E-04 0.259E-04
CGA:  14    -0.376495215265E+03   -0.45500E-05   -0.55137E-05 10080   0.119E-04 0.192E-04
   4 F= -.37649522E+03 E0= -.37649522E+03  d E =-.110972E+00  mag=    12.0000
       N       E                     dE             d eps       ncg     rms          ort
SDA:   1    -0.375413931394E+03    0.10813E+01    0.00000E+00 10080   0.326E+01 0.000E+00
CGA:   2    -0.376308264914E+03   -0.89433E+00   -0.89375E+00 10080   0.818E+00 0.860E-02
CGA:   3    -0.376523078733E+03   -0.21481E+00   -0.21486E+00 10080   0.200E+00-0.150E-02
CGA:   4    -0.376559738024E+03   -0.36659E-01   -0.36528E-01 10080   0.564E-01-0.306E-02
CGA:   5    -0.376569210210E+03   -0.94722E-02   -0.95057E-02 10080   0.147E-01 0.616E-03
CGA:   6    -0.376572641713E+03   -0.34315E-02   -0.34214E-02 10080   0.645E-02 0.123E-02
CGA:   7    -0.376574741646E+03   -0.20999E-02   -0.21219E-02 10080   0.410E-02-0.274E-03
CGA:   8    -0.376575910900E+03   -0.11693E-02   -0.11481E-02 10080   0.191E-02 0.317E-03
CGA:   9    -0.376576429881E+03   -0.51898E-03   -0.51307E-03 10080   0.669E-03 0.299E-03
CGA:  10    -0.376576694910E+03   -0.26503E-03   -0.33451E-03 10080   0.643E-03-0.346E-03
CGA:  11    -0.376576757475E+03   -0.62564E-04   -0.85189E-04 10080   0.111E-03 0.209E-03
CGA:  12    -0.376576774506E+03   -0.17031E-04   -0.21830E-04 10080   0.469E-04 0.550E-04
CGA:  13    -0.376576797664E+03   -0.23158E-04   -0.28409E-04 10080   0.635E-04-0.302E-04
CGA:  14    -0.376576804284E+03   -0.66206E-05   -0.93714E-05 10080   0.170E-04 0.298E-04
   5 F= -.37657680E+03 E0= -.37657680E+03  d E =-.815890E-01  mag=    12.0000
       N       E                     dE             d eps       ncg     rms          ort
SDA:   1    -0.374711078331E+03    0.18657E+01    0.00000E+00 10080   0.514E+01 0.000E+00
CGA:   2    -0.376189596539E+03   -0.14785E+01   -0.14783E+01 10080   0.147E+01 0.187E-03
CGA:   3    -0.376534374568E+03   -0.34478E+00   -0.34479E+00 10080   0.396E+00 0.328E-02
CGA:   4    -0.376600514323E+03   -0.66140E-01   -0.66011E-01 10080   0.951E-01-0.199E-02
CGA:   5    -0.376617996015E+03   -0.17482E-01   -0.17482E-01 10080   0.254E-01-0.188E-04
CGA:   6    -0.376623576689E+03   -0.55807E-02   -0.55940E-02 10080   0.101E-01 0.109E-02
CGA:   7    -0.376626597241E+03   -0.30206E-02   -0.30177E-02 10080   0.539E-02 0.501E-04
CGA:   8    -0.376628315559E+03   -0.17183E-02   -0.17064E-02 10080   0.302E-02 0.144E-03
CGA:   9    -0.376629135177E+03   -0.81962E-03   -0.80970E-03 10080   0.102E-02 0.429E-03
CGA:  10    -0.376629521822E+03   -0.38664E-03   -0.39548E-03 10080   0.486E-03-0.893E-04
CGA:  11    -0.376629639699E+03   -0.11788E-03   -0.11702E-03 10080   0.168E-03 0.446E-04
CGA:  12    -0.376629684831E+03   -0.45132E-04   -0.45119E-04 10080   0.641E-04 0.426E-04
CGA:  13    -0.376629714782E+03   -0.29951E-04   -0.32709E-04 10080   0.474E-04-0.171E-04
CGA:  14    -0.376629718983E+03   -0.42004E-05   -0.55316E-05 10080   0.262E-04 0.141E-04
   6 F= -.37662972E+03 E0= -.37662972E+03  d E =-.529147E-01  mag=    12.0000
       N       E                     dE             d eps       ncg     rms          ort
SDA:   1    -0.371763163060E+03    0.48666E+01    0.00000E+00 10080   0.120E+02 0.000E+00
CGA:   2    -0.375557705455E+03   -0.37945E+01   -0.37951E+01 10080   0.416E+01-0.129E-01
CGA:   3    -0.376388176092E+03   -0.83047E+00   -0.83089E+00 10080   0.105E+01 0.115E-01
CGA:   4    -0.376566109134E+03   -0.17793E+00   -0.17797E+00 10080   0.226E+00-0.599E-03
CGA:   5    -0.376607827445E+03   -0.41718E-01   -0.41702E-01 10080   0.668E-01-0.392E-03
CGA:   6    -0.376621625442E+03   -0.13798E-01   -0.13840E-01 10080   0.213E-01 0.139E-02
CGA:   7    -0.376627620430E+03   -0.59950E-02   -0.59956E-02 10080   0.995E-02-0.165E-04
CGA:   8    -0.376630555029E+03   -0.29346E-02   -0.29425E-02 10080   0.555E-02-0.139E-03
CGA:   9    -0.376632038377E+03   -0.14833E-02   -0.14671E-02 10080   0.194E-02 0.611E-03
CGA:  10    -0.376632715090E+03   -0.67671E-03   -0.67450E-03 10080   0.854E-03 0.307E-04
CGA:  11    -0.376632998345E+03   -0.28325E-03   -0.28884E-03 10080   0.422E-03-0.648E-04
CGA:  12    -0.376633097867E+03   -0.99523E-04   -0.99172E-04 10080   0.162E-03 0.986E-04
CGA:  13    -0.376633161083E+03   -0.63215E-04   -0.62568E-04 10080   0.836E-04 0.104E-04
CGA:  14    -0.376633194474E+03   -0.33392E-04   -0.36199E-04 10080   0.473E-04-0.184E-04
CGA:  15    -0.376633196840E+03   -0.23661E-05   -0.48717E-05 10080   0.244E-04 0.194E-04
   7 F= -.37663320E+03 E0= -.37663320E+03  d E =-.347786E-02  mag=    12.0000
       N       E                     dE             d eps       ncg     rms          ort
SDA:   1    -0.375525985239E+03    0.11072E+01    0.00000E+00 10080   0.268E+01 0.000E+00
CGA:   2    -0.376435207897E+03   -0.90922E+00   -0.90971E+00 10080   0.887E+00-0.585E-02
CGA:   3    -0.376599732757E+03   -0.16452E+00   -0.16495E+00 10080   0.236E+00 0.485E-02
CGA:   4    -0.376641522476E+03   -0.41790E-01   -0.41817E-01 10080   0.537E-01 0.457E-03
CGA:   5    -0.376651120109E+03   -0.95976E-02   -0.95672E-02 10080   0.153E-01-0.435E-03
CGA:   6    -0.376654243993E+03   -0.31239E-02   -0.31335E-02 10080   0.443E-02 0.267E-03
CGA:   7    -0.376655336610E+03   -0.10926E-02   -0.10922E-02 10080   0.167E-02 0.301E-03
CGA:   8    -0.376655822792E+03   -0.48618E-03   -0.48547E-03 10080   0.779E-03 0.229E-04
CGA:   9    -0.376656007966E+03   -0.18517E-03   -0.18624E-03 10080   0.235E-03 0.161E-03
CGA:  10    -0.376656062489E+03   -0.54523E-04   -0.58044E-04 10080   0.838E-04 0.933E-04
CGA:  11    -0.376656096121E+03   -0.33632E-04   -0.33180E-04 10080   0.404E-04 0.104E-04
CGA:  12    -0.376656105759E+03   -0.96380E-05   -0.10005E-04 10080   0.190E-04 0.165E-04
   8 F= -.37665611E+03 E0= -.37665611E+03  d E =-.229089E-01  mag=    12.0000
       N       E                     dE             d eps       ncg     rms          ort
SDA:   1    -0.376456948844E+03    0.19915E+00    0.00000E+00 10080   0.590E+00 0.000E+00
CGA:   2    -0.376621276042E+03   -0.16433E+00   -0.16427E+00 10080   0.160E+00 0.106E-02
CGA:   3    -0.376660059927E+03   -0.38784E-01   -0.38788E-01 10080   0.486E-01-0.842E-03
CGA:   4    -0.376667749343E+03   -0.76894E-02   -0.77442E-02 10080   0.114E-01 0.665E-03
CGA:   5    -0.376669871840E+03   -0.21225E-02   -0.21245E-02 10080   0.305E-02 0.368E-04
CGA:   6    -0.376670659066E+03   -0.78723E-03   -0.80001E-03 10080   0.169E-02-0.417E-03
CGA:   7    -0.376671017162E+03   -0.35810E-03   -0.35761E-03 10080   0.698E-03 0.386E-04
CGA:   8    -0.376671232064E+03   -0.21490E-03   -0.21412E-03 10080   0.380E-03 0.113E-04
CGA:   9    -0.376671271096E+03   -0.39032E-04   -0.25961E-03 10080   0.124E-02-0.506E-03
CGA:  10    -0.376671413419E+03   -0.14232E-03   -0.17367E-03 10080   0.143E-03 0.264E-03
CGA:  11    -0.376671449024E+03   -0.35605E-04   -0.36688E-04 10080   0.411E-04 0.263E-04
CGA:  12    -0.376671474655E+03   -0.25631E-04    0.11921E-03 10080   0.144E-04 0.909E-06
CGA:  13    -0.376671473878E+03    0.77749E-06   -0.11637E-05 10080   0.982E-05 0.113E-04
   9 F= -.37667147E+03 E0= -.37667147E+03  d E =-.153681E-01  mag=    12.0000
       N       E                     dE             d eps       ncg     rms          ort
SDA:   1    -0.376395414066E+03    0.27606E+00    0.00000E+00 10080   0.655E+00 0.000E+00
CGA:   2    -0.376631455061E+03   -0.23604E+00   -0.23642E+00 10080   0.190E+00-0.295E-02
CGA:   3    -0.376666931281E+03   -0.35476E-01   -0.35568E-01 10080   0.471E-01 0.173E-02
CGA:   4    -0.376674818372E+03   -0.78871E-02   -0.78877E-02 10080   0.108E-01 0.207E-05
CGA:   5    -0.376676806343E+03   -0.19880E-02   -0.19845E-02 10080   0.295E-02-0.728E-04
CGA:   6    -0.376677357602E+03   -0.55126E-03   -0.55879E-03 10080   0.754E-03 0.190E-03
CGA:   7    -0.376677554885E+03   -0.19728E-03   -0.19671E-03 10080   0.285E-03 0.347E-04
CGA:   8    -0.376677638803E+03   -0.83918E-04   -0.83866E-04 10080   0.142E-03 0.106E-05
CGA:   9    -0.376677656752E+03   -0.17950E-04   -0.22742E-04 10080   0.528E-04 0.661E-04
CGA:  10    -0.376677662169E+03   -0.54163E-05   -0.94907E-05 10080   0.223E-04 0.386E-04
CGA:  11    -0.376677672647E+03   -0.10478E-04   -0.10793E-04 10080   0.169E-04-0.121E-05
CGA:  12    -0.376677671734E+03    0.91290E-06   -0.11407E-05 10080   0.107E-04 0.125E-04
  10 F= -.37667767E+03 E0= -.37667767E+03  d E =-.619786E-02  mag=    12.0000
       N       E                     dE             d eps       ncg     rms          ort
SDA:   1    -0.374053449833E+03    0.26242E+01    0.00000E+00 10080   0.602E+01 0.000E+00
CGA:   2    -0.376293299976E+03   -0.22399E+01   -0.22431E+01 10080   0.155E+01-0.198E-01
CGA:   3    -0.376593312981E+03   -0.30001E+00   -0.30043E+00 10080   0.370E+00 0.112E-01
CGA:   4    -0.376656408732E+03   -0.63096E-01   -0.62960E-01 10080   0.899E-01-0.227E-02
CGA:   5    -0.376673061529E+03   -0.16653E-01   -0.16614E-01 10080   0.245E-01-0.105E-02
CGA:   6    -0.376677693213E+03   -0.46317E-02   -0.46643E-02 10080   0.628E-02 0.114E-02
CGA:   7    -0.376679415791E+03   -0.17226E-02   -0.17304E-02 10080   0.265E-02-0.177E-03
CGA:   8    -0.376680174834E+03   -0.75904E-03   -0.78842E-03 10080   0.149E-02-0.346E-03
CGA:   9    -0.376680420688E+03   -0.24585E-03   -0.25558E-03 10080   0.444E-03 0.332E-03
CGA:  10    -0.376680515782E+03   -0.95094E-04   -0.10040E-03 10080   0.159E-03 0.134E-03
CGA:  11    -0.376680577011E+03   -0.61229E-04   -0.94488E-04 10080   0.200E-03-0.142E-03
CGA:  12    -0.376680592619E+03   -0.15608E-04   -0.25412E-04 10080   0.498E-04 0.913E-04
CGA:  13    -0.376680598376E+03   -0.57576E-05   -0.89240E-05 10080   0.168E-04 0.299E-04
  11 F= -.37668060E+03 E0= -.37668060E+03  d E =-.292664E-02  mag=    12.0000
       N       E                     dE             d eps       ncg     rms          ort
SDA:   1    -0.372346199801E+03    0.43344E+01    0.00000E+00 10080   0.993E+01 0.000E+00
CGA:   2    -0.376001362641E+03   -0.36552E+01   -0.36585E+01 10080   0.264E+01-0.210E-01
CGA:   3    -0.376514044556E+03   -0.51268E+00   -0.51332E+00 10080   0.653E+00 0.142E-01
CGA:   4    -0.376623735523E+03   -0.10969E+00   -0.10958E+00 10080   0.155E+00-0.184E-02
CGA:   5    -0.376652667261E+03   -0.28932E-01   -0.28873E-01 10080   0.434E-01-0.151E-02
CGA:   6    -0.376661139092E+03   -0.84718E-02   -0.85010E-02 10080   0.121E-01 0.110E-02
CGA:   7    -0.376664374136E+03   -0.32350E-02   -0.32415E-02 10080   0.495E-02-0.163E-03
CGA:   8    -0.376665830254E+03   -0.14561E-02   -0.14917E-02 10080   0.272E-02-0.439E-03
CGA:   9    -0.376666407008E+03   -0.57675E-03   -0.57550E-03 10080   0.786E-03 0.340E-03
CGA:  10    -0.376666657114E+03   -0.25011E-03   -0.25003E-03 10080   0.308E-03 0.152E-05
CGA:  11    -0.376666742387E+03   -0.85273E-04   -0.14894E-03 10080   0.433E-03-0.254E-03
CGA:  12    -0.376666782860E+03   -0.40473E-04   -0.57256E-04 10080   0.788E-04 0.150E-03
CGA:  13    -0.376666794684E+03   -0.11824E-04   -0.15491E-04 10080   0.336E-04 0.397E-04
CGA:  14    -0.376666817502E+03   -0.22818E-04    0.86464E-05 10080   0.159E-04 0.166E-04
CGA:  15    -0.376666820529E+03   -0.30268E-05   -0.40542E-05 10080   0.106E-04 0.162E-04
  12 F= -.37666682E+03 E0= -.37666682E+03  d E =0.137778E-01  mag=    12.0000
       N       E                     dE             d eps       ncg     rms          ort
SDA:   1    -0.375463569025E+03    0.12032E+01    0.00000E+00 10080   0.282E+01 0.000E+00
CGA:   2    -0.376486869784E+03   -0.10233E+01   -0.10236E+01 10080   0.756E+00-0.237E-02
CGA:   3    -0.376638260080E+03   -0.15139E+00   -0.15136E+00 10080   0.203E+00-0.154E-02
CGA:   4    -0.376671529729E+03   -0.33270E-01   -0.33168E-01 10080   0.456E-01-0.157E-02
CGA:   5    -0.376679983763E+03   -0.84540E-02   -0.84398E-02 10080   0.123E-01-0.372E-03
CGA:   6    -0.376682495664E+03   -0.25119E-02   -0.25107E-02 10080   0.372E-02-0.671E-04
CGA:   7    -0.376683517857E+03   -0.10222E-02   -0.10680E-02 10080   0.188E-02-0.691E-03
CGA:   8    -0.376683972297E+03   -0.45444E-03   -0.53723E-03 10080   0.135E-02-0.660E-03
CGA:   9    -0.376684205359E+03   -0.23306E-03   -0.24807E-03 10080   0.502E-03-0.289E-03
CGA:  10    -0.376684324782E+03   -0.11942E-03   -0.14601E-03 10080   0.299E-03-0.196E-03
CGA:  11    -0.376684372661E+03   -0.47879E-04   -0.48358E-04 10080   0.125E-03-0.201E-04
CGA:  12    -0.376684397262E+03   -0.24602E-04   -0.25329E-04 10080   0.571E-04 0.284E-04
CGA:  13    -0.376684409729E+03   -0.12467E-04   -0.13660E-04 10080   0.263E-04 0.256E-04
CGA:  14    -0.376684413036E+03   -0.33069E-05   -0.53768E-05 10080   0.139E-04 0.211E-04
  13 F= -.37668441E+03 E0= -.37668441E+03  d E =-.175925E-01  mag=    12.0000
       N       E                     dE             d eps       ncg     rms          ort
SDA:   1    -0.376497422600E+03    0.18699E+00    0.00000E+00 10080   0.468E+00 0.000E+00
CGA:   2    -0.376650391780E+03   -0.15297E+00   -0.15300E+00 10080   0.149E+00-0.474E-03
CGA:   3    -0.376680068011E+03   -0.29676E-01   -0.29693E-01 10080   0.422E-01 0.426E-03
CGA:   4    -0.376687241390E+03   -0.71734E-02   -0.71396E-02 10080   0.970E-02-0.551E-03
CGA:   5    -0.376688994346E+03   -0.17530E-02   -0.17451E-02 10080   0.273E-02-0.174E-03
CGA:   6    -0.376689517866E+03   -0.52352E-03   -0.52797E-03 10080   0.793E-03 0.156E-03
CGA:   7    -0.376689744386E+03   -0.22652E-03   -0.22644E-03 10080   0.357E-03 0.174E-05
CGA:   8    -0.376689860536E+03   -0.11615E-03   -0.13370E-03 10080   0.329E-03-0.119E-03
CGA:   9    -0.376689902974E+03   -0.42438E-04   -0.43207E-04 10080   0.127E-03 0.210E-04
CGA:  10    -0.376689924120E+03   -0.21146E-04   -0.22542E-04 10080   0.521E-04 0.215E-04
CGA:  11    -0.376689942177E+03   -0.18058E-04   -0.23390E-04 10080   0.519E-04-0.344E-04
CGA:  12    -0.376689952735E+03   -0.10558E-04   -0.10801E-04 10080   0.700E-05 0.852E-05
CGA:  13    -0.376689955616E+03   -0.28806E-05   -0.28108E-05 10080   0.374E-05 0.634E-06
  14 F= -.37668996E+03 E0= -.37668996E+03  d E =-.554258E-02  mag=    12.0000
       N       E                     dE             d eps       ncg     rms          ort
SDA:   1    -0.376589446014E+03    0.10051E+00    0.00000E+00 10080   0.230E+00 0.000E+00
CGA:   2    -0.376675730995E+03   -0.86285E-01   -0.86334E-01 10080   0.559E-01-0.375E-03
CGA:   3    -0.376687002807E+03   -0.11272E-01   -0.11293E-01 10080   0.133E-01 0.509E-03
CGA:   4    -0.376689181048E+03   -0.21782E-02   -0.21911E-02 10080   0.318E-02 0.159E-03
CGA:   5    -0.376689792030E+03   -0.61098E-03   -0.61112E-03 10080   0.850E-03 0.243E-05
CGA:   6    -0.376689959323E+03   -0.16729E-03   -0.16808E-03 10080   0.238E-03 0.211E-04
CGA:   7    -0.376690006609E+03   -0.47286E-04   -0.48861E-04 10080   0.718E-04 0.490E-04
CGA:   8    -0.376690021620E+03   -0.15011E-04   -0.16416E-04 10080   0.304E-04 0.337E-04
CGA:   9    -0.376690027582E+03   -0.59617E-05   -0.73973E-05 10080   0.149E-04 0.226E-04
  15 F= -.37669003E+03 E0= -.37669003E+03  d E =-.719658E-04  mag=    12.0000
       N       E                     dE             d eps       ncg     rms          ort
SDA:   1    -0.376445793350E+03    0.24423E+00    0.00000E+00 10080   0.559E+00 0.000E+00
CGA:   2    -0.376658269007E+03   -0.21248E+00   -0.21262E+00 10080   0.121E+00-0.898E-03
CGA:   3    -0.376684503222E+03   -0.26234E-01   -0.26241E-01 10080   0.258E-01 0.466E-03
CGA:   4    -0.376688936227E+03   -0.44330E-02   -0.44208E-02 10080   0.725E-02-0.205E-03
CGA:   5    -0.376690237027E+03   -0.13008E-02   -0.13012E-02 10080   0.172E-02 0.898E-05
CGA:   6    -0.376690564403E+03   -0.32738E-03   -0.33110E-03 10080   0.481E-03 0.111E-03
CGA:   7    -0.376690705477E+03   -0.14107E-03   -0.14393E-03 10080   0.232E-03-0.494E-04
CGA:   8    -0.376690753903E+03   -0.48425E-04   -0.48272E-04 10080   0.856E-04 0.302E-04
CGA:   9    -0.376690767832E+03   -0.13930E-04   -0.16265E-04 10080   0.309E-04 0.399E-04
CGA:  10    -0.376690775460E+03   -0.76273E-05   -0.82429E-05 10080   0.118E-04 0.149E-04
  16 F= -.37669078E+03 E0= -.37669078E+03  d E =-.747878E-03  mag=    12.0000
       N       E                     dE             d eps       ncg     rms          ort
SDA:   1    -0.372627741346E+03    0.40630E+01    0.00000E+00 10080   0.933E+01 0.000E+00
CGA:   2    -0.376070595738E+03   -0.34429E+01   -0.34465E+01 10080   0.234E+01-0.235E-01
CGA:   3    -0.376544226561E+03   -0.47363E+00   -0.47405E+00 10080   0.569E+00 0.114E-01
CGA:   4    -0.376641487760E+03   -0.97261E-01   -0.96913E-01 10080   0.138E+00-0.483E-02
CGA:   5    -0.376666654237E+03   -0.25166E-01   -0.25099E-01 10080   0.383E-01-0.141E-02
CGA:   6    -0.376673930422E+03   -0.72762E-02   -0.73281E-02 10080   0.102E-01 0.145E-02
CGA:   7    -0.376676918804E+03   -0.29884E-02   -0.30404E-02 10080   0.497E-02-0.866E-03
CGA:   8    -0.376678231684E+03   -0.13129E-02   -0.13602E-02 10080   0.269E-02-0.683E-03
CGA:   9    -0.376678747905E+03   -0.51622E-03   -0.51922E-03 10080   0.760E-03 0.316E-03
CGA:  10    -0.376678984484E+03   -0.23658E-03   -0.23952E-03 10080   0.336E-03-0.601E-04
CGA:  11    -0.376679033694E+03   -0.49209E-04   -0.16948E-03 10080   0.666E-03-0.385E-03
CGA:  12    -0.376679103588E+03   -0.69894E-04   -0.93076E-04 10080   0.110E-03 0.208E-03
CGA:  13    -0.376679122935E+03   -0.19347E-04   -0.23511E-04 10080   0.433E-04 0.501E-04
CGA:  14    -0.376679139911E+03   -0.16976E-04   -0.32997E-04 10080   0.749E-04-0.568E-04
CGA:  15    -0.376679141602E+03   -0.16903E-05   -0.84657E-05 10080   0.308E-04 0.475E-04
  17 F= -.37667914E+03 E0= -.37667914E+03  d E =0.116339E-01  mag=    12.0000
       N       E                     dE             d eps       ncg     rms          ort
SDA:   1    -0.375824388417E+03    0.85475E+00    0.00000E+00 10080   0.200E+01 0.000E+00
CGA:   2    -0.376550993603E+03   -0.72661E+00   -0.72674E+00 10080   0.532E+00-0.133E-02
CGA:   3    -0.376658950110E+03   -0.10796E+00   -0.10802E+00 10080   0.138E+00 0.143E-02
CGA:   4    -0.376681606957E+03   -0.22657E-01   -0.22633E-01 10080   0.324E-01-0.364E-03
CGA:   5    -0.376687630680E+03   -0.60237E-02   -0.60039E-02 10080   0.876E-02-0.353E-03
CGA:   6    -0.376689394293E+03   -0.17636E-02   -0.17649E-02 10080   0.260E-02 0.336E-04
CGA:   7    -0.376690059902E+03   -0.66561E-03   -0.66609E-03 10080   0.101E-02-0.300E-04
CGA:   8    -0.376690374678E+03   -0.31478E-03   -0.33272E-03 10080   0.645E-03-0.192E-03
CGA:   9    -0.376690522212E+03   -0.14753E-03   -0.15216E-03 10080   0.242E-03-0.987E-04
CGA:  10    -0.376690586229E+03   -0.64017E-04   -0.71531E-04 10080   0.109E-03-0.739E-04
CGA:  11    -0.376690608970E+03   -0.22740E-04   -0.32387E-04 10080   0.855E-04-0.546E-04
CGA:  12    -0.376690622961E+03   -0.13992E-04   -0.15530E-04 10080   0.164E-04 0.194E-04
CGA:  13    -0.376690629595E+03   -0.66340E-05   -0.64077E-05 10080   0.806E-05 0.365E-05
  18 F= -.37669063E+03 E0= -.37669063E+03  d E =-.114880E-01  mag=    12.0000
       N       E                     dE             d eps       ncg     rms          ort
SDA:   1    -0.376656471315E+03    0.34152E-01    0.00000E+00 10080   0.854E-01 0.000E+00
CGA:   2    -0.376684056714E+03   -0.27585E-01   -0.27595E-01 10080   0.332E-01-0.159E-03
CGA:   3    -0.376690087493E+03   -0.60308E-02   -0.60245E-02 10080   0.823E-02-0.955E-04
CGA:   4    -0.376691555273E+03   -0.14678E-02   -0.14623E-02 10080   0.199E-02-0.698E-04
CGA:   5    -0.376691899633E+03   -0.34436E-03   -0.34328E-03 10080   0.528E-03-0.138E-04
CGA:   6    -0.376692017825E+03   -0.11819E-03   -0.11754E-03 10080   0.172E-03-0.255E-04
CGA:   7    -0.376692064404E+03   -0.46579E-04   -0.48225E-04 10080   0.950E-04-0.353E-04
CGA:   8    -0.376692086663E+03   -0.22259E-04   -0.25542E-04 10080   0.683E-04-0.376E-04
CGA:   9    -0.376692073529E+03    0.13134E-04   -0.29178E-04 10080   0.227E-03-0.939E-04
CGA:  10    -0.376692106913E+03   -0.33384E-04   -0.35568E-04 10080   0.298E-04 0.180E-04
CGA:  11    -0.376692113773E+03   -0.68600E-05   -0.73063E-05 10080   0.930E-05 0.997E-05
  19 F= -.37669211E+03 E0= -.37669211E+03  d E =-.148418E-02  mag=    12.0000
       N       E                     dE             d eps       ncg     rms          ort
SDA:   1    -0.376682785612E+03    0.93213E-02    0.00000E+00 10080   0.220E-01 0.000E+00
CGA:   2    -0.376690673620E+03   -0.78880E-02   -0.78907E-02 10080   0.607E-02-0.308E-04
CGA:   3    -0.376691884632E+03   -0.12110E-02   -0.12111E-02 10080   0.159E-02-0.764E-06
CGA:   4    -0.376692151171E+03   -0.26654E-03   -0.26437E-03 10080   0.380E-03-0.219E-04
CGA:   5    -0.376692217483E+03   -0.66312E-04   -0.66648E-04 10080   0.102E-03 0.393E-05
CGA:   6    -0.376692234279E+03   -0.16796E-04   -0.18046E-04 10080   0.256E-04 0.151E-04
CGA:   7    -0.376692241874E+03   -0.75947E-05   -0.75878E-05 10080   0.124E-04 0.148E-05
  20 F= -.37669224E+03 E0= -.37669224E+03  d E =-.128101E-03  mag=    12.0000
       N       E                     dE             d eps       ncg     rms          ort
SDA:   1    -0.376672141821E+03    0.20092E-01    0.00000E+00 10080   0.486E-01 0.000E+00
CGA:   2    -0.376689443679E+03   -0.17302E-01   -0.17284E-01 10080   0.123E-01 0.178E-03
CGA:   3    -0.376692079238E+03   -0.26356E-02   -0.26315E-02 10080   0.319E-02-0.889E-04
CGA:   4    -0.376692566412E+03   -0.48717E-03   -0.48591E-03 10080   0.819E-03-0.130E-04
CGA:   5    -0.376692715789E+03   -0.14938E-03   -0.14980E-03 10080   0.187E-03 0.603E-05
CGA:   6    -0.376692755688E+03   -0.39899E-04   -0.40079E-04 10080   0.585E-04 0.487E-05
CGA:   7    -0.376692772180E+03   -0.16492E-04   -0.16649E-04 10080   0.288E-04-0.517E-05
CGA:   8    -0.376692780814E+03   -0.86344E-05   -0.96521E-05 10080   0.222E-04-0.860E-05
  21 F= -.37669278E+03 E0= -.37669278E+03  d E =-.538940E-03  mag=    12.0000
       N       E                     dE             d eps       ncg     rms          ort
SDA:   1    -0.375482896729E+03    0.12099E+01    0.00000E+00 10080   0.283E+01 0.000E+00
CGA:   2    -0.376495349361E+03   -0.10125E+01   -0.10128E+01 10080   0.747E+00-0.349E-02
CGA:   3    -0.376652152139E+03   -0.15680E+00   -0.15688E+00 10080   0.166E+00 0.997E-03
CGA:   4    -0.376680175608E+03   -0.28023E-01   -0.27935E-01 10080   0.425E-01-0.947E-03
CGA:   5    -0.376688070768E+03   -0.78952E-02   -0.78853E-02 10080   0.109E-01-0.155E-03
CGA:   6    -0.376690221866E+03   -0.21511E-02   -0.21655E-02 10080   0.332E-02 0.279E-03
CGA:   7    -0.376691158405E+03   -0.93654E-03   -0.94310E-03 10080   0.152E-02-0.219E-03
CGA:   8    -0.376691610708E+03   -0.45230E-03   -0.47154E-03 10080   0.951E-03-0.229E-03
CGA:   9    -0.376691808214E+03   -0.19751E-03   -0.19788E-03 10080   0.302E-03 0.471E-04
CGA:  10    -0.376691911498E+03   -0.10328E-03   -0.10886E-03 10080   0.164E-03-0.614E-04
CGA:  11    -0.376691949682E+03   -0.38184E-04   -0.60637E-04 10080   0.187E-03-0.109E-03
CGA:  12    -0.376691973492E+03   -0.23810E-04   -0.29665E-04 10080   0.339E-04 0.539E-04
CGA:  13    -0.376691983458E+03   -0.99657E-05   -0.10250E-04 10080   0.151E-04 0.104E-04
CGA:  14    -0.376691986427E+03   -0.29690E-05   -0.14101E-04 10080   0.467E-04-0.245E-04
  22 F= -.37669199E+03 E0= -.37669199E+03  d E =0.794388E-03  mag=    12.0000
       N       E                     dE             d eps       ncg     rms          ort
SDA:   1    -0.375957459437E+03    0.73452E+00    0.00000E+00 10080   0.169E+01 0.000E+00
CGA:   2    -0.376575143539E+03   -0.61768E+00   -0.61782E+00 10080   0.464E+00-0.166E-02
CGA:   3    -0.376665136707E+03   -0.89993E-01   -0.90124E-01 10080   0.107E+00 0.145E-02
CGA:   4    -0.376683312298E+03   -0.18176E-01   -0.18142E-01 10080   0.260E-01-0.348E-03
CGA:   5    -0.376688240617E+03   -0.49283E-02   -0.49190E-02 10080   0.722E-02-0.120E-03
CGA:   6    -0.376689604473E+03   -0.13639E-02   -0.13797E-02 10080   0.197E-02 0.214E-03
CGA:   7    -0.376690138591E+03   -0.53412E-03   -0.53408E-03 10080   0.790E-03 0.333E-04
CGA:   8    -0.376690371136E+03   -0.23254E-03   -0.23264E-03 10080   0.410E-03-0.333E-05
CGA:   9    -0.376690469632E+03   -0.98497E-04   -0.99792E-04 10080   0.131E-03 0.667E-04
CGA:  10    -0.376690515319E+03   -0.45687E-04   -0.45461E-04 10080   0.565E-04 0.620E-05
CGA:  11    -0.376690535116E+03   -0.19797E-04   -0.20568E-04 10080   0.319E-04-0.935E-05
CGA:  12    -0.376690539410E+03   -0.42942E-05   -0.51429E-05 10080   0.150E-04 0.112E-04
  23 F= -.37669054E+03 E0= -.37669054E+03  d E =0.144702E-02  mag=    12.0000
       N       E                     dE             d eps       ncg     rms          ort
SDA:   1    -0.375908856220E+03    0.78168E+00    0.00000E+00 10080   0.181E+01 0.000E+00
CGA:   2    -0.376568548659E+03   -0.65969E+00   -0.65997E+00 10080   0.486E+00-0.290E-02
CGA:   3    -0.376665751623E+03   -0.97203E-01   -0.97334E-01 10080   0.113E+00 0.177E-02
CGA:   4    -0.376684816749E+03   -0.19065E-01   -0.18995E-01 10080   0.286E-01-0.727E-03
CGA:   5    -0.376690252803E+03   -0.54361E-02   -0.54113E-02 10080   0.759E-02-0.368E-03
CGA:   6    -0.376691751161E+03   -0.14984E-02   -0.15012E-02 10080   0.224E-02 0.516E-04
CGA:   7    -0.376692393522E+03   -0.64236E-03   -0.65134E-03 10080   0.107E-02-0.246E-03
CGA:   8    -0.376692691705E+03   -0.29818E-03   -0.31608E-03 10080   0.675E-03-0.231E-03
CGA:   9    -0.376692833209E+03   -0.14150E-03   -0.14207E-03 10080   0.222E-03-0.548E-04
CGA:  10    -0.376692900177E+03   -0.66969E-04   -0.75382E-04 10080   0.124E-03-0.757E-04
CGA:  11    -0.376692921386E+03   -0.21208E-04   -0.21176E-04 10080   0.482E-04-0.667E-05
CGA:  12    -0.376692931226E+03   -0.98402E-05   -0.10237E-04 10080   0.213E-04 0.101E-04
  24 F= -.37669293E+03 E0= -.37669293E+03  d E =-.239182E-02  mag=    12.0000
       N       E                     dE             d eps       ncg     rms          ort
SDA:   1    -0.376088997027E+03    0.60392E+00    0.00000E+00 10080   0.139E+01 0.000E+00
CGA:   2    -0.376597257769E+03   -0.50826E+00   -0.50866E+00 10080   0.363E+00-0.382E-02
CGA:   3    -0.376669068228E+03   -0.71810E-01   -0.71923E-01 10080   0.902E-01 0.142E-02
CGA:   4    -0.376684544310E+03   -0.15476E-01   -0.15407E-01 10080   0.222E-01-0.735E-03
CGA:   5    -0.376688674413E+03   -0.41301E-02   -0.41073E-02 10080   0.604E-02-0.322E-03
CGA:   6    -0.376689855727E+03   -0.11813E-02   -0.11847E-02 10080   0.176E-02 0.614E-04
CGA:   7    -0.376690365566E+03   -0.50984E-03   -0.52117E-03 10080   0.900E-03-0.267E-03
CGA:   8    -0.376690603251E+03   -0.23769E-03   -0.26323E-03 10080   0.637E-03-0.280E-03
CGA:   9    -0.376690719278E+03   -0.11603E-03   -0.11660E-03 10080   0.217E-03-0.776E-04
CGA:  10    -0.376690780356E+03   -0.61078E-04   -0.69962E-04 10080   0.136E-03-0.815E-04
CGA:  11    -0.376690804613E+03   -0.24257E-04   -0.25134E-04 10080   0.668E-04-0.273E-04
CGA:  12    -0.376690815026E+03   -0.10413E-04   -0.11196E-04 10080   0.312E-04 0.140E-04
CGA:  13    -0.376690821127E+03   -0.61006E-05   -0.70435E-05 10080   0.134E-04 0.124E-04
  25 F= -.37669082E+03 E0= -.37669082E+03  d E =0.211010E-02  mag=    12.0000
       N       E                     dE             d eps       ncg     rms          ort
SDA:   1    -0.376085350868E+03    0.60546E+00    0.00000E+00 10080   0.141E+01 0.000E+00
CGA:   2    -0.376598668105E+03   -0.51332E+00   -0.51341E+00 10080   0.375E+00-0.937E-03
CGA:   3    -0.376673184659E+03   -0.74517E-01   -0.74581E-01 10080   0.890E-01 0.917E-03
CGA:   4    -0.376688209104E+03   -0.15024E-01   -0.14996E-01 10080   0.220E-01-0.337E-03
CGA:   5    -0.376692343908E+03   -0.41348E-02   -0.41279E-02 10080   0.569E-02-0.109E-03
CGA:   6    -0.376693445969E+03   -0.11021E-02   -0.11139E-02 10080   0.161E-02 0.222E-03
CGA:   7    -0.376693878850E+03   -0.43288E-03   -0.43267E-03 10080   0.652E-03 0.188E-04
CGA:   8    -0.376694073106E+03   -0.19426E-03   -0.19479E-03 10080   0.333E-03-0.111E-04
CGA:   9    -0.376694145512E+03   -0.72405E-04   -0.74174E-04 10080   0.103E-03 0.746E-04
CGA:  10    -0.376694179643E+03   -0.34132E-04   -0.33852E-04 10080   0.427E-04 0.146E-04
CGA:  11    -0.376694196656E+03   -0.17013E-04   -0.23411E-04 10080   0.546E-04-0.278E-04
CGA:  12    -0.376694200367E+03   -0.37109E-05   -0.68559E-05 10080   0.130E-04 0.231E-04
  26 F= -.37669420E+03 E0= -.37669420E+03  d E =-.337924E-02  mag=    12.0000
       N       E                     dE             d eps       ncg     rms          ort
SDA:   1    -0.376577294182E+03    0.11690E+00    0.00000E+00 10080   0.269E+00 0.000E+00
CGA:   2    -0.376670867900E+03   -0.93574E-01   -0.93500E-01 10080   0.871E-01 0.698E-03
CGA:   3    -0.376687461605E+03   -0.16594E-01   -0.16573E-01 10080   0.222E-01-0.365E-03
CGA:   4    -0.376691264163E+03   -0.38026E-02   -0.38022E-02 10080   0.512E-02-0.333E-05
CGA:   5    -0.376692170429E+03   -0.90627E-03   -0.90902E-03 10080   0.146E-02 0.394E-04
CGA:   6    -0.376692474126E+03   -0.30370E-03   -0.30388E-03 10080   0.451E-03 0.494E-05
CGA:   7    -0.376692588236E+03   -0.11411E-03   -0.11391E-03 10080   0.175E-03 0.179E-04
CGA:   8    -0.376692639343E+03   -0.51107E-04   -0.51069E-04 10080   0.860E-04 0.994E-06
CGA:   9    -0.376692664475E+03   -0.25132E-04   -0.25021E-04 10080   0.323E-04 0.244E-05
CGA:  10    -0.376692671263E+03   -0.67885E-05   -0.70997E-05 10080   0.996E-05 0.969E-05
  27 F= -.37669267E+03 E0= -.37669267E+03  d E =0.152910E-02  mag=    12.0000
       N       E                     dE             d eps       ncg     rms          ort
SDA:   1    -0.376643714234E+03    0.48950E-01    0.00000E+00 10080   0.117E+00 0.000E+00
CGA:   2    -0.376685093557E+03   -0.41379E-01   -0.41453E-01 10080   0.382E-01-0.712E-03
CGA:   3    -0.376692032507E+03   -0.69389E-02   -0.69631E-02 10080   0.938E-02 0.338E-03
CGA:   4    -0.376693738614E+03   -0.17061E-02   -0.17031E-02 10080   0.218E-02-0.440E-04
CGA:   5    -0.376694141092E+03   -0.40248E-03   -0.39927E-03 10080   0.666E-03-0.527E-04
CGA:   6    -0.376694271802E+03   -0.13071E-03   -0.13025E-03 10080   0.199E-03-0.109E-04
CGA:   7    -0.376694326732E+03   -0.54929E-04   -0.56265E-04 10080   0.988E-04-0.286E-04
CGA:   8    -0.376694351017E+03   -0.24285E-04   -0.25757E-04 10080   0.552E-04-0.238E-04
CGA:   9    -0.376694363764E+03   -0.12747E-04   -0.15634E-04 10080   0.324E-04-0.227E-04
CGA:  10    -0.376694339019E+03    0.24746E-04   -0.17673E-04 10080   0.208E-03-0.629E-04
CGA:  11    -0.376694367692E+03   -0.28674E-04   -0.32161E-04 10080   0.223E-04 0.265E-04
CGA:  12    -0.376694375091E+03   -0.73987E-05   -0.73635E-05 10080   0.864E-05 0.263E-05
  28 F= -.37669438E+03 E0= -.37669438E+03  d E =-.170383E-02  mag=    12.0000
       N       E                     dE             d eps       ncg     rms          ort
SDA:   1    -0.376686341096E+03    0.80266E-02    0.00000E+00 10080   0.190E-01 0.000E+00
CGA:   2    -0.376692946722E+03   -0.66056E-02   -0.66004E-02 10080   0.547E-02 0.696E-04
CGA:   3    -0.376694098850E+03   -0.11521E-02   -0.11515E-02 10080   0.124E-02-0.110E-04
CGA:   4    -0.376694292524E+03   -0.19367E-03   -0.19373E-03 10080   0.314E-03-0.483E-07
CGA:   5    -0.376694350476E+03   -0.57952E-04   -0.58282E-04 10080   0.791E-04 0.379E-05
CGA:   6    -0.376694368427E+03   -0.17952E-04   -0.17754E-04 10080   0.293E-04-0.437E-05
CGA:   7    -0.376694374859E+03   -0.64316E-05   -0.64744E-05 10080   0.106E-04 0.138E-05
  29 F= -.37669437E+03 E0= -.37669437E+03  d E =0.232299E-06  mag=    12.0000
       N       E                     dE             d eps       ncg     rms          ort
SDA:   1    -0.370897431161E+03    0.57969E+01    0.00000E+00 10080   0.136E+02 0.000E+00
CGA:   2    -0.375651258234E+03   -0.47538E+01   -0.47554E+01 10080   0.405E+01-0.186E-01
CGA:   3    -0.376464219481E+03   -0.81296E+00   -0.81404E+00 10080   0.918E+00 0.935E-02
CGA:   4    -0.376615556035E+03   -0.15134E+00   -0.15081E+00 10080   0.228E+00-0.455E-02
CGA:   5    -0.376658686209E+03   -0.43130E-01   -0.43014E-01 10080   0.625E-01-0.164E-02
CGA:   6    -0.376671141686E+03   -0.12455E-01   -0.12529E-01 10080   0.190E-01 0.129E-02
CGA:   7    -0.376676561021E+03   -0.54193E-02   -0.54488E-02 10080   0.906E-02-0.112E-02
CGA:   8    -0.376679269854E+03   -0.27088E-02   -0.27941E-02 10080   0.562E-02-0.119E-02
CGA:   9    -0.376680560842E+03   -0.12910E-02   -0.12905E-02 10080   0.188E-02 0.113E-03
CGA:  10    -0.376681214179E+03   -0.65334E-03   -0.70508E-03 10080   0.109E-02-0.478E-03
CGA:  11    -0.376681459346E+03   -0.24517E-03   -0.25145E-03 10080   0.502E-03-0.143E-03
CGA:  12    -0.376681569845E+03   -0.11050E-03   -0.11147E-03 10080   0.219E-03 0.791E-04
CGA:  13    -0.376681646817E+03   -0.76972E-04   -0.76476E-04 10080   0.109E-03 0.140E-04
CGA:  14    -0.376681673200E+03   -0.26384E-04   -0.27456E-04 10080   0.434E-04 0.340E-04
CGA:  15    -0.376681676410E+03   -0.32103E-05   -0.74852E-05 10080   0.189E-04 0.314E-04
  30 F= -.37668168E+03 E0= -.37668168E+03  d E =0.126984E-01  mag=    12.0000
       N       E                     dE             d eps       ncg     rms          ort
SDA:   1    -0.376063151641E+03    0.61852E+00    0.00000E+00 10080   0.145E+01 0.000E+00
CGA:   2    -0.376554806217E+03   -0.49165E+00   -0.49168E+00 10080   0.536E+00-0.610E-03
CGA:   3    -0.376650472471E+03   -0.95666E-01   -0.95665E-01 10080   0.133E+00 0.879E-04
CGA:   4    -0.376673199461E+03   -0.22727E-01   -0.22691E-01 10080   0.311E-01-0.500E-03
CGA:   5    -0.376678837281E+03   -0.56378E-02   -0.56176E-02 10080   0.846E-02-0.304E-03
CGA:   6    -0.376680567568E+03   -0.17303E-02   -0.17307E-02 10080   0.246E-02 0.927E-05
CGA:   7    -0.376681197280E+03   -0.62971E-03   -0.63042E-03 10080   0.978E-03-0.633E-04
CGA:   8    -0.376681494340E+03   -0.29706E-03   -0.32128E-03 10080   0.684E-03-0.264E-03
CGA:   9    -0.376681629383E+03   -0.13504E-03   -0.13691E-03 10080   0.242E-03-0.767E-04
CGA:  10    -0.376681687094E+03   -0.57711E-04   -0.57819E-04 10080   0.858E-04-0.618E-05
CGA:  11    -0.376681686998E+03    0.95341E-07   -0.57248E-04 10080   0.307E-03-0.133E-03
CGA:  12    -0.376681725393E+03   -0.38395E-04   -0.46684E-04 10080   0.383E-04 0.683E-04
CGA:  13    -0.376681736002E+03   -0.10609E-04   -0.10871E-04 10080   0.123E-04 0.735E-05
CGA:  14    -0.376681650143E+03    0.85860E-04   -0.46233E-04 10080   0.413E-03-0.771E-04
CGA:  15    -0.376681703080E+03   -0.52937E-04   -0.75444E-04 10080   0.600E-04 0.746E-04
CGA:  16    -0.376681731131E+03   -0.28051E-04   -0.26387E-04 10080   0.217E-04-0.171E-04
CGA:  17    -0.376681734869E+03   -0.37381E-05   -0.37005E-05 10080   0.602E-05-0.165E-06
  31 F= -.37668173E+03 E0= -.37668173E+03  d E =-.584582E-04  mag=    12.0000
       N       E                     dE             d eps       ncg     rms          ort
SDA:   1    -0.375630691389E+03    0.10510E+01    0.00000E+00 10080   0.253E+01 0.000E+00
CGA:   2    -0.376471919543E+03   -0.84123E+00   -0.84122E+00 10080   0.907E+00-0.961E-03
CGA:   3    -0.376638749488E+03   -0.16683E+00   -0.16716E+00 10080   0.225E+00-0.115E-03
CGA:   4    -0.376675949907E+03   -0.37200E-01   -0.37195E-01 10080   0.512E-01 0.773E-04
CGA:   5    -0.376685399770E+03   -0.94499E-02   -0.94219E-02 10080   0.141E-01-0.123E-03
CGA:   6    -0.376688323478E+03   -0.29237E-02   -0.29084E-02 10080   0.420E-02-0.837E-04
CGA:   7    -0.376689397216E+03   -0.10737E-02   -0.10675E-02 10080   0.168E-02-0.472E-04
CGA:   8    -0.376689872592E+03   -0.47538E-03   -0.47165E-03 10080   0.801E-03-0.377E-04
CGA:   9    -0.376690127600E+03   -0.25501E-03   -0.25168E-03 10080   0.353E-03-0.585E-04
CGA:  10    -0.376690238447E+03   -0.11085E-03   -0.10893E-03 10080   0.147E-03-0.455E-04
CGA:  11    -0.376690278565E+03   -0.40117E-04   -0.39813E-04 10080   0.536E-04-0.489E-05
CGA:  12    -0.376690298455E+03   -0.19890E-04   -0.19922E-04 10080   0.282E-04-0.217E-05
CGA:  13    -0.376690306228E+03   -0.77731E-05   -0.82078E-05 10080   0.111E-04 0.644E-05
  32 F= -.37669031E+03 E0= -.37669031E+03  d E =-.857136E-02  mag=    12.0000
       N       E                     dE             d eps       ncg     rms          ort
SDA:   1    -0.376599712518E+03    0.90586E-01    0.00000E+00 10080   0.241E+00 0.000E+00
CGA:   2    -0.376666464986E+03   -0.66752E-01   -0.66762E-01 10080   0.969E-01-0.847E-06
CGA:   3    -0.376685766978E+03   -0.19302E-01   -0.19285E-01 10080   0.281E-01-0.121E-03
CGA:   4    -0.376690468735E+03   -0.47018E-02   -0.47184E-02 10080   0.663E-02 0.869E-04
CGA:   5    -0.376691638196E+03   -0.11695E-02   -0.11891E-02 10080   0.169E-02 0.121E-03
CGA:   6    -0.376692015777E+03   -0.37758E-03   -0.37495E-03 10080   0.567E-03-0.236E-04
CGA:   7    -0.376692171139E+03   -0.15536E-03   -0.15365E-03 10080   0.261E-03-0.339E-04
CGA:   8    -0.376692228114E+03   -0.56975E-04   -0.58498E-04 10080   0.946E-04 0.180E-04
CGA:   9    -0.376692258256E+03   -0.30142E-04   -0.30192E-04 10080   0.400E-04 0.242E-05
CGA:  10    -0.376692269880E+03   -0.11623E-04   -0.11708E-04 10080   0.160E-04 0.260E-05
CGA:  11    -0.376692273033E+03   -0.31532E-05   -0.37246E-05 10080   0.603E-05 0.583E-05
  33 F= -.37669227E+03 E0= -.37669227E+03  d E =-.196680E-02  mag=    12.0000
       N       E                     dE             d eps       ncg     rms          ort
SDA:   1    -0.376538703924E+03    0.15357E+00    0.00000E+00 10080   0.363E+00 0.000E+00
CGA:   2    -0.376661341828E+03   -0.12264E+00   -0.12264E+00 10080   0.127E+00 0.412E-04
CGA:   3    -0.376684823965E+03   -0.23482E-01   -0.23490E-01 10080   0.309E-01-0.182E-04
CGA:   4    -0.376689826069E+03   -0.50021E-02   -0.49805E-02 10080   0.718E-02-0.151E-03
CGA:   5    -0.376691160870E+03   -0.13348E-02   -0.13284E-02 10080   0.192E-02-0.569E-04
CGA:   6    -0.376691534999E+03   -0.37413E-03   -0.37829E-03 10080   0.536E-03 0.426E-04
CGA:   7    -0.376691676949E+03   -0.14195E-03   -0.14175E-03 10080   0.222E-03-0.620E-05
CGA:   8    -0.376691749084E+03   -0.72135E-04   -0.74050E-04 10080   0.150E-03-0.396E-04
CGA:   9    -0.376691782917E+03   -0.33832E-04   -0.33822E-04 10080   0.559E-04-0.579E-06
CGA:  10    -0.376691801450E+03   -0.18533E-04   -0.19095E-04 10080   0.286E-04-0.109E-04
CGA:  11    -0.376691809343E+03   -0.78934E-05   -0.10777E-04 10080   0.293E-04-0.166E-04
  34 F= -.37669181E+03 E0= -.37669181E+03  d E =0.463690E-03  mag=    12.0000
       N       E                     dE             d eps       ncg     rms          ort
SDA:   1    -0.376457861754E+03    0.23394E+00    0.00000E+00 10080   0.561E+00 0.000E+00
CGA:   2    -0.376641226299E+03   -0.18336E+00   -0.18334E+00 10080   0.197E+00 0.488E-03
CGA:   3    -0.376679350462E+03   -0.38124E-01   -0.38129E-01 10080   0.497E-01-0.608E-04
CGA:   4    -0.376687229557E+03   -0.78791E-02   -0.78426E-02 10080   0.114E-01-0.284E-03
CGA:   5    -0.376689391127E+03   -0.21616E-02   -0.21500E-02 10080   0.306E-02-0.123E-03
CGA:   6    -0.376690001260E+03   -0.61013E-03   -0.61079E-03 10080   0.943E-03 0.784E-05
CGA:   7    -0.376690262591E+03   -0.26133E-03   -0.26134E-03 10080   0.439E-03-0.627E-04
CGA:   8    -0.376690401132E+03   -0.13854E-03   -0.14856E-03 10080   0.343E-03-0.116E-03
CGA:   9    -0.376690477276E+03   -0.76144E-04   -0.77485E-04 10080   0.148E-03-0.506E-04
CGA:  10    -0.376690517537E+03   -0.40261E-04   -0.41697E-04 10080   0.671E-04-0.299E-04
CGA:  11    -0.376690535011E+03   -0.17474E-04   -0.18017E-04 10080   0.318E-04-0.104E-04
CGA:  12    -0.376690540335E+03   -0.53239E-05   -0.58769E-05 10080   0.130E-04 0.815E-05
  35 F= -.37669054E+03 E0= -.37669054E+03  d E =0.126901E-02  mag=    12.0000
       N       E                     dE             d eps       ncg     rms          ort
SDA:   1    -0.371016644608E+03    0.56739E+01    0.00000E+00 10080   0.132E+02 0.000E+00
CGA:   2    -0.374769632722E+03   -0.37530E+01   -0.37528E+01 10080   0.592E+01 0.180E-01
CGA:   3    -0.375875800211E+03   -0.11062E+01   -0.11049E+01 10080   0.167E+01-0.263E-02
CGA:   4    -0.376170706740E+03   -0.29491E+00   -0.29488E+00 10080   0.442E+00-0.370E-04
CGA:   5    -0.376247951264E+03   -0.77245E-01   -0.77428E-01 10080   0.109E+00 0.165E-02
CGA:   6    -0.376271256482E+03   -0.23305E-01   -0.23319E-01 10080   0.361E-01 0.242E-03
CGA:   7    -0.376280582306E+03   -0.93258E-02   -0.93257E-02 10080   0.150E-01-0.350E-04
CGA:   8    -0.376284258782E+03   -0.36765E-02   -0.36828E-02 10080   0.525E-02 0.401E-03
CGA:   9    -0.376285799200E+03   -0.15404E-02   -0.15391E-02 10080   0.176E-02 0.570E-04
CGA:  10    -0.376286283214E+03   -0.48401E-03   -0.48328E-03 10080   0.550E-03 0.889E-04
CGA:  11    -0.376286430172E+03   -0.14696E-03   -0.14761E-03 10080   0.163E-03 0.883E-04
CGA:  12    -0.376286492092E+03   -0.61920E-04   -0.61602E-04 10080   0.781E-04 0.489E-05
CGA:  13    -0.376286510128E+03   -0.18036E-04   -0.18933E-04 10080   0.340E-04 0.293E-04
CGA:  14    -0.376286518832E+03   -0.87046E-05   -0.97910E-05 10080   0.178E-04 0.198E-04
  36 F= -.37628652E+03 E0= -.37628652E+03  d E =0.404022E+00  mag=    12.0000
       N       E                     dE             d eps       ncg     rms          ort
SDA:   1    -0.374768398634E+03    0.15181E+01    0.00000E+00 10080   0.454E+01 0.000E+00
CGA:   2    -0.376172617515E+03   -0.14042E+01   -0.14040E+01 10080   0.192E+01-0.790E-03
CGA:   3    -0.376517487016E+03   -0.34487E+00   -0.34544E+00 10080   0.498E+00 0.313E-02
CGA:   4    -0.376618896401E+03   -0.10141E+00   -0.10136E+00 10080   0.131E+00-0.940E-03
CGA:   5    -0.376639905577E+03   -0.21009E-01   -0.20981E-01 10080   0.338E-01-0.227E-03
CGA:   6    -0.376647633014E+03   -0.77274E-02   -0.77415E-02 10080   0.115E-01 0.462E-03
CGA:   7    -0.376650704728E+03   -0.30717E-02   -0.30719E-02 10080   0.508E-02-0.410E-04
CGA:   8    -0.376652045748E+03   -0.13410E-02   -0.13425E-02 10080   0.196E-02-0.225E-03
CGA:   9    -0.376652541169E+03   -0.49542E-03   -0.49517E-03 10080   0.545E-03 0.496E-04
CGA:  10    -0.376652700888E+03   -0.15972E-03   -0.16028E-03 10080   0.184E-03-0.203E-04
CGA:  11    -0.376652757654E+03   -0.56765E-04   -0.60487E-04 10080   0.753E-04-0.460E-04
CGA:  12    -0.376652768892E+03   -0.11239E-04   -0.11884E-04 10080   0.228E-04 0.119E-04
CGA:  13    -0.376652775292E+03   -0.63996E-05   -0.64411E-05 10080   0.104E-04 0.232E-05
CGA:  14    -0.376652781498E+03   -0.62065E-05    0.39624E-04 10080   0.518E-05 0.185E-05
  37 F= -.37665278E+03 E0= -.37665278E+03  d E =-.366263E+00  mag=    12.0000
       N       E                     dE             d eps       ncg     rms          ort
SDA:   1    -0.376219889371E+03    0.43289E+00    0.00000E+00 10080   0.114E+01 0.000E+00
CGA:   2    -0.376557253288E+03   -0.33736E+00   -0.33738E+00 10080   0.486E+00-0.142E-02
CGA:   3    -0.376646514662E+03   -0.89261E-01   -0.89353E-01 10080   0.138E+00 0.505E-03
CGA:   4    -0.376671915201E+03   -0.25401E-01   -0.25388E-01 10080   0.369E-01-0.131E-03
CGA:   5    -0.376678386416E+03   -0.64712E-02   -0.64494E-02 10080   0.914E-02-0.218E-03
CGA:   6    -0.376680342271E+03   -0.19559E-02   -0.19607E-02 10080   0.308E-02 0.880E-04
CGA:   7    -0.376681132880E+03   -0.79061E-03   -0.79146E-03 10080   0.125E-02 0.640E-04
CGA:   8    -0.376681486882E+03   -0.35400E-03   -0.35530E-03 10080   0.551E-03-0.113E-03
CGA:   9    -0.376681618441E+03   -0.13156E-03   -0.13159E-03 10080   0.152E-03 0.592E-05
CGA:  10    -0.376681654514E+03   -0.36073E-04   -0.36729E-04 10080   0.426E-04 0.227E-04
CGA:  11    -0.376681666181E+03   -0.11667E-04   -0.29627E-04 10080   0.992E-04-0.529E-04
CGA:  12    -0.376681676268E+03   -0.10086E-04   -0.14045E-04 10080   0.143E-04 0.280E-04
CGA:  13    -0.376681679127E+03   -0.28599E-05   -0.32883E-05 10080   0.446E-05 0.446E-05
  38 F= -.37668168E+03 E0= -.37668168E+03  d E =-.288976E-01  mag=    12.0000
       N       E                     dE             d eps       ncg     rms          ort
SDA:   1    -0.376651328223E+03    0.30348E-01    0.00000E+00 10080   0.100E+00 0.000E+00
CGA:   2    -0.376678579470E+03   -0.27251E-01   -0.27251E-01 10080   0.477E-01 0.109E-03
CGA:   3    -0.376687369006E+03   -0.87895E-02   -0.88159E-02 10080   0.128E-01 0.282E-03
CGA:   4    -0.376689615940E+03   -0.22469E-02   -0.22495E-02 10080   0.338E-02 0.264E-04
CGA:   5    -0.376690251729E+03   -0.63579E-03   -0.62937E-03 10080   0.892E-03-0.845E-04
CGA:   6    -0.376690425797E+03   -0.17407E-03   -0.17431E-03 10080   0.256E-03 0.388E-05
CGA:   7    -0.376690480382E+03   -0.54585E-04   -0.55961E-04 10080   0.852E-04 0.367E-04
CGA:   8    -0.376690504518E+03   -0.24135E-04   -0.24186E-04 10080   0.316E-04 0.940E-05
CGA:   9    -0.376690514740E+03   -0.10222E-04   -0.10168E-04 10080   0.126E-04 0.145E-05
CGA:  10    -0.376690518731E+03   -0.39913E-05   -0.40399E-05 10080   0.490E-05-0.949E-06
CGA:  11    -0.376690493915E+03    0.24816E-04   -0.13364E-04 10080   0.137E-03-0.237E-04
CGA:  12    -0.376690514330E+03   -0.20415E-04   -0.23656E-04 10080   0.151E-04 0.109E-04
CGA:  13    -0.376690521005E+03   -0.66747E-05   -0.65174E-05 10080   0.668E-05-0.289E-05
  39 F= -.37669052E+03 E0= -.37669052E+03  d E =-.884188E-02  mag=    12.0000
       N       E                     dE             d eps       ncg     rms          ort
SDA:   1    -0.376630674329E+03    0.59840E-01    0.00000E+00 10080   0.168E+00 0.000E+00
CGA:   2    -0.376674925855E+03   -0.44252E-01   -0.44315E-01 10080   0.805E-01 0.279E-03
CGA:   3    -0.376690029119E+03   -0.15103E-01   -0.15157E-01 10080   0.219E-01 0.199E-03
CGA:   4    -0.376693847422E+03   -0.38183E-02   -0.38298E-02 10080   0.567E-02 0.433E-04
CGA:   5    -0.376694888397E+03   -0.10410E-02   -0.10326E-02 10080   0.144E-02-0.378E-04
CGA:   6    -0.376695184408E+03   -0.29601E-03   -0.29505E-03 10080   0.421E-03-0.549E-05
CGA:   7    -0.376695275594E+03   -0.91186E-04   -0.96479E-04 10080   0.149E-03 0.338E-04
CGA:   8    -0.376695310919E+03   -0.35325E-04   -0.37970E-04 10080   0.489E-04 0.184E-04
CGA:   9    -0.376695327042E+03   -0.16124E-04   -0.16261E-04 10080   0.194E-04 0.182E-05
CGA:  10    -0.376695332217E+03   -0.51750E-05   -0.53409E-05 10080   0.618E-05 0.162E-05
  40 F= -.37669533E+03 E0= -.37669533E+03  d E =-.481121E-02  mag=    12.0000
       N       E                     dE             d eps       ncg     rms          ort
SDA:   1    -0.376690648209E+03    0.46788E-02    0.00000E+00 10080   0.152E-01 0.000E+00
CGA:   2    -0.376694150615E+03   -0.35024E-02   -0.35216E-02 10080   0.697E-02 0.139E-03
CGA:   3    -0.376695547848E+03   -0.13972E-02   -0.14130E-02 10080   0.224E-02 0.980E-04
CGA:   4    -0.376695920019E+03   -0.37217E-03   -0.37902E-03 10080   0.514E-03 0.373E-04
CGA:   5    -0.376696018210E+03   -0.98191E-04   -0.97936E-04 10080   0.131E-03-0.172E-05
CGA:   6    -0.376696046723E+03   -0.28513E-04   -0.27917E-04 10080   0.398E-04-0.508E-05
CGA:   7    -0.376696052783E+03   -0.60594E-05   -0.71485E-05 10080   0.111E-04 0.783E-05
  41 F= -.37669605E+03 E0= -.37669605E+03  d E =-.720565E-03  mag=    12.0000
       N       E                     dE             d eps       ncg     rms          ort
SDA:   1    -0.376682635135E+03    0.13412E-01    0.00000E+00 10080   0.381E-01 0.000E+00
CGA:   2    -0.376691930061E+03   -0.92949E-02   -0.93142E-02 10080   0.178E-01 0.268E-03
CGA:   3    -0.376695404681E+03   -0.34746E-02   -0.34910E-02 10080   0.553E-02 0.135E-03
CGA:   4    -0.376696312993E+03   -0.90831E-03   -0.91683E-03 10080   0.130E-02 0.604E-04
CGA:   5    -0.376696548203E+03   -0.23521E-03   -0.23686E-03 10080   0.330E-03 0.142E-04
CGA:   6    -0.376696618915E+03   -0.70712E-04   -0.70061E-04 10080   0.101E-03-0.821E-05
CGA:   7    -0.376696639064E+03   -0.20149E-04   -0.20916E-04 10080   0.310E-04 0.105E-04
CGA:   8    -0.376696645904E+03   -0.68393E-05   -0.73414E-05 10080   0.985E-05 0.736E-05
  42 F= -.37669665E+03 E0= -.37669665E+03  d E =-.593121E-03  mag=    12.0000
       N       E                     dE             d eps       ncg     rms          ort
SDA:   1    -0.376694508005E+03    0.21311E-02    0.00000E+00 10080   0.606E-02 0.000E+00
CGA:   2    -0.376696091745E+03   -0.15837E-02   -0.15825E-02 10080   0.291E-02-0.523E-04
CGA:   3    -0.376696635120E+03   -0.54338E-03   -0.54534E-03 10080   0.849E-03 0.192E-04
CGA:   4    -0.376696778295E+03   -0.14318E-03   -0.14413E-03 10080   0.167E-03 0.833E-05
CGA:   5    -0.376696810720E+03   -0.32425E-04   -0.32635E-04 10080   0.440E-04 0.259E-05
CGA:   6    -0.376696819146E+03   -0.84262E-05   -0.87100E-05 10080   0.127E-04 0.376E-05
  43 F= -.37669682E+03 E0= -.37669682E+03  d E =-.173242E-03  mag=    12.0000
       N       E                     dE             d eps       ncg     rms          ort
SDA:   1    -0.376676542837E+03    0.20268E-01    0.00000E+00 10080   0.504E-01 0.000E+00
CGA:   2    -0.376692529791E+03   -0.15987E-01   -0.15993E-01 10080   0.175E-01-0.145E-03
CGA:   3    -0.376695963238E+03   -0.34334E-02   -0.34366E-02 10080   0.489E-02 0.357E-04
CGA:   4    -0.376696740563E+03   -0.77733E-03   -0.77896E-03 10080   0.111E-02 0.140E-04
CGA:   5    -0.376696931716E+03   -0.19115E-03   -0.19350E-03 10080   0.283E-03 0.268E-04
CGA:   6    -0.376696989734E+03   -0.58018E-04   -0.58689E-04 10080   0.848E-04 0.125E-04
CGA:   7    -0.376697012858E+03   -0.23124E-04   -0.23114E-04 10080   0.368E-04 0.128E-05
CGA:   8    -0.376697023392E+03   -0.10534E-04   -0.10500E-04 10080   0.179E-04 0.129E-05
CGA:   9    -0.376697029399E+03   -0.60066E-05   -0.60581E-05 10080   0.851E-05-0.714E-06
  44 F= -.37669703E+03 E0= -.37669703E+03  d E =-.210253E-03  mag=    12.0000
       N       E                     dE             d eps       ncg     rms          ort
SDA:   1    -0.376662804822E+03    0.34219E-01    0.00000E+00 10080   0.773E-01 0.000E+00
CGA:   2    -0.376689902979E+03   -0.27098E-01   -0.27116E-01 10080   0.261E-01-0.195E-03
CGA:   3    -0.376694549081E+03   -0.46461E-02   -0.46621E-02 10080   0.641E-02 0.184E-03
CGA:   4    -0.376695617524E+03   -0.10684E-02   -0.10786E-02 10080   0.146E-02 0.112E-03
CGA:   5    -0.376695885039E+03   -0.26752E-03   -0.26860E-03 10080   0.406E-03 0.148E-04
CGA:   6    -0.376695972791E+03   -0.87752E-04   -0.87413E-04 10080   0.126E-03-0.945E-05
CGA:   7    -0.376695995636E+03   -0.22845E-04   -0.24193E-04 10080   0.380E-04 0.265E-04
CGA:   8    -0.376696001912E+03   -0.62761E-05   -0.77641E-05 10080   0.159E-04 0.196E-04
  45 F= -.37669600E+03 E0= -.37669600E+03  d E =0.102749E-02  mag=    12.0000
       N       E                     dE             d eps       ncg     rms          ort
SDA:   1    -0.376681373928E+03    0.14622E-01    0.00000E+00 10080   0.334E-01 0.000E+00
CGA:   2    -0.376693272865E+03   -0.11899E-01   -0.11944E-01 10080   0.116E-01-0.404E-03
CGA:   3    -0.376695267392E+03   -0.19945E-02   -0.19988E-02 10080   0.271E-02 0.527E-04
CGA:   4    -0.376695746499E+03   -0.47911E-03   -0.47671E-03 10080   0.675E-03-0.340E-04
CGA:   5    -0.376695860511E+03   -0.11401E-03   -0.11344E-03 10080   0.189E-03-0.795E-05
CGA:   6    -0.376695894380E+03   -0.33869E-04   -0.34935E-04 10080   0.448E-04 0.206E-04
CGA:   7    -0.376695906135E+03   -0.11755E-04   -0.11754E-04 10080   0.193E-04 0.429E-05
CGA:   8    -0.376695911249E+03   -0.51141E-05   -0.51029E-05 10080   0.833E-05 0.221E-05
  46 F= -.37669591E+03 E0= -.37669591E+03  d E =0.906632E-04  mag=    12.0000
       N       E                     dE             d eps       ncg     rms          ort
SDA:   1    -0.376679137311E+03    0.16769E-01    0.00000E+00 10080   0.373E-01 0.000E+00
CGA:   2    -0.376692724675E+03   -0.13587E-01   -0.13635E-01 10080   0.116E-01-0.354E-03
CGA:   3    -0.376694776194E+03   -0.20515E-02   -0.20543E-02 10080   0.282E-02 0.425E-04
CGA:   4    -0.376695243700E+03   -0.46751E-03   -0.46615E-03 10080   0.659E-03-0.196E-04
CGA:   5    -0.376695361911E+03   -0.11821E-03   -0.11868E-03 10080   0.176E-03 0.919E-05
CGA:   6    -0.376695392038E+03   -0.30127E-04   -0.31557E-04 10080   0.418E-04 0.273E-04
CGA:   7    -0.376695402621E+03   -0.10583E-04   -0.10630E-04 10080   0.164E-04 0.752E-05
CGA:   8    -0.376695406422E+03   -0.38016E-05   -0.39369E-05 10080   0.696E-05 0.584E-05
  47 F= -.37669541E+03 E0= -.37669541E+03  d E =0.504827E-03  mag=    12.0000
       N       E                     dE             d eps       ncg     rms          ort
SDA:   1    -0.376603246452E+03    0.92156E-01    0.00000E+00 10080   0.207E+00 0.000E+00
CGA:   2    -0.376681213280E+03   -0.77967E-01   -0.78096E-01 10080   0.526E-01-0.825E-03
CGA:   3    -0.376691486700E+03   -0.10273E-01   -0.10284E-01 10080   0.120E-01 0.324E-03
CGA:   4    -0.376693459033E+03   -0.19723E-02   -0.19649E-02 10080   0.306E-02-0.119E-03
CGA:   5    -0.376694030845E+03   -0.57181E-03   -0.57210E-03 10080   0.785E-03 0.816E-05
CGA:   6    -0.376694164057E+03   -0.13321E-03   -0.13800E-03 10080   0.191E-03 0.105E-03
CGA:   7    -0.376694215077E+03   -0.51020E-04   -0.50651E-04 10080   0.748E-04 0.235E-04
CGA:   8    -0.376694236939E+03   -0.21862E-04   -0.21415E-04 10080   0.360E-04 0.126E-04
CGA:   9    -0.376694240145E+03   -0.32063E-05   -0.54797E-05 10080   0.171E-04 0.250E-04
  48 F= -.37669424E+03 E0= -.37669424E+03  d E =0.116628E-02  mag=    12.0000
       N       E                     dE             d eps       ncg     rms          ort
SDA:   1    -0.375509403959E+03    0.11848E+01    0.00000E+00 10080   0.274E+01 0.000E+00
CGA:   2    -0.376488400902E+03   -0.97900E+00   -0.97985E+00 10080   0.803E+00-0.616E-02
CGA:   3    -0.376645438794E+03   -0.15704E+00   -0.15711E+00 10080   0.179E+00 0.256E-02
CGA:   4    -0.376675012894E+03   -0.29574E-01   -0.29501E-01 10080   0.435E-01-0.132E-02
CGA:   5    -0.376683235892E+03   -0.82230E-02   -0.82158E-02 10080   0.118E-01-0.289E-03
CGA:   6    -0.376685446074E+03   -0.22102E-02   -0.22251E-02 10080   0.321E-02 0.597E-03
CGA:   7    -0.376686363521E+03   -0.91745E-03   -0.92394E-03 10080   0.144E-02-0.107E-03
CGA:   8    -0.376686785343E+03   -0.42182E-03   -0.43289E-03 10080   0.863E-03-0.117E-03
CGA:   9    -0.376686956853E+03   -0.17151E-03   -0.17218E-03 10080   0.276E-03 0.184E-03
CGA:  10    -0.376687040520E+03   -0.83667E-04   -0.82527E-04 10080   0.123E-03 0.449E-04
CGA:  11    -0.376687084450E+03   -0.43930E-04   -0.70638E-04 10080   0.184E-03-0.981E-04
CGA:  12    -0.376687097443E+03   -0.12994E-04   -0.22245E-04 10080   0.453E-04 0.807E-04
CGA:  13    -0.376687100785E+03   -0.33410E-05   -0.71312E-05 10080   0.196E-04 0.315E-04
CGA:  14    -0.376687111136E+03   -0.10351E-04    0.12051E-04 10080   0.908E-05 0.110E-04
CGA:  15    -0.376687110668E+03    0.46799E-06   -0.71893E-06 10080   0.798E-05 0.820E-05
  49 F= -.37668711E+03 E0= -.37668711E+03  d E =0.712948E-02  mag=    12.0000
       N       E                     dE             d eps       ncg     rms          ort
SDA:   1    -0.376052817899E+03    0.63429E+00    0.00000E+00 10080   0.149E+01 0.000E+00
CGA:   2    -0.376568041752E+03   -0.51522E+00   -0.51555E+00 10080   0.505E+00-0.261E-02
CGA:   3    -0.376660869725E+03   -0.92828E-01   -0.92871E-01 10080   0.120E+00 0.983E-03
CGA:   4    -0.376681477865E+03   -0.20608E-01   -0.20588E-01 10080   0.285E-01-0.456E-03
CGA:   5    -0.376686650464E+03   -0.51726E-02   -0.51648E-02 10080   0.820E-02-0.241E-03
CGA:   6    -0.376688322452E+03   -0.16720E-02   -0.16720E-02 10080   0.237E-02 0.225E-05
CGA:   7    -0.376688979716E+03   -0.65726E-03   -0.67254E-03 10080   0.115E-02-0.214E-03
CGA:   8    -0.376689288714E+03   -0.30900E-03   -0.33885E-03 10080   0.754E-03-0.278E-03
CGA:   9    -0.376689438137E+03   -0.14942E-03   -0.15068E-03 10080   0.244E-03-0.296E-04
CGA:  10    -0.376689500099E+03   -0.61962E-04   -0.61726E-04 10080   0.918E-04 0.585E-05
CGA:  11    -0.376689528345E+03   -0.28246E-04   -0.43508E-04 10080   0.115E-03-0.643E-04
CGA:  12    -0.376689543354E+03   -0.15008E-04   -0.17565E-04 10080   0.191E-04 0.304E-04
CGA:  13    -0.376689549490E+03   -0.61367E-05   -0.60674E-05 10080   0.946E-05 0.372E-05
CGA:  14    -0.376689514977E+03    0.34513E-04   -0.18815E-04 10080   0.190E-03-0.414E-04
CGA:  15    -0.376689538186E+03   -0.23209E-04   -0.33217E-04 10080   0.301E-04 0.397E-04
CGA:  16    -0.376689551223E+03   -0.13037E-04   -0.12580E-04 10080   0.104E-04-0.671E-05
CGA:  17    -0.376689554197E+03   -0.29736E-05   -0.28273E-05 10080   0.433E-05-0.243E-05
  50 F= -.37668955E+03 E0= -.37668955E+03  d E =-.244353E-02  mag=    12.0000
       N       E                     dE             d eps       ncg     rms          ort
SDA:   1    -0.376395655472E+03    0.29390E+00    0.00000E+00 10080   0.741E+00 0.000E+00
CGA:   2    -0.376629012561E+03   -0.23336E+00   -0.23340E+00 10080   0.255E+00 0.212E-03
CGA:   3    -0.376680893282E+03   -0.51881E-01   -0.51978E-01 10080   0.657E-01 0.376E-03
CGA:   4    -0.376691391792E+03   -0.10499E-01   -0.10501E-01 10080   0.149E-01 0.330E-05
CGA:   5    -0.376694228875E+03   -0.28371E-02   -0.28153E-02 10080   0.412E-02-0.122E-03
CGA:   6    -0.376695095676E+03   -0.86680E-03   -0.85904E-03 10080   0.139E-02-0.520E-04
CGA:   7    -0.376695463832E+03   -0.36816E-03   -0.36700E-03 10080   0.597E-03-0.133E-04
CGA:   8    -0.376695655722E+03   -0.19189E-03   -0.19015E-03 10080   0.371E-03-0.604E-04
CGA:   9    -0.376695774722E+03   -0.11900E-03   -0.11986E-03 10080   0.206E-03-0.858E-04
CGA:  10    -0.376695829159E+03   -0.54438E-04   -0.54011E-04 10080   0.901E-04-0.467E-04
CGA:  11    -0.376695854208E+03   -0.25049E-04   -0.25318E-04 10080   0.432E-04-0.191E-04
CGA:  12    -0.376695865336E+03   -0.11128E-04   -0.11149E-04 10080   0.177E-04 0.952E-06
CGA:  13    -0.376695870584E+03   -0.52478E-05   -0.54024E-05 10080   0.656E-05 0.306E-05
  51 F= -.37669587E+03 E0= -.37669587E+03  d E =-.631639E-02  mag=    12.0000
       N       E                     dE             d eps       ncg     rms          ort
SDA:   1    -0.376672670200E+03    0.23195E-01    0.00000E+00 10080   0.623E-01 0.000E+00
CGA:   2    -0.376690776105E+03   -0.18106E-01   -0.18121E-01 10080   0.198E-01 0.275E-03
CGA:   3    -0.376695354542E+03   -0.45784E-02   -0.45621E-02 10080   0.536E-02-0.159E-03
CGA:   4    -0.376696151128E+03   -0.79659E-03   -0.81592E-03 10080   0.120E-02 0.107E-03
CGA:   5    -0.376696369154E+03   -0.21803E-03   -0.22484E-03 10080   0.313E-03 0.488E-04
CGA:   6    -0.376696454014E+03   -0.84860E-04   -0.82450E-04 10080   0.164E-03-0.388E-04
CGA:   7    -0.376696482523E+03   -0.28509E-04   -0.30642E-04 10080   0.617E-04 0.216E-04
CGA:   8    -0.376696495772E+03   -0.13249E-04   -0.15023E-04 10080   0.305E-04 0.193E-04
CGA:   9    -0.376696511353E+03   -0.15581E-04   -0.18625E-04 10080   0.475E-04-0.188E-04
CGA:  10    -0.376696515900E+03   -0.45466E-05   -0.66648E-05 10080   0.748E-05 0.124E-04
  52 F= -.37669652E+03 E0= -.37669652E+03  d E =-.645316E-03  mag=    12.0000
       N       E                     dE             d eps       ncg     rms          ort
SDA:   1    -0.376630314377E+03    0.66197E-01    0.00000E+00 10080   0.173E+00 0.000E+00
CGA:   2    -0.376682451759E+03   -0.52137E-01   -0.52137E-01 10080   0.557E-01 0.170E-03
CGA:   3    -0.376695109708E+03   -0.12658E-01   -0.12646E-01 10080   0.134E-01-0.180E-03
CGA:   4    -0.376697193815E+03   -0.20841E-02   -0.20869E-02 10080   0.326E-02 0.141E-04
CGA:   5    -0.376697791610E+03   -0.59779E-03   -0.60117E-03 10080   0.860E-03 0.317E-04
CGA:   6    -0.376697985147E+03   -0.19354E-03   -0.19289E-03 10080   0.346E-03-0.110E-04
CGA:   7    -0.376698081607E+03   -0.96459E-04   -0.96489E-04 10080   0.174E-03-0.105E-04
CGA:   8    -0.376698133553E+03   -0.51946E-04   -0.51746E-04 10080   0.957E-04 0.729E-05
CGA:   9    -0.376698164591E+03   -0.31038E-04   -0.31022E-04 10080   0.413E-04 0.481E-06
CGA:  10    -0.376698175863E+03   -0.11273E-04   -0.11316E-04 10080   0.133E-04 0.441E-05
CGA:  11    -0.376698180136E+03   -0.42725E-05   -0.42601E-05 10080   0.501E-05 0.170E-05
  53 F= -.37669818E+03 E0= -.37669818E+03  d E =-.166424E-02  mag=    12.0000
       N       E                     dE             d eps       ncg     rms          ort
SDA:   1    -0.376355771562E+03    0.34240E+00    0.00000E+00 10080   0.872E+00 0.000E+00
CGA:   2    -0.376619639470E+03   -0.26387E+00   -0.26387E+00 10080   0.295E+00 0.288E-03
CGA:   3    -0.376682711927E+03   -0.63072E-01   -0.63032E-01 10080   0.759E-01-0.559E-03
CGA:   4    -0.376694647391E+03   -0.11935E-01   -0.11881E-01 10080   0.171E-01-0.382E-03
CGA:   5    -0.376697871283E+03   -0.32239E-02   -0.32142E-02 10080   0.467E-02-0.937E-04
CGA:   6    -0.376698816549E+03   -0.94527E-03   -0.95281E-03 10080   0.156E-02 0.851E-04
CGA:   7    -0.376699279770E+03   -0.46322E-03   -0.46359E-03 10080   0.828E-03-0.112E-03
CGA:   8    -0.376699536079E+03   -0.25631E-03   -0.26245E-03 10080   0.565E-03-0.115E-03
CGA:   9    -0.376699665340E+03   -0.12926E-03   -0.12988E-03 10080   0.199E-03 0.257E-04
CGA:  10    -0.376699733556E+03   -0.68216E-04   -0.69379E-04 10080   0.987E-04-0.270E-04
CGA:  11    -0.376699760197E+03   -0.26641E-04   -0.26916E-04 10080   0.446E-04-0.117E-04
CGA:  12    -0.376699766693E+03   -0.64959E-05   -0.77906E-05 10080   0.180E-04 0.137E-04
  54 F= -.37669977E+03 E0= -.37669977E+03  d E =-.158656E-02  mag=    12.0000
       N       E                     dE             d eps       ncg     rms          ort
SDA:   1    -0.376634013258E+03    0.65747E-01    0.00000E+00 10080   0.171E+00 0.000E+00
CGA:   2    -0.376684467736E+03   -0.50454E-01   -0.50452E-01 10080   0.570E-01 0.149E-03
CGA:   3    -0.376696627346E+03   -0.12160E-01   -0.12158E-01 10080   0.160E-01-0.369E-04
CGA:   4    -0.376699236340E+03   -0.26090E-02   -0.26160E-02 10080   0.358E-02 0.537E-04
CGA:   5    -0.376699908453E+03   -0.67211E-03   -0.67330E-03 10080   0.999E-03 0.126E-04
CGA:   6    -0.376700139727E+03   -0.23127E-03   -0.22903E-03 10080   0.388E-03-0.540E-04
CGA:   7    -0.376700239742E+03   -0.10001E-03   -0.10001E-03 10080   0.163E-03 0.631E-06
CGA:   8    -0.376700288480E+03   -0.48739E-04   -0.48739E-04 10080   0.876E-04-0.652E-07
CGA:   9    -0.376700319163E+03   -0.30683E-04   -0.42251E-04 10080   0.112E-03-0.544E-04
CGA:  10    -0.376700333491E+03   -0.14328E-04   -0.16762E-04 10080   0.148E-04 0.186E-04
CGA:  11    -0.376700338714E+03   -0.52229E-05   -0.52229E-05 10080   0.632E-05-0.121E-07
CGA:  12    -0.376700309137E+03    0.29577E-04   -0.15977E-04 10080   0.179E-03-0.281E-04
CGA:  13    -0.376700333808E+03   -0.24671E-04   -0.30913E-04 10080   0.196E-04 0.189E-04
CGA:  14    -0.376700343940E+03   -0.10132E-04   -0.98943E-05 10080   0.139E-04-0.850E-05
CGA:  15    -0.376700344701E+03   -0.76097E-06   -0.12703E-05 10080   0.605E-05 0.158E-05
  55 F= -.37670034E+03 E0= -.37670034E+03  d E =-.578008E-03  mag=    12.0000
       N       E                     dE             d eps       ncg     rms          ort
SDA:   1    -0.376690991370E+03    0.93526E-02    0.00000E+00 10080   0.255E-01 0.000E+00
CGA:   2    -0.376697602844E+03   -0.66115E-02   -0.66180E-02 10080   0.124E-01 0.250E-04
CGA:   3    -0.376699933397E+03   -0.23306E-02   -0.23485E-02 10080   0.343E-02 0.667E-04
CGA:   4    -0.376700481045E+03   -0.54765E-03   -0.56885E-03 10080   0.824E-03 0.798E-04
CGA:   5    -0.376700616946E+03   -0.13590E-03   -0.14696E-03 10080   0.196E-03 0.457E-04
CGA:   6    -0.376700664826E+03   -0.47880E-04   -0.46368E-04 10080   0.675E-04-0.849E-05
CGA:   7    -0.376700681612E+03   -0.16786E-04   -0.16257E-04 10080   0.273E-04-0.371E-05
CGA:   8    -0.376700684403E+03   -0.27908E-05   -0.44358E-05 10080   0.770E-05 0.763E-05
  56 F= -.37670068E+03 E0= -.37670068E+03  d E =-.339703E-03  mag=    12.0000
       N       E                     dE             d eps       ncg     rms          ort
SDA:   1    -0.376696726050E+03    0.39556E-02    0.00000E+00 10080   0.110E-01 0.000E+00
CGA:   2    -0.376699982998E+03   -0.32569E-02   -0.32605E-02 10080   0.371E-02 0.442E-04
CGA:   3    -0.376700812409E+03   -0.82941E-03   -0.82119E-03 10080   0.103E-02-0.592E-04
CGA:   4    -0.376700974656E+03   -0.16225E-03   -0.15813E-03 10080   0.238E-03-0.210E-04
CGA:   5    -0.376701016366E+03   -0.41710E-04   -0.41489E-04 10080   0.657E-04-0.138E-05
CGA:   6    -0.376701027489E+03   -0.11124E-04   -0.12080E-04 10080   0.188E-04 0.626E-05
CGA:   7    -0.376701034245E+03   -0.67554E-05   -0.67493E-05 10080   0.130E-04-0.302E-05
  57 F= -.37670103E+03 E0= -.37670103E+03  d E =-.349842E-03  mag=    12.0000
       N       E                     dE             d eps       ncg     rms          ort
SDA:   1    -0.376687910019E+03    0.13117E-01    0.00000E+00 10080   0.321E-01 0.000E+00
CGA:   2    -0.376699358041E+03   -0.11448E-01   -0.11443E-01 10080   0.923E-02 0.194E-03
CGA:   3    -0.376701208978E+03   -0.18509E-02   -0.18430E-02 10080   0.226E-02-0.628E-04
CGA:   4    -0.376701556655E+03   -0.34768E-03   -0.34548E-03 10080   0.547E-03-0.135E-04
CGA:   5    -0.376701663145E+03   -0.10649E-03   -0.10521E-03 10080   0.146E-03-0.106E-04
CGA:   6    -0.376701694779E+03   -0.31634E-04   -0.30976E-04 10080   0.457E-04-0.707E-05
CGA:   7    -0.376701707157E+03   -0.12378E-04   -0.12208E-04 10080   0.232E-04-0.711E-05
CGA:   8    -0.376701713077E+03   -0.59199E-05   -0.10295E-04 10080   0.473E-04-0.198E-04
  58 F= -.37670171E+03 E0= -.37670171E+03  d E =-.678832E-03  mag=    12.0000
       N       E                     dE             d eps       ncg     rms          ort
SDA:   1    -0.376558231004E+03    0.14348E+00    0.00000E+00 10080   0.332E+00 0.000E+00
CGA:   2    -0.376682020646E+03   -0.12379E+00   -0.12381E+00 10080   0.852E-01-0.344E-03
CGA:   3    -0.376699407966E+03   -0.17387E-01   -0.17391E-01 10080   0.186E-01 0.232E-05
CGA:   4    -0.376702441272E+03   -0.30333E-02   -0.30057E-02 10080   0.492E-02-0.194E-03
CGA:   5    -0.376703354529E+03   -0.91326E-03   -0.90908E-03 10080   0.133E-02-0.384E-04
CGA:   6    -0.376703603761E+03   -0.24923E-03   -0.25273E-03 10080   0.360E-03 0.346E-04
CGA:   7    -0.376703720067E+03   -0.11631E-03   -0.12071E-03 10080   0.255E-03-0.109E-03
CGA:   8    -0.376703776433E+03   -0.56366E-04   -0.62366E-04 10080   0.186E-03-0.948E-04
CGA:   9    -0.376703803333E+03   -0.26900E-04   -0.26613E-04 10080   0.685E-04-0.449E-05
CGA:  10    -0.376703821064E+03   -0.17731E-04   -0.17544E-04 10080   0.347E-04-0.706E-05
CGA:  11    -0.376703831212E+03   -0.10148E-04   -0.12415E-04 10080   0.301E-04-0.204E-04
CGA:  12    -0.376703834153E+03   -0.29408E-05   -0.45937E-05 10080   0.728E-05 0.118E-04
  59 F= -.37670383E+03 E0= -.37670383E+03  d E =-.212108E-02  mag=    12.0000
       N       E                     dE             d eps       ncg     rms          ort
SDA:   1    -0.376504902343E+03    0.19893E+00    0.00000E+00 10080   0.460E+00 0.000E+00
CGA:   2    -0.376674577559E+03   -0.16968E+00   -0.16971E+00 10080   0.124E+00-0.428E-03
CGA:   3    -0.376699349803E+03   -0.24772E-01   -0.24763E-01 10080   0.282E-01-0.163E-03
CGA:   4    -0.376703920600E+03   -0.45708E-02   -0.45430E-02 10080   0.692E-02-0.233E-03
CGA:   5    -0.376705217409E+03   -0.12968E-02   -0.12944E-02 10080   0.191E-02-0.286E-04
CGA:   6    -0.376705578780E+03   -0.36137E-03   -0.36560E-03 10080   0.505E-03 0.536E-04
CGA:   7    -0.376705738543E+03   -0.15976E-03   -0.16694E-03 10080   0.338E-03-0.132E-03
CGA:   8    -0.376705813013E+03   -0.74470E-04   -0.78069E-04 10080   0.202E-03-0.837E-04
CGA:   9    -0.376705849229E+03   -0.36216E-04   -0.36320E-04 10080   0.685E-04 0.327E-05
CGA:  10    -0.376705871116E+03   -0.21887E-04   -0.23076E-04 10080   0.427E-04-0.194E-04
CGA:  11    -0.376705880181E+03   -0.90656E-05   -0.96033E-05 10080   0.233E-04-0.133E-04
  60 F= -.37670588E+03 E0= -.37670588E+03  d E =-.204603E-02  mag=    12.0000
       N       E                     dE             d eps       ncg     rms          ort
SDA:   1    -0.376625297721E+03    0.80573E-01    0.00000E+00 10080   0.189E+00 0.000E+00
CGA:   2    -0.376680613927E+03   -0.55316E-01   -0.55298E-01 10080   0.821E-01 0.812E-03
CGA:   3    -0.376696195785E+03   -0.15582E-01   -0.15623E-01 10080   0.220E-01 0.484E-03
CGA:   4    -0.376700077673E+03   -0.38819E-02   -0.39302E-02 10080   0.552E-02 0.518E-03
CGA:   5    -0.376701027341E+03   -0.94967E-03   -0.96009E-03 10080   0.145E-02 0.109E-03
CGA:   6    -0.376701384477E+03   -0.35714E-03   -0.35506E-03 10080   0.555E-03-0.102E-03
CGA:   7    -0.376701486674E+03   -0.10220E-03   -0.10668E-03 10080   0.180E-03 0.855E-04
CGA:   8    -0.376701515298E+03   -0.28624E-04   -0.35270E-04 10080   0.643E-04 0.768E-04
CGA:   9    -0.376701530710E+03   -0.15412E-04   -0.17369E-04 10080   0.294E-04 0.312E-04
CGA:  10    -0.376701540353E+03   -0.96426E-05   -0.99137E-05 10080   0.139E-04 0.122E-04
  61 F= -.37670154E+03 E0= -.37670154E+03  d E =0.433983E-02  mag=    12.0000
       N       E                     dE             d eps       ncg     rms          ort
SDA:   1    -0.376621143929E+03    0.80387E-01    0.00000E+00 10080   0.192E+00 0.000E+00
CGA:   2    -0.376689285510E+03   -0.68142E-01   -0.68323E-01 10080   0.642E-01-0.163E-02
CGA:   3    -0.376700805587E+03   -0.11520E-01   -0.11548E-01 10080   0.156E-01 0.385E-03
CGA:   4    -0.376703771937E+03   -0.29664E-02   -0.29473E-02 10080   0.367E-02-0.331E-03
CGA:   5    -0.376704410328E+03   -0.63839E-03   -0.63502E-03 10080   0.112E-02-0.516E-04
CGA:   6    -0.376704626925E+03   -0.21660E-03   -0.21916E-03 10080   0.291E-03 0.638E-04
CGA:   7    -0.376704723603E+03   -0.96677E-04   -0.10525E-03 10080   0.226E-03-0.819E-04
CGA:   8    -0.376704766181E+03   -0.42579E-04   -0.44180E-04 10080   0.112E-03-0.530E-04
CGA:   9    -0.376704785825E+03   -0.19644E-04   -0.19680E-04 10080   0.408E-04 0.253E-05
CGA:  10    -0.376704795800E+03   -0.99742E-05   -0.99673E-05 10080   0.170E-04-0.171E-05
  62 F= -.37670480E+03 E0= -.37670480E+03  d E =-.325545E-02  mag=    12.0000
       N       E                     dE             d eps       ncg     rms          ort
SDA:   1    -0.376699805485E+03    0.49803E-02    0.00000E+00 10080   0.117E-01 0.000E+00
CGA:   2    -0.376703691715E+03   -0.38862E-02   -0.39137E-02 10080   0.443E-02-0.309E-03
CGA:   3    -0.376704481417E+03   -0.78970E-03   -0.78768E-03 10080   0.128E-02-0.320E-04
CGA:   4    -0.376704715733E+03   -0.23432E-03   -0.23149E-03 10080   0.317E-03-0.443E-04
CGA:   5    -0.376704765431E+03   -0.49699E-04   -0.50103E-04 10080   0.799E-04 0.503E-05
CGA:   6    -0.376704780088E+03   -0.14657E-04   -0.15346E-04 10080   0.220E-04 0.137E-04
CGA:   7    -0.376704761203E+03    0.18886E-04   -0.23487E-04 10080   0.236E-03-0.628E-04
CGA:   8    -0.376704797902E+03   -0.36699E-04   -0.36871E-04 10080   0.276E-04 0.143E-05
CGA:   9    -0.376704802733E+03   -0.48316E-05   -0.52882E-05 10080   0.432E-05 0.610E-05
  63 F= -.37670480E+03 E0= -.37670480E+03  d E =-.693384E-05  mag=    12.0000
       N       E                     dE             d eps       ncg     rms          ort
SDA:   1    -0.376700420650E+03    0.43773E-02    0.00000E+00 10080   0.112E-01 0.000E+00
CGA:   2    -0.376703905533E+03   -0.34849E-02   -0.34866E-02 10080   0.437E-02-0.341E-04
CGA:   3    -0.376704686081E+03   -0.78055E-03   -0.79281E-03 10080   0.115E-02 0.159E-03
CGA:   4    -0.376704899575E+03   -0.21349E-03   -0.21832E-03 10080   0.270E-03 0.670E-04
CGA:   5    -0.376704953538E+03   -0.53964E-04   -0.53193E-04 10080   0.870E-04-0.119E-04
CGA:   6    -0.376704974978E+03   -0.21439E-04   -0.21640E-04 10080   0.397E-04-0.162E-04
CGA:   7    -0.376704978725E+03   -0.37470E-05   -0.48607E-05 10080   0.132E-04 0.114E-04
  64 F= -.37670498E+03 E0= -.37670498E+03  d E =-.175991E-03  mag=    12.0000
       N       E                     dE             d eps       ncg     rms          ort
SDA:   1    -0.376703335541E+03    0.16394E-02    0.00000E+00 10080   0.430E-02 0.000E+00
CGA:   2    -0.376704765960E+03   -0.14304E-02   -0.14277E-02 10080   0.154E-02 0.271E-04
CGA:   3    -0.376705039994E+03   -0.27403E-03   -0.27787E-03 10080   0.372E-03 0.613E-04
CGA:   4    -0.376705095524E+03   -0.55531E-04   -0.58111E-04 10080   0.856E-04 0.293E-04
CGA:   5    -0.376705113502E+03   -0.17978E-04   -0.17957E-04 10080   0.268E-04-0.560E-06
CGA:   6    -0.376705120845E+03   -0.73430E-05   -0.85124E-05 10080   0.234E-04-0.133E-04
  65 F= -.37670512E+03 E0= -.37670512E+03  d E =-.142121E-03  mag=    12.0000
