       N       E                     dE             d eps       ncg     rms          ort
DAV:   1     0.267018429734E+04    0.26702E+04   -0.13923E+05 10584   0.162E+03
DAV:   2     0.513203148086E+02   -0.26189E+04   -0.24080E+04 10584   0.416E+02
DAV:   3    -0.257438757098E+03   -0.30876E+03   -0.30381E+03 10584   0.162E+02
DAV:   4    -0.268535452912E+03   -0.11097E+02   -0.10860E+02 10584   0.307E+01
DAV:   5    -0.269029770858E+03   -0.49432E+00   -0.48973E+00 10584   0.501E+00
SDA:   6    -0.124620653781E+03    0.14441E+03   -0.48973E+00 10584   0.807E+03 0.000E+00
CGA:   7    -0.184004578252E+03   -0.59384E+02   -0.90738E+02 10584   0.410E+03 0.163E+02
CGA:   8    -0.209300546985E+03   -0.25296E+02   -0.10902E+02 10584   0.171E+03 0.175E+02
CGA:   9    -0.209403348467E+03   -0.10280E+00   -0.14426E+02 10584   0.806E+02-0.931E+01
CGA:  10    -0.215148781836E+03   -0.57454E+01   -0.18763E+01 10584   0.222E+03 0.242E+03
CGA:  11    -0.209872929487E+03    0.52759E+01   -0.15828E+02 10584   0.346E+03-0.509E+02
CGA:  12    -0.209669273130E+03    0.20366E+00   -0.12906E+02 10584   0.210E+03-0.230E+02
CGA:  13    -0.223694362704E+03   -0.14025E+02   -0.58509E+01 10584   0.536E+02-0.943E+02
CGA:  14    -0.224694062832E+03   -0.99970E+00   -0.77614E+00 10584   0.662E+02-0.435E+01
CGA:  15    -0.222163782140E+03    0.25303E+01   -0.35510E+01 10584   0.698E+02-0.996E+01
CGA:  16    -0.220395700761E+03    0.17681E+01   -0.36403E+01 10584   0.157E+03-0.249E+02
CGA:  17    -0.227031873584E+03   -0.66362E+01   -0.31787E+01 10584   0.271E+02 0.292E+02
CGA:  18    -0.227085195933E+03   -0.53322E-01   -0.16263E+01 10584   0.262E+02-0.147E+02
CGA:  19    -0.227881535451E+03   -0.79634E+00   -0.90004E+00 10584   0.104E+02-0.151E+02
CGA:  20    -0.228055376171E+03   -0.17384E+00   -0.38330E+00 10584   0.642E+01-0.518E+01
CGA:  21    -0.228399853981E+03   -0.34448E+00   -0.33693E+00 10584   0.197E+01-0.143E+00
CGA:  22    -0.228478690555E+03   -0.78837E-01   -0.89744E-01 10584   0.766E+00-0.192E+00
CGA:  23    -0.228522440182E+03   -0.43750E-01   -0.44645E-01 10584   0.698E+00-0.669E-02
CGA:  24    -0.228564574994E+03   -0.42135E-01   -0.41777E-01 10584   0.550E+00 0.268E-02
CGA:  25    -0.228611624993E+03   -0.47050E-01   -0.46223E-01 10584   0.200E+00-0.434E-02
CGA:  26    -0.228623557458E+03   -0.11932E-01   -0.11129E-01 10584   0.231E+00 0.745E-02
CGA:  27    -0.228638463814E+03   -0.14906E-01   -0.14063E-01 10584   0.172E+00 0.625E-02
CGA:  28    -0.228672791521E+03   -0.34328E-01   -0.33958E-01 10584   0.339E+00 0.340E-02
CGA:  29    -0.228682925955E+03   -0.10134E-01   -0.99541E-02 10584   0.111E+00 0.125E-02
CGA:  30    -0.228689866509E+03   -0.69406E-02   -0.65744E-02 10584   0.112E+00 0.235E-02
CGA:  31    -0.228703252625E+03   -0.13386E-01   -0.13009E-01 10584   0.197E+00 0.210E-01
CGA:  32    -0.228716726653E+03   -0.13474E-01   -0.10720E-01 10584   0.593E-01 0.325E-01
CGA:  33    -0.228721641961E+03   -0.49153E-02   -0.50419E-02 10584   0.132E+00 0.519E-03
CGA:  34    -0.228736154578E+03   -0.14513E-01   -0.14823E-01 10584   0.258E+00-0.130E-01
CGA:  35    -0.228741540609E+03   -0.53860E-02   -0.37520E-02 10584   0.969E-01 0.937E-01
CGA:  36    -0.228744344948E+03   -0.28043E-02   -0.28753E-02 10584   0.498E-01-0.297E-02
CGA:  37    -0.228747221879E+03   -0.28769E-02   -0.28352E-02 10584   0.145E+00 0.562E-04
CGA:  38    -0.228755199094E+03   -0.79772E-02   -0.82502E-02 10584   0.262E+00-0.253E-04
CGA:  39    -0.228760310713E+03   -0.51116E-02   -0.37644E-02 10584   0.140E+00 0.862E-01
CGA:  40    -0.228763512509E+03   -0.32018E-02   -0.28036E-02 10584   0.608E-01 0.236E-01
CGA:  41    -0.228765003204E+03   -0.14907E-02   -0.14513E-02 10584   0.544E-01 0.164E-02
CGA:  42    -0.228766411782E+03   -0.14086E-02   -0.14986E-02 10584   0.823E-01-0.245E-02
CGA:  43    -0.228769074261E+03   -0.26625E-02   -0.32444E-02 10584   0.179E+00-0.524E-02
CGA:  44    -0.228775792434E+03   -0.67182E-02   -0.45673E-02 10584   0.120E+00 0.736E-01
CGA:  45    -0.228779197904E+03   -0.34055E-02   -0.26054E-02 10584   0.475E-01 0.454E-01
CGA:  46    -0.228780809916E+03   -0.16120E-02   -0.14887E-02 10584   0.461E-01 0.426E-02
CGA:  47    -0.228782202745E+03   -0.13928E-02   -0.13788E-02 10584   0.818E-01 0.481E-03
CGA:  48    -0.228784561846E+03   -0.23591E-02   -0.25372E-02 10584   0.148E+00-0.187E-02
CGA:  49    -0.228788419424E+03   -0.38576E-02   -0.31784E-02 10584   0.143E+00 0.302E-01
SDA:  50    -0.228791632824E+03   -0.32134E-02   -0.25574E-02 10584   0.817E-01 0.400E-01
CGA:  51    -0.228795519363E+03   -0.38865E-02   -0.39077E-02 10584   0.378E-01 0.524E-03
CGA:  52    -0.228800682963E+03   -0.51636E-02   -0.58879E-02 10584   0.154E+00-0.883E-02
CGA:  53    -0.228808574560E+03   -0.78916E-02   -0.79719E-02 10584   0.238E+00-0.995E-02
CGA:  54    -0.228814658783E+03   -0.60842E-02   -0.69392E-02 10584   0.593E-01-0.130E-01
CGA:  55    -0.228817928635E+03   -0.32699E-02   -0.32771E-02 10584   0.103E+00 0.101E-02
CGA:  56    -0.228825020821E+03   -0.70922E-02   -0.72088E-02 10584   0.171E-01-0.959E-02
CGA:  57    -0.228826151936E+03   -0.11311E-02   -0.11391E-02 10584   0.287E-01-0.446E-03
CGA:  58    -0.228829104360E+03   -0.29524E-02   -0.28793E-02 10584   0.329E-01 0.165E-02
CGA:  59    -0.228830512863E+03   -0.14085E-02   -0.13551E-02 10584   0.824E-02 0.459E-03
CGA:  60    -0.228831707640E+03   -0.11948E-02   -0.11652E-02 10584   0.163E-01 0.364E-03
CGA:  61    -0.228832892384E+03   -0.11847E-02   -0.11888E-02 10584   0.820E-02-0.764E-03
CGA:  62    -0.228833678781E+03   -0.78640E-03   -0.75787E-03 10584   0.166E-01 0.746E-03
CGA:  63    -0.228834722360E+03   -0.10436E-02   -0.96110E-03 10584   0.125E-01-0.962E-03
CGA:  64    -0.228835241283E+03   -0.51892E-03   -0.54058E-03 10584   0.649E-02 0.863E-04
CGA:  65    -0.228835539912E+03   -0.29863E-03   -0.30867E-03 10584   0.708E-02 0.406E-04
CGA:  66    -0.228835976641E+03   -0.43673E-03   -0.43078E-03 10584   0.589E-02-0.467E-03
CGA:  67    -0.228836332063E+03   -0.35542E-03   -0.35514E-03 10584   0.682E-02-0.153E-03
CGA:  68    -0.228836611056E+03   -0.27899E-03   -0.29204E-03 10584   0.431E-02-0.114E-04
CGA:  69    -0.228836856257E+03   -0.24520E-03   -0.24314E-03 10584   0.312E-02-0.109E-03
CGA:  70    -0.228837068449E+03   -0.21219E-03   -0.21319E-03 10584   0.332E-02-0.106E-03
CGA:  71    -0.228837184242E+03   -0.11579E-03   -0.11771E-03 10584   0.177E-02-0.312E-04
CGA:  72    -0.228837384575E+03   -0.20033E-03   -0.20165E-03 10584   0.345E-02-0.271E-04
CGA:  73    -0.228837525221E+03   -0.14065E-03   -0.13696E-03 10584   0.240E-02 0.188E-04
CGA:  74    -0.228837645257E+03   -0.12004E-03   -0.12036E-03 10584   0.229E-02 0.779E-05
CGA:  75    -0.228837775267E+03   -0.13001E-03   -0.13027E-03 10584   0.175E-02 0.207E-04
CGA:  76    -0.228837830510E+03   -0.55243E-04   -0.54399E-04 10584   0.991E-03 0.254E-04
CGA:  77    -0.228837911843E+03   -0.81333E-04   -0.81386E-04 10584   0.164E-02 0.182E-05
CGA:  78    -0.228837968935E+03   -0.57092E-04   -0.58080E-04 10584   0.997E-03 0.711E-05
CGA:  79    -0.228838021751E+03   -0.52816E-04   -0.52851E-04 10584   0.100E-02 0.103E-04
CGA:  80    -0.228838070904E+03   -0.49153E-04   -0.49005E-04 10584   0.912E-03 0.688E-05
SDA:  81    -0.228838102558E+03   -0.31655E-04   -0.31795E-04 10584   0.511E-03 0.801E-05
CGA:  82    -0.228838128168E+03   -0.25610E-04   -0.25559E-04 10584   0.566E-03-0.340E-05
CGA:  83    -0.228838246022E+03   -0.11785E-03   -0.12146E-03 10584   0.118E-02-0.265E-04
CGA:  84    -0.228838332547E+03   -0.86524E-04   -0.87002E-04 10584   0.419E-03-0.324E-04
CGA:  85    -0.228838346617E+03   -0.14070E-04   -0.13969E-04 10584   0.341E-03-0.206E-05
CGA:  86    -0.228838402565E+03   -0.55948E-04   -0.57155E-04 10584   0.856E-04-0.131E-04
CGA:  87    -0.228838407932E+03   -0.53679E-05   -0.53653E-05 10584   0.116E-03-0.592E-06
   1 F= -.22883841E+03 E0= -.22883258E+03  d E =-.228838E+03  mag=    18.0000
       N       E                     dE             d eps       ncg     rms          ort
SDA:   1    -0.228784541761E+03    0.53861E-01    0.00000E+00 10584   0.163E+01 0.000E+00
CGA:   2    -0.228810620353E+03   -0.26079E-01   -0.29931E-01 10584   0.150E+00-0.177E+00
CGA:   3    -0.228817828385E+03   -0.72080E-02   -0.71282E-02 10584   0.140E+00-0.134E-02
CGA:   4    -0.228826481367E+03   -0.86530E-02   -0.86553E-02 10584   0.138E+00-0.643E-04
CGA:   5    -0.228832555560E+03   -0.60742E-02   -0.60214E-02 10584   0.375E-01-0.212E-03
CGA:   6    -0.228834018682E+03   -0.14631E-02   -0.14685E-02 10584   0.293E-01-0.349E-04
CGA:   7    -0.228836701076E+03   -0.26824E-02   -0.26842E-02 10584   0.326E-01-0.227E-04
CGA:   8    -0.228837610383E+03   -0.90931E-03   -0.91367E-03 10584   0.414E-02 0.115E-04
CGA:   9    -0.228837842714E+03   -0.23233E-03   -0.23242E-03 10584   0.570E-02 0.141E-04
CGA:  10    -0.228838217716E+03   -0.37500E-03   -0.37495E-03 10584   0.265E-02 0.243E-04
CGA:  11    -0.228838294096E+03   -0.76379E-04   -0.76442E-04 10584   0.867E-03 0.514E-05
CGA:  12    -0.228838383149E+03   -0.89053E-04   -0.88965E-04 10584   0.189E-02 0.180E-05
CGA:  13    -0.228838461421E+03   -0.78273E-04   -0.78162E-04 10584   0.397E-03-0.652E-07
CGA:  14    -0.228838476446E+03   -0.15025E-04   -0.15003E-04 10584   0.318E-03-0.151E-05
CGA:  15    -0.228838514332E+03   -0.37886E-04   -0.38161E-04 10584   0.598E-03-0.483E-05
CGA:  16    -0.228838533474E+03   -0.19141E-04   -0.19072E-04 10584   0.960E-04-0.272E-05
CGA:  17    -0.228838538280E+03   -0.48060E-05   -0.48128E-05 10584   0.116E-03 0.382E-06
   2 F= -.22883854E+03 E0= -.22883253E+03  d E =-.130347E-03  mag=    18.0000
       N       E                     dE             d eps       ncg     rms          ort
SDA:   1    -0.228830680002E+03    0.78535E-02    0.00000E+00 10584   0.114E+00 0.000E+00
CGA:   2    -0.228832952842E+03   -0.22728E-02   -0.23067E-02 10584   0.230E-01-0.120E-02
CGA:   3    -0.228835057699E+03   -0.21049E-02   -0.21069E-02 10584   0.387E-01-0.119E-04
CGA:   4    -0.228836678329E+03   -0.16206E-02   -0.16287E-02 10584   0.208E-01 0.200E-03
CGA:   5    -0.228837704374E+03   -0.10260E-02   -0.10248E-02 10584   0.428E-02 0.483E-04
CGA:   6    -0.228838462440E+03   -0.75807E-03   -0.77502E-03 10584   0.874E-02-0.138E-03
CGA:   7    -0.228838650538E+03   -0.18810E-03   -0.18663E-03 10584   0.873E-03-0.405E-04
CGA:   8    -0.228838719740E+03   -0.69202E-04   -0.69145E-04 10584   0.175E-02 0.362E-05
CGA:   9    -0.228838796495E+03   -0.76755E-04   -0.76933E-04 10584   0.226E-03 0.853E-05
CGA:  10    -0.228838821231E+03   -0.24737E-04   -0.24647E-04 10584   0.311E-03 0.220E-05
CGA:  11    -0.228838836051E+03   -0.14819E-04   -0.14836E-04 10584   0.316E-03 0.653E-06
CGA:  12    -0.228838848414E+03   -0.12363E-04   -0.12353E-04 10584   0.498E-04 0.407E-06
CGA:  13    -0.228838853686E+03   -0.52721E-05   -0.53312E-05 10584   0.161E-03-0.139E-05
   3 F= -.22883885E+03 E0= -.22883295E+03  d E =-.445754E-03  mag=    18.0000
       N       E                     dE             d eps       ncg     rms          ort
SDA:   1    -0.228802133763E+03    0.36715E-01    0.00000E+00 10584   0.114E+01 0.000E+00
CGA:   2    -0.228820070683E+03   -0.17937E-01   -0.19077E-01 10584   0.665E-01-0.602E-01
CGA:   3    -0.228828625593E+03   -0.85549E-02   -0.86351E-02 10584   0.176E+00-0.110E-02
CGA:   4    -0.228833729354E+03   -0.51038E-02   -0.50947E-02 10584   0.258E-01-0.439E-03
CGA:   5    -0.228835479636E+03   -0.17503E-02   -0.17513E-02 10584   0.313E-01-0.190E-03
CGA:   6    -0.228837033070E+03   -0.15534E-02   -0.15549E-02 10584   0.260E-01 0.105E-03
CGA:   7    -0.228838236900E+03   -0.12038E-02   -0.11998E-02 10584   0.488E-02 0.902E-04
CGA:   8    -0.228838427930E+03   -0.19103E-03   -0.19154E-03 10584   0.459E-02 0.120E-04
CGA:   9    -0.228838804549E+03   -0.37662E-03   -0.37642E-03 10584   0.172E-02 0.122E-04
CGA:  10    -0.228838853537E+03   -0.48988E-04   -0.49055E-04 10584   0.825E-03-0.211E-05
CGA:  11    -0.228838967788E+03   -0.11425E-03   -0.11470E-03 10584   0.137E-02-0.587E-05
CGA:  12    -0.228839003701E+03   -0.35913E-04   -0.35845E-04 10584   0.224E-03-0.309E-05
CGA:  13    -0.228839021522E+03   -0.17821E-04   -0.17825E-04 10584   0.403E-03-0.353E-06
CGA:  14    -0.228839044234E+03   -0.22712E-04   -0.22714E-04 10584   0.339E-03-0.415E-06
CGA:  15    -0.228839060846E+03   -0.16612E-04   -0.16617E-04 10584   0.108E-03 0.514E-06
CGA:  16    -0.228839064726E+03   -0.38792E-05   -0.38980E-05 10584   0.796E-04 0.439E-06
   4 F= -.22883906E+03 E0= -.22883301E+03  d E =-.211040E-03  mag=    18.0000
       N       E                     dE             d eps       ncg     rms          ort
SDA:   1    -0.228823078054E+03    0.15983E-01    0.00000E+00 10584   0.882E+00 0.000E+00
CGA:   2    -0.228836812538E+03   -0.13734E-01   -0.13185E-01 10584   0.734E-02 0.295E-01
CGA:   3    -0.228837409639E+03   -0.59710E-03   -0.59541E-03 10584   0.228E-01 0.110E-03
CGA:   4    -0.228838477323E+03   -0.10677E-02   -0.10723E-02 10584   0.291E-02 0.253E-03
CGA:   5    -0.228838647311E+03   -0.16999E-03   -0.17000E-03 10584   0.529E-02-0.666E-05
CGA:   6    -0.228838894793E+03   -0.24748E-03   -0.24648E-03 10584   0.280E-02-0.555E-04
CGA:   7    -0.228839033180E+03   -0.13839E-03   -0.13796E-03 10584   0.150E-02-0.417E-04
CGA:   8    -0.228839075302E+03   -0.42122E-04   -0.41756E-04 10584   0.445E-03-0.140E-04
CGA:   9    -0.228839108097E+03   -0.32795E-04   -0.32873E-04 10584   0.835E-03-0.485E-05
CGA:  10    -0.228839134390E+03   -0.26293E-04   -0.26234E-04 10584   0.847E-04-0.249E-05
CGA:  11    -0.228839142905E+03   -0.85158E-05   -0.84485E-05 10584   0.259E-03 0.162E-05
   5 F= -.22883914E+03 E0= -.22883322E+03  d E =-.289219E-03  mag=    18.0000
       N       E                     dE             d eps       ncg     rms          ort
SDA:   1    -0.228836949702E+03    0.21847E-02    0.00000E+00 10584   0.780E-01 0.000E+00
CGA:   2    -0.228838510995E+03   -0.15613E-02   -0.15223E-02 10584   0.116E-01 0.153E-02
CGA:   3    -0.228838891531E+03   -0.38054E-03   -0.38447E-03 10584   0.877E-03-0.872E-05
CGA:   4    -0.228838990485E+03   -0.98954E-04   -0.96020E-04 10584   0.227E-02 0.547E-04
CGA:   5    -0.228839078947E+03   -0.88461E-04   -0.89509E-04 10584   0.328E-03 0.492E-04
CGA:   6    -0.228839094051E+03   -0.15104E-04   -0.15102E-04 10584   0.460E-03-0.297E-06
CGA:   7    -0.228839135482E+03   -0.41431E-04   -0.41983E-04 10584   0.168E-03-0.159E-04
CGA:   8    -0.228839142393E+03   -0.69113E-05   -0.68496E-05 10584   0.900E-04-0.384E-05
   6 F= -.22883914E+03 E0= -.22883321E+03  d E =-.288707E-03  mag=    18.0000
