 vasp.6.1.2 22Jul20 (build Dec 05 2020 14:50:36) complex                        
  
 executed on         CrayXC-Intel date 2021.06.07  20:54:26
 running on   24 total cores
 distrk:  each k-point on   24 cores,    1 groups
 distr:  one band on NCORE=   4 cores,    6 groups


--------------------------------------------------------------------------------------------------------


 INCAR:
 POTCAR:    PAW_PBE Ca_sv 06Sep2000               
 POTCAR:    PAW_PBE Si 05Jan2001                  
 POTCAR:    PAW_PBE O 08Apr2002                   
 POTCAR:    PAW_PBE Ca_sv 06Sep2000               
   VRHFIN =Ca: 3s3p4s                                                                               
   LEXCH  = PE                                                                                      
   EATOM  =  1006.0909 eV,   73.9456 Ry                                                             
                                                                                                    
   TITEL  = PAW_PBE Ca_sv 06Sep2000                                                                 
   LULTRA =        F    use ultrasoft PP ?                                                          
   IUNSCR =        1    unscreen: 0-lin 1-nonlin 2-no                                               
   RPACOR =    2.000    partial core radius                                                         
   POMASS =   40.078; ZVAL   =   10.000    mass and valenz                                          
   RCORE  =    2.300    outmost cutoff radius                                                       
   RWIGS  =    2.500; RWIGS  =    1.323    wigner-seitz radius (au A)                               
   ENMAX  =  266.622; ENMIN  =  199.967 eV                                                          
   RCLOC  =    1.808    cutoff for local pot                                                        
   LCOR   =        T    correct aug charges                                                         
   LPAW   =        T    paw PP                                                                      
   EAUG   =  420.852                                                                                
   RMAX   =    2.359    core radius for proj-oper                                                   
   RAUG   =    1.300    factor for augmentation sphere                                              
   RDEP   =    2.392    radius for radial grids                                                     
   RDEPT  =    1.987    core radius for aug-charge                                                  
                                                                                                    
   Atomic configuration                                                                             
    7 entries                                                                                       
     n  l   j            E        occ.                                                              
     1  0  0.50     -3949.1705   2.0000                                                             
     2  0  0.50      -414.3434   2.0000                                                             
     2  1  1.50      -334.7047   6.0000                                                             
     3  0  0.50       -47.0896   2.0000                                                             
     4  0  0.50        -3.7663   2.0000                                                             
     3  1  1.50       -28.0061   6.0000                                                             
     3  2  1.50        -4.0817   0.0000                                                             
   Description                                                                                      
     l       E           TYP  RCUT    TYP  RCUT                                                     
     0    -47.0896403     23  2.300                                                                 
     0     -3.7663320     23  2.300                                                                 
     1    -28.0060855     23  2.300                                                                 
     1      6.8029130     23  2.300                                                                 
     2     -4.0817478     23  2.300                                                                 
     2      0.4464412     23  2.300                                                                 
  local pseudopotential read in
  partial core-charges read in
  partial kinetic energy density read in
  atomic valenz-charges read in
  non local Contribution for L=           0  read in
    real space projection operators read in
  non local Contribution for L=           0  read in
    real space projection operators read in
  non local Contribution for L=           1  read in
    real space projection operators read in
  non local Contribution for L=           1  read in
    real space projection operators read in
  non local Contribution for L=           2  read in
    real space projection operators read in
  non local Contribution for L=           2  read in
    real space projection operators read in
    PAW grid and wavefunctions read in
 
   number of l-projection  operators is LMAX  =           6
   number of lm-projection operators is LMMAX =          18
 
 POTCAR:    PAW_PBE Si 05Jan2001                  
   VRHFIN =Si: s2p2                                                                                 
   LEXCH  = PE                                                                                      
   EATOM  =   103.0669 eV,    7.5752 Ry                                                             
                                                                                                    
   TITEL  = PAW_PBE Si 05Jan2001                                                                    
   LULTRA =        F    use ultrasoft PP ?                                                          
   IUNSCR =        1    unscreen: 0-lin 1-nonlin 2-no                                               
   RPACOR =    1.500    partial core radius                                                         
   POMASS =   28.085; ZVAL   =    4.000    mass and valenz                                          
   RCORE  =    1.900    outmost cutoff radius                                                       
   RWIGS  =    2.480; RWIGS  =    1.312    wigner-seitz radius (au A)                               
   ENMAX  =  245.345; ENMIN  =  184.009 eV                                                          
   ICORE  =        2    local potential                                                             
   LCOR   =        T    correct aug charges                                                         
   LPAW   =        T    paw PP                                                                      
   EAUG   =  322.069                                                                                
   DEXC   =    0.000                                                                                
   RMAX   =    1.950    core radius for proj-oper                                                   
   RAUG   =    1.300    factor for augmentation sphere                                              
   RDEP   =    1.993    radius for radial grids                                                     
   RDEPT  =    1.837    core radius for aug-charge                                                  
                                                                                                    
   Atomic configuration                                                                             
    6 entries                                                                                       
     n  l   j            E        occ.                                                              
     1  0  0.50     -1785.8828   2.0000                                                             
     2  0  0.50      -139.4969   2.0000                                                             
     2  1  1.50       -95.5546   6.0000                                                             
     3  0  0.50       -10.8127   2.0000                                                             
     3  1  0.50        -4.0811   2.0000                                                             
     3  2  1.50        -4.0817   0.0000                                                             
   Description                                                                                      
     l       E           TYP  RCUT    TYP  RCUT                                                     
     0    -10.8127223     23  1.900                                                                 
     0     -7.6451159     23  1.900                                                                 
     1     -4.0811372     23  1.900                                                                 
     1      2.4879257     23  1.900                                                                 
     2     -4.0817478      7  1.900                                                                 
  local pseudopotential read in
  partial core-charges read in
  partial kinetic energy density read in
  atomic valenz-charges read in
  non local Contribution for L=           0  read in
    real space projection operators read in
  non local Contribution for L=           0  read in
    real space projection operators read in
  non local Contribution for L=           1  read in
    real space projection operators read in
  non local Contribution for L=           1  read in
    real space projection operators read in
    PAW grid and wavefunctions read in
 
   number of l-projection  operators is LMAX  =           4
   number of lm-projection operators is LMMAX =           8
 
 POTCAR:    PAW_PBE O 08Apr2002                   
   VRHFIN =O: s2p4                                                                                  
   LEXCH  = PE                                                                                      
   EATOM  =   432.3788 eV,   31.7789 Ry                                                             
                                                                                                    
   TITEL  = PAW_PBE O 08Apr2002                                                                     
   LULTRA =        F    use ultrasoft PP ?                                                          
   IUNSCR =        1    unscreen: 0-lin 1-nonlin 2-no                                               
   RPACOR =    1.200    partial core radius                                                         
   POMASS =   16.000; ZVAL   =    6.000    mass and valenz                                          
   RCORE  =    1.520    outmost cutoff radius                                                       
   RWIGS  =    1.550; RWIGS  =    0.820    wigner-seitz radius (au A)                               
   ENMAX  =  400.000; ENMIN  =  300.000 eV                                                          
   ICORE  =        2    local potential                                                             
   LCOR   =        T    correct aug charges                                                         
   LPAW   =        T    paw PP                                                                      
   EAUG   =  605.392                                                                                
   DEXC   =    0.000                                                                                
   RMAX   =    1.553    core radius for proj-oper                                                   
   RAUG   =    1.300    factor for augmentation sphere                                              
   RDEP   =    1.550    radius for radial grids                                                     
   RDEPT  =    1.329    core radius for aug-charge                                                  
                                                                                                    
   Atomic configuration                                                                             
    4 entries                                                                                       
     n  l   j            E        occ.                                                              
     1  0  0.50      -514.6923   2.0000                                                             
     2  0  0.50       -23.9615   2.0000                                                             
     2  1  0.50        -9.0305   4.0000                                                             
     3  2  1.50        -9.5241   0.0000                                                             
   Description                                                                                      
     l       E           TYP  RCUT    TYP  RCUT                                                     
     0    -23.9615318     23  1.200                                                                 
     0     -9.5240782     23  1.200                                                                 
     1     -9.0304911     23  1.520                                                                 
     1      8.1634956     23  1.520                                                                 
     2     -9.5240782      7  1.500                                                                 
  local pseudopotential read in
  partial core-charges read in
  partial kinetic energy density read in
  kinetic energy density of atom read in
  atomic valenz-charges read in
  non local Contribution for L=           0  read in
    real space projection operators read in
  non local Contribution for L=           0  read in
    real space projection operators read in
  non local Contribution for L=           1  read in
    real space projection operators read in
  non local Contribution for L=           1  read in
    real space projection operators read in
    PAW grid and wavefunctions read in
 
   number of l-projection  operators is LMAX  =           4
   number of lm-projection operators is LMMAX =           8
 
 Optimization of the real space projectors (new method)

 maximal supplied QI-value         = 16.25
 optimisation between [QCUT,QGAM] = [ 11.54, 23.24] = [ 37.28,151.24] Ry 
 Optimized for a Real-space Cutoff    1.58 Angstroem

   l    n(q)    QCUT    max X(q) W(low)/X(q) W(high)/X(q)  e(spline) 
   0     11    11.539    11.817    0.25E-04    0.22E-05    0.26E-07
   0     11    11.539     8.461    0.39E-04    0.49E-05    0.55E-07
   1     11    11.539     3.957    0.21E-05    0.44E-05    0.32E-07
   1     11    11.539     4.314    0.56E-04    0.44E-04    0.19E-06
   2     10    11.539    14.565    0.25E-03    0.21E-04    0.75E-06
   2     10    11.539    14.552    0.23E-03    0.22E-04    0.72E-06
 Optimization of the real space projectors (new method)

 maximal supplied QI-value         = 19.84
 optimisation between [QCUT,QGAM] = [ 11.51, 23.22] = [ 37.09,150.92] Ry 
 Optimized for a Real-space Cutoff    1.21 Angstroem

   l    n(q)    QCUT    max X(q) W(low)/X(q) W(high)/X(q)  e(spline) 
   0      8    11.508   159.560    0.71E-04    0.15E-03    0.51E-07
   0      8    11.508   115.863    0.70E-04    0.15E-03    0.51E-07
   1      8    11.508    88.339    0.16E-03    0.38E-04    0.82E-07
   1      8    11.508    48.592    0.15E-03    0.36E-04    0.79E-07
 Optimization of the real space projectors (new method)

 maximal supplied QI-value         = 24.76
 optimisation between [QCUT,QGAM] = [ 11.64, 23.27] = [ 37.91,151.63] Ry 
 Optimized for a Real-space Cutoff    1.14 Angstroem

   l    n(q)    QCUT    max X(q) W(low)/X(q) W(high)/X(q)  e(spline) 
   0      8    11.635    20.381    0.10E-03    0.33E-03    0.24E-06
   0      8    11.635    15.268    0.11E-03    0.35E-03    0.26E-06
   1      7    11.635     5.964    0.24E-03    0.31E-03    0.30E-06
   1      7    11.635     5.382    0.22E-03    0.25E-03    0.26E-06
  PAW_PBE Ca_sv 06Sep2000               :
 energy of atom  1       EATOM=-1006.0909
 kinetic energy error for atom=    0.0022 (will be added to EATOM!!)
  PAW_PBE Si 05Jan2001                  :
 energy of atom  2       EATOM= -103.0669
 kinetic energy error for atom=    0.0005 (will be added to EATOM!!)
  PAW_PBE O 08Apr2002                   :
 energy of atom  3       EATOM= -432.3788
 kinetic energy error for atom=    0.0208 (will be added to EATOM!!)
 
 
 POSCAR: Ca12 Si12 O36
  positions in direct lattice
  velocities in cartesian coordinates

 METAGGA = SCAN     LMAXTAU =  6    LMIXTAU =  F

 exchange correlation table for  LEXCH =        8
   RHO(1)=    0.500       N(1)  =     2000
   RHO(2)=  100.500       N(2)  =     4000
 


--------------------------------------------------------------------------------------------------------


 ion  position               nearest neighbor table
   1  0.748  0.126  0.971-  25 2.34  37 2.35  33 2.35  38 2.42  29 2.43  34 2.43  14 3.11  18 3.11

   2  0.752  0.626  0.029-  26 2.34  38 2.35  34 2.35  37 2.42  30 2.43  33 2.43  13 3.11  17 3.11

   3  0.252  0.874  0.029-  27 2.34  39 2.35  35 2.35  40 2.42  31 2.43  36 2.43  16 3.11  20 3.11

   4  0.248  0.374  0.971-  28 2.34  40 2.35  36 2.35  39 2.42  32 2.43  35 2.43  15 3.11  19 3.11

   5  0.900  0.872  0.738-  43 2.27  47 2.30  37 2.32  53 2.42  25 2.44  30 2.51  21 3.08
   6  0.600  0.372  0.262-  44 2.27  48 2.30  38 2.32  54 2.42  26 2.44  29 2.51  22 3.08
   7  0.100  0.128  0.262-  41 2.27  45 2.30  39 2.32  55 2.42  27 2.44  32 2.51  23 3.08
   8  0.400  0.628  0.738-  42 2.27  46 2.30  40 2.32  56 2.42  28 2.44  31 2.51  24 3.08
   9  0.898  0.378  0.737-  43 2.31  33 2.31  47 2.36  49 2.41  25 2.42  30 2.50  21 3.07
  10  0.602  0.878  0.263-  44 2.31  34 2.31  48 2.36  50 2.41  26 2.42  29 2.50  22 3.07
  11  0.102  0.622  0.263-  41 2.31  35 2.31  45 2.36  51 2.41  27 2.42  32 2.50  23 3.07
  12  0.398  0.122  0.737-  42 2.31  36 2.31  46 2.36  52 2.41  28 2.42  31 2.50  24 3.07
  13  0.907  0.409  0.231-  41 1.59  33 1.61  57 1.64  49 1.65   2 3.11  21 3.12
  14  0.593  0.909  0.769-  42 1.59  34 1.61  58 1.64  50 1.65   1 3.11  22 3.12
  15  0.093  0.591  0.769-  43 1.59  35 1.61  59 1.64  51 1.65   4 3.11  23 3.12
  16  0.407  0.091  0.231-  44 1.59  36 1.61  60 1.64  52 1.65   3 3.11  24 3.12
  17  0.907  0.842  0.231-  45 1.59  37 1.62  57 1.64  53 1.65   2 3.11  21 3.11
  18  0.593  0.342  0.769-  46 1.59  38 1.62  58 1.64  54 1.65   1 3.11  22 3.11
  19  0.093  0.158  0.769-  47 1.59  39 1.62  59 1.64  55 1.65   4 3.11  23 3.11
  20  0.407  0.658  0.231-  48 1.59  40 1.62  60 1.64  56 1.65   3 3.11  24 3.11
  21  0.801  0.125  0.444-  29 1.60  25 1.61  53 1.66  49 1.67   9 3.07   5 3.08  17 3.11  13 3.12

  22  0.699  0.625  0.556-  30 1.60  26 1.61  54 1.66  50 1.67  10 3.07   6 3.08  18 3.11  14 3.12

  23  0.199  0.875  0.556-  31 1.60  27 1.61  55 1.66  51 1.67  11 3.07   7 3.08  19 3.11  15 3.12

  24  0.301  0.375  0.444-  32 1.60  28 1.61  56 1.66  52 1.67  12 3.07   8 3.08  20 3.11  16 3.12

  25  0.799  0.126  0.670-  21 1.61   1 2.34   9 2.42   5 2.44
  26  0.701  0.626  0.330-  22 1.61   2 2.34  10 2.42   6 2.44
  27  0.201  0.874  0.330-  23 1.61   3 2.34  11 2.42   7 2.44
  28  0.299  0.374  0.670-  24 1.61   4 2.34  12 2.42   8 2.44
  29  0.714  0.125  0.301-  21 1.60   1 2.43  10 2.50   6 2.51
  30  0.786  0.625  0.699-  22 1.60   2 2.43   9 2.50   5 2.51
  31  0.286  0.875  0.699-  23 1.60   3 2.43  12 2.50   8 2.51
  32  0.214  0.375  0.301-  24 1.60   4 2.43  11 2.50   7 2.51
  33  0.849  0.363  0.035-  13 1.61   9 2.31   1 2.35   2 2.43
  34  0.651  0.863  0.965-  14 1.61  10 2.31   2 2.35   1 2.43
  35  0.151  0.637  0.965-  15 1.61  11 2.31   3 2.35   4 2.43
  36  0.349  0.137  0.035-  16 1.61  12 2.31   4 2.35   3 2.43
  37  0.848  0.888  0.036-  17 1.62   5 2.32   1 2.35   2 2.42
  38  0.652  0.388  0.964-  18 1.62   6 2.32   2 2.35   1 2.42
  39  0.152  0.112  0.964-  19 1.62   7 2.32   3 2.35   4 2.42
  40  0.348  0.612  0.036-  20 1.62   8 2.32   4 2.35   3 2.42
  41  0.010  0.373  0.237-  13 1.59   7 2.27  11 2.31
  42  0.490  0.873  0.763-  14 1.59   8 2.27  12 2.31
  43  0.990  0.627  0.763-  15 1.59   5 2.27   9 2.31
  44  0.510  0.127  0.237-  16 1.59   6 2.27  10 2.31
  45  0.009  0.879  0.235-  17 1.59   7 2.30  11 2.36
  46  0.491  0.379  0.765-  18 1.59   8 2.30  12 2.36
  47  0.991  0.121  0.765-  19 1.59   5 2.30   9 2.36
  48  0.509  0.621  0.235-  20 1.59   6 2.30  10 2.36
  49  0.864  0.304  0.406-  13 1.65  21 1.67   9 2.41
  50  0.636  0.804  0.594-  14 1.65  22 1.67  10 2.41
  51  0.136  0.696  0.594-  15 1.65  23 1.67  11 2.41
  52  0.364  0.196  0.406-  16 1.65  24 1.67  12 2.41
  53  0.864  0.946  0.407-  17 1.65  21 1.66   5 2.42
  54  0.636  0.446  0.593-  18 1.65  22 1.66   6 2.42
  55  0.136  0.054  0.593-  19 1.65  23 1.66   7 2.42
  56  0.364  0.554  0.407-  20 1.65  24 1.66   8 2.42
  57  0.890  0.625  0.274-  13 1.64  17 1.64
  58  0.610  0.125  0.726-  14 1.64  18 1.64
  59  0.110  0.375  0.726-  15 1.64  19 1.64
  60  0.390  0.875  0.274-  16 1.64  20 1.64
 

IMPORTANT INFORMATION: All symmetrisations will be switched off!
NOSYMM: (Re-)initialisation of all symmetry stuff for point group C_1.


----------------------------------------------------------------------------------------

                                     Primitive cell                                     

  volume of cell :     794.7987

  direct lattice vectors                    reciprocal lattice vectors
    15.343270345 -0.000000001 -1.433480393     0.065178707  0.000000000  0.000038031
    -0.000000002  7.321939280  0.000000008    -0.000000000  0.136575839 -0.000000000
    -0.004128295  0.000000014  7.075167908     0.013205679 -0.000000000  0.141347107

  length of vectors
    15.410087960  7.321939280  7.075169112     0.065178718  0.136575839  0.141962652

  position of ions in fractional coordinates (direct lattice)
     0.747647694  0.125671881  0.971479990
     0.752352113  0.625671794  0.028520372
     0.252352112  0.874328205  0.028520388
     0.247647695  0.374328121  0.971480008
     0.899567557  0.871903974  0.738265557
     0.600431880  0.371904401  0.261733951
     0.100431881  0.128095597  0.261733958
     0.399567559  0.628096028  0.738265565
     0.898312986  0.378026129  0.736589219
     0.601686128  0.878026027  0.263410094
     0.101686127  0.621973975  0.263410104
     0.398312986  0.121973871  0.736589230
     0.907362258  0.408785250  0.231150273
     0.592637870  0.908785442  0.768849575
     0.092637869  0.591214564  0.768849606
     0.407362257  0.091214744  0.231150305
     0.907481969  0.842332058  0.231024696
     0.592517982  0.342332026  0.768975242
     0.092517981  0.157667975  0.768975252
     0.407481968  0.657667941  0.231024707
     0.801203183  0.124671242  0.443663385
     0.698796835  0.624671347  0.556336264
     0.198796832  0.875328651  0.556336280
     0.301203180  0.375328759  0.443663402
     0.798822488  0.125968210  0.670165377
     0.701177292  0.625967315  0.329834277
     0.201177291  0.874032676  0.329834295
     0.298822486  0.374031797  0.670165397
     0.714044378  0.125016728  0.300710279
     0.785956084  0.625017648  0.699289034
     0.285956082  0.874982348  0.699289049
     0.214044376  0.374983274  0.300710294
     0.849353626  0.362791199  0.035234089
     0.650646344  0.862791332  0.964765927
     0.150646347  0.637208675  0.964765951
     0.349353629  0.137208796  0.035234115
     0.848121590  0.887656462  0.036175674
     0.651878209  0.387656423  0.963824616
     0.151878206  0.112343566  0.963824627
     0.348121586  0.612343550  0.036175683
     0.009578835  0.372791205  0.236905155
     0.490421292  0.872791861  0.763094693
     0.990421292  0.627208142  0.763094748
     0.509578835  0.127208791  0.236905211
     0.009107819  0.878971591  0.234843752
     0.490892223  0.378973481  0.765155904
     0.990892221  0.121026517  0.765155897
     0.509107817  0.621028411  0.234843747
     0.863961401  0.303812392  0.405964554
     0.636038970  0.803812740  0.594035534
     0.136038961  0.696187263  0.594035551
     0.363961394  0.196187604  0.405964572
     0.863607023  0.945514304  0.406907924
     0.636393728  0.445513137  0.593094291
     0.136393729  0.054486872  0.593094297
     0.363607024  0.554485686  0.406907931
     0.890310045  0.625154616  0.273951896
     0.609690219  0.125154852  0.726048144
     0.109690217  0.374845153  0.726048168
     0.390310042  0.874845379  0.273951922

  ion indices of the primitive-cell ions
   primitive index   ion index
                 1           1
                 2           2
                 3           3
                 4           4
                 5           5
                 6           6
                 7           7
                 8           8
                 9           9
                10          10
                11          11
                12          12
                13          13
                14          14
                15          15
                16          16
                17          17
                18          18
                19          19
                20          20
                21          21
                22          22
                23          23
                24          24
                25          25
                26          26
                27          27
                28          28
                29          29
                30          30
                31          31
                32          32
                33          33
                34          34
                35          35
                36          36
                37          37
                38          38
                39          39
                40          40
                41          41
                42          42
                43          43
                44          44
                45          45
                46          46
                47          47
                48          48
                49          49
                50          50
                51          51
                52          52
                53          53
                54          54
                55          55
                56          56
                57          57
                58          58
                59          59
                60          60

----------------------------------------------------------------------------------------

 
 
 KPOINTS: K-points file                           

Automatic generation of k-mesh.
Space group operators:
 irot       det(A)        alpha          n_x          n_y          n_z        tau_x        tau_y        tau_z
    1     1.000000     0.000001     1.000000     0.000000     0.000000     0.000000     0.000000     0.000000
 
 Subroutine IBZKPT returns following result:
 ===========================================
 
 Found     76 irreducible k-points:
 
 Following reciprocal coordinates:
            Coordinates               Weight
  0.000000  0.000000  0.000000      1.000000
  0.166667 -0.000000 -0.000000      2.000000
  0.333333  0.000000  0.000000      2.000000
  0.500000 -0.000000 -0.000000      1.000000
  0.000000  0.200000  0.000000      2.000000
  0.166667  0.200000 -0.000000      2.000000
 -0.166667  0.200000 -0.000000      2.000000
  0.333333  0.200000  0.000000      2.000000
 -0.333333  0.200000 -0.000000      2.000000
  0.500000  0.200000 -0.000000      2.000000
  0.000000  0.400000 -0.000000      2.000000
  0.166667  0.400000  0.000000      2.000000
 -0.166667  0.400000 -0.000000      2.000000
  0.333333  0.400000 -0.000000      2.000000
 -0.333333  0.400000 -0.000000      2.000000
  0.500000  0.400000  0.000000      2.000000
 -0.000000  0.000000  0.200000      2.000000
  0.166667  0.000000  0.200000      2.000000
  0.333333  0.000000  0.200000      2.000000
  0.500000  0.000000  0.200000      2.000000
 -0.333333  0.000000  0.200000      2.000000
 -0.166667  0.000000  0.200000      2.000000
 -0.000000  0.200000  0.200000      2.000000
  0.000000  0.200000 -0.200000      2.000000
  0.166667  0.200000  0.200000      2.000000
 -0.166667  0.200000 -0.200000      2.000000
  0.333333  0.200000  0.200000      2.000000
 -0.333333  0.200000 -0.200000      2.000000
  0.500000  0.200000  0.200000      2.000000
  0.500000  0.200000 -0.200000      2.000000
 -0.333333  0.200000  0.200000      2.000000
  0.333333  0.200000 -0.200000      2.000000
 -0.166667  0.200000  0.200000      2.000000
  0.166667  0.200000 -0.200000      2.000000
 -0.000000  0.400000  0.200000      2.000000
  0.000000  0.400000 -0.200000      2.000000
  0.166667  0.400000  0.200000      2.000000
 -0.166667  0.400000 -0.200000      2.000000
  0.333333  0.400000  0.200000      2.000000
 -0.333333  0.400000 -0.200000      2.000000
  0.500000  0.400000  0.200000      2.000000
  0.500000  0.400000 -0.200000      2.000000
 -0.333333  0.400000  0.200000      2.000000
  0.333333  0.400000 -0.200000      2.000000
 -0.166667  0.400000  0.200000      2.000000
  0.166667  0.400000 -0.200000      2.000000
 -0.000000  0.000000  0.400000      2.000000
  0.166667  0.000000  0.400000      2.000000
  0.333333  0.000000  0.400000      2.000000
  0.500000  0.000000  0.400000      2.000000
 -0.333333  0.000000  0.400000      2.000000
 -0.166667  0.000000  0.400000      2.000000
 -0.000000  0.200000  0.400000      2.000000
  0.000000  0.200000 -0.400000      2.000000
  0.166667  0.200000  0.400000      2.000000
 -0.166667  0.200000 -0.400000      2.000000
  0.333333  0.200000  0.400000      2.000000
 -0.333333  0.200000 -0.400000      2.000000
  0.500000  0.200000  0.400000      2.000000
  0.500000  0.200000 -0.400000      2.000000
 -0.333333  0.200000  0.400000      2.000000
  0.333333  0.200000 -0.400000      2.000000
 -0.166667  0.200000  0.400000      2.000000
  0.166667  0.200000 -0.400000      2.000000
  0.000000  0.400000  0.400000      2.000000
  0.000000  0.400000 -0.400000      2.000000
  0.166667  0.400000  0.400000      2.000000
 -0.166667  0.400000 -0.400000      2.000000
  0.333333  0.400000  0.400000      2.000000
 -0.333333  0.400000 -0.400000      2.000000
  0.500000  0.400000  0.400000      2.000000
  0.500000  0.400000 -0.400000      2.000000
 -0.333333  0.400000  0.400000      2.000000
  0.333333  0.400000 -0.400000      2.000000
 -0.166667  0.400000  0.400000      2.000000
  0.166667  0.400000 -0.400000      2.000000
 
 Following cartesian coordinates:
            Coordinates               Weight
  0.000000  0.000000  0.000000      1.000000
  0.010863  0.000000  0.000006      2.000000
  0.021726  0.000000  0.000013      2.000000
  0.032589  0.000000  0.000019      1.000000
 -0.000000  0.027315 -0.000000      2.000000
  0.010863  0.027315  0.000006      2.000000
 -0.010863  0.027315 -0.000006      2.000000
  0.021726  0.027315  0.000013      2.000000
 -0.021726  0.027315 -0.000013      2.000000
  0.032589  0.027315  0.000019      2.000000
 -0.000000  0.054630 -0.000000      2.000000
  0.010863  0.054630  0.000006      2.000000
 -0.010863  0.054630 -0.000006      2.000000
  0.021726  0.054630  0.000013      2.000000
 -0.021726  0.054630 -0.000013      2.000000
  0.032589  0.054630  0.000019      2.000000
  0.002641 -0.000000  0.028269      2.000000
  0.013504 -0.000000  0.028276      2.000000
  0.024367 -0.000000  0.028282      2.000000
  0.035230 -0.000000  0.028288      2.000000
 -0.019085 -0.000000  0.028257      2.000000
 -0.008222 -0.000000  0.028263      2.000000
  0.002641  0.027315  0.028269      2.000000
 -0.002641  0.027315 -0.028269      2.000000
  0.013504  0.027315  0.028276      2.000000
 -0.013504  0.027315 -0.028276      2.000000
  0.024367  0.027315  0.028282      2.000000
 -0.024367  0.027315 -0.028282      2.000000
  0.035230  0.027315  0.028288      2.000000
  0.029948  0.027315 -0.028250      2.000000
 -0.019085  0.027315  0.028257      2.000000
  0.019085  0.027315 -0.028257      2.000000
 -0.008222  0.027315  0.028263      2.000000
  0.008222  0.027315 -0.028263      2.000000
  0.002641  0.054630  0.028269      2.000000
 -0.002641  0.054630 -0.028269      2.000000
  0.013504  0.054630  0.028276      2.000000
 -0.013504  0.054630 -0.028276      2.000000
  0.024367  0.054630  0.028282      2.000000
 -0.024367  0.054630 -0.028282      2.000000
  0.035230  0.054630  0.028288      2.000000
  0.029948  0.054630 -0.028250      2.000000
 -0.019085  0.054630  0.028257      2.000000
  0.019085  0.054630 -0.028257      2.000000
 -0.008222  0.054630  0.028263      2.000000
  0.008222  0.054630 -0.028263      2.000000
  0.005282 -0.000000  0.056539      2.000000
  0.016145 -0.000000  0.056545      2.000000
  0.027009 -0.000000  0.056552      2.000000
  0.037872 -0.000000  0.056558      2.000000
 -0.016444 -0.000000  0.056526      2.000000
 -0.005581 -0.000000  0.056533      2.000000
  0.005282  0.027315  0.056539      2.000000
 -0.005282  0.027315 -0.056539      2.000000
  0.016145  0.027315  0.056545      2.000000
 -0.016145  0.027315 -0.056545      2.000000
  0.027009  0.027315  0.056552      2.000000
 -0.027009  0.027315 -0.056552      2.000000
  0.037872  0.027315  0.056558      2.000000
  0.027307  0.027315 -0.056520      2.000000
 -0.016444  0.027315  0.056526      2.000000
  0.016444  0.027315 -0.056526      2.000000
 -0.005581  0.027315  0.056533      2.000000
  0.005581  0.027315 -0.056533      2.000000
  0.005282  0.054630  0.056539      2.000000
 -0.005282  0.054630 -0.056539      2.000000
  0.016145  0.054630  0.056545      2.000000
 -0.016145  0.054630 -0.056545      2.000000
  0.027009  0.054630  0.056552      2.000000
 -0.027009  0.054630 -0.056552      2.000000
  0.037872  0.054630  0.056558      2.000000
  0.027307  0.054630 -0.056520      2.000000
 -0.016444  0.054630  0.056526      2.000000
  0.016444  0.054630 -0.056526      2.000000
 -0.005581  0.054630  0.056533      2.000000
  0.005581  0.054630 -0.056533      2.000000
 


--------------------------------------------------------------------------------------------------------




 Dimension of arrays:
   k-points           NKPTS =     76   k-points in BZ     NKDIM =     76   number of bands    NBANDS=    234
   number of dos      NEDOS =    301   number of ions     NIONS =     60
   non local maximal  LDIM  =      6   non local SUM 2l+1 LMDIM =     18
   total plane-waves  NPLWV = 349920
   max r-space proj   IRMAX =   7321   max aug-charges    IRDMAX=  21203
   dimension x,y,z NGX =   120 NGY =   54 NGZ =   54
   dimension x,y,z NGXF=   240 NGYF=  108 NGZF=  108
   support grid    NGXF=   240 NGYF=  108 NGZF=  108
   ions per type =              12  12  36
   NGX,Y,Z   is equivalent  to a cutoff of  12.95, 12.26, 12.69 a.u.
   NGXF,Y,Z  is equivalent  to a cutoff of  25.89, 24.52, 25.38 a.u.

 SYSTEM =  unknown system                          
 POSCAR =  Ca12 Si12 O36                           

 Startparameter for this run:
   NWRITE =      2    write-flag & timer
   PREC   = accura    normal or accurate (medium, high low for compatibility)
   ISTART =      0    job   : 0-new  1-cont  2-samecut
   ICHARG =      1    charge: 1-file 2-atom 10-const
   ISPIN  =      2    spin polarized calculation?
   LNONCOLLINEAR =      F non collinear calculations
   LSORBIT =      F    spin-orbit coupling
   INIWAV =      1    electr: 0-lowe 1-rand  2-diag
   LASPH  =      T    aspherical Exc in radial PAW
   METAGGA=      F    non-selfconsistent MetaGGA calc.

 Electronic Relaxation 1
   ENCUT  =  520.0 eV  38.22 Ry    6.18 a.u.  28.65 13.61 13.16*2*pi/ulx,y,z
   ENINI  =  520.0     initial cutoff
   ENAUG  =  605.4 eV  augmentation charge cutoff
   NELM   =    100;   NELMIN=  6; NELMDL= -5     # of ELM steps 
   EDIFF  = 0.1E-04   stopping-criterion for ELM
   LREAL  =      T    real-space projection
   NLSPLINE    = F    spline interpolate recip. space projectors
   LCOMPAT=      F    compatible to vasp.4.4
   GGA_COMPAT  = T    GGA compatible to vasp.4.4-vasp.4.6
   LMAXPAW     = -100 max onsite density
   LMAXMIX     =    4 max onsite mixed and CHGCAR
   VOSKOWN=      0    Vosko Wilk Nusair interpolation
   ROPT   =   -0.00025  -0.00025  -0.00025
 Ionic relaxation
   EDIFFG = -.3E-01   stopping-criterion for IOM
   NSW    =     99    number of steps for IOM
   NBLOCK =      1;   KBLOCK =     99    inner block; outer block 
   IBRION =      2    ionic relax: 0-MD 1-quasi-New 2-CG
   NFREE  =      1    steps in history (QN), initial steepest desc. (CG)
   ISIF   =      3    stress and relaxation
   IWAVPR =     11    prediction:  0-non 1-charg 2-wave 3-comb
   ISYM   =      0    0-nonsym 1-usesym 2-fastsym
   LCORR  =      T    Harris-Foulkes like correction to forces

   POTIM  = 0.5000    time-step for ionic-motion
   TEIN   =    0.0    initial temperature
   TEBEG  =    0.0;   TEEND  =   0.0 temperature during run
   SMASS  =  -3.00    Nose mass-parameter (am)
   estimated Nose-frequenzy (Omega)   =  0.10E-29 period in steps = 0.13E+47 mass=  -0.543E-26a.u.
   SCALEE = 1.0000    scale energy and forces
   NPACO  =    256;   APACO  = 16.0  distance and # of slots for P.C.
   PSTRESS=    0.0 pullay stress

  Mass of Ions in am
   POMASS =  40.08 28.09 16.00
  Ionic Valenz
   ZVAL   =  10.00  4.00  6.00
  Atomic Wigner-Seitz radii
   RWIGS  =  -1.00 -1.00 -1.00
  virtual crystal weights 
   VCA    =   1.00  1.00  1.00
   NELECT =     384.0000    total number of electrons
   NUPDOWN=      -1.0000    fix difference up-down

 DOS related values:
   EMIN   =  10.00;   EMAX   =-10.00  energy-range for DOS
   EFERMI =   0.00
   ISMEAR =     0;   SIGMA  =   0.05  broadening in eV -4-tet -1-fermi 0-gaus

 Electronic relaxation 2 (details)
   IALGO  =     38    algorithm
   LDIAG  =      T    sub-space diagonalisation (order eigenvalues)
   LSUBROT=      F    optimize rotation matrix (better conditioning)
   TURBO    =      0    0=normal 1=particle mesh
   IRESTART =      0    0=no restart 2=restart with 2 vectors
   NREBOOT  =      0    no. of reboots
   NMIN     =      0    reboot dimension
   EREF     =   0.00    reference energy to select bands
   IMIX   =      4    mixing-type and parameters
     AMIX     =   0.40;   BMIX     =  1.00
     AMIX_MAG =   1.60;   BMIX_MAG =  1.00
     AMIN     =   0.10
     WC   =   100.;   INIMIX=   1;  MIXPRE=   1;  MAXMIX= -45

 Intra band minimization:
   WEIMIN = 0.0010     energy-eigenvalue tresh-hold
   EBREAK =  0.11E-07  absolut break condition
   DEPER  =   0.30     relativ break condition  

   TIME   =   0.40     timestep for ELM

  volume/ion in A,a.u.               =      13.25        89.39
  Fermi-wavevector in a.u.,A,eV,Ry     =   1.284595  2.427532 22.452117  1.650184
  Thomas-Fermi vector in A             =   2.416779
 
 Write flags
   LWAVE        =      F    write WAVECAR
   LDOWNSAMPLE  =      F    k-point downsampling of WAVECAR
   LCHARG       =      T    write CHGCAR
   LVTOT        =      F    write LOCPOT, total local potential
   LVHAR        =      F    write LOCPOT, Hartree potential only
   LELF         =      F    write electronic localiz. function (ELF)
   LORBIT       =     11    0 simple, 1 ext, 2 COOP (PROOUT), +10 PAW based schemes


 Dipole corrections
   LMONO  =      F    monopole corrections only (constant potential shift)
   LDIPOL =      F    correct potential (dipole corrections)
   IDIPOL =      0    1-x, 2-y, 3-z, 4-all directions 
   EPSILON=  1.0000000 bulk dielectric constant

 LDA+U is selected, type is set to LDAUTYPE =  2
   angular momentum for each species LDAUL =    -1   -1   -1
   U (eV)           for each species LDAUU =   0.0  0.0  0.0
   J (eV)           for each species LDAUJ =   0.0  0.0  0.0
 Exchange correlation treatment:
   GGA     =    --    GGA type
   LEXCH   =     8    internal setting for exchange type
   VOSKOWN=      0    Vosko Wilk Nusair interpolation
   LHFCALC =     F    Hartree Fock is set to
   LHFONE  =     F    Hartree Fock one center treatment
   AEXX    =    0.0000 exact exchange contribution

 Linear response parameters
   LEPSILON=     F    determine dielectric tensor
   LRPA    =     F    only Hartree local field effects (RPA)
   LNABLA  =     F    use nabla operator in PAW spheres
   LVEL    =     F    velocity operator in full k-point grid
   LINTERFAST=   F  fast interpolation
   KINTER  =     0    interpolate to denser k-point grid
   CSHIFT  =0.1000    complex shift for real part using Kramers Kronig
   OMEGAMAX=  -1.0    maximum frequency
   DEG_THRESHOLD= 0.2000000E-02 threshold for treating states as degnerate
   RTIME   =   -0.100 relaxation time in fs
  (WPLASMAI=    0.000 imaginary part of plasma frequency in eV, 0.658/RTIME)
   DFIELD  = 0.0000000 0.0000000 0.0000000 field for delta impulse in time
 
 Orbital magnetization related:
   ORBITALMAG=     F  switch on orbital magnetization
   LCHIMAG   =     F  perturbation theory with respect to B field
   DQ        =  0.001000  dq finite difference perturbation B field
   LLRAUG    =     F  two centre corrections for induced B field



--------------------------------------------------------------------------------------------------------


 conjugate gradient relaxation of ions
 charge density and potential will be updated during run
 spin polarized calculation
 Variant of blocked Davidson
 Davidson routine will perform the subspace rotation
 perform sub-space diagonalisation
    after iterative eigenvector-optimisation
 modified Broyden-mixing scheme, WC =      100.0
 initial mixing is a Kerker type mixing with AMIX =  0.4000 and BMIX =      1.0000
 Hartree-type preconditioning will be used
 using additional bands           42
 real space projection scheme for non local part
 use partial core corrections
 calculate Harris-corrections to forces 
   (improved forces if not selfconsistent)
 use gradient corrections 
 use of overlap-Matrix (Vanderbilt PP)
 Gauss-broadening in eV      SIGMA  =   0.05


--------------------------------------------------------------------------------------------------------


  energy-cutoff  :      520.00
  volume of cell :      794.80
      direct lattice vectors                 reciprocal lattice vectors
    15.343270345 -0.000000001 -1.433480393     0.065178707  0.000000000  0.000038031
    -0.000000002  7.321939280  0.000000008    -0.000000000  0.136575839 -0.000000000
    -0.004128295  0.000000014  7.075167908     0.013205679 -0.000000000  0.141347107

  length of vectors
    15.410087960  7.321939280  7.075169112     0.065178718  0.136575839  0.141962652


 
 k-points in units of 2pi/SCALE and weight: K-points file                           
   0.00000000  0.00000000  0.00000000       0.007
   0.01086312  0.00000000  0.00000634       0.013
   0.02172624  0.00000000  0.00001268       0.013
   0.03258935  0.00000000  0.00001902       0.007
  -0.00000000  0.02731517 -0.00000000       0.013
   0.01086312  0.02731517  0.00000634       0.013
  -0.01086312  0.02731517 -0.00000634       0.013
   0.02172624  0.02731517  0.00001268       0.013
  -0.02172624  0.02731517 -0.00001268       0.013
   0.03258935  0.02731517  0.00001902       0.013
  -0.00000000  0.05463034 -0.00000000       0.013
   0.01086312  0.05463034  0.00000634       0.013
  -0.01086312  0.05463034 -0.00000634       0.013
   0.02172624  0.05463034  0.00001268       0.013
  -0.02172624  0.05463034 -0.00001268       0.013
   0.03258935  0.05463034  0.00001902       0.013
   0.00264114 -0.00000000  0.02826942       0.013
   0.01350425 -0.00000000  0.02827576       0.013
   0.02436737 -0.00000000  0.02828210       0.013
   0.03523049 -0.00000000  0.02828844       0.013
  -0.01908510 -0.00000000  0.02825674       0.013
  -0.00822198 -0.00000000  0.02826308       0.013
   0.00264114  0.02731517  0.02826942       0.013
  -0.00264114  0.02731517 -0.02826942       0.013
   0.01350425  0.02731517  0.02827576       0.013
  -0.01350425  0.02731517 -0.02827576       0.013
   0.02436737  0.02731517  0.02828210       0.013
  -0.02436737  0.02731517 -0.02828210       0.013
   0.03523049  0.02731517  0.02828844       0.013
   0.02994822  0.02731517 -0.02825041       0.013
  -0.01908510  0.02731517  0.02825674       0.013
   0.01908510  0.02731517 -0.02825674       0.013
  -0.00822198  0.02731517  0.02826308       0.013
   0.00822198  0.02731517 -0.02826308       0.013
   0.00264114  0.05463034  0.02826942       0.013
  -0.00264114  0.05463034 -0.02826942       0.013
   0.01350425  0.05463034  0.02827576       0.013
  -0.01350425  0.05463034 -0.02827576       0.013
   0.02436737  0.05463034  0.02828210       0.013
  -0.02436737  0.05463034 -0.02828210       0.013
   0.03523049  0.05463034  0.02828844       0.013
   0.02994822  0.05463034 -0.02825041       0.013
  -0.01908510  0.05463034  0.02825674       0.013
   0.01908510  0.05463034 -0.02825674       0.013
  -0.00822198  0.05463034  0.02826308       0.013
   0.00822198  0.05463034 -0.02826308       0.013
   0.00528227 -0.00000000  0.05653884       0.013
   0.01614539 -0.00000000  0.05654518       0.013
   0.02700851 -0.00000000  0.05655152       0.013
   0.03787163 -0.00000000  0.05655786       0.013
  -0.01644396 -0.00000000  0.05652617       0.013
  -0.00558085 -0.00000000  0.05653250       0.013
   0.00528227  0.02731517  0.05653884       0.013
  -0.00528227  0.02731517 -0.05653884       0.013
   0.01614539  0.02731517  0.05654518       0.013
  -0.01614539  0.02731517 -0.05654518       0.013
   0.02700851  0.02731517  0.05655152       0.013
  -0.02700851  0.02731517 -0.05655152       0.013
   0.03787163  0.02731517  0.05655786       0.013
   0.02730708  0.02731517 -0.05651983       0.013
  -0.01644396  0.02731517  0.05652617       0.013
   0.01644396  0.02731517 -0.05652617       0.013
  -0.00558085  0.02731517  0.05653250       0.013
   0.00558085  0.02731517 -0.05653250       0.013
   0.00528227  0.05463034  0.05653884       0.013
  -0.00528227  0.05463034 -0.05653884       0.013
   0.01614539  0.05463034  0.05654518       0.013
  -0.01614539  0.05463034 -0.05654518       0.013
   0.02700851  0.05463034  0.05655152       0.013
  -0.02700851  0.05463034 -0.05655152       0.013
   0.03787163  0.05463034  0.05655786       0.013
   0.02730708  0.05463034 -0.05651983       0.013
  -0.01644396  0.05463034  0.05652617       0.013
   0.01644396  0.05463034 -0.05652617       0.013
  -0.00558085  0.05463034  0.05653250       0.013
   0.00558085  0.05463034 -0.05653250       0.013
 
 k-points in reciprocal lattice and weights: K-points file                           
   0.00000000  0.00000000  0.00000000       0.007
   0.16666667 -0.00000000 -0.00000000       0.013
   0.33333333  0.00000000  0.00000000       0.013
   0.50000000 -0.00000000 -0.00000000       0.007
   0.00000000  0.20000000  0.00000000       0.013
   0.16666667  0.20000000 -0.00000000       0.013
  -0.16666667  0.20000000 -0.00000000       0.013
   0.33333333  0.20000000  0.00000000       0.013
  -0.33333333  0.20000000 -0.00000000       0.013
   0.50000000  0.20000000 -0.00000000       0.013
   0.00000000  0.40000000 -0.00000000       0.013
   0.16666667  0.40000000  0.00000000       0.013
  -0.16666667  0.40000000 -0.00000000       0.013
   0.33333333  0.40000000 -0.00000000       0.013
  -0.33333333  0.40000000 -0.00000000       0.013
   0.50000000  0.40000000  0.00000000       0.013
  -0.00000000  0.00000000  0.20000000       0.013
   0.16666667  0.00000000  0.20000000       0.013
   0.33333333  0.00000000  0.20000000       0.013
   0.50000000  0.00000000  0.20000000       0.013
  -0.33333333  0.00000000  0.20000000       0.013
  -0.16666667  0.00000000  0.20000000       0.013
  -0.00000000  0.20000000  0.20000000       0.013
   0.00000000  0.20000000 -0.20000000       0.013
   0.16666667  0.20000000  0.20000000       0.013
  -0.16666667  0.20000000 -0.20000000       0.013
   0.33333333  0.20000000  0.20000000       0.013
  -0.33333333  0.20000000 -0.20000000       0.013
   0.50000000  0.20000000  0.20000000       0.013
   0.50000000  0.20000000 -0.20000000       0.013
  -0.33333333  0.20000000  0.20000000       0.013
   0.33333333  0.20000000 -0.20000000       0.013
  -0.16666667  0.20000000  0.20000000       0.013
   0.16666667  0.20000000 -0.20000000       0.013
  -0.00000000  0.40000000  0.20000000       0.013
   0.00000000  0.40000000 -0.20000000       0.013
   0.16666667  0.40000000  0.20000000       0.013
  -0.16666667  0.40000000 -0.20000000       0.013
   0.33333333  0.40000000  0.20000000       0.013
  -0.33333333  0.40000000 -0.20000000       0.013
   0.50000000  0.40000000  0.20000000       0.013
   0.50000000  0.40000000 -0.20000000       0.013
  -0.33333333  0.40000000  0.20000000       0.013
   0.33333333  0.40000000 -0.20000000       0.013
  -0.16666667  0.40000000  0.20000000       0.013
   0.16666667  0.40000000 -0.20000000       0.013
  -0.00000000  0.00000000  0.40000000       0.013
   0.16666667  0.00000000  0.40000000       0.013
   0.33333333  0.00000000  0.40000000       0.013
   0.50000000  0.00000000  0.40000000       0.013
  -0.33333333  0.00000000  0.40000000       0.013
  -0.16666667  0.00000000  0.40000000       0.013
  -0.00000000  0.20000000  0.40000000       0.013
   0.00000000  0.20000000 -0.40000000       0.013
   0.16666667  0.20000000  0.40000000       0.013
  -0.16666667  0.20000000 -0.40000000       0.013
   0.33333333  0.20000000  0.40000000       0.013
  -0.33333333  0.20000000 -0.40000000       0.013
   0.50000000  0.20000000  0.40000000       0.013
   0.50000000  0.20000000 -0.40000000       0.013
  -0.33333333  0.20000000  0.40000000       0.013
   0.33333333  0.20000000 -0.40000000       0.013
  -0.16666667  0.20000000  0.40000000       0.013
   0.16666667  0.20000000 -0.40000000       0.013
   0.00000000  0.40000000  0.40000000       0.013
   0.00000000  0.40000000 -0.40000000       0.013
   0.16666667  0.40000000  0.40000000       0.013
  -0.16666667  0.40000000 -0.40000000       0.013
   0.33333333  0.40000000  0.40000000       0.013
  -0.33333333  0.40000000 -0.40000000       0.013
   0.50000000  0.40000000  0.40000000       0.013
   0.50000000  0.40000000 -0.40000000       0.013
  -0.33333333  0.40000000  0.40000000       0.013
   0.33333333  0.40000000 -0.40000000       0.013
  -0.16666667  0.40000000  0.40000000       0.013
   0.16666667  0.40000000 -0.40000000       0.013
 
 position of ions in fractional coordinates (direct lattice) 
   0.74764769  0.12567188  0.97147999
   0.75235211  0.62567179  0.02852037
   0.25235211  0.87432821  0.02852039
   0.24764769  0.37432812  0.97148001
   0.89956756  0.87190397  0.73826556
   0.60043188  0.37190440  0.26173395
   0.10043188  0.12809560  0.26173396
   0.39956756  0.62809603  0.73826557
   0.89831299  0.37802613  0.73658922
   0.60168613  0.87802603  0.26341009
   0.10168613  0.62197398  0.26341010
   0.39831299  0.12197387  0.73658923
   0.90736226  0.40878525  0.23115027
   0.59263787  0.90878544  0.76884957
   0.09263787  0.59121456  0.76884961
   0.40736226  0.09121474  0.23115031
   0.90748197  0.84233206  0.23102470
   0.59251798  0.34233203  0.76897524
   0.09251798  0.15766797  0.76897525
   0.40748197  0.65766794  0.23102471
   0.80120318  0.12467124  0.44366339
   0.69879683  0.62467135  0.55633626
   0.19879683  0.87532865  0.55633628
   0.30120318  0.37532876  0.44366340
   0.79882249  0.12596821  0.67016538
   0.70117729  0.62596732  0.32983428
   0.20117729  0.87403268  0.32983429
   0.29882249  0.37403180  0.67016540
   0.71404438  0.12501673  0.30071028
   0.78595608  0.62501765  0.69928903
   0.28595608  0.87498235  0.69928905
   0.21404438  0.37498327  0.30071029
   0.84935363  0.36279120  0.03523409
   0.65064634  0.86279133  0.96476593
   0.15064635  0.63720868  0.96476595
   0.34935363  0.13720880  0.03523411
   0.84812159  0.88765646  0.03617567
   0.65187821  0.38765642  0.96382462
   0.15187821  0.11234357  0.96382463
   0.34812159  0.61234355  0.03617568
   0.00957883  0.37279120  0.23690516
   0.49042129  0.87279186  0.76309469
   0.99042129  0.62720814  0.76309475
   0.50957884  0.12720879  0.23690521
   0.00910782  0.87897159  0.23484375
   0.49089222  0.37897348  0.76515590
   0.99089222  0.12102652  0.76515590
   0.50910782  0.62102841  0.23484375
   0.86396140  0.30381239  0.40596455
   0.63603897  0.80381274  0.59403553
   0.13603896  0.69618726  0.59403555
   0.36396139  0.19618760  0.40596457
   0.86360702  0.94551430  0.40690792
   0.63639373  0.44551314  0.59309429
   0.13639373  0.05448687  0.59309430
   0.36360702  0.55448569  0.40690793
   0.89031004  0.62515462  0.27395190
   0.60969022  0.12515485  0.72604814
   0.10969022  0.37484515  0.72604817
   0.39031004  0.87484538  0.27395192
 
 position of ions in cartesian coordinates  (Angst):
  11.46735014  0.92016189  5.80164574
  11.54342412  4.58113089 -0.87669557
   3.87178893  6.40177803 -0.15995526
   3.79571497  2.74080779  6.51838606
  13.79926045  6.38402797  3.93384033
   9.21150814  2.72306144  0.99110433
   1.53987298  0.93790819  1.70784457
   6.12762530  4.59888099  4.65058058
  13.78001814  2.76788438  3.92377835
   9.23074549  6.42885326  1.00116538
   1.55911030  4.55405568  1.71790565
   6.10838297  0.89308529  4.64051862
  13.92095016  2.99310078  0.33474099
   9.08982901  6.65407183  4.59020508
   1.41819382  4.32883715  5.30694549
   6.24931498  0.66786882  1.05148142
  13.92278745  6.16750418  0.33368091
   9.08798903  2.50653432  4.59126605
   1.41635384  1.15443535  5.30800631
   6.25115225  4.81540474  1.05042119
  12.29124547  0.91283527  1.99048389
  10.71953203  4.57380568  2.93446093
   3.04789681  6.40910324  3.65120124
   4.61961025  2.74813439  2.70722422
  12.25378275  0.92233160  3.59643620
  10.75699110  4.58329468  1.32850899
   3.08535591  6.39961419  2.04524932
   4.58214755  2.73863812  4.31317654
  10.95453452  0.91536490  1.10400710
  12.05624981  4.57634127  3.82093470
   4.38461459  6.40656764  4.53767501
   3.28289931  2.74560477  1.82074741
  13.03171684  2.65633513 -0.96824467
   9.97905991  6.31730576  5.89319215
   2.30742478  4.66560324  6.60993252
   5.36008172  1.00463447 -0.25150430
  13.01280949  6.49936671 -0.95981670
   9.99796464  2.83839681  5.88476636
   2.32632942  0.82257278  6.60150664
   5.34117427  4.48354229 -0.24307643
   0.14599264  2.72955457  1.66241268
   7.52151618  6.39052902  4.69601378
  15.19315135  4.59237994  3.97927397
   7.81762782  0.93141505  0.94567288
   0.13877422  6.43577662  1.64850310
   7.52873330  2.77482083  4.70992212
  15.20036845  0.88614882  3.99318188
   7.81040936  4.54713232  0.93176287
  13.25431740  2.22449589  1.63379566
   9.75646551  5.88546808  3.29115176
   2.08483021  5.09744088  4.00789208
   5.58268212  1.43647373  2.35053599
  13.24887619  6.92299833  1.64097816
   9.76191254  3.26202014  3.28398377
   2.09027739  0.39894958  4.00072400
   5.57724103  4.05991053  2.35771840
  13.65913675  4.57734414  0.66201368
   9.35164452  0.91637624  4.26293355
   1.68000931  2.74459346  4.97967393
   5.98750154  6.40556475  1.37875406
 


--------------------------------------------------------------------------------------------------------


 k-point   1 :   0.0000 0.0000 0.0000  plane waves:   21397
 k-point   2 :   0.1667-0.0000-0.0000  plane waves:   21403
 k-point   3 :   0.3333 0.0000 0.0000  plane waves:   21379
 k-point   4 :   0.5000-0.0000-0.0000  plane waves:   21362
 k-point   5 :   0.0000 0.2000 0.0000  plane waves:   21401
 k-point   6 :   0.1667 0.2000-0.0000  plane waves:   21416
 k-point   7 :  -0.1667 0.2000-0.0000  plane waves:   21416
 k-point   8 :   0.3333 0.2000 0.0000  plane waves:   21399
 k-point   9 :  -0.3333 0.2000-0.0000  plane waves:   21399
 k-point  10 :   0.5000 0.2000-0.0000  plane waves:   21386
 k-point  11 :   0.0000 0.4000-0.0000  plane waves:   21382
 k-point  12 :   0.1667 0.4000 0.0000  plane waves:   21378
 k-point  13 :  -0.1667 0.4000-0.0000  plane waves:   21378
 k-point  14 :   0.3333 0.4000-0.0000  plane waves:   21389
 k-point  15 :  -0.3333 0.4000-0.0000  plane waves:   21389
 k-point  16 :   0.5000 0.4000 0.0000  plane waves:   21406
 k-point  17 :  -0.0000 0.0000 0.2000  plane waves:   21418
 k-point  18 :   0.1667 0.0000 0.2000  plane waves:   21418
 k-point  19 :   0.3333 0.0000 0.2000  plane waves:   21395
 k-point  20 :   0.5000 0.0000 0.2000  plane waves:   21392
 k-point  21 :  -0.3333 0.0000 0.2000  plane waves:   21393
 k-point  22 :  -0.1667 0.0000 0.2000  plane waves:   21404
 k-point  23 :  -0.0000 0.2000 0.2000  plane waves:   21393
 k-point  24 :   0.0000 0.2000-0.2000  plane waves:   21393
 k-point  25 :   0.1667 0.2000 0.2000  plane waves:   21385
 k-point  26 :  -0.1667 0.2000-0.2000  plane waves:   21385
 k-point  27 :   0.3333 0.2000 0.2000  plane waves:   21385
 k-point  28 :  -0.3333 0.2000-0.2000  plane waves:   21385
 k-point  29 :   0.5000 0.2000 0.2000  plane waves:   21396
 k-point  30 :   0.5000 0.2000-0.2000  plane waves:   21396
 k-point  31 :  -0.3333 0.2000 0.2000  plane waves:   21408
 k-point  32 :   0.3333 0.2000-0.2000  plane waves:   21408
 k-point  33 :  -0.1667 0.2000 0.2000  plane waves:   21395
 k-point  34 :   0.1667 0.2000-0.2000  plane waves:   21395
 k-point  35 :  -0.0000 0.4000 0.2000  plane waves:   21398
 k-point  36 :   0.0000 0.4000-0.2000  plane waves:   21398
 k-point  37 :   0.1667 0.4000 0.2000  plane waves:   21404
 k-point  38 :  -0.1667 0.4000-0.2000  plane waves:   21404
 k-point  39 :   0.3333 0.4000 0.2000  plane waves:   21395
 k-point  40 :  -0.3333 0.4000-0.2000  plane waves:   21395
 k-point  41 :   0.5000 0.4000 0.2000  plane waves:   21386
 k-point  42 :   0.5000 0.4000-0.2000  plane waves:   21386
 k-point  43 :  -0.3333 0.4000 0.2000  plane waves:   21360
 k-point  44 :   0.3333 0.4000-0.2000  plane waves:   21360
 k-point  45 :  -0.1667 0.4000 0.2000  plane waves:   21383
 k-point  46 :   0.1667 0.4000-0.2000  plane waves:   21383
 k-point  47 :  -0.0000 0.0000 0.4000  plane waves:   21419
 k-point  48 :   0.1667 0.0000 0.4000  plane waves:   21455
 k-point  49 :   0.3333 0.0000 0.4000  plane waves:   21445
 k-point  50 :   0.5000 0.0000 0.4000  plane waves:   21442
 k-point  51 :  -0.3333 0.0000 0.4000  plane waves:   21439
 k-point  52 :  -0.1667 0.0000 0.4000  plane waves:   21428
 k-point  53 :  -0.0000 0.2000 0.4000  plane waves:   21417
 k-point  54 :   0.0000 0.2000-0.4000  plane waves:   21417
 k-point  55 :   0.1667 0.2000 0.4000  plane waves:   21407
 k-point  56 :  -0.1667 0.2000-0.4000  plane waves:   21407
 k-point  57 :   0.3333 0.2000 0.4000  plane waves:   21413
 k-point  58 :  -0.3333 0.2000-0.4000  plane waves:   21413
 k-point  59 :   0.5000 0.2000 0.4000  plane waves:   21417
 k-point  60 :   0.5000 0.2000-0.4000  plane waves:   21417
 k-point  61 :  -0.3333 0.2000 0.4000  plane waves:   21433
 k-point  62 :   0.3333 0.2000-0.4000  plane waves:   21433
 k-point  63 :  -0.1667 0.2000 0.4000  plane waves:   21429
 k-point  64 :   0.1667 0.2000-0.4000  plane waves:   21429
 k-point  65 :   0.0000 0.4000 0.4000  plane waves:   21382
 k-point  66 :   0.0000 0.4000-0.4000  plane waves:   21382
 k-point  67 :   0.1667 0.4000 0.4000  plane waves:   21371
 k-point  68 :  -0.1667 0.4000-0.4000  plane waves:   21371
 k-point  69 :   0.3333 0.4000 0.4000  plane waves:   21371
 k-point  70 :  -0.3333 0.4000-0.4000  plane waves:   21371
 k-point  71 :   0.5000 0.4000 0.4000  plane waves:   21397
 k-point  72 :   0.5000 0.4000-0.4000  plane waves:   21397
 k-point  73 :  -0.3333 0.4000 0.4000  plane waves:   21391
 k-point  74 :   0.3333 0.4000-0.4000  plane waves:   21391
 k-point  75 :  -0.1667 0.4000 0.4000  plane waves:   21393
 k-point  76 :   0.1667 0.4000-0.4000  plane waves:   21393

 maximum and minimum number of plane-waves per node :      5437     5291

 maximum number of plane-waves:     21455
 maximum index in each direction: 
   IXMAX=   28   IYMAX=   13   IZMAX=   13
   IXMIN=  -29   IYMIN=  -14   IZMIN=  -13


 real space projection operators:
  total allocation   :      20287.25 KBytes
  max/ min on nodes  :       5084.38       5054.38


 parallel 3D FFT for wavefunctions:
    minimum data exchange during FFTs selected (reduces bandwidth)
 parallel 3D FFT for charge:
    minimum data exchange during FFTs selected (reduces bandwidth)


 total amount of memory used by VASP MPI-rank0   598716. kBytes
=======================================================================

   base      :      30000. kBytes
   nonlr-proj:      13675. kBytes
   fftplans  :       6594. kBytes
   grid      :      24990. kBytes
   one-center:        466. kBytes
   wavefun   :     522991. kBytes
 
     INWAV:  cpu time    0.0000: real time    0.0000
 Broyden mixing: mesh for mixing (old mesh)
   NGX = 57   NGY = 27   NGZ = 27
  (NGX  =240   NGY  =108   NGZ  =108)
  gives a total of  41553 points

 initial charge density was supplied:
 number of electron     383.9999981 magnetization      -0.0000000
 keeping initial charge density in first step


--------------------------------------------------------------------------------------------------------


 Maximum index for non-local projection operator         1788
 Maximum index for augmentation-charges          912 (set IRDMAX)


--------------------------------------------------------------------------------------------------------


 First call to EWALD:  gamma=   0.191
 Maximum number of real-space cells 2x 3x 3
 Maximum number of reciprocal cells 4x 2x 2

    FEWALD:  cpu time    0.0028: real time    0.0028


--------------------------------------- Iteration      1(   1)  ---------------------------------------


    POTLOK:  cpu time    0.3134: real time    0.3159
    SETDIJ:  cpu time    2.2090: real time    2.2091
     EDDAV:  cpu time  433.8958: real time  433.9299
       DOS:  cpu time    0.0151: real time    0.0151
    --------------------------------------------
      LOOP:  cpu time  436.4333: real time  436.4700

 eigenvalue-minimisations  : 71304
 total energy-change (2. order) : 0.3435379E+04  (-0.1966296E+05)
 number of electron     383.9999981 magnetization      -0.0000000
 augmentation part      383.9999981 magnetization      -0.0000000

 Free energy of the ion-electron system (eV)
  ---------------------------------------------------
  alpha Z        PSCENC =      1187.61292737
  Ewald energy   TEWEN  =    -20406.68023348
  -Hartree energ DENC   =     -8402.33867022
  -exchange      EXHF   =         0.00000000
  -V(xc)+E(xc)   XCENC  =      1757.78643966
  PAW double counting   =     52411.83903637   -52475.85272351
  entropy T*S    EENTRO =        -0.01471202
  eigenvalues    EBANDS =       488.27950371
  atomic energy  EATOM  =     28874.74786550
  Solvation  Ediel_sol  =         0.00000000
  ---------------------------------------------------
  free energy    TOTEN  =      3435.37943338 eV

  energy without entropy =     3435.39414540  energy(sigma->0) =     3435.38678939


--------------------------------------------------------------------------------------------------------




--------------------------------------- Iteration      1(   2)  ---------------------------------------


     EDDAV:  cpu time  485.0878: real time  485.1181
       DOS:  cpu time    0.0061: real time    0.0061
    --------------------------------------------
      LOOP:  cpu time  485.0939: real time  485.1242

 eigenvalue-minimisations  : 85854
 total energy-change (2. order) :-0.3827092E+04  (-0.3690115E+04)
 number of electron     383.9999981 magnetization      -0.0000000
 augmentation part      383.9999981 magnetization      -0.0000000

 Free energy of the ion-electron system (eV)
  ---------------------------------------------------
  alpha Z        PSCENC =      1187.61292737
  Ewald energy   TEWEN  =    -20406.68023348
  -Hartree energ DENC   =     -8402.33867022
  -exchange      EXHF   =         0.00000000
  -V(xc)+E(xc)   XCENC  =      1757.78643966
  PAW double counting   =     52411.83903637   -52475.85272351
  entropy T*S    EENTRO =        -0.00000000
  eigenvalues    EBANDS =     -3338.82690095
  atomic energy  EATOM  =     28874.74786550
  Solvation  Ediel_sol  =         0.00000000
  ---------------------------------------------------
  free energy    TOTEN  =      -391.71225927 eV

  energy without entropy =     -391.71225927  energy(sigma->0) =     -391.71225927


--------------------------------------------------------------------------------------------------------




--------------------------------------- Iteration      1(   3)  ---------------------------------------


     EDDAV:  cpu time  495.4607: real time  495.4921
       DOS:  cpu time    0.0060: real time    0.0060
    --------------------------------------------
      LOOP:  cpu time  495.4667: real time  495.4981

 eigenvalue-minimisations  : 88518
 total energy-change (2. order) :-0.3672667E+03  (-0.3649811E+03)
 number of electron     383.9999981 magnetization      -0.0000000
 augmentation part      383.9999981 magnetization      -0.0000000

 Free energy of the ion-electron system (eV)
  ---------------------------------------------------
  alpha Z        PSCENC =      1187.61292737
  Ewald energy   TEWEN  =    -20406.68023348
  -Hartree energ DENC   =     -8402.33867022
  -exchange      EXHF   =         0.00000000
  -V(xc)+E(xc)   XCENC  =      1757.78643966
  PAW double counting   =     52411.83903637   -52475.85272351
  entropy T*S    EENTRO =        -0.00000000
  eigenvalues    EBANDS =     -3706.09359096
  atomic energy  EATOM  =     28874.74786550
  Solvation  Ediel_sol  =         0.00000000
  ---------------------------------------------------
  free energy    TOTEN  =      -758.97894928 eV

  energy without entropy =     -758.97894928  energy(sigma->0) =     -758.97894928


--------------------------------------------------------------------------------------------------------




--------------------------------------- Iteration      1(   4)  ---------------------------------------


     EDDAV:  cpu time  591.6940: real time  591.7313
       DOS:  cpu time    0.0059: real time    0.0059
    --------------------------------------------
      LOOP:  cpu time  591.6999: real time  591.7372

 eigenvalue-minimisations  :115656
 total energy-change (2. order) :-0.1840867E+02  (-0.1836947E+02)
 number of electron     383.9999981 magnetization      -0.0000000
 augmentation part      383.9999981 magnetization      -0.0000000

 Free energy of the ion-electron system (eV)
  ---------------------------------------------------
  alpha Z        PSCENC =      1187.61292737
  Ewald energy   TEWEN  =    -20406.68023348
  -Hartree energ DENC   =     -8402.33867022
  -exchange      EXHF   =         0.00000000
  -V(xc)+E(xc)   XCENC  =      1757.78643966
  PAW double counting   =     52411.83903637   -52475.85272351
  entropy T*S    EENTRO =        -0.00000000
  eigenvalues    EBANDS =     -3724.50226581
  atomic energy  EATOM  =     28874.74786550
  Solvation  Ediel_sol  =         0.00000000
  ---------------------------------------------------
  free energy    TOTEN  =      -777.38762412 eV

  energy without entropy =     -777.38762412  energy(sigma->0) =     -777.38762412


--------------------------------------------------------------------------------------------------------




--------------------------------------- Iteration      1(   5)  ---------------------------------------


     EDDAV:  cpu time  590.5520: real time  590.5878
       DOS:  cpu time    0.0057: real time    0.0057
    CHARGE:  cpu time   72.3569: real time   72.3613
    MIXING:  cpu time    0.0043: real time    0.0043
    --------------------------------------------
      LOOP:  cpu time  662.9189: real time  662.9590

 eigenvalue-minimisations  :115368
 total energy-change (2. order) :-0.1476798E+01  (-0.1476283E+01)
 number of electron     383.9999982 magnetization      -0.0000000
 augmentation part       51.0426343 magnetization      -0.0031543

 Broyden mixing:
  rms(total) = 0.63293E+00    rms(broyden)= 0.63256E+00
  rms(prec ) = 0.70834E+00
  weight for this iteration     100.00

 Free energy of the ion-electron system (eV)
  ---------------------------------------------------
  alpha Z        PSCENC =      1187.61292737
  Ewald energy   TEWEN  =    -20406.68023348
  -Hartree energ DENC   =     -8402.33867022
  -exchange      EXHF   =         0.00000000
  -V(xc)+E(xc)   XCENC  =      1757.78643966
  PAW double counting   =     52411.83903637   -52475.85272351
  entropy T*S    EENTRO =        -0.00000000
  eigenvalues    EBANDS =     -3725.97906337
  atomic energy  EATOM  =     28874.74786550
  Solvation  Ediel_sol  =         0.00000000
  ---------------------------------------------------
  free energy    TOTEN  =      -778.86442168 eV

  energy without entropy =     -778.86442168  energy(sigma->0) =     -778.86442168


--------------------------------------------------------------------------------------------------------




--------------------------------------- Iteration      1(   6)  ---------------------------------------


    POTLOK:  cpu time    0.3021: real time    0.3021
    SETDIJ:  cpu time    2.2123: real time    2.2123
     EDDAV:  cpu time  458.8258: real time  458.8546
       DOS:  cpu time    0.0058: real time    0.0058
    CHARGE:  cpu time   73.3529: real time   73.3574
    MIXING:  cpu time    0.0044: real time    0.0044
    --------------------------------------------
      LOOP:  cpu time  534.7033: real time  534.7368

 eigenvalue-minimisations  : 77844
 total energy-change (2. order) : 0.1204788E+03  (-0.4066478E+01)
 number of electron     383.9999981 magnetization      -0.0000000
 augmentation part       54.0913941 magnetization      -0.0015768

 Broyden mixing:
  rms(total) = 0.56131E+00    rms(broyden)= 0.56057E+00
  rms(prec ) = 0.62569E+00
  weight for this iteration     100.00

 eigenvalues of (default mixing * dielectric matrix)
  average eigenvalue GAMMA=   0.5306
  0.5306

 Free energy of the ion-electron system (eV)
  ---------------------------------------------------
  alpha Z        PSCENC =      1187.61292737
  Ewald energy   TEWEN  =    -20406.68023348
  -Hartree energ DENC   =     -8317.01675549
  -exchange      EXHF   =         0.00000000
  -V(xc)+E(xc)   XCENC  =      1799.05704367
  PAW double counting   =     52666.09407443   -52722.93104688
  entropy T*S    EENTRO =        -0.00000000
  eigenvalues    EBANDS =     -3739.26946392
  atomic energy  EATOM  =     28874.74786550
  Solvation  Ediel_sol  =         0.00000000
  ---------------------------------------------------
  free energy    TOTEN  =      -658.38558880 eV

  energy without entropy =     -658.38558880  energy(sigma->0) =     -658.38558880


--------------------------------------------------------------------------------------------------------




--------------------------------------- Iteration      1(   7)  ---------------------------------------


    POTLOK:  cpu time    0.2995: real time    0.2995
    SETDIJ:  cpu time    2.2113: real time    2.2113
     EDDAV:  cpu time  535.5337: real time  535.5673
       DOS:  cpu time    0.0060: real time    0.0060
    CHARGE:  cpu time   72.5316: real time   72.5359
    MIXING:  cpu time    0.0044: real time    0.0044
    --------------------------------------------
      LOOP:  cpu time  610.5864: real time  610.6244

 eigenvalue-minimisations  : 99324
 total energy-change (2. order) : 0.2831503E+00  (-0.2566824E+00)
 number of electron     383.9999981 magnetization      -0.0000000
 augmentation part       54.1113381 magnetization      -0.0003628

 Broyden mixing:
  rms(total) = 0.32104E+00    rms(broyden)= 0.32104E+00
  rms(prec ) = 0.35950E+00
  weight for this iteration     100.00

 eigenvalues of (default mixing * dielectric matrix)
  average eigenvalue GAMMA=   0.5948
  0.5948  0.5948

 Free energy of the ion-electron system (eV)
  ---------------------------------------------------
  alpha Z        PSCENC =      1187.61292737
  Ewald energy   TEWEN  =    -20406.68023348
  -Hartree energ DENC   =     -8357.06567471
  -exchange      EXHF   =         0.00000000
  -V(xc)+E(xc)   XCENC  =      1807.32316290
  PAW double counting   =     52556.78114241   -52614.26308046
  entropy T*S    EENTRO =        -0.00000000
  eigenvalues    EBANDS =     -3706.55854798
  atomic energy  EATOM  =     28874.74786550
  Solvation  Ediel_sol  =         0.00000000
  ---------------------------------------------------
  free energy    TOTEN  =      -658.10243845 eV

  energy without entropy =     -658.10243845  energy(sigma->0) =     -658.10243845


--------------------------------------------------------------------------------------------------------




--------------------------------------- Iteration      1(   8)  ---------------------------------------


    POTLOK:  cpu time    0.2994: real time    0.2994
    SETDIJ:  cpu time    2.2111: real time    2.2112
     EDDAV:  cpu time  520.8973: real time  520.9299
       DOS:  cpu time    0.0058: real time    0.0062
    CHARGE:  cpu time   72.4610: real time   72.4653
    MIXING:  cpu time    0.0045: real time    0.0045
    --------------------------------------------
      LOOP:  cpu time  595.8792: real time  595.9165

 eigenvalue-minimisations  : 95280
 total energy-change (2. order) : 0.1657430E+00  (-0.2442663E-01)
 number of electron     383.9999981 magnetization      -0.0000000
 augmentation part       54.0544598 magnetization      -0.0001344

 Broyden mixing:
  rms(total) = 0.21161E+00    rms(broyden)= 0.21160E+00
  rms(prec ) = 0.23688E+00
  weight for this iteration     100.00

 eigenvalues of (default mixing * dielectric matrix)
  average eigenvalue GAMMA=   0.7513
  0.5945  0.8297  0.8297

 Free energy of the ion-electron system (eV)
  ---------------------------------------------------
  alpha Z        PSCENC =      1187.61292737
  Ewald energy   TEWEN  =    -20406.68023348
  -Hartree energ DENC   =     -8372.10136264
  -exchange      EXHF   =         0.00000000
  -V(xc)+E(xc)   XCENC  =      1807.27762078
  PAW double counting   =     52617.29045855   -52676.20767953
  entropy T*S    EENTRO =        -0.00000000
  eigenvalues    EBANDS =     -3689.87629205
  atomic energy  EATOM  =     28874.74786550
  Solvation  Ediel_sol  =         0.00000000
  ---------------------------------------------------
  free energy    TOTEN  =      -657.93669550 eV

  energy without entropy =     -657.93669550  energy(sigma->0) =     -657.93669550


--------------------------------------------------------------------------------------------------------




--------------------------------------- Iteration      1(   9)  ---------------------------------------


    POTLOK:  cpu time    0.2990: real time    0.2992
    SETDIJ:  cpu time    2.2111: real time    2.2112
     EDDAV:  cpu time  486.7616: real time  486.7919
       DOS:  cpu time    0.0060: real time    0.0060
    CHARGE:  cpu time   72.5004: real time   72.5047
    MIXING:  cpu time    0.0046: real time    0.0046
    --------------------------------------------
      LOOP:  cpu time  561.7827: real time  561.8175

 eigenvalue-minimisations  : 85788
 total energy-change (2. order) : 0.7443933E-01  (-0.8301612E-02)
 number of electron     383.9999981 magnetization      -0.0000000
 augmentation part       53.9977891 magnetization      -0.0001040

 Broyden mixing:
  rms(total) = 0.13405E+00    rms(broyden)= 0.13404E+00
  rms(prec ) = 0.15018E+00
  weight for this iteration     100.00

 eigenvalues of (default mixing * dielectric matrix)
  average eigenvalue GAMMA=   0.8162
  1.0129  1.0129  0.6195  0.6195

 Free energy of the ion-electron system (eV)
  ---------------------------------------------------
  alpha Z        PSCENC =      1187.61292737
  Ewald energy   TEWEN  =    -20406.68023348
  -Hartree energ DENC   =     -8382.55097327
  -exchange      EXHF   =         0.00000000
  -V(xc)+E(xc)   XCENC  =      1807.50413892
  PAW double counting   =     52605.71562305   -52666.11850402
  entropy T*S    EENTRO =        -0.00000000
  eigenvalues    EBANDS =     -3678.09310024
  atomic energy  EATOM  =     28874.74786550
  Solvation  Ediel_sol  =         0.00000000
  ---------------------------------------------------
  free energy    TOTEN  =      -657.86225616 eV

  energy without entropy =     -657.86225616  energy(sigma->0) =     -657.86225616


--------------------------------------------------------------------------------------------------------




--------------------------------------- Iteration      1(  10)  ---------------------------------------


    POTLOK:  cpu time    0.2991: real time    0.2991
    SETDIJ:  cpu time    2.2109: real time    2.2110
     EDDAV:  cpu time  481.4611: real time  481.4907
       DOS:  cpu time    0.0059: real time    0.0059
    CHARGE:  cpu time   72.4491: real time   72.4534
    MIXING:  cpu time    0.0047: real time    0.0047
    --------------------------------------------
      LOOP:  cpu time  556.4308: real time  556.4648

 eigenvalue-minimisations  : 84036
 total energy-change (2. order) : 0.2539146E-01  (-0.1773114E-02)
 number of electron     383.9999981 magnetization      -0.0000000
 augmentation part       53.9658029 magnetization      -0.0000854

 Broyden mixing:
  rms(total) = 0.99317E-01    rms(broyden)= 0.99313E-01
  rms(prec ) = 0.11117E+00
  weight for this iteration     100.00

 eigenvalues of (default mixing * dielectric matrix)
  average eigenvalue GAMMA=   0.7996
  1.1048  1.1048  0.6267  0.6267  0.5349

 Free energy of the ion-electron system (eV)
  ---------------------------------------------------
  alpha Z        PSCENC =      1187.61292737
  Ewald energy   TEWEN  =    -20406.68023348
  -Hartree energ DENC   =     -8387.57107578
  -exchange      EXHF   =         0.00000000
  -V(xc)+E(xc)   XCENC  =      1807.52629188
  PAW double counting   =     52576.63275278   -52637.87012051
  entropy T*S    EENTRO =        -0.00000000
  eigenvalues    EBANDS =     -3672.23527247
  atomic energy  EATOM  =     28874.74786550
  Solvation  Ediel_sol  =         0.00000000
  ---------------------------------------------------
  free energy    TOTEN  =      -657.83686470 eV

  energy without entropy =     -657.83686470  energy(sigma->0) =     -657.83686470


--------------------------------------------------------------------------------------------------------




--------------------------------------- Iteration      1(  11)  ---------------------------------------


    POTLOK:  cpu time    0.2995: real time    0.2995
    SETDIJ:  cpu time    2.2112: real time    2.2113
     EDDAV:  cpu time  531.6963: real time  531.7291
       DOS:  cpu time    0.0062: real time    0.0062
    CHARGE:  cpu time   72.7375: real time   72.7418
    MIXING:  cpu time    0.0047: real time    0.0047
    --------------------------------------------
      LOOP:  cpu time  606.9554: real time  606.9926

 eigenvalue-minimisations  : 98040
 total energy-change (2. order) : 0.6060853E-02  (-0.1867641E-03)
 number of electron     383.9999981 magnetization      -0.0000000
 augmentation part       53.9594154 magnetization      -0.0000798

 Broyden mixing:
  rms(total) = 0.89859E-01    rms(broyden)= 0.89858E-01
  rms(prec ) = 0.10055E+00
  weight for this iteration     100.00

 eigenvalues of (default mixing * dielectric matrix)
  average eigenvalue GAMMA=   0.6740
  1.1076  1.1076  0.6227  0.6227  0.5280  0.0552

 Free energy of the ion-electron system (eV)
  ---------------------------------------------------
  alpha Z        PSCENC =      1187.61292737
  Ewald energy   TEWEN  =    -20406.68023348
  -Hartree energ DENC   =     -8388.94868511
  -exchange      EXHF   =         0.00000000
  -V(xc)+E(xc)   XCENC  =      1807.47507821
[...]
   -.112E+03 -.430E+02 0.210E+02   0.112E+03 0.422E+02 -.198E+02   -.709E+00 0.860E+00 -.119E+01   -.433E-04 -.186E-03 0.382E-03
   -.929E+02 -.436E+02 0.233E+02   0.927E+02 0.429E+02 -.221E+02   0.216E+00 0.767E+00 -.123E+01   -.143E-03 -.195E-03 0.378E-03
   0.929E+02 -.436E+02 -.233E+02   -.927E+02 0.429E+02 0.221E+02   -.216E+00 0.767E+00 0.123E+01   0.139E-03 -.197E-03 -.383E-03
   0.929E+02 0.436E+02 -.233E+02   -.927E+02 -.429E+02 0.221E+02   -.216E+00 -.767E+00 0.123E+01   0.139E-03 0.196E-03 -.380E-03
   -.929E+02 0.436E+02 0.233E+02   0.927E+02 -.429E+02 -.221E+02   0.216E+00 -.767E+00 -.123E+01   -.139E-03 0.196E-03 0.378E-03
   -.428E+02 0.212E+02 -.111E+02   0.454E+02 -.220E+02 0.703E+01   -.246E+01 0.778E+00 0.389E+01   0.495E-04 -.371E-04 -.160E-03
   0.428E+02 0.212E+02 0.111E+02   -.454E+02 -.220E+02 -.703E+01   0.246E+01 0.778E+00 -.390E+01   -.501E-04 -.371E-04 0.160E-03
   0.428E+02 -.212E+02 0.111E+02   -.454E+02 0.220E+02 -.703E+01   0.246E+01 -.778E+00 -.390E+01   -.510E-04 0.375E-04 0.160E-03
   -.428E+02 -.212E+02 -.111E+02   0.454E+02 0.220E+02 0.703E+01   -.246E+01 -.778E+00 0.389E+01   0.512E-04 0.375E-04 -.160E-03
   -.410E+02 -.206E+02 -.102E+02   0.447E+02 0.219E+02 0.598E+01   -.342E+01 -.121E+01 0.402E+01   0.825E-04 0.471E-04 -.167E-03
   0.410E+02 -.206E+02 0.102E+02   -.447E+02 0.219E+02 -.598E+01   0.342E+01 -.121E+01 -.402E+01   -.833E-04 0.473E-04 0.167E-03
   0.410E+02 0.206E+02 0.102E+02   -.447E+02 -.219E+02 -.598E+01   0.342E+01 0.121E+01 -.402E+01   -.840E-04 -.477E-04 0.167E-03
   -.410E+02 0.206E+02 -.102E+02   0.447E+02 -.219E+02 0.598E+01   -.342E+01 0.121E+01 0.402E+01   0.837E-04 -.472E-04 -.167E-03
   0.190E+02 0.134E+00 0.117E+02   -.221E+02 -.308E+00 -.941E+01   0.300E+01 0.162E+00 -.215E+01   -.138E-03 -.395E-05 0.617E-04
   -.189E+02 0.134E+00 -.117E+02   0.221E+02 -.308E+00 0.941E+01   -.300E+01 0.162E+00 0.215E+01   0.138E-03 -.359E-05 -.620E-04
   -.189E+02 -.134E+00 -.117E+02   0.221E+02 0.308E+00 0.941E+01   -.300E+01 -.162E+00 0.215E+01   0.139E-03 0.366E-05 -.618E-04
   0.190E+02 -.134E+00 0.117E+02   -.221E+02 0.308E+00 -.941E+01   0.300E+01 -.162E+00 -.215E+01   -.137E-03 0.363E-05 0.619E-04
   0.539E+02 0.290E+01 -.124E+02   -.580E+02 -.290E+01 0.378E+02   0.404E+01 -.305E-03 -.254E+02   0.981E-04 -.583E-05 0.574E-03
   -.539E+02 0.290E+01 0.124E+02   0.580E+02 -.290E+01 -.378E+02   -.404E+01 -.242E-03 0.254E+02   -.973E-04 -.492E-05 -.575E-03
   -.539E+02 -.290E+01 0.124E+02   0.580E+02 0.290E+01 -.378E+02   -.404E+01 0.244E-03 0.254E+02   -.963E-04 0.529E-05 -.575E-03
   0.539E+02 -.290E+01 -.124E+02   -.580E+02 0.290E+01 0.378E+02   0.404E+01 0.304E-03 -.254E+02   0.101E-03 0.543E-05 0.575E-03
   0.519E+02 -.237E+01 -.332E+02   -.744E+02 0.254E+01 0.201E+02   0.225E+02 -.189E+00 0.131E+02   -.421E-03 0.642E-05 -.396E-03
   -.519E+02 -.237E+01 0.332E+02   0.744E+02 0.254E+01 -.201E+02   -.225E+02 -.189E+00 -.131E+02   0.422E-03 0.820E-05 0.395E-03
   -.519E+02 0.237E+01 0.332E+02   0.744E+02 -.254E+01 -.201E+02   -.225E+02 0.189E+00 -.131E+02   0.424E-03 -.762E-05 0.395E-03
   0.519E+02 0.237E+01 -.332E+02   -.744E+02 -.254E+01 0.201E+02   0.225E+02 0.189E+00 0.131E+02   -.419E-03 -.735E-05 -.395E-03
   -.572E+02 0.350E+02 0.142E+02   0.441E+02 -.412E+02 -.335E+02   0.131E+02 0.618E+01 0.193E+02   -.310E-03 -.895E-04 -.431E-03
   0.572E+02 0.350E+02 -.142E+02   -.441E+02 -.412E+02 0.335E+02   -.131E+02 0.618E+01 -.193E+02   0.310E-03 -.905E-04 0.431E-03
   0.572E+02 -.350E+02 -.142E+02   -.441E+02 0.412E+02 0.335E+02   -.131E+02 -.618E+01 -.193E+02   0.310E-03 0.900E-04 0.432E-03
   -.572E+02 -.350E+02 0.142E+02   0.441E+02 0.412E+02 -.335E+02   0.131E+02 -.618E+01 0.193E+02   -.309E-03 0.901E-04 -.431E-03
   -.589E+02 -.351E+02 0.174E+02   0.457E+02 0.412E+02 -.364E+02   0.132E+02 -.610E+01 0.190E+02   -.306E-03 0.849E-04 -.437E-03
   0.589E+02 -.351E+02 -.174E+02   -.457E+02 0.412E+02 0.364E+02   -.132E+02 -.610E+01 -.190E+02   0.305E-03 0.856E-04 0.435E-03
   0.589E+02 0.351E+02 -.174E+02   -.457E+02 -.412E+02 0.364E+02   -.132E+02 0.610E+01 -.190E+02   0.305E-03 -.858E-04 0.435E-03
   -.589E+02 0.351E+02 0.174E+02   0.457E+02 -.412E+02 -.364E+02   0.132E+02 0.610E+01 0.190E+02   -.304E-03 -.854E-04 -.437E-03
   -.155E+02 0.315E+02 0.301E+01   0.405E+02 -.365E+02 -.540E+01   -.250E+02 0.505E+01 0.241E+01   0.478E-03 -.890E-04 -.117E-03
   0.155E+02 0.315E+02 -.301E+01   -.405E+02 -.365E+02 0.540E+01   0.250E+02 0.505E+01 -.241E+01   -.480E-03 -.883E-04 0.118E-03
   0.155E+02 -.315E+02 -.301E+01   -.405E+02 0.365E+02 0.540E+01   0.250E+02 -.505E+01 -.241E+01   -.483E-03 0.895E-04 0.117E-03
   -.155E+02 -.315E+02 0.301E+01   0.405E+02 0.365E+02 -.540E+01   -.250E+02 -.505E+01 0.241E+01   0.481E-03 0.890E-04 -.118E-03
   -.299E+01 -.308E+02 0.210E+02   0.295E+02 0.359E+02 -.239E+02   -.265E+02 -.514E+01 0.284E+01   0.496E-03 0.943E-04 -.170E-03
   0.299E+01 -.308E+02 -.210E+02   -.295E+02 0.359E+02 0.239E+02   0.265E+02 -.514E+01 -.284E+01   -.496E-03 0.932E-04 0.170E-03
   0.299E+01 0.308E+02 -.210E+02   -.295E+02 -.359E+02 0.239E+02   0.265E+02 0.514E+01 -.284E+01   -.498E-03 -.940E-04 0.170E-03
   -.299E+01 0.308E+02 0.210E+02   0.295E+02 -.359E+02 -.239E+02   -.265E+02 0.514E+01 0.284E+01   0.498E-03 -.938E-04 -.171E-03
   -.495E+02 -.268E+02 -.681E+01   0.530E+02 0.343E+02 0.204E+02   -.343E+01 -.749E+01 -.136E+02   0.795E-05 0.796E-04 0.155E-03
   0.495E+02 -.268E+02 0.681E+01   -.530E+02 0.343E+02 -.204E+02   0.343E+01 -.749E+01 0.136E+02   -.726E-05 0.779E-04 -.155E-03
   0.495E+02 0.268E+02 0.681E+01   -.530E+02 -.343E+02 -.204E+02   0.343E+01 0.749E+01 0.136E+02   -.813E-05 -.779E-04 -.155E-03
   -.495E+02 0.268E+02 -.681E+01   0.530E+02 -.343E+02 0.204E+02   -.343E+01 0.749E+01 -.136E+02   0.943E-05 -.784E-04 0.155E-03
   -.504E+02 0.291E+02 -.104E+02   0.540E+02 -.373E+02 0.240E+02   -.367E+01 0.825E+01 -.136E+02   0.193E-04 -.944E-04 0.160E-03
   0.504E+02 0.291E+02 0.104E+02   -.540E+02 -.373E+02 -.240E+02   0.367E+01 0.825E+01 0.136E+02   -.208E-04 -.939E-04 -.160E-03
   0.504E+02 -.291E+02 0.104E+02   -.540E+02 0.373E+02 -.240E+02   0.367E+01 -.825E+01 0.136E+02   -.211E-04 0.934E-04 -.159E-03
   -.504E+02 -.291E+02 -.104E+02   0.540E+02 0.373E+02 0.240E+02   -.367E+01 -.825E+01 -.136E+02   0.213E-04 0.935E-04 0.160E-03
   -.453E+02 -.682E+00 -.831E+02   0.365E+02 0.119E+01 0.969E+02   0.880E+01 -.496E+00 -.139E+02   -.135E-03 0.193E-04 0.367E-04
   0.453E+02 -.682E+00 0.831E+02   -.365E+02 0.119E+01 -.969E+02   -.880E+01 -.496E+00 0.139E+02   0.134E-03 0.200E-04 -.358E-04
   0.453E+02 0.682E+00 0.831E+02   -.365E+02 -.119E+01 -.969E+02   -.880E+01 0.496E+00 0.139E+02   0.134E-03 -.200E-04 -.357E-04
   -.453E+02 0.682E+00 -.831E+02   0.365E+02 -.119E+01 0.969E+02   0.880E+01 0.496E+00 -.139E+02   -.134E-03 -.196E-04 0.365E-04
 -----------------------------------------------------------------------------------------------
   0.333E-02 0.142E-05 -.126E-02   -.313E-12 -.453E-13 0.114E-12   -.325E-02 -.435E-06 0.128E-02   -.494E-05 -.133E-05 -.423E-05
 
 
 POSITION                                       TOTAL-FORCE (eV/Angst)
 -----------------------------------------------------------------------------------
     11.46735      0.92016      5.80165        -0.002275     -0.012559     -0.002707
     11.54342      4.58113     -0.87670         0.002262     -0.012567      0.002682
      3.87179      6.40178     -0.15996         0.002262      0.012567      0.002681
      3.79571      2.74081      6.51839        -0.002276      0.012559     -0.002707
     13.79926      6.38403      3.93384         0.027417     -0.005920      0.007353
      9.21151      2.72306      0.99110        -0.027427     -0.005952     -0.007329
      1.53987      0.93791      1.70784        -0.027428      0.005953     -0.007329
      6.12763      4.59888      4.65058         0.027417      0.005920      0.007353
     13.78002      2.76788      3.92378        -0.007500     -0.003610     -0.007480
      9.23075      6.42885      1.00117         0.007530     -0.003608      0.007483
      1.55911      4.55406      1.71791         0.007530      0.003607      0.007483
      6.10838      0.89309      4.64052        -0.007500      0.003610     -0.007480
     13.92095      2.99310      0.33474         0.005059     -0.003246     -0.017207
      9.08983      6.65407      4.59021        -0.005065     -0.003200      0.017213
      1.41819      4.32884      5.30695        -0.005065      0.003199      0.017212
      6.24931      0.66787      1.05148         0.005059      0.003246     -0.017207
     13.92279      6.16750      0.33368         0.004959      0.005074     -0.005863
      9.08799      2.50653      4.59127        -0.005015      0.004983      0.006033
      1.41635      1.15444      5.30801        -0.005015     -0.004983      0.006033
      6.25115      4.81540      1.05042         0.004960     -0.005074     -0.005863
     12.29125      0.91284      1.99048        -0.005216     -0.003452     -0.002084
     10.71953      4.57381      2.93446         0.005182     -0.003549      0.002171
      3.04790      6.40910      3.65120         0.005182      0.003549      0.002171
      4.61961      2.74813      2.70722        -0.005216      0.003451     -0.002084
     12.25378      0.92233      3.59644        -0.006524     -0.005765      0.005672
     10.75699      4.58329      1.32851         0.006491     -0.005766     -0.005633
      3.08536      6.39961      2.04525         0.006491      0.005767     -0.005633
      4.58215      2.73864      4.31318        -0.006525      0.005765      0.005672
     10.95453      0.91536      1.10401        -0.005656     -0.015631     -0.008072
     12.05625      4.57634      3.82093         0.005646     -0.015634      0.008067
      4.38461      6.40657      4.53768         0.005645      0.015634      0.008067
      3.28290      2.74560      1.82075        -0.005656      0.015631     -0.008072
     13.03172      2.65634     -0.96824        -0.007580     -0.010728     -0.003907
      9.97906      6.31731      5.89319         0.007579     -0.010743      0.003923
      2.30742      4.66560      6.60993         0.007579      0.010743      0.003923
      5.36008      1.00463     -0.25150        -0.007580      0.010728     -0.003908
     13.01281      6.49937     -0.95982        -0.003006     -0.002046     -0.005689
      9.99796      2.83840      5.88477         0.003017     -0.002050      0.005766
      2.32633      0.82257      6.60151         0.003017      0.002050      0.005765
      5.34117      4.48354     -0.24308        -0.003006      0.002045     -0.005689
      0.14599      2.72955      1.66241         0.004471     -0.014768      0.014314
      7.52152      6.39053      4.69601        -0.004469     -0.014748     -0.014317
     15.19315      4.59238      3.97927        -0.004469      0.014748     -0.014318
      7.81763      0.93142      0.94567         0.004471      0.014768      0.014314
      0.13877      6.43578      1.64850         0.013574     -0.005127      0.011322
      7.52873      2.77482      4.70992        -0.013566     -0.005166     -0.011321
     15.20037      0.88615      3.99318        -0.013566      0.005167     -0.011320
      7.81041      4.54713      0.93176         0.013574      0.005127      0.011323
     13.25432      2.22450      1.63380         0.000763      0.008834      0.009510
      9.75647      5.88547      3.29115        -0.000769      0.008803     -0.009540
      2.08483      5.09744      4.00789        -0.000768     -0.008802     -0.009540
      5.58268      1.43647      2.35054         0.000763     -0.008834      0.009511
     13.24888      6.92300      1.64098        -0.010063     -0.007143     -0.006727
      9.76191      3.26202      3.28398         0.010212     -0.006849      0.006355
      2.09028      0.39895      4.00072         0.010212      0.006849      0.006355
      5.57724      4.05991      2.35772        -0.010063      0.007143     -0.006727
     13.65914      4.57734      0.66201        -0.002758      0.009092     -0.010167
      9.35164      0.91638      4.26293         0.002728      0.009075      0.010182
      1.68001      2.74459      4.97967         0.002728     -0.009076      0.010182
      5.98750      6.40556      1.37875        -0.002758     -0.009091     -0.010167
 -----------------------------------------------------------------------------------
    total drift:                                0.000067     -0.000000      0.000019


--------------------------------------------------------------------------------------------------------



  FREE ENERGIE OF THE ION-ELECTRON SYSTEM (eV)
  ---------------------------------------------------
  free  energy   TOTEN  =      -657.79926433 eV

  energy  without entropy=     -657.79926433  energy(sigma->0) =     -657.79926433
 


--------------------------------------------------------------------------------------------------------


    POTLOK:  cpu time    2.5098: real time    2.5104


--------------------------------------------------------------------------------------------------------




--------------------------------------------------------------------------------------------------------


  
 reached required accuracy - stopping structural energy minimisation
     LOOP+:  cpu time13180.2334: real time13181.2951
    4ORBIT:  cpu time    0.0000: real time    0.0000
 


 total charge     
 
# of ion       s       p       d       tot
------------------------------------------
    1        2.025   5.876   0.231   8.133
    2        2.025   5.876   0.231   8.133
    3        2.025   5.876   0.231   8.133
    4        2.025   5.876   0.231   8.133
    5        2.025   5.875   0.226   8.126
    6        2.025   5.875   0.226   8.126
    7        2.025   5.875   0.226   8.126
    8        2.025   5.875   0.226   8.126
    9        2.025   5.874   0.225   8.124
   10        2.025   5.874   0.225   8.124
   11        2.025   5.874   0.225   8.124
   12        2.025   5.874   0.225   8.124
   13        0.653   1.019   0.000   1.671
   14        0.653   1.019   0.000   1.671
   15        0.653   1.019   0.000   1.671
   16        0.653   1.019   0.000   1.671
   17        0.653   1.018   0.000   1.671
   18        0.653   1.018   0.000   1.671
   19        0.653   1.018   0.000   1.671
   20        0.653   1.018   0.000   1.671
   21        0.651   1.004   0.000   1.655
   22        0.651   1.004   0.000   1.655
   23        0.651   1.004   0.000   1.655
   24        0.651   1.004   0.000   1.655
   25        1.564   3.613   0.000   5.177
   26        1.564   3.613   0.000   5.177
   27        1.564   3.613   0.000   5.177
   28        1.564   3.613   0.000   5.177
   29        1.563   3.591   0.000   5.154
   30        1.563   3.591   0.000   5.154
   31        1.563   3.591   0.000   5.154
   32        1.563   3.591   0.000   5.154
   33        1.565   3.619   0.000   5.184
   34        1.565   3.619   0.000   5.184
   35        1.565   3.619   0.000   5.184
   36        1.565   3.619   0.000   5.184
   37        1.565   3.618   0.000   5.184
   38        1.565   3.618   0.000   5.184
   39        1.565   3.618   0.000   5.184
   40        1.565   3.618   0.000   5.184
   41        1.567   3.610   0.000   5.177
   42        1.567   3.610   0.000   5.177
   43        1.567   3.610   0.000   5.177
   44        1.567   3.610   0.000   5.177
   45        1.567   3.604   0.000   5.171
   46        1.567   3.604   0.000   5.171
   47        1.567   3.604   0.000   5.171
   48        1.567   3.604   0.000   5.171
   49        1.561   3.708   0.000   5.269
   50        1.561   3.708   0.000   5.269
   51        1.561   3.708   0.000   5.269
   52        1.561   3.708   0.000   5.269
   53        1.561   3.708   0.000   5.269
   54        1.561   3.708   0.000   5.269
   55        1.561   3.708   0.000   5.269
   56        1.561   3.708   0.000   5.269
   57        1.561   3.717   0.000   5.278
   58        1.561   3.717   0.000   5.278
   59        1.561   3.717   0.000   5.278
   60        1.561   3.717   0.000   5.278
--------------------------------------------------
tot         88.431 213.808   2.730 304.968
 


 magnetization (x)
 
# of ion       s       p       d       tot
------------------------------------------
    1        0.000  -0.000   0.000   0.000
    2        0.000  -0.000   0.000   0.000
    3        0.000  -0.000   0.000   0.000
    4        0.000  -0.000   0.000   0.000
    5        0.000  -0.000   0.000   0.000
    6       -0.000  -0.000   0.000  -0.000
    7        0.000  -0.000   0.000   0.000
    8        0.000  -0.000   0.000   0.000
    9       -0.000  -0.000   0.000   0.000
   10       -0.000  -0.000   0.000  -0.000
   11        0.000  -0.000   0.000   0.000
   12       -0.000  -0.000   0.000  -0.000
   13       -0.000  -0.000   0.000  -0.000
   14        0.000  -0.000   0.000  -0.000
   15        0.000  -0.000   0.000  -0.000
   16        0.000   0.000   0.000   0.000
   17        0.000  -0.000   0.000  -0.000
   18        0.000   0.000   0.000   0.000
   19        0.000   0.000   0.000   0.000
   20        0.000   0.000   0.000   0.000
   21        0.000  -0.000   0.000   0.000
   22        0.000  -0.000   0.000   0.000
   23        0.000   0.000   0.000   0.000
   24        0.000  -0.000   0.000   0.000
   25       -0.000  -0.000   0.000  -0.000
   26       -0.000  -0.000   0.000  -0.000
   27       -0.000  -0.000   0.000  -0.000
   28       -0.000  -0.000   0.000  -0.000
   29       -0.000   0.000   0.000   0.000
   30       -0.000  -0.000   0.000  -0.000
   31       -0.000  -0.000   0.000  -0.000
   32       -0.000  -0.000   0.000  -0.000
   33       -0.000  -0.000   0.000  -0.000
   34       -0.000  -0.000   0.000  -0.000
   35       -0.000  -0.000   0.000  -0.000
   36       -0.000  -0.000   0.000  -0.000
   37       -0.000  -0.000   0.000  -0.000
   38       -0.000  -0.000   0.000  -0.000
   39       -0.000  -0.000   0.000  -0.000
   40       -0.000  -0.000   0.000  -0.000
   41       -0.000  -0.000   0.000  -0.000
   42       -0.000  -0.000   0.000  -0.000
   43       -0.000   0.000   0.000   0.000
   44       -0.000  -0.000   0.000  -0.000
   45       -0.000  -0.000   0.000  -0.000
   46       -0.000  -0.000   0.000  -0.000
   47       -0.000  -0.000   0.000  -0.000
   48       -0.000  -0.000   0.000  -0.000
   49        0.000   0.000   0.000   0.000
   50        0.000  -0.000   0.000  -0.000
   51        0.000   0.000   0.000   0.000
   52        0.000   0.000   0.000   0.000
   53        0.000   0.000   0.000   0.000
   54        0.000   0.000   0.000   0.000
   55        0.000  -0.000   0.000   0.000
   56        0.000   0.000   0.000   0.000
   57        0.000   0.000   0.000   0.000
   58        0.000   0.000   0.000   0.000
   59        0.000   0.000   0.000   0.000
   60        0.000   0.000   0.000   0.000
--------------------------------------------------
tot         -0.000  -0.000   0.000  -0.000
 

 total amount of memory used by VASP MPI-rank0   598716. kBytes
=======================================================================

   base      :      30000. kBytes
   nonlr-proj:      13675. kBytes
   fftplans  :       6594. kBytes
   grid      :      24990. kBytes
   one-center:        466. kBytes
   wavefun   :     522991. kBytes
 
  
  
 General timing and accounting informations for this job:
 ========================================================
  
                  Total CPU time used (sec):    13263.495
                            User time (sec):    13242.857
                          System time (sec):       20.639
                         Elapsed time (sec):    13265.299
  
                   Maximum memory used (kb):      782436.
                   Average memory used (kb):           0.
  
                          Minor page faults:       337556
                          Major page faults:           13
                 Voluntary context switches:          812
