       N       E                     dE             d eps       ncg     rms          rms(c)
DAV:   1     0.263459983808E+04    0.26346E+04   -0.13408E+05 26704   0.155E+03
DAV:   2    -0.998358705761E+02   -0.27344E+04   -0.25165E+04 27200   0.424E+02
DAV:   3    -0.426170383584E+03   -0.32633E+03   -0.32031E+03 28664   0.165E+02
DAV:   4    -0.439590493437E+03   -0.13420E+02   -0.13273E+02 33992   0.321E+01
DAV:   5    -0.440415629497E+03   -0.82514E+00   -0.82252E+00 41832   0.591E+00    0.782E+00
DAV:   6    -0.363049403328E+03    0.77366E+02   -0.17956E+01 28952   0.141E+01    0.937E+00
DAV:   7    -0.359986944600E+03    0.30625E+01   -0.23015E+00 29888   0.612E+00    0.313E+00
DAV:   8    -0.359979628254E+03    0.73163E-02   -0.19554E-01 35464   0.147E+00    0.206E+00
DAV:   9    -0.359923021542E+03    0.56607E-01   -0.24629E-01 29232   0.163E+00    0.113E+00
DAV:  10    -0.359934932723E+03   -0.11911E-01   -0.28688E-02 29416   0.611E-01    0.535E-01
DAV:  11    -0.359928926011E+03    0.60067E-02   -0.10606E-02 31264   0.386E-01    0.180E-01
DAV:  12    -0.359930158525E+03   -0.12325E-02   -0.84536E-04 30008   0.135E-01    0.206E-01
DAV:  13    -0.359929980704E+03    0.17782E-03   -0.53312E-05 31344   0.239E-02    0.186E-01
DAV:  14    -0.359929539760E+03    0.44094E-03   -0.37461E-04 29968   0.570E-02    0.157E-01
DAV:  15    -0.359928721767E+03    0.81799E-03   -0.53303E-04 30048   0.842E-02    0.979E-02
DAV:  16    -0.359928705151E+03    0.16616E-04   -0.28193E-05 21800   0.186E-02    0.628E-02
DAV:  17    -0.359928678853E+03    0.26297E-04   -0.55727E-06 16136   0.809E-03    0.517E-02
DAV:  18    -0.359928621853E+03    0.57001E-04   -0.32614E-06 16624   0.985E-03    0.329E-02
DAV:  19    -0.359928552931E+03    0.68922E-04   -0.45035E-06 15936   0.766E-03    0.130E-02
DAV:  20    -0.359928508778E+03    0.44152E-04   -0.50561E-06 15560   0.624E-03    0.456E-03
DAV:  21    -0.359928501415E+03    0.73630E-05   -0.19728E-06 15024   0.309E-03
   1 F= -.35992850E+03 E0= -.35992850E+03  d E =-.359929E+03  mag=     8.0000
