       N       E                     dE             d eps       ncg     rms          rms(c)
DAV:   1     0.237930003188E+04    0.23793E+04   -0.13170E+05 25600   0.147E+03
DAV:   2    -0.182692387017E+03   -0.25620E+04   -0.23960E+04 26840   0.405E+02
DAV:   3    -0.439439552571E+03   -0.25675E+03   -0.25311E+03 28392   0.140E+02
DAV:   4    -0.447813953876E+03   -0.83744E+01   -0.82868E+01 33720   0.238E+01
DAV:   5    -0.448352455674E+03   -0.53850E+00   -0.53640E+00 39752   0.446E+00    0.749E+00
DAV:   6    -0.370723493080E+03    0.77629E+02   -0.18914E+01 27760   0.134E+01    0.888E+00
DAV:   7    -0.367148562247E+03    0.35749E+01   -0.24996E+00 28648   0.621E+00    0.335E+00
DAV:   8    -0.367137750412E+03    0.10812E-01   -0.19291E-01 34904   0.147E+00    0.229E+00
DAV:   9    -0.367094087000E+03    0.43663E-01   -0.11544E-01 29080   0.102E+00    0.109E+00
DAV:  10    -0.367085744834E+03    0.83422E-02   -0.21116E-02 29928   0.440E-01    0.451E-01
DAV:  11    -0.367083471408E+03    0.22734E-02   -0.72100E-03 29472   0.257E-01    0.144E-01
DAV:  12    -0.367083612392E+03   -0.14098E-03   -0.49628E-04 34464   0.647E-02    0.897E-02
DAV:  13    -0.367083268046E+03    0.34435E-03   -0.22324E-04 29408   0.469E-02    0.434E-02
DAV:  14    -0.367083371067E+03   -0.10302E-03   -0.19574E-05 21000   0.171E-02    0.197E-02
DAV:  15    -0.367083385854E+03   -0.14787E-04   -0.17897E-05 18616   0.147E-02    0.144E-02
DAV:  16    -0.367083334255E+03    0.51599E-04   -0.16039E-05 16856   0.140E-02    0.650E-03
DAV:  17    -0.367083361908E+03   -0.27652E-04   -0.25108E-06 15552   0.663E-03    0.371E-03
DAV:  18    -0.367083341068E+03    0.20840E-04   -0.58039E-07 15552   0.256E-03    0.207E-03
DAV:  19    -0.367083351375E+03   -0.10308E-04   -0.47835E-07 15520   0.242E-03    0.191E-03
DAV:  20    -0.367083344546E+03    0.68294E-05   -0.21916E-07 15368   0.166E-03
   1 F= -.36708334E+03 E0= -.36708334E+03  d E =-.367083E+03  mag=    16.0000
