 vasp.6.1.2 22Jul20 (build Mar 19 2021 09:51:12) complex                        
  
 executed on             LinuxIFC date 2021.07.25  18:03:54
 running on   12 total cores
 distrk:  each k-point on   12 cores,    1 groups
 distr:  one band on NCORE=  12 cores,    1 groups


--------------------------------------------------------------------------------------------------------


 INCAR:
 POTCAR:    PAW_PBE Ca_sv 06Sep2000               
 POTCAR:    PAW_PBE Si 05Jan2001                  
 POTCAR:    PAW_PBE Ni_pv 06Sep2000               
 POTCAR:    PAW_PBE O 08Apr2002                   
 -----------------------------------------------------------------------------
|                                                                             |
|           W    W    AA    RRRRR   N    N  II  N    N   GGGG   !!!           |
|           W    W   A  A   R    R  NN   N  II  NN   N  G    G  !!!           |
|           W    W  A    A  R    R  N N  N  II  N N  N  G       !!!           |
|           W WW W  AAAAAA  RRRRR   N  N N  II  N  N N  G  GGG   !            |
|           WW  WW  A    A  R   R   N   NN  II  N   NN  G    G                |
|           W    W  A    A  R    R  N    N  II  N    N   GGGG   !!!           |
|                                                                             |
|     The value NCORE = 16 specified in the INCAR file was overwritten,       |
|     because it was not compatible with the 12 processes available:          |
|     NCORE = 12                                                              |
|     was used instead, please check that this makes sense for your           |
|     machine.                                                                |
|                                                                             |
 -----------------------------------------------------------------------------

 -----------------------------------------------------------------------------
|                                                                             |
|           W    W    AA    RRRRR   N    N  II  N    N   GGGG   !!!           |
|           W    W   A  A   R    R  NN   N  II  NN   N  G    G  !!!           |
|           W    W  A    A  R    R  N N  N  II  N N  N  G       !!!           |
|           W WW W  AAAAAA  RRRRR   N  N N  II  N  N N  G  GGG   !            |
|           WW  WW  A    A  R   R   N   NN  II  N   NN  G    G                |
|           W    W  A    A  R    R  N    N  II  N    N   GGGG   !!!           |
|                                                                             |
|     For optimal performance we recommend to set                             |
|       NCORE = 4 - approx SQRT(number of cores).                             |
|     NCORE specifies how many cores store one orbital (NPAR=cpu/NCORE).      |
|     This setting can greatly improve the performance of VASP for DFT.       |
|     The default, NCORE=1 might be grossly inefficient on modern             |
|     multi-core architectures or massively parallel machines. Do your        |
|     own testing!!!!                                                         |
|     Unfortunately you need to use the default for GW and RPA                |
|     calculations (for HF NCORE is supported but not extensively tested      |
|     yet).                                                                   |
|                                                                             |
 -----------------------------------------------------------------------------

 POTCAR:    PAW_PBE Ca_sv 06Sep2000               
   VRHFIN =Ca: 3s3p4s                                                                               
   LEXCH  = PE                                                                                      
   EATOM  =  1006.0909 eV,   73.9456 Ry                                                             
                                                                                                    
   TITEL  = PAW_PBE Ca_sv 06Sep2000                                                                 
   LULTRA =        F    use ultrasoft PP ?                                                          
   IUNSCR =        1    unscreen: 0-lin 1-nonlin 2-no                                               
   RPACOR =    2.000    partial core radius                                                         
   POMASS =   40.078; ZVAL   =   10.000    mass and valenz                                          
   RCORE  =    2.300    outmost cutoff radius                                                       
   RWIGS  =    2.500; RWIGS  =    1.323    wigner-seitz radius (au A)                               
   ENMAX  =  266.622; ENMIN  =  199.967 eV                                                          
   RCLOC  =    1.808    cutoff for local pot                                                        
   LCOR   =        T    correct aug charges                                                         
   LPAW   =        T    paw PP                                                                      
   EAUG   =  420.852                                                                                
   RMAX   =    2.359    core radius for proj-oper                                                   
   RAUG   =    1.300    factor for augmentation sphere                                              
   RDEP   =    2.392    radius for radial grids                                                     
   RDEPT  =    1.987    core radius for aug-charge                                                  
                                                                                                    
   Atomic configuration                                                                             
    7 entries                                                                                       
     n  l   j            E        occ.                                                              
     1  0  0.50     -3949.1705   2.0000                                                             
     2  0  0.50      -414.3434   2.0000                                                             
     2  1  1.50      -334.7047   6.0000                                                             
     3  0  0.50       -47.0896   2.0000                                                             
     4  0  0.50        -3.7663   2.0000                                                             
     3  1  1.50       -28.0061   6.0000                                                             
     3  2  1.50        -4.0817   0.0000                                                             
   Description                                                                                      
     l       E           TYP  RCUT    TYP  RCUT                                                     
     0    -47.0896403     23  2.300                                                                 
     0     -3.7663320     23  2.300                                                                 
     1    -28.0060855     23  2.300                                                                 
     1      6.8029130     23  2.300                                                                 
     2     -4.0817478     23  2.300                                                                 
     2      0.4464412     23  2.300                                                                 
  local pseudopotential read in
  partial core-charges read in
  partial kinetic energy density read in
  atomic valenz-charges read in
  non local Contribution for L=           0  read in
    real space projection operators read in
  non local Contribution for L=           0  read in
    real space projection operators read in
  non local Contribution for L=           1  read in
    real space projection operators read in
  non local Contribution for L=           1  read in
    real space projection operators read in
  non local Contribution for L=           2  read in
    real space projection operators read in
  non local Contribution for L=           2  read in
    real space projection operators read in
    PAW grid and wavefunctions read in
 
   number of l-projection  operators is LMAX  =           6
   number of lm-projection operators is LMMAX =          18
 
 POTCAR:    PAW_PBE Si 05Jan2001                  
   VRHFIN =Si: s2p2                                                                                 
   LEXCH  = PE                                                                                      
   EATOM  =   103.0669 eV,    7.5752 Ry                                                             
                                                                                                    
   TITEL  = PAW_PBE Si 05Jan2001                                                                    
   LULTRA =        F    use ultrasoft PP ?                                                          
   IUNSCR =        1    unscreen: 0-lin 1-nonlin 2-no                                               
   RPACOR =    1.500    partial core radius                                                         
   POMASS =   28.085; ZVAL   =    4.000    mass and valenz                                          
   RCORE  =    1.900    outmost cutoff radius                                                       
   RWIGS  =    2.480; RWIGS  =    1.312    wigner-seitz radius (au A)                               
   ENMAX  =  245.345; ENMIN  =  184.009 eV                                                          
   ICORE  =        2    local potential                                                             
   LCOR   =        T    correct aug charges                                                         
   LPAW   =        T    paw PP                                                                      
   EAUG   =  322.069                                                                                
   DEXC   =    0.000                                                                                
   RMAX   =    1.950    core radius for proj-oper                                                   
   RAUG   =    1.300    factor for augmentation sphere                                              
   RDEP   =    1.993    radius for radial grids                                                     
   RDEPT  =    1.837    core radius for aug-charge                                                  
                                                                                                    
   Atomic configuration                                                                             
    6 entries                                                                                       
     n  l   j            E        occ.                                                              
     1  0  0.50     -1785.8828   2.0000                                                             
     2  0  0.50      -139.4969   2.0000                                                             
     2  1  1.50       -95.5546   6.0000                                                             
     3  0  0.50       -10.8127   2.0000                                                             
     3  1  0.50        -4.0811   2.0000                                                             
     3  2  1.50        -4.0817   0.0000                                                             
   Description                                                                                      
     l       E           TYP  RCUT    TYP  RCUT                                                     
     0    -10.8127223     23  1.900                                                                 
     0     -7.6451159     23  1.900                                                                 
     1     -4.0811372     23  1.900                                                                 
     1      2.4879257     23  1.900                                                                 
     2     -4.0817478      7  1.900                                                                 
  local pseudopotential read in
  partial core-charges read in
  partial kinetic energy density read in
  atomic valenz-charges read in
  non local Contribution for L=           0  read in
    real space projection operators read in
  non local Contribution for L=           0  read in
    real space projection operators read in
  non local Contribution for L=           1  read in
    real space projection operators read in
  non local Contribution for L=           1  read in
    real space projection operators read in
    PAW grid and wavefunctions read in
 
   number of l-projection  operators is LMAX  =           4
   number of lm-projection operators is LMMAX =           8
 
 POTCAR:    PAW_PBE Ni_pv 06Sep2000               
   VRHFIN =Ni:                                                                                      
   LEXCH  = PE                                                                                      
   EATOM  =  3501.1230 eV,  257.3253 Ry                                                             
                                                                                                    
   TITEL  = PAW_PBE Ni_pv 06Sep2000                                                                 
   LULTRA =        F    use ultrasoft PP ?                                                          
   IUNSCR =        1    unscreen: 0-lin 1-nonlin 2-no                                               
   RPACOR =    1.500    partial core radius                                                         
   POMASS =   58.690; ZVAL   =   16.000    mass and valenz                                          
   RCORE  =    2.000    outmost cutoff radius                                                       
   RWIGS  =    2.000; RWIGS  =    1.058    wigner-seitz radius (au A)                               
   ENMAX  =  367.986; ENMIN  =  275.989 eV                                                          
   RCLOC  =    1.301    cutoff for local pot                                                        
   LCOR   =        T    correct aug charges                                                         
   LPAW   =        T    paw PP                                                                      
   EAUG   =  703.443                                                                                
   DEXC   =    0.000                                                                                
   RMAX   =    2.041    core radius for proj-oper                                                   
   RAUG   =    1.300    factor for augmentation sphere                                              
   RDEP   =    2.103    radius for radial grids                                                     
   RDEPT  =    1.618    core radius for aug-charge                                                  
                                                                                                    
   Atomic configuration                                                                             
    8 entries                                                                                       
     n  l   j            E        occ.                                                              
     1  0  0.50     -8206.4253   2.0000                                                             
     2  0  0.50      -976.1748   2.0000                                                             
     2  1  1.50      -839.0571   6.0000                                                             
     3  0  0.50      -105.9991   2.0000                                                             
     3  1  1.50       -66.4603   6.0000                                                             
     3  2  2.50        -4.6458   9.0000                                                             
     4  0  0.50        -4.4926   1.0000                                                             
     4  3  2.50        -1.3606   0.0000                                                             
   Description                                                                                      
     l       E           TYP  RCUT    TYP  RCUT                                                     
     1    -66.4602962     23  1.700                                                                 
     1     -1.3605826     23  1.700                                                                 
     2     -4.6457867     23  2.000                                                                 
     2     -6.0063693     23  2.000                                                                 
     0     -4.4925576     23  1.900                                                                 
     0     16.3626226     23  1.900                                                                 
  local pseudopotential read in
  partial core-charges read in
  partial kinetic energy density read in
  atomic valenz-charges read in
  non local Contribution for L=           1  read in
    real space projection operators read in
  non local Contribution for L=           1  read in
    real space projection operators read in
  non local Contribution for L=           2  read in
    real space projection operators read in
  non local Contribution for L=           2  read in
    real space projection operators read in
  non local Contribution for L=           0  read in
    real space projection operators read in
  non local Contribution for L=           0  read in
    real space projection operators read in
    PAW grid and wavefunctions read in
 
   number of l-projection  operators is LMAX  =           6
   number of lm-projection operators is LMMAX =          18
 
 POTCAR:    PAW_PBE O 08Apr2002                   
   VRHFIN =O: s2p4                                                                                  
   LEXCH  = PE                                                                                      
   EATOM  =   432.3788 eV,   31.7789 Ry                                                             
                                                                                                    
   TITEL  = PAW_PBE O 08Apr2002                                                                     
   LULTRA =        F    use ultrasoft PP ?                                                          
   IUNSCR =        1    unscreen: 0-lin 1-nonlin 2-no                                               
   RPACOR =    1.200    partial core radius                                                         
   POMASS =   16.000; ZVAL   =    6.000    mass and valenz                                          
   RCORE  =    1.520    outmost cutoff radius                                                       
   RWIGS  =    1.550; RWIGS  =    0.820    wigner-seitz radius (au A)                               
   ENMAX  =  400.000; ENMIN  =  300.000 eV                                                          
   ICORE  =        2    local potential                                                             
   LCOR   =        T    correct aug charges                                                         
   LPAW   =        T    paw PP                                                                      
   EAUG   =  605.392                                                                                
   DEXC   =    0.000                                                                                
   RMAX   =    1.553    core radius for proj-oper                                                   
   RAUG   =    1.300    factor for augmentation sphere                                              
   RDEP   =    1.550    radius for radial grids                                                     
   RDEPT  =    1.329    core radius for aug-charge                                                  
                                                                                                    
   Atomic configuration                                                                             
    4 entries                                                                                       
     n  l   j            E        occ.                                                              
     1  0  0.50      -514.6923   2.0000                                                             
     2  0  0.50       -23.9615   2.0000                                                             
     2  1  0.50        -9.0305   4.0000                                                             
     3  2  1.50        -9.5241   0.0000                                                             
   Description                                                                                      
     l       E           TYP  RCUT    TYP  RCUT                                                     
     0    -23.9615318     23  1.200                                                                 
     0     -9.5240782     23  1.200                                                                 
     1     -9.0304911     23  1.520                                                                 
     1      8.1634956     23  1.520                                                                 
     2     -9.5240782      7  1.500                                                                 
  local pseudopotential read in
  partial core-charges read in
  partial kinetic energy density read in
  kinetic energy density of atom read in
  atomic valenz-charges read in
  non local Contribution for L=           0  read in
    real space projection operators read in
  non local Contribution for L=           0  read in
    real space projection operators read in
  non local Contribution for L=           1  read in
    real space projection operators read in
  non local Contribution for L=           1  read in
    real space projection operators read in
    PAW grid and wavefunctions read in
 
   number of l-projection  operators is LMAX  =           4
   number of lm-projection operators is LMMAX =           8
 
 Optimization of the real space projectors (new method)

 maximal supplied QI-value         = 16.25
 optimisation between [QCUT,QGAM] = [ 11.54, 23.24] = [ 37.28,151.24] Ry 
 Optimized for a Real-space Cutoff    1.58 Angstroem

   l    n(q)    QCUT    max X(q) W(low)/X(q) W(high)/X(q)  e(spline) 
   0     11    11.539    11.817    0.25E-04    0.22E-05    0.26E-07
   0     11    11.539     8.461    0.39E-04    0.49E-05    0.55E-07
   1     11    11.539     3.957    0.21E-05    0.44E-05    0.32E-07
   1     11    11.539     4.314    0.56E-04    0.44E-04    0.19E-06
   2     10    11.539    14.565    0.25E-03    0.21E-04    0.75E-06
   2     10    11.539    14.552    0.23E-03    0.22E-04    0.72E-06
 Optimization of the real space projectors (new method)

 maximal supplied QI-value         = 19.84
 optimisation between [QCUT,QGAM] = [ 11.51, 23.22] = [ 37.09,150.92] Ry 
 Optimized for a Real-space Cutoff    1.21 Angstroem

   l    n(q)    QCUT    max X(q) W(low)/X(q) W(high)/X(q)  e(spline) 
   0      8    11.508   159.560    0.71E-04    0.15E-03    0.51E-07
   0      8    11.508   115.863    0.70E-04    0.15E-03    0.51E-07
   1      8    11.508    88.339    0.16E-03    0.38E-04    0.82E-07
   1      8    11.508    48.592    0.15E-03    0.36E-04    0.79E-07
 Optimization of the real space projectors (new method)

 maximal supplied QI-value         = 18.90
 optimisation between [QCUT,QGAM] = [ 11.53, 23.24] = [ 37.21,151.29] Ry 
 Optimized for a Real-space Cutoff    1.36 Angstroem

   l    n(q)    QCUT    max X(q) W(low)/X(q) W(high)/X(q)  e(spline) 
   1      9    11.527     2.836    0.16E-04    0.30E-04    0.95E-07
   1      9    11.527     4.023    0.73E-04    0.81E-04    0.21E-06
   2      9    11.527    73.368    0.15E-03    0.29E-03    0.28E-06
   2      9    11.527    69.010    0.15E-03    0.29E-03    0.29E-06
   0      9    11.527    54.797    0.43E-04    0.28E-04    0.85E-07
   0      9    11.527    24.266    0.33E-04    0.24E-04    0.75E-07
 Optimization of the real space projectors (new method)

 maximal supplied QI-value         = 24.76
 optimisation between [QCUT,QGAM] = [ 11.64, 23.27] = [ 37.91,151.63] Ry 
 Optimized for a Real-space Cutoff    1.14 Angstroem

   l    n(q)    QCUT    max X(q) W(low)/X(q) W(high)/X(q)  e(spline) 
   0      8    11.635    20.381    0.10E-03    0.33E-03    0.24E-06
   0      8    11.635    15.268    0.11E-03    0.35E-03    0.26E-06
   1      7    11.635     5.964    0.24E-03    0.31E-03    0.30E-06
   1      7    11.635     5.382    0.22E-03    0.25E-03    0.26E-06
  PAW_PBE Ca_sv 06Sep2000               :
 energy of atom  1       EATOM=-1006.0909
 kinetic energy error for atom=    0.0022 (will be added to EATOM!!)
  PAW_PBE Si 05Jan2001                  :
 energy of atom  2       EATOM= -103.0669
 kinetic energy error for atom=    0.0005 (will be added to EATOM!!)
  PAW_PBE Ni_pv 06Sep2000               :
 energy of atom  3       EATOM=-3501.1230
 kinetic energy error for atom=    0.0575 (will be added to EATOM!!)
  PAW_PBE O 08Apr2002                   :
 energy of atom  4       EATOM= -432.3788
 kinetic energy error for atom=    0.0208 (will be added to EATOM!!)
 
 
 POSCAR: Ca2 Si4 Ni2 O12
  positions in direct lattice
  velocities in cartesian coordinates

 METAGGA = SCAN     LMAXTAU =  6    LMIXTAU =  F

 exchange correlation table for  LEXCH =        8
   RHO(1)=    0.500       N(1)  =     2000
   RHO(2)=  100.500       N(2)  =     4000
 


--------------------------------------------------------------------------------------------------------


 ion  position               nearest neighbor table
   1  0.750  0.702  0.298-  16 2.34  15 2.34   9 2.34  10 2.34   6 3.10   5 3.10
   2  0.250  0.298  0.702-  13 2.34  14 2.34  12 2.34  11 2.34   3 3.10   4 3.10
   3  0.727  0.620  0.806-  13 1.59   9 1.60  17 1.66  20 1.68   6 3.09   6 3.09   2 3.10
   4  0.773  0.194  0.380-  14 1.59  10 1.60  18 1.66  19 1.68   5 3.09   5 3.09   2 3.10
   5  0.273  0.380  0.194-  15 1.59  11 1.60  19 1.66  18 1.68   4 3.09   4 3.09   1 3.10
   6  0.227  0.806  0.620-  16 1.59  12 1.60  20 1.66  17 1.68   3 3.09   3 3.09   1 3.10
   7  0.750  0.091  0.909-  14 2.05  13 2.05  11 2.06  12 2.06   9 2.10  10 2.10
   8  0.250  0.909  0.091-  15 2.05  16 2.05  10 2.06   9 2.06  12 2.10  11 2.10
   9  0.643  0.798  0.971-   3 1.60   8 2.06   7 2.10   1 2.34
  10  0.858  0.029  0.202-   4 1.60   8 2.06   7 2.10   1 2.34
  11  0.358  0.202  0.029-   5 1.60   7 2.06   8 2.10   2 2.34
  12  0.143  0.971  0.798-   6 1.60   7 2.06   8 2.10   2 2.34
  13  0.819  0.388  0.891-   3 1.59   7 2.05   2 2.34
  14  0.681  0.109  0.612-   4 1.59   7 2.05   2 2.34
  15  0.181  0.612  0.109-   5 1.59   8 2.05   1 2.34
  16  0.319  0.891  0.388-   6 1.59   8 2.05   1 2.34
  17  0.492  0.630  0.667-   3 1.66   6 1.68
  18  0.008  0.333  0.370-   4 1.66   5 1.68
  19  0.508  0.370  0.333-   5 1.66   4 1.68
  20  0.992  0.667  0.630-   6 1.66   3 1.68
 

IMPORTANT INFORMATION: All symmetrisations will be switched off!
NOSYMM: (Re-)initialisation of all symmetry stuff for point group C_1.


----------------------------------------------------------------------------------------

                                     Primitive cell                                     

  volume of cell :     217.1997

  direct lattice vectors                    reciprocal lattice vectors
     0.004865579 -0.000000004  5.228212906     0.054091796 -0.000000001  0.191219606
    -4.682672480  4.434737659  1.324624446    -0.106748531  0.112746241  0.000099344
    -4.682672564 -4.434737752  1.324624447    -0.106748528 -0.112746239  0.000099344

  length of vectors
     5.228215170  6.583991919  6.583992041     0.198723074  0.155264205  0.155264202

  position of ions in fractional coordinates (direct lattice)
     0.749997303  0.701742762  0.298252100
     0.249997300  0.298252106  0.701742756
     0.726787578  0.619942819  0.806295121
     0.773238103  0.193694631  0.380062480
     0.273238103  0.380062467  0.193694628
     0.226787581  0.806295124  0.619942808
     0.749857470  0.091222091  0.908818975
     0.249857493  0.908818974  0.091222091
     0.642520474  0.797926087  0.970608627
     0.857545933  0.029380581  0.202079539
     0.357545901  0.202079538  0.029380594
     0.142520445  0.970608642  0.797926084
     0.819062399  0.388420909  0.891212023
     0.680966842  0.108790013  0.611584667
     0.180966859  0.611584655  0.108790027
     0.319062405  0.891212027  0.388420899
     0.491565044  0.629548259  0.667352820
     0.008458862  0.332640615  0.370424887
     0.508458862  0.370424878  0.332640618
     0.991565042  0.667352824  0.629548255

  ion indices of the primitive-cell ions
   primitive index   ion index
                 1           1
                 2           2
                 3           3
                 4           4
                 5           5
                 6           6
                 7           7
                 8           8
                 9           9
                10          10
                11          11
                12          12
                13          13
                14          14
                15          15
                16          16
                17          17
                18          18
                19          19
                20          20

----------------------------------------------------------------------------------------

 
 
 KPOINTS: K-points file                           

Automatic generation of k-mesh.
Space group operators:
 irot       det(A)        alpha          n_x          n_y          n_z        tau_x        tau_y        tau_z
    1     1.000000     0.000000     1.000000     0.000000     0.000000     0.000000     0.000000     0.000000
 
 Subroutine IBZKPT returns following result:
 ===========================================
 
 Found     88 irreducible k-points:
 
 Following reciprocal coordinates:
            Coordinates               Weight
  0.000000  0.000000  0.000000      1.000000
  0.142857  0.000000  0.000000      2.000000
  0.285714  0.000000  0.000000      2.000000
  0.428571  0.000000  0.000000      2.000000
 -0.000000  0.200000 -0.000000      2.000000
  0.000000 -0.000000 -0.200000      2.000000
  0.142857  0.200000 -0.000000      2.000000
 -0.142857 -0.000000 -0.200000      2.000000
  0.285714  0.200000 -0.000000      2.000000
 -0.285714 -0.000000 -0.200000      2.000000
  0.428571  0.200000 -0.000000      2.000000
 -0.428571 -0.000000 -0.200000      2.000000
 -0.428571  0.200000 -0.000000      2.000000
  0.428571 -0.000000 -0.200000      2.000000
 -0.285714  0.200000  0.000000      2.000000
  0.285714 -0.000000 -0.200000      2.000000
 -0.142857  0.200000  0.000000      2.000000
  0.142857  0.000000 -0.200000      2.000000
 -0.000000  0.400000  0.000000      2.000000
  0.000000  0.000000 -0.400000      2.000000
  0.142857  0.400000  0.000000      2.000000
 -0.142857 -0.000000 -0.400000      2.000000
  0.285714  0.400000  0.000000      2.000000
 -0.285714  0.000000 -0.400000      2.000000
  0.428571  0.400000 -0.000000      2.000000
 -0.428571 -0.000000 -0.400000      2.000000
 -0.428571  0.400000 -0.000000      2.000000
  0.428571  0.000000 -0.400000      2.000000
 -0.285714  0.400000 -0.000000      2.000000
  0.285714 -0.000000 -0.400000      2.000000
 -0.142857  0.400000 -0.000000      2.000000
  0.142857  0.000000 -0.400000      2.000000
 -0.000000  0.200000  0.200000      2.000000
  0.142857  0.200000  0.200000      2.000000
  0.285714  0.200000  0.200000      2.000000
  0.428571  0.200000  0.200000      2.000000
 -0.428571  0.200000  0.200000      2.000000
 -0.285714  0.200000  0.200000      2.000000
 -0.142857  0.200000  0.200000      2.000000
 -0.000000  0.400000  0.200000      2.000000
 -0.000000 -0.200000 -0.400000      2.000000
  0.142857  0.400000  0.200000      2.000000
 -0.142857 -0.200000 -0.400000      2.000000
  0.285714  0.400000  0.200000      2.000000
 -0.285714 -0.200000 -0.400000      2.000000
  0.428571  0.400000  0.200000      2.000000
 -0.428571 -0.200000 -0.400000      2.000000
 -0.428571  0.400000  0.200000      2.000000
  0.428571 -0.200000 -0.400000      2.000000
 -0.285714  0.400000  0.200000      2.000000
  0.285714 -0.200000 -0.400000      2.000000
 -0.142857  0.400000  0.200000      2.000000
  0.142857 -0.200000 -0.400000      2.000000
  0.000000 -0.400000  0.200000      2.000000
  0.000000 -0.200000  0.400000      2.000000
  0.142857 -0.400000  0.200000      2.000000
 -0.142857 -0.200000  0.400000      2.000000
  0.285714 -0.400000  0.200000      2.000000
 -0.285714 -0.200000  0.400000      2.000000
  0.428571 -0.400000  0.200000      2.000000
 -0.428571 -0.200000  0.400000      2.000000
 -0.428571 -0.400000  0.200000      2.000000
  0.428571 -0.200000  0.400000      2.000000
 -0.285714 -0.400000  0.200000      2.000000
  0.285714 -0.200000  0.400000      2.000000
 -0.142857 -0.400000  0.200000      2.000000
  0.142857 -0.200000  0.400000      2.000000
 -0.000000 -0.200000  0.200000      2.000000
  0.142857 -0.200000  0.200000      2.000000
 -0.142857 -0.200000  0.200000      2.000000
  0.285714 -0.200000  0.200000      2.000000
 -0.285714 -0.200000  0.200000      2.000000
  0.428571 -0.200000  0.200000      2.000000
 -0.428571 -0.200000  0.200000      2.000000
  0.000000  0.400000  0.400000      2.000000
  0.142857  0.400000  0.400000      2.000000
  0.285714  0.400000  0.400000      2.000000
  0.428571  0.400000  0.400000      2.000000
 -0.428571  0.400000  0.400000      2.000000
 -0.285714  0.400000  0.400000      2.000000
 -0.142857  0.400000  0.400000      2.000000
  0.000000 -0.400000  0.400000      2.000000
  0.142857 -0.400000  0.400000      2.000000
 -0.142857 -0.400000  0.400000      2.000000
  0.285714 -0.400000  0.400000      2.000000
 -0.285714 -0.400000  0.400000      2.000000
  0.428571 -0.400000  0.400000      2.000000
 -0.428571 -0.400000  0.400000      2.000000
 
 Following cartesian coordinates:
            Coordinates               Weight
  0.000000  0.000000  0.000000      1.000000
  0.007727 -0.000000  0.027317      2.000000
  0.015455 -0.000000  0.054634      2.000000
  0.023182 -0.000000  0.081951      2.000000
 -0.021350  0.022549  0.000020      2.000000
  0.021350  0.022549 -0.000020      2.000000
 -0.013622  0.022549  0.027337      2.000000
  0.013622  0.022549 -0.027337      2.000000
 -0.005895  0.022549  0.054654      2.000000
  0.005895  0.022549 -0.054654      2.000000
  0.001832  0.022549  0.081971      2.000000
 -0.001832  0.022549 -0.081971      2.000000
 -0.044532  0.022549 -0.081931      2.000000
  0.044532  0.022549  0.081931      2.000000
 -0.036805  0.022549 -0.054614      2.000000
  0.036805  0.022549  0.054614      2.000000
 -0.029077  0.022549 -0.027297      2.000000
  0.029077  0.022549  0.027297      2.000000
 -0.042699  0.045098  0.000040      2.000000
  0.042699  0.045098 -0.000040      2.000000
 -0.034972  0.045098  0.027357      2.000000
  0.034972  0.045098 -0.027357      2.000000
 -0.027245  0.045098  0.054674      2.000000
  0.027245  0.045098 -0.054674      2.000000
 -0.019517  0.045098  0.081991      2.000000
  0.019517  0.045098 -0.081991      2.000000
 -0.065882  0.045098 -0.081912      2.000000
  0.065882  0.045098  0.081912      2.000000
 -0.058154  0.045098 -0.054594      2.000000
  0.058154  0.045098  0.054594      2.000000
 -0.050427  0.045098 -0.027277      2.000000
  0.050427  0.045098  0.027277      2.000000
 -0.042699  0.000000  0.000040      2.000000
 -0.034972  0.000000  0.027357      2.000000
 -0.027245  0.000000  0.054674      2.000000
 -0.019517  0.000000  0.081991      2.000000
 -0.065882  0.000000 -0.081912      2.000000
 -0.058154  0.000000 -0.054594      2.000000
 -0.050427  0.000000 -0.027277      2.000000
 -0.064049  0.022549  0.000060      2.000000
  0.064049  0.022549 -0.000060      2.000000
 -0.056322  0.022549  0.027377      2.000000
  0.056322  0.022549 -0.027377      2.000000
 -0.048594  0.022549  0.054694      2.000000
  0.048594  0.022549 -0.054694      2.000000
 -0.040867  0.022549  0.082011      2.000000
  0.040867  0.022549 -0.082011      2.000000
 -0.087231  0.022549 -0.081892      2.000000
  0.087231  0.022549  0.081892      2.000000
 -0.079504  0.022549 -0.054575      2.000000
  0.079504  0.022549  0.054575      2.000000
 -0.071777  0.022549 -0.027257      2.000000
  0.071777  0.022549  0.027257      2.000000
  0.021350 -0.067648 -0.000020      2.000000
 -0.021350 -0.067648  0.000020      2.000000
  0.029077 -0.067648  0.027297      2.000000
 -0.029077 -0.067648 -0.027297      2.000000
  0.036805 -0.067648  0.054614      2.000000
 -0.036805 -0.067648 -0.054614      2.000000
  0.044532 -0.067648  0.081931      2.000000
 -0.044532 -0.067648 -0.081931      2.000000
 -0.001832 -0.067648 -0.081971      2.000000
  0.001832 -0.067648  0.081971      2.000000
  0.005895 -0.067648 -0.054654      2.000000
 -0.005895 -0.067648  0.054654      2.000000
  0.013622 -0.067648 -0.027337      2.000000
 -0.013622 -0.067648  0.027337      2.000000
  0.000000 -0.045098 -0.000000      2.000000
  0.007727 -0.045098  0.027317      2.000000
 -0.007727 -0.045098 -0.027317      2.000000
  0.015455 -0.045098  0.054634      2.000000
 -0.015455 -0.045098 -0.054634      2.000000
  0.023182 -0.045098  0.081951      2.000000
 -0.023182 -0.045098 -0.081951      2.000000
 -0.085399  0.000000  0.000079      2.000000
 -0.077671  0.000000  0.027397      2.000000
 -0.069944  0.000000  0.054714      2.000000
 -0.062217  0.000000  0.082031      2.000000
 -0.108581  0.000000 -0.081872      2.000000
 -0.100854  0.000000 -0.054555      2.000000
 -0.093126  0.000000 -0.027238      2.000000
  0.000000 -0.090197 -0.000000      2.000000
  0.007727 -0.090197  0.027317      2.000000
 -0.007727 -0.090197 -0.027317      2.000000
  0.015455 -0.090197  0.054634      2.000000
 -0.015455 -0.090197 -0.054634      2.000000
  0.023182 -0.090197  0.081951      2.000000
 -0.023182 -0.090197 -0.081951      2.000000
 


--------------------------------------------------------------------------------------------------------




 Dimension of arrays:
   k-points           NKPTS =     88   k-points in BZ     NKDIM =     88   number of bands    NBANDS=     87
   number of dos      NEDOS =    301   number of ions     NIONS =     20
   non local maximal  LDIM  =      6   non local SUM 2l+1 LMDIM =     18
   total plane-waves  NPLWV = 100000
   max r-space proj   IRMAX =   7654   max aug-charges    IRDMAX=  22164
   dimension x,y,z NGX =    40 NGY =   50 NGZ =   50
   dimension x,y,z NGXF=    80 NGYF=  100 NGZF=  100
   support grid    NGXF=    80 NGYF=  100 NGZF=  100
   ions per type =               2   4   2  12
   NGX,Y,Z   is equivalent  to a cutoff of  12.72, 12.63, 12.63 a.u.
   NGXF,Y,Z  is equivalent  to a cutoff of  25.44, 25.25, 25.25 a.u.

 SYSTEM =  unknown system                          
 POSCAR =  Ca2 Si4 Ni2 O12                         

 Startparameter for this run:
   NWRITE =      2    write-flag & timer
   PREC   = accura    normal or accurate (medium, high low for compatibility)
   ISTART =      0    job   : 0-new  1-cont  2-samecut
   ICHARG =      1    charge: 1-file 2-atom 10-const
   ISPIN  =      2    spin polarized calculation?
   LNONCOLLINEAR =      F non collinear calculations
   LSORBIT =      F    spin-orbit coupling
   INIWAV =      1    electr: 0-lowe 1-rand  2-diag
   LASPH  =      T    aspherical Exc in radial PAW
   METAGGA=      F    non-selfconsistent MetaGGA calc.

 Electronic Relaxation 1
   ENCUT  =  520.0 eV  38.22 Ry    6.18 a.u.   9.72 12.24 12.24*2*pi/ulx,y,z
   ENINI  =  520.0     initial cutoff
   ENAUG  =  703.4 eV  augmentation charge cutoff
   NELM   =    100;   NELMIN=  6; NELMDL= -5     # of ELM steps 
   EDIFF  = 0.1E-04   stopping-criterion for ELM
   LREAL  =      T    real-space projection
   NLSPLINE    = F    spline interpolate recip. space projectors
   LCOMPAT=      F    compatible to vasp.4.4
   GGA_COMPAT  = T    GGA compatible to vasp.4.4-vasp.4.6
   LMAXPAW     = -100 max onsite density
   LMAXMIX     =    4 max onsite mixed and CHGCAR
   VOSKOWN=      0    Vosko Wilk Nusair interpolation
   ROPT   =   -0.00025  -0.00025  -0.00025  -0.00025
 Ionic relaxation
   EDIFFG = -.3E-01   stopping-criterion for IOM
   NSW    =     99    number of steps for IOM
   NBLOCK =      1;   KBLOCK =     99    inner block; outer block 
   IBRION =      2    ionic relax: 0-MD 1-quasi-New 2-CG
   NFREE  =      1    steps in history (QN), initial steepest desc. (CG)
   ISIF   =      3    stress and relaxation
   IWAVPR =     11    prediction:  0-non 1-charg 2-wave 3-comb
   ISYM   =      0    0-nonsym 1-usesym 2-fastsym
   LCORR  =      T    Harris-Foulkes like correction to forces

   POTIM  = 0.5000    time-step for ionic-motion
   TEIN   =    0.0    initial temperature
   TEBEG  =    0.0;   TEEND  =   0.0 temperature during run
   SMASS  =  -3.00    Nose mass-parameter (am)
   estimated Nose-frequenzy (Omega)   =  0.10E-29 period in steps = 0.13E+47 mass=  -0.625E-27a.u.
   SCALEE = 1.0000    scale energy and forces
   NPACO  =    256;   APACO  = 16.0  distance and # of slots for P.C.
   PSTRESS=    0.0 pullay stress

  Mass of Ions in am
   POMASS =  40.08 28.09 58.69 16.00
  Ionic Valenz
   ZVAL   =  10.00  4.00 16.00  6.00
  Atomic Wigner-Seitz radii
   RWIGS  =  -1.00 -1.00 -1.00 -1.00
  virtual crystal weights 
   VCA    =   1.00  1.00  1.00  1.00
   NELECT =     140.0000    total number of electrons
   NUPDOWN=      -1.0000    fix difference up-down

 DOS related values:
   EMIN   =  10.00;   EMAX   =-10.00  energy-range for DOS
   EFERMI =   0.00
   ISMEAR =     0;   SIGMA  =   0.05  broadening in eV -4-tet -1-fermi 0-gaus

 Electronic relaxation 2 (details)
   IALGO  =     38    algorithm
   LDIAG  =      T    sub-space diagonalisation (order eigenvalues)
   LSUBROT=      F    optimize rotation matrix (better conditioning)
   TURBO    =      0    0=normal 1=particle mesh
   IRESTART =      0    0=no restart 2=restart with 2 vectors
   NREBOOT  =      0    no. of reboots
   NMIN     =      0    reboot dimension
   EREF     =   0.00    reference energy to select bands
   IMIX   =      4    mixing-type and parameters
     AMIX     =   0.40;   BMIX     =  1.00
     AMIX_MAG =   1.60;   BMIX_MAG =  1.00
     AMIN     =   0.10
     WC   =   100.;   INIMIX=   1;  MIXPRE=   1;  MAXMIX= -45

 Intra band minimization:
   WEIMIN = 0.0010     energy-eigenvalue tresh-hold
   EBREAK =  0.29E-07  absolut break condition
   DEPER  =   0.30     relativ break condition  

   TIME   =   0.40     timestep for ELM

  volume/ion in A,a.u.               =      10.86        73.29
  Fermi-wavevector in a.u.,A,eV,Ry     =   1.414157  2.672370 27.209490  1.999841
  Thomas-Fermi vector in A             =   2.535729
 
 Write flags
   LWAVE        =      F    write WAVECAR
   LDOWNSAMPLE  =      F    k-point downsampling of WAVECAR
   LCHARG       =      T    write CHGCAR
   LVTOT        =      F    write LOCPOT, total local potential
   LVHAR        =      F    write LOCPOT, Hartree potential only
   LELF         =      F    write electronic localiz. function (ELF)
   LORBIT       =     11    0 simple, 1 ext, 2 COOP (PROOUT), +10 PAW based schemes


 Dipole corrections
   LMONO  =      F    monopole corrections only (constant potential shift)
   LDIPOL =      F    correct potential (dipole corrections)
   IDIPOL =      0    1-x, 2-y, 3-z, 4-all directions 
   EPSILON=  1.0000000 bulk dielectric constant

 LDA+U is selected, type is set to LDAUTYPE =  2
   angular momentum for each species LDAUL =    -1   -1    2   -1
   U (eV)           for each species LDAUU =   0.0  0.0  2.5  0.0
   J (eV)           for each species LDAUJ =   0.0  0.0  0.0  0.0
 Exchange correlation treatment:
   GGA     =    --    GGA type
   LEXCH   =     8    internal setting for exchange type
   VOSKOWN=      0    Vosko Wilk Nusair interpolation
   LHFCALC =     F    Hartree Fock is set to
   LHFONE  =     F    Hartree Fock one center treatment
   AEXX    =    0.0000 exact exchange contribution

 Linear response parameters
   LEPSILON=     F    determine dielectric tensor
   LRPA    =     F    only Hartree local field effects (RPA)
   LNABLA  =     F    use nabla operator in PAW spheres
   LVEL    =     F    velocity operator in full k-point grid
   LINTERFAST=   F  fast interpolation
   KINTER  =     0    interpolate to denser k-point grid
   CSHIFT  =0.1000    complex shift for real part using Kramers Kronig
   OMEGAMAX=  -1.0    maximum frequency
   DEG_THRESHOLD= 0.2000000E-02 threshold for treating states as degnerate
   RTIME   =   -0.100 relaxation time in fs
  (WPLASMAI=    0.000 imaginary part of plasma frequency in eV, 0.658/RTIME)
   DFIELD  = 0.0000000 0.0000000 0.0000000 field for delta impulse in time
 
 Orbital magnetization related:
   ORBITALMAG=     F  switch on orbital magnetization
   LCHIMAG   =     F  perturbation theory with respect to B field
   DQ        =  0.001000  dq finite difference perturbation B field
   LLRAUG    =     F  two centre corrections for induced B field



--------------------------------------------------------------------------------------------------------


 conjugate gradient relaxation of ions
 charge density and potential will be updated during run
 spin polarized calculation
 Variant of blocked Davidson
 Davidson routine will perform the subspace rotation
 perform sub-space diagonalisation
    after iterative eigenvector-optimisation
 modified Broyden-mixing scheme, WC =      100.0
 initial mixing is a Kerker type mixing with AMIX =  0.4000 and BMIX =      1.0000
 Hartree-type preconditioning will be used
 using additional bands           17
 real space projection scheme for non local part
 use partial core corrections
 calculate Harris-corrections to forces 
   (improved forces if not selfconsistent)
 use gradient corrections 
 use of overlap-Matrix (Vanderbilt PP)
 Gauss-broadening in eV      SIGMA  =   0.05


--------------------------------------------------------------------------------------------------------


  energy-cutoff  :      520.00
  volume of cell :      217.20
      direct lattice vectors                 reciprocal lattice vectors
     0.004865579 -0.000000004  5.228212906     0.054091796 -0.000000001  0.191219606
    -4.682672480  4.434737659  1.324624446    -0.106748531  0.112746241  0.000099344
    -4.682672564 -4.434737752  1.324624447    -0.106748528 -0.112746239  0.000099344

  length of vectors
     5.228215170  6.583991919  6.583992041     0.198723074  0.155264205  0.155264202


 
 k-points in units of 2pi/SCALE and weight: K-points file                           
   0.00000000  0.00000000  0.00000000       0.006
   0.00772740 -0.00000000  0.02731709       0.011
   0.01545480 -0.00000000  0.05463417       0.011
   0.02318220 -0.00000000  0.08195126       0.011
  -0.02134971  0.02254925  0.00001987       0.011
   0.02134971  0.02254925 -0.00001987       0.011
  -0.01362231  0.02254925  0.02733696       0.011
   0.01362231  0.02254925 -0.02733696       0.011
  -0.00589491  0.02254925  0.05465404       0.011
   0.00589491  0.02254925 -0.05465404       0.011
   0.00183249  0.02254925  0.08197113       0.011
  -0.00183249  0.02254925 -0.08197113       0.011
  -0.04453190  0.02254925 -0.08193139       0.011
   0.04453190  0.02254925  0.08193139       0.011
  -0.03680450  0.02254925 -0.05461430       0.011
   0.03680450  0.02254925  0.05461430       0.011
  -0.02907711  0.02254925 -0.02729722       0.011
   0.02907711  0.02254925  0.02729722       0.011
  -0.04269941  0.04509850  0.00003974       0.011
   0.04269941  0.04509850 -0.00003974       0.011
  -0.03497201  0.04509850  0.02735682       0.011
   0.03497201  0.04509850 -0.02735682       0.011
  -0.02724461  0.04509850  0.05467391       0.011
   0.02724461  0.04509850 -0.05467391       0.011
  -0.01951721  0.04509850  0.08199100       0.011
   0.01951721  0.04509850 -0.08199100       0.011
  -0.06588161  0.04509850 -0.08191152       0.011
   0.06588161  0.04509850  0.08191152       0.011
  -0.05815421  0.04509850 -0.05459444       0.011
   0.05815421  0.04509850  0.05459444       0.011
  -0.05042681  0.04509850 -0.02727735       0.011
   0.05042681  0.04509850  0.02727735       0.011
  -0.04269941  0.00000000  0.00003974       0.011
  -0.03497201  0.00000000  0.02735682       0.011
  -0.02724461  0.00000000  0.05467391       0.011
  -0.01951721  0.00000000  0.08199100       0.011
  -0.06588161  0.00000000 -0.08191152       0.011
  -0.05815421  0.00000000 -0.05459444       0.011
  -0.05042681  0.00000000 -0.02727735       0.011
  -0.06404912  0.02254925  0.00005961       0.011
   0.06404912  0.02254925 -0.00005961       0.011
  -0.05632172  0.02254925  0.02737669       0.011
   0.05632172  0.02254925 -0.02737669       0.011
  -0.04859432  0.02254925  0.05469378       0.011
   0.04859432  0.02254925 -0.05469378       0.011
  -0.04086692  0.02254925  0.08201087       0.011
   0.04086692  0.02254925 -0.08201087       0.011
  -0.08723132  0.02254925 -0.08189165       0.011
   0.08723132  0.02254925  0.08189165       0.011
  -0.07950392  0.02254925 -0.05457457       0.011
   0.07950392  0.02254925  0.05457457       0.011
  -0.07177652  0.02254925 -0.02725748       0.011
   0.07177652  0.02254925  0.02725748       0.011
   0.02134971 -0.06764774 -0.00001987       0.011
  -0.02134971 -0.06764774  0.00001987       0.011
   0.02907711 -0.06764774  0.02729722       0.011
  -0.02907710 -0.06764774 -0.02729722       0.011
   0.03680451 -0.06764774  0.05461430       0.011
  -0.03680450 -0.06764774 -0.05461430       0.011
   0.04453190 -0.06764774  0.08193139       0.011
  -0.04453190 -0.06764774 -0.08193139       0.011
  -0.00183249 -0.06764774 -0.08197113       0.011
   0.00183249 -0.06764774  0.08197113       0.011
   0.00589491 -0.06764774 -0.05465404       0.011
  -0.00589491 -0.06764774  0.05465404       0.011
   0.01362231 -0.06764774 -0.02733696       0.011
  -0.01362231 -0.06764774  0.02733696       0.011
   0.00000000 -0.04509850 -0.00000000       0.011
   0.00772740 -0.04509850  0.02731709       0.011
  -0.00772740 -0.04509850 -0.02731709       0.011
   0.01545480 -0.04509850  0.05463417       0.011
  -0.01545480 -0.04509850 -0.05463417       0.011
   0.02318220 -0.04509850  0.08195126       0.011
  -0.02318220 -0.04509850 -0.08195126       0.011
  -0.08539882  0.00000000  0.00007948       0.011
  -0.07767142  0.00000000  0.02739656       0.011
  -0.06994402  0.00000000  0.05471365       0.011
  -0.06221663  0.00000000  0.08203074       0.011
  -0.10858102  0.00000000 -0.08187178       0.011
  -0.10085362  0.00000000 -0.05455470       0.011
  -0.09312622  0.00000000 -0.02723761       0.011
   0.00000000 -0.09019699 -0.00000000       0.011
   0.00772740 -0.09019699  0.02731709       0.011
  -0.00772740 -0.09019699 -0.02731709       0.011
   0.01545480 -0.09019699  0.05463417       0.011
  -0.01545480 -0.09019699 -0.05463417       0.011
   0.02318220 -0.09019699  0.08195126       0.011
  -0.02318220 -0.09019699 -0.08195126       0.011
 
 k-points in reciprocal lattice and weights: K-points file                           
   0.00000000  0.00000000  0.00000000       0.006
   0.14285714  0.00000000  0.00000000       0.011
   0.28571429  0.00000000  0.00000000       0.011
   0.42857143  0.00000000  0.00000000       0.011
  -0.00000000  0.20000000 -0.00000000       0.011
   0.00000000 -0.00000000 -0.20000000       0.011
   0.14285714  0.20000000 -0.00000000       0.011
  -0.14285714 -0.00000000 -0.20000000       0.011
   0.28571429  0.20000000 -0.00000000       0.011
  -0.28571429 -0.00000000 -0.20000000       0.011
   0.42857143  0.20000000 -0.00000000       0.011
  -0.42857143 -0.00000000 -0.20000000       0.011
  -0.42857143  0.20000000 -0.00000000       0.011
   0.42857143 -0.00000000 -0.20000000       0.011
  -0.28571429  0.20000000  0.00000000       0.011
   0.28571429 -0.00000000 -0.20000000       0.011
  -0.14285714  0.20000000  0.00000000       0.011
   0.14285714  0.00000000 -0.20000000       0.011
  -0.00000000  0.40000000  0.00000000       0.011
   0.00000000  0.00000000 -0.40000000       0.011
   0.14285714  0.40000000  0.00000000       0.011
  -0.14285714 -0.00000000 -0.40000000       0.011
   0.28571429  0.40000000  0.00000000       0.011
  -0.28571429  0.00000000 -0.40000000       0.011
   0.42857143  0.40000000 -0.00000000       0.011
  -0.42857143 -0.00000000 -0.40000000       0.011
  -0.42857143  0.40000000 -0.00000000       0.011
   0.42857143  0.00000000 -0.40000000       0.011
  -0.28571429  0.40000000 -0.00000000       0.011
   0.28571429 -0.00000000 -0.40000000       0.011
  -0.14285714  0.40000000 -0.00000000       0.011
   0.14285714  0.00000000 -0.40000000       0.011
  -0.00000000  0.20000000  0.20000000       0.011
   0.14285714  0.20000000  0.20000000       0.011
   0.28571429  0.20000000  0.20000000       0.011
   0.42857143  0.20000000  0.20000000       0.011
  -0.42857143  0.20000000  0.20000000       0.011
  -0.28571429  0.20000000  0.20000000       0.011
  -0.14285714  0.20000000  0.20000000       0.011
  -0.00000000  0.40000000  0.20000000       0.011
  -0.00000000 -0.20000000 -0.40000000       0.011
   0.14285714  0.40000000  0.20000000       0.011
  -0.14285714 -0.20000000 -0.40000000       0.011
   0.28571429  0.40000000  0.20000000       0.011
  -0.28571429 -0.20000000 -0.40000000       0.011
   0.42857143  0.40000000  0.20000000       0.011
  -0.42857143 -0.20000000 -0.40000000       0.011
  -0.42857143  0.40000000  0.20000000       0.011
   0.42857143 -0.20000000 -0.40000000       0.011
  -0.28571429  0.40000000  0.20000000       0.011
   0.28571429 -0.20000000 -0.40000000       0.011
  -0.14285714  0.40000000  0.20000000       0.011
   0.14285714 -0.20000000 -0.40000000       0.011
   0.00000000 -0.40000000  0.20000000       0.011
   0.00000000 -0.20000000  0.40000000       0.011
   0.14285714 -0.40000000  0.20000000       0.011
  -0.14285714 -0.20000000  0.40000000       0.011
   0.28571429 -0.40000000  0.20000000       0.011
  -0.28571429 -0.20000000  0.40000000       0.011
   0.42857143 -0.40000000  0.20000000       0.011
  -0.42857143 -0.20000000  0.40000000       0.011
  -0.42857143 -0.40000000  0.20000000       0.011
   0.42857143 -0.20000000  0.40000000       0.011
  -0.28571429 -0.40000000  0.20000000       0.011
   0.28571429 -0.20000000  0.40000000       0.011
  -0.14285714 -0.40000000  0.20000000       0.011
   0.14285714 -0.20000000  0.40000000       0.011
  -0.00000000 -0.20000000  0.20000000       0.011
   0.14285714 -0.20000000  0.20000000       0.011
  -0.14285714 -0.20000000  0.20000000       0.011
   0.28571429 -0.20000000  0.20000000       0.011
  -0.28571429 -0.20000000  0.20000000       0.011
   0.42857143 -0.20000000  0.20000000       0.011
  -0.42857143 -0.20000000  0.20000000       0.011
   0.00000000  0.40000000  0.40000000       0.011
   0.14285714  0.40000000  0.40000000       0.011
   0.28571429  0.40000000  0.40000000       0.011
   0.42857143  0.40000000  0.40000000       0.011
  -0.42857143  0.40000000  0.40000000       0.011
  -0.28571429  0.40000000  0.40000000       0.011
  -0.14285714  0.40000000  0.40000000       0.011
   0.00000000 -0.40000000  0.40000000       0.011
   0.14285714 -0.40000000  0.40000000       0.011
  -0.14285714 -0.40000000  0.40000000       0.011
   0.28571429 -0.40000000  0.40000000       0.011
  -0.28571429 -0.40000000  0.40000000       0.011
   0.42857143 -0.40000000  0.40000000       0.011
  -0.42857143 -0.40000000  0.40000000       0.011
 
 position of ions in fractional coordinates (direct lattice) 
   0.74999730  0.70174276  0.29825210
   0.24999730  0.29825211  0.70174276
   0.72678758  0.61994282  0.80629512
   0.77323810  0.19369463  0.38006248
   0.27323810  0.38006247  0.19369463
   0.22678758  0.80629512  0.61994281
   0.74985747  0.09122209  0.90881898
   0.24985749  0.90881897  0.09122209
   0.64252047  0.79792609  0.97060863
   0.85754593  0.02938058  0.20207954
   0.35754590  0.20207954  0.02938059
   0.14252045  0.97060864  0.79792608
   0.81906240  0.38842091  0.89121202
   0.68096684  0.10879001  0.61158467
   0.18096686  0.61158466  0.10879003
   0.31906241  0.89121203  0.38842090
   0.49156504  0.62954826  0.66735282
   0.00845886  0.33264061  0.37042489
   0.50845886  0.37042488  0.33264062
   0.99156504  0.66735282  0.62954826
 
 position of ions in cartesian coordinates  (Angst):
  -4.67899927  1.78937520  5.24576322
  -4.68143210 -1.78937525  2.63165675
  -6.67506898 -0.82642365  5.68902984
  -2.68295441 -0.82649256  4.80266612
  -2.68538712  0.82649246  2.18855965
  -6.67750171  0.82642357  3.07492339
  -4.67921636 -3.62582778  5.24509334
  -4.68164908  3.62582768  2.63098701
  -8.27834268 -0.76580186  5.70187815
  -1.07967949 -0.76587460  4.79003045
  -1.08211233  0.76587451  2.17592384
  -8.28077551  0.76580177  3.08777156
  -5.98811677 -2.22974677  5.97726567
  -3.36996544 -2.22976245  4.51446554
  -3.37239820  2.22976226  1.90035918
  -5.99054949  2.22974671  3.36315924
  -6.07057130 -0.16765337  4.28791358
  -3.29218435 -0.16756337  0.97552248
  -3.28975153  0.16756325  3.58962893
  -6.06813851  0.16765328  6.90202003
 


--------------------------------------------------------------------------------------------------------


 k-point   1 :   0.0000 0.0000 0.0000  plane waves:    5833
 k-point   2 :   0.1429 0.0000 0.0000  plane waves:    5854
 k-point   3 :   0.2857 0.0000 0.0000  plane waves:    5860
 k-point   4 :   0.4286 0.0000 0.0000  plane waves:    5864
 k-point   5 :  -0.0000 0.2000-0.0000  plane waves:    5835
 k-point   6 :   0.0000-0.0000-0.2000  plane waves:    5835
 k-point   7 :   0.1429 0.2000-0.0000  plane waves:    5848
 k-point   8 :  -0.1429-0.0000-0.2000  plane waves:    5848
 k-point   9 :   0.2857 0.2000-0.0000  plane waves:    5856
 k-point  10 :  -0.2857-0.0000-0.2000  plane waves:    5856
 k-point  11 :   0.4286 0.2000-0.0000  plane waves:    5851
 k-point  12 :  -0.4286-0.0000-0.2000  plane waves:    5851
 k-point  13 :  -0.4286 0.2000-0.0000  plane waves:    5865
 k-point  14 :   0.4286-0.0000-0.2000  plane waves:    5865
 k-point  15 :  -0.2857 0.2000 0.0000  plane waves:    5855
 k-point  16 :   0.2857-0.0000-0.2000  plane waves:    5855
 k-point  17 :  -0.1429 0.2000 0.0000  plane waves:    5845
 k-point  18 :   0.1429 0.0000-0.2000  plane waves:    5845
 k-point  19 :  -0.0000 0.4000 0.0000  plane waves:    5848
 k-point  20 :   0.0000 0.0000-0.4000  plane waves:    5848
 k-point  21 :   0.1429 0.4000 0.0000  plane waves:    5850
 k-point  22 :  -0.1429-0.0000-0.4000  plane waves:    5850
 k-point  23 :   0.2857 0.4000 0.0000  plane waves:    5836
 k-point  24 :  -0.2857 0.0000-0.4000  plane waves:    5836
 k-point  25 :   0.4286 0.4000-0.0000  plane waves:    5840
 k-point  26 :  -0.4286-0.0000-0.4000  plane waves:    5840
 k-point  27 :  -0.4286 0.4000-0.0000  plane waves:    5854
 k-point  28 :   0.4286 0.0000-0.4000  plane waves:    5854
 k-point  29 :  -0.2857 0.4000-0.0000  plane waves:    5846
 k-point  30 :   0.2857-0.0000-0.4000  plane waves:    5846
 k-point  31 :  -0.1429 0.4000-0.0000  plane waves:    5852
 k-point  32 :   0.1429 0.0000-0.4000  plane waves:    5852
 k-point  33 :  -0.0000 0.2000 0.2000  plane waves:    5839
 k-point  34 :   0.1429 0.2000 0.2000  plane waves:    5831
 k-point  35 :   0.2857 0.2000 0.2000  plane waves:    5839
 k-point  36 :   0.4286 0.2000 0.2000  plane waves:    5855
 k-point  37 :  -0.4286 0.2000 0.2000  plane waves:    5867
 k-point  38 :  -0.2857 0.2000 0.2000  plane waves:    5844
 k-point  39 :  -0.1429 0.2000 0.2000  plane waves:    5835
 k-point  40 :  -0.0000 0.4000 0.2000  plane waves:    5867
 k-point  41 :  -0.0000-0.2000-0.4000  plane waves:    5867
 k-point  42 :   0.1429 0.4000 0.2000  plane waves:    5847
 k-point  43 :  -0.1429-0.2000-0.4000  plane waves:    5847
 k-point  44 :   0.2857 0.4000 0.2000  plane waves:    5843
 k-point  45 :  -0.2857-0.2000-0.4000  plane waves:    5843
 k-point  46 :   0.4286 0.4000 0.2000  plane waves:    5853
 k-point  47 :  -0.4286-0.2000-0.4000  plane waves:    5853
 k-point  48 :  -0.4286 0.4000 0.2000  plane waves:    5850
 k-point  49 :   0.4286-0.2000-0.4000  plane waves:    5850
 k-point  50 :  -0.2857 0.4000 0.2000  plane waves:    5855
 k-point  51 :   0.2857-0.2000-0.4000  plane waves:    5855
 k-point  52 :  -0.1429 0.4000 0.2000  plane waves:    5851
 k-point  53 :   0.1429-0.2000-0.4000  plane waves:    5851
 k-point  54 :   0.0000-0.4000 0.2000  plane waves:    5848
 k-point  55 :   0.0000-0.2000 0.4000  plane waves:    5848
 k-point  56 :   0.1429-0.4000 0.2000  plane waves:    5851
 k-point  57 :  -0.1429-0.2000 0.4000  plane waves:    5851
 k-point  58 :   0.2857-0.4000 0.2000  plane waves:    5855
 k-point  59 :  -0.2857-0.2000 0.4000  plane waves:    5855
 k-point  60 :   0.4286-0.4000 0.2000  plane waves:    5849
 k-point  61 :  -0.4286-0.2000 0.4000  plane waves:    5849
 k-point  62 :  -0.4286-0.4000 0.2000  plane waves:    5842
 k-point  63 :   0.4286-0.2000 0.4000  plane waves:    5842
 k-point  64 :  -0.2857-0.4000 0.2000  plane waves:    5829
 k-point  65 :   0.2857-0.2000 0.4000  plane waves:    5829
 k-point  66 :  -0.1429-0.4000 0.2000  plane waves:    5855
 k-point  67 :   0.1429-0.2000 0.4000  plane waves:    5855
 k-point  68 :  -0.0000-0.2000 0.2000  plane waves:    5841
 k-point  69 :   0.1429-0.2000 0.2000  plane waves:    5834
 k-point  70 :  -0.1429-0.2000 0.2000  plane waves:    5834
 k-point  71 :   0.2857-0.2000 0.2000  plane waves:    5839
 k-point  72 :  -0.2857-0.2000 0.2000  plane waves:    5839
 k-point  73 :   0.4286-0.2000 0.2000  plane waves:    5845
 k-point  74 :  -0.4286-0.2000 0.2000  plane waves:    5845
 k-point  75 :   0.0000 0.4000 0.4000  plane waves:    5877
 k-point  76 :   0.1429 0.4000 0.4000  plane waves:    5853
 k-point  77 :   0.2857 0.4000 0.4000  plane waves:    5836
 k-point  78 :   0.4286 0.4000 0.4000  plane waves:    5840
 k-point  79 :  -0.4286 0.4000 0.4000  plane waves:    5835
 k-point  80 :  -0.2857 0.4000 0.4000  plane waves:    5860
 k-point  81 :  -0.1429 0.4000 0.4000  plane waves:    5870
 k-point  82 :   0.0000-0.4000 0.4000  plane waves:    5856
 k-point  83 :   0.1429-0.4000 0.4000  plane waves:    5854
 k-point  84 :  -0.1429-0.4000 0.4000  plane waves:    5854
 k-point  85 :   0.2857-0.4000 0.4000  plane waves:    5838
 k-point  86 :  -0.2857-0.4000 0.4000  plane waves:    5838
 k-point  87 :   0.4286-0.4000 0.4000  plane waves:    5845
 k-point  88 :  -0.4286-0.4000 0.4000  plane waves:    5845

 maximum and minimum number of plane-waves per node :       515      461

 maximum number of plane-waves:      5877
 maximum index in each direction: 
   IXMAX=   10   IYMAX=   12   IZMAX=   12
   IXMIN=  -10   IYMIN=  -12   IZMIN=  -12


 real space projection operators:
  total allocation   :       6327.22 KBytes
  max/ min on nodes  :        604.73        488.14


 parallel 3D FFT for wavefunctions:
    minimum data exchange during FFTs selected (reduces bandwidth)
 parallel 3D FFT for charge:
    minimum data exchange during FFTs selected (reduces bandwidth)


 total amount of memory used by VASP MPI-rank0   172392. kBytes
=======================================================================

   base      :      30000. kBytes
   nonlr-proj:       3339. kBytes
   fftplans  :       2666. kBytes
   grid      :       9420. kBytes
   one-center:         62. kBytes
   wavefun   :     126905. kBytes
 
     INWAV:  cpu time    0.0001: real time    0.0001
 Broyden mixing: mesh for mixing (old mesh)
   NGX = 19   NGY = 25   NGZ = 25
  (NGX  = 80   NGY  =100   NGZ  =100)
  gives a total of  11875 points

 initial charge density was supplied:
 number of electron     140.0000056 magnetization       4.0000000
 keeping initial charge density in first step


--------------------------------------------------------------------------------------------------------


 Maximum index for non-local projection operator          843
 Maximum index for augmentation-charges         1877 (set IRDMAX)


--------------------------------------------------------------------------------------------------------


 First call to EWALD:  gamma=   0.295
 Maximum number of real-space cells 3x 3x 3
 Maximum number of reciprocal cells 2x 3x 3

    FEWALD:  cpu time    0.0012: real time    0.0012


--------------------------------------- Iteration      1(   1)  ---------------------------------------


    POTLOK:  cpu time    0.2349: real time    0.2349
    SETDIJ:  cpu time    1.3068: real time    1.3068
atom =   7  type =  3  l = 2
 
 onsite density matrix
 
spin component  1
 
  0.9722 -0.0142 -0.0000  0.0000  0.0000
 -0.0142  0.9590 -0.0000 -0.0000 -0.0000
 -0.0000 -0.0000  0.9602  0.0146  0.0054
  0.0000 -0.0000  0.0146  0.9703  0.0065
  0.0000 -0.0000  0.0054  0.0065  0.9527
 
spin component  2
 
  0.3362  0.3786  0.0002 -0.0000 -0.0000
  0.3786  0.7110 -0.0001  0.0001  0.0000
  0.0002 -0.0001  0.6761 -0.3723 -0.1205
 -0.0000  0.0001 -0.3723  0.4330 -0.1675
 -0.0000  0.0000 -0.1205 -0.1675  0.8929
 
 occupancies and eigenvectors
 
  o =  0.1011  v =  0.0000  0.0000  0.0000  0.0000  0.0000  0.8496 -0.5275 -0.0041 -0.0053 -0.0017      0.0000  0.0000  0.0000  0.0000  0.0000  0.0000  0.0000  0.0000  0.0000  0.0000
  o =  0.1086  v =  0.0000  0.0000  0.0000  0.0000  0.0000  0.0059 -0.0037  0.5677  0.7829  0.2544      0.0000  0.0000  0.0000  0.0000  0.0000  0.0000  0.0000  0.0000  0.0000  0.0000
  o =  0.9457  v =  0.0000  0.0000  0.0000  0.0000  0.0000 -0.0040 -0.0059 -0.7749  0.4039  0.4862      0.0000  0.0000  0.0000  0.0000  0.0000  0.0000  0.0000  0.0000  0.0000  0.0000
  o =  0.9460  v =  0.0000  0.0000  0.0000  0.0000  0.0000 -0.5274 -0.8496  0.0047 -0.0016 -0.0059      0.0000  0.0000  0.0000  0.0000  0.0000  0.0000  0.0000  0.0000  0.0000  0.0000
  o =  0.9476  v =  0.0000  0.0000  0.0000  0.0000  0.0000 -0.0015 -0.0024  0.2779 -0.4731  0.8360      0.0000  0.0000  0.0000  0.0000  0.0000  0.0000  0.0000  0.0000  0.0000  0.0000
  o =  0.9494  v =  0.0015  0.0021  0.7747 -0.3871 -0.5000  0.0000  0.0000  0.0000  0.0000  0.0000      0.0000  0.0000  0.0000  0.0000  0.0000  0.0000  0.0000  0.0000  0.0000  0.0000
  o =  0.9499  v = -0.5380 -0.8430  0.0017 -0.0009 -0.0019  0.0000  0.0000  0.0000  0.0000  0.0000      0.0000  0.0000  0.0000  0.0000  0.0000  0.0000  0.0000  0.0000  0.0000  0.0000
  o =  0.9508  v = -0.0004 -0.0005  0.2872 -0.4890  0.8236  0.0000  0.0000  0.0000  0.0000  0.0000      0.0000  0.0000  0.0000  0.0000  0.0000  0.0000  0.0000  0.0000  0.0000  0.0000
  o =  0.9813  v = -0.8429  0.5380  0.0031  0.0042  0.0013  0.0000  0.0000  0.0000  0.0000  0.0000      0.0000  0.0000  0.0000  0.0000  0.0000  0.0000  0.0000  0.0000  0.0000  0.0000
  o =  0.9831  v =  0.0044 -0.0031  0.5634  0.7816  0.2676  0.0000  0.0000  0.0000  0.0000  0.0000      0.0000  0.0000  0.0000  0.0000  0.0000  0.0000  0.0000  0.0000  0.0000  0.0000
atom =   8  type =  3  l = 2
 
 onsite density matrix
 
spin component  1
 
  0.9722 -0.0142  0.0000 -0.0000 -0.0000
 -0.0142  0.9590  0.0000  0.0000  0.0000
  0.0000  0.0000  0.9602  0.0146  0.0054
 -0.0000  0.0000  0.0146  0.9703  0.0065
 -0.0000  0.0000  0.0054  0.0065  0.9527
 
spin component  2
 
  0.3362  0.3786 -0.0002  0.0000  0.0000
  0.3786  0.7110  0.0001 -0.0001 -0.0000
 -0.0002  0.0001  0.6761 -0.3723 -0.1205
  0.0000 -0.0001 -0.3723  0.4330 -0.1675
  0.0000 -0.0000 -0.1205 -0.1675  0.8929
 
 occupancies and eigenvectors
 
  o =  0.1011  v =  0.0000  0.0000  0.0000  0.0000  0.0000  0.8496 -0.5275  0.0041  0.0053  0.0017      0.0000  0.0000  0.0000  0.0000  0.0000  0.0000  0.0000  0.0000  0.0000  0.0000
  o =  0.1086  v =  0.0000  0.0000  0.0000  0.0000  0.0000  0.0059 -0.0037 -0.5677 -0.7829 -0.2544      0.0000  0.0000  0.0000  0.0000  0.0000  0.0000  0.0000  0.0000  0.0000  0.0000
  o =  0.9457  v =  0.0000  0.0000  0.0000  0.0000  0.0000  0.0040  0.0059 -0.7749  0.4039  0.4861      0.0000  0.0000  0.0000  0.0000  0.0000  0.0000  0.0000  0.0000  0.0000  0.0000
  o =  0.9460  v =  0.0000  0.0000  0.0000  0.0000  0.0000  0.5274  0.8496  0.0047 -0.0016 -0.0059      0.0000  0.0000  0.0000  0.0000  0.0000  0.0000  0.0000  0.0000  0.0000  0.0000
  o =  0.9476  v =  0.0000  0.0000  0.0000  0.0000  0.0000  0.0015  0.0024  0.2779 -0.4731  0.8360      0.0000  0.0000  0.0000  0.0000  0.0000  0.0000  0.0000  0.0000  0.0000  0.0000
  o =  0.9494  v = -0.0015 -0.0021  0.7747 -0.3872 -0.5000  0.0000  0.0000  0.0000  0.0000  0.0000      0.0000  0.0000  0.0000  0.0000  0.0000  0.0000  0.0000  0.0000  0.0000  0.0000
  o =  0.9499  v =  0.5380  0.8429  0.0017 -0.0009 -0.0019  0.0000  0.0000  0.0000  0.0000  0.0000      0.0000  0.0000  0.0000  0.0000  0.0000  0.0000  0.0000  0.0000  0.0000  0.0000
  o =  0.9508  v =  0.0004  0.0005  0.2872 -0.4890  0.8236  0.0000  0.0000  0.0000  0.0000  0.0000      0.0000  0.0000  0.0000  0.0000  0.0000  0.0000  0.0000  0.0000  0.0000  0.0000
  o =  0.9813  v = -0.8429  0.5380 -0.0031 -0.0042 -0.0013  0.0000  0.0000  0.0000  0.0000  0.0000      0.0000  0.0000  0.0000  0.0000  0.0000  0.0000  0.0000  0.0000  0.0000  0.0000
  o =  0.9831  v =  0.0044 -0.0031 -0.5634 -0.7816 -0.2676  0.0000  0.0000  0.0000  0.0000  0.0000      0.0000  0.0000  0.0000  0.0000  0.0000  0.0000  0.0000  0.0000  0.0000  0.0000
     EDDAV:  cpu time  112.7580: real time  112.7693
       DOS:  cpu time    0.0282: real time    0.0282
    --------------------------------------------
      LOOP:  cpu time  114.3279: real time  114.3392

 eigenvalue-minimisations  : 33440
 total energy-change (2. order) : 0.1360028E+04  (-0.7931890E+04)
 number of electron     140.0000056 magnetization       4.0000000
 augmentation part      140.0000056 magnetization       4.0000000

 Free energy of the ion-electron system (eV)
  ---------------------------------------------------
  alpha Z        PSCENC =       500.24341725
  Ewald energy   TEWEN  =     -9240.02021635
  -Hartree energ DENC   =     -5100.94856713
  -exchange      EXHF   =         0.00000000
  -V(xc)+E(xc)   XCENC  =       699.96820223
  PAW double counting   =     22165.26202773   -22460.67592298
  entropy T*S    EENTRO =        -0.00571876
  eigenvalues    EBANDS =       181.33546301
  atomic energy  EATOM  =     14614.86962263
  Solvation  Ediel_sol  =         0.00000000
  ---------------------------------------------------
  free energy    TOTEN  =      1360.02830762 eV

  energy without entropy =     1360.03402638  energy(sigma->0) =     1360.03116700


--------------------------------------------------------------------------------------------------------




--------------------------------------- Iteration      1(   2)  ---------------------------------------


     EDDAV:  cpu time  112.9981: real time  113.0038
       DOS:  cpu time    0.0247: real time    0.0247
    --------------------------------------------
      LOOP:  cpu time  113.0228: real time  113.0286

 eigenvalue-minimisations  : 33179
 total energy-change (2. order) :-0.1463900E+04  (-0.1382870E+04)
 number of electron     140.0000056 magnetization       4.0000000
 augmentation part      140.0000056 magnetization       4.0000000

 Free energy of the ion-electron system (eV)
  ---------------------------------------------------
  alpha Z        PSCENC =       500.24341725
  Ewald energy   TEWEN  =     -9240.02021635
  -Hartree energ DENC   =     -5100.94856713
  -exchange      EXHF   =         0.00000000
  -V(xc)+E(xc)   XCENC  =       699.96820223
  PAW double counting   =     22165.26202773   -22460.67592298
  entropy T*S    EENTRO =        -0.00013182
  eigenvalues    EBANDS =     -1282.57050388
  atomic energy  EATOM  =     14614.86962263
  Solvation  Ediel_sol  =         0.00000000
  ---------------------------------------------------
  free energy    TOTEN  =      -103.87207233 eV

  energy without entropy =     -103.87194051  energy(sigma->0) =     -103.87200642


--------------------------------------------------------------------------------------------------------




--------------------------------------- Iteration      1(   3)  ---------------------------------------


     EDDAV:  cpu time  126.1952: real time  126.2003
       DOS:  cpu time    0.0071: real time    0.0071
    --------------------------------------------
      LOOP:  cpu time  126.2023: real time  126.2074

 eigenvalue-minimisations  : 38453
 total energy-change (2. order) :-0.1532843E+03  (-0.1514126E+03)
 number of electron     140.0000056 magnetization       4.0000000
 augmentation part      140.0000056 magnetization       4.0000000

 Free energy of the ion-electron system (eV)
  ---------------------------------------------------
  alpha Z        PSCENC =       500.24341725
  Ewald energy   TEWEN  =     -9240.02021635
  -Hartree energ DENC   =     -5100.94856713
  -exchange      EXHF   =         0.00000000
  -V(xc)+E(xc)   XCENC  =       699.96820223
  PAW double counting   =     22165.26202773   -22460.67592298
  entropy T*S    EENTRO =        -0.00000000
  eigenvalues    EBANDS =     -1435.85490426
  atomic energy  EATOM  =     14614.86962263
  Solvation  Ediel_sol  =         0.00000000
  ---------------------------------------------------
  free energy    TOTEN  =      -257.15634089 eV

  energy without entropy =     -257.15634089  energy(sigma->0) =     -257.15634089


--------------------------------------------------------------------------------------------------------




--------------------------------------- Iteration      1(   4)  ---------------------------------------


     EDDAV:  cpu time  138.2053: real time  138.2098
       DOS:  cpu time    0.0071: real time    0.0071
    --------------------------------------------
      LOOP:  cpu time  138.2124: real time  138.2169

 eigenvalue-minimisations  : 42288
 total energy-change (2. order) :-0.5753837E+01  (-0.5722724E+01)
 number of electron     140.0000056 magnetization       4.0000000
 augmentation part      140.0000056 magnetization       4.0000000

 Free energy of the ion-electron system (eV)
  ---------------------------------------------------
  alpha Z        PSCENC =       500.24341725
  Ewald energy   TEWEN  =     -9240.02021635
  -Hartree energ DENC   =     -5100.94856713
  -exchange      EXHF   =         0.00000000
  -V(xc)+E(xc)   XCENC  =       699.96820223
  PAW double counting   =     22165.26202773   -22460.67592298
  entropy T*S    EENTRO =        -0.00000000
  eigenvalues    EBANDS =     -1441.60874127
  atomic energy  EATOM  =     14614.86962263
  Solvation  Ediel_sol  =         0.00000000
  ---------------------------------------------------
  free energy    TOTEN  =      -262.91017789 eV

  energy without entropy =     -262.91017789  energy(sigma->0) =     -262.91017789


--------------------------------------------------------------------------------------------------------




--------------------------------------- Iteration      1(   5)  ---------------------------------------


     EDDAV:  cpu time  165.3808: real time  165.3868
       DOS:  cpu time    0.0065: real time    0.0065
    CHARGE:  cpu time   15.8933: real time   15.8936
    MIXING:  cpu time    0.0050: real time    0.0050
    --------------------------------------------
      LOOP:  cpu time  181.2856: real time  181.2918

 eigenvalue-minimisations  : 54138
 total energy-change (2. order) :-0.4314222E+00  (-0.4309827E+00)
 number of electron     140.0000054 magnetization       4.0000000
 augmentation part       30.7104906 magnetization       2.7879121

 Broyden mixing:
  rms(total) = 0.61081E+00    rms(broyden)= 0.61065E+00
  rms(prec ) = 0.77338E+00
  weight for this iteration     100.00

 Free energy of the ion-electron system (eV)
  ---------------------------------------------------
  alpha Z        PSCENC =       500.24341725
  Ewald energy   TEWEN  =     -9240.02021635
  -Hartree energ DENC   =     -5100.94856713
  -exchange      EXHF   =         0.00000000
  -V(xc)+E(xc)   XCENC  =       699.96820223
  PAW double counting   =     22165.26202773   -22460.67592298
  entropy T*S    EENTRO =        -0.00000000
  eigenvalues    EBANDS =     -1442.04016342
  atomic energy  EATOM  =     14614.86962263
  Solvation  Ediel_sol  =         0.00000000
  ---------------------------------------------------
  free energy    TOTEN  =      -263.34160004 eV

  energy without entropy =     -263.34160004  energy(sigma->0) =     -263.34160004


--------------------------------------------------------------------------------------------------------




--------------------------------------- Iteration      1(   6)  ---------------------------------------


    POTLOK:  cpu time    0.2558: real time    0.2559
    SETDIJ:  cpu time    1.5580: real time    1.5580
atom =   7  type =  3  l = 2
 
 onsite density matrix
 
spin component  1
 
  0.9678 -0.0117  0.0000  0.0000 -0.0000
 -0.0117  0.9571  0.0000  0.0000  0.0000
  0.0000  0.0000  0.9579  0.0120  0.0047
  0.0000  0.0000  0.0120  0.9666  0.0056
 -0.0000  0.0000  0.0047  0.0056  0.9522
 
spin component  2
 
  0.3417  0.3730  0.0001 -0.0000 -0.0000
  0.3730  0.7110 -0.0001  0.0000  0.0000
  0.0001 -0.0001  0.6771 -0.3666 -0.1188
 -0.0000  0.0000 -0.3666  0.4370 -0.1654
 -0.0000  0.0000 -0.1188 -0.1654  0.8902
 
 occupancies and eigenvectors
 
  o =  0.1101  v =  0.0000  0.0000  0.0000  0.0000  0.0000  0.8496 -0.5274 -0.0042 -0.0055 -0.0018      0.0000  0.0000  0.0000  0.0000  0.0000  0.0000  0.0000  0.0000  0.0000  0.0000
  o =  0.1176  v =  0.0000  0.0000  0.0000  0.0000  0.0000  0.0061 -0.0037  0.5673  0.7831  0.2549      0.0000  0.0000  0.0000  0.0000  0.0000  0.0000  0.0000  0.0000  0.0000  0.0000
  o =  0.9424  v =  0.0000  0.0000  0.0000  0.0000  0.0000 -0.0087 -0.0137 -0.7737  0.4008  0.4904      0.0000  0.0000  0.0000  0.0000  0.0000  0.0000  0.0000  0.0000  0.0000  0.0000
  o =  0.9425  v =  0.0000  0.0000  0.0000  0.0000  0.0000 -0.5273 -0.8495  0.0123 -0.0060 -0.0088      0.0000  0.0000  0.0000  0.0000  0.0000  0.0000  0.0000  0.0000  0.0000  0.0000
  o =  0.9444  v =  0.0000  0.0000  0.0000  0.0000  0.0000 -0.0005 -0.0009  0.2819 -0.4755  0.8333      0.0000  0.0000  0.0000  0.0000  0.0000  0.0000  0.0000  0.0000  0.0000  0.0000
  o =  0.9491  v = -0.0039 -0.0052  0.7821 -0.3766 -0.4964  0.0000  0.0000  0.0000  0.0000  0.0000      0.0000  0.0000  0.0000  0.0000  0.0000  0.0000  0.0000  0.0000  0.0000  0.0000
  o =  0.9496  v = -0.5401 -0.8416 -0.0046  0.0044  0.0026  0.0000  0.0000  0.0000  0.0000  0.0000      0.0000  0.0000  0.0000  0.0000  0.0000  0.0000  0.0000  0.0000  0.0000  0.0000
  o =  0.9504  v = -0.0006 -0.0012  0.2828 -0.4953  0.8214  0.0000  0.0000  0.0000  0.0000  0.0000      0.0000  0.0000  0.0000  0.0000  0.0000  0.0000  0.0000  0.0000  0.0000  0.0000
  o =  0.9753  v = -0.8416  0.5401  0.0017  0.0030  0.0014  0.0000  0.0000  0.0000  0.0000  0.0000      0.0000  0.0000  0.0000  0.0000  0.0000  0.0000  0.0000  0.0000  0.0000  0.0000
  o =  0.9772  v =  0.0040 -0.0006  0.5552  0.7828  0.2809  0.0000  0.0000  0.0000  0.0000  0.0000      0.0000  0.0000  0.0000  0.0000  0.0000  0.0000  0.0000  0.0000  0.0000  0.0000
atom =   8  type =  3  l = 2
 
 onsite density matrix
 
spin component  1
 
  0.9678 -0.0117 -0.0000 -0.0000 -0.0000
 -0.0117  0.9571 -0.0000 -0.0000 -0.0000
 -0.0000 -0.0000  0.9579  0.0120  0.0047
 -0.0000 -0.0000  0.0120  0.9666  0.0056
 -0.0000 -0.0000  0.0047  0.0056  0.9522
 
spin component  2
 
  0.3417  0.3730 -0.0001  0.0000  0.0000
  0.3730  0.7110  0.0001 -0.0000 -0.0000
[...]
 -0.018   0.004  -0.017   0.000   0.000   0.049  -0.000  -0.000
 -0.000   0.000  -0.000   0.014   0.014  -0.000  -0.012  -0.034
 -0.000  -0.000  -0.000   0.022   0.014   0.000  -0.039  -0.012
  0.002   0.002  -0.008  -0.000  -0.000   0.020   0.000   0.000
  0.019   0.003   0.014  -0.000   0.000  -0.012   0.000  -0.000
 -0.019   0.000  -0.022   0.000   0.000   0.040  -0.000  -0.000
 pseudopotential strength for first ion, spin component:           2
-18.002  -4.999   0.025  -0.000   0.000  -0.016   0.000   0.000
 -4.999  -1.822   0.018  -0.000   0.000  -0.032  -0.000  -0.000
  0.025   0.018 -19.088  -0.000   0.000   6.039   0.000  -0.000
 -0.000  -0.000  -0.000 -19.100   0.017   0.000   6.037  -0.014
  0.000   0.000   0.000   0.017 -19.119  -0.000  -0.014   6.052
 -0.016  -0.032   6.039   0.000  -0.000   9.019  -0.000   0.000
  0.000  -0.000   0.000   6.037  -0.014  -0.000   9.069  -0.006
  0.000  -0.000  -0.000  -0.014   6.052   0.000  -0.006   9.081
 -0.000   0.000  -0.000   0.011   0.012   0.000  -0.018  -0.039
 -0.000  -0.000  -0.000   0.019   0.011  -0.000  -0.050  -0.018
  0.001   0.003  -0.006  -0.000  -0.000   0.023   0.000   0.000
  0.017   0.001   0.011  -0.000  -0.000  -0.018   0.000   0.000
 -0.018   0.004  -0.018  -0.000   0.000   0.050   0.000  -0.000
 -0.000   0.000  -0.000   0.014   0.015  -0.000  -0.011  -0.034
 -0.000  -0.000  -0.000   0.022   0.014   0.000  -0.039  -0.011
  0.002   0.002  -0.008  -0.000  -0.000   0.020   0.000   0.000
  0.019   0.003   0.014  -0.000  -0.000  -0.011   0.000   0.000
 -0.019   0.000  -0.023  -0.000   0.000   0.040   0.000  -0.000
 total augmentation occupancy for first ion, spin component:           1
  2.002   0.004  -0.002   0.000  -0.000  -0.005   0.000  -0.000  -0.000   0.000  -0.001  -0.006   0.003   0.000  -0.000   0.000
  0.004   0.442  -0.042   0.000  -0.000   0.036  -0.000  -0.000   0.000  -0.000   0.024   0.110  -0.036  -0.000   0.000  -0.013
 -0.002  -0.042   2.007   0.000  -0.000  -0.002   0.000  -0.000  -0.000   0.000   0.009   0.006   0.012   0.000  -0.000  -0.002
  0.000   0.000   0.000   2.007   0.000   0.000  -0.002  -0.005   0.005  -0.018   0.000   0.000  -0.000  -0.004   0.003  -0.000
 -0.000  -0.000  -0.000   0.000   2.007  -0.000  -0.005   0.003  -0.022   0.006  -0.000   0.000   0.000   0.006  -0.004   0.000
 -0.005   0.036  -0.002   0.000  -0.000   0.030  -0.000   0.000   0.000  -0.000  -0.008  -0.012  -0.015  -0.000   0.000   0.004
  0.000  -0.000   0.000  -0.002  -0.005  -0.000   0.032   0.008  -0.011   0.029   0.000  -0.000  -0.000   0.007  -0.017  -0.000
 -0.000  -0.000  -0.000  -0.005   0.003   0.000   0.008   0.026   0.027  -0.012  -0.000  -0.000  -0.000  -0.015   0.007   0.000
 -0.000   0.000  -0.000   0.005  -0.022   0.000  -0.011   0.027   0.366  -0.074  -0.000  -0.000  -0.000  -0.212   0.043   0.000
  0.000  -0.000   0.000  -0.018   0.006  -0.000   0.029  -0.012  -0.074   0.297   0.000  -0.000  -0.000   0.043  -0.175  -0.000
 -0.001   0.024   0.009   0.000  -0.000  -0.008   0.000  -0.000  -0.000   0.000   0.254   0.159   0.093   0.000  -0.000  -0.144
 -0.006   0.110   0.006   0.000   0.000  -0.012  -0.000  -0.000  -0.000  -0.000   0.159   0.403   0.124   0.000   0.000  -0.092
  0.003  -0.036   0.012  -0.000   0.000  -0.015  -0.000  -0.000  -0.000  -0.000   0.093   0.124   0.172   0.000   0.000  -0.054
  0.000  -0.000   0.000  -0.004   0.006  -0.000   0.007  -0.015  -0.212   0.043   0.000   0.000   0.000   0.124  -0.025  -0.000
 -0.000   0.000  -0.000   0.003  -0.004   0.000  -0.017   0.007   0.043  -0.175  -0.000   0.000   0.000  -0.025   0.104   0.000
  0.000  -0.013  -0.002  -0.000   0.000   0.004  -0.000   0.000   0.000  -0.000  -0.144  -0.092  -0.054  -0.000   0.000   0.083
  0.001  -0.063  -0.004   0.000  -0.000   0.007   0.000   0.000   0.000   0.000  -0.091  -0.232  -0.071  -0.000  -0.000   0.054
 -0.001   0.024  -0.001   0.000  -0.000   0.009   0.000   0.000   0.000   0.000  -0.054  -0.071  -0.101  -0.000  -0.000   0.032
 total augmentation occupancy for first ion, spin component:           2
  0.000   0.000   0.000  -0.000   0.000   0.000  -0.000   0.000  -0.000   0.000  -0.000  -0.000  -0.000   0.000  -0.000  -0.000
  0.000  -0.002   0.000  -0.000   0.000  -0.000  -0.000   0.000   0.000   0.000   0.000  -0.000   0.000   0.000  -0.000  -0.000
  0.000   0.000   0.000  -0.000   0.000   0.000   0.000   0.000  -0.000   0.000   0.000  -0.000   0.000   0.000  -0.000  -0.000
 -0.000  -0.000  -0.000   0.000  -0.000   0.000   0.000   0.000   0.000   0.000   0.000  -0.000   0.000  -0.000   0.000  -0.000
  0.000   0.000   0.000  -0.000   0.000  -0.000   0.000  -0.000  -0.000   0.000  -0.000   0.000  -0.000   0.000  -0.000   0.000
  0.000  -0.000   0.000   0.000  -0.000  -0.000  -0.000   0.000   0.000  -0.000   0.000   0.000   0.000   0.000   0.000  -0.000
 -0.000  -0.000   0.000   0.000   0.000  -0.000  -0.000  -0.000   0.000  -0.000  -0.000  -0.000  -0.000  -0.000   0.000   0.000
  0.000   0.000   0.000   0.000  -0.000   0.000  -0.000  -0.000  -0.000   0.000  -0.000  -0.000   0.000   0.000  -0.000   0.000
 -0.000   0.000  -0.000   0.000  -0.000   0.000   0.000  -0.000  -0.001   0.000  -0.000  -0.000   0.000   0.000  -0.000   0.000
  0.000   0.000   0.000   0.000   0.000  -0.000  -0.000   0.000   0.000  -0.001  -0.000  -0.000  -0.000  -0.000   0.000   0.000
 -0.000   0.000   0.000   0.000  -0.000   0.000  -0.000  -0.000  -0.000  -0.000  -0.001  -0.000  -0.000   0.000   0.000   0.000
 -0.000  -0.000  -0.000  -0.000   0.000   0.000  -0.000  -0.000  -0.000  -0.000  -0.000  -0.001  -0.001  -0.000   0.000   0.000
 -0.000   0.000   0.000   0.000  -0.000   0.000  -0.000   0.000   0.000  -0.000  -0.000  -0.001  -0.000  -0.000   0.000  -0.000
  0.000   0.000   0.000  -0.000   0.000   0.000  -0.000   0.000   0.000  -0.000   0.000  -0.000  -0.000  -0.000  -0.000   0.000
 -0.000  -0.000  -0.000   0.000  -0.000   0.000   0.000  -0.000  -0.000   0.000   0.000   0.000   0.000  -0.000  -0.000  -0.000
 -0.000  -0.000  -0.000  -0.000   0.000  -0.000   0.000   0.000   0.000   0.000   0.000   0.000  -0.000   0.000  -0.000  -0.000
  0.000   0.000  -0.000   0.000  -0.000  -0.000   0.000  -0.000  -0.000   0.000   0.000   0.000   0.000   0.000  -0.000   0.000
 -0.000  -0.000  -0.000  -0.000   0.000  -0.000   0.000  -0.000   0.000  -0.000  -0.000   0.000   0.000  -0.000   0.000   0.000


------------------------ aborting loop because EDIFF is reached ----------------------------------------


 


 total charge     
 
# of ion       s       p       d       tot
------------------------------------------
    1        2.024   5.871   0.232   8.127
    2        2.024   5.871   0.232   8.127
    3        0.654   1.005   0.000   1.659
    4        0.654   1.005   0.000   1.659
    5        0.654   1.005   0.000   1.659
    6        0.654   1.005   0.000   1.659
    7        0.200   6.172   7.841  14.213
    8        0.200   6.172   7.841  14.213
    9        1.564   3.631   0.000   5.195
   10        1.564   3.631   0.000   5.195
   11        1.564   3.631   0.000   5.195
   12        1.564   3.631   0.000   5.195
   13        1.565   3.614   0.000   5.179
   14        1.565   3.614   0.000   5.179
   15        1.565   3.614   0.000   5.179
   16        1.565   3.614   0.000   5.179
   17        1.561   3.691   0.000   5.252
   18        1.561   3.691   0.000   5.252
   19        1.561   3.691   0.000   5.252
   20        1.561   3.691   0.000   5.252
--------------------------------------------------
tot         25.822  71.849  16.147 113.819
 


 magnetization (x)
 
# of ion       s       p       d       tot
------------------------------------------
    1       -0.000  -0.000  -0.001  -0.001
    2       -0.000  -0.000  -0.001  -0.001
    3        0.002   0.004   0.000   0.006
    4        0.002   0.004   0.000   0.006
    5        0.002   0.004   0.000   0.006
    6        0.002   0.004   0.000   0.006
    7       -0.003   0.000   1.765   1.763
    8       -0.003   0.000   1.765   1.763
    9        0.009   0.050   0.000   0.059
   10        0.009   0.050   0.000   0.059
   11        0.009   0.050   0.000   0.059
   12        0.009   0.050   0.000   0.059
   13        0.006   0.025   0.000   0.031
   14        0.006   0.025   0.000   0.031
   15        0.006   0.025   0.000   0.031
   16        0.006   0.025   0.000   0.031
   17        0.000   0.002   0.000   0.002
   18        0.000   0.002   0.000   0.002
   19        0.000   0.002   0.000   0.002
   20        0.000   0.002   0.000   0.002
--------------------------------------------------
tot          0.059   0.325   3.529   3.913
 
    CHARGE:  cpu time    1.9861: real time    1.9862
    FORLOC:  cpu time    0.0101: real time    0.0101
    FORNL :  cpu time   10.4499: real time   10.4502
    STRESS:  cpu time  300.6885: real time  300.7734
    FORCOR:  cpu time    0.2251: real time    0.2251
    FORHAR:  cpu time    0.0230: real time    0.0230
    MIXING:  cpu time    0.0060: real time    0.0060
    OFIELD:  cpu time    0.0000: real time    0.0000

  FORCE on cell =-STRESS in cart. coord.  units (eV):
  Direction    XX          YY          ZZ          XY          YZ          ZX
  --------------------------------------------------------------------------------------
  Alpha Z   500.24342   500.24342   500.24342
  Ewald   -3639.91521 -3167.93065 -2432.19581    -0.00006     0.00009   252.56176
  Hartree  1169.43599  1616.00504  2315.50246    -0.00004     0.00006   131.04984
  E(xc)    -799.16583  -798.33565  -798.01842     0.00000     0.00000    -0.00684
  Local     252.63809  -675.26293 -2104.27525     0.00010    -0.00015  -381.46922
  n-local  -398.65794  -405.97676  -415.01788    -0.00000     0.00000     1.01014
  augment   501.15095   502.61983   503.20817     0.00000     0.00000     0.09259
  Kinetic  2414.23474  2428.61337  2430.38680    -0.00000    -0.00000    -3.22159
  Fock        0.00000     0.00000     0.00000     0.00000     0.00000     0.00000
  -------------------------------------------------------------------------------------
  Total      -0.03579    -0.02434    -0.16651    -0.00000    -0.00000     0.01668
  in kB      -0.26399    -0.17953    -1.22827    -0.00001    -0.00001     0.12300
  external pressure =       -0.56 kB  Pullay stress =        0.00 kB


 VOLUME and BASIS-vectors are now :
 -----------------------------------------------------------------------------
  energy-cutoff  :      520.00
  volume of cell :      217.20
      direct lattice vectors                 reciprocal lattice vectors
     0.004865579 -0.000000004  5.228212906     0.054091796 -0.000000001  0.191219606
    -4.682672480  4.434737659  1.324624446    -0.106748531  0.112746241  0.000099344
    -4.682672564 -4.434737752  1.324624447    -0.106748528 -0.112746239  0.000099344

  length of vectors
     5.228215170  6.583991919  6.583992041     0.198723074  0.155264205  0.155264202


 FORCES acting on ions
    electron-ion (+dipol)            ewald-force                    non-local-force                 convergence-correction
 -----------------------------------------------------------------------------------------------
   -.189E-01 0.240E+03 0.878E-01   0.186E-01 -.236E+03 -.905E-01   0.576E-03 -.401E+01 0.219E-02   0.254E-05 0.902E-03 -.102E-05
   -.189E-01 -.240E+03 0.878E-01   0.186E-01 0.236E+03 -.905E-01   0.573E-03 0.401E+01 0.219E-02   0.464E-05 -.904E-03 -.173E-06
   -.522E+02 -.587E+01 0.317E+01   0.500E+02 0.152E+00 -.201E+01   0.207E+01 0.545E+01 -.113E+01   -.198E-03 -.190E-03 0.175E-04
   0.522E+02 -.585E+01 -.315E+01   -.500E+02 0.136E+00 0.199E+01   -.206E+01 0.545E+01 0.113E+01   0.200E-03 -.189E-03 -.166E-04
   0.522E+02 0.585E+01 -.315E+01   -.500E+02 -.136E+00 0.199E+01   -.206E+01 -.545E+01 0.113E+01   0.199E-03 0.188E-03 -.178E-04
   -.522E+02 0.587E+01 0.317E+01   0.500E+02 -.152E+00 -.201E+01   0.207E+01 -.545E+01 -.113E+01   -.200E-03 0.191E-03 0.172E-04
   -.175E+00 -.233E+03 -.355E+00   0.125E+00 0.234E+03 0.411E+00   0.459E-01 -.135E+01 -.608E-01   -.448E-04 -.334E-03 0.297E-05
   -.175E+00 0.233E+03 -.355E+00   0.125E+00 -.234E+03 0.411E+00   0.459E-01 0.135E+01 -.608E-01   -.483E-04 0.339E-03 -.134E-05
   -.212E+03 0.135E+03 -.618E+02   0.189E+03 -.135E+03 0.645E+02   0.225E+02 -.299E-01 -.262E+01   -.786E-03 0.253E-03 -.655E-04
   0.212E+03 0.134E+03 0.622E+02   -.189E+03 -.134E+03 -.649E+02   -.225E+02 -.430E-01 0.264E+01   0.784E-03 0.252E-03 0.672E-04
   0.212E+03 -.134E+03 0.622E+02   -.189E+03 0.134E+03 -.649E+02   -.225E+02 0.430E-01 0.264E+01   0.784E-03 -.253E-03 0.670E-04
   -.212E+03 -.135E+03 -.618E+02   0.189E+03 0.135E+03 0.645E+02   0.225E+02 0.299E-01 -.262E+01   -.786E-03 -.253E-03 -.666E-04
   0.140E+03 -.109E+03 -.468E+02   -.134E+03 0.843E+02 0.526E+02   -.620E+01 0.243E+02 -.585E+01   0.367E-03 -.637E-03 -.280E-05
   -.140E+03 -.109E+03 0.467E+02   0.134E+03 0.844E+02 -.525E+02   0.619E+01 0.243E+02 0.584E+01   -.365E-03 -.639E-03 0.538E-05
   -.140E+03 0.109E+03 0.467E+02   0.134E+03 -.844E+02 -.525E+02   0.619E+01 -.243E+02 0.584E+01   -.365E-03 0.637E-03 0.329E-05
   0.140E+03 0.109E+03 -.468E+02   -.134E+03 -.843E+02 0.526E+02   -.620E+01 -.243E+02 -.585E+01   0.365E-03 0.638E-03 -.311E-05
   -.899E+02 0.175E+02 0.717E+01   0.107E+03 -.231E+02 -.114E+02   -.176E+02 0.551E+01 0.424E+01   -.682E-04 -.952E-04 -.319E-04
   0.900E+02 0.175E+02 -.717E+01   -.108E+03 -.231E+02 0.114E+02   0.175E+02 0.551E+01 -.424E+01   0.698E-04 -.948E-04 0.321E-04
   0.900E+02 -.175E+02 -.717E+01   -.108E+03 0.231E+02 0.114E+02   0.175E+02 -.551E+01 -.424E+01   0.687E-04 0.933E-04 0.336E-04
   -.899E+02 -.175E+02 0.717E+01   0.107E+03 0.231E+02 -.114E+02   -.176E+02 -.551E+01 0.424E+01   -.695E-04 0.947E-04 -.331E-04
 -----------------------------------------------------------------------------------------------
   -.115E+00 0.643E-05 0.636E-01   0.426E-13 -.153E-12 0.355E-13   0.996E-01 -.733E-05 -.773E-01   -.853E-04 -.822E-06 0.614E-05
 
 
 POSITION                                       TOTAL-FORCE (eV/Angst)
 -----------------------------------------------------------------------------------
     -4.67900      1.78938      5.24576         0.001040     -0.023104      0.000174
     -4.68143     -1.78938      2.63166         0.001038      0.023104      0.000171
     -6.67507     -0.82642      5.68903         0.012890     -0.005947     -0.003817
     -2.68295     -0.82649      4.80267        -0.013310     -0.005606      0.005684
     -2.68539      0.82649      2.18856        -0.013313      0.005603      0.005685
     -6.67750      0.82642      3.07492         0.012887      0.005949     -0.003817
     -4.67922     -3.62583      5.24509        -0.003023      0.021150     -0.002969
     -4.68165      3.62583      2.63099        -0.003022     -0.021151     -0.002969
     -8.27834     -0.76580      5.70188         0.002679     -0.005929     -0.010176
     -1.07968     -0.76587      4.79003        -0.002093     -0.006402      0.008039
     -1.08211      0.76587      2.17592        -0.002091      0.006401      0.008039
     -8.28078      0.76580      3.08777         0.002681      0.005929     -0.010175
     -5.98812     -2.22975      5.97727        -0.008441     -0.010967     -0.007115
     -3.36997     -2.22976      4.51447         0.008986     -0.011331      0.008617
     -3.37240      2.22976      1.90036         0.008985      0.011334      0.008617
     -5.99055      2.22975      3.36316        -0.008441      0.010966     -0.007114
     -6.07057     -0.16765      4.28791        -0.012445     -0.020581      0.012417
     -3.29218     -0.16756      0.97552         0.013719     -0.020606     -0.010854
     -3.28975      0.16756      3.58963         0.013720      0.020606     -0.010855
     -6.06814      0.16765      6.90202        -0.012445      0.020582      0.012417
 -----------------------------------------------------------------------------------
    total drift:                               -0.015107     -0.000002     -0.013692


--------------------------------------------------------------------------------------------------------



  FREE ENERGIE OF THE ION-ELECTRON SYSTEM (eV)
  ---------------------------------------------------
  free  energy   TOTEN  =      -221.77126812 eV

  energy  without entropy=     -221.77126812  energy(sigma->0) =     -221.77126812
 


--------------------------------------------------------------------------------------------------------


    POTLOK:  cpu time    1.7866: real time    1.7866


--------------------------------------------------------------------------------------------------------




--------------------------------------------------------------------------------------------------------


  
 reached required accuracy - stopping structural energy minimisation
     LOOP+:  cpu time 3251.8461: real time 3252.0617
    4ORBIT:  cpu time    0.0000: real time    0.0000
 


 total charge     
 
# of ion       s       p       d       tot
------------------------------------------
    1        2.024   5.871   0.232   8.127
    2        2.024   5.871   0.232   8.127
    3        0.654   1.005   0.000   1.659
    4        0.654   1.005   0.000   1.659
    5        0.654   1.005   0.000   1.659
    6        0.654   1.005   0.000   1.659
    7        0.200   6.172   7.841  14.213
    8        0.200   6.172   7.841  14.213
    9        1.564   3.631   0.000   5.195
   10        1.564   3.631   0.000   5.195
   11        1.564   3.631   0.000   5.195
   12        1.564   3.631   0.000   5.195
   13        1.565   3.614   0.000   5.179
   14        1.565   3.614   0.000   5.179
   15        1.565   3.614   0.000   5.179
   16        1.565   3.614   0.000   5.179
   17        1.561   3.691   0.000   5.252
   18        1.561   3.691   0.000   5.252
   19        1.561   3.691   0.000   5.252
   20        1.561   3.691   0.000   5.252
--------------------------------------------------
tot         25.822  71.849  16.147 113.819
 


 magnetization (x)
 
# of ion       s       p       d       tot
------------------------------------------
    1       -0.000  -0.000  -0.001  -0.001
    2       -0.000  -0.000  -0.001  -0.001
    3        0.002   0.004   0.000   0.006
    4        0.002   0.004   0.000   0.006
    5        0.002   0.004   0.000   0.006
    6        0.002   0.004   0.000   0.006
    7       -0.003   0.000   1.765   1.763
    8       -0.003   0.000   1.765   1.763
    9        0.009   0.050   0.000   0.059
   10        0.009   0.050   0.000   0.059
   11        0.009   0.050   0.000   0.059
   12        0.009   0.050   0.000   0.059
   13        0.006   0.025   0.000   0.031
   14        0.006   0.025   0.000   0.031
   15        0.006   0.025   0.000   0.031
   16        0.006   0.025   0.000   0.031
   17        0.000   0.002   0.000   0.002
   18        0.000   0.002   0.000   0.002
   19        0.000   0.002   0.000   0.002
   20        0.000   0.002   0.000   0.002
--------------------------------------------------
tot          0.059   0.325   3.529   3.913
 

 total amount of memory used by VASP MPI-rank0   172392. kBytes
=======================================================================

   base      :      30000. kBytes
   nonlr-proj:       3339. kBytes
   fftplans  :       2666. kBytes
   grid      :       9420. kBytes
   one-center:         62. kBytes
   wavefun   :     126905. kBytes
 
  
  
 General timing and accounting informations for this job:
 ========================================================
  
                  Total CPU time used (sec):     3266.511
                            User time (sec):     3264.603
                          System time (sec):        1.908
                         Elapsed time (sec):     3266.975
  
                   Maximum memory used (kb):      343684.
                   Average memory used (kb):           0.
  
                          Minor page faults:        79008
                          Major page faults:            0
                 Voluntary context switches:           81
