 vasp.6.1.2 22Jul20 (build Mar 19 2021 09:51:12) complex                        
  
 executed on             LinuxIFC date 2021.07.25  09:13:18
 running on    8 total cores
 distrk:  each k-point on    8 cores,    1 groups
 distr:  one band on NCORE=   4 cores,    2 groups


--------------------------------------------------------------------------------------------------------


 INCAR:
 POTCAR:    PAW_PBE Ca_sv 06Sep2000               
 POTCAR:    PAW_PBE Fe_pv 02Aug2007               
 POTCAR:    PAW_PBE O 08Apr2002                   
 POTCAR:    PAW_PBE Ca_sv 06Sep2000               
   VRHFIN =Ca: 3s3p4s                                                                               
   LEXCH  = PE                                                                                      
   EATOM  =  1006.0909 eV,   73.9456 Ry                                                             
                                                                                                    
   TITEL  = PAW_PBE Ca_sv 06Sep2000                                                                 
   LULTRA =        F    use ultrasoft PP ?                                                          
   IUNSCR =        1    unscreen: 0-lin 1-nonlin 2-no                                               
   RPACOR =    2.000    partial core radius                                                         
   POMASS =   40.078; ZVAL   =   10.000    mass and valenz                                          
   RCORE  =    2.300    outmost cutoff radius                                                       
   RWIGS  =    2.500; RWIGS  =    1.323    wigner-seitz radius (au A)                               
   ENMAX  =  266.622; ENMIN  =  199.967 eV                                                          
   RCLOC  =    1.808    cutoff for local pot                                                        
   LCOR   =        T    correct aug charges                                                         
   LPAW   =        T    paw PP                                                                      
   EAUG   =  420.852                                                                                
   RMAX   =    2.359    core radius for proj-oper                                                   
   RAUG   =    1.300    factor for augmentation sphere                                              
   RDEP   =    2.392    radius for radial grids                                                     
   RDEPT  =    1.987    core radius for aug-charge                                                  
                                                                                                    
   Atomic configuration                                                                             
    7 entries                                                                                       
     n  l   j            E        occ.                                                              
     1  0  0.50     -3949.1705   2.0000                                                             
     2  0  0.50      -414.3434   2.0000                                                             
     2  1  1.50      -334.7047   6.0000                                                             
     3  0  0.50       -47.0896   2.0000                                                             
     4  0  0.50        -3.7663   2.0000                                                             
     3  1  1.50       -28.0061   6.0000                                                             
     3  2  1.50        -4.0817   0.0000                                                             
   Description                                                                                      
     l       E           TYP  RCUT    TYP  RCUT                                                     
     0    -47.0896403     23  2.300                                                                 
     0     -3.7663320     23  2.300                                                                 
     1    -28.0060855     23  2.300                                                                 
     1      6.8029130     23  2.300                                                                 
     2     -4.0817478     23  2.300                                                                 
     2      0.4464412     23  2.300                                                                 
  local pseudopotential read in
  partial core-charges read in
  partial kinetic energy density read in
  atomic valenz-charges read in
  non local Contribution for L=           0  read in
    real space projection operators read in
  non local Contribution for L=           0  read in
    real space projection operators read in
  non local Contribution for L=           1  read in
    real space projection operators read in
  non local Contribution for L=           1  read in
    real space projection operators read in
  non local Contribution for L=           2  read in
    real space projection operators read in
  non local Contribution for L=           2  read in
    real space projection operators read in
    PAW grid and wavefunctions read in
 
   number of l-projection  operators is LMAX  =           6
   number of lm-projection operators is LMMAX =          18
 
 POTCAR:    PAW_PBE Fe_pv 02Aug2007               
   VRHFIN =Fe:  3pd7s1                                                                              
   LEXCH  = PE                                                                                      
   EATOM  =  2457.4239 eV,  180.6156 Ry                                                             
                                                                                                    
   TITEL  = PAW_PBE Fe_pv 02Aug2007                                                                 
   LULTRA =        F    use ultrasoft PP ?                                                          
   IUNSCR =        1    unscreen: 0-lin 1-nonlin 2-no                                               
   RPACOR =    1.750    partial core radius                                                         
   POMASS =   55.847; ZVAL   =   14.000    mass and valenz                                          
   RCORE  =    2.200    outmost cutoff radius                                                       
   RWIGS  =    2.200; RWIGS  =    1.164    wigner-seitz radius (au A)                               
   ENMAX  =  293.238; ENMIN  =  219.928 eV                                                          
   ICORE  =        3    local potential                                                             
   LCOR   =        T    correct aug charges                                                         
   LPAW   =        T    paw PP                                                                      
   EAUG   =  578.342                                                                                
   DEXC   =    0.000                                                                                
   RMAX   =    2.249    core radius for proj-oper                                                   
   RAUG   =    1.300    factor for augmentation sphere                                              
   RDEP   =    2.296    radius for radial grids                                                     
   RDEPT  =    1.766    core radius for aug-charge                                                  
                                                                                                    
   Atomic configuration                                                                             
    8 entries                                                                                       
     n  l   j            E        occ.                                                              
     1  0  0.50     -6993.8440   2.0000                                                             
     2  0  0.50      -814.6047   2.0000                                                             
     2  1  1.50      -693.3689   6.0000                                                             
     3  0  0.50       -89.4732   2.0000                                                             
     3  1  1.50       -55.6373   6.0000                                                             
     3  2  2.50        -3.8151   7.0000                                                             
     4  0  0.50        -4.2551   1.0000                                                             
     4  3  2.50        -1.3606   0.0000                                                             
   Description                                                                                      
     l       E           TYP  RCUT    TYP  RCUT                                                     
     1    -55.6372668     23  2.000                                                                 
     1     -5.4423304     23  2.000                                                                 
     2     -3.8151096     23  2.200                                                                 
     2     -5.1756922     23  2.200                                                                 
     0     -4.2550951     23  2.200                                                                 
     0     27.2116520     23  2.200                                                                 
     3     -1.3605826     23  2.200                                                                 
  local pseudopotential read in
  partial core-charges read in
  partial kinetic energy density read in
  atomic valenz-charges read in
  non local Contribution for L=           1  read in
    real space projection operators read in
  non local Contribution for L=           1  read in
    real space projection operators read in
  non local Contribution for L=           2  read in
    real space projection operators read in
  non local Contribution for L=           2  read in
    real space projection operators read in
  non local Contribution for L=           0  read in
    real space projection operators read in
  non local Contribution for L=           0  read in
    real space projection operators read in
    PAW grid and wavefunctions read in
 
   number of l-projection  operators is LMAX  =           6
   number of lm-projection operators is LMMAX =          18
 
 POTCAR:    PAW_PBE O 08Apr2002                   
   VRHFIN =O: s2p4                                                                                  
   LEXCH  = PE                                                                                      
   EATOM  =   432.3788 eV,   31.7789 Ry                                                             
                                                                                                    
   TITEL  = PAW_PBE O 08Apr2002                                                                     
   LULTRA =        F    use ultrasoft PP ?                                                          
   IUNSCR =        1    unscreen: 0-lin 1-nonlin 2-no                                               
   RPACOR =    1.200    partial core radius                                                         
   POMASS =   16.000; ZVAL   =    6.000    mass and valenz                                          
   RCORE  =    1.520    outmost cutoff radius                                                       
   RWIGS  =    1.550; RWIGS  =    0.820    wigner-seitz radius (au A)                               
   ENMAX  =  400.000; ENMIN  =  300.000 eV                                                          
   ICORE  =        2    local potential                                                             
   LCOR   =        T    correct aug charges                                                         
   LPAW   =        T    paw PP                                                                      
   EAUG   =  605.392                                                                                
   DEXC   =    0.000                                                                                
   RMAX   =    1.553    core radius for proj-oper                                                   
   RAUG   =    1.300    factor for augmentation sphere                                              
   RDEP   =    1.550    radius for radial grids                                                     
   RDEPT  =    1.329    core radius for aug-charge                                                  
                                                                                                    
   Atomic configuration                                                                             
    4 entries                                                                                       
     n  l   j            E        occ.                                                              
     1  0  0.50      -514.6923   2.0000                                                             
     2  0  0.50       -23.9615   2.0000                                                             
     2  1  0.50        -9.0305   4.0000                                                             
     3  2  1.50        -9.5241   0.0000                                                             
   Description                                                                                      
     l       E           TYP  RCUT    TYP  RCUT                                                     
     0    -23.9615318     23  1.200                                                                 
     0     -9.5240782     23  1.200                                                                 
     1     -9.0304911     23  1.520                                                                 
     1      8.1634956     23  1.520                                                                 
     2     -9.5240782      7  1.500                                                                 
  local pseudopotential read in
  partial core-charges read in
  partial kinetic energy density read in
  kinetic energy density of atom read in
  atomic valenz-charges read in
  non local Contribution for L=           0  read in
    real space projection operators read in
  non local Contribution for L=           0  read in
    real space projection operators read in
  non local Contribution for L=           1  read in
    real space projection operators read in
  non local Contribution for L=           1  read in
    real space projection operators read in
    PAW grid and wavefunctions read in
 
   number of l-projection  operators is LMAX  =           4
   number of lm-projection operators is LMMAX =           8
 
 Optimization of the real space projectors (new method)

 maximal supplied QI-value         = 16.25
 optimisation between [QCUT,QGAM] = [ 11.54, 23.24] = [ 37.28,151.24] Ry 
 Optimized for a Real-space Cutoff    1.58 Angstroem

   l    n(q)    QCUT    max X(q) W(low)/X(q) W(high)/X(q)  e(spline) 
   0     11    11.539    11.817    0.25E-04    0.22E-05    0.26E-07
   0     11    11.539     8.461    0.39E-04    0.49E-05    0.55E-07
   1     11    11.539     3.957    0.21E-05    0.44E-05    0.32E-07
   1     11    11.539     4.314    0.56E-04    0.44E-04    0.19E-06
   2     10    11.539    14.565    0.25E-03    0.21E-04    0.75E-06
   2     10    11.539    14.552    0.23E-03    0.22E-04    0.72E-06
 Optimization of the real space projectors (new method)

 maximal supplied QI-value         = 17.01
 optimisation between [QCUT,QGAM] = [ 11.57, 23.30] = [ 37.45,152.03] Ry 
 Optimized for a Real-space Cutoff    1.45 Angstroem

   l    n(q)    QCUT    max X(q) W(low)/X(q) W(high)/X(q)  e(spline) 
   1     10    11.565     4.267    0.91E-04    0.15E-03    0.13E-06
   1     10    11.565     5.750    0.14E-03    0.22E-03    0.20E-06
   2      9    11.565    53.656    0.13E-03    0.57E-04    0.16E-06
   2      9    11.565    49.521    0.13E-03    0.59E-04    0.16E-06
   0     10    11.565    31.246    0.61E-04    0.74E-05    0.89E-07
   0     10    11.565    12.201    0.44E-04    0.68E-05    0.74E-07
 Optimization of the real space projectors (new method)

 maximal supplied QI-value         = 24.76
 optimisation between [QCUT,QGAM] = [ 11.64, 23.27] = [ 37.91,151.63] Ry 
 Optimized for a Real-space Cutoff    1.14 Angstroem

   l    n(q)    QCUT    max X(q) W(low)/X(q) W(high)/X(q)  e(spline) 
   0      8    11.635    20.381    0.10E-03    0.33E-03    0.24E-06
   0      8    11.635    15.268    0.11E-03    0.35E-03    0.26E-06
   1      7    11.635     5.964    0.24E-03    0.31E-03    0.30E-06
   1      7    11.635     5.382    0.22E-03    0.25E-03    0.26E-06
  PAW_PBE Ca_sv 06Sep2000               :
 energy of atom  1       EATOM=-1006.0909
 kinetic energy error for atom=    0.0022 (will be added to EATOM!!)
  PAW_PBE Fe_pv 02Aug2007               :
 energy of atom  2       EATOM=-2457.4239
 kinetic energy error for atom=    0.0062 (will be added to EATOM!!)
  PAW_PBE O 08Apr2002                   :
 energy of atom  3       EATOM= -432.3788
 kinetic energy error for atom=    0.0208 (will be added to EATOM!!)
 
 
 POSCAR: Ca2 Fe6 O10
  positions in direct lattice
  velocities in cartesian coordinates

 METAGGA = SCAN     LMAXTAU =  6    LMIXTAU =  F

 exchange correlation table for  LEXCH =        8
   RHO(1)=    0.500       N(1)  =     2000
   RHO(2)=  100.500       N(2)  =     4000
 


--------------------------------------------------------------------------------------------------------


 ion  position               nearest neighbor table
   1  0.524  0.047  0.253-   9 2.27   9 2.28  17 2.36  17 2.36  15 2.40  15 2.47
   2  0.479  0.962  0.746-  10 2.26  10 2.27  16 2.39  18 2.39  16 2.39  18 2.40
   3  0.003  0.995  0.498-  16 1.84  15 1.90  14 2.03  13 2.06  14 2.06  13 2.21
   4  0.002  0.005  0.002-  18 1.99  17 2.00  11 2.19  11 2.20  12 2.20  12 2.21
   5  0.280  0.540  0.395-   9 1.86  15 1.96  14 2.00  15 2.02  13 2.02  13 2.21
   6  0.725  0.455  0.605-  10 1.98  16 2.03  16 2.06  14 2.18  13 2.19  14 2.26
   7  0.267  0.536  0.112-   9 1.96  11 2.03  11 2.03  17 2.04  17 2.05  12 2.15
   8  0.734  0.472  0.888-  10 1.88  18 2.05  18 2.05  12 2.05  12 2.06  11 2.32
   9  0.192  0.393  0.258-   5 1.86   7 1.96   1 2.27   1 2.28
  10  0.810  0.619  0.750-   8 1.88   6 1.98   2 2.26   2 2.27
  11  0.647  0.295  0.059-   7 2.03   7 2.03   4 2.19   4 2.20   8 2.32
  12  0.349  0.701  0.954-   8 2.05   8 2.06   7 2.15   4 2.20   4 2.21
  13  0.603  0.270  0.446-   5 2.02   3 2.06   6 2.19   3 2.21   5 2.21
  14  0.382  0.733  0.536-   5 2.00   3 2.03   3 2.06   6 2.18   6 2.26
  15  0.918  0.794  0.368-   3 1.90   5 1.96   5 2.02   1 2.40   1 2.47
  16  0.084  0.180  0.626-   3 1.84   6 2.03   6 2.06   2 2.39   2 2.39
  17  0.903  0.808  0.141-   4 2.00   7 2.04   7 2.05   1 2.36   1 2.36
  18  0.098  0.197  0.863-   4 1.99   8 2.05   8 2.05   2 2.39   2 2.40
 

IMPORTANT INFORMATION: All symmetrisations will be switched off!
NOSYMM: (Re-)initialisation of all symmetry stuff for point group C_1.


----------------------------------------------------------------------------------------

                                     Primitive cell                                     

  volume of cell :     186.1876

  direct lattice vectors                    reciprocal lattice vectors
     3.012601042  0.004276136  0.002743038     0.331795418  0.100435482  0.001203843
    -1.492803550  4.931905473 -0.027351569    -0.000288261  0.202677652  0.000633942
    -0.033573704 -0.039227138 12.526045932    -0.000073288  0.000420568  0.079834773

  length of vectors
     3.012605325  5.152950819 12.526152348     0.346665451  0.202678849  0.079835915

  position of ions in fractional coordinates (direct lattice)
     0.523842672  0.046661398  0.252569946
     0.478558205  0.961895552  0.746191377
     0.003181043  0.994540789  0.497505894
     0.001562272  0.004792565  0.002323237
     0.279826202  0.540262932  0.394839170
     0.725060226  0.454767552  0.605265298
     0.267285284  0.536102174  0.112273446
     0.734278041  0.471836885  0.887777082
     0.191962317  0.392980825  0.257984839
     0.809895478  0.619398813  0.750235867
     0.646914330  0.294602912  0.058981882
     0.349397520  0.700799894  0.954004173
     0.602654106  0.269699440  0.445872009
     0.382283387  0.732700206  0.535865191
     0.917982811  0.794288234  0.367620977
     0.084032014  0.179522498  0.625926663
     0.903230292  0.807788301  0.141445539
     0.098053799  0.197359029  0.863317410

  ion indices of the primitive-cell ions
   primitive index   ion index
                 1           1
                 2           2
                 3           3
                 4           4
                 5           5
                 6           6
                 7           7
                 8           8
                 9           9
                10          10
                11          11
                12          12
                13          13
                14          14
                15          15
                16          16
                17          17
                18          18

----------------------------------------------------------------------------------------

 
 
 KPOINTS: K-points file                           

Automatic generation of k-mesh.
Space group operators:
 irot       det(A)        alpha          n_x          n_y          n_z        tau_x        tau_y        tau_z
    1     1.000000     0.000001     1.000000     0.000000     0.000000     0.000000     0.000000     0.000000
 
 Subroutine IBZKPT returns following result:
 ===========================================
 
 Found     36 irreducible k-points:
 
 Following reciprocal coordinates:
            Coordinates               Weight
  0.000000  0.000000  0.000000      1.000000
  0.250000 -0.000000 -0.000000      2.000000
  0.500000 -0.000000 -0.000000      1.000000
  0.000000  0.250000 -0.000000      2.000000
  0.250000  0.250000  0.000000      2.000000
  0.500000  0.250000  0.000000      2.000000
 -0.250000  0.250000 -0.000000      2.000000
  0.000000  0.500000  0.000000      1.000000
  0.250000  0.500000 -0.000000      2.000000
  0.500000  0.500000 -0.000000      1.000000
  0.000000 -0.000000  0.250000      2.000000
  0.250000 -0.000000  0.250000      2.000000
  0.500000 -0.000000  0.250000      2.000000
 -0.250000  0.000000  0.250000      2.000000
  0.000000  0.250000  0.250000      2.000000
  0.250000  0.250000  0.250000      2.000000
  0.500000  0.250000  0.250000      2.000000
 -0.250000  0.250000  0.250000      2.000000
 -0.000000  0.500000  0.250000      2.000000
  0.250000  0.500000  0.250000      2.000000
  0.500000  0.500000  0.250000      2.000000
 -0.250000  0.500000  0.250000      2.000000
 -0.000000 -0.250000  0.250000      2.000000
  0.250000 -0.250000  0.250000      2.000000
  0.500000 -0.250000  0.250000      2.000000
 -0.250000 -0.250000  0.250000      2.000000
  0.000000 -0.000000  0.500000      1.000000
  0.250000 -0.000000  0.500000      2.000000
  0.500000 -0.000000  0.500000      1.000000
  0.000000  0.250000  0.500000      2.000000
  0.250000  0.250000  0.500000      2.000000
  0.500000  0.250000  0.500000      2.000000
 -0.250000  0.250000  0.500000      2.000000
  0.000000  0.500000  0.500000      1.000000
  0.250000  0.500000  0.500000      2.000000
  0.500000  0.500000  0.500000      1.000000
 
 Following cartesian coordinates:
            Coordinates               Weight
  0.000000  0.000000  0.000000      1.000000
  0.082949  0.025109  0.000301      2.000000
  0.165898  0.050218  0.000602      1.000000
 -0.000072  0.050669  0.000158      2.000000
  0.082877  0.075778  0.000459      2.000000
  0.165826  0.100887  0.000760      2.000000
 -0.083021  0.025561 -0.000142      2.000000
 -0.000144  0.101339  0.000317      1.000000
  0.082805  0.126448  0.000618      2.000000
  0.165754  0.151557  0.000919      1.000000
 -0.000018  0.000105  0.019959      2.000000
  0.082931  0.025214  0.020260      2.000000
  0.165879  0.050323  0.020561      2.000000
 -0.082967 -0.025004  0.019658      2.000000
 -0.000090  0.050775  0.020117      2.000000
  0.082858  0.075883  0.020418      2.000000
  0.165807  0.100992  0.020719      2.000000
 -0.083039  0.025666  0.019816      2.000000
 -0.000162  0.101444  0.020276      2.000000
  0.082786  0.126553  0.020577      2.000000
  0.165735  0.151662  0.020878      2.000000
 -0.083111  0.076335  0.019975      2.000000
  0.000054 -0.050564  0.019800      2.000000
  0.083003 -0.025455  0.020101      2.000000
  0.165951 -0.000347  0.020402      2.000000
 -0.082895 -0.075673  0.019499      2.000000
 -0.000037  0.000210  0.039917      1.000000
  0.082912  0.025319  0.040218      2.000000
  0.165861  0.050428  0.040519      1.000000
 -0.000109  0.050880  0.040076      2.000000
  0.082840  0.075989  0.040377      2.000000
  0.165789  0.101097  0.040678      2.000000
 -0.083058  0.025771  0.039775      2.000000
 -0.000181  0.101549  0.040234      1.000000
  0.082768  0.126658  0.040535      2.000000
  0.165717  0.151767  0.040836      1.000000
 


--------------------------------------------------------------------------------------------------------




 Dimension of arrays:
   k-points           NKPTS =     36   k-points in BZ     NKDIM =     36   number of bands    NBANDS=    106
   number of dos      NEDOS =    301   number of ions     NIONS =     18
   non local maximal  LDIM  =      6   non local SUM 2l+1 LMDIM =     18
   total plane-waves  NPLWV =  92160
   max r-space proj   IRMAX =   8225   max aug-charges    IRDMAX=  23813
   dimension x,y,z NGX =    24 NGY =   40 NGZ =   96
   dimension x,y,z NGXF=    48 NGYF=   80 NGZF=  192
   support grid    NGXF=    48 NGYF=   80 NGZF=  192
   ions per type =               2   6  10
   NGX,Y,Z   is equivalent  to a cutoff of  13.24, 12.90, 12.74 a.u.
   NGXF,Y,Z  is equivalent  to a cutoff of  26.49, 25.81, 25.48 a.u.

 SYSTEM =  unknown system                          
 POSCAR =  Ca2 Fe6 O10                             

 Startparameter for this run:
   NWRITE =      2    write-flag & timer
   PREC   = accura    normal or accurate (medium, high low for compatibility)
   ISTART =      0    job   : 0-new  1-cont  2-samecut
   ICHARG =      1    charge: 1-file 2-atom 10-const
   ISPIN  =      2    spin polarized calculation?
   LNONCOLLINEAR =      F non collinear calculations
   LSORBIT =      F    spin-orbit coupling
   INIWAV =      1    electr: 0-lowe 1-rand  2-diag
   LASPH  =      T    aspherical Exc in radial PAW
   METAGGA=      F    non-selfconsistent MetaGGA calc.

 Electronic Relaxation 1
   ENCUT  =  520.0 eV  38.22 Ry    6.18 a.u.   5.60  9.58 23.29*2*pi/ulx,y,z
   ENINI  =  520.0     initial cutoff
   ENAUG  =  605.4 eV  augmentation charge cutoff
   NELM   =    100;   NELMIN=  6; NELMDL= -5     # of ELM steps 
   EDIFF  = 0.1E-04   stopping-criterion for ELM
   LREAL  =      T    real-space projection
   NLSPLINE    = F    spline interpolate recip. space projectors
   LCOMPAT=      F    compatible to vasp.4.4
   GGA_COMPAT  = T    GGA compatible to vasp.4.4-vasp.4.6
   LMAXPAW     = -100 max onsite density
   LMAXMIX     =    4 max onsite mixed and CHGCAR
   VOSKOWN=      0    Vosko Wilk Nusair interpolation
   ROPT   =   -0.00025  -0.00025  -0.00025
 Ionic relaxation
   EDIFFG = -.3E-01   stopping-criterion for IOM
   NSW    =     99    number of steps for IOM
   NBLOCK =      1;   KBLOCK =     99    inner block; outer block 
   IBRION =      2    ionic relax: 0-MD 1-quasi-New 2-CG
   NFREE  =      1    steps in history (QN), initial steepest desc. (CG)
   ISIF   =      3    stress and relaxation
   IWAVPR =     11    prediction:  0-non 1-charg 2-wave 3-comb
   ISYM   =      0    0-nonsym 1-usesym 2-fastsym
   LCORR  =      T    Harris-Foulkes like correction to forces

   POTIM  = 0.5000    time-step for ionic-motion
   TEIN   =    0.0    initial temperature
   TEBEG  =    0.0;   TEEND  =   0.0 temperature during run
   SMASS  =  -3.00    Nose mass-parameter (am)
   estimated Nose-frequenzy (Omega)   =  0.10E-29 period in steps = 0.13E+47 mass=  -0.207E-27a.u.
   SCALEE = 1.0000    scale energy and forces
   NPACO  =    256;   APACO  = 16.0  distance and # of slots for P.C.
   PSTRESS=    0.0 pullay stress

  Mass of Ions in am
   POMASS =  40.08 55.85 16.00
  Ionic Valenz
   ZVAL   =  10.00 14.00  6.00
  Atomic Wigner-Seitz radii
   RWIGS  =  -1.00 -1.00 -1.00
  virtual crystal weights 
   VCA    =   1.00  1.00  1.00
   NELECT =     164.0000    total number of electrons
   NUPDOWN=      -1.0000    fix difference up-down

 DOS related values:
   EMIN   =  10.00;   EMAX   =-10.00  energy-range for DOS
   EFERMI =   0.00
   ISMEAR =     0;   SIGMA  =   0.05  broadening in eV -4-tet -1-fermi 0-gaus

 Electronic relaxation 2 (details)
   IALGO  =     38    algorithm
   LDIAG  =      T    sub-space diagonalisation (order eigenvalues)
   LSUBROT=      F    optimize rotation matrix (better conditioning)
   TURBO    =      0    0=normal 1=particle mesh
   IRESTART =      0    0=no restart 2=restart with 2 vectors
   NREBOOT  =      0    no. of reboots
   NMIN     =      0    reboot dimension
   EREF     =   0.00    reference energy to select bands
   IMIX   =      4    mixing-type and parameters
     AMIX     =   0.40;   BMIX     =  1.00
     AMIX_MAG =   1.60;   BMIX_MAG =  1.00
     AMIN     =   0.10
     WC   =   100.;   INIMIX=   1;  MIXPRE=   1;  MAXMIX= -45

 Intra band minimization:
   WEIMIN = 0.0010     energy-eigenvalue tresh-hold
   EBREAK =  0.24E-07  absolut break condition
   DEPER  =   0.30     relativ break condition  

   TIME   =   0.40     timestep for ELM

  volume/ion in A,a.u.               =      10.34        69.80
  Fermi-wavevector in a.u.,A,eV,Ry     =   1.569300  2.965546 33.507081  2.462701
  Thomas-Fermi vector in A             =   2.671203
 
 Write flags
   LWAVE        =      F    write WAVECAR
   LDOWNSAMPLE  =      F    k-point downsampling of WAVECAR
   LCHARG       =      T    write CHGCAR
   LVTOT        =      F    write LOCPOT, total local potential
   LVHAR        =      F    write LOCPOT, Hartree potential only
   LELF         =      F    write electronic localiz. function (ELF)
   LORBIT       =     11    0 simple, 1 ext, 2 COOP (PROOUT), +10 PAW based schemes


 Dipole corrections
   LMONO  =      F    monopole corrections only (constant potential shift)
   LDIPOL =      F    correct potential (dipole corrections)
   IDIPOL =      0    1-x, 2-y, 3-z, 4-all directions 
   EPSILON=  1.0000000 bulk dielectric constant

 LDA+U is selected, type is set to LDAUTYPE =  2
   angular momentum for each species LDAUL =    -1    2   -1
   U (eV)           for each species LDAUU =   0.0  3.1  0.0
   J (eV)           for each species LDAUJ =   0.0  0.0  0.0
 Exchange correlation treatment:
   GGA     =    --    GGA type
   LEXCH   =     8    internal setting for exchange type
   VOSKOWN=      0    Vosko Wilk Nusair interpolation
   LHFCALC =     F    Hartree Fock is set to
   LHFONE  =     F    Hartree Fock one center treatment
   AEXX    =    0.0000 exact exchange contribution

 Linear response parameters
   LEPSILON=     F    determine dielectric tensor
   LRPA    =     F    only Hartree local field effects (RPA)
   LNABLA  =     F    use nabla operator in PAW spheres
   LVEL    =     F    velocity operator in full k-point grid
   LINTERFAST=   F  fast interpolation
   KINTER  =     0    interpolate to denser k-point grid
   CSHIFT  =0.1000    complex shift for real part using Kramers Kronig
   OMEGAMAX=  -1.0    maximum frequency
   DEG_THRESHOLD= 0.2000000E-02 threshold for treating states as degnerate
   RTIME   =   -0.100 relaxation time in fs
  (WPLASMAI=    0.000 imaginary part of plasma frequency in eV, 0.658/RTIME)
   DFIELD  = 0.0000000 0.0000000 0.0000000 field for delta impulse in time
 
 Orbital magnetization related:
   ORBITALMAG=     F  switch on orbital magnetization
   LCHIMAG   =     F  perturbation theory with respect to B field
   DQ        =  0.001000  dq finite difference perturbation B field
   LLRAUG    =     F  two centre corrections for induced B field



--------------------------------------------------------------------------------------------------------


 conjugate gradient relaxation of ions
 charge density and potential will be updated during run
 spin polarized calculation
 Variant of blocked Davidson
 Davidson routine will perform the subspace rotation
 perform sub-space diagonalisation
    after iterative eigenvector-optimisation
 modified Broyden-mixing scheme, WC =      100.0
 initial mixing is a Kerker type mixing with AMIX =  0.4000 and BMIX =      1.0000
 Hartree-type preconditioning will be used
 using additional bands           24
 real space projection scheme for non local part
 use partial core corrections
 calculate Harris-corrections to forces 
   (improved forces if not selfconsistent)
 use gradient corrections 
 use of overlap-Matrix (Vanderbilt PP)
 Gauss-broadening in eV      SIGMA  =   0.05


--------------------------------------------------------------------------------------------------------


  energy-cutoff  :      520.00
  volume of cell :      186.19
      direct lattice vectors                 reciprocal lattice vectors
     3.012601042  0.004276136  0.002743038     0.331795418  0.100435482  0.001203843
    -1.492803550  4.931905473 -0.027351569    -0.000288261  0.202677652  0.000633942
    -0.033573704 -0.039227138 12.526045932    -0.000073288  0.000420568  0.079834773

  length of vectors
     3.012605325  5.152950819 12.526152348     0.346665451  0.202678849  0.079835915


 
 k-points in units of 2pi/SCALE and weight: K-points file                           
   0.00000000  0.00000000  0.00000000       0.016
   0.08294885  0.02510887  0.00030096       0.031
   0.16589771  0.05021774  0.00060192       0.016
  -0.00007207  0.05066941  0.00015849       0.031
   0.08287679  0.07577828  0.00045945       0.031
   0.16582564  0.10088715  0.00076041       0.031
  -0.08302092  0.02556054 -0.00014248       0.031
  -0.00014413  0.10133883  0.00031697       0.016
   0.08280472  0.12644770  0.00061793       0.031
   0.16575358  0.15155657  0.00091889       0.016
  -0.00001832  0.00010514  0.01995869       0.031
   0.08293053  0.02521401  0.02025965       0.031
   0.16587939  0.05032288  0.02056062       0.031
  -0.08296718 -0.02500373  0.01965773       0.031
  -0.00009039  0.05077456  0.02011718       0.031
   0.08285847  0.07588343  0.02041814       0.031
   0.16580732  0.10099230  0.02071910       0.031
  -0.08303924  0.02566568  0.01981622       0.031
  -0.00016245  0.10144397  0.02027566       0.031
   0.08278640  0.12655284  0.02057663       0.031
   0.16573526  0.15166171  0.02087759       0.031
  -0.08311131  0.07633510  0.01997470       0.031
   0.00005374 -0.05056427  0.01980021       0.031
   0.08300260 -0.02545540  0.02010117       0.031
   0.16595145 -0.00034653  0.02040213       0.031
  -0.08289511 -0.07567314  0.01949925       0.031
  -0.00003664  0.00021028  0.03991739       0.016
   0.08291221  0.02531915  0.04021835       0.031
   0.16586106  0.05042803  0.04051931       0.016
  -0.00010871  0.05087970  0.04007587       0.031
   0.08284015  0.07598857  0.04037683       0.031
   0.16578900  0.10109744  0.04067779       0.031
  -0.08305756  0.02577083  0.03977491       0.031
  -0.00018077  0.10154911  0.04023436       0.016
   0.08276808  0.12665798  0.04053532       0.031
   0.16571693  0.15176685  0.04083628       0.016
 
 k-points in reciprocal lattice and weights: K-points file                           
   0.00000000  0.00000000  0.00000000       0.016
   0.25000000 -0.00000000 -0.00000000       0.031
   0.50000000 -0.00000000 -0.00000000       0.016
   0.00000000  0.25000000 -0.00000000       0.031
   0.25000000  0.25000000  0.00000000       0.031
   0.50000000  0.25000000  0.00000000       0.031
  -0.25000000  0.25000000 -0.00000000       0.031
   0.00000000  0.50000000  0.00000000       0.016
   0.25000000  0.50000000 -0.00000000       0.031
   0.50000000  0.50000000 -0.00000000       0.016
   0.00000000 -0.00000000  0.25000000       0.031
   0.25000000 -0.00000000  0.25000000       0.031
   0.50000000 -0.00000000  0.25000000       0.031
  -0.25000000  0.00000000  0.25000000       0.031
   0.00000000  0.25000000  0.25000000       0.031
   0.25000000  0.25000000  0.25000000       0.031
   0.50000000  0.25000000  0.25000000       0.031
  -0.25000000  0.25000000  0.25000000       0.031
  -0.00000000  0.50000000  0.25000000       0.031
   0.25000000  0.50000000  0.25000000       0.031
   0.50000000  0.50000000  0.25000000       0.031
  -0.25000000  0.50000000  0.25000000       0.031
  -0.00000000 -0.25000000  0.25000000       0.031
   0.25000000 -0.25000000  0.25000000       0.031
   0.50000000 -0.25000000  0.25000000       0.031
  -0.25000000 -0.25000000  0.25000000       0.031
   0.00000000 -0.00000000  0.50000000       0.016
   0.25000000 -0.00000000  0.50000000       0.031
   0.50000000 -0.00000000  0.50000000       0.016
   0.00000000  0.25000000  0.50000000       0.031
   0.25000000  0.25000000  0.50000000       0.031
   0.50000000  0.25000000  0.50000000       0.031
  -0.25000000  0.25000000  0.50000000       0.031
   0.00000000  0.50000000  0.50000000       0.016
   0.25000000  0.50000000  0.50000000       0.031
   0.50000000  0.50000000  0.50000000       0.016
 
 position of ions in fractional coordinates (direct lattice) 
   0.52384267  0.04666140  0.25256995
   0.47855820  0.96189555  0.74619138
   0.00318104  0.99454079  0.49750589
   0.00156227  0.00479256  0.00232324
   0.27982620  0.54026293  0.39483917
   0.72506023  0.45476755  0.60526530
   0.26728528  0.53610217  0.11227345
   0.73427804  0.47183689  0.88777708
   0.19196232  0.39298082  0.25798484
   0.80989548  0.61939881  0.75023587
   0.64691433  0.29460291  0.05898188
   0.34939752  0.70079989  0.95400417
   0.60265411  0.26969944  0.44587201
   0.38228339  0.73270021  0.53586519
   0.91798281  0.79428823  0.36762098
   0.08403201  0.17952250  0.62592666
   0.90323029  0.80778830  0.14144554
   0.09805380  0.19735903  0.86331741
 
 position of ions in cartesian coordinates  (Angst):
   1.49999297  0.22246203  3.16386340
  -0.01926856  4.71675337  9.32183082
  -1.49177392  4.88547903  6.20458815
  -0.00252585  0.02355202  0.02897417
   0.02324207  2.65023388  4.93176412
   1.48511758  2.22222821  7.57113119
   0.00115926  2.64074403  1.39241228
   1.47792105  2.29536983 11.10944518
  -0.01699880  1.92884513  3.22130786
   1.49006302  3.02885001  9.38276898
   1.50713027  1.45340632  0.73252642
  -0.02559069  3.42035005 11.93169053
   1.39797853  1.31521889  5.57928967
   0.03989888  3.59422240  6.69328012
   1.56745728  3.90685919  4.58563028
  -0.03585157  0.86119401  7.83570641
   1.51045443  3.98224937  1.75213663
  -0.02820605  0.93990990 10.80882442
 


--------------------------------------------------------------------------------------------------------


 k-point   1 :   0.0000 0.0000 0.0000  plane waves:    5051
 k-point   2 :   0.2500-0.0000-0.0000  plane waves:    5023
 k-point   3 :   0.5000-0.0000-0.0000  plane waves:    4982
 k-point   4 :   0.0000 0.2500-0.0000  plane waves:    5029
 k-point   5 :   0.2500 0.2500 0.0000  plane waves:    5016
 k-point   6 :   0.5000 0.2500 0.0000  plane waves:    5003
 k-point   7 :  -0.2500 0.2500-0.0000  plane waves:    5022
 k-point   8 :   0.0000 0.5000 0.0000  plane waves:    5010
 k-point   9 :   0.2500 0.5000-0.0000  plane waves:    5019
 k-point  10 :   0.5000 0.5000-0.0000  plane waves:    4988
 k-point  11 :   0.0000-0.0000 0.2500  plane waves:    5054
 k-point  12 :   0.2500-0.0000 0.2500  plane waves:    5020
 k-point  13 :   0.5000-0.0000 0.2500  plane waves:    4985
 k-point  14 :  -0.2500 0.0000 0.2500  plane waves:    5014
 k-point  15 :   0.0000 0.2500 0.2500  plane waves:    5029
 k-point  16 :   0.2500 0.2500 0.2500  plane waves:    5008
 k-point  17 :   0.5000 0.2500 0.2500  plane waves:    5006
 k-point  18 :  -0.2500 0.2500 0.2500  plane waves:    5024
 k-point  19 :  -0.0000 0.5000 0.2500  plane waves:    5016
 k-point  20 :   0.2500 0.5000 0.2500  plane waves:    5016
 k-point  21 :   0.5000 0.5000 0.2500  plane waves:    4986
 k-point  22 :  -0.2500 0.5000 0.2500  plane waves:    5011
 k-point  23 :  -0.0000-0.2500 0.2500  plane waves:    5027
 k-point  24 :   0.2500-0.2500 0.2500  plane waves:    5019
 k-point  25 :   0.5000-0.2500 0.2500  plane waves:    5003
 k-point  26 :  -0.2500-0.2500 0.2500  plane waves:    5014
 k-point  27 :   0.0000-0.0000 0.5000  plane waves:    5062
 k-point  28 :   0.2500-0.0000 0.5000  plane waves:    5015
 k-point  29 :   0.5000-0.0000 0.5000  plane waves:    5000
 k-point  30 :   0.0000 0.2500 0.5000  plane waves:    5027
 k-point  31 :   0.2500 0.2500 0.5000  plane waves:    5017
 k-point  32 :   0.5000 0.2500 0.5000  plane waves:    4993
 k-point  33 :  -0.2500 0.2500 0.5000  plane waves:    5024
 k-point  34 :   0.0000 0.5000 0.5000  plane waves:    5006
 k-point  35 :   0.2500 0.5000 0.5000  plane waves:    5010
 k-point  36 :   0.5000 0.5000 0.5000  plane waves:    4992

 maximum and minimum number of plane-waves per node :      1278     1227

 maximum number of plane-waves:      5062
 maximum index in each direction: 
   IXMAX=    5   IYMAX=    9   IZMAX=   23
   IXMIN=   -6   IYMIN=  -10   IZMIN=  -23


 real space projection operators:
  total allocation   :       9233.17 KBytes
  max/ min on nodes  :       2310.52       2305.28


 parallel 3D FFT for wavefunctions:
    minimum data exchange during FFTs selected (reduces bandwidth)
 parallel 3D FFT for charge:
    minimum data exchange during FFTs selected (reduces bandwidth)


 total amount of memory used by VASP MPI-rank0   133499. kBytes
=======================================================================

   base      :      30000. kBytes
   nonlr-proj:       5348. kBytes
   fftplans  :       3798. kBytes
   grid      :      12994. kBytes
   one-center:        155. kBytes
   wavefun   :      81204. kBytes
 
     INWAV:  cpu time    0.0000: real time    0.0000
 Broyden mixing: mesh for mixing (old mesh)
   NGX = 11   NGY = 19   NGZ = 47
  (NGX  = 48   NGY  = 80   NGZ  =192)
  gives a total of   9823 points

 initial charge density was supplied:
 number of electron     164.0000010 magnetization      14.0000002
 keeping initial charge density in first step


--------------------------------------------------------------------------------------------------------


 Maximum index for non-local projection operator         1988
 Maximum index for augmentation-charges         2896 (set IRDMAX)


--------------------------------------------------------------------------------------------------------


 First call to EWALD:  gamma=   0.310
 Maximum number of real-space cells 5x 3x 2
 Maximum number of reciprocal cells 2x 3x 5

    FEWALD:  cpu time    0.0009: real time    0.0009


--------------------------------------- Iteration      1(   1)  ---------------------------------------


    POTLOK:  cpu time    0.2186: real time    0.2187
    SETDIJ:  cpu time    1.2243: real time    1.2243
atom =   3  type =  2  l = 2
 
 onsite density matrix
 
spin component  1
 
  0.1856  0.0029 -0.0294 -0.2020  0.0482
  0.0029  0.2637  0.1527 -0.1243  0.0131
 -0.0294  0.1527  0.2699  0.0715  0.2054
 -0.2020 -0.1243  0.0715  0.8879 -0.0016
  0.0482  0.0131  0.2054 -0.0016  0.8822
 
spin component  2
 
  0.5183 -0.0068  0.0485  0.3746 -0.0116
 -0.0068  0.6164 -0.2666  0.0715  0.1071
  0.0485 -0.2666  0.7555  0.0090  0.0866
  0.3746  0.0715  0.0090  0.6421 -0.0128
 -0.0116  0.1071  0.0866 -0.0128  0.9194
 
 occupancies and eigenvectors
 
  o =  0.0671  v = -0.0220 -0.6526  0.7190 -0.1672 -0.1697  0.0000  0.0000  0.0000  0.0000  0.0000      0.0000  0.0000  0.0000  0.0000  0.0000  0.0000  0.0000  0.0000  0.0000  0.0000
  o =  0.1237  v =  0.9518  0.0712  0.1293  0.2509 -0.0963  0.0000  0.0000  0.0000  0.0000  0.0000      0.0000  0.0000  0.0000  0.0000  0.0000  0.0000  0.0000  0.0000  0.0000  0.0000
  o =  0.1939  v =  0.0000  0.0000  0.0000  0.0000  0.0000  0.7488  0.1356  0.0134 -0.6483 -0.0211      0.0000  0.0000  0.0000  0.0000  0.0000  0.0000  0.0000  0.0000  0.0000  0.0000
  o =  0.3708  v =  0.0000  0.0000  0.0000  0.0000  0.0000  0.1600 -0.7493 -0.5945  0.0079  0.2437      0.0000  0.0000  0.0000  0.0000  0.0000  0.0000  0.0000  0.0000  0.0000  0.0000
  o =  0.3806  v = -0.1697  0.7337  0.6074  0.0258 -0.2516  0.0000  0.0000  0.0000  0.0000  0.0000      0.0000  0.0000  0.0000  0.0000  0.0000  0.0000  0.0000  0.0000  0.0000  0.0000
  o =  0.9515  v = -0.0446 -0.0832 -0.3039 -0.0141 -0.9479  0.0000  0.0000  0.0000  0.0000  0.0000      0.0000  0.0000  0.0000  0.0000  0.0000  0.0000  0.0000  0.0000  0.0000  0.0000
  o =  0.9536  v =  0.0000  0.0000  0.0000  0.0000  0.0000 -0.0313 -0.3216  0.0092 -0.0726 -0.9435      0.0000  0.0000  0.0000  0.0000  0.0000  0.0000  0.0000  0.0000  0.0000  0.0000
  o =  0.9657  v =  0.0000  0.0000  0.0000  0.0000  0.0000 -0.3587  0.4596 -0.7320 -0.3291 -0.1266      0.0000  0.0000  0.0000  0.0000  0.0000  0.0000  0.0000  0.0000  0.0000  0.0000
  o =  0.9665  v =  0.2505  0.1543 -0.0711 -0.9530  0.0116  0.0000  0.0000  0.0000  0.0000  0.0000      0.0000  0.0000  0.0000  0.0000  0.0000  0.0000  0.0000  0.0000  0.0000  0.0000
  o =  0.9676  v =  0.0000  0.0000  0.0000  0.0000  0.0000 -0.5330 -0.3248  0.3323 -0.6827  0.1842      0.0000  0.0000  0.0000  0.0000  0.0000  0.0000  0.0000  0.0000  0.0000  0.0000
atom =   4  type =  2  l = 2
 
 onsite density matrix
 
spin component  1
 
  0.9808 -0.0003  0.0003  0.0095 -0.0000
 -0.0003  0.9771 -0.0217 -0.0000  0.0090
  0.0003 -0.0217  0.9773 -0.0000 -0.0013
  0.0095 -0.0000 -0.0000  0.9623 -0.0001
 -0.0000  0.0090 -0.0013 -0.0001  0.9509
 
spin component  2
 
  0.0621  0.0008  0.0016  0.0120 -0.0026
  0.0008  0.2704  0.0716 -0.0016 -0.2849
  0.0016  0.0716  0.1755 -0.0016 -0.2330
  0.0120 -0.0016 -0.0016  0.0354  0.0031
 -0.0026 -0.2849 -0.2330  0.0031  0.5633
 
 occupancies and eigenvectors
 
  o =  0.0308  v =  0.0000  0.0000  0.0000  0.0000  0.0000 -0.3577  0.0143  0.0279  0.9332  0.0128      0.0000  0.0000  0.0000  0.0000  0.0000  0.0000  0.0000  0.0000  0.0000  0.0000
  o =  0.0359  v =  0.0000  0.0000  0.0000  0.0000  0.0000  0.0117  0.4645  0.6889 -0.0309  0.5555      0.0000  0.0000  0.0000  0.0000  0.0000  0.0000  0.0000  0.0000  0.0000  0.0000
  o =  0.0667  v =  0.0000  0.0000  0.0000  0.0000  0.0000  0.9337  0.0055 -0.0060  0.3579  0.0030      0.0000  0.0000  0.0000  0.0000  0.0000  0.0000  0.0000  0.0000  0.0000  0.0000
  o =  0.1494  v =  0.0000  0.0000  0.0000  0.0000  0.0000  0.0097 -0.7538  0.6372 -0.0016 -0.1601      0.0000  0.0000  0.0000  0.0000  0.0000  0.0000  0.0000  0.0000  0.0000  0.0000
  o =  0.8240  v =  0.0000  0.0000  0.0000  0.0000  0.0000 -0.0039 -0.4645 -0.3444  0.0048  0.8158      0.0000  0.0000  0.0000  0.0000  0.0000  0.0000  0.0000  0.0000  0.0000  0.0000
  o =  0.9465  v =  0.0020  0.4501  0.2831 -0.0046 -0.8469  0.0000  0.0000  0.0000  0.0000  0.0000      0.0000  0.0000  0.0000  0.0000  0.0000  0.0000  0.0000  0.0000  0.0000  0.0000
  o =  0.9583  v = -0.3803  0.1050  0.1338  0.9041  0.0947  0.0000  0.0000  0.0000  0.0000  0.0000      0.0000  0.0000  0.0000  0.0000  0.0000  0.0000  0.0000  0.0000  0.0000  0.0000
  o =  0.9588  v =  0.0770  0.5303  0.6549 -0.1787  0.5019  0.0000  0.0000  0.0000  0.0000  0.0000      0.0000  0.0000  0.0000  0.0000  0.0000  0.0000  0.0000  0.0000  0.0000  0.0000
  o =  0.9848  v = -0.9213 -0.0187  0.0201 -0.3880 -0.0033  0.0000  0.0000  0.0000  0.0000  0.0000      0.0000  0.0000  0.0000  0.0000  0.0000  0.0000  0.0000  0.0000  0.0000  0.0000
  o =  1.0000  v =  0.0268 -0.7105  0.6875  0.0075 -0.1478  0.0000  0.0000  0.0000  0.0000  0.0000      0.0000  0.0000  0.0000  0.0000  0.0000  0.0000  0.0000  0.0000  0.0000  0.0000
atom =   5  type =  2  l = 2
 
 onsite density matrix
 
spin component  1
 
  0.4644 -0.0699 -0.0179  0.2341 -0.2623
 -0.0699  0.6130 -0.2961 -0.0471  0.0637
 -0.0179 -0.2961  0.7083 -0.0571  0.0813
  0.2341 -0.0471 -0.0571  0.8410  0.1450
 -0.2623  0.0637  0.0813  0.1450  0.7913
 
spin component  2
 
  0.3091  0.1217  0.0082 -0.0385  0.2776
  0.1217  0.6990 -0.1722  0.2858  0.0005
  0.0082 -0.1722  0.3903 -0.1663 -0.0522
 -0.0385  0.2858 -0.1663  0.2933 -0.1314
  0.2776  0.0005 -0.0522 -0.1314  0.8099
 
 occupancies and eigenvectors
 
  o =  0.0919  v =  0.0000  0.0000  0.0000  0.0000  0.0000  0.2530 -0.3758  0.2625  0.8485  0.0768      0.0000  0.0000  0.0000  0.0000  0.0000  0.0000  0.0000  0.0000  0.0000  0.0000
  o =  0.1453  v =  0.0000  0.0000  0.0000  0.0000  0.0000  0.7970 -0.1994 -0.3702 -0.1755 -0.3964      0.0000  0.0000  0.0000  0.0000  0.0000  0.0000  0.0000  0.0000  0.0000  0.0000
  o =  0.1948  v =  0.7702 -0.0885 -0.1426 -0.4025  0.4655  0.0000  0.0000  0.0000  0.0000  0.0000      0.0000  0.0000  0.0000  0.0000  0.0000  0.0000  0.0000  0.0000  0.0000  0.0000
  o =  0.3324  v =  0.2626  0.7383  0.6157  0.0374 -0.0732  0.0000  0.0000  0.0000  0.0000  0.0000      0.0000  0.0000  0.0000  0.0000  0.0000  0.0000  0.0000  0.0000  0.0000  0.0000
  o =  0.3512  v =  0.0000  0.0000  0.0000  0.0000  0.0000  0.3568  0.4071  0.8076 -0.1605 -0.1705      0.0000  0.0000  0.0000  0.0000  0.0000  0.0000  0.0000  0.0000  0.0000  0.0000
  o =  0.9512  v =  0.0000  0.0000  0.0000  0.0000  0.0000  0.2445  0.7725 -0.3660  0.3564  0.2871      0.0000  0.0000  0.0000  0.0000  0.0000  0.0000  0.0000  0.0000  0.0000  0.0000
  o =  0.9579  v = -0.2607  0.4663 -0.3867  0.3214  0.6795  0.0000  0.0000  0.0000  0.0000  0.0000      0.0000  0.0000  0.0000  0.0000  0.0000  0.0000  0.0000  0.0000  0.0000  0.0000
  o =  0.9621  v =  0.0000  0.0000  0.0000  0.0000  0.0000 -0.3371  0.2378 -0.0890  0.3105 -0.8517      0.0000  0.0000  0.0000  0.0000  0.0000  0.0000  0.0000  0.0000  0.0000  0.0000
  o =  0.9641  v =  0.3765  0.3243 -0.6291  0.2377 -0.5485  0.0000  0.0000  0.0000  0.0000  0.0000      0.0000  0.0000  0.0000  0.0000  0.0000  0.0000  0.0000  0.0000  0.0000  0.0000
  o =  0.9686  v = -0.3580  0.3528 -0.2351 -0.8226 -0.1241  0.0000  0.0000  0.0000  0.0000  0.0000      0.0000  0.0000  0.0000  0.0000  0.0000  0.0000  0.0000  0.0000  0.0000  0.0000
atom =   6  type =  2  l = 2
 
 onsite density matrix
 
spin component  1
 
  0.5642 -0.0216 -0.0084  0.4282 -0.0155
 -0.0216  0.3143 -0.2484 -0.0099  0.2594
 -0.0084 -0.2484  0.8582 -0.0038  0.1070
  0.4282 -0.0099 -0.0038  0.4833  0.0315
 -0.0155  0.2594  0.1070  0.0315  0.8229
 
spin component  2
 
  0.1245 -0.0053  0.0042 -0.1232 -0.0010
 -0.0053  0.9436 -0.0025 -0.0000 -0.0061
  0.0042 -0.0025  0.0995  0.0027 -0.0265
 -0.1232 -0.0000  0.0027  0.9267 -0.0015
 -0.0010 -0.0061 -0.0265 -0.0015  0.9387
 
 occupancies and eigenvectors
 
  o =  0.0907  v =  0.6355 -0.2441 -0.0957 -0.7117  0.1445  0.0000  0.0000  0.0000  0.0000  0.0000      0.0000  0.0000  0.0000  0.0000  0.0000  0.0000  0.0000  0.0000  0.0000  0.0000
  o =  0.0966  v =  0.0000  0.0000  0.0000  0.0000  0.0000  0.4237 -0.0002 -0.9030  0.0658 -0.0278      0.0000  0.0000  0.0000  0.0000  0.0000  0.0000  0.0000  0.0000  0.0000  0.0000
  o =  0.1081  v =  0.0000  0.0000  0.0000  0.0000  0.0000  0.8935  0.0071  0.4285  0.1331  0.0150      0.0000  0.0000  0.0000  0.0000  0.0000  0.0000  0.0000  0.0000  0.0000  0.0000
  o =  0.1086  v = -0.2215 -0.8317 -0.3252  0.1996  0.3372  0.0000  0.0000  0.0000  0.0000  0.0000      0.0000  0.0000  0.0000  0.0000  0.0000  0.0000  0.0000  0.0000  0.0000  0.0000
  o =  0.9329  v =  0.0335 -0.4201  0.1038 -0.0229 -0.9006  0.0000  0.0000  0.0000  0.0000  0.0000      0.0000  0.0000  0.0000  0.0000  0.0000  0.0000  0.0000  0.0000  0.0000  0.0000
  o =  0.9352  v =  0.0000  0.0000  0.0000  0.0000  0.0000  0.0157 -0.5752  0.0274 -0.0708 -0.8143      0.0000  0.0000  0.0000  0.0000  0.0000  0.0000  0.0000  0.0000  0.0000  0.0000
  o =  0.9447  v =  0.0000  0.0000  0.0000  0.0000  0.0000  0.1336  0.3658  0.0022 -0.9039 -0.1771      0.0000  0.0000  0.0000  0.0000  0.0000  0.0000  0.0000  0.0000  0.0000  0.0000
  o =  0.9486  v =  0.0000  0.0000  0.0000  0.0000  0.0000 -0.0631  0.7317  0.0160  0.3949 -0.5518      0.0000  0.0000  0.0000  0.0000  0.0000  0.0000  0.0000  0.0000  0.0000  0.0000
  o =  0.9546  v =  0.7344  0.0093 -0.1228  0.6674 -0.0081  0.0000  0.0000  0.0000  0.0000  0.0000      0.0000  0.0000  0.0000  0.0000  0.0000  0.0000  0.0000  0.0000  0.0000  0.0000
  o =  0.9560  v = -0.0814  0.2687 -0.9270 -0.0875 -0.2330  0.0000  0.0000  0.0000  0.0000  0.0000      0.0000  0.0000  0.0000  0.0000  0.0000  0.0000  0.0000  0.0000  0.0000  0.0000
atom =   7  type =  2  l = 2
 
 onsite density matrix
 
spin component  1
 
  1.0074 -0.0002  0.0003  0.0152 -0.0001
 -0.0002  0.9797 -0.0187  0.0002  0.0040
  0.0003 -0.0187  0.9953 -0.0003 -0.0053
  0.0152  0.0002 -0.0003  0.9764 -0.0000
 -0.0001  0.0040 -0.0053 -0.0000  0.9686
 
spin component  2
 
  0.2105  0.0004 -0.0000  0.0518  0.0001
  0.0004  0.1221 -0.0761 -0.0018  0.0124
 -0.0000 -0.0761  0.1834  0.0025 -0.0231
  0.0518 -0.0018  0.0025  0.0973 -0.0005
  0.0001  0.0124 -0.0231 -0.0005  0.0963
 
 occupancies and eigenvectors
 
  o =  0.0703  v =  0.0000  0.0000  0.0000  0.0000  0.0000 -0.0137  0.8117  0.5705  0.0307  0.1205      0.0000  0.0000  0.0000  0.0000  0.0000  0.0000  0.0000  0.0000  0.0000  0.0000
  o =  0.0772  v =  0.0000  0.0000  0.0000  0.0000  0.0000  0.3617  0.0166  0.0344 -0.9315  0.0036      0.0000  0.0000  0.0000  0.0000  0.0000  0.0000  0.0000  0.0000  0.0000  0.0000
  o =  0.0918  v =  0.0000  0.0000  0.0000  0.0000  0.0000 -0.0016 -0.2010  0.0796  0.0025  0.9764      0.0000  0.0000  0.0000  0.0000  0.0000  0.0000  0.0000  0.0000  0.0000  0.0000
  o =  0.2305  v =  0.0000  0.0000  0.0000  0.0000  0.0000 -0.9285 -0.0543  0.0780 -0.3586 -0.0181      0.0000  0.0000  0.0000  0.0000  0.0000  0.0000  0.0000  0.0000  0.0000  0.0000
  o =  0.2397  v =  0.0000  0.0000  0.0000  0.0000  0.0000  0.0835 -0.5455  0.8130  0.0521 -0.1786      0.0000  0.0000  0.0000  0.0000  0.0000  0.0000  0.0000  0.0000  0.0000  0.0000
  o =  0.9670  v =  0.0034  0.7185  0.3633 -0.0086 -0.5930  0.0000  0.0000  0.0000  0.0000  0.0000      0.0000  0.0000  0.0000  0.0000  0.0000  0.0000  0.0000  0.0000  0.0000  0.0000
  o =  0.9678  v = -0.0066  0.4279  0.4414  0.0165  0.7885  0.0000  0.0000  0.0000  0.0000  0.0000      0.0000  0.0000  0.0000  0.0000  0.0000  0.0000  0.0000  0.0000  0.0000  0.0000
  o =  0.9702  v = -0.3777 -0.0071  0.0047  0.9256 -0.0213  0.0000  0.0000  0.0000  0.0000  0.0000      0.0000  0.0000  0.0000  0.0000  0.0000  0.0000  0.0000  0.0000  0.0000  0.0000
  o =  1.0088  v =  0.0484  0.5474 -0.8191  0.0318  0.1612  0.0000  0.0000  0.0000  0.0000  0.0000      0.0000  0.0000  0.0000  0.0000  0.0000  0.0000  0.0000  0.0000  0.0000  0.0000
  o =  1.0137  v = -0.9246  0.0311 -0.0466 -0.3766  0.0094  0.0000  0.0000  0.0000  0.0000  0.0000      0.0000  0.0000  0.0000  0.0000  0.0000  0.0000  0.0000  0.0000  0.0000  0.0000
atom =   8  type =  2  l = 2
 
 onsite density matrix
 
spin component  1
 
  1.0038 -0.0002  0.0002  0.0144 -0.0001
 -0.0002  0.9815 -0.0169  0.0000  0.0055
  0.0002 -0.0169  0.9918 -0.0001 -0.0050
  0.0144  0.0000 -0.0001  0.9782 -0.0000
 -0.0001  0.0055 -0.0050 -0.0000  0.9684
 
spin component  2
 
  0.2023 -0.0006  0.0011  0.0392 -0.0002
 -0.0006  0.1429 -0.0805  0.0009  0.0231
  0.0011 -0.0805  0.1843 -0.0012 -0.0198
  0.0392  0.0009 -0.0012  0.1175 -0.0001
 -0.0002  0.0231 -0.0198 -0.0001  0.0848
 
 occupancies and eigenvectors
 
  o =  0.0740  v =  0.0000  0.0000  0.0000  0.0000  0.0000 -0.0014 -0.6115 -0.3158  0.0071  0.7255      0.0000  0.0000  0.0000  0.0000  0.0000  0.0000  0.0000  0.0000  0.0000  0.0000
  o =  0.0861  v =  0.0000  0.0000  0.0000  0.0000  0.0000  0.0086 -0.5061 -0.5486 -0.0199 -0.6652      0.0000  0.0000  0.0000  0.0000  0.0000  0.0000  0.0000  0.0000  0.0000  0.0000
  o =  0.1021  v =  0.0000  0.0000  0.0000  0.0000  0.0000 -0.3644 -0.0141 -0.0001  0.9309 -0.0218      0.0000  0.0000  0.0000  0.0000  0.0000  0.0000  0.0000  0.0000  0.0000  0.0000
  o =  0.2176  v =  0.0000  0.0000  0.0000  0.0000  0.0000 -0.9310 -0.0124  0.0135 -0.3647 -0.0028      0.0000  0.0000  0.0000  0.0000  0.0000  0.0000  0.0000  0.0000  0.0000  0.0000
  o =  0.2520  v =  0.0000  0.0000  0.0000  0.0000  0.0000  0.0217 -0.6079  0.7741 -0.0047 -0.1754      0.0000  0.0000  0.0000  0.0000  0.0000  0.0000  0.0000  0.0000  0.0000  0.0000
  o =  0.9662  v = -0.0020 -0.4704 -0.1428  0.0057  0.8708  0.0000  0.0000  0.0000  0.0000  0.0000      0.0000  0.0000  0.0000  0.0000  0.0000  0.0000  0.0000  0.0000  0.0000  0.0000
  o =  0.9697  v =  0.0115 -0.6551 -0.6040 -0.0289 -0.4528  0.0000  0.0000  0.0000  0.0000  0.0000      0.0000  0.0000  0.0000  0.0000  0.0000  0.0000  0.0000  0.0000  0.0000  0.0000
  o =  0.9717  v = -0.4098 -0.0216 -0.0126  0.9116 -0.0206  0.0000  0.0000  0.0000  0.0000  0.0000      0.0000  0.0000  0.0000  0.0000  0.0000  0.0000  0.0000  0.0000  0.0000  0.0000
  o =  1.0058  v =  0.0454  0.5899 -0.7829  0.0279  0.1902  0.0000  0.0000  0.0000  0.0000  0.0000      0.0000  0.0000  0.0000  0.0000  0.0000  0.0000  0.0000  0.0000  0.0000  0.0000
  o =  1.0102  v = -0.9110  0.0318 -0.0407 -0.4091  0.0112  0.0000  0.0000  0.0000  0.0000  0.0000      0.0000  0.0000  0.0000  0.0000  0.0000  0.0000  0.0000  0.0000  0.0000  0.0000
     EDDAV:  cpu time   43.0058: real time   43.0087
       DOS:  cpu time    0.0041: real time    0.0041
    --------------------------------------------
      LOOP:  cpu time   44.4527: real time   44.4557

 eigenvalue-minimisations  : 15272
 total energy-change (2. order) : 0.2330946E+04  (-0.8710872E+04)
 number of electron     164.0000010 magnetization      14.0000002
 augmentation part      164.0000010 magnetization      14.0000002

 Free energy of the ion-electron system (eV)
  ---------------------------------------------------
  alpha Z        PSCENC =       900.81003399
  Ewald energy   TEWEN  =    -14654.97828035
  -Hartree energ DENC   =     -5671.50232094
  -exchange      EXHF   =         0.00000000
  -V(xc)+E(xc)   XCENC  =       935.32303875
  PAW double counting   =     20321.60227041   -20934.79916878
  entropy T*S    EENTRO =        -0.00227589
  eigenvalues    EBANDS =       354.22905452
  atomic energy  EATOM  =     21080.26368125
  Solvation  Ediel_sol  =         0.00000000
  ---------------------------------------------------
  free energy    TOTEN  =      2330.94603298 eV

  energy without entropy =     2330.94830887  energy(sigma->0) =     2330.94717092


--------------------------------------------------------------------------------------------------------




--------------------------------------- Iteration      1(   2)  ---------------------------------------


     EDDAV:  cpu time   43.0210: real time   43.0235
       DOS:  cpu time    0.0044: real time    0.0044
    --------------------------------------------
      LOOP:  cpu time   43.0253: real time   43.0279

 eigenvalue-minimisations  : 15264
 total energy-change (2. order) :-0.2205410E+04  (-0.2099585E+04)
 number of electron     164.0000010 magnetization      14.0000002
 augmentation part      164.0000010 magnetization      14.0000002

 Free energy of the ion-electron system (eV)
  ---------------------------------------------------
  alpha Z        PSCENC =       900.81003399
  Ewald energy   TEWEN  =    -14654.97828035
  -Hartree energ DENC   =     -5671.50232094
  -exchange      EXHF   =         0.00000000
  -V(xc)+E(xc)   XCENC  =       935.32303875
  PAW double counting   =     20321.60227041   -20934.79916878
  entropy T*S    EENTRO =        -0.00917443
  eigenvalues    EBANDS =     -1851.17423098
  atomic energy  EATOM  =     21080.26368125
  Solvation  Ediel_sol  =         0.00000000
  ---------------------------------------------------
  free energy    TOTEN  =       125.53584893 eV

  energy without entropy =      125.54502336  energy(sigma->0) =      125.54043614


--------------------------------------------------------------------------------------------------------




--------------------------------------- Iteration      1(   3)  ---------------------------------------


     EDDAV:  cpu time   45.6675: real time   45.6701
       DOS:  cpu time    0.0043: real time    0.0043
    --------------------------------------------
      LOOP:  cpu time   45.6718: real time   45.6744

 eigenvalue-minimisations  : 16684
 total energy-change (2. order) :-0.3498499E+03  (-0.3069935E+03)
 number of electron     164.0000010 magnetization      14.0000002
 augmentation part      164.0000010 magnetization      14.0000002

 Free energy of the ion-electron system (eV)
  ---------------------------------------------------
  alpha Z        PSCENC =       900.81003399
  Ewald energy   TEWEN  =    -14654.97828035
  -Hartree energ DENC   =     -5671.50232094
  -exchange      EXHF   =         0.00000000
  -V(xc)+E(xc)   XCENC  =       935.32303875
  PAW double counting   =     20321.60227041   -20934.79916878
  entropy T*S    EENTRO =        -0.00102912
  eigenvalues    EBANDS =     -2201.03231841
  atomic energy  EATOM  =     21080.26368125
  Solvation  Ediel_sol  =         0.00000000
  ---------------------------------------------------
  free energy    TOTEN  =      -224.31409318 eV

  energy without entropy =     -224.31306406  energy(sigma->0) =     -224.31357862


--------------------------------------------------------------------------------------------------------




--------------------------------------- Iteration      1(   4)  ---------------------------------------


     EDDAV:  cpu time   47.7497: real time   47.7526
       DOS:  cpu time    0.0057: real time    0.0057
    --------------------------------------------
      LOOP:  cpu time   47.7554: real time   47.7583

 eigenvalue-minimisations  : 17848
 total energy-change (2. order) :-0.3109971E+02  (-0.3062152E+02)
 number of electron     164.0000010 magnetization      14.0000002
 augmentation part      164.0000010 magnetization      14.0000002

 Free energy of the ion-electron system (eV)
  ---------------------------------------------------
  alpha Z        PSCENC =       900.81003399
  Ewald energy   TEWEN  =    -14654.97828035
  -Hartree energ DENC   =     -5671.50232094
  -exchange      EXHF   =         0.00000000
  -V(xc)+E(xc)   XCENC  =       935.32303875
  PAW double counting   =     20321.60227041   -20934.79916878
  entropy T*S    EENTRO =        -0.00384789
  eigenvalues    EBANDS =     -2232.12921112
  atomic energy  EATOM  =     21080.26368125
  Solvation  Ediel_sol  =         0.00000000
  ---------------------------------------------------
  free energy    TOTEN  =      -255.41380466 eV

  energy without entropy =     -255.40995677  energy(sigma->0) =     -255.41188072


--------------------------------------------------------------------------------------------------------




--------------------------------------- Iteration      1(   5)  ---------------------------------------


     EDDAV:  cpu time   62.1202: real time   62.1228
       DOS:  cpu time    0.0045: real time    0.0045
    CHARGE:  cpu time    3.9722: real time    3.9722
    MIXING:  cpu time    0.0044: real time    0.0044
    --------------------------------------------
      LOOP:  cpu time   66.1013: real time   66.1040

 eigenvalue-minimisations  : 25776
 total energy-change (2. order) :-0.1383584E+01  (-0.1377161E+01)
 number of electron     164.0000009 magnetization      14.0334628
 augmentation part       61.1793379 magnetization       9.4658387

 Broyden mixing:
  rms(total) = 0.74242E+00    rms(broyden)= 0.74225E+00
  rms(prec ) = 0.79575E+00
  weight for this iteration     100.00

 Free energy of the ion-electron system (eV)
  ---------------------------------------------------
  alpha Z        PSCENC =       900.81003399
  Ewald energy   TEWEN  =    -14654.97828035
  -Hartree energ DENC   =     -5671.50232094
  -exchange      EXHF   =         0.00000000
  -V(xc)+E(xc)   XCENC  =       935.32303875
  PAW double counting   =     20321.60227041   -20934.79916878
  entropy T*S    EENTRO =        -0.00435313
  eigenvalues    EBANDS =     -2233.51229016
  atomic energy  EATOM  =     21080.26368125
  Solvation  Ediel_sol  =         0.00000000
  ---------------------------------------------------
  free energy    TOTEN  =      -256.79738894 eV

  energy without entropy =     -256.79303582  energy(sigma->0) =     -256.79521238


--------------------------------------------------------------------------------------------------------




--------------------------------------- Iteration      1(   6)  ---------------------------------------


    POTLOK:  cpu time    0.2149: real time    0.2149
    SETDIJ:  cpu time    1.1918: real time    1.1918
atom =   3  type =  2  l = 2
 
 onsite density matrix
 
spin component  1
 
  0.1869 -0.0008 -0.0287 -0.1932  0.0486
 -0.0008  0.2854  0.1519 -0.1186  0.0095
 -0.0287  0.1519  0.2745  0.0710  0.2033
 -0.1932 -0.1186  0.0710  0.8824 -0.0024
  0.0486  0.0095  0.2033 -0.0024  0.8806
 
spin component  2
 
  0.5208 -0.0035  0.0478  0.3640 -0.0118
 -0.0035  0.6050 -0.2641  0.0662  0.1078
  0.0478 -0.2641  0.7518  0.0089  0.0870
  0.3640  0.0662  0.0089  0.6486 -0.0119
 -0.0118  0.1078  0.0870 -0.0119  0.9179
 
 occupancies and eigenvectors
 
  o =  0.0799  v = -0.0238 -0.6313  0.7362 -0.1647 -0.1785  0.0000  0.0000  0.0000  0.0000  0.0000      0.0000  0.0000  0.0000  0.0000  0.0000  0.0000  0.0000  0.0000  0.0000  0.0000
  o =  0.1288  v =  0.9540  0.0738  0.1255  0.2440 -0.0958  0.0000  0.0000  0.0000  0.0000  0.0000      0.0000  0.0000  0.0000  0.0000  0.0000  0.0000  0.0000  0.0000  0.0000  0.0000
  o =  0.2097  v =  0.0000  0.0000  0.0000  0.0000  0.0000  0.7539  0.1250  0.0080 -0.6447 -0.0183      0.0000  0.0000  0.0000  0.0000  0.0000  0.0000  0.0000  0.0000  0.0000  0.0000
  o =  0.3642  v =  0.0000  0.0000  0.0000  0.0000  0.0000  0.1492 -0.7562 -0.5886  0.0137  0.2432      0.0000  0.0000  0.0000  0.0000  0.0000  0.0000  0.0000  0.0000  0.0000  0.0000
  o =  0.3964  v = -0.1677  0.7525  0.5873  0.0300 -0.2444  0.0000  0.0000  0.0000  0.0000  0.0000      0.0000  0.0000  0.0000  0.0000  0.0000  0.0000  0.0000  0.0000  0.0000  0.0000
  o =  0.9488  v = -0.0472 -0.0816 -0.3031 -0.0075 -0.9483  0.0000  0.0000  0.0000  0.0000  0.0000      0.0000  0.0000  0.0000  0.0000  0.0000  0.0000  0.0000  0.0000  0.0000  0.0000
  o =  0.9505  v =  0.0000  0.0000  0.0000  0.0000  0.0000 -0.0342 -0.4921  0.2845 -0.1087 -0.8148      0.0000  0.0000  0.0000  0.0000  0.0000  0.0000  0.0000  0.0000  0.0000  0.0000
  o =  0.9560  v =  0.2429  0.1520 -0.0740 -0.9552  0.0060  0.0000  0.0000  0.0000  0.0000  0.0000      0.0000  0.0000  0.0000  0.0000  0.0000  0.0000  0.0000  0.0000  0.0000  0.0000
  o =  0.9584  v =  0.0000  0.0000  0.0000  0.0000  0.0000 -0.1087  0.4061 -0.7565 -0.0436 -0.4990      0.0000  0.0000  0.0000  0.0000  0.0000  0.0000  0.0000  0.0000  0.0000  0.0000
  o =  0.9613  v =  0.0000  0.0000  0.0000  0.0000  0.0000 -0.6296 -0.0730 -0.0148 -0.7553  0.1661      0.0000  0.0000  0.0000  0.0000  0.0000  0.0000  0.0000  0.0000  0.0000  0.0000
atom =   4  type =  2  l = 2
 
 onsite density matrix
 
spin component  1
 
  0.9765 -0.0003  0.0003  0.0097 -0.0002
 -0.0003  0.9925 -0.0085 -0.0000 -0.0242
  0.0003 -0.0085  0.9840  0.0000 -0.0267
  0.0097 -0.0000  0.0000  0.9573 -0.0001
 -0.0002 -0.0242 -0.0267 -0.0001  1.0042
 
spin component  2
 
  0.0670  0.0007  0.0016  0.0121 -0.0024
  0.0007  0.2407  0.0490 -0.0016 -0.2290
  0.0016  0.0490  0.1610 -0.0017 -0.1901
  0.0121 -0.0016 -0.0017  0.0403  0.0030
 -0.0024 -0.2290 -0.1901  0.0030  0.4694
 
 occupancies and eigenvectors
 
  o =  0.0356  v =  0.0000  0.0000  0.0000  0.0000  0.0000 -0.3605  0.0219  0.0390  0.9315  0.0201      0.0000  0.0000  0.0000  0.0000  0.0000  0.0000  0.0000  0.0000  0.0000  0.0000
  o =  0.0409  v =  0.0000  0.0000  0.0000  0.0000  0.0000  0.0167  0.4670  0.6869 -0.0452  0.5547      0.0000  0.0000  0.0000  0.0000  0.0000  0.0000  0.0000  0.0000  0.0000  0.0000
  o =  0.0717  v =  0.0000  0.0000  0.0000  0.0000  0.0000  0.9326  0.0055 -0.0054  0.3609  0.0034      0.0000  0.0000  0.0000  0.0000  0.0000  0.0000  0.0000  0.0000  0.0000  0.0000
  o =  0.1507  v =  0.0000  0.0000  0.0000  0.0000  0.0000  0.0095 -0.7522  0.6394 -0.0019 -0.1590      0.0000  0.0000  0.0000  0.0000  0.0000  0.0000  0.0000  0.0000  0.0000  0.0000
  o =  0.6796  v =  0.0000  0.0000  0.0000  0.0000  0.0000 -0.0045 -0.4643 -0.3432  0.0059  0.8164      0.0000  0.0000  0.0000  0.0000  0.0000  0.0000  0.0000  0.0000  0.0000  0.0000
  o =  0.9532  v = -0.3755  0.1064  0.1423  0.9009  0.1258  0.0000  0.0000  0.0000  0.0000  0.0000      0.0000  0.0000  0.0000  0.0000  0.0000  0.0000  0.0000  0.0000  0.0000  0.0000
  o =  0.9534  v =  0.0859  0.4879  0.6291 -0.2000  0.5646  0.0000  0.0000  0.0000  0.0000  0.0000      0.0000  0.0000  0.0000  0.0000  0.0000  0.0000  0.0000  0.0000  0.0000  0.0000
  o =  0.9806  v = -0.9225 -0.0181  0.0207 -0.3851 -0.0036  0.0000  0.0000  0.0000  0.0000  0.0000      0.0000  0.0000  0.0000  0.0000  0.0000  0.0000  0.0000  0.0000  0.0000  0.0000
  o =  0.9972  v = -0.0265  0.7491 -0.6564 -0.0078  0.0853  0.0000  0.0000  0.0000  0.0000  0.0000      0.0000  0.0000  0.0000  0.0000  0.0000  0.0000  0.0000  0.0000  0.0000  0.0000
  o =  1.0300  v =  0.0028  0.4349  0.3908  0.0014 -0.8113  0.0000  0.0000  0.0000  0.0000  0.0000      0.0000  0.0000  0.0000  0.0000  0.0000  0.0000  0.0000  0.0000  0.0000  0.0000
atom =   5  type =  2  l = 2
 
 onsite density matrix
 
spin component  1
 
  0.4607 -0.0700 -0.0242  0.2305 -0.2517
 -0.0700  0.6151 -0.2961 -0.0439  0.0627
 -0.0242 -0.2961  0.6981 -0.0563  0.0805
  0.2305 -0.0439 -0.0563  0.8383  0.1406
 -0.2517  0.0627  0.0805  0.1406  0.7925
 
spin component  2
 
  0.3177  0.1234  0.0186 -0.0357  0.2663
  0.1234  0.6976 -0.1669  0.2816  0.0007
  0.0186 -0.1669  0.4074 -0.1655 -0.0523
 -0.0357  0.2816 -0.1655  0.2971 -0.1278
  0.2663  0.0007 -0.0523 -0.1278  0.8086
 
 occupancies and eigenvectors
 
  o =  0.1003  v =  0.0000  0.0000  0.0000  0.0000  0.0000  0.2216 -0.3775  0.2583  0.8564  0.0907      0.0000  0.0000  0.0000  0.0000  0.0000  0.0000  0.0000  0.0000  0.0000  0.0000
  o =  0.1535  v =  0.0000  0.0000  0.0000  0.0000  0.0000  0.7989 -0.2201 -0.3793 -0.1486 -0.3839      0.0000  0.0000  0.0000  0.0000  0.0000  0.0000  0.0000  0.0000  0.0000  0.0000
  o =  0.2055  v =  0.7820 -0.0676 -0.1225 -0.4016  0.4556  0.0000  0.0000  0.0000  0.0000  0.0000      0.0000  0.0000  0.0000  0.0000  0.0000  0.0000  0.0000  0.0000  0.0000  0.0000
  o =  0.3274  v = -0.2405 -0.7326 -0.6282 -0.0490  0.0921  0.0000  0.0000  0.0000  0.0000  0.0000      0.0000  0.0000  0.0000  0.0000  0.0000  0.0000  0.0000  0.0000  0.0000  0.0000
  o =  0.3750  v =  0.0000  0.0000  0.0000  0.0000  0.0000  0.3781  0.3983  0.8033 -0.1456 -0.1789      0.0000  0.0000  0.0000  0.0000  0.0000  0.0000  0.0000  0.0000  0.0000  0.0000
  o =  0.9463  v =  0.0000  0.0000  0.0000  0.0000  0.0000 -0.2960 -0.7198  0.3463 -0.2997 -0.4295      0.0000  0.0000  0.0000  0.0000  0.0000  0.0000  0.0000  0.0000  0.0000  0.0000
  o =  0.9502  v =  0.3940 -0.4455  0.2656 -0.0930 -0.7530  0.0000  0.0000  0.0000  0.0000  0.0000      0.0000  0.0000  0.0000  0.0000  0.0000  0.0000  0.0000  0.0000  0.0000  0.0000
  o =  0.9532  v =  0.0000  0.0000  0.0000  0.0000  0.0000  0.2865 -0.3637  0.1557 -0.3653  0.7924      0.0000  0.0000  0.0000  0.0000  0.0000  0.0000  0.0000  0.0000  0.0000  0.0000
  o =  0.9596  v = -0.2328 -0.4805  0.7207 -0.1050  0.4296  0.0000  0.0000  0.0000  0.0000  0.0000      0.0000  0.0000  0.0000  0.0000  0.0000  0.0000  0.0000  0.0000  0.0000  0.0000
  o =  0.9620  v =  0.3480 -0.1714  0.0226  0.9037  0.1798  0.0000  0.0000  0.0000  0.0000  0.0000      0.0000  0.0000  0.0000  0.0000  0.0000  0.0000  0.0000  0.0000  0.0000  0.0000
atom =   6  type =  2  l = 2
 
 onsite density matrix
 
spin component  1
 
  0.5585 -0.0212 -0.0082  0.4204 -0.0157
 -0.0212  0.3231 -0.2446 -0.0099  0.2536
 -0.0082 -0.2446  0.8475 -0.0041  0.1057
  0.4204 -0.0099 -0.0041  0.4897  0.0318
 -0.0157  0.2536  0.1057  0.0318  0.8209
 
spin component  2
 
  0.1318 -0.0058  0.0042 -0.1166 -0.0003
 -0.0058  0.9332 -0.0069  0.0004 -0.0035
  0.0042 -0.0069  0.1100  0.0027 -0.0249
 -0.1166  0.0004  0.0027  0.9190 -0.0013
 -0.0003 -0.0035 -0.0249 -0.0013  0.9350
 
 occupancies and eigenvectors
 
  o =  0.0994  v =  0.6455 -0.2209 -0.0882 -0.7129  0.1360  0.0000  0.0000  0.0000  0.0000  0.0000      0.0000  0.0000  0.0000  0.0000  0.0000  0.0000  0.0000  0.0000  0.0000  0.0000
  o =  0.1067  v =  0.0000  0.0000  0.0000  0.0000  0.0000  0.4753 -0.0041 -0.8766  0.0711 -0.0261      0.0000  0.0000  0.0000  0.0000  0.0000  0.0000  0.0000  0.0000  0.0000  0.0000
  o =  0.1173  v =  0.0000  0.0000  0.0000  0.0000  0.0000  0.8680  0.0102  0.4803  0.1247  0.0152      0.0000  0.0000  0.0000  0.0000  0.0000  0.0000  0.0000  0.0000  0.0000  0.0000
  o =  0.1199  v = -0.2058 -0.8366 -0.3319  0.1787  0.3400  0.0000  0.0000  0.0000  0.0000  0.0000      0.0000  0.0000  0.0000  0.0000  0.0000  0.0000  0.0000  0.0000  0.0000  0.0000
  o =  0.9282  v =  0.0484 -0.4349  0.1537 -0.0094 -0.8859  0.0000  0.0000  0.0000  0.0000  0.0000      0.0000  0.0000  0.0000  0.0000  0.0000  0.0000  0.0000  0.0000  0.0000  0.0000
  o =  0.9310  v =  0.0000  0.0000  0.0000  0.0000  0.0000 -0.0009 -0.8281  0.0240  0.0494 -0.5578      0.0000  0.0000  0.0000  0.0000  0.0000  0.0000  0.0000  0.0000  0.0000  0.0000
  o =  0.9350  v =  0.0000  0.0000  0.0000  0.0000  0.0000 -0.1228 -0.2439 -0.0090  0.8566  0.4377      0.0000  0.0000  0.0000  0.0000  0.0000  0.0000  0.0000  0.0000  0.0000  0.0000
  o =  0.9389  v =  0.0000  0.0000  0.0000  0.0000  0.0000  0.0745 -0.5046 -0.0182 -0.4932  0.7045      0.0000  0.0000  0.0000  0.0000  0.0000  0.0000  0.0000  0.0000  0.0000  0.0000
  o =  0.9454  v =  0.1328  0.2428 -0.9155  0.1064 -0.2719  0.0000  0.0000  0.0000  0.0000  0.0000      0.0000  0.0000  0.0000  0.0000  0.0000  0.0000  0.0000  0.0000  0.0000  0.0000
  o =  0.9468  v =  0.7218 -0.0565  0.1423  0.6696  0.0848  0.0000  0.0000  0.0000  0.0000  0.0000      0.0000  0.0000  0.0000  0.0000  0.0000  0.0000  0.0000  0.0000  0.0000  0.0000
atom =   7  type =  2  l = 2
 
 onsite density matrix
 
spin component  1
 
  1.0090 -0.0007  0.0002  0.0170 -0.0004
 -0.0007  0.9691 -0.0247  0.0008  0.0010
  0.0002 -0.0247  0.9950  0.0000 -0.0075
  0.0170  0.0008  0.0000  0.9734  0.0004
 -0.0004  0.0010 -0.0075  0.0004  0.9578
 
spin component  2
 
  0.2072  0.0011  0.0002  0.0495  0.0008
  0.0011  0.1379 -0.0669 -0.0028  0.0177
  0.0002 -0.0669  0.1826  0.0020 -0.0195
  0.0495 -0.0028  0.0020  0.1004 -0.0012
  0.0008  0.0177 -0.0195 -0.0012  0.1120
 
 occupancies and eigenvectors
 
  o =  0.0807  v =  0.0000  0.0000  0.0000  0.0000  0.0000  0.3613 -0.1294 -0.0698 -0.9207 -0.0134      0.0000  0.0000  0.0000  0.0000  0.0000  0.0000  0.0000  0.0000  0.0000  0.0000
  o =  0.0894  v =  0.0000  0.0000  0.0000  0.0000  0.0000  0.0484  0.8075  0.5467 -0.1335 -0.1697      0.0000  0.0000  0.0000  0.0000  0.0000  0.0000  0.0000  0.0000  0.0000  0.0000
  o =  0.1070  v =  0.0000  0.0000  0.0000  0.0000  0.0000  0.0083  0.0174  0.2645 -0.0332  0.9636      0.0000  0.0000  0.0000  0.0000  0.0000  0.0000  0.0000  0.0000  0.0000  0.0000
  o =  0.2266  v =  0.0000  0.0000  0.0000  0.0000  0.0000 -0.9296 -0.0409  0.0489 -0.3625 -0.0172      0.0000  0.0000  0.0000  0.0000  0.0000  0.0000  0.0000  0.0000  0.0000  0.0000
  o =  0.2365  v =  0.0000  0.0000  0.0000  0.0000  0.0000  0.0532 -0.5737  0.7898  0.0446 -0.2054      0.0000  0.0000  0.0000  0.0000  0.0000  0.0000  0.0000  0.0000  0.0000  0.0000
  o =  0.9521  v =  0.0269  0.6818  0.4882 -0.0558  0.5413  0.0000  0.0000  0.0000  0.0000  0.0000      0.0000  0.0000  0.0000  0.0000  0.0000  0.0000  0.0000  0.0000  0.0000  0.0000
  o =  0.9589  v = -0.0009 -0.5253 -0.1861  0.0059  0.8303  0.0000  0.0000  0.0000  0.0000  0.0000      0.0000  0.0000  0.0000  0.0000  0.0000  0.0000  0.0000  0.0000  0.0000  0.0000
  o =  0.9667  v =  0.3705 -0.0382 -0.0431 -0.9267 -0.0269  0.0000  0.0000  0.0000  0.0000  0.0000      0.0000  0.0000  0.0000  0.0000  0.0000  0.0000  0.0000  0.0000  0.0000  0.0000
  o =  1.0108  v =  0.0650  0.5060 -0.8493  0.0409  0.1296  0.0000  0.0000  0.0000  0.0000  0.0000      0.0000  0.0000  0.0000  0.0000  0.0000  0.0000  0.0000  0.0000  0.0000  0.0000
  o =  1.0158  v = -0.9262  0.0406 -0.0625 -0.3694  0.0132  0.0000  0.0000  0.0000  0.0000  0.0000      0.0000  0.0000  0.0000  0.0000  0.0000  0.0000  0.0000  0.0000  0.0000  0.0000
atom =   8  type =  2  l = 2
 
 onsite density matrix
 
spin component  1
 
  1.0049 -0.0002  0.0002  0.0161 -0.0001
 -0.0002  0.9802 -0.0189  0.0002  0.0077
  0.0002 -0.0189  0.9920 -0.0002 -0.0049
  0.0161  0.0002 -0.0002  0.9763  0.0000
 -0.0001  0.0077 -0.0049  0.0000  0.9619
 
spin component  2
 
  0.1996 -0.0005  0.0011  0.0369 -0.0002
 -0.0005  0.1428 -0.0773  0.0007  0.0196
  0.0011 -0.0773  0.1818 -0.0012 -0.0198
  0.0369  0.0007 -0.0012  0.1188 -0.0002
 -0.0002  0.0196 -0.0198 -0.0002  0.0933
 
 occupancies and eigenvectors
 
  o =  0.0811  v =  0.0000  0.0000  0.0000  0.0000  0.0000  0.0025 -0.7617 -0.5049 -0.0017  0.4059      0.0000  0.0000  0.0000  0.0000  0.0000  0.0000  0.0000  0.0000  0.0000  0.0000
  o =  0.0898  v =  0.0000  0.0000  0.0000  0.0000  0.0000  0.0119 -0.2244 -0.3817 -0.0315 -0.8960      0.0000  0.0000  0.0000  0.0000  0.0000  0.0000  0.0000  0.0000  0.0000  0.0000
  o =  0.1045  v =  0.0000  0.0000  0.0000  0.0000  0.0000 -0.3615 -0.0165 -0.0050  0.9317 -0.0313      0.0000  0.0000  0.0000  0.0000  0.0000  0.0000  0.0000  0.0000  0.0000  0.0000
  o =  0.2139  v =  0.0000  0.0000  0.0000  0.0000  0.0000 -0.9320 -0.0130  0.0143 -0.3619 -0.0025      0.0000  0.0000  0.0000  0.0000  0.0000  0.0000  0.0000  0.0000  0.0000  0.0000
  o =  0.2471  v =  0.0000  0.0000  0.0000  0.0000  0.0000  0.0224 -0.6074  0.7740 -0.0039 -0.1772      0.0000  0.0000  0.0000  0.0000  0.0000  0.0000  0.0000  0.0000  0.0000  0.0000
  o =  0.9589  v = -0.0017 -0.4170 -0.1037  0.0040  0.9029  0.0000  0.0000  0.0000  0.0000  0.0000      0.0000  0.0000  0.0000  0.0000  0.0000  0.0000  0.0000  0.0000  0.0000  0.0000
  o =  0.9677  v =  0.0076  0.6881  0.6127 -0.0154  0.3883  0.0000  0.0000  0.0000  0.0000  0.0000      0.0000  0.0000  0.0000  0.0000  0.0000  0.0000  0.0000  0.0000  0.0000  0.0000
  o =  0.9690  v =  0.4100 -0.0084 -0.0178 -0.9119 -0.0011  0.0000  0.0000  0.0000  0.0000  0.0000      0.0000  0.0000  0.0000  0.0000  0.0000  0.0000  0.0000  0.0000  0.0000  0.0000
  o =  1.0075  v =  0.0404  0.5930 -0.7824  0.0278  0.1840  0.0000  0.0000  0.0000  0.0000  0.0000      0.0000  0.0000  0.0000  0.0000  0.0000  0.0000  0.0000  0.0000  0.0000  0.0000
  o =  1.0122  v = -0.9111  0.0290 -0.0374 -0.4093  0.0092  0.0000  0.0000  0.0000  0.0000  0.0000      0.0000  0.0000  0.0000  0.0000  0.0000  0.0000  0.0000  0.0000  0.0000  0.0000
     EDDAV:  cpu time   45.3627: real time   45.3645
       DOS:  cpu time    0.0037: real time    0.0037
    CHARGE:  cpu time    3.9584: real time    3.9585
    MIXING:  cpu time    0.0044: real time    0.0044
    --------------------------------------------
      LOOP:  cpu time   50.7360: real time   50.7378

 eigenvalue-minimisations  : 16452
 total energy-change (2. order) : 0.4005403E+02  (-0.1745713E+01)
 number of electron     164.0000010 magnetization      14.0289380
 augmentation part       62.5352881 magnetization       9.6885694

 Broyden mixing:
[...]
 -0.011  -0.004   0.015 -18.561  -0.004  -0.008   5.445   0.003
 -0.001  -0.000   0.003  -0.004 -18.528  -0.003   0.003   5.436
 -0.009  -0.017   5.411  -0.008  -0.003   9.436  -0.023  -0.002
  0.002   0.018  -0.008   5.445   0.003  -0.023   9.478   0.005
 -0.000   0.003  -0.003   0.003   5.436  -0.002   0.005   9.380
  0.003  -0.001  -0.001   0.001   0.011   0.003  -0.002  -0.023
  0.016  -0.004  -0.006  -0.002   0.001   0.018   0.002  -0.002
 -0.024   0.011  -0.018  -0.005   0.000   0.033   0.019  -0.001
 -0.004   0.001   0.001  -0.001  -0.011  -0.002   0.004   0.024
 -0.003  -0.008  -0.018  -0.002  -0.000   0.033   0.003   0.002
  0.004  -0.000  -0.001   0.001   0.014   0.002  -0.001  -0.016
  0.018  -0.001  -0.007  -0.002   0.001   0.011  -0.001  -0.001
 -0.027   0.006  -0.022  -0.006   0.000   0.024   0.014   0.000
 -0.005   0.000   0.001  -0.001  -0.013  -0.001   0.003   0.016
 -0.006  -0.005  -0.023  -0.003  -0.001   0.026   0.002   0.001
 pseudopotential strength for first ion, spin component:           2
-17.842  -4.500   0.017  -0.008  -0.002  -0.006   0.002  -0.000
 -4.500  -2.345   0.006  -0.003  -0.001  -0.021   0.012   0.004
  0.017   0.006 -18.513   0.013   0.004   5.411  -0.009  -0.004
 -0.008  -0.003   0.013 -18.561  -0.005  -0.009   5.444   0.003
 -0.002  -0.001   0.004  -0.005 -18.527  -0.004   0.003   5.434
 -0.006  -0.021   5.411  -0.009  -0.004   9.461  -0.018  -0.005
  0.002   0.012  -0.009   5.444   0.003  -0.018   9.515   0.008
 -0.000   0.004  -0.004   0.003   5.434  -0.005   0.008   9.416
  0.004  -0.001  -0.000   0.002   0.012   0.003  -0.003  -0.026
  0.014  -0.003  -0.004  -0.002   0.002   0.013  -0.003  -0.003
 -0.025   0.010  -0.018  -0.003  -0.000   0.033   0.013  -0.001
 -0.005   0.002   0.002  -0.001  -0.008  -0.003   0.006   0.018
 -0.005  -0.007  -0.017  -0.002  -0.001   0.034   0.003   0.004
  0.005  -0.001  -0.000   0.002   0.015   0.002  -0.002  -0.016
  0.016  -0.001  -0.005  -0.001   0.002   0.008  -0.004  -0.002
 -0.028   0.005  -0.021  -0.004  -0.000   0.022   0.009   0.000
 -0.006   0.001   0.002  -0.002  -0.010  -0.002   0.005   0.012
 -0.008  -0.005  -0.021  -0.002  -0.001   0.026   0.002   0.003
 total augmentation occupancy for first ion, spin component:           1
  2.004   0.011  -0.001   0.001   0.000  -0.002   0.001   0.000  -0.000  -0.002   0.002   0.001   0.003  -0.000  -0.000   0.002
  0.011   0.532  -0.016   0.009   0.001   0.015  -0.007  -0.001   0.016   0.044  -0.118  -0.015   0.025  -0.009  -0.025   0.066
 -0.001  -0.016   2.009  -0.000   0.000   0.001  -0.002  -0.001   0.000   0.001   0.016  -0.001   0.015  -0.000   0.001  -0.003
  0.001   0.009  -0.000   2.009  -0.000  -0.002   0.007   0.001  -0.001   0.009   0.002   0.002   0.002   0.000  -0.004   0.000
  0.000   0.001   0.000  -0.000   2.010  -0.001   0.001   0.004  -0.004  -0.001   0.001   0.006   0.000  -0.002   0.000  -0.000
 -0.002   0.015   0.001  -0.002  -0.001   0.038   0.003   0.001   0.000  -0.005  -0.042   0.003  -0.019   0.000   0.002   0.024
  0.001  -0.007  -0.002   0.007   0.001   0.003   0.027  -0.001   0.004  -0.031  -0.001  -0.004  -0.003  -0.002   0.019  -0.000
  0.000  -0.001  -0.001   0.001   0.004   0.001  -0.001   0.042   0.023   0.004  -0.002  -0.012  -0.001  -0.013  -0.002   0.001
 -0.000   0.016   0.000  -0.001  -0.004   0.000   0.004   0.023   0.660  -0.013  -0.005   0.052  -0.004  -0.385   0.008   0.003
 -0.002   0.044   0.001   0.009  -0.001  -0.005  -0.031   0.004  -0.013   0.336  -0.002   0.012   0.006   0.008  -0.198   0.001
  0.002  -0.118   0.016   0.002   0.001  -0.042  -0.001  -0.002  -0.005  -0.002   0.302  -0.006   0.003   0.003   0.001  -0.173
  0.001  -0.015  -0.001   0.002   0.006   0.003  -0.004  -0.012   0.052   0.012  -0.006   0.386  -0.002  -0.029  -0.007   0.003
  0.003   0.025   0.015   0.002   0.000  -0.019  -0.003  -0.001  -0.004   0.006   0.003  -0.002   0.206   0.002  -0.003  -0.002
 -0.000  -0.009  -0.000   0.000  -0.002   0.000  -0.002  -0.013  -0.385   0.008   0.003  -0.029   0.002   0.228  -0.005  -0.002
 -0.000  -0.025   0.001  -0.004   0.000   0.002   0.019  -0.002   0.008  -0.198   0.001  -0.007  -0.003  -0.005   0.118   0.000
  0.002   0.066  -0.003   0.000  -0.000   0.024  -0.000   0.001   0.003   0.001  -0.173   0.003  -0.002  -0.002   0.000   0.100
  0.000   0.009   0.000  -0.000  -0.001  -0.002   0.002   0.006  -0.029  -0.007   0.003  -0.225   0.001   0.017   0.004  -0.002
 -0.001  -0.014  -0.004  -0.001   0.000   0.010   0.002   0.000   0.002  -0.003  -0.002   0.001  -0.117  -0.001   0.001   0.001
 total augmentation occupancy for first ion, spin component:           2
 -0.000  -0.001   0.000   0.000   0.000   0.000   0.000  -0.000   0.000  -0.000  -0.000  -0.000  -0.000  -0.000   0.000   0.000
 -0.001   0.017  -0.000   0.001  -0.000   0.001  -0.002   0.000  -0.004   0.003  -0.001   0.002   0.003   0.002  -0.001   0.001
  0.000  -0.000   0.000   0.000  -0.000  -0.000  -0.000   0.000   0.000  -0.000  -0.000   0.000   0.000   0.000   0.000   0.000
  0.000   0.001   0.000  -0.000   0.000  -0.000  -0.000  -0.000   0.000   0.000  -0.000  -0.000   0.000  -0.000   0.000   0.000
  0.000  -0.000  -0.000   0.000   0.000   0.000  -0.000  -0.000  -0.000   0.000  -0.000   0.000  -0.000  -0.000   0.000  -0.000
  0.000   0.001  -0.000  -0.000   0.000   0.001   0.000  -0.000  -0.000  -0.000  -0.001  -0.000  -0.001   0.000   0.000   0.000
  0.000  -0.002  -0.000  -0.000  -0.000   0.000   0.000   0.000  -0.001  -0.001  -0.001   0.001  -0.001   0.000   0.001   0.000
 -0.000   0.000   0.000  -0.000  -0.000  -0.000   0.000   0.001   0.001  -0.001   0.000  -0.001   0.000  -0.000   0.000  -0.000
  0.000  -0.004   0.000   0.000  -0.000  -0.000  -0.001   0.001   0.014  -0.000   0.000   0.005  -0.001  -0.007  -0.000  -0.000
 -0.000   0.003  -0.000   0.000   0.000  -0.000  -0.001  -0.001  -0.000   0.001   0.001  -0.001   0.002  -0.000  -0.000  -0.001
 -0.000  -0.001  -0.000  -0.000  -0.000  -0.001  -0.001   0.000   0.000   0.001   0.001   0.000  -0.000  -0.000  -0.001  -0.001
 -0.000   0.002   0.000  -0.000   0.000  -0.000   0.001  -0.001   0.005  -0.001   0.000   0.008   0.002  -0.002   0.001  -0.000
 -0.000   0.003   0.000   0.000  -0.000  -0.001  -0.001   0.000  -0.001   0.002  -0.000   0.002   0.003   0.001  -0.001   0.000
 -0.000   0.002   0.000  -0.000  -0.000   0.000   0.000  -0.000  -0.007  -0.000  -0.000  -0.002   0.001   0.004   0.000   0.000
  0.000  -0.001   0.000   0.000   0.000   0.000   0.001   0.000  -0.000  -0.000  -0.001   0.001  -0.001   0.000   0.000   0.000
  0.000   0.001   0.000   0.000  -0.000   0.000   0.000  -0.000  -0.000  -0.001  -0.001  -0.000   0.000   0.000   0.000   0.001
  0.000  -0.001   0.000   0.000   0.000   0.000  -0.000   0.000  -0.002   0.001  -0.000  -0.004  -0.001   0.001  -0.000   0.000
  0.000  -0.002   0.000   0.000  -0.000   0.000   0.000  -0.000   0.001  -0.001   0.000  -0.001  -0.002  -0.000   0.000  -0.000


------------------------ aborting loop because EDIFF is reached ----------------------------------------


 


 total charge     
 
# of ion       s       p       d       tot
------------------------------------------
    1        2.033   5.885   0.293   8.211
    2        2.034   5.883   0.295   8.212
    3        0.300   6.375   5.913  12.588
    4        0.251   6.258   5.932  12.442
    5        0.302   6.365   5.892  12.559
    6        0.238   6.248   6.051  12.536
    7        0.312   6.356   5.614  12.283
    8        0.317   6.358   5.632  12.307
    9        1.568   3.529   0.000   5.097
   10        1.566   3.529   0.000   5.095
   11        1.564   3.504   0.000   5.068
   12        1.564   3.505   0.000   5.069
   13        1.562   3.476   0.000   5.038
   14        1.564   3.482   0.000   5.046
   15        1.569   3.514   0.000   5.083
   16        1.566   3.525   0.000   5.092
   17        1.565   3.534   0.000   5.099
   18        1.564   3.529   0.000   5.093
--------------------------------------------------
tot         21.442  84.855  35.621 141.919
 


 magnetization (x)
 
# of ion       s       p       d       tot
------------------------------------------
    1        0.002   0.002   0.006   0.009
    2        0.002   0.002   0.010   0.014
    3       -0.006  -0.008  -0.961  -0.975
    4        0.027   0.022   3.739   3.787
    5        0.004   0.008   0.915   0.927
    6       -0.001   0.003   0.010   0.011
    7        0.019   0.027   4.217   4.262
    8        0.017   0.034   4.191   4.241
    9        0.008   0.154   0.000   0.162
   10        0.007   0.179   0.000   0.186
   11        0.025   0.257   0.000   0.282
   12        0.025   0.262   0.000   0.287
   13        0.002   0.018   0.000   0.020
   14       -0.000   0.028   0.000   0.027
   15       -0.000  -0.018   0.000  -0.019
   16        0.000  -0.021   0.000  -0.021
   17        0.015   0.207   0.000   0.223
   18        0.015   0.203   0.000   0.219
--------------------------------------------------
tot          0.160   1.359  12.125  13.643
 
    CHARGE:  cpu time    0.5050: real time    0.5058
    FORLOC:  cpu time    0.0068: real time    0.0068
    FORNL :  cpu time    6.8681: real time    6.8780
    STRESS:  cpu time   92.4942: real time   92.5263
    FORCOR:  cpu time    0.1964: real time    0.1967
    FORHAR:  cpu time    0.0187: real time    0.0187
    MIXING:  cpu time    0.0055: real time    0.0055
    OFIELD:  cpu time    0.0000: real time    0.0000

  FORCE on cell =-STRESS in cart. coord.  units (eV):
  Direction    XX          YY          ZZ          XY          YZ          ZX
  --------------------------------------------------------------------------------------
  Alpha Z   898.99615   898.99615   898.99615
  Ewald   -4393.20880 -4607.52061 -5644.35574   -28.13864   177.96809     7.95985
  Hartree  2337.11040  2129.75775  1209.46700   -11.51901   106.16396     4.87946
  E(xc)   -1011.85939 -1011.91421 -1012.05854     0.03069    -0.08335    -0.02108
  Local    -813.24712  -390.18239  1584.69000    34.14362  -281.85344   -11.32945
  n-local  -464.01616  -460.73702  -448.23362    -1.47541     2.80833     0.50988
  augment  1037.52271  1034.90290  1020.82225     3.30454    -0.53340    -0.97407
  Kinetic  2408.21678  2406.18943  2390.20562     3.66315    -4.50742    -0.99747
  Fock        0.00000     0.00000     0.00000     0.00000     0.00000     0.00000
  -------------------------------------------------------------------------------------
  Total      -0.48544    -0.50800    -0.46687     0.00894    -0.03722     0.02712
  in kB      -4.16884    -4.36259    -4.00943     0.07676    -0.31965     0.23289
  external pressure =       -4.18 kB  Pullay stress =        0.00 kB


 VOLUME and BASIS-vectors are now :
 -----------------------------------------------------------------------------
  energy-cutoff  :      520.00
  volume of cell :      186.56
      direct lattice vectors                 reciprocal lattice vectors
     3.014624052  0.004295455  0.002746852     0.331572213  0.100367372  0.001204389
    -1.493793174  4.935202704 -0.027415799    -0.000289174  0.202541917  0.000633958
    -0.033639331 -0.039281129 12.534496532    -0.000073294  0.000421010  0.079780952

  length of vectors
     3.014628363  5.156393643 12.534603222     0.346432089  0.202543115  0.079782097


 FORCES acting on ions
    electron-ion (+dipol)            ewald-force                    non-local-force                 convergence-correction
 -----------------------------------------------------------------------------------------------
   -.343E+01 -.312E+01 0.782E+02   0.333E+01 0.460E+01 -.789E+02   0.995E-01 -.148E+01 0.699E+00   -.890E-06 -.599E-04 -.641E-03
   0.204E+00 0.112E+02 -.785E+02   -.208E+00 -.128E+02 0.786E+02   0.876E-03 0.155E+01 -.909E-01   0.549E-05 -.590E-05 0.581E-03
   0.159E+02 -.367E+02 -.693E+02   -.147E+02 0.356E+02 0.723E+02   -.117E+01 0.110E+01 -.301E+01   -.252E-04 0.137E-03 0.443E-03
   0.193E-01 0.127E+01 0.832E+02   0.113E-01 -.127E+01 -.834E+02   -.212E-01 0.207E-01 0.238E+00   0.175E-04 -.278E-04 -.353E-03
   0.131E+02 0.744E+02 0.311E+03   -.120E+02 -.728E+02 -.316E+03   -.111E+01 -.152E+01 0.530E+01   0.154E-03 -.957E-04 0.668E-04
   -.945E+01 -.772E+02 -.459E+03   0.893E+01 0.737E+02 0.466E+03   0.535E+00 0.347E+01 -.687E+01   -.609E-04 0.141E-03 0.681E-03
   -.177E+01 0.892E+01 -.199E+03   0.175E+01 -.878E+01 0.201E+03   -.360E-02 -.152E+00 -.216E+01   -.190E-04 0.188E-03 -.962E-03
   0.344E+00 0.269E+01 0.275E+03   -.302E+00 -.113E+01 -.281E+03   -.468E-01 -.152E+01 0.639E+01   -.854E-05 -.107E-03 0.449E-03
   0.379E+01 0.911E+02 0.831E+02   -.439E+01 -.939E+02 -.862E+02   0.606E+00 0.287E+01 0.318E+01   0.530E-04 -.380E-04 -.234E-03
   -.131E+01 -.856E+02 0.542E+01   0.143E+01 0.876E+02 -.866E+01   -.126E+00 -.205E+01 0.325E+01   -.170E-04 -.409E-05 0.254E-03
   0.352E+00 0.967E+02 -.700E+02   -.348E+00 -.101E+03 0.698E+02   -.121E-01 0.454E+01 0.234E+00   0.185E-05 -.387E-03 -.467E-03
   0.328E-01 -.966E+02 0.133E+03   -.628E-01 0.101E+03 -.135E+03   0.179E-01 -.458E+01 0.117E+01   0.416E-05 0.345E-03 0.896E-04
   -.390E+02 0.634E+02 0.135E+03   0.426E+02 -.651E+02 -.138E+03   -.356E+01 0.167E+01 0.281E+01   -.136E-03 -.574E-04 0.123E-03
   0.126E+02 -.283E+02 -.238E+03   -.137E+02 0.274E+02 0.247E+03   0.105E+01 0.837E+00 -.829E+01   0.222E-04 -.907E-04 0.249E-03
   0.971E+01 -.965E+02 0.304E+03   -.112E+02 0.990E+02 -.316E+03   0.147E+01 -.256E+01 0.125E+02   0.918E-04 0.168E-03 -.148E-03
   0.438E+00 0.647E+02 -.339E+03   -.302E+00 -.643E+02 0.351E+03   -.141E+00 -.398E+00 -.119E+02   -.283E-04 0.596E-04 0.278E-03
   0.178E+01 -.102E+03 -.186E+03   -.188E+01 0.105E+03 0.194E+03   0.951E-01 -.283E+01 -.762E+01   0.139E-05 0.239E-03 -.637E-03
   -.935E+00 0.109E+03 0.227E+03   0.999E+00 -.113E+03 -.235E+03   -.741E-01 0.335E+01 0.797E+01   0.341E-05 -.178E-03 0.455E-03
 -----------------------------------------------------------------------------------------------
   0.236E+01 -.237E+01 -.372E+01   0.174E-13 0.995E-13 0.341E-12   -.239E+01 0.232E+01 0.381E+01   0.589E-04 0.225E-03 0.226E-03
 
 
 POSITION                                       TOTAL-FORCE (eV/Angst)
 -----------------------------------------------------------------------------------
      1.50101      0.22263      3.16603         0.002670      0.005733      0.001418
     -0.01930      4.71990      9.32805        -0.001733     -0.002134     -0.000497
     -1.49272      4.88875      6.20866         0.018840     -0.003636     -0.004391
     -0.00251      0.02358      0.02902         0.008293      0.006319     -0.001392
      0.02328      2.65198      4.93504         0.006899     -0.003500     -0.004295
      1.48597      2.22367      7.57624         0.011738     -0.009644      0.006269
      0.00111      2.64254      1.39332        -0.016142      0.003394     -0.015494
      1.47886      2.29690     11.11695        -0.001984      0.007196      0.008355
     -0.01699      1.93015      3.22351         0.001632     -0.001166      0.017745
      1.49105      3.03084      9.38908        -0.000944      0.002753     -0.000109
      1.50812      1.45442      0.73293        -0.006758      0.020290     -0.011339
     -0.02567      3.42263     11.93971        -0.010669     -0.007399     -0.002036
      1.39892      1.31606      5.58307        -0.003439     -0.008795      0.007458
      0.03999      3.59660      6.69776         0.003125     -0.000364     -0.007588
      1.56854      3.90941      4.58874         0.007274     -0.009916      0.020593
     -0.03590      0.86175      7.84097        -0.003518     -0.007948     -0.014080
      1.51145      3.98495      1.75322        -0.007320      0.002563     -0.006717
     -0.02828      0.94053     10.81616        -0.007962      0.006254      0.006100
 -----------------------------------------------------------------------------------
    total drift:                               -0.024386     -0.047855      0.090477


--------------------------------------------------------------------------------------------------------



  FREE ENERGIE OF THE ION-ELECTRON SYSTEM (eV)
  ---------------------------------------------------
  free  energy   TOTEN  =      -216.64345341 eV

  energy  without entropy=     -216.64338458  energy(sigma->0) =     -216.64341900
 
 d Force =-0.9655388E-05[-0.886E-05,-0.104E-04]  d Energy =-0.1760799E-03 0.166E-03
 d Force = 0.7427795E-01[ 0.743E-01, 0.742E-01]  d Ewald  = 0.9909088E+01-0.983E+01


--------------------------------------------------------------------------------------------------------


    POTLOK:  cpu time    1.4852: real time    1.4856


--------------------------------------------------------------------------------------------------------




--------------------------------------------------------------------------------------------------------


  
 reached required accuracy - stopping structural energy minimisation
     LOOP+:  cpu time  912.4438: real time  913.0033
    4ORBIT:  cpu time    0.0000: real time    0.0000
 


 total charge     
 
# of ion       s       p       d       tot
------------------------------------------
    1        2.033   5.885   0.293   8.211
    2        2.034   5.883   0.295   8.212
    3        0.300   6.375   5.913  12.588
    4        0.251   6.258   5.932  12.442
    5        0.302   6.365   5.892  12.559
    6        0.238   6.248   6.051  12.536
    7        0.312   6.356   5.614  12.283
    8        0.317   6.358   5.632  12.307
    9        1.568   3.529   0.000   5.097
   10        1.566   3.529   0.000   5.095
   11        1.564   3.504   0.000   5.068
   12        1.564   3.505   0.000   5.069
   13        1.562   3.476   0.000   5.038
   14        1.564   3.482   0.000   5.046
   15        1.569   3.514   0.000   5.083
   16        1.566   3.525   0.000   5.092
   17        1.565   3.534   0.000   5.099
   18        1.564   3.529   0.000   5.093
--------------------------------------------------
tot         21.442  84.855  35.621 141.919
 


 magnetization (x)
 
# of ion       s       p       d       tot
------------------------------------------
    1        0.002   0.002   0.006   0.009
    2        0.002   0.002   0.010   0.014
    3       -0.006  -0.008  -0.961  -0.975
    4        0.027   0.022   3.739   3.787
    5        0.004   0.008   0.915   0.927
    6       -0.001   0.003   0.010   0.011
    7        0.019   0.027   4.217   4.262
    8        0.017   0.034   4.191   4.241
    9        0.008   0.154   0.000   0.162
   10        0.007   0.179   0.000   0.186
   11        0.025   0.257   0.000   0.282
   12        0.025   0.262   0.000   0.287
   13        0.002   0.018   0.000   0.020
   14       -0.000   0.028   0.000   0.027
   15       -0.000  -0.018   0.000  -0.019
   16        0.000  -0.021   0.000  -0.021
   17        0.015   0.207   0.000   0.223
   18        0.015   0.203   0.000   0.219
--------------------------------------------------
tot          0.160   1.359  12.125  13.643
 

 total amount of memory used by VASP MPI-rank0   133499. kBytes
=======================================================================

   base      :      30000. kBytes
   nonlr-proj:       5348. kBytes
   fftplans  :       3798. kBytes
   grid      :      12994. kBytes
   one-center:        155. kBytes
   wavefun   :      81204. kBytes
 
  
  
 General timing and accounting informations for this job:
 ========================================================
  
                  Total CPU time used (sec):     6205.238
                            User time (sec):     6202.667
                          System time (sec):        2.571
                         Elapsed time (sec):     6207.620
  
                   Maximum memory used (kb):      400252.
                   Average memory used (kb):           0.
  
                          Minor page faults:        42614
                          Major page faults:            0
                 Voluntary context switches:           63
