       N       E                     dE             d eps       ncg     rms          rms(c)
DAV:   1     0.207548846686E+04    0.20755E+04   -0.12464E+05 24075   0.147E+03
DAV:   2    -0.206720987641E+03   -0.22822E+04   -0.21219E+04 25218   0.399E+02
DAV:   3    -0.414070370204E+03   -0.20735E+03   -0.20400E+03 25956   0.133E+02
DAV:   4    -0.419068828435E+03   -0.49985E+01   -0.49329E+01 27945   0.207E+01
DAV:   5    -0.419241672755E+03   -0.17284E+00   -0.17207E+00 30348   0.340E+00    0.729E+00
DAV:   6    -0.345395996534E+03    0.73846E+02   -0.15272E+01 26748   0.126E+01    0.809E+00
DAV:   7    -0.342098467228E+03    0.32975E+01   -0.20249E+00 25722   0.600E+00    0.334E+00
DAV:   8    -0.342099386424E+03   -0.91920E-03   -0.10193E-01 27783   0.126E+00    0.221E+00
DAV:   9    -0.342063575404E+03    0.35811E-01   -0.74633E-02 26658   0.780E-01    0.151E+00
DAV:  10    -0.342050827052E+03    0.12748E-01   -0.35629E-02 26784   0.627E-01    0.346E-01
DAV:  11    -0.342050932755E+03   -0.10570E-03   -0.19049E-03 27837   0.152E-01    0.185E-01
DAV:  12    -0.342050357248E+03    0.57551E-03   -0.15830E-03 26586   0.115E-01    0.109E-01
DAV:  13    -0.342050345799E+03    0.11448E-04   -0.14847E-04 26190   0.430E-02    0.508E-02
DAV:  14    -0.342050480205E+03   -0.13441E-03   -0.16107E-05 16947   0.166E-02    0.329E-02
DAV:  15    -0.342050397401E+03    0.82804E-04   -0.45592E-05 23904   0.201E-02    0.158E-02
DAV:  16    -0.342050347562E+03    0.49839E-04   -0.30653E-06 16155   0.724E-03    0.686E-03
DAV:  17    -0.342050386816E+03   -0.39255E-04   -0.11849E-06 15543   0.404E-03    0.490E-03
DAV:  18    -0.342050380842E+03    0.59737E-05   -0.19865E-07 14805   0.199E-03
   1 F= -.34205038E+03 E0= -.34205038E+03  d E =-.342050E+03  mag=    12.0000
