       N       E                     dE             d eps       ncg     rms          ort
DAV:   1     0.247046026545E+04    0.24705E+04   -0.14117E+05 10584   0.156E+03
DAV:   2    -0.175541001815E+03   -0.26460E+04   -0.24766E+04 10584   0.414E+02
DAV:   3    -0.446724098587E+03   -0.27118E+03   -0.26714E+03 10584   0.150E+02
DAV:   4    -0.454807002832E+03   -0.80829E+01   -0.79660E+01 10584   0.249E+01
DAV:   5    -0.455134953560E+03   -0.32795E+00   -0.32701E+00 10584   0.407E+00
SDA:   6    -0.281466491889E+03    0.17367E+03   -0.32701E+00 10584   0.391E+03 0.000E+00
CGA:   7    -0.328535044803E+03   -0.47069E+02   -0.42724E+02 10584   0.326E+03-0.714E+02
CGA:   8    -0.327482218722E+03    0.10528E+01   -0.17716E+02 10584   0.307E+03-0.135E+03
CGA:   9    -0.333782181370E+03   -0.63000E+01   -0.93169E+01 10584   0.764E+02-0.841E+02
CGA:  10    -0.339086394455E+03   -0.53042E+01   -0.40149E+01 10584   0.122E+03-0.322E+02
CGA:  11    -0.343461612924E+03   -0.43752E+01   -0.37577E+01 10584   0.122E+03 0.239E+02
CGA:  12    -0.342459566066E+03    0.10020E+01   -0.66233E+01 10584   0.434E+02-0.617E+02
CGA:  13    -0.345404971075E+03   -0.29454E+01   -0.14737E+01 10584   0.316E+02 0.552E+02
CGA:  14    -0.345978621119E+03   -0.57365E+00   -0.11925E+01 10584   0.681E+02-0.263E+02
CGA:  15    -0.346437444186E+03   -0.45882E+00   -0.37744E+01 10584   0.247E+02-0.518E+01
CGA:  16    -0.347289750753E+03   -0.85231E+00   -0.44274E+00 10584   0.238E+02 0.269E+02
CGA:  17    -0.348392959997E+03   -0.11032E+01   -0.51644E+00 10584   0.695E+01-0.722E+01
CGA:  18    -0.349830414814E+03   -0.14375E+01   -0.11447E+01 10584   0.120E+02 0.125E+01
CGA:  19    -0.350103451104E+03   -0.27304E+00   -0.74960E+00 10584   0.311E+01-0.215E+01
CGA:  20    -0.350282742675E+03   -0.17929E+00   -0.12640E+00 10584   0.226E+01 0.936E+00
CGA:  21    -0.350395807676E+03   -0.11307E+00   -0.67128E-01 10584   0.135E+01 0.188E+01
CGA:  22    -0.350579763927E+03   -0.18396E+00   -0.17901E+00 10584   0.556E+00 0.359E+00
CGA:  23    -0.350704335187E+03   -0.12457E+00   -0.12467E+00 10584   0.357E+00 0.472E-02
CGA:  24    -0.350757109102E+03   -0.52774E-01   -0.51067E-01 10584   0.121E+00 0.777E-01
CGA:  25    -0.350797544893E+03   -0.40436E-01   -0.36671E-01 10584   0.521E-01 0.309E-01
CGA:  26    -0.350818629701E+03   -0.21085E-01   -0.27906E-01 10584   0.485E-01-0.231E-01
CGA:  27    -0.350823324351E+03   -0.46946E-02   -0.62161E-02 10584   0.222E-01-0.190E-01
CGA:  28    -0.350826273597E+03   -0.29492E-02   -0.36833E-02 10584   0.161E-01-0.607E-02
CGA:  29    -0.350828188276E+03   -0.19147E-02   -0.19057E-02 10584   0.877E-02 0.323E-02
CGA:  30    -0.350829368321E+03   -0.11800E-02   -0.13218E-02 10584   0.455E-02 0.413E-02
CGA:  31    -0.350830273390E+03   -0.90507E-03   -0.95506E-03 10584   0.348E-02 0.319E-02
CGA:  32    -0.350827607875E+03    0.26655E-02   -0.16443E-02 10584   0.365E-01-0.723E-02
CGA:  33    -0.350832268508E+03   -0.46606E-02   -0.51510E-02 10584   0.132E-02 0.431E-02
CGA:  34    -0.350832340565E+03   -0.72057E-04   -0.17278E-03 10584   0.362E-03 0.620E-03
CGA:  35    -0.350832345630E+03   -0.50650E-05   -0.54121E-04 10584   0.165E-03 0.289E-03
CGA:  36    -0.350832386514E+03   -0.40884E-04   -0.41549E-04 10584   0.521E-04 0.619E-04
CGA:  37    -0.350832393889E+03   -0.73746E-05   -0.11621E-04 10584   0.235E-04 0.423E-04
   1 F= -.35083239E+03 E0= -.35083239E+03  d E =-.350832E+03  mag=    18.0000
       N       E                     dE             d eps       ncg     rms          ort
SDA:   1    -0.350849182730E+03   -0.16796E-01    0.00000E+00 10584   0.255E-02 0.000E+00
CGA:   2    -0.350849759970E+03   -0.57724E-03   -0.58166E-03 10584   0.600E-03 0.200E-03
CGA:   3    -0.350849961505E+03   -0.20153E-03   -0.21488E-03 10584   0.368E-03-0.160E-03
CGA:   4    -0.350850004221E+03   -0.42716E-04   -0.39703E-04 10584   0.987E-04-0.286E-04
CGA:   5    -0.350850011549E+03   -0.73285E-05   -0.11007E-04 10584   0.379E-04 0.291E-04
   2 F= -.35085001E+03 E0= -.35085001E+03  d E =-.176177E-01  mag=    18.0000
       N       E                     dE             d eps       ncg     rms          ort
SDA:   1    -0.350312212029E+03    0.53779E+00    0.00000E+00 10584   0.324E+01 0.000E+00
CGA:   2    -0.351119697958E+03   -0.80749E+00   -0.80737E+00 10584   0.829E+00 0.592E-02
CGA:   3    -0.351330119068E+03   -0.21042E+00   -0.21051E+00 10584   0.262E+00-0.451E-02
CGA:   4    -0.351374114418E+03   -0.43995E-01   -0.43960E-01 10584   0.710E-01-0.667E-03
CGA:   5    -0.351387283458E+03   -0.13169E-01   -0.13185E-01 10584   0.194E-01 0.350E-03
CGA:   6    -0.351391682956E+03   -0.43995E-02   -0.44013E-02 10584   0.857E-02 0.466E-03
CGA:   7    -0.351393950553E+03   -0.22676E-02   -0.22617E-02 10584   0.385E-02 0.205E-03
CGA:   8    -0.351395144823E+03   -0.11943E-02   -0.11943E-02 10584   0.178E-02-0.182E-05
CGA:   9    -0.351395601743E+03   -0.45692E-03   -0.45410E-03 10584   0.565E-03 0.138E-03
CGA:  10    -0.351395775851E+03   -0.17411E-03   -0.17241E-03 10584   0.198E-03 0.350E-04
CGA:  11    -0.351395831562E+03   -0.55711E-04   -0.55052E-04 10584   0.700E-04 0.275E-04
CGA:  12    -0.351395861469E+03   -0.29907E-04   -0.34641E-04 10584   0.674E-04-0.242E-04
CGA:  13    -0.351395864410E+03   -0.29418E-05   -0.52858E-05 10584   0.376E-04 0.182E-04
   3 F= -.35139586E+03 E0= -.35139586E+03  d E =-.545853E+00  mag=    18.0000
       N       E                     dE             d eps       ncg     rms          ort
SDA:   1    -0.347431426261E+03    0.39644E+01    0.00000E+00 10584   0.142E+02 0.000E+00
CGA:   2    -0.350928444492E+03   -0.34970E+01   -0.34968E+01 10584   0.360E+01 0.219E-02
CGA:   3    -0.351810645152E+03   -0.88220E+00   -0.88237E+00 10584   0.122E+01-0.202E-01
CGA:   4    -0.352014114746E+03   -0.20347E+00   -0.20328E+00 10584   0.314E+00-0.367E-02
CGA:   5    -0.352073037168E+03   -0.58922E-01   -0.58996E-01 10584   0.892E-01 0.155E-02
CGA:   6    -0.352093300480E+03   -0.20263E-01   -0.20272E-01 10584   0.402E-01 0.173E-02
CGA:   7    -0.352104179386E+03   -0.10879E-01   -0.10865E-01 10584   0.184E-01 0.401E-03
CGA:   8    -0.352109795841E+03   -0.56165E-02   -0.56361E-02 10584   0.847E-02-0.281E-03
CGA:   9    -0.352112056021E+03   -0.22602E-02   -0.22590E-02 10584   0.278E-02 0.376E-04
CGA:  10    -0.352112858023E+03   -0.80200E-03   -0.79830E-03 10584   0.904E-03 0.782E-04
CGA:  11    -0.352113157893E+03   -0.29987E-03   -0.30523E-03 10584   0.401E-03-0.612E-04
CGA:  12    -0.352113266076E+03   -0.10818E-03   -0.10655E-03 10584   0.156E-03 0.404E-04
CGA:  13    -0.352113325829E+03   -0.59753E-04   -0.79844E-04 10584   0.212E-03-0.916E-04
CGA:  14    -0.352113348709E+03   -0.22881E-04   -0.27670E-04 10584   0.352E-04 0.384E-04
CGA:  15    -0.352113361606E+03   -0.12897E-04   -0.15374E-04 10584   0.262E-04-0.210E-04
CGA:  16    -0.352113363453E+03   -0.18468E-05   -0.34184E-05 10584   0.641E-05 0.124E-04
   4 F= -.35211336E+03 E0= -.35211336E+03  d E =-.717499E+00  mag=    18.0000
       N       E                     dE             d eps       ncg     rms          ort
SDA:   1    -0.349080073358E+03    0.30333E+01    0.00000E+00 10584   0.103E+02 0.000E+00
CGA:   2    -0.351567789646E+03   -0.24877E+01   -0.24878E+01 10584   0.271E+01 0.176E-01
CGA:   3    -0.352205856839E+03   -0.63807E+00   -0.63794E+00 10584   0.101E+01-0.136E-01
CGA:   4    -0.352371563571E+03   -0.16571E+00   -0.16541E+00 10584   0.232E+00-0.519E-02
CGA:   5    -0.352414629309E+03   -0.43066E-01   -0.43135E-01 10584   0.649E-01 0.133E-02
CGA:   6    -0.352428650225E+03   -0.14021E-01   -0.14062E-01 10584   0.270E-01 0.197E-02
CGA:   7    -0.352436044596E+03   -0.73944E-02   -0.73804E-02 10584   0.129E-01 0.455E-03
CGA:   8    -0.352439949156E+03   -0.39046E-02   -0.39152E-02 10584   0.651E-02-0.171E-03
CGA:   9    -0.352441727439E+03   -0.17783E-02   -0.17878E-02 10584   0.255E-02-0.248E-03
CGA:  10    -0.352442292217E+03   -0.56478E-03   -0.56714E-03 10584   0.843E-03 0.222E-03
CGA:  11    -0.352442553420E+03   -0.26120E-03   -0.26525E-03 10584   0.393E-03-0.834E-04
CGA:  12    -0.352442631436E+03   -0.78016E-04   -0.79343E-04 10584   0.143E-03 0.681E-04
CGA:  13    -0.352442689737E+03   -0.58301E-04   -0.63889E-04 10584   0.989E-04-0.405E-04
CGA:  14    -0.352442649479E+03    0.40258E-04   -0.63845E-04 10584   0.333E-03-0.160E-03
CGA:  15    -0.352442707579E+03   -0.58100E-04   -0.65090E-04 10584   0.564E-04 0.810E-04
CGA:  16    -0.352442725439E+03   -0.17860E-04   -0.18128E-04 10584   0.221E-04 0.139E-04
CGA:  17    -0.352442727469E+03   -0.20296E-05   -0.39744E-05 10584   0.935E-05 0.147E-04
   5 F= -.35244273E+03 E0= -.35244273E+03  d E =-.329364E+00  mag=    18.0000
       N       E                     dE             d eps       ncg     rms          ort
SDA:   1    -0.348227434659E+03    0.42153E+01    0.00000E+00 10584   0.139E+02 0.000E+00
CGA:   2    -0.351474815719E+03   -0.32474E+01   -0.32520E+01 10584   0.387E+01 0.325E-01
CGA:   3    -0.352328015620E+03   -0.85320E+00   -0.85169E+00 10584   0.156E+01-0.855E-02
CGA:   4    -0.352590097589E+03   -0.26208E+00   -0.26190E+00 10584   0.335E+00-0.663E-02
CGA:   5    -0.352651947132E+03   -0.61850E-01   -0.61858E-01 10584   0.943E-01 0.519E-04
CGA:   6    -0.352671762233E+03   -0.19815E-01   -0.19877E-01 10584   0.371E-01 0.107E-02
CGA:   7    -0.352681667358E+03   -0.99051E-02   -0.99055E-02 10584   0.180E-01 0.137E-03
CGA:   8    -0.352686707093E+03   -0.50397E-02   -0.50382E-02 10584   0.876E-02 0.131E-03
CGA:   9    -0.352689140310E+03   -0.24332E-02   -0.24356E-02 10584   0.372E-02-0.270E-03
CGA:  10    -0.352689922589E+03   -0.78228E-03   -0.79580E-03 10584   0.125E-02 0.298E-03
CGA:  11    -0.352690304814E+03   -0.38222E-03   -0.38439E-03 10584   0.524E-03-0.105E-03
CGA:  12    -0.352690426839E+03   -0.12202E-03   -0.12259E-03 10584   0.196E-03 0.524E-04
CGA:  13    -0.352690504170E+03   -0.77331E-04   -0.85531E-04 10584   0.156E-03-0.625E-04
CGA:  14    -0.352690518970E+03   -0.14800E-04   -0.17561E-04 10584   0.740E-04 0.261E-04
CGA:  15    -0.352690534175E+03   -0.15205E-04   -0.16082E-04 10584   0.290E-04 0.108E-04
CGA:  16    -0.352690531977E+03    0.21984E-05   -0.19010E-04 10584   0.172E-03-0.686E-04
CGA:  17    -0.352690537563E+03   -0.55863E-05   -0.15906E-04 10584   0.307E-04 0.564E-04
   6 F= -.35269054E+03 E0= -.35269054E+03  d E =-.247810E+00  mag=    18.0000
       N       E                     dE             d eps       ncg     rms          ort
SDA:   1    -0.342771761726E+03    0.99188E+01    0.00000E+00 10584   0.288E+02 0.000E+00
CGA:   2    -0.349891217942E+03   -0.71195E+01   -0.71279E+01 10584   0.988E+01 0.288E+00
CGA:   3    -0.351873702285E+03   -0.19825E+01   -0.18716E+01 10584   0.384E+01 0.834E-01
CGA:   4    -0.352529653774E+03   -0.65595E+00   -0.66372E+00 10584   0.768E+00-0.425E-02
CGA:   5    -0.352671291293E+03   -0.14164E+00   -0.14052E+00 10584   0.221E+00 0.166E-02
CGA:   6    -0.352716502669E+03   -0.45211E-01   -0.45276E-01 10584   0.861E-01-0.999E-04
CGA:   7    -0.352736428699E+03   -0.19926E-01   -0.19930E-01 10584   0.445E-01 0.963E-03
CGA:   8    -0.352746833487E+03   -0.10405E-01   -0.10396E-01 10584   0.256E-01-0.114E-02
CGA:   9    -0.352752069608E+03   -0.52361E-02   -0.52502E-02 10584   0.104E-01 0.615E-03
CGA:  10    -0.352754785661E+03   -0.27161E-02   -0.27203E-02 10584   0.406E-02-0.388E-03
CGA:  11    -0.352755535063E+03   -0.74940E-03   -0.76764E-03 10584   0.161E-02 0.400E-03
CGA:  12    -0.352755989252E+03   -0.45419E-03   -0.45937E-03 10584   0.937E-03-0.273E-03
CGA:  13    -0.352756109637E+03   -0.12039E-03   -0.13019E-03 10584   0.365E-03 0.134E-03
CGA:  14    -0.352756229965E+03   -0.12033E-03   -0.11973E-03 10584   0.172E-03 0.120E-04
CGA:  15    -0.352756277205E+03   -0.47240E-04   -0.79533E-04 10584   0.585E-03-0.156E-03
CGA:  16    -0.352756301000E+03   -0.23795E-04   -0.44343E-04 10584   0.620E-04 0.124E-03
CGA:  17    -0.352756303444E+03   -0.24441E-05   -0.71285E-05 10584   0.356E-04 0.318E-04
CGA:  18    -0.352756322231E+03   -0.18787E-04    0.34425E-04 10584   0.349E-04-0.364E-05
CGA:  19    -0.352756321897E+03    0.33363E-06   -0.23998E-05 10584   0.135E-04 0.173E-04
   7 F= -.35275632E+03 E0= -.35275632E+03  d E =-.657843E-01  mag=    18.0000
       N       E                     dE             d eps       ncg     rms          ort
SDA:   1    -0.351535889053E+03    0.12204E+01    0.00000E+00 10584   0.342E+01 0.000E+00
CGA:   2    -0.352512747298E+03   -0.97686E+00   -0.97651E+00 10584   0.135E+01 0.333E-02
CGA:   3    -0.352777561856E+03   -0.26481E+00   -0.26480E+00 10584   0.445E+00-0.137E-03
CGA:   4    -0.352851740808E+03   -0.74179E-01   -0.74158E-01 10584   0.101E+00-0.192E-02
CGA:   5    -0.352871066481E+03   -0.19326E-01   -0.19336E-01 10584   0.310E-01 0.421E-03
CGA:   6    -0.352877541685E+03   -0.64752E-02   -0.64756E-02 10584   0.112E-01 0.387E-04
CGA:   7    -0.352880387890E+03   -0.28462E-02   -0.28376E-02 10584   0.433E-02 0.226E-03
CGA:   8    -0.352881590921E+03   -0.12030E-02   -0.12089E-02 10584   0.187E-02-0.105E-03
CGA:   9    -0.352882083113E+03   -0.49219E-03   -0.48808E-03 10584   0.570E-03 0.864E-04
CGA:  10    -0.352882257444E+03   -0.17433E-03   -0.17560E-03 10584   0.219E-03-0.178E-04
CGA:  11    -0.352882299280E+03   -0.41836E-04   -0.42868E-04 10584   0.718E-04 0.423E-04
CGA:  12    -0.352882225761E+03    0.73519E-04   -0.75999E-04 10584   0.876E-03-0.226E-03
CGA:  13    -0.352882307952E+03   -0.82191E-04   -0.10246E-03 10584   0.144E-03 0.149E-03
CGA:  14    -0.352882343193E+03   -0.35241E-04   -0.34989E-04 10584   0.236E-04-0.590E-05
CGA:  15    -0.352882238730E+03    0.10446E-03   -0.56355E-04 10584   0.748E-03-0.106E-03
CGA:  16    -0.352882304483E+03   -0.65753E-04   -0.91713E-04 10584   0.132E-03 0.888E-04
CGA:  17    -0.352882343735E+03   -0.39252E-04   -0.36512E-04 10584   0.319E-04-0.144E-04
CGA:  18    -0.352882353032E+03   -0.92965E-05   -0.88438E-05 10584   0.972E-05-0.385E-05
   8 F= -.35288235E+03 E0= -.35288235E+03  d E =-.126031E+00  mag=    18.0000
       N       E                     dE             d eps       ncg     rms          ort
SDA:   1    -0.352703827471E+03    0.17852E+00    0.00000E+00 10584   0.567E+00 0.000E+00
CGA:   2    -0.352842848749E+03   -0.13902E+00   -0.13874E+00 10584   0.192E+00-0.209E-02
CGA:   3    -0.352880389939E+03   -0.37541E-01   -0.37616E-01 10584   0.697E-01 0.147E-03
CGA:   4    -0.352891972234E+03   -0.11582E-01   -0.11781E-01 10584   0.141E-01 0.904E-03
CGA:   5    -0.352894578093E+03   -0.26059E-02   -0.25966E-02 10584   0.397E-02-0.599E-04
CGA:   6    -0.352895435897E+03   -0.85780E-03   -0.84052E-03 10584   0.141E-02-0.110E-03
CGA:   7    -0.352895819654E+03   -0.38376E-03   -0.37388E-03 10584   0.694E-03-0.110E-03
CGA:   8    -0.352895985570E+03   -0.16592E-03   -0.16773E-03 10584   0.282E-03 0.184E-04
CGA:   9    -0.352896068639E+03   -0.83068E-04   -0.83683E-04 10584   0.103E-03 0.921E-05
CGA:  10    -0.352896098795E+03   -0.30156E-04   -0.30388E-04 10584   0.359E-04 0.348E-05
CGA:  11    -0.352896113200E+03   -0.14404E-04   -0.16715E-04 10584   0.475E-04-0.224E-04
CGA:  12    -0.352896114130E+03   -0.93067E-06   -0.47915E-05 10584   0.982E-05 0.154E-04
   9 F= -.35289611E+03 E0= -.35289611E+03  d E =-.137611E-01  mag=    18.0000
       N       E                     dE             d eps       ncg     rms          ort
SDA:   1    -0.351204704942E+03    0.16914E+01    0.00000E+00 10584   0.436E+01 0.000E+00
CGA:   2    -0.352460200388E+03   -0.12555E+01   -0.12556E+01 10584   0.214E+01-0.281E-02
CGA:   3    -0.352812150748E+03   -0.35195E+00   -0.35042E+00 10584   0.503E+00 0.110E-01
CGA:   4    -0.352899124925E+03   -0.86974E-01   -0.87231E-01 10584   0.112E+00 0.743E-03
CGA:   5    -0.352918761364E+03   -0.19636E-01   -0.19734E-01 10584   0.295E-01 0.717E-03
CGA:   6    -0.352924798706E+03   -0.60373E-02   -0.60170E-02 10584   0.863E-02-0.203E-03
CGA:   7    -0.352926820059E+03   -0.20214E-02   -0.20138E-02 10584   0.316E-02-0.117E-03
CGA:   8    -0.352927608116E+03   -0.78806E-03   -0.79314E-03 10584   0.123E-02 0.115E-03
CGA:   9    -0.352927967787E+03   -0.35967E-03   -0.36041E-03 10584   0.515E-03 0.538E-04
CGA:  10    -0.352928061754E+03   -0.93968E-04   -0.10534E-03 10584   0.184E-03 0.115E-03
CGA:  11    -0.352928126569E+03   -0.64815E-04   -0.64740E-04 10584   0.104E-03-0.339E-04
CGA:  12    -0.352928132423E+03   -0.58541E-05   -0.11105E-04 10584   0.427E-04 0.331E-04
  10 F= -.35292813E+03 E0= -.35292813E+03  d E =-.320183E-01  mag=    18.0000
       N       E                     dE             d eps       ncg     rms          ort
SDA:   1    -0.346885529114E+03    0.60426E+01    0.00000E+00 10584   0.149E+02 0.000E+00
CGA:   2    -0.351328325285E+03   -0.44428E+01   -0.44408E+01 10584   0.730E+01 0.443E-01
CGA:   3    -0.352535033998E+03   -0.12067E+01   -0.11828E+01 10584   0.169E+01 0.772E-01
CGA:   4    -0.352830276407E+03   -0.29524E+00   -0.29580E+00 10584   0.369E+00-0.161E-02
CGA:   5    -0.352897214640E+03   -0.66938E-01   -0.66985E-01 10584   0.104E+00 0.899E-03
CGA:   6    -0.352918454559E+03   -0.21240E-01   -0.21233E-01 10584   0.319E-01-0.158E-03
CGA:   7    -0.352926063051E+03   -0.76085E-02   -0.76076E-02 10584   0.124E-01-0.599E-04
CGA:   8    -0.352929395851E+03   -0.33328E-02   -0.33314E-02 10584   0.540E-02 0.111E-03
CGA:   9    -0.352930977186E+03   -0.15813E-02   -0.15845E-02 10584   0.250E-02-0.990E-04
CGA:  10    -0.352931436819E+03   -0.45963E-03   -0.47764E-03 10584   0.959E-03 0.285E-03
CGA:  11    -0.352931702677E+03   -0.26586E-03   -0.26497E-03 10584   0.396E-03-0.110E-03
CGA:  12    -0.352931768489E+03   -0.65811E-04   -0.69380E-04 10584   0.127E-03 0.621E-04
CGA:  13    -0.352931817386E+03   -0.48897E-04   -0.52581E-04 10584   0.922E-04-0.355E-04
CGA:  14    -0.352931833700E+03   -0.16314E-04   -0.16426E-04 10584   0.501E-04 0.101E-04
CGA:  15    -0.352931844740E+03   -0.11039E-04   -0.11606E-04 10584   0.207E-04 0.115E-04
CGA:  16    -0.352931851463E+03   -0.67230E-05   -0.67095E-05 10584   0.959E-05 0.168E-05
  11 F= -.35293185E+03 E0= -.35293185E+03  d E =-.371904E-02  mag=    18.0000
       N       E                     dE             d eps       ncg     rms          ort
SDA:   1    -0.352094226953E+03    0.83762E+00    0.00000E+00 10584   0.209E+01 0.000E+00
CGA:   2    -0.352764724689E+03   -0.67050E+00   -0.67045E+00 10584   0.876E+00-0.695E-04
CGA:   3    -0.352912730086E+03   -0.14801E+00   -0.14753E+00 10584   0.230E+00 0.278E-02
CGA:   4    -0.352950757132E+03   -0.38027E-01   -0.38074E-01 10584   0.492E-01-0.688E-03
CGA:   5    -0.352959674228E+03   -0.89171E-02   -0.89613E-02 10584   0.142E-01 0.805E-03
CGA:   6    -0.352962703111E+03   -0.30289E-02   -0.30226E-02 10584   0.455E-02-0.209E-03
CGA:   7    -0.352963737245E+03   -0.10341E-02   -0.10357E-02 10584   0.168E-02 0.181E-03
CGA:   8    -0.352964225090E+03   -0.48784E-03   -0.49211E-03 10584   0.933E-03-0.101E-03
CGA:   9    -0.352964372776E+03   -0.14769E-03   -0.15938E-03 10584   0.331E-03 0.198E-03
CGA:  10    -0.352964466410E+03   -0.93633E-04   -0.93745E-04 10584   0.120E-03 0.238E-04
CGA:  11    -0.352964495777E+03   -0.29367E-04   -0.29598E-04 10584   0.366E-04 0.263E-04
CGA:  12    -0.352964501050E+03   -0.52729E-05   -0.69153E-05 10584   0.147E-04 0.199E-04
CGA:  13    -0.352964503311E+03   -0.22615E-05   -0.11713E-04 10584   0.764E-04-0.168E-04
  12 F= -.35296450E+03 E0= -.35296450E+03  d E =-.326518E-01  mag=    18.0000
       N       E                     dE             d eps       ncg     rms          ort
SDA:   1    -0.352840789235E+03    0.12371E+00    0.00000E+00 10584   0.343E+00 0.000E+00
CGA:   2    -0.352935764182E+03   -0.94975E-01   -0.94967E-01 10584   0.159E+00 0.218E-03
CGA:   3    -0.352963776060E+03   -0.28012E-01   -0.28044E-01 10584   0.441E-01 0.368E-03
CGA:   4    -0.352971329048E+03   -0.75530E-02   -0.75574E-02 10584   0.979E-02 0.408E-04
CGA:   5    -0.352973087921E+03   -0.17589E-02   -0.17630E-02 10584   0.277E-02 0.594E-04
CGA:   6    -0.352973633574E+03   -0.54565E-03   -0.55024E-03 10584   0.821E-03 0.101E-03
CGA:   7    -0.352973838710E+03   -0.20514E-03   -0.20511E-03 10584   0.323E-03 0.420E-04
CGA:   8    -0.352973933664E+03   -0.94954E-04   -0.95189E-04 10584   0.148E-03-0.597E-05
CGA:   9    -0.352973963928E+03   -0.30263E-04   -0.31247E-04 10584   0.477E-04 0.354E-04
CGA:  10    -0.352973983114E+03   -0.19186E-04   -0.23500E-04 10584   0.569E-04-0.276E-04
CGA:  11    -0.352973985898E+03   -0.27847E-05   -0.57710E-05 10584   0.118E-04 0.203E-04
  13 F= -.35297399E+03 E0= -.35297399E+03  d E =-.948259E-02  mag=    18.0000
       N       E                     dE             d eps       ncg     rms          ort
SDA:   1    -0.352487314845E+03    0.48667E+00    0.00000E+00 10584   0.117E+01 0.000E+00
CGA:   2    -0.352880214190E+03   -0.39290E+00   -0.39305E+00 10584   0.465E+00-0.181E-02
CGA:   3    -0.352956294453E+03   -0.76080E-01   -0.76086E-01 10584   0.116E+00 0.239E-02
CGA:   4    -0.352975713582E+03   -0.19419E-01   -0.19410E-01 10584   0.249E-01-0.470E-03
CGA:   5    -0.352980083444E+03   -0.43699E-02   -0.43953E-02 10584   0.707E-02 0.469E-03
CGA:   6    -0.352981568184E+03   -0.14847E-02   -0.14814E-02 10584   0.212E-02-0.130E-03
CGA:   7    -0.352982007975E+03   -0.43979E-03   -0.44260E-03 10584   0.748E-03 0.159E-03
CGA:   8    -0.352982244445E+03   -0.23647E-03   -0.24603E-03 10584   0.547E-03-0.126E-03
CGA:   9    -0.352982297854E+03   -0.53409E-04   -0.65009E-04 10584   0.209E-03 0.128E-03
CGA:  10    -0.352982335230E+03   -0.37376E-04   -0.41621E-04 10584   0.882E-04 0.628E-04
CGA:  11    -0.352982364011E+03   -0.28781E-04   -0.35163E-04 10584   0.153E-03-0.793E-04
CGA:  12    -0.352982367585E+03   -0.35739E-05   -0.11636E-04 10584   0.278E-04 0.529E-04
  14 F= -.35298237E+03 E0= -.35298237E+03  d E =-.838169E-02  mag=    18.0000
       N       E                     dE             d eps       ncg     rms          ort
SDA:   1    -0.338927082539E+03    0.14055E+02    0.00000E+00 10584   0.335E+02 0.000E+00
CGA:   2    -0.350001506942E+03   -0.11074E+02   -0.11066E+02 10584   0.133E+02 0.500E-01
CGA:   3    -0.352199774994E+03   -0.21983E+01   -0.21798E+01 10584   0.326E+01-0.123E-01
CGA:   4    -0.352743928701E+03   -0.54415E+00   -0.54578E+00 10584   0.735E+00 0.870E-02
CGA:   5    -0.352877072306E+03   -0.13314E+00   -0.13304E+00 10584   0.222E+00 0.853E-03
CGA:   6    -0.352921760558E+03   -0.44688E-01   -0.44693E-01 10584   0.670E-01-0.373E-03
CGA:   7    -0.352937105354E+03   -0.15345E-01   -0.15331E-01 10584   0.284E-01 0.100E-02
CGA:   8    -0.352944176544E+03   -0.70712E-02   -0.70979E-02 10584   0.158E-01-0.901E-03
CGA:   9    -0.352947191745E+03   -0.30152E-02   -0.30301E-02 10584   0.619E-02 0.937E-03
CGA:  10    -0.352948831652E+03   -0.16399E-02   -0.16471E-02 10584   0.215E-02-0.200E-03
CGA:  11    -0.352949308467E+03   -0.47682E-03   -0.47560E-03 10584   0.678E-03 0.102E-03
CGA:  12    -0.352949496004E+03   -0.18754E-03   -0.20985E-03 10584   0.624E-03-0.284E-03
CGA:  13    -0.352949528134E+03   -0.32130E-04   -0.38602E-04 10584   0.256E-03 0.576E-04
CGA:  14    -0.352949546352E+03   -0.18219E-04   -0.26242E-04 10584   0.134E-03 0.663E-04
CGA:  15    -0.352949575304E+03   -0.28952E-04   -0.29062E-04 10584   0.808E-04 0.288E-05
CGA:  16    -0.352949592604E+03   -0.17300E-04   -0.18239E-04 10584   0.127E-03-0.693E-04
CGA:  17    -0.352949595936E+03   -0.33316E-05   -0.98470E-05 10584   0.312E-04 0.503E-04
  15 F= -.35294960E+03 E0= -.35294959E+03  d E =0.327716E-01  mag=    18.0000
       N       E                     dE             d eps       ncg     rms          ort
SDA:   1    -0.321625689617E+03    0.31324E+02    0.00000E+00 10584   0.656E+02 0.000E+00
CGA:   2    -0.342558490904E+03   -0.20933E+02   -0.20824E+02 10584   0.230E+02 0.839E+00
CGA:   3    -0.347860867375E+03   -0.53024E+01   -0.53267E+01 10584   0.827E+01-0.634E+00
CGA:   4    -0.348982920735E+03   -0.11221E+01   -0.11867E+01 10584   0.217E+01 0.200E+00
CGA:   5    -0.349458864087E+03   -0.47594E+00   -0.47775E+00 10584   0.654E+00-0.705E-01
CGA:   6    -0.349610505463E+03   -0.15164E+00   -0.15125E+00 10584   0.284E+00 0.621E-02
CGA:   7    -0.349679302159E+03   -0.68797E-01   -0.68867E-01 10584   0.117E+00-0.658E-03
CGA:   8    -0.349707576615E+03   -0.28274E-01   -0.28316E-01 10584   0.549E-01-0.207E-02
CGA:   9    -0.349718574867E+03   -0.10998E-01   -0.11001E-01 10584   0.192E-01 0.123E-02
CGA:  10    -0.349723257592E+03   -0.46827E-02   -0.47136E-02 10584   0.719E-02-0.996E-03
CGA:  11    -0.349724763587E+03   -0.15060E-02   -0.15042E-02 10584   0.202E-02 0.159E-03
CGA:  12    -0.349725337007E+03   -0.57342E-03   -0.65171E-03 10584   0.162E-02-0.734E-03
CGA:  13    -0.349725455139E+03   -0.11813E-03   -0.12999E-03 10584   0.546E-03 0.138E-03
CGA:  14    -0.349725522636E+03   -0.67497E-04   -0.76415E-04 10584   0.301E-03 0.110E-03
CGA:  15    -0.349725608023E+03   -0.85386E-04   -0.10123E-03 10584   0.242E-03-0.214E-03
CGA:  16    -0.349725673299E+03   -0.65276E-04   -0.69454E-04 10584   0.622E-04-0.542E-04
CGA:  17    -0.349725698922E+03   -0.25624E-04    0.21232E-04 10584   0.363E-04-0.252E-05
CGA:  18    -0.349725699888E+03   -0.96569E-06   -0.33848E-05 10584   0.140E-04 0.208E-04
  16 F= -.34972570E+03 E0= -.34972566E+03  d E =0.322390E+01  mag=    18.0000
       N       E                     dE             d eps       ncg     rms          ort
SDA:   1    -0.343371319019E+03    0.63544E+01    0.00000E+00 10584   0.216E+02 0.000E+00
CGA:   2    -0.350468622094E+03   -0.70973E+01   -0.71312E+01 10584   0.682E+01-0.269E+00
CGA:   3    -0.352108154379E+03   -0.16395E+01   -0.16393E+01 10584   0.126E+01 0.406E-02
CGA:   4    -0.352376941243E+03   -0.26879E+00   -0.26874E+00 10584   0.486E+00 0.641E-02
CGA:   5    -0.352458222683E+03   -0.81281E-01   -0.81176E-01 10584   0.146E+00 0.417E-02
CGA:   6    -0.352494133334E+03   -0.35911E-01   -0.35894E-01 10584   0.678E-01-0.717E-05
CGA:   7    -0.352509394950E+03   -0.15262E-01   -0.15250E-01 10584   0.277E-01 0.883E-03
CGA:   8    -0.352516463892E+03   -0.70689E-02   -0.71130E-02 10584   0.132E-01-0.104E-02
CGA:   9    -0.352518869168E+03   -0.24053E-02   -0.24221E-02 10584   0.457E-02 0.883E-03
CGA:  10    -0.352520013389E+03   -0.11442E-02   -0.11491E-02 10584   0.157E-02-0.199E-03
CGA:  11    -0.352520317324E+03   -0.30393E-03   -0.30536E-03 10584   0.467E-03 0.170E-03
CGA:  12    -0.352520463328E+03   -0.14600E-03   -0.16824E-03 10584   0.389E-03-0.197E-03
CGA:  13    -0.352520472460E+03   -0.91327E-05   -0.19898E-04 10584   0.205E-03 0.841E-04
CGA:  14    -0.352520479970E+03   -0.75094E-05   -0.19635E-04 10584   0.973E-04 0.924E-04
CGA:  15    -0.352520492559E+03   -0.12589E-04   -0.16135E-04 10584   0.469E-04 0.394E-04
CGA:  16    -0.352520499856E+03   -0.72968E-05   -0.22446E-04 10584   0.216E-03-0.108E-03
CGA:  17    -0.352520507394E+03   -0.75386E-05   -0.16706E-04 10584   0.401E-04 0.718E-04
  17 F= -.35252051E+03 E0= -.35252051E+03  d E =-.279481E+01  mag=    18.0000
       N       E                     dE             d eps       ncg     rms          ort
SDA:   1    -0.351050467990E+03    0.14700E+01    0.00000E+00 10584   0.433E+01 0.000E+00
CGA:   2    -0.352457119564E+03   -0.14067E+01   -0.14078E+01 10584   0.151E+01-0.885E-02
CGA:   3    -0.352783132177E+03   -0.32601E+00   -0.32562E+00 10584   0.496E+00 0.125E-01
CGA:   4    -0.352853235867E+03   -0.70104E-01   -0.68434E-01 10584   0.130E+00 0.601E-02
CGA:   5    -0.352882578418E+03   -0.29343E-01   -0.29317E-01 10584   0.334E-01 0.611E-03
CGA:   6    -0.352890571783E+03   -0.79934E-02   -0.79648E-02 10584   0.148E-01 0.779E-03
CGA:   7    -0.352894507091E+03   -0.39353E-02   -0.39651E-02 10584   0.638E-02-0.496E-03
CGA:   8    -0.352895913587E+03   -0.14065E-02   -0.13990E-02 10584   0.262E-02 0.340E-03
CGA:   9    -0.352896581250E+03   -0.66766E-03   -0.67544E-03 10584   0.134E-02-0.202E-03
CGA:  10    -0.352896734841E+03   -0.15359E-03   -0.17033E-03 10584   0.372E-03 0.245E-03
CGA:  11    -0.352896830543E+03   -0.95702E-04   -0.95224E-04 10584   0.144E-03 0.389E-04
CGA:  12    -0.352896836561E+03   -0.60187E-05   -0.68634E-04 10584   0.879E-03-0.275E-03
CGA:  13    -0.352896875486E+03   -0.38924E-04   -0.64442E-04 10584   0.729E-04 0.189E-03
CGA:  14    -0.352896875267E+03    0.21831E-06   -0.58874E-05 10584   0.328E-04 0.429E-04
CGA:  15    -0.352896885774E+03   -0.10507E-04   -0.10882E-04 10584   0.134E-04-0.291E-05
CGA:  16    -0.352896884767E+03    0.10075E-05   -0.46640E-06 10584   0.750E-05 0.867E-05
  18 F= -.35289688E+03 E0= -.35289688E+03  d E =-.376377E+00  mag=    18.0000
       N       E                     dE             d eps       ncg     rms          ort
SDA:   1    -0.352457317209E+03    0.43957E+00    0.00000E+00 10584   0.121E+01 0.000E+00
CGA:   2    -0.352839972373E+03   -0.38266E+00   -0.38262E+00 10584   0.462E+00 0.579E-03
CGA:   3    -0.352928552213E+03   -0.88580E-01   -0.88641E-01 10584   0.185E+00 0.309E-02
CGA:   4    -0.352955209251E+03   -0.26657E-01   -0.26506E-01 10584   0.372E-01 0.243E-02
CGA:   5    -0.352964086449E+03   -0.88772E-02   -0.89148E-02 10584   0.117E-01-0.934E-03
CGA:   6    -0.352966542999E+03   -0.24565E-02   -0.24549E-02 10584   0.475E-02 0.917E-04
CGA:   7    -0.352967802082E+03   -0.12591E-02   -0.12831E-02 10584   0.229E-02-0.343E-03
CGA:   8    -0.352968222326E+03   -0.42024E-03   -0.42089E-03 10584   0.826E-03 0.204E-03
CGA:   9    -0.352968451881E+03   -0.22956E-03   -0.23484E-03 10584   0.449E-03-0.887E-04
CGA:  10    -0.352968491948E+03   -0.40067E-04   -0.49736E-04 10584   0.139E-03 0.121E-03
CGA:  11    -0.352968517561E+03   -0.25612E-04   -0.27309E-04 10584   0.623E-04 0.376E-04
CGA:  12    -0.352968029672E+03    0.48789E-03   -0.26461E-03 10584   0.395E-02-0.549E-03
CGA:  13    -0.352968370076E+03   -0.34040E-03   -0.40046E-03 10584   0.588E-03 0.363E-03
CGA:  14    -0.352968513600E+03   -0.14352E-03   -0.14575E-03 10584   0.887E-04 0.184E-04
CGA:  15    -0.352968543675E+03   -0.30075E-04   -0.28679E-04 10584   0.180E-03-0.491E-04
CGA:  16    -0.352968544391E+03   -0.71649E-06   -0.12723E-04 10584   0.196E-04 0.462E-04
  19 F= -.35296854E+03 E0= -.35296854E+03  d E =-.716596E-01  mag=    18.0000
       N       E                     dE             d eps       ncg     rms          ort
SDA:   1    -0.352894315425E+03    0.74228E-01    0.00000E+00 10584   0.248E+00 0.000E+00
CGA:   2    -0.352970980794E+03   -0.76665E-01   -0.76666E-01 10584   0.947E-01 0.200E-03
CGA:   3    -0.352988437093E+03   -0.17456E-01   -0.17585E-01 10584   0.434E-01-0.142E-02
CGA:   4    -0.352994676182E+03   -0.62391E-02   -0.62754E-02 10584   0.665E-02 0.109E-02
CGA:   5    -0.352996462285E+03   -0.17861E-02   -0.17600E-02 10584   0.252E-02-0.638E-03
CGA:   6    -0.352997013679E+03   -0.55139E-03   -0.53631E-03 10584   0.117E-02-0.245E-03
CGA:   7    -0.352997241049E+03   -0.22737E-03   -0.22962E-03 10584   0.387E-03 0.289E-04
CGA:   8    -0.352997336988E+03   -0.95939E-04   -0.96611E-04 10584   0.152E-03 0.142E-04
CGA:   9    -0.352997362805E+03   -0.25817E-04   -0.29732E-04 10584   0.470E-04 0.395E-04
CGA:  10    -0.352997380325E+03   -0.17521E-04   -0.17775E-04 10584   0.360E-04-0.147E-04
CGA:  11    -0.352997384139E+03   -0.38141E-05   -0.39495E-05 10584   0.163E-04 0.110E-05
CGA:  12    -0.352997394161E+03   -0.10022E-04    0.30986E-04 10584   0.131E-04-0.106E-04
CGA:  13    -0.352997397411E+03   -0.32495E-05   -0.30285E-05 10584   0.797E-05-0.466E-05
  20 F= -.35299740E+03 E0= -.35299740E+03  d E =-.288530E-01  mag=    18.0000
       N       E                     dE             d eps       ncg     rms          ort
SDA:   1    -0.352851199316E+03    0.14619E+00    0.00000E+00 10584   0.392E+00 0.000E+00
CGA:   2    -0.352973568088E+03   -0.12237E+00   -0.12236E+00 10584   0.127E+00-0.562E-04
CGA:   3    -0.353003506847E+03   -0.29939E-01   -0.29944E-01 10584   0.440E-01-0.204E-03
CGA:   4    -0.353009650069E+03   -0.61432E-02   -0.61739E-02 10584   0.107E-01 0.892E-03
CGA:   5    -0.353012169664E+03   -0.25196E-02   -0.24875E-02 10584   0.375E-02-0.110E-02
CGA:   6    -0.353012957615E+03   -0.78795E-03   -0.78267E-03 10584   0.171E-02-0.216E-03
CGA:   7    -0.353013340589E+03   -0.38297E-03   -0.38130E-03 10584   0.635E-03-0.911E-04
CGA:   8    -0.353013468234E+03   -0.12765E-03   -0.13112E-03 10584   0.203E-03 0.953E-04
CGA:   9    -0.353013534468E+03   -0.66235E-04   -0.66881E-04 10584   0.992E-04-0.191E-04
CGA:  10    -0.353013540424E+03   -0.59556E-05   -0.10851E-04 10584   0.366E-04 0.367E-04
  21 F= -.35301354E+03 E0= -.35301354E+03  d E =-.161430E-01  mag=    18.0000
       N       E                     dE             d eps       ncg     rms          ort
SDA:   1    -0.353000699682E+03    0.12835E-01    0.00000E+00 10584   0.396E-01 0.000E+00
CGA:   2    -0.353010250451E+03   -0.95508E-02   -0.95527E-02 10584   0.174E-01 0.686E-03
CGA:   3    -0.353013359641E+03   -0.31092E-02   -0.30765E-02 10584   0.745E-02-0.648E-03
CGA:   4    -0.353014517289E+03   -0.11576E-02   -0.11863E-02 10584   0.110E-02 0.399E-03
CGA:   5    -0.353014798492E+03   -0.28120E-03   -0.28183E-03 10584   0.467E-03-0.122E-03
CGA:   6    -0.353014889424E+03   -0.90932E-04   -0.15973E-03 10584   0.107E-02-0.467E-03
CGA:   7    -0.353014971508E+03   -0.82084E-04   -0.10602E-03 10584   0.110E-03 0.165E-03
CGA:   8    -0.353014981568E+03   -0.10060E-04   -0.16003E-04 10584   0.457E-04 0.534E-04
CGA:   9    -0.353014988493E+03   -0.69249E-05   -0.91223E-05 10584   0.159E-04 0.225E-04
  22 F= -.35301499E+03 E0= -.35301499E+03  d E =-.144807E-02  mag=    18.0000
       N       E                     dE             d eps       ncg     rms          ort
SDA:   1    -0.352834749841E+03    0.18023E+00    0.00000E+00 10584   0.528E+00 0.000E+00
CGA:   2    -0.352962842520E+03   -0.12809E+00   -0.12809E+00 10584   0.185E+00 0.394E-04
CGA:   3    -0.353001671059E+03   -0.38829E-01   -0.38834E-01 10584   0.755E-01-0.457E-03
CGA:   4    -0.353012988156E+03   -0.11317E-01   -0.11390E-01 10584   0.147E-01 0.148E-02
CGA:   5    -0.353016133723E+03   -0.31456E-02   -0.31374E-02 10584   0.465E-02-0.701E-03
CGA:   6    -0.353017119825E+03   -0.98610E-03   -0.98721E-03 10584   0.202E-02-0.371E-03
CGA:   7    -0.353017634288E+03   -0.51446E-03   -0.53764E-03 10584   0.113E-02-0.334E-03
CGA:   8    -0.353017813849E+03   -0.17956E-03   -0.18346E-03 10584   0.389E-03 0.132E-03
CGA:   9    -0.353017928382E+03   -0.11453E-03   -0.11515E-03 10584   0.177E-03-0.144E-04
CGA:  10    -0.353017956379E+03   -0.27996E-04   -0.29882E-04 10584   0.571E-04 0.387E-04
CGA:  11    -0.353017976936E+03   -0.20558E-04   -0.27621E-04 10584   0.678E-04-0.404E-04
CGA:  12    -0.353017990764E+03   -0.13828E-04   -0.13826E-04 10584   0.767E-05-0.688E-07
CGA:  13    -0.353017991164E+03   -0.40045E-06   -0.92017E-06 10584   0.371E-05 0.476E-05
  23 F= -.35301799E+03 E0= -.35301799E+03  d E =-.300267E-02  mag=    18.0000
       N       E                     dE             d eps       ncg     rms          ort
SDA:   1    -0.352939394399E+03    0.78596E-01    0.00000E+00 10584   0.245E+00 0.000E+00
CGA:   2    -0.352997235963E+03   -0.57842E-01   -0.57853E-01 10584   0.854E-01-0.987E-03
CGA:   3    -0.353014957145E+03   -0.17721E-01   -0.17706E-01 10584   0.348E-01-0.123E-02
CGA:   4    -0.353020098249E+03   -0.51411E-02   -0.51787E-02 10584   0.666E-02 0.647E-03
CGA:   5    -0.353021453584E+03   -0.13553E-02   -0.13533E-02 10584   0.191E-02-0.105E-03
CGA:   6    -0.353021807769E+03   -0.35419E-03   -0.35842E-03 10584   0.617E-03 0.150E-03
CGA:   7    -0.353021992970E+03   -0.18520E-03   -0.18428E-03 10584   0.306E-03 0.151E-04
CGA:   8    -0.353022096942E+03   -0.10397E-03   -0.11727E-03 10584   0.256E-03-0.871E-04
CGA:   9    -0.353022137880E+03   -0.40938E-04   -0.40945E-04 10584   0.986E-04 0.140E-05
CGA:  10    -0.353022161808E+03   -0.23928E-04   -0.24137E-04 10584   0.450E-04-0.134E-04
CGA:  11    -0.353022167952E+03   -0.61443E-05   -0.66344E-05 10584   0.182E-04 0.842E-05
CGA:  12    -0.353022053522E+03    0.11443E-03   -0.61644E-04 10584   0.580E-03-0.117E-03
CGA:  13    -0.353022168550E+03   -0.11503E-03   -0.12116E-03 10584   0.459E-04 0.300E-04
CGA:  14    -0.353022187928E+03   -0.19378E-04   -0.19377E-04 10584   0.208E-04-0.837E-05
CGA:  15    -0.353022193418E+03   -0.54894E-05   -0.47963E-05 10584   0.142E-04-0.580E-05
  24 F= -.35302219E+03 E0= -.35302219E+03  d E =-.420225E-02  mag=    18.0000
       N       E                     dE             d eps       ncg     rms          ort
SDA:   1    -0.352609482921E+03    0.41271E+00    0.00000E+00 10584   0.122E+01 0.000E+00
CGA:   2    -0.352905259336E+03   -0.29578E+00   -0.29570E+00 10584   0.425E+00-0.119E-02
CGA:   3    -0.352994206905E+03   -0.88948E-01   -0.89059E-01 10584   0.152E+00-0.111E-02
CGA:   4    -0.353018124055E+03   -0.23917E-01   -0.24015E-01 10584   0.313E-01 0.113E-02
CGA:   5    -0.353024090306E+03   -0.59663E-02   -0.59775E-02 10584   0.898E-02 0.217E-04
CGA:   6    -0.353025823627E+03   -0.17333E-02   -0.17683E-02 10584   0.302E-02 0.239E-03
CGA:   7    -0.353026668141E+03   -0.84451E-03   -0.84190E-03 10584   0.141E-02-0.413E-04
CGA:   8    -0.353027058766E+03   -0.39063E-03   -0.39010E-03 10584   0.697E-03-0.102E-04
CGA:   9    -0.353027284595E+03   -0.22583E-03   -0.22505E-03 10584   0.419E-03-0.120E-03
CGA:  10    -0.353027325153E+03   -0.40558E-04   -0.52215E-04 10584   0.145E-03 0.653E-04
CGA:  11    -0.353027361835E+03   -0.36682E-04   -0.36932E-04 10584   0.565E-04 0.239E-05
CGA:  12    -0.353027338616E+03    0.23219E-04   -0.43423E-04 10584   0.656E-03-0.152E-03
CGA:  13    -0.353027375901E+03   -0.37285E-04   -0.60773E-04 10584   0.731E-04 0.104E-03
CGA:  14    -0.353027389186E+03   -0.13285E-04   -0.15504E-04 10584   0.322E-04 0.154E-04
CGA:  15    -0.353027220404E+03    0.16878E-03   -0.44205E-04 10584   0.183E-02-0.262E-03
CGA:  16    -0.353027350159E+03   -0.12976E-03   -0.17372E-03 10584   0.181E-03 0.215E-03
CGA:  17    -0.353027386224E+03   -0.36065E-04   -0.42099E-04 10584   0.729E-04 0.435E-04
CGA:  18    -0.353027412955E+03   -0.26731E-04   -0.20020E-04 10584   0.630E-04-0.567E-04
CGA:  19    -0.353027410457E+03    0.24989E-05   -0.40280E-05 10584   0.113E-04 0.245E-04
  25 F= -.35302741E+03 E0= -.35302741E+03  d E =-.521704E-02  mag=    18.0000
       N       E                     dE             d eps       ncg     rms          ort
SDA:   1    -0.352700652578E+03    0.32676E+00    0.00000E+00 10584   0.841E+00 0.000E+00
CGA:   2    -0.352943385845E+03   -0.24273E+00   -0.24273E+00 10584   0.374E+00-0.623E-05
CGA:   3    -0.353007646242E+03   -0.64260E-01   -0.64468E-01 10584   0.104E+00-0.572E-03
CGA:   4    -0.353024660373E+03   -0.17014E-01   -0.17097E-01 10584   0.213E-01 0.733E-03
CGA:   5    -0.353028673230E+03   -0.40129E-02   -0.39645E-02 10584   0.620E-02-0.471E-03
CGA:   6    -0.353029926341E+03   -0.12531E-02   -0.12385E-02 10584   0.192E-02-0.177E-03
CGA:   7    -0.353030408385E+03   -0.48204E-03   -0.47876E-03 10584   0.818E-03-0.126E-03
CGA:   8    -0.353030601055E+03   -0.19267E-03   -0.19313E-03 10584   0.313E-03 0.156E-04
CGA:   9    -0.353030712071E+03   -0.11102E-03   -0.11884E-03 10584   0.200E-03-0.850E-04
CGA:  10    -0.353030739026E+03   -0.26955E-04   -0.28325E-04 10584   0.713E-04 0.152E-04
CGA:  11    -0.353030761417E+03   -0.22391E-04   -0.30232E-04 10584   0.102E-03-0.690E-04
CGA:  12    -0.353030772573E+03   -0.11156E-04   -0.14047E-04 10584   0.155E-04 0.196E-04
CGA:  13    -0.353030576508E+03    0.19606E-03   -0.10643E-03 10584   0.137E-02-0.152E-03
CGA:  14    -0.353030721508E+03   -0.14500E-03   -0.17966E-03 10584   0.244E-03 0.115E-03
CGA:  15    -0.353030784278E+03   -0.62770E-04   -0.53635E-04 10584   0.214E-04-0.322E-04
CGA:  16    -0.353030784454E+03   -0.17687E-06   -0.26003E-05 10584   0.562E-05 0.727E-05
  26 F= -.35303078E+03 E0= -.35303078E+03  d E =-.337400E-02  mag=    18.0000
       N       E                     dE             d eps       ncg     rms          ort
SDA:   1    -0.352440418844E+03    0.59037E+00    0.00000E+00 10584   0.141E+01 0.000E+00
CGA:   2    -0.352901823071E+03   -0.46140E+00   -0.46145E+00 10584   0.576E+00 0.627E-03
CGA:   3    -0.352996537211E+03   -0.94714E-01   -0.95461E-01 10584   0.156E+00-0.507E-02
CGA:   4    -0.353021921442E+03   -0.25384E-01   -0.25330E-01 10584   0.322E-01 0.612E-03
CGA:   5    -0.353028077259E+03   -0.61558E-02   -0.60664E-02 10584   0.944E-02-0.434E-03
CGA:   6    -0.353029957151E+03   -0.18799E-02   -0.18775E-02 10584   0.282E-02-0.127E-04
CGA:   7    -0.353030642888E+03   -0.68574E-03   -0.68497E-03 10584   0.109E-02-0.590E-05
CGA:   8    -0.353030949752E+03   -0.30686E-03   -0.30343E-03 10584   0.488E-03-0.326E-04
CGA:   9    -0.353031085233E+03   -0.13548E-03   -0.13471E-03 10584   0.183E-03-0.805E-05
CGA:  10    -0.353031145864E+03   -0.60631E-04   -0.57152E-04 10584   0.136E-03-0.605E-04
CGA:  11    -0.353031151460E+03   -0.55964E-05   -0.10026E-04 10584   0.453E-04 0.171E-04
  27 F= -.35303115E+03 E0= -.35303115E+03  d E =-.367006E-03  mag=    18.0000
       N       E                     dE             d eps       ncg     rms          ort
SDA:   1    -0.352564368338E+03    0.46678E+00    0.00000E+00 10584   0.110E+01 0.000E+00
CGA:   2    -0.352935457480E+03   -0.37109E+00   -0.37109E+00 10584   0.402E+00 0.817E-03
CGA:   3    -0.353005140717E+03   -0.69683E-01   -0.70061E-01 10584   0.122E+00-0.494E-02
CGA:   4    -0.353024579812E+03   -0.19439E-01   -0.19341E-01 10584   0.241E-01 0.515E-03
CGA:   5    -0.353029282985E+03   -0.47032E-02   -0.47016E-02 10584   0.700E-02-0.304E-04
CGA:   6    -0.353030675324E+03   -0.13923E-02   -0.14187E-02 10584   0.222E-02 0.219E-03
CGA:   7    -0.353031228758E+03   -0.55343E-03   -0.55699E-03 10584   0.905E-03 0.480E-04
CGA:   8    -0.353031514757E+03   -0.28600E-03   -0.28536E-03 10584   0.574E-03-0.145E-03
CGA:   9    -0.353031601156E+03   -0.86399E-04   -0.92257E-04 10584   0.201E-03 0.490E-04
CGA:  10    -0.353031651055E+03   -0.49899E-04   -0.49174E-04 10584   0.711E-04-0.893E-05
CGA:  11    -0.353031667700E+03   -0.16645E-04   -0.16567E-04 10584   0.207E-04-0.134E-05
CGA:  12    -0.353031647929E+03    0.19771E-04   -0.20484E-04 10584   0.181E-03-0.567E-04
CGA:  13    -0.353031684871E+03   -0.36942E-04   -0.36805E-04 10584   0.357E-04-0.111E-05
CGA:  14    -0.353031684350E+03    0.52102E-06   -0.31076E-05 10584   0.947E-05 0.151E-04
  28 F= -.35303168E+03 E0= -.35303168E+03  d E =-.532889E-03  mag=    18.0000
       N       E                     dE             d eps       ncg     rms          ort
SDA:   1    -0.352811597165E+03    0.22009E+00    0.00000E+00 10584   0.560E+00 0.000E+00
CGA:   2    -0.352981410418E+03   -0.16981E+00   -0.16981E+00 10584   0.222E+00 0.888E-03
CGA:   3    -0.353021454659E+03   -0.40044E-01   -0.40241E-01 10584   0.670E-01-0.161E-02
CGA:   4    -0.353031605090E+03   -0.10150E-01   -0.10190E-01 10584   0.126E-01 0.730E-03
CGA:   5    -0.353034295215E+03   -0.26901E-02   -0.26583E-02 10584   0.374E-02-0.386E-03
CGA:   6    -0.353035049964E+03   -0.75475E-03   -0.74074E-03 10584   0.132E-02-0.169E-03
CGA:   7    -0.353035341869E+03   -0.29191E-03   -0.29193E-03 10584   0.511E-03 0.359E-07
CGA:   8    -0.353035491497E+03   -0.14963E-03   -0.15058E-03 10584   0.315E-03-0.691E-04
CGA:   9    -0.353035549065E+03   -0.57568E-04   -0.58607E-04 10584   0.120E-03 0.159E-04
CGA:  10    -0.353035585791E+03   -0.36726E-04   -0.54990E-04 10584   0.219E-03-0.116E-03
CGA:  11    -0.353035600863E+03   -0.15072E-04   -0.24127E-04 10584   0.305E-04 0.518E-04
CGA:  12    -0.353035608558E+03   -0.76956E-05   -0.75171E-05 10584   0.921E-05-0.230E-05
  29 F= -.35303561E+03 E0= -.35303561E+03  d E =-.392421E-02  mag=    18.0000
       N       E                     dE             d eps       ncg     rms          ort
SDA:   1    -0.352825012171E+03    0.21059E+00    0.00000E+00 10584   0.542E+00 0.000E+00
CGA:   2    -0.352985692878E+03   -0.16068E+00   -0.16068E+00 10584   0.200E+00-0.933E-04
CGA:   3    -0.353024613521E+03   -0.38921E-01   -0.38978E-01 10584   0.605E-01 0.585E-03
CGA:   4    -0.353034155310E+03   -0.95418E-02   -0.95965E-02 10584   0.135E-01 0.477E-03
CGA:   5    -0.353036840714E+03   -0.26854E-02   -0.26670E-02 10584   0.422E-02-0.269E-03
CGA:   6    -0.353037719093E+03   -0.87838E-03   -0.86563E-03 10584   0.157E-02-0.246E-03
CGA:   7    -0.353038093526E+03   -0.37443E-03   -0.37401E-03 10584   0.637E-03-0.638E-04
CGA:   8    -0.353038250294E+03   -0.15677E-03   -0.15678E-03 10584   0.261E-03 0.568E-05
CGA:   9    -0.353038310104E+03   -0.59809E-04   -0.60900E-04 10584   0.821E-04 0.401E-04
CGA:  10    -0.353038340679E+03   -0.30576E-04   -0.39992E-04 10584   0.123E-03-0.571E-04
CGA:  11    -0.353038347150E+03   -0.64703E-05   -0.12261E-04 10584   0.202E-04 0.351E-04
  30 F= -.35303835E+03 E0= -.35303835E+03  d E =-.273859E-02  mag=    18.0000
       N       E                     dE             d eps       ncg     rms          ort
SDA:   1    -0.352899454869E+03    0.13889E+00    0.00000E+00 10584   0.334E+00 0.000E+00
CGA:   2    -0.353010777685E+03   -0.11132E+00   -0.11129E+00 10584   0.130E+00 0.305E-03
CGA:   3    -0.353033113074E+03   -0.22335E-01   -0.22306E-01 10584   0.337E-01-0.418E-03
CGA:   4    -0.353038591724E+03   -0.54787E-02   -0.54777E-02 10584   0.758E-02-0.172E-04
CGA:   5    -0.353040061925E+03   -0.14702E-02   -0.14594E-02 10584   0.224E-02-0.198E-03
CGA:   6    -0.353040496322E+03   -0.43440E-03   -0.43244E-03 10584   0.705E-03-0.428E-04
CGA:   7    -0.353040659324E+03   -0.16300E-03   -0.16304E-03 10584   0.264E-03 0.510E-05
CGA:   8    -0.353040738385E+03   -0.79062E-04   -0.81683E-04 10584   0.156E-03-0.404E-04
CGA:   9    -0.353040764346E+03   -0.25961E-04   -0.26911E-04 10584   0.501E-04 0.228E-04
CGA:  10    -0.353040779917E+03   -0.15571E-04   -0.15942E-04 10584   0.266E-04-0.109E-04
CGA:  11    -0.353040783026E+03   -0.31094E-05   -0.34304E-05 10584   0.931E-05 0.399E-05
  31 F= -.35304078E+03 E0= -.35304078E+03  d E =-.243588E-02  mag=    18.0000
       N       E                     dE             d eps       ncg     rms          ort
SDA:   1    -0.351628459254E+03    0.14123E+01    0.00000E+00 10584   0.332E+01 0.000E+00
CGA:   2    -0.352748527690E+03   -0.11201E+01   -0.11201E+01 10584   0.133E+01-0.846E-03
CGA:   3    -0.352967783648E+03   -0.21926E+00   -0.21921E+00 10584   0.327E+00-0.114E-02
CGA:   4    -0.353021132352E+03   -0.53349E-01   -0.53333E-01 10584   0.750E-01-0.249E-03
CGA:   5    -0.353034970418E+03   -0.13838E-01   -0.13829E-01 10584   0.207E-01-0.140E-03
CGA:   6    -0.353038998474E+03   -0.40281E-02   -0.40375E-02 10584   0.615E-02 0.189E-03
CGA:   7    -0.353040442859E+03   -0.14444E-02   -0.14452E-02 10584   0.229E-02 0.896E-04
CGA:   8    -0.353041108187E+03   -0.66533E-03   -0.67357E-03 10584   0.117E-02-0.169E-03
CGA:   9    -0.353041378346E+03   -0.27016E-03   -0.26972E-03 10584   0.396E-03 0.751E-04
CGA:  10    -0.353041486920E+03   -0.10857E-03   -0.10859E-03 10584   0.150E-03-0.990E-06
CGA:  11    -0.353041512103E+03   -0.25183E-04   -0.26797E-04 10584   0.442E-04 0.246E-04
CGA:  12    -0.353041538121E+03   -0.26018E-04    0.13214E-03 10584   0.135E-04 0.205E-05
CGA:  13    -0.353041542632E+03   -0.45110E-05   -0.77876E-05 10584   0.186E-04-0.106E-04
  32 F= -.35304154E+03 E0= -.35304154E+03  d E =-.759606E-03  mag=    18.0000
       N       E                     dE             d eps       ncg     rms          ort
SDA:   1    -0.348115320213E+03    0.49262E+01    0.00000E+00 10584   0.112E+02 0.000E+00
CGA:   2    -0.352053681171E+03   -0.39384E+01   -0.39388E+01 10584   0.404E+01-0.588E-02
CGA:   3    -0.352755747243E+03   -0.70207E+00   -0.70260E+00 10584   0.103E+01 0.256E-03
CGA:   4    -0.352919433518E+03   -0.16369E+00   -0.16376E+00 10584   0.241E+00 0.608E-03
CGA:   5    -0.352965360928E+03   -0.45927E-01   -0.45906E-01 10584   0.694E-01-0.265E-03
CGA:   6    -0.352979159569E+03   -0.13799E-01   -0.13804E-01 10584   0.222E-01 0.740E-04
CGA:   7    -0.352984491446E+03   -0.53319E-02   -0.53331E-02 10584   0.869E-02 0.737E-04
CGA:   8    -0.352986892806E+03   -0.24014E-02   -0.24069E-02 10584   0.401E-02-0.267E-03
CGA:   9    -0.352987926940E+03   -0.10341E-02   -0.10327E-02 10584   0.131E-02 0.163E-03
CGA:  10    -0.352988291046E+03   -0.36411E-03   -0.36368E-03 10584   0.397E-03 0.425E-04
CGA:  11    -0.352988403833E+03   -0.11279E-03   -0.11363E-03 10584   0.152E-03-0.414E-04
CGA:  12    -0.352988376476E+03    0.27357E-04   -0.90361E-04 10584   0.956E-03-0.290E-03
CGA:  13    -0.352988451067E+03   -0.74591E-04   -0.99327E-04 10584   0.968E-04 0.151E-03
CGA:  14    -0.352988465380E+03   -0.14313E-04   -0.18050E-04 10584   0.377E-04 0.343E-04
CGA:  15    -0.352988479789E+03   -0.14409E-04   -0.16095E-04 10584   0.521E-04-0.331E-04
CGA:  16    -0.352988481418E+03   -0.16298E-05   -0.47886E-05 10584   0.102E-04 0.182E-04
  33 F= -.35298848E+03 E0= -.35298848E+03  d E =0.530612E-01  mag=    18.0000
       N       E                     dE             d eps       ncg     rms          ort
SDA:   1    -0.351584049174E+03    0.14044E+01    0.00000E+00 10584   0.342E+01 0.000E+00
CGA:   2    -0.352707860713E+03   -0.11238E+01   -0.11236E+01 10584   0.140E+01 0.230E-02
CGA:   3    -0.352957282338E+03   -0.24942E+00   -0.24952E+00 10584   0.395E+00 0.139E-02
CGA:   4    -0.353021245561E+03   -0.63963E-01   -0.64060E-01 10584   0.889E-01 0.105E-02
CGA:   5    -0.353038048956E+03   -0.16803E-01   -0.16822E-01 10584   0.281E-01 0.296E-03
CGA:   6    -0.353043871707E+03   -0.58228E-02   -0.58107E-02 10584   0.999E-02-0.320E-03
CGA:   7    -0.353046374144E+03   -0.25024E-02   -0.25046E-02 10584   0.413E-02-0.197E-03
CGA:   8    -0.353047348105E+03   -0.97396E-03   -0.97454E-03 10584   0.150E-02 0.243E-03
CGA:   9    -0.353047802335E+03   -0.45423E-03   -0.45380E-03 10584   0.552E-03 0.979E-05
CGA:  10    -0.353047952181E+03   -0.14985E-03   -0.15024E-03 10584   0.194E-03-0.158E-04
CGA:  11    -0.353048003492E+03   -0.51311E-04   -0.52776E-04 10584   0.981E-04-0.432E-04
CGA:  12    -0.353048004171E+03   -0.67866E-06   -0.66532E-05 10584   0.401E-04 0.372E-04
  34 F= -.35304800E+03 E0= -.35304800E+03  d E =-.595228E-01  mag=    18.0000
       N       E                     dE             d eps       ncg     rms          ort
SDA:   1    -0.352983191428E+03    0.64812E-01    0.00000E+00 10584   0.159E+00 0.000E+00
CGA:   2    -0.353031730699E+03   -0.48539E-01   -0.48572E-01 10584   0.660E-01-0.451E-03
CGA:   3    -0.353043947232E+03   -0.12217E-01   -0.12254E-01 10584   0.219E-01 0.797E-03
CGA:   4    -0.353047658918E+03   -0.37117E-02   -0.37019E-02 10584   0.525E-02-0.157E-03
CGA:   5    -0.353048633934E+03   -0.97502E-03   -0.97997E-03 10584   0.158E-02 0.120E-03
CGA:   6    -0.353048965567E+03   -0.33163E-03   -0.33287E-03 10584   0.588E-03 0.586E-04
CGA:   7    -0.353049132108E+03   -0.16654E-03   -0.16882E-03 10584   0.307E-03-0.451E-04
CGA:   8    -0.353049184719E+03   -0.52611E-04   -0.54257E-04 10584   0.997E-04 0.438E-04
CGA:   9    -0.353049217696E+03   -0.32977E-04   -0.34590E-04 10584   0.615E-04-0.211E-04
CGA:  10    -0.353049223507E+03   -0.58107E-05   -0.69813E-05 10584   0.233E-04 0.135E-04
  35 F= -.35304922E+03 E0= -.35304922E+03  d E =-.121934E-02  mag=    18.0000
       N       E                     dE             d eps       ncg     rms          ort
SDA:   1    -0.353029347716E+03    0.19870E-01    0.00000E+00 10584   0.490E-01 0.000E+00
CGA:   2    -0.353045866630E+03   -0.16519E-01   -0.16503E-01 10584   0.186E-01 0.137E-03
CGA:   3    -0.353049292017E+03   -0.34254E-02   -0.34078E-02 10584   0.572E-02-0.412E-03
CGA:   4    -0.353050111337E+03   -0.81932E-03   -0.83386E-03 10584   0.112E-02 0.196E-03
CGA:   5    -0.353050360570E+03   -0.24923E-03   -0.24904E-03 10584   0.367E-03-0.272E-04
CGA:   6    -0.353050435688E+03   -0.75118E-04   -0.74955E-04 10584   0.143E-03-0.138E-04
CGA:   7    -0.353050459531E+03   -0.23842E-04   -0.24890E-04 10584   0.456E-04 0.266E-04
CGA:   8    -0.353050474575E+03   -0.15044E-04   -0.24280E-04 10584   0.902E-04-0.401E-04
CGA:   9    -0.353050481095E+03   -0.65204E-05   -0.98261E-05 10584   0.130E-04 0.273E-04
  36 F= -.35305048E+03 E0= -.35305048E+03  d E =-.125759E-02  mag=    18.0000
       N       E                     dE             d eps       ncg     rms          ort
SDA:   1    -0.353043242706E+03    0.72319E-02    0.00000E+00 10584   0.192E-01 0.000E+00
CGA:   2    -0.353048473358E+03   -0.52307E-02   -0.52447E-02 10584   0.920E-02-0.271E-03
CGA:   3    -0.353050018479E+03   -0.15451E-02   -0.15536E-02 10584   0.254E-02 0.168E-03
CGA:   4    -0.353050436869E+03   -0.41839E-03   -0.42083E-03 10584   0.536E-03 0.422E-04
CGA:   5    -0.353050519905E+03   -0.83036E-04   -0.86629E-04 10584   0.128E-03 0.621E-04
CGA:   6    -0.353050542709E+03   -0.22804E-04   -0.24224E-04 10584   0.365E-04 0.319E-04
CGA:   7    -0.353050554425E+03   -0.11715E-04   -0.11699E-04 10584   0.202E-04 0.341E-06
CGA:   8    -0.353050556030E+03   -0.16051E-05   -0.25166E-05 10584   0.930E-05 0.101E-04
  37 F= -.35305056E+03 E0= -.35305056E+03  d E =-.749347E-04  mag=    18.0000
       N       E                     dE             d eps       ncg     rms          ort
SDA:   1    -0.352639164316E+03    0.41139E+00    0.00000E+00 10584   0.976E+00 0.000E+00
CGA:   2    -0.352960507738E+03   -0.32134E+00   -0.32170E+00 10584   0.411E+00-0.301E-02
CGA:   3    -0.353027948561E+03   -0.67441E-01   -0.67500E-01 10584   0.999E-01 0.188E-02
CGA:   4    -0.353044208502E+03   -0.16260E-01   -0.16272E-01 10584   0.217E-01 0.210E-03
CGA:   5    -0.353048179630E+03   -0.39711E-02   -0.39767E-02 10584   0.612E-02 0.243E-03
CGA:   6    -0.353049401586E+03   -0.12220E-02   -0.12221E-02 10584   0.180E-02 0.217E-04
CGA:   7    -0.353049836064E+03   -0.43448E-03   -0.43793E-03 10584   0.754E-03-0.900E-04
CGA:   8    -0.353049989039E+03   -0.15298E-03   -0.15231E-03 10584   0.268E-03 0.101E-03
CGA:   9    -0.353050068900E+03   -0.79861E-04   -0.78308E-04 10584   0.118E-03 0.305E-04
CGA:  10    -0.353050087900E+03   -0.19000E-04   -0.21398E-04 10584   0.400E-04 0.512E-04
CGA:  11    -0.353050100007E+03   -0.12107E-04   -0.12057E-04 10584   0.164E-04 0.125E-04
CGA:  12    -0.353050103104E+03   -0.30964E-05   -0.12381E-04 10584   0.635E-04-0.252E-04
  38 F= -.35305010E+03 E0= -.35305010E+03  d E =0.452926E-03  mag=    18.0000
       N       E                     dE             d eps       ncg     rms          ort
SDA:   1    -0.350320538783E+03    0.27296E+01    0.00000E+00 10584   0.622E+01 0.000E+00
CGA:   2    -0.352586359424E+03   -0.22658E+01   -0.22666E+01 10584   0.197E+01-0.593E-02
CGA:   3    -0.352925118377E+03   -0.33876E+00   -0.33548E+00 10584   0.542E+00-0.133E-02
CGA:   4    -0.353008236073E+03   -0.83118E-01   -0.83663E-01 10584   0.116E+00-0.197E-03
CGA:   5    -0.353031373360E+03   -0.23137E-01   -0.23147E-01 10584   0.299E-01 0.780E-03
CGA:   6    -0.353037531165E+03   -0.61578E-02   -0.61546E-02 10584   0.976E-02-0.251E-03
CGA:   7    -0.353039804856E+03   -0.22737E-02   -0.22749E-02 10584   0.377E-02-0.707E-04
CGA:   8    -0.353040822310E+03   -0.10175E-02   -0.10174E-02 10584   0.167E-02 0.754E-07
CGA:   9    -0.353041259441E+03   -0.43713E-03   -0.43088E-03 10584   0.540E-03 0.170E-03
CGA:  10    -0.353041391054E+03   -0.13161E-03   -0.13175E-03 10584   0.173E-03 0.124E-03
CGA:  11    -0.353041449324E+03   -0.58270E-04   -0.87108E-04 10584   0.340E-03-0.154E-03
CGA:  12    -0.353041464602E+03   -0.15279E-04   -0.28842E-04 10584   0.492E-04 0.936E-04
CGA:  13    -0.353041466483E+03   -0.18803E-05   -0.56847E-05 10584   0.218E-04 0.284E-04
CGA:  14    -0.353041476740E+03   -0.10258E-04    0.30114E-04 10584   0.126E-04 0.224E-05
CGA:  15    -0.353041476346E+03    0.39398E-06   -0.98647E-06 10584   0.588E-05 0.939E-05
  39 F= -.35304148E+03 E0= -.35304148E+03  d E =0.862676E-02  mag=    18.0000
       N       E                     dE             d eps       ncg     rms          ort
SDA:   1    -0.352609225380E+03    0.43225E+00    0.00000E+00 10584   0.107E+01 0.000E+00
CGA:   2    -0.352929487698E+03   -0.32026E+00   -0.31997E+00 10584   0.509E+00 0.282E-02
CGA:   3    -0.353015450827E+03   -0.85963E-01   -0.85986E-01 10584   0.141E+00-0.215E-02
CGA:   4    -0.353038676373E+03   -0.23226E-01   -0.23221E-01 10584   0.298E-01 0.608E-05
CGA:   5    -0.353044253733E+03   -0.55774E-02   -0.55699E-02 10584   0.889E-02-0.482E-03
CGA:   6    -0.353046042199E+03   -0.17885E-02   -0.17884E-02 10584   0.278E-02 0.282E-04
CGA:   7    -0.353046708555E+03   -0.66636E-03   -0.66565E-03 10584   0.108E-02 0.188E-04
CGA:   8    -0.353047010830E+03   -0.30228E-03   -0.31182E-03 10584   0.555E-03-0.116E-03
CGA:   9    -0.353047127987E+03   -0.11716E-03   -0.11686E-03 10584   0.213E-03 0.109E-04
CGA:  10    -0.353047163652E+03   -0.35665E-04   -0.10172E-03 10584   0.586E-03-0.255E-03
CGA:  11    -0.353047202946E+03   -0.39294E-04   -0.55392E-04 10584   0.721E-04 0.128E-03
CGA:  12    -0.353047212015E+03   -0.90690E-05   -0.11319E-04 10584   0.243E-04 0.257E-04
CGA:  13    -0.353047209926E+03    0.20890E-05   -0.16237E-04 10584   0.154E-03-0.653E-04
CGA:  14    -0.353047218035E+03   -0.81082E-05   -0.14141E-04 10584   0.257E-04 0.455E-04
  40 F= -.35304722E+03 E0= -.35304722E+03  d E =-.574169E-02  mag=    18.0000
       N       E                     dE             d eps       ncg     rms          ort
SDA:   1    -0.352751788554E+03    0.29542E+00    0.00000E+00 10584   0.691E+00 0.000E+00
CGA:   2    -0.352996626546E+03   -0.24484E+00   -0.24460E+00 10584   0.222E+00 0.168E-02
CGA:   3    -0.353038640688E+03   -0.42014E-01   -0.41983E-01 10584   0.617E-01-0.132E-02
CGA:   4    -0.353048059089E+03   -0.94184E-02   -0.94417E-02 10584   0.142E-01 0.544E-03
CGA:   5    -0.353050981470E+03   -0.29224E-02   -0.29191E-02 10584   0.421E-02-0.252E-03
CGA:   6    -0.353051803557E+03   -0.82209E-03   -0.82337E-03 10584   0.143E-02 0.756E-04
CGA:   7    -0.353052138826E+03   -0.33527E-03   -0.33385E-03 10584   0.521E-03 0.992E-04
CGA:   8    -0.353052304786E+03   -0.16596E-03   -0.17209E-03 10584   0.345E-03-0.661E-04
CGA:   9    -0.353052360907E+03   -0.56121E-04   -0.57200E-04 10584   0.122E-03 0.352E-04
CGA:  10    -0.353052397635E+03   -0.36729E-04   -0.47535E-04 10584   0.120E-03-0.807E-04
CGA:  11    -0.353052407716E+03   -0.10081E-04   -0.14046E-04 10584   0.177E-04 0.366E-04
CGA:  12    -0.353052410702E+03   -0.29857E-05   -0.33678E-05 10584   0.487E-05 0.513E-05
  41 F= -.35305241E+03 E0= -.35305241E+03  d E =-.519267E-02  mag=    18.0000
       N       E                     dE             d eps       ncg     rms          ort
SDA:   1    -0.353032690623E+03    0.19717E-01    0.00000E+00 10584   0.477E-01 0.000E+00
CGA:   2    -0.353048043400E+03   -0.15353E-01   -0.15466E-01 10584   0.215E-01-0.126E-02
CGA:   3    -0.353051302872E+03   -0.32595E-02   -0.33215E-02 10584   0.570E-02 0.813E-03
CGA:   4    -0.353052305677E+03   -0.10028E-02   -0.10079E-02 10584   0.123E-02 0.753E-04
CGA:   5    -0.353052536226E+03   -0.23055E-03   -0.23279E-03 10584   0.361E-03 0.511E-04
CGA:   6    -0.353052614772E+03   -0.78546E-04   -0.78722E-04 10584   0.130E-03 0.883E-05
CGA:   7    -0.353052647113E+03   -0.32341E-04   -0.32313E-04 10584   0.545E-04 0.181E-05
CGA:   8    -0.353052654482E+03   -0.73689E-05   -0.87921E-05 10584   0.189E-04 0.204E-04
  42 F= -.35305265E+03 E0= -.35305265E+03  d E =-.243780E-03  mag=    18.0000
       N       E                     dE             d eps       ncg     rms          ort
SDA:   1    -0.353049584142E+03    0.30630E-02    0.00000E+00 10584   0.812E-02 0.000E+00
CGA:   2    -0.353052054497E+03   -0.24704E-02   -0.24535E-02 10584   0.315E-02 0.219E-03
CGA:   3    -0.353052704404E+03   -0.64991E-03   -0.64274E-03 10584   0.139E-02-0.239E-03
CGA:   4    -0.353052885261E+03   -0.18086E-03   -0.18393E-03 10584   0.278E-03 0.365E-04
CGA:   5    -0.353052931982E+03   -0.46721E-04   -0.47351E-04 10584   0.856E-04 0.109E-04
CGA:   6    -0.353052955862E+03   -0.23880E-04   -0.31175E-04 10584   0.111E-03-0.561E-04
CGA:   7    -0.353052962330E+03   -0.64683E-05   -0.10488E-04 10584   0.175E-04 0.305E-04
  43 F= -.35305296E+03 E0= -.35305296E+03  d E =-.307848E-03  mag=    18.0000
       N       E                     dE             d eps       ncg     rms          ort
SDA:   1    -0.353044066615E+03    0.88892E-02    0.00000E+00 10584   0.224E-01 0.000E+00
CGA:   2    -0.353051042231E+03   -0.69756E-02   -0.69532E-02 10584   0.920E-02 0.241E-03
CGA:   3    -0.353052689326E+03   -0.16471E-02   -0.16284E-02 10584   0.295E-02-0.427E-03
CGA:   4    -0.353053076070E+03   -0.38674E-03   -0.40141E-03 10584   0.471E-03 0.194E-03
CGA:   5    -0.353053180059E+03   -0.10399E-03   -0.10396E-03 10584   0.160E-03-0.322E-05
CGA:   6    -0.353053219394E+03   -0.39336E-04   -0.46131E-04 10584   0.169E-03-0.908E-04
CGA:   7    -0.353053228662E+03   -0.92672E-05   -0.14925E-04 10584   0.245E-04 0.434E-04
  44 F= -.35305323E+03 E0= -.35305323E+03  d E =-.266331E-03  mag=    18.0000
       N       E                     dE             d eps       ncg     rms          ort
SDA:   1    -0.353009922194E+03    0.43297E-01    0.00000E+00 10584   0.102E+00 0.000E+00
CGA:   2    -0.353045800725E+03   -0.35879E-01   -0.35852E-01 10584   0.328E-01 0.184E-03
CGA:   3    -0.353051685002E+03   -0.58843E-02   -0.58697E-02 10584   0.930E-02-0.471E-03
CGA:   4    -0.353052963394E+03   -0.12784E-02   -0.13039E-02 10584   0.185E-02 0.377E-03
CGA:   5    -0.353053366868E+03   -0.40347E-03   -0.40341E-03 10584   0.574E-03-0.679E-04
CGA:   6    -0.353053481950E+03   -0.11508E-03   -0.11490E-03 10584   0.239E-03-0.788E-04
CGA:   7    -0.353053513833E+03   -0.31883E-04   -0.33496E-04 10584   0.682E-04 0.340E-04
CGA:   8    -0.353053534274E+03   -0.20442E-04   -0.21115E-04 10584   0.500E-04-0.107E-04
CGA:   9    -0.353053543798E+03   -0.95238E-05   -0.95860E-05 10584   0.250E-04-0.388E-05
  45 F= -.35305354E+03 E0= -.35305354E+03  d E =-.315137E-03  mag=    18.0000
       N       E                     dE             d eps       ncg     rms          ort
SDA:   1    -0.343039972160E+03    0.10014E+02    0.00000E+00 10584   0.233E+02 0.000E+00
CGA:   2    -0.351294737231E+03   -0.82548E+01   -0.82577E+01 10584   0.723E+01-0.177E-01
CGA:   3    -0.352641736787E+03   -0.13470E+01   -0.13475E+01 10584   0.174E+01 0.898E-02
CGA:   4    -0.352918118496E+03   -0.27638E+00   -0.27648E+00 10584   0.436E+00 0.200E-02
CGA:   5    -0.353000397832E+03   -0.82279E-01   -0.82253E-01 10584   0.119E+00-0.108E-02
CGA:   6    -0.353023855709E+03   -0.23458E-01   -0.23454E-01 10584   0.389E-01-0.321E-03
CGA:   7    -0.353033092911E+03   -0.92372E-02   -0.92403E-02 10584   0.151E-01-0.118E-03
CGA:   8    -0.353037375818E+03   -0.42829E-02   -0.43221E-02 10584   0.754E-02-0.516E-03
CGA:   9    -0.353039240675E+03   -0.18649E-02   -0.18528E-02 10584   0.263E-02 0.312E-03
CGA:  10    -0.353039953636E+03   -0.71296E-03   -0.72049E-03 10584   0.113E-02-0.165E-03
CGA:  11    -0.353040135029E+03   -0.18139E-03   -0.18480E-03 10584   0.319E-03 0.777E-04
CGA:  12    -0.353040231466E+03   -0.96437E-04   -0.14010E-03 10584   0.321E-03-0.226E-03
CGA:  13    -0.353040264591E+03   -0.33125E-04   -0.42840E-04 10584   0.588E-04 0.104E-03
CGA:  14    -0.353040276706E+03   -0.12115E-04   -0.13027E-04 10584   0.172E-04 0.165E-04
CGA:  15    -0.353040237590E+03    0.39115E-04   -0.22399E-04 10584   0.258E-03-0.618E-04
CGA:  16    -0.353040268318E+03   -0.30728E-04   -0.44327E-04 10584   0.701E-04 0.599E-04
CGA:  17    -0.353040293080E+03   -0.24762E-04   -0.22084E-04 10584   0.225E-04-0.200E-04
CGA:  18    -0.353040293178E+03   -0.97738E-07   -0.17533E-05 10584   0.812E-05 0.608E-05
  46 F= -.35304029E+03 E0= -.35304029E+03  d E =0.132506E-01  mag=    18.0000
       N       E                     dE             d eps       ncg     rms          ort
SDA:   1    -0.350938894672E+03    0.21014E+01    0.00000E+00 10584   0.489E+01 0.000E+00
CGA:   2    -0.352647569676E+03   -0.17087E+01   -0.17087E+01 10584   0.170E+01-0.886E-03
CGA:   3    -0.352950215235E+03   -0.30265E+00   -0.30244E+00 10584   0.430E+00 0.357E-03
CGA:   4    -0.353019029636E+03   -0.68814E-01   -0.68840E-01 10584   0.986E-01 0.829E-04
CGA:   5    -0.353037467587E+03   -0.18438E-01   -0.18528E-01 10584   0.285E-01 0.599E-03
CGA:   6    -0.353042998572E+03   -0.55310E-02   -0.55766E-02 10584   0.875E-02 0.331E-03
CGA:   7    -0.353045126644E+03   -0.21281E-02   -0.21309E-02 10584   0.340E-02 0.324E-04
CGA:   8    -0.353046045988E+03   -0.91934E-03   -0.92006E-03 10584   0.156E-02 0.145E-04
CGA:   9    -0.353046500254E+03   -0.45427E-03   -0.45174E-03 10584   0.699E-03-0.894E-04
CGA:  10    -0.353046610562E+03   -0.11031E-03   -0.12270E-03 10584   0.226E-03 0.968E-04
CGA:  11    -0.353046675903E+03   -0.65341E-04   -0.63857E-04 10584   0.766E-04-0.241E-04
CGA:  12    -0.353046687282E+03   -0.11380E-04   -0.13153E-04 10584   0.216E-04 0.155E-04
CGA:  13    -0.353046694414E+03   -0.71318E-05   -0.70998E-05 10584   0.955E-05-0.116E-05
  47 F= -.35304669E+03 E0= -.35304669E+03  d E =-.640124E-02  mag=    18.0000
       N       E                     dE             d eps       ncg     rms          ort
SDA:   1    -0.348613893705E+03    0.44328E+01    0.00000E+00 10584   0.105E+02 0.000E+00
CGA:   2    -0.352178667733E+03   -0.35648E+01   -0.35648E+01 10584   0.364E+01-0.147E-02
CGA:   3    -0.352834227234E+03   -0.65556E+00   -0.65427E+00 10584   0.943E+00 0.388E-02
CGA:   4    -0.352983990398E+03   -0.14976E+00   -0.14979E+00 10584   0.218E+00-0.224E-02
CGA:   5    -0.353024739807E+03   -0.40749E-01   -0.40801E-01 10584   0.599E-01 0.634E-03
CGA:   6    -0.353036491908E+03   -0.11752E-01   -0.11785E-01 10584   0.187E-01 0.362E-03
CGA:   7    -0.353041006789E+03   -0.45149E-02   -0.45110E-02 10584   0.726E-02-0.102E-03
CGA:   8    -0.353042944913E+03   -0.19381E-02   -0.19376E-02 10584   0.355E-02-0.607E-04
CGA:   9    -0.353043916746E+03   -0.97183E-03   -0.97172E-03 10584   0.176E-02-0.260E-03
CGA:  10    -0.353044205454E+03   -0.28871E-03   -0.30141E-03 10584   0.572E-03 0.144E-03
CGA:  11    -0.353044378562E+03   -0.17311E-03   -0.17418E-03 10584   0.214E-03-0.111E-03
CGA:  12    -0.353044422869E+03   -0.44307E-04   -0.44334E-04 10584   0.653E-04 0.175E-05
CGA:  13    -0.353044446636E+03   -0.23767E-04   -0.28382E-04 10584   0.526E-04-0.289E-04
CGA:  14    -0.353044453073E+03   -0.64365E-05   -0.66400E-05 10584   0.310E-04 0.381E-05
CGA:  15    -0.353044463562E+03   -0.10490E-04   -0.11425E-04 10584   0.211E-04-0.141E-04
CGA:  16    -0.353044464320E+03   -0.75751E-06   -0.66918E-05 10584   0.377E-04-0.198E-04
  48 F= -.35304446E+03 E0= -.35304446E+03  d E =0.223009E-02  mag=    18.0000
       N       E                     dE             d eps       ncg     rms          ort
SDA:   1    -0.352486434918E+03    0.55803E+00    0.00000E+00 10584   0.132E+01 0.000E+00
CGA:   2    -0.352905765176E+03   -0.41933E+00   -0.41932E+00 10584   0.531E+00-0.873E-04
CGA:   3    -0.353000111504E+03   -0.94346E-01   -0.94574E-01 10584   0.159E+00 0.181E-02
CGA:   4    -0.353027046669E+03   -0.26935E-01   -0.26930E-01 10584   0.361E-01-0.119E-03
CGA:   5    -0.353033874728E+03   -0.68281E-02   -0.67956E-02 10584   0.117E-01-0.366E-03
CGA:   6    -0.353036339569E+03   -0.24648E-02   -0.24466E-02 10584   0.421E-02-0.295E-03
CGA:   7    -0.353037341544E+03   -0.10020E-02   -0.10027E-02 10584   0.162E-02 0.280E-04
CGA:   8    -0.353037753838E+03   -0.41229E-03   -0.41335E-03 10584   0.614E-03 0.669E-04
CGA:   9    -0.353037919545E+03   -0.16571E-03   -0.16625E-03 10584   0.192E-03 0.600E-04
CGA:  10    -0.353037990430E+03   -0.70884E-04   -0.78156E-04 10584   0.143E-03-0.706E-04
CGA:  11    -0.353037997352E+03   -0.69227E-05   -0.10745E-04 10584   0.626E-04 0.248E-04
  49 F= -.35303800E+03 E0= -.35303800E+03  d E =0.646697E-02  mag=    18.0000
       N       E                     dE             d eps       ncg     rms          ort
SDA:   1    -0.352571416971E+03    0.46657E+00    0.00000E+00 10584   0.117E+01 0.000E+00
CGA:   2    -0.352936283258E+03   -0.36487E+00   -0.36489E+00 10584   0.474E+00-0.483E-03
CGA:   3    -0.353020674133E+03   -0.84391E-01   -0.84358E-01 10584   0.147E+00-0.184E-02
CGA:   4    -0.353044521231E+03   -0.23847E-01   -0.23916E-01 10584   0.319E-01 0.105E-02
CGA:   5    -0.353050497096E+03   -0.59759E-02   -0.59827E-02 10584   0.948E-02 0.938E-04
CGA:   6    -0.353052487786E+03   -0.19907E-02   -0.19917E-02 10584   0.346E-02 0.257E-04
CGA:   7    -0.353053318429E+03   -0.83064E-03   -0.83099E-03 10584   0.138E-02 0.489E-04
CGA:   8    -0.353053701672E+03   -0.38324E-03   -0.38676E-03 10584   0.743E-03-0.120E-03
CGA:   9    -0.353053826534E+03   -0.12486E-03   -0.12975E-03 10584   0.249E-03 0.872E-04
CGA:  10    -0.353053899674E+03   -0.73140E-04   -0.74113E-04 10584   0.114E-03-0.455E-04
CGA:  11    -0.353053913583E+03   -0.13909E-04   -0.15736E-04 10584   0.354E-04 0.238E-04
CGA:  12    -0.353053921467E+03   -0.78838E-05   -0.81031E-05 10584   0.129E-04 0.414E-05
  50 F= -.35305392E+03 E0= -.35305392E+03  d E =-.159241E-01  mag=    18.0000
       N       E                     dE             d eps       ncg     rms          ort
SDA:   1    -0.353034627734E+03    0.19286E-01    0.00000E+00 10584   0.460E-01 0.000E+00
CGA:   2    -0.353050136972E+03   -0.15509E-01   -0.15542E-01 10584   0.185E-01-0.334E-03
CGA:   3    -0.353053101857E+03   -0.29649E-02   -0.29858E-02 10584   0.442E-02 0.257E-03
CGA:   4    -0.353053846099E+03   -0.74424E-03   -0.74073E-03 10584   0.106E-02-0.474E-04
CGA:   5    -0.353054035106E+03   -0.18901E-03   -0.18914E-03 10584   0.282E-03 0.233E-05
CGA:   6    -0.353054097686E+03   -0.62581E-04   -0.62132E-04 10584   0.107E-03-0.320E-04
CGA:   7    -0.353054119033E+03   -0.21347E-04   -0.21300E-04 10584   0.380E-04-0.564E-05
CGA:   8    -0.353054125963E+03   -0.69301E-05   -0.71905E-05 10584   0.119E-04 0.783E-05
  51 F= -.35305413E+03 E0= -.35305413E+03  d E =-.204496E-03  mag=    18.0000
       N       E                     dE             d eps       ncg     rms          ort
SDA:   1    -0.352512591356E+03    0.54153E+00    0.00000E+00 10584   0.126E+01 0.000E+00
CGA:   2    -0.352946534912E+03   -0.43394E+00   -0.43399E+00 10584   0.488E+00-0.546E-03
CGA:   3    -0.353026913209E+03   -0.80378E-01   -0.80411E-01 10584   0.114E+00 0.456E-03
CGA:   4    -0.353045594082E+03   -0.18681E-01   -0.18682E-01 10584   0.264E-01-0.737E-05
CGA:   5    -0.353050481633E+03   -0.48876E-02   -0.48864E-02 10584   0.725E-02-0.278E-04
CGA:   6    -0.353051879313E+03   -0.13977E-02   -0.13967E-02 10584   0.208E-02-0.269E-04
CGA:   7    -0.353052355194E+03   -0.47588E-03   -0.47589E-03 10584   0.740E-03 0.949E-05
CGA:   8    -0.353052554636E+03   -0.19944E-03   -0.19927E-03 10584   0.319E-03 0.439E-05
CGA:   9    -0.353052642191E+03   -0.87555E-04   -0.86620E-04 10584   0.110E-03 0.245E-04
CGA:  10    -0.353052681279E+03   -0.39089E-04   -0.42424E-04 10584   0.567E-04-0.271E-04
CGA:  11    -0.353052687791E+03   -0.65113E-05   -0.71779E-05 10584   0.185E-04 0.927E-05
  52 F= -.35305269E+03 E0= -.35305269E+03  d E =0.143817E-02  mag=    18.0000
       N       E                     dE             d eps       ncg     rms          ort
SDA:   1    -0.352961345335E+03    0.91336E-01    0.00000E+00 10584   0.226E+00 0.000E+00
CGA:   2    -0.353029925424E+03   -0.68580E-01   -0.68583E-01 10584   0.105E+00-0.813E-04
CGA:   3    -0.353047181959E+03   -0.17257E-01   -0.17254E-01 10584   0.261E-01 0.577E-04
CGA:   4    -0.353051570022E+03   -0.43881E-02   -0.43604E-02 10584   0.618E-02-0.398E-03
CGA:   5    -0.353052621322E+03   -0.10513E-02   -0.10552E-02 10584   0.166E-02 0.648E-04
CGA:   6    -0.353052939640E+03   -0.31832E-03   -0.32103E-03 10584   0.461E-03 0.688E-04
CGA:   7    -0.353053058064E+03   -0.11842E-03   -0.11867E-03 10584   0.197E-03-0.137E-04
CGA:   8    -0.353053098076E+03   -0.40013E-04   -0.40443E-04 10584   0.755E-04 0.231E-04
CGA:   9    -0.353053089065E+03    0.90112E-05   -0.60503E-04 10584   0.445E-03-0.142E-03
CGA:  10    -0.353053123179E+03   -0.34114E-04   -0.47721E-04 10584   0.647E-04 0.944E-04
CGA:  11    -0.353053134802E+03   -0.11623E-04   -0.12659E-04 10584   0.139E-04 0.122E-04
CGA:  12    -0.353053001425E+03    0.13338E-03   -0.72305E-04 10584   0.105E-02-0.119E-03
CGA:  13    -0.353053085456E+03   -0.84032E-04   -0.11207E-03 10584   0.133E-03 0.104E-03
CGA:  14    -0.353053128277E+03   -0.42821E-04   -0.40769E-04 10584   0.307E-04-0.141E-04
CGA:  15    -0.353053137631E+03   -0.93541E-05   -0.13498E-04 10584   0.172E-03-0.559E-04
CGA:  16    -0.353053140145E+03   -0.25139E-05   -0.14306E-04 10584   0.139E-04 0.365E-04
  53 F= -.35305314E+03 E0= -.35305314E+03  d E =-.452354E-03  mag=    18.0000
       N       E                     dE             d eps       ncg     rms          ort
SDA:   1    -0.352991259938E+03    0.61878E-01    0.00000E+00 10584   0.147E+00 0.000E+00
CGA:   2    -0.353039303297E+03   -0.48043E-01   -0.48046E-01 10584   0.616E-01 0.265E-04
CGA:   3    -0.353049636373E+03   -0.10333E-01   -0.10371E-01 10584   0.148E-01 0.198E-03
CGA:   4    -0.353052079217E+03   -0.24428E-02   -0.24450E-02 10584   0.329E-02 0.753E-05
CGA:   5    -0.353052678818E+03   -0.59960E-03   -0.60853E-03 10584   0.907E-03 0.497E-04
CGA:   6    -0.353052863648E+03   -0.18483E-03   -0.18484E-03 10584   0.283E-03-0.590E-07
CGA:   7    -0.353052928755E+03   -0.65106E-04   -0.65464E-04 10584   0.105E-03 0.305E-05
CGA:   8    -0.353052953143E+03   -0.24389E-04   -0.25466E-04 10584   0.400E-04 0.106E-04
CGA:   9    -0.353052968746E+03   -0.15603E-04   -0.15801E-04 10584   0.264E-04-0.876E-05
CGA:  10    -0.353052969073E+03   -0.32725E-06   -0.23633E-05 10584   0.115E-04 0.915E-05
  54 F= -.35305297E+03 E0= -.35305297E+03  d E =0.171071E-03  mag=    18.0000
       N       E                     dE             d eps       ncg     rms          ort
SDA:   1    -0.353036116144E+03    0.16853E-01    0.00000E+00 10584   0.397E-01 0.000E+00
CGA:   2    -0.353049925725E+03   -0.13810E-01   -0.13807E-01 10584   0.141E-01 0.686E-04
CGA:   3    -0.353052375966E+03   -0.24502E-02   -0.24379E-02 10584   0.378E-02-0.110E-03
CGA:   4    -0.353052939523E+03   -0.56356E-03   -0.57738E-03 10584   0.787E-03 0.926E-04
CGA:   5    -0.353053131440E+03   -0.19192E-03   -0.18353E-03 10584   0.299E-03-0.114E-03
CGA:   6    -0.353053178335E+03   -0.46895E-04   -0.46180E-04 10584   0.842E-04-0.613E-05
CGA:   7    -0.353053193681E+03   -0.15346E-04   -0.16239E-04 10584   0.259E-04 0.937E-05
CGA:   8    -0.353053202691E+03   -0.90095E-05   -0.92432E-05 10584   0.203E-04-0.683E-05
  55 F= -.35305320E+03 E0= -.35305320E+03  d E =-.233617E-03  mag=    18.0000
       N       E                     dE             d eps       ncg     rms          ort
SDA:   1    -0.353039085204E+03    0.14108E-01    0.00000E+00 10584   0.328E-01 0.000E+00
CGA:   2    -0.353050523626E+03   -0.11438E-01   -0.11441E-01 10584   0.115E-01-0.423E-04
CGA:   3    -0.353052491949E+03   -0.19683E-02   -0.19701E-02 10584   0.285E-02 0.143E-04
CGA:   4    -0.353052940679E+03   -0.44873E-03   -0.44655E-03 10584   0.677E-03-0.184E-04
CGA:   5    -0.353053065105E+03   -0.12443E-03   -0.12514E-03 10584   0.175E-03 0.822E-05
CGA:   6    -0.353053098112E+03   -0.33007E-04   -0.33683E-04 10584   0.490E-04 0.861E-05
CGA:   7    -0.353053109874E+03   -0.11761E-04   -0.11852E-04 10584   0.177E-04 0.270E-05
CGA:   8    -0.353053115738E+03   -0.58642E-05   -0.59951E-05 10584   0.108E-04-0.224E-05
  56 F= -.35305312E+03 E0= -.35305312E+03  d E =0.869529E-04  mag=    18.0000
