       N       E                     dE             d eps       ncg     rms          ort
DAV:   1     0.246676752979E+04    0.24668E+04   -0.13854E+05 10080   0.163E+03
DAV:   2    -0.198105312546E+03   -0.26649E+04   -0.24632E+04 10080   0.436E+02
DAV:   3    -0.486967774990E+03   -0.28886E+03   -0.28410E+03 10080   0.162E+02
DAV:   4    -0.495694300239E+03   -0.87265E+01   -0.86346E+01 10080   0.277E+01
DAV:   5    -0.496034409160E+03   -0.34011E+00   -0.33945E+00 10080   0.436E+00
SDA:   6    -0.236191511207E+03    0.25984E+03   -0.33945E+00 10080   0.786E+03 0.000E+00
CGA:   7    -0.344849837703E+03   -0.10866E+03   -0.11031E+03 10080   0.890E+02 0.817E+01
CGA:   8    -0.362718753841E+03   -0.17869E+02   -0.17876E+02 10080   0.327E+02-0.172E+01
CGA:   9    -0.369473700829E+03   -0.67549E+01   -0.67577E+01 10080   0.156E+02 0.130E-01
CGA:  10    -0.372524879777E+03   -0.30512E+01   -0.30516E+01 10080   0.468E+01 0.153E+00
CGA:  11    -0.373492782165E+03   -0.96790E+00   -0.96782E+00 10080   0.133E+01 0.432E-02
CGA:  12    -0.373787709234E+03   -0.29493E+00   -0.29540E+00 10080   0.445E+00-0.204E-01
CGA:  13    -0.373899344784E+03   -0.11164E+00   -0.11308E+00 10080   0.174E+00-0.248E-01
CGA:  14    -0.373942942395E+03   -0.43598E-01   -0.44241E-01 10080   0.665E-01-0.970E-02
CGA:  15    -0.373959129031E+03   -0.16187E-01   -0.16180E-01 10080   0.235E-01 0.526E-04
CGA:  16    -0.373965550389E+03   -0.64214E-02   -0.64581E-02 10080   0.823E-02-0.571E-03
CGA:  17    -0.373967774565E+03   -0.22242E-02   -0.21986E-02 10080   0.284E-02 0.427E-03
CGA:  18    -0.373968590809E+03   -0.81624E-03   -0.80204E-03 10080   0.941E-03 0.278E-03
CGA:  19    -0.373968431747E+03    0.15906E-03   -0.87092E-03 10080   0.325E-02-0.164E-02
CGA:  20    -0.373969215019E+03   -0.78327E-03   -0.78601E-03 10080   0.447E-03 0.405E-03
CGA:  21    -0.373969486726E+03   -0.27171E-03    0.70773E-03 10080   0.883E-04 0.112E-03
CGA:  22    -0.373969525555E+03   -0.38829E-04   -0.39932E-04 10080   0.302E-04-0.101E-04
CGA:  23    -0.373969556270E+03   -0.30715E-04    0.26912E-05 10080   0.113E-04 0.849E-05
CGA:  24    -0.373969569453E+03   -0.13183E-04    0.23128E-05 10080   0.542E-05 0.504E-05
CGA:  25    -0.373969569772E+03   -0.31861E-06   -0.10122E-05 10080   0.347E-05 0.556E-05
   1 F= -.37396957E+03 E0= -.37396957E+03  d E =-.373970E+03  mag=    12.0000
       N       E                     dE             d eps       ncg     rms          ort
SDA:   1    -0.374003979245E+03   -0.34410E-01    0.00000E+00 10080   0.867E-02 0.000E+00
CGA:   2    -0.374006046188E+03   -0.20669E-02   -0.20670E-02 10080   0.193E-02 0.331E-03
CGA:   3    -0.374006634571E+03   -0.58838E-03   -0.60176E-03 10080   0.785E-03-0.216E-03
CGA:   4    -0.374006806970E+03   -0.17240E-03   -0.17894E-03 10080   0.662E-03-0.438E-03
CGA:   5    -0.374006845929E+03   -0.38959E-04   -0.59370E-04 10080   0.773E-04 0.133E-03
CGA:   6    -0.374006846638E+03   -0.70839E-06   -0.82137E-05 10080   0.415E-04 0.513E-04
CGA:   7    -0.374006859460E+03   -0.12822E-04   -0.12486E-04 10080   0.210E-04 0.455E-05
CGA:   8    -0.374006862668E+03   -0.32083E-05   -0.37255E-05 10080   0.521E-05 0.728E-05
   2 F= -.37400686E+03 E0= -.37400686E+03  d E =-.372929E-01  mag=    12.0000
       N       E                     dE             d eps       ncg     rms          ort
SDA:   1    -0.367617333395E+03    0.63895E+01    0.00000E+00 10080   0.234E+02 0.000E+00
CGA:   2    -0.373464225152E+03   -0.58469E+01   -0.58466E+01 10080   0.554E+01-0.236E-01
CGA:   3    -0.374908149053E+03   -0.14439E+01   -0.14447E+01 10080   0.165E+01-0.279E-01
CGA:   4    -0.375214486466E+03   -0.30634E+00   -0.30547E+00 10080   0.479E+00-0.171E-01
CGA:   5    -0.375305314302E+03   -0.90828E-01   -0.90848E-01 10080   0.138E+00 0.328E-03
CGA:   6    -0.375337947948E+03   -0.32634E-01   -0.32608E-01 10080   0.644E-01 0.238E-02
CGA:   7    -0.375357741160E+03   -0.19793E-01   -0.20071E-01 10080   0.333E-01-0.349E-02
CGA:   8    -0.375366741107E+03   -0.89999E-02   -0.90266E-02 10080   0.135E-01-0.473E-03
CGA:   9    -0.375370093845E+03   -0.33527E-02   -0.33368E-02 10080   0.422E-02 0.952E-03
CGA:  10    -0.375371546150E+03   -0.14523E-02   -0.14832E-02 10080   0.187E-02-0.331E-03
CGA:  11    -0.375371959863E+03   -0.41371E-03   -0.41329E-03 10080   0.626E-03 0.374E-03
CGA:  12    -0.375372167035E+03   -0.20717E-03   -0.20300E-03 10080   0.274E-03 0.134E-03
CGA:  13    -0.375372260424E+03   -0.93389E-04   -0.21544E-03 10080   0.584E-03-0.300E-03
CGA:  14    -0.375372299776E+03   -0.39353E-04   -0.73645E-04 10080   0.136E-03 0.254E-03
CGA:  15    -0.375372309636E+03   -0.98594E-05   -0.22166E-04 10080   0.459E-04 0.873E-04
CGA:  16    -0.375372340939E+03   -0.31303E-04    0.14980E-04 10080   0.124E-04 0.163E-04
CGA:  17    -0.375372339265E+03    0.16739E-05   -0.96787E-06 10080   0.879E-05 0.139E-04
   3 F= -.37537234E+03 E0= -.37537234E+03  d E =-.136548E+01  mag=    12.0000
       N       E                     dE             d eps       ncg     rms          ort
SDA:   1    -0.369401915005E+03    0.59704E+01    0.00000E+00 10080   0.203E+02 0.000E+00
CGA:   2    -0.374330935835E+03   -0.49290E+01   -0.49283E+01 10080   0.469E+01 0.104E-01
CGA:   3    -0.375574716941E+03   -0.12438E+01   -0.12450E+01 10080   0.137E+01-0.308E-01
CGA:   4    -0.375829438128E+03   -0.25472E+00   -0.25413E+00 10080   0.408E+00-0.135E-01
CGA:   5    -0.375904188262E+03   -0.74750E-01   -0.74815E-01 10080   0.113E+00 0.147E-02
CGA:   6    -0.375931504085E+03   -0.27316E-01   -0.27263E-01 10080   0.537E-01 0.349E-02
CGA:   7    -0.375948321564E+03   -0.16817E-01   -0.17016E-01 10080   0.298E-01-0.245E-02
CGA:   8    -0.375956739773E+03   -0.84182E-02   -0.84619E-02 10080   0.127E-01-0.642E-03
CGA:   9    -0.375959955835E+03   -0.32161E-02   -0.32006E-02 10080   0.397E-02 0.683E-03
CGA:  10    -0.375961297483E+03   -0.13416E-02   -0.13816E-02 10080   0.169E-02-0.422E-03
CGA:  11    -0.375961614912E+03   -0.31743E-03   -0.32695E-03 10080   0.549E-03 0.403E-03
CGA:  12    -0.375961764149E+03   -0.14924E-03   -0.15184E-03 10080   0.223E-03 0.169E-03
CGA:  13    -0.375961812488E+03   -0.48338E-04   -0.20696E-03 10080   0.643E-03-0.337E-03
CGA:  14    -0.375961868924E+03   -0.56437E-04   -0.89757E-04 10080   0.145E-03 0.273E-03
CGA:  15    -0.375961890170E+03   -0.21245E-04   -0.29519E-04 10080   0.384E-04 0.735E-04
CGA:  16    -0.375961929430E+03   -0.39260E-04    0.45759E-05 10080   0.110E-04 0.119E-04
CGA:  17    -0.375961927821E+03    0.16090E-05   -0.76335E-06 10080   0.786E-05 0.121E-04
   4 F= -.37596193E+03 E0= -.37596193E+03  d E =-.589589E+00  mag=    12.0000
       N       E                     dE             d eps       ncg     rms          ort
SDA:   1    -0.372220427962E+03    0.37415E+01    0.00000E+00 10080   0.118E+02 0.000E+00
CGA:   2    -0.375188674508E+03   -0.29682E+01   -0.29676E+01 10080   0.294E+01 0.966E-02
CGA:   3    -0.375962789291E+03   -0.77411E+00   -0.77419E+00 10080   0.799E+00-0.156E-02
CGA:   4    -0.376109287198E+03   -0.14650E+00   -0.14629E+00 10080   0.230E+00-0.456E-02
CGA:   5    -0.376151237442E+03   -0.41950E-01   -0.41986E-01 10080   0.631E-01 0.705E-03
CGA:   6    -0.376166487419E+03   -0.15250E-01   -0.15217E-01 10080   0.296E-01 0.249E-02
CGA:   7    -0.376175562192E+03   -0.90748E-02   -0.90636E-02 10080   0.159E-01 0.176E-03
CGA:   8    -0.376180377238E+03   -0.48150E-02   -0.47752E-02 10080   0.690E-02 0.594E-03
CGA:   9    -0.376182267096E+03   -0.18899E-02   -0.18737E-02 10080   0.219E-02 0.595E-03
CGA:  10    -0.376183060324E+03   -0.79323E-03   -0.83767E-03 10080   0.103E-02-0.385E-03
CGA:  11    -0.376183237173E+03   -0.17685E-03   -0.18238E-03 10080   0.333E-03 0.201E-03
CGA:  12    -0.376183319573E+03   -0.82400E-04   -0.84777E-04 10080   0.127E-03 0.878E-04
CGA:  13    -0.376183328510E+03   -0.89368E-05   -0.11667E-03 10080   0.439E-03-0.221E-03
CGA:  14    -0.376183374977E+03   -0.46467E-04   -0.65691E-04 10080   0.877E-04 0.169E-03
CGA:  15    -0.376183398449E+03   -0.23472E-04   -0.24407E-04 10080   0.170E-04 0.164E-04
CGA:  16    -0.376183424532E+03   -0.26083E-04    0.16636E-05 10080   0.511E-05-0.838E-06
CGA:  17    -0.376183423876E+03    0.65626E-06   -0.21196E-06 10080   0.388E-05 0.411E-05
   5 F= -.37618342E+03 E0= -.37618342E+03  d E =-.221496E+00  mag=    12.0000
       N       E                     dE             d eps       ncg     rms          ort
SDA:   1    -0.370732004915E+03    0.54514E+01    0.00000E+00 10080   0.146E+02 0.000E+00
CGA:   2    -0.374979885594E+03   -0.42479E+01   -0.42475E+01 10080   0.474E+01-0.408E-02
CGA:   3    -0.376026252000E+03   -0.10464E+01   -0.10465E+01 10080   0.130E+01 0.858E-02
CGA:   4    -0.376241755521E+03   -0.21550E+00   -0.21549E+00 10080   0.295E+00-0.150E-02
CGA:   5    -0.376297335216E+03   -0.55580E-01   -0.55573E-01 10080   0.831E-01-0.323E-03
CGA:   6    -0.376315057903E+03   -0.17723E-01   -0.17756E-01 10080   0.294E-01 0.211E-02
CGA:   7    -0.376323361782E+03   -0.83039E-02   -0.82713E-02 10080   0.140E-01 0.726E-03
CGA:   8    -0.376327613851E+03   -0.42521E-02   -0.42282E-02 10080   0.695E-02 0.372E-03
CGA:   9    -0.376329556563E+03   -0.19427E-02   -0.19148E-02 10080   0.236E-02 0.825E-03
CGA:  10    -0.376330400254E+03   -0.84369E-03   -0.84738E-03 10080   0.956E-03-0.441E-04
CGA:  11    -0.376330686668E+03   -0.28641E-03   -0.28582E-03 10080   0.352E-03 0.905E-05
CGA:  12    -0.376330776355E+03   -0.89688E-04   -0.89034E-04 10080   0.118E-03 0.898E-04
CGA:  13    -0.376330828981E+03   -0.52626E-04   -0.53323E-04 10080   0.675E-04-0.602E-05
CGA:  14    -0.376330848357E+03   -0.19376E-04   -0.19038E-04 10080   0.274E-04 0.709E-05
CGA:  15    -0.376330858463E+03   -0.10106E-04   -0.10441E-04 10080   0.121E-04-0.363E-05
CGA:  16    -0.376330866868E+03   -0.84055E-05    0.24174E-05 10080   0.442E-05 0.165E-05
CGA:  17    -0.376330842430E+03    0.24439E-04   -0.13173E-04 10080   0.107E-03-0.240E-04
CGA:  18    -0.376330870402E+03   -0.27973E-04   -0.28972E-04 10080   0.738E-05 0.503E-05
CGA:  19    -0.376330870417E+03   -0.14603E-07   -0.12352E-05 10080   0.277E-05 0.409E-05
   6 F= -.37633087E+03 E0= -.37633087E+03  d E =-.147447E+00  mag=    12.0000
       N       E                     dE             d eps       ncg     rms          ort
SDA:   1    -0.358822570114E+03    0.17508E+02    0.00000E+00 10080   0.432E+02 0.000E+00
CGA:   2    -0.372584795453E+03   -0.13762E+02   -0.13773E+02 10080   0.147E+02-0.429E-02
CGA:   3    -0.375509197708E+03   -0.29244E+01   -0.29382E+01 10080   0.372E+01 0.378E-01
CGA:   4    -0.376142152742E+03   -0.63296E+00   -0.63218E+00 10080   0.827E+00 0.544E-02
CGA:   5    -0.376297095276E+03   -0.15494E+00   -0.15460E+00 10080   0.246E+00-0.117E-02
CGA:   6    -0.376348740729E+03   -0.51645E-01   -0.52127E-01 10080   0.783E-01 0.256E-02
CGA:   7    -0.376369658742E+03   -0.20918E-01   -0.20956E-01 10080   0.348E-01 0.306E-03
CGA:   8    -0.376379630465E+03   -0.99717E-02   -0.99249E-02 10080   0.164E-01-0.502E-03
CGA:   9    -0.376384020237E+03   -0.43898E-02   -0.44799E-02 10080   0.547E-02 0.942E-03
CGA:  10    -0.376385796672E+03   -0.17764E-02   -0.17730E-02 10080   0.198E-02-0.560E-04
CGA:  11    -0.376386434943E+03   -0.63827E-03   -0.63307E-03 10080   0.808E-03-0.124E-03
CGA:  12    -0.376386614156E+03   -0.17921E-03   -0.19705E-03 10080   0.287E-03 0.173E-03
CGA:  13    -0.376386741604E+03   -0.12745E-03   -0.12750E-03 10080   0.174E-03-0.748E-05
CGA:  14    -0.376386800307E+03   -0.58703E-04   -0.58724E-04 10080   0.799E-04 0.181E-05
CGA:  15    -0.376386809198E+03   -0.88910E-05   -0.14804E-04 10080   0.312E-04 0.339E-04
   7 F= -.37638681E+03 E0= -.37638681E+03  d E =-.559388E-01  mag=    12.0000
       N       E                     dE             d eps       ncg     rms          ort
SDA:   1    -0.372426712132E+03    0.39601E+01    0.00000E+00 10080   0.951E+01 0.000E+00
CGA:   2    -0.375742173673E+03   -0.33155E+01   -0.33155E+01 10080   0.278E+01-0.665E-02
CGA:   3    -0.376292787484E+03   -0.55061E+00   -0.55220E+00 10080   0.746E+00 0.841E-02
CGA:   4    -0.376424030372E+03   -0.13124E+00   -0.13120E+00 10080   0.162E+00 0.443E-03
CGA:   5    -0.376454231831E+03   -0.30201E-01   -0.30138E-01 10080   0.500E-01-0.431E-03
CGA:   6    -0.376464158169E+03   -0.99263E-02   -0.10053E-01 10080   0.147E-01 0.106E-02
CGA:   7    -0.376467899487E+03   -0.37413E-02   -0.37915E-02 10080   0.565E-02 0.821E-03
CGA:   8    -0.376469439192E+03   -0.15397E-02   -0.15558E-02 10080   0.242E-02 0.321E-03
CGA:   9    -0.376470026707E+03   -0.58752E-03   -0.61692E-03 10080   0.708E-03 0.439E-03
CGA:  10    -0.376470230993E+03   -0.20429E-03   -0.21149E-03 10080   0.235E-03 0.138E-03
CGA:  11    -0.376470318493E+03   -0.87500E-04   -0.87575E-04 10080   0.100E-03-0.786E-05
CGA:  12    -0.376470321229E+03   -0.27368E-05   -0.12589E-04 10080   0.482E-04 0.570E-04
   8 F= -.37647032E+03 E0= -.37647032E+03  d E =-.835120E-01  mag=    12.0000
       N       E                     dE             d eps       ncg     rms          ort
SDA:   1    -0.375679453413E+03    0.79087E+00    0.00000E+00 10080   0.224E+01 0.000E+00
CGA:   2    -0.376327710397E+03   -0.64826E+00   -0.64827E+00 10080   0.756E+00-0.426E-02
CGA:   3    -0.376490714658E+03   -0.16300E+00   -0.16303E+00 10080   0.229E+00-0.228E-03
CGA:   4    -0.376529637401E+03   -0.38923E-01   -0.39009E-01 10080   0.508E-01 0.694E-03
CGA:   5    -0.376538964187E+03   -0.93268E-02   -0.93379E-02 10080   0.151E-01 0.110E-03
CGA:   6    -0.376542359381E+03   -0.33952E-02   -0.33739E-02 10080   0.554E-02-0.431E-03
CGA:   7    -0.376543926184E+03   -0.15668E-02   -0.15766E-02 10080   0.276E-02-0.420E-03
CGA:   8    -0.376544633102E+03   -0.70692E-03   -0.70822E-03 10080   0.124E-02-0.203E-03
CGA:   9    -0.376544982776E+03   -0.34967E-03   -0.35599E-03 10080   0.508E-03-0.168E-03
CGA:  10    -0.376545107680E+03   -0.12490E-03   -0.12524E-03 10080   0.160E-03-0.283E-04
CGA:  11    -0.376545154496E+03   -0.46816E-04   -0.47206E-04 10080   0.570E-04-0.984E-05
CGA:  12    -0.376545173777E+03   -0.19281E-04   -0.19816E-04 10080   0.268E-04-0.564E-05
CGA:  13    -0.376545178289E+03   -0.45115E-05   -0.51064E-05 10080   0.935E-05 0.865E-05
   9 F= -.37654518E+03 E0= -.37654518E+03  d E =-.748571E-01  mag=    12.0000
       N       E                     dE             d eps       ncg     rms          ort
SDA:   1    -0.375420582229E+03    0.11246E+01    0.00000E+00 10080   0.270E+01 0.000E+00
CGA:   2    -0.376381211217E+03   -0.96063E+00   -0.96150E+00 10080   0.735E+00-0.102E-01
CGA:   3    -0.376529023742E+03   -0.14781E+00   -0.14827E+00 10080   0.179E+00 0.582E-02
CGA:   4    -0.376559610843E+03   -0.30587E-01   -0.30551E-01 10080   0.409E-01-0.354E-03
CGA:   5    -0.376567250887E+03   -0.76400E-02   -0.76087E-02 10080   0.116E-01-0.389E-03
CGA:   6    -0.376569487131E+03   -0.22362E-02   -0.22615E-02 10080   0.316E-02 0.375E-03
CGA:   7    -0.376570298566E+03   -0.81144E-03   -0.81208E-03 10080   0.122E-02 0.587E-04
CGA:   8    -0.376570635642E+03   -0.33708E-03   -0.33672E-03 10080   0.539E-03 0.331E-04
CGA:   9    -0.376570734691E+03   -0.99049E-04   -0.11011E-03 10080   0.165E-03 0.182E-03
CGA:  10    -0.376570770949E+03   -0.36258E-04   -0.41435E-04 10080   0.621E-04 0.756E-04
CGA:  11    -0.376570797823E+03   -0.26874E-04   -0.26654E-04 10080   0.294E-04 0.545E-05
CGA:  12    -0.376570799328E+03   -0.15044E-05   -0.40235E-05 10080   0.165E-04 0.194E-04
  10 F= -.37657080E+03 E0= -.37657080E+03  d E =-.256210E-01  mag=    12.0000
       N       E                     dE             d eps       ncg     rms          ort
SDA:   1    -0.365737289309E+03    0.10834E+02    0.00000E+00 10080   0.251E+02 0.000E+00
CGA:   2    -0.374762294264E+03   -0.90250E+01   -0.90325E+01 10080   0.714E+01-0.490E-01
CGA:   3    -0.376125258152E+03   -0.13630E+01   -0.13659E+01 10080   0.170E+01 0.341E-01
CGA:   4    -0.376428332356E+03   -0.30307E+00   -0.30248E+00 10080   0.386E+00-0.632E-02
CGA:   5    -0.376499843841E+03   -0.71511E-01   -0.71344E-01 10080   0.118E+00-0.285E-02
CGA:   6    -0.376523316007E+03   -0.23472E-01   -0.23574E-01 10080   0.326E-01 0.267E-02
CGA:   7    -0.376531965549E+03   -0.86495E-02   -0.86501E-02 10080   0.138E-01-0.225E-04
CGA:   8    -0.376535852890E+03   -0.38873E-02   -0.39185E-02 10080   0.658E-02-0.674E-03
CGA:   9    -0.376537354156E+03   -0.15013E-02   -0.15015E-02 10080   0.183E-02 0.828E-03
CGA:  10    -0.376537927342E+03   -0.57319E-03   -0.56953E-03 10080   0.644E-03 0.991E-04
CGA:  11    -0.376538147249E+03   -0.21991E-03   -0.28651E-03 10080   0.586E-03-0.370E-03
CGA:  12    -0.376538194185E+03   -0.46936E-04   -0.74206E-04 10080   0.116E-03 0.219E-03
CGA:  13    -0.376538204313E+03   -0.10127E-04   -0.19164E-04 10080   0.510E-04 0.724E-04
CGA:  14    -0.376538233571E+03   -0.29258E-04    0.30030E-04 10080   0.238E-04 0.275E-04
CGA:  15    -0.376538232182E+03    0.13889E-05   -0.19620E-05 10080   0.206E-04 0.215E-04
  11 F= -.37653823E+03 E0= -.37653823E+03  d E =0.325671E-01  mag=    12.0000
       N       E                     dE             d eps       ncg     rms          ort
SDA:   1    -0.361583946432E+03    0.14954E+02    0.00000E+00 10080   0.350E+02 0.000E+00
CGA:   2    -0.374029386532E+03   -0.12445E+02   -0.12450E+02 10080   0.101E+02-0.238E-01
CGA:   3    -0.375948100353E+03   -0.19187E+01   -0.19203E+01 10080   0.252E+01 0.321E-01
CGA:   4    -0.376398431171E+03   -0.45033E+00   -0.45008E+00 10080   0.582E+00-0.684E-02
CGA:   5    -0.376505491131E+03   -0.10706E+00   -0.10691E+00 10080   0.177E+00-0.360E-02
CGA:   6    -0.376541114940E+03   -0.35624E-01   -0.35692E-01 10080   0.509E-01 0.309E-02
CGA:   7    -0.376554982279E+03   -0.13867E-01   -0.13882E-01 10080   0.224E-01-0.329E-03
CGA:   8    -0.376561233017E+03   -0.62507E-02   -0.63216E-02 10080   0.107E-01-0.122E-02
CGA:   9    -0.376563730401E+03   -0.24974E-02   -0.24813E-02 10080   0.293E-02 0.988E-03
CGA:  10    -0.376564641307E+03   -0.91091E-03   -0.91074E-03 10080   0.100E-02 0.288E-05
CGA:  11    -0.376564956939E+03   -0.31563E-03   -0.41196E-03 10080   0.829E-03-0.542E-03
CGA:  12    -0.376565036584E+03   -0.79645E-04   -0.11062E-03 10080   0.153E-03 0.287E-03
CGA:  13    -0.376565057177E+03   -0.20593E-04   -0.28934E-04 10080   0.698E-04 0.869E-04
CGA:  14    -0.376565097218E+03   -0.40040E-04    0.33621E-04 10080   0.351E-04 0.385E-04
CGA:  15    -0.376565096152E+03    0.10654E-05   -0.32724E-05 10080   0.296E-04 0.314E-04
  12 F= -.37656510E+03 E0= -.37656510E+03  d E =-.268640E-01  mag=    12.0000
       N       E                     dE             d eps       ncg     rms          ort
SDA:   1    -0.371466720985E+03    0.50984E+01    0.00000E+00 10080   0.120E+02 0.000E+00
CGA:   2    -0.375665514669E+03   -0.41988E+01   -0.42000E+01 10080   0.358E+01-0.792E-02
CGA:   3    -0.376365468536E+03   -0.69995E+00   -0.70045E+00 10080   0.925E+00 0.788E-02
CGA:   4    -0.376527711881E+03   -0.16224E+00   -0.16195E+00 10080   0.204E+00-0.497E-02
CGA:   5    -0.376565217151E+03   -0.37505E-01   -0.37447E-01 10080   0.609E-01-0.154E-02
CGA:   6    -0.376577736078E+03   -0.12519E-01   -0.12526E-01 10080   0.180E-01 0.492E-03
CGA:   7    -0.376582598627E+03   -0.48625E-02   -0.49179E-02 10080   0.811E-02-0.109E-02
CGA:   8    -0.376584809189E+03   -0.22106E-02   -0.23193E-02 10080   0.432E-02-0.133E-02
CGA:   9    -0.376585784860E+03   -0.97567E-03   -0.99596E-03 10080   0.136E-02-0.412E-03
CGA:  10    -0.376586168803E+03   -0.38394E-03   -0.44434E-03 10080   0.663E-03-0.457E-03
CGA:  11    -0.376586283107E+03   -0.11430E-03   -0.11592E-03 10080   0.212E-03-0.592E-04
CGA:  12    -0.376586338367E+03   -0.55260E-04   -0.55339E-04 10080   0.905E-04-0.168E-05
CGA:  13    -0.376586370173E+03   -0.31806E-04   -0.40110E-04 10080   0.827E-04-0.402E-04
CGA:  14    -0.376586371939E+03   -0.17662E-05   -0.51999E-05 10080   0.564E-04 0.250E-04
  13 F= -.37658637E+03 E0= -.37658637E+03  d E =-.212758E-01  mag=    12.0000
       N       E                     dE             d eps       ncg     rms          ort
SDA:   1    -0.375610182679E+03    0.97619E+00    0.00000E+00 10080   0.238E+01 0.000E+00
CGA:   2    -0.376447179940E+03   -0.83700E+00   -0.83733E+00 10080   0.677E+00-0.304E-02
CGA:   3    -0.376584278864E+03   -0.13710E+00   -0.13715E+00 10080   0.197E+00 0.909E-03
CGA:   4    -0.376618957831E+03   -0.34679E-01   -0.34595E-01 10080   0.461E-01-0.131E-02
CGA:   5    -0.376627329139E+03   -0.83713E-02   -0.83676E-02 10080   0.136E-01-0.717E-04
CGA:   6    -0.376630129677E+03   -0.28005E-02   -0.28139E-02 10080   0.430E-02 0.506E-03
CGA:   7    -0.376631357880E+03   -0.12282E-02   -0.12367E-02 10080   0.192E-02-0.190E-03
CGA:   8    -0.376631887061E+03   -0.52918E-03   -0.54786E-03 10080   0.986E-03-0.294E-03
CGA:   9    -0.376632076174E+03   -0.18911E-03   -0.18967E-03 10080   0.257E-03 0.502E-04
CGA:  10    -0.376632143798E+03   -0.67624E-04   -0.67458E-04 10080   0.852E-04 0.135E-04
CGA:  11    -0.376632171839E+03   -0.28041E-04   -0.33834E-04 10080   0.622E-04-0.416E-04
CGA:  12    -0.376632175316E+03   -0.34764E-05   -0.44607E-05 10080   0.344E-04 0.938E-05
  14 F= -.37663218E+03 E0= -.37663218E+03  d E =-.458034E-01  mag=    12.0000
       N       E                     dE             d eps       ncg     rms          ort
SDA:   1    -0.376307942352E+03    0.32423E+00    0.00000E+00 10080   0.757E+00 0.000E+00
CGA:   2    -0.376587057750E+03   -0.27912E+00   -0.27914E+00 10080   0.194E+00-0.223E-03
CGA:   3    -0.376625641816E+03   -0.38584E-01   -0.38607E-01 10080   0.482E-01 0.499E-03
CGA:   4    -0.376633747170E+03   -0.81054E-02   -0.81196E-02 10080   0.113E-01 0.186E-03
CGA:   5    -0.376635838957E+03   -0.20918E-02   -0.20941E-02 10080   0.306E-02 0.428E-04
CGA:   6    -0.376636448710E+03   -0.60975E-03   -0.61280E-03 10080   0.834E-03 0.904E-04
CGA:   7    -0.376636637726E+03   -0.18902E-03   -0.19020E-03 10080   0.273E-03 0.123E-03
CGA:   8    -0.376636703172E+03   -0.65446E-04   -0.67036E-04 10080   0.106E-03 0.936E-04
CGA:   9    -0.376636726141E+03   -0.22968E-04   -0.26046E-04 10080   0.449E-04 0.655E-04
CGA:  10    -0.376636734150E+03   -0.80092E-05   -0.87654E-05 10080   0.205E-04 0.234E-04
  15 F= -.37663673E+03 E0= -.37663673E+03  d E =-.455883E-02  mag=    12.0000
       N       E                     dE             d eps       ncg     rms          ort
SDA:   1    -0.376061949584E+03    0.57478E+00    0.00000E+00 10080   0.133E+01 0.000E+00
CGA:   2    -0.376546949593E+03   -0.48500E+00   -0.48500E+00 10080   0.326E+00-0.810E-04
CGA:   3    -0.376619392600E+03   -0.72443E-01   -0.72449E-01 10080   0.621E-01 0.605E-03
CGA:   4    -0.376630403769E+03   -0.11011E-01   -0.10978E-01 10080   0.185E-01-0.625E-03
CGA:   5    -0.376633726280E+03   -0.33225E-02   -0.33221E-02 10080   0.423E-02-0.125E-04
CGA:   6    -0.376634546820E+03   -0.82054E-03   -0.82893E-03 10080   0.126E-02 0.290E-03
CGA:   7    -0.376634886641E+03   -0.33982E-03   -0.33923E-03 10080   0.512E-03 0.209E-04
CGA:   8    -0.376635031743E+03   -0.14510E-03   -0.14273E-03 10080   0.219E-03 0.483E-04
CGA:   9    -0.376635074712E+03   -0.42969E-04   -0.46079E-04 10080   0.717E-04 0.873E-04
CGA:  10    -0.376635096011E+03   -0.21298E-04   -0.21590E-04 10080   0.284E-04 0.284E-04
CGA:  11    -0.376635110279E+03   -0.14269E-04   -0.18656E-04 10080   0.325E-04-0.179E-04
CGA:  12    -0.376635110169E+03    0.10990E-06   -0.28838E-05 10080   0.129E-04 0.201E-04
  16 F= -.37663511E+03 E0= -.37663511E+03  d E =0.162398E-02  mag=    12.0000
       N       E                     dE             d eps       ncg     rms          ort
SDA:   1    -0.367685525261E+03    0.89496E+01    0.00000E+00 10080   0.215E+02 0.000E+00
CGA:   2    -0.374852379878E+03   -0.71669E+01   -0.71701E+01 10080   0.649E+01-0.232E-01
CGA:   3    -0.376195191401E+03   -0.13428E+01   -0.13434E+01 10080   0.149E+01 0.173E-01
CGA:   4    -0.376452085503E+03   -0.25689E+00   -0.25625E+00 10080   0.352E+00-0.907E-02
CGA:   5    -0.376519365525E+03   -0.67280E-01   -0.67235E-01 10080   0.101E+00-0.138E-02
CGA:   6    -0.376539044906E+03   -0.19679E-01   -0.19742E-01 10080   0.294E-01 0.226E-02
CGA:   7    -0.376547411190E+03   -0.83663E-02   -0.84486E-02 10080   0.134E-01-0.139E-02
CGA:   8    -0.376551142672E+03   -0.37315E-02   -0.38127E-02 10080   0.688E-02-0.110E-02
CGA:   9    -0.376552756201E+03   -0.16135E-02   -0.16056E-02 10080   0.209E-02 0.309E-03
CGA:  10    -0.376553470098E+03   -0.71390E-03   -0.77447E-03 10080   0.108E-02-0.486E-03
CGA:  11    -0.376553703659E+03   -0.23356E-03   -0.24062E-03 10080   0.401E-03-0.134E-03
CGA:  12    -0.376553805594E+03   -0.10194E-03   -0.10116E-03 10080   0.167E-03 0.155E-04
CGA:  13    -0.376553867801E+03   -0.62206E-04   -0.83070E-04 10080   0.180E-03-0.880E-04
CGA:  14    -0.376553886923E+03   -0.19123E-04   -0.26674E-04 10080   0.378E-04 0.718E-04
CGA:  15    -0.376553893013E+03   -0.60896E-05   -0.80094E-05 10080   0.131E-04 0.200E-04
  17 F= -.37655389E+03 E0= -.37655389E+03  d E =0.812172E-01  mag=    12.0000
       N       E                     dE             d eps       ncg     rms          ort
SDA:   1    -0.374472277560E+03    0.20816E+01    0.00000E+00 10080   0.530E+01 0.000E+00
CGA:   2    -0.376172208092E+03   -0.16999E+01   -0.17003E+01 10080   0.174E+01-0.646E-02
CGA:   3    -0.376530045000E+03   -0.35784E+00   -0.35807E+00 10080   0.432E+00 0.482E-02
CGA:   4    -0.376604030010E+03   -0.73985E-01   -0.73921E-01 10080   0.100E+00-0.860E-03
CGA:   5    -0.376623189347E+03   -0.19159E-01   -0.19125E-01 10080   0.304E-01-0.690E-03
CGA:   6    -0.376629285940E+03   -0.60966E-02   -0.60993E-02 10080   0.917E-02 0.685E-04
CGA:   7    -0.376631833171E+03   -0.25472E-02   -0.25603E-02 10080   0.406E-02-0.313E-03
CGA:   8    -0.376632982799E+03   -0.11496E-02   -0.11823E-02 10080   0.216E-02-0.523E-03
CGA:   9    -0.376633472370E+03   -0.48957E-03   -0.49029E-03 10080   0.652E-03-0.381E-04
CGA:  10    -0.376633665007E+03   -0.19264E-03   -0.19722E-03 10080   0.246E-03-0.706E-04
CGA:  11    -0.376633719118E+03   -0.54111E-04   -0.11652E-03 10080   0.385E-03-0.219E-03
CGA:  12    -0.376633761348E+03   -0.42230E-04   -0.55361E-04 10080   0.564E-04 0.112E-03
CGA:  13    -0.376633773015E+03   -0.11667E-04   -0.13165E-04 10080   0.217E-04 0.202E-04
CGA:  14    -0.376633739827E+03    0.33188E-04   -0.32360E-04 10080   0.203E-03-0.776E-04
CGA:  15    -0.376633758245E+03   -0.18418E-04   -0.31632E-04 10080   0.537E-04 0.964E-04
CGA:  16    -0.376633772521E+03   -0.14277E-04   -0.15660E-04 10080   0.902E-05 0.156E-04
CGA:  17    -0.376633791403E+03   -0.18881E-04    0.87169E-06 10080   0.281E-05-0.484E-06
CGA:  18    -0.376633790816E+03    0.58682E-06   -0.54299E-07 10080   0.244E-05 0.245E-05
  18 F= -.37663379E+03 E0= -.37663379E+03  d E =-.798978E-01  mag=    12.0000
       N       E                     dE             d eps       ncg     rms          ort
SDA:   1    -0.376516275110E+03    0.11752E+00    0.00000E+00 10080   0.294E+00 0.000E+00
CGA:   2    -0.376616238355E+03   -0.99963E-01   -0.10000E+00 10080   0.894E-01-0.486E-03
CGA:   3    -0.376634054397E+03   -0.17816E-01   -0.17898E-01 10080   0.245E-01 0.132E-02
CGA:   4    -0.376638363894E+03   -0.43095E-02   -0.43158E-02 10080   0.581E-02 0.724E-04
CGA:   5    -0.376639528004E+03   -0.11641E-02   -0.11497E-02 10080   0.182E-02-0.260E-03
CGA:   6    -0.376639887959E+03   -0.35996E-03   -0.35972E-03 10080   0.582E-03-0.574E-05
CGA:   7    -0.376640020113E+03   -0.13215E-03   -0.13333E-03 10080   0.194E-03 0.641E-04
CGA:   8    -0.376640087576E+03   -0.67463E-04   -0.69651E-04 10080   0.120E-03-0.286E-04
CGA:   9    -0.376640116906E+03   -0.29330E-04   -0.30211E-04 10080   0.483E-04-0.198E-04
CGA:  10    -0.376640129452E+03   -0.12546E-04   -0.15166E-04 10080   0.271E-04-0.213E-04
CGA:  11    -0.376640133758E+03   -0.43061E-05   -0.61661E-05 10080   0.195E-04-0.125E-04
  19 F= -.37664013E+03 E0= -.37664013E+03  d E =-.634294E-02  mag=    12.0000
       N       E                     dE             d eps       ncg     rms          ort
SDA:   1    -0.376615204750E+03    0.24925E-01    0.00000E+00 10080   0.609E-01 0.000E+00
CGA:   2    -0.376635550078E+03   -0.20345E-01   -0.20329E-01 10080   0.188E-01 0.203E-03
CGA:   3    -0.376639517259E+03   -0.39672E-02   -0.39521E-02 10080   0.481E-02-0.291E-03
CGA:   4    -0.376640306921E+03   -0.78966E-03   -0.77874E-03 10080   0.116E-02-0.116E-03
CGA:   5    -0.376640502754E+03   -0.19583E-03   -0.19838E-03 10080   0.304E-03 0.319E-04
CGA:   6    -0.376640556533E+03   -0.53779E-04   -0.56555E-04 10080   0.788E-04 0.397E-04
CGA:   7    -0.376640583275E+03   -0.26742E-04   -0.27326E-04 10080   0.484E-04-0.988E-05
CGA:   8    -0.376640593535E+03   -0.10259E-04   -0.10250E-04 10080   0.216E-04-0.109E-05
CGA:   9    -0.376640596948E+03   -0.34135E-05   -0.38509E-05 10080   0.779E-05 0.648E-05
  20 F= -.37664060E+03 E0= -.37664060E+03  d E =-.463190E-03  mag=    12.0000
       N       E                     dE             d eps       ncg     rms          ort
SDA:   1    -0.376559571425E+03    0.81022E-01    0.00000E+00 10080   0.191E+00 0.000E+00
CGA:   2    -0.376628086908E+03   -0.68515E-01   -0.68491E-01 10080   0.488E-01 0.194E-03
CGA:   3    -0.376638812637E+03   -0.10726E-01   -0.10714E-01 10080   0.110E-01-0.412E-03
CGA:   4    -0.376640645579E+03   -0.18329E-02   -0.18189E-02 10080   0.268E-02-0.172E-03
CGA:   5    -0.376641137878E+03   -0.49230E-03   -0.49417E-03 10080   0.688E-03 0.324E-04
CGA:   6    -0.376641274938E+03   -0.13706E-03   -0.13812E-03 10080   0.207E-03 0.245E-04
CGA:   7    -0.376641341061E+03   -0.66123E-04   -0.76072E-04 10080   0.184E-03-0.861E-04
CGA:   8    -0.376641370583E+03   -0.29522E-04   -0.34005E-04 10080   0.117E-03-0.632E-04
CGA:   9    -0.376641388086E+03   -0.17503E-04   -0.17377E-04 10080   0.482E-04-0.561E-05
CGA:  10    -0.376641399811E+03   -0.11725E-04   -0.11771E-04 10080   0.243E-04-0.517E-05
CGA:  11    -0.376641406125E+03   -0.63138E-05   -0.66210E-05 10080   0.127E-04-0.540E-05
  21 F= -.37664141E+03 E0= -.37664141E+03  d E =-.809177E-03  mag=    12.0000
       N       E                     dE             d eps       ncg     rms          ort
SDA:   1    -0.372024469498E+03    0.46169E+01    0.00000E+00 10080   0.107E+02 0.000E+00
CGA:   2    -0.375917934735E+03   -0.38935E+01   -0.38953E+01 10080   0.261E+01-0.135E-01
CGA:   3    -0.376497498083E+03   -0.57956E+00   -0.57984E+00 10080   0.501E+00 0.847E-02
CGA:   4    -0.376588729675E+03   -0.91232E-01   -0.90777E-01 10080   0.132E+00-0.623E-02
CGA:   5    -0.376613668038E+03   -0.24938E-01   -0.24969E-01 10080   0.359E-01 0.534E-03
CGA:   6    -0.376620745128E+03   -0.70771E-02   -0.71326E-02 10080   0.114E-01 0.119E-02
CGA:   7    -0.376624118865E+03   -0.33737E-02   -0.34457E-02 10080   0.584E-02-0.140E-02
CGA:   8    -0.376625605070E+03   -0.14862E-02   -0.14983E-02 10080   0.258E-02-0.247E-03
CGA:   9    -0.376626219598E+03   -0.61453E-03   -0.61427E-03 10080   0.780E-03 0.117E-03
CGA:  10    -0.376626421292E+03   -0.20169E-03   -0.46393E-03 10080   0.150E-02-0.813E-03
CGA:  11    -0.376626588104E+03   -0.16681E-03   -0.21170E-03 10080   0.189E-03 0.368E-03
CGA:  12    -0.376626631699E+03   -0.43595E-04   -0.46488E-04 10080   0.634E-04 0.484E-04
CGA:  13    -0.376626675474E+03   -0.43775E-04    0.12195E-03 10080   0.308E-04 0.618E-05
CGA:  14    -0.376626680155E+03   -0.46814E-05   -0.60006E-05 10080   0.184E-04 0.172E-04
  22 F= -.37662668E+03 E0= -.37662668E+03  d E =0.147260E-01  mag=    12.0000
       N       E                     dE             d eps       ncg     rms          ort
SDA:   1    -0.374191279242E+03    0.24354E+01    0.00000E+00 10080   0.568E+01 0.000E+00
CGA:   2    -0.376219093734E+03   -0.20278E+01   -0.20292E+01 10080   0.176E+01-0.110E-01
CGA:   3    -0.376544731795E+03   -0.32564E+00   -0.32612E+00 10080   0.396E+00 0.559E-02
CGA:   4    -0.376613487980E+03   -0.68756E-01   -0.68637E-01 10080   0.914E-01-0.154E-02
CGA:   5    -0.376630391702E+03   -0.16904E-01   -0.16875E-01 10080   0.271E-01-0.513E-03
CGA:   6    -0.376635656497E+03   -0.52648E-02   -0.52911E-02 10080   0.689E-02 0.622E-03
CGA:   7    -0.376637480255E+03   -0.18238E-02   -0.18237E-02 10080   0.286E-02 0.142E-05
CGA:   8    -0.376638308287E+03   -0.82803E-03   -0.83919E-03 10080   0.147E-02-0.198E-03
CGA:   9    -0.376638647269E+03   -0.33898E-03   -0.33781E-03 10080   0.441E-03 0.165E-03
CGA:  10    -0.376638779420E+03   -0.13215E-03   -0.13095E-03 10080   0.154E-03 0.451E-04
CGA:  11    -0.376638834847E+03   -0.55427E-04   -0.79862E-04 10080   0.184E-03-0.107E-03
CGA:  12    -0.376638852038E+03   -0.17191E-04   -0.24750E-04 10080   0.338E-04 0.639E-04
CGA:  13    -0.376638857406E+03   -0.53683E-05   -0.69340E-05 10080   0.144E-04 0.165E-04
CGA:  14    -0.376638853389E+03    0.40170E-05   -0.17429E-04 10080   0.857E-04-0.376E-04
CGA:  15    -0.376638864227E+03   -0.10838E-04   -0.14572E-04 10080   0.183E-04 0.370E-04
CGA:  16    -0.376638870232E+03   -0.60046E-05   -0.60617E-05 10080   0.246E-05 0.165E-05
  23 F= -.37663887E+03 E0= -.37663887E+03  d E =-.121901E-01  mag=    12.0000
       N       E                     dE             d eps       ncg     rms          ort
SDA:   1    -0.374292027039E+03    0.23468E+01    0.00000E+00 10080   0.548E+01 0.000E+00
CGA:   2    -0.376253314961E+03   -0.19613E+01   -0.19618E+01 10080   0.151E+01-0.657E-02
CGA:   3    -0.376561209968E+03   -0.30790E+00   -0.30832E+00 10080   0.335E+00 0.535E-02
CGA:   4    -0.376618604325E+03   -0.57394E-01   -0.57151E-01 10080   0.823E-01-0.228E-02
CGA:   5    -0.376634383845E+03   -0.15780E-01   -0.15710E-01 10080   0.233E-01-0.101E-02
CGA:   6    -0.376638995342E+03   -0.46115E-02   -0.46304E-02 10080   0.671E-02 0.327E-03
CGA:   7    -0.376640917944E+03   -0.19226E-02   -0.19442E-02 10080   0.335E-02-0.687E-03
CGA:   8    -0.376641846012E+03   -0.92807E-03   -0.97253E-03 10080   0.198E-02-0.663E-03
CGA:   9    -0.376642248540E+03   -0.40253E-03   -0.40216E-03 10080   0.584E-03-0.551E-04
CGA:  10    -0.376642433343E+03   -0.18480E-03   -0.20704E-03 10080   0.335E-03-0.211E-03
CGA:  11    -0.376642493199E+03   -0.59856E-04   -0.61197E-04 10080   0.139E-03-0.634E-04
CGA:  12    -0.376642516467E+03   -0.23268E-04   -0.24436E-04 10080   0.606E-04 0.237E-04
CGA:  13    -0.376642532042E+03   -0.15574E-04   -0.16064E-04 10080   0.264E-04 0.134E-04
CGA:  14    -0.376642539828E+03   -0.77863E-05   -0.79053E-05 10080   0.127E-04 0.764E-05
  24 F= -.37664254E+03 E0= -.37664254E+03  d E =-.366960E-02  mag=    12.0000
       N       E                     dE             d eps       ncg     rms          ort
SDA:   1    -0.374823975153E+03    0.18186E+01    0.00000E+00 10080   0.420E+01 0.000E+00
CGA:   2    -0.376307489858E+03   -0.14835E+01   -0.14838E+01 10080   0.125E+01-0.421E-02
CGA:   3    -0.376554010730E+03   -0.24652E+00   -0.24672E+00 10080   0.308E+00 0.329E-02
CGA:   4    -0.376607215290E+03   -0.53205E-01   -0.53120E-01 10080   0.717E-01-0.107E-02
CGA:   5    -0.376620747242E+03   -0.13532E-01   -0.13487E-01 10080   0.217E-01-0.740E-03
CGA:   6    -0.376625048902E+03   -0.43017E-02   -0.43069E-02 10080   0.635E-02 0.109E-03
CGA:   7    -0.376626854523E+03   -0.18056E-02   -0.18215E-02 10080   0.294E-02-0.392E-03
CGA:   8    -0.376627677750E+03   -0.82323E-03   -0.85652E-03 10080   0.168E-02-0.521E-03
CGA:   9    -0.376628043651E+03   -0.36590E-03   -0.36789E-03 10080   0.513E-03-0.125E-03
CGA:  10    -0.376628195558E+03   -0.15191E-03   -0.17004E-03 10080   0.269E-03-0.169E-03
CGA:  11    -0.376628248390E+03   -0.52832E-04   -0.56635E-04 10080   0.116E-03-0.664E-04
CGA:  12    -0.376628269044E+03   -0.20654E-04   -0.20979E-04 10080   0.468E-04 0.174E-04
CGA:  13    -0.376628282717E+03   -0.13674E-04   -0.13703E-04 10080   0.207E-04 0.714E-05
CGA:  14    -0.376628289792E+03   -0.70745E-05   -0.69568E-05 10080   0.917E-05 0.357E-05
  25 F= -.37662829E+03 E0= -.37662829E+03  d E =0.142500E-01  mag=    12.0000
       N       E                     dE             d eps       ncg     rms          ort
SDA:   1    -0.374691791610E+03    0.19365E+01    0.00000E+00 10080   0.457E+01 0.000E+00
CGA:   2    -0.376317972261E+03   -0.16262E+01   -0.16269E+01 10080   0.132E+01-0.681E-02
CGA:   3    -0.376576803370E+03   -0.25883E+00   -0.25911E+00 10080   0.307E+00 0.316E-02
CGA:   4    -0.376629231612E+03   -0.52428E-01   -0.52284E-01 10080   0.721E-01-0.158E-02
CGA:   5    -0.376642691549E+03   -0.13460E-01   -0.13448E-01 10080   0.206E-01-0.196E-03
CGA:   6    -0.376646656140E+03   -0.39646E-02   -0.39956E-02 10080   0.557E-02 0.593E-03
CGA:   7    -0.376648173118E+03   -0.15170E-02   -0.15186E-02 10080   0.238E-02-0.794E-04
CGA:   8    -0.376648851610E+03   -0.67849E-03   -0.68481E-03 10080   0.119E-02-0.134E-03
CGA:   9    -0.376649118083E+03   -0.26647E-03   -0.26777E-03 10080   0.347E-03 0.157E-03
CGA:  10    -0.376649227319E+03   -0.10924E-03   -0.10860E-03 10080   0.126E-03 0.216E-04
CGA:  11    -0.376649271848E+03   -0.44529E-04   -0.59784E-04 10080   0.129E-03-0.778E-04
CGA:  12    -0.376649283680E+03   -0.11832E-04   -0.17434E-04 10080   0.246E-04 0.455E-04
CGA:  13    -0.376649287461E+03   -0.37803E-05   -0.50360E-05 10080   0.108E-04 0.124E-04
  26 F= -.37664929E+03 E0= -.37664929E+03  d E =-.209977E-01  mag=    12.0000
       N       E                     dE             d eps       ncg     rms          ort
SDA:   1    -0.376265979391E+03    0.38330E+00    0.00000E+00 10080   0.906E+00 0.000E+00
CGA:   2    -0.376574965131E+03   -0.30899E+00   -0.30883E+00 10080   0.285E+00 0.136E-02
CGA:   3    -0.376632459569E+03   -0.57494E-01   -0.57514E-01 10080   0.662E-01 0.308E-03
CGA:   4    -0.376643194225E+03   -0.10735E-01   -0.10721E-01 10080   0.152E-01-0.176E-03
CGA:   5    -0.376646085789E+03   -0.28916E-02   -0.28893E-02 10080   0.428E-02-0.450E-04
CGA:   6    -0.376646947649E+03   -0.86186E-03   -0.86458E-03 10080   0.122E-02 0.680E-04
CGA:   7    -0.376647251406E+03   -0.30376E-03   -0.30346E-03 10080   0.464E-03 0.650E-04
CGA:   8    -0.376647388233E+03   -0.13683E-03   -0.13574E-03 10080   0.217E-03 0.294E-04
CGA:   9    -0.376647457016E+03   -0.68782E-04   -0.68034E-04 10080   0.829E-04 0.142E-04
CGA:  10    -0.376647481732E+03   -0.24716E-04   -0.24422E-04 10080   0.264E-04 0.934E-05
CGA:  11    -0.376647491084E+03   -0.93520E-05   -0.93020E-05 10080   0.102E-04 0.696E-06
  27 F= -.37664749E+03 E0= -.37664749E+03  d E =0.179638E-02  mag=    12.0000
       N       E                     dE             d eps       ncg     rms          ort
SDA:   1    -0.376527151968E+03    0.12033E+00    0.00000E+00 10080   0.291E+00 0.000E+00
CGA:   2    -0.376626562133E+03   -0.99410E-01   -0.99527E-01 10080   0.920E-01-0.137E-02
CGA:   3    -0.376644752693E+03   -0.18191E-01   -0.18211E-01 10080   0.218E-01 0.327E-03
CGA:   4    -0.376648377025E+03   -0.36243E-02   -0.36145E-02 10080   0.509E-02-0.115E-03
CGA:   5    -0.376649346988E+03   -0.96996E-03   -0.96454E-03 10080   0.145E-02-0.924E-04
CGA:   6    -0.376649636909E+03   -0.28992E-03   -0.28996E-03 10080   0.404E-03 0.696E-06
CGA:   7    -0.376649760171E+03   -0.12326E-03   -0.13247E-03 10080   0.268E-03-0.111E-03
CGA:   8    -0.376649817315E+03   -0.57145E-04   -0.67052E-04 10080   0.195E-03-0.103E-03
CGA:   9    -0.376649847478E+03   -0.30163E-04   -0.30103E-04 10080   0.691E-04-0.226E-04
CGA:  10    -0.376649864931E+03   -0.17452E-04   -0.18006E-04 10080   0.357E-04-0.134E-04
CGA:  11    -0.376649872777E+03   -0.78463E-05   -0.79367E-05 10080   0.161E-04-0.448E-05
  28 F= -.37664987E+03 E0= -.37664987E+03  d E =-.238169E-02  mag=    12.0000
       N       E                     dE             d eps       ncg     rms          ort
SDA:   1    -0.376613952004E+03    0.35913E-01    0.00000E+00 10080   0.840E-01 0.000E+00
CGA:   2    -0.376644734282E+03   -0.30782E-01   -0.30751E-01 10080   0.219E-01 0.260E-03
CGA:   3    -0.376649431464E+03   -0.46972E-02   -0.46948E-02 10080   0.419E-02-0.596E-04
CGA:   4    -0.376650141910E+03   -0.71045E-03   -0.70435E-03 10080   0.121E-02-0.715E-04
CGA:   5    -0.376650355356E+03   -0.21345E-03   -0.21501E-03 10080   0.297E-03 0.220E-04
CGA:   6    -0.376650408539E+03   -0.53182E-04   -0.55070E-04 10080   0.790E-04 0.290E-04
CGA:   7    -0.376650431069E+03   -0.22530E-04   -0.22505E-04 10080   0.344E-04 0.163E-05
CGA:   8    -0.376650439148E+03   -0.80797E-05   -0.81689E-05 10080   0.141E-04 0.722E-05
  29 F= -.37665044E+03 E0= -.37665044E+03  d E =-.566371E-03  mag=    12.0000
       N       E                     dE             d eps       ncg     rms          ort
SDA:   1    -0.349551979597E+03    0.27098E+02    0.00000E+00 10080   0.648E+02 0.000E+00
CGA:   2    -0.371431141917E+03   -0.21879E+02   -0.21872E+02 10080   0.213E+02 0.103E+00
CGA:   3    -0.375504716228E+03   -0.40736E+01   -0.40789E+01 10080   0.451E+01 0.706E-01
CGA:   4    -0.376328442201E+03   -0.82373E+00   -0.82148E+00 10080   0.101E+01-0.272E-01
CGA:   5    -0.376526673831E+03   -0.19823E+00   -0.19802E+00 10080   0.353E+00-0.503E-02
CGA:   6    -0.376596154135E+03   -0.69480E-01   -0.69692E-01 10080   0.101E+00 0.501E-02
CGA:   7    -0.376625661929E+03   -0.29508E-01   -0.29720E-01 10080   0.495E-01-0.397E-02
CGA:   8    -0.376639230505E+03   -0.13569E-01   -0.13746E-01 10080   0.245E-01-0.357E-02
CGA:   9    -0.376645383158E+03   -0.61527E-02   -0.61525E-02 10080   0.726E-02 0.776E-05
CGA:  10    -0.376647679543E+03   -0.22964E-02   -0.24240E-02 10080   0.321E-02-0.141E-02
CGA:  11    -0.376648409313E+03   -0.72977E-03   -0.73999E-03 10080   0.103E-02-0.268E-03
CGA:  12    -0.376648719624E+03   -0.31031E-03   -0.31114E-03 10080   0.474E-03-0.113E-04
CGA:  13    -0.376648902349E+03   -0.18273E-03   -0.20002E-03 10080   0.317E-03-0.101E-03
CGA:  14    -0.376648924315E+03   -0.21966E-04   -0.37351E-04 10080   0.164E-03 0.136E-03
CGA:  15    -0.376648937179E+03   -0.12864E-04   -0.28135E-04 10080   0.569E-04 0.111E-03
CGA:  16    -0.376648952975E+03   -0.15796E-04   -0.49429E-04 10080   0.116E-03-0.545E-04
CGA:  17    -0.376648945289E+03    0.76854E-05   -0.88641E-05 10080   0.559E-04 0.808E-04
  30 F= -.37664895E+03 E0= -.37664895E+03  d E =0.149386E-02  mag=    12.0000
       N       E                     dE             d eps       ncg     rms          ort
SDA:   1    -0.373400580595E+03    0.32484E+01    0.00000E+00 10080   0.783E+01 0.000E+00
CGA:   2    -0.376017060661E+03   -0.26165E+01   -0.26159E+01 10080   0.241E+01 0.427E-02
CGA:   3    -0.376529399027E+03   -0.51234E+00   -0.51254E+00 10080   0.519E+00 0.325E-02
CGA:   4    -0.376614995537E+03   -0.85597E-01   -0.85384E-01 10080   0.127E+00-0.254E-02
CGA:   5    -0.376639094901E+03   -0.24099E-01   -0.24063E-01 10080   0.352E-01-0.577E-03
CGA:   6    -0.376646094230E+03   -0.69993E-02   -0.70422E-02 10080   0.107E-01 0.810E-03
CGA:   7    -0.376648951418E+03   -0.28572E-02   -0.28584E-02 10080   0.456E-02-0.115E-03
CGA:   8    -0.376650298606E+03   -0.13472E-02   -0.13553E-02 10080   0.236E-02-0.166E-03
CGA:   9    -0.376650901156E+03   -0.60255E-03   -0.60085E-03 10080   0.759E-03 0.174E-03
CGA:  10    -0.376651178245E+03   -0.27709E-03   -0.29477E-03 10080   0.396E-03-0.165E-03
CGA:  11    -0.376651262838E+03   -0.84593E-04   -0.84777E-04 10080   0.138E-03-0.138E-04
CGA:  12    -0.376651294483E+03   -0.31645E-04   -0.32167E-04 10080   0.556E-04 0.266E-04
CGA:  13    -0.376651315156E+03   -0.20673E-04   -0.20504E-04 10080   0.302E-04 0.332E-05
CGA:  14    -0.376651320955E+03   -0.57996E-05   -0.65695E-05 10080   0.144E-04 0.136E-04
  31 F= -.37665132E+03 E0= -.37665132E+03  d E =-.237567E-02  mag=    12.0000
       N       E                     dE             d eps       ncg     rms          ort
SDA:   1    -0.372485652426E+03    0.41657E+01    0.00000E+00 10080   0.973E+01 0.000E+00
CGA:   2    -0.375945644151E+03   -0.34600E+01   -0.34621E+01 10080   0.280E+01-0.205E-01
CGA:   3    -0.376516481197E+03   -0.57084E+00   -0.57153E+00 10080   0.576E+00 0.100E-01
CGA:   4    -0.376616415478E+03   -0.99934E-01   -0.99453E-01 10080   0.140E+00-0.540E-02
CGA:   5    -0.376643444054E+03   -0.27029E-01   -0.26979E-01 10080   0.400E-01-0.890E-03
CGA:   6    -0.376651043970E+03   -0.75999E-02   -0.76447E-02 10080   0.114E-01 0.779E-03
CGA:   7    -0.376654475415E+03   -0.34314E-02   -0.35359E-02 10080   0.612E-02-0.178E-02
CGA:   8    -0.376656006673E+03   -0.15313E-02   -0.15949E-02 10080   0.349E-02-0.107E-02
CGA:   9    -0.376656738848E+03   -0.73217E-03   -0.73226E-03 10080   0.105E-02-0.421E-04
CGA:  10    -0.376657080776E+03   -0.34193E-03   -0.39384E-03 10080   0.708E-03-0.409E-03
CGA:  11    -0.376657178945E+03   -0.98169E-04   -0.97125E-04 10080   0.276E-03-0.307E-04
CGA:  12    -0.376657230141E+03   -0.51196E-04   -0.53066E-04 10080   0.127E-03 0.334E-04
CGA:  13    -0.376657273635E+03   -0.43493E-04   -0.45018E-04 10080   0.788E-04-0.251E-04
CGA:  14    -0.376657283389E+03   -0.97544E-05   -0.11306E-04 10080   0.451E-04 0.197E-04
  32 F= -.37665728E+03 E0= -.37665728E+03  d E =-.596243E-02  mag=    12.0000
       N       E                     dE             d eps       ncg     rms          ort
SDA:   1    -0.376323971913E+03    0.33330E+00    0.00000E+00 10080   0.803E+00 0.000E+00
CGA:   2    -0.376584658051E+03   -0.26069E+00   -0.26069E+00 10080   0.307E+00-0.278E-03
CGA:   3    -0.376641627651E+03   -0.56970E-01   -0.56957E-01 10080   0.747E-01-0.403E-03
CGA:   4    -0.376654562218E+03   -0.12935E-01   -0.12901E-01 10080   0.171E-01-0.467E-03
CGA:   5    -0.376657627027E+03   -0.30648E-02   -0.30692E-02 10080   0.466E-02 0.691E-04
CGA:   6    -0.376658570765E+03   -0.94374E-03   -0.94997E-03 10080   0.131E-02 0.168E-03
CGA:   7    -0.376658933541E+03   -0.36278E-03   -0.36473E-03 10080   0.587E-03-0.649E-04
CGA:   8    -0.376659085472E+03   -0.15193E-03   -0.15301E-03 10080   0.255E-03-0.314E-04
CGA:   9    -0.376659145227E+03   -0.59756E-04   -0.59582E-04 10080   0.762E-04 0.327E-04
CGA:  10    -0.376659170948E+03   -0.25720E-04   -0.25769E-04 10080   0.310E-04-0.869E-06
CGA:  11    -0.376659179673E+03   -0.87255E-05   -0.87206E-05 10080   0.112E-04 0.107E-06
  33 F= -.37665918E+03 E0= -.37665918E+03  d E =-.189628E-02  mag=    12.0000
       N       E                     dE             d eps       ncg     rms          ort
SDA:   1    -0.375891427898E+03    0.76774E+00    0.00000E+00 10080   0.182E+01 0.000E+00
CGA:   2    -0.376529398835E+03   -0.63797E+00   -0.63788E+00 10080   0.517E+00 0.430E-03
CGA:   3    -0.376639582677E+03   -0.11018E+00   -0.11026E+00 10080   0.988E-01 0.168E-02
CGA:   4    -0.376656448287E+03   -0.16866E-01   -0.16797E-01 10080   0.266E-01-0.840E-03
CGA:   5    -0.376661432122E+03   -0.49838E-02   -0.49794E-02 10080   0.680E-02-0.819E-04
CGA:   6    -0.376662742803E+03   -0.13107E-02   -0.13263E-02 10080   0.197E-02 0.332E-03
CGA:   7    -0.376663269524E+03   -0.52672E-03   -0.52601E-03 10080   0.804E-03 0.516E-04
CGA:   8    -0.376663513114E+03   -0.24359E-03   -0.24225E-03 10080   0.410E-03 0.256E-04
CGA:   9    -0.376663616539E+03   -0.10342E-03   -0.10336E-03 10080   0.132E-03 0.826E-04
CGA:  10    -0.376663667067E+03   -0.50529E-04   -0.50550E-04 10080   0.609E-04-0.322E-06
CGA:  11    -0.376663686382E+03   -0.19315E-04   -0.19886E-04 10080   0.279E-04-0.721E-05
CGA:  12    -0.376663689506E+03   -0.31237E-05   -0.41169E-05 10080   0.127E-04 0.118E-04
  34 F= -.37666369E+03 E0= -.37666369E+03  d E =-.450983E-02  mag=    12.0000
       N       E                     dE             d eps       ncg     rms          ort
SDA:   1    -0.374783338450E+03    0.18803E+01    0.00000E+00 10080   0.462E+01 0.000E+00
CGA:   2    -0.376257527515E+03   -0.14742E+01   -0.14735E+01 10080   0.154E+01 0.651E-02
CGA:   3    -0.376582012645E+03   -0.32449E+00   -0.32451E+00 10080   0.347E+00 0.633E-03
CGA:   4    -0.376637527803E+03   -0.55515E-01   -0.55439E-01 10080   0.795E-01-0.123E-02
CGA:   5    -0.376652644093E+03   -0.15116E-01   -0.15097E-01 10080   0.219E-01-0.421E-03
CGA:   6    -0.376657026688E+03   -0.43826E-02   -0.43942E-02 10080   0.659E-02 0.319E-03
CGA:   7    -0.376658733737E+03   -0.17070E-02   -0.17054E-02 10080   0.273E-02 0.816E-04
CGA:   8    -0.376659544421E+03   -0.81068E-03   -0.81082E-03 10080   0.142E-02-0.242E-05
CGA:   9    -0.376659964214E+03   -0.41979E-03   -0.41659E-03 10080   0.538E-03 0.584E-04
CGA:  10    -0.376660153383E+03   -0.18917E-03   -0.19978E-03 10080   0.261E-03-0.927E-04
CGA:  11    -0.376660214552E+03   -0.61169E-04   -0.61356E-04 10080   0.866E-04-0.531E-05
CGA:  12    -0.376660239231E+03   -0.24679E-04   -0.24319E-04 10080   0.342E-04 0.969E-05
CGA:  13    -0.376660251556E+03   -0.12326E-04   -0.12031E-04 10080   0.157E-04 0.450E-05
CGA:  14    -0.376660254498E+03   -0.29416E-05   -0.34539E-05 10080   0.655E-05 0.841E-05
  35 F= -.37666025E+03 E0= -.37666025E+03  d E =0.343501E-02  mag=    12.0000
       N       E                     dE             d eps       ncg     rms          ort
SDA:   1    -0.321724538932E+03    0.54936E+02    0.00000E+00 10080   0.178E+03 0.000E+00
CGA:   2    -0.352766501538E+03   -0.31042E+02   -0.33780E+02 10080   0.694E+02 0.940E+01
CGA:   3    -0.368246271957E+03   -0.15480E+02   -0.15536E+02 10080   0.162E+02 0.547E+00
CGA:   4    -0.371682636808E+03   -0.34364E+01   -0.34311E+01 10080   0.446E+01-0.639E-01
CGA:   5    -0.372453728922E+03   -0.77109E+00   -0.77041E+00 10080   0.119E+01 0.111E-02
CGA:   6    -0.372713709044E+03   -0.25998E+00   -0.26029E+00 10080   0.395E+00 0.101E-01
CGA:   7    -0.372824935256E+03   -0.11123E+00   -0.11130E+00 10080   0.182E+00-0.212E-02
CGA:   8    -0.372871763649E+03   -0.46828E-01   -0.46883E-01 10080   0.667E-01-0.367E-02
CGA:   9    -0.372890347246E+03   -0.18584E-01   -0.18589E-01 10080   0.211E-01-0.122E-03
CGA:  10    -0.372896410425E+03   -0.60632E-02   -0.60742E-02 10080   0.638E-02-0.267E-03
CGA:  11    -0.372898216385E+03   -0.18060E-02   -0.18053E-02 10080   0.172E-02 0.170E-04
CGA:  12    -0.372898713450E+03   -0.49707E-03   -0.49086E-03 10080   0.500E-03 0.182E-03
CGA:  13    -0.372898933157E+03   -0.21971E-03   -0.23603E-03 10080   0.345E-03-0.944E-04
CGA:  14    -0.372898971601E+03   -0.38445E-04   -0.48722E-04 10080   0.151E-03 0.117E-03
CGA:  15    -0.372898990616E+03   -0.19015E-04   -0.28612E-04 10080   0.622E-04 0.827E-04
CGA:  16    -0.372899013015E+03   -0.22399E-04   -0.45067E-04 10080   0.175E-03-0.478E-04
CGA:  17    -0.372899013959E+03   -0.94403E-06   -0.15256E-04 10080   0.392E-04 0.763E-04
  36 F= -.37289901E+03 E0= -.37289901E+03  d E =0.376124E+01  mag=    12.0000
       N       E                     dE             d eps       ncg     rms          ort
SDA:   1    -0.362937274512E+03    0.99617E+01    0.00000E+00 10080   0.304E+02 0.000E+00
CGA:   2    -0.372842443933E+03   -0.99052E+01   -0.98954E+01 10080   0.117E+02 0.792E-01
CGA:   3    -0.374991269501E+03   -0.21488E+01   -0.21520E+01 10080   0.318E+01 0.293E-01
CGA:   4    -0.375627525115E+03   -0.63626E+00   -0.63631E+00 10080   0.775E+00-0.955E-03
CGA:   5    -0.375758785253E+03   -0.13126E+00   -0.13122E+00 10080   0.233E+00-0.663E-03
CGA:   6    -0.375812088102E+03   -0.53303E-01   -0.53346E-01 10080   0.803E-01 0.225E-02
CGA:   7    -0.375833814310E+03   -0.21726E-01   -0.21710E-01 10080   0.365E-01 0.766E-03
CGA:   8    -0.375843023794E+03   -0.92095E-02   -0.92084E-02 10080   0.130E-01 0.638E-03
CGA:   9    -0.375846571993E+03   -0.35482E-02   -0.35380E-02 10080   0.382E-02 0.529E-03
CGA:  10    -0.375847811190E+03   -0.12392E-02   -0.12859E-02 10080   0.166E-02-0.634E-03
CGA:  11    -0.375848152595E+03   -0.34140E-03   -0.34164E-03 10080   0.428E-03 0.341E-04
CGA:  12    -0.375848265494E+03   -0.11290E-03   -0.11264E-03 10080   0.157E-03 0.514E-04
CGA:  13    -0.375848327360E+03   -0.61867E-04   -0.99814E-04 10080   0.256E-03-0.121E-03
CGA:  14    -0.375848357909E+03   -0.30548E-04   -0.40056E-04 10080   0.460E-04 0.846E-04
CGA:  15    -0.375848375284E+03   -0.17375E-04   -0.17471E-04 10080   0.231E-04-0.427E-05
CGA:  16    -0.375848396126E+03   -0.20842E-04    0.31586E-05 10080   0.135E-04 0.285E-05
CGA:  17    -0.375848404822E+03   -0.86961E-05    0.23071E-04 10080   0.857E-05 0.290E-05
  37 F= -.37584840E+03 E0= -.37584840E+03  d E =-.294939E+01  mag=    12.0000
       N       E                     dE             d eps       ncg     rms          ort
SDA:   1    -0.370675690945E+03    0.51727E+01    0.00000E+00 10080   0.138E+02 0.000E+00
CGA:   2    -0.375093706254E+03   -0.44180E+01   -0.44176E+01 10080   0.550E+01 0.992E-03
CGA:   3    -0.376133817041E+03   -0.10401E+01   -0.10404E+01 10080   0.156E+01 0.963E-02
CGA:   4    -0.376431095895E+03   -0.29728E+00   -0.29749E+00 10080   0.402E+00 0.418E-02
CGA:   5    -0.376499467388E+03   -0.68371E-01   -0.68416E-01 10080   0.113E+00 0.193E-03
CGA:   6    -0.376526172465E+03   -0.26705E-01   -0.26705E-01 10080   0.426E-01-0.522E-04
CGA:   7    -0.376537239651E+03   -0.11067E-01   -0.11055E-01 10080   0.184E-01 0.130E-02
CGA:   8    -0.376541870642E+03   -0.46310E-02   -0.46372E-02 10080   0.635E-02 0.105E-02
CGA:   9    -0.376543734846E+03   -0.18642E-02   -0.18604E-02 10080   0.196E-02 0.144E-03
CGA:  10    -0.376544304604E+03   -0.56976E-03   -0.57136E-03 10080   0.623E-03-0.490E-04
CGA:  11    -0.376544477270E+03   -0.17267E-03   -0.17331E-03 10080   0.176E-03-0.206E-04
CGA:  12    -0.376544523114E+03   -0.45844E-04   -0.45536E-04 10080   0.553E-04 0.255E-04
CGA:  13    -0.376544536932E+03   -0.13818E-04   -0.14478E-04 10080   0.234E-04 0.245E-04
CGA:  14    -0.376544544234E+03   -0.73016E-05   -0.77027E-05 10080   0.128E-04 0.149E-04
  38 F= -.37654454E+03 E0= -.37654454E+03  d E =-.696139E+00  mag=    12.0000
       N       E                     dE             d eps       ncg     rms          ort
SDA:   1    -0.376143350895E+03    0.40119E+00    0.00000E+00 10080   0.118E+01 0.000E+00
CGA:   2    -0.376507079792E+03   -0.36373E+00   -0.36341E+00 10080   0.444E+00 0.661E-02
CGA:   3    -0.376593076870E+03   -0.85997E-01   -0.86081E-01 10080   0.141E+00 0.126E-02
CGA:   4    -0.376618573268E+03   -0.25496E-01   -0.25645E-01 10080   0.336E-01 0.175E-02
CGA:   5    -0.376624512405E+03   -0.59391E-02   -0.59492E-02 10080   0.912E-02 0.986E-04
CGA:   6    -0.376626728268E+03   -0.22159E-02   -0.22090E-02 10080   0.385E-02-0.502E-03
CGA:   7    -0.376627505852E+03   -0.77758E-03   -0.79256E-03 10080   0.129E-02 0.409E-03
CGA:   8    -0.376627756438E+03   -0.25059E-03   -0.27613E-03 10080   0.421E-03 0.428E-03
CGA:   9    -0.376627890024E+03   -0.13359E-03   -0.13457E-03 10080   0.180E-03 0.106E-03
CGA:  10    -0.376627956472E+03   -0.66448E-04   -0.66617E-04 10080   0.848E-04-0.362E-05
CGA:  11    -0.376627965195E+03   -0.87230E-05   -0.12504E-04 10080   0.327E-04 0.374E-04
  39 F= -.37662797E+03 E0= -.37662797E+03  d E =-.834210E-01  mag=    12.0000
       N       E                     dE             d eps       ncg     rms          ort
SDA:   1    -0.376084841561E+03    0.54311E+00    0.00000E+00 10080   0.144E+01 0.000E+00
CGA:   2    -0.376511116049E+03   -0.42627E+00   -0.42586E+00 10080   0.570E+00 0.677E-02
CGA:   3    -0.376621421531E+03   -0.11031E+00   -0.11039E+00 10080   0.178E+00 0.156E-02
CGA:   4    -0.376654063044E+03   -0.32642E-01   -0.32731E-01 10080   0.436E-01 0.154E-02
CGA:   5    -0.376661724871E+03   -0.76618E-02   -0.76617E-02 10080   0.114E-01-0.207E-04
CGA:   6    -0.376664388438E+03   -0.26636E-02   -0.26634E-02 10080   0.436E-02-0.482E-03
CGA:   7    -0.376665330221E+03   -0.94178E-03   -0.94507E-03 10080   0.150E-02 0.407E-03
CGA:   8    -0.376665654250E+03   -0.32403E-03   -0.33576E-03 10080   0.483E-03 0.407E-03
CGA:   9    -0.376665818011E+03   -0.16376E-03   -0.16098E-03 10080   0.200E-03 0.944E-04
CGA:  10    -0.376665879071E+03   -0.61060E-04   -0.60413E-04 10080   0.735E-04 0.338E-04
CGA:  11    -0.376665893342E+03   -0.14271E-04   -0.15965E-04 10080   0.239E-04 0.343E-04
CGA:  12    -0.376665899219E+03   -0.58771E-05   -0.64763E-05 10080   0.873E-05 0.125E-04
  40 F= -.37666590E+03 E0= -.37666590E+03  d E =-.379340E-01  mag=    12.0000
       N       E                     dE             d eps       ncg     rms          ort
SDA:   1    -0.376630749111E+03    0.35144E-01    0.00000E+00 10080   0.108E+00 0.000E+00
CGA:   2    -0.376656248101E+03   -0.25499E-01   -0.25504E-01 10080   0.465E-01 0.116E-02
CGA:   3    -0.376665941574E+03   -0.96935E-02   -0.96997E-02 10080   0.157E-01 0.163E-03
CGA:   4    -0.376668616758E+03   -0.26752E-02   -0.26721E-02 10080   0.393E-02-0.475E-04
CGA:   5    -0.376669320200E+03   -0.70344E-03   -0.69874E-03 10080   0.103E-02-0.841E-04
CGA:   6    -0.376669543646E+03   -0.22345E-03   -0.22238E-03 10080   0.360E-03-0.100E-03
CGA:   7    -0.376669615309E+03   -0.71662E-04   -0.71674E-04 10080   0.118E-03 0.103E-05
CGA:   8    -0.376669638932E+03   -0.23623E-04   -0.24222E-04 10080   0.334E-04 0.233E-04
CGA:   9    -0.376669652541E+03   -0.13609E-04   -0.15279E-04 10080   0.292E-04-0.110E-04
CGA:  10    -0.376669657801E+03   -0.52596E-05   -0.57628E-05 10080   0.180E-04-0.891E-05
  41 F= -.37666966E+03 E0= -.37666966E+03  d E =-.375858E-02  mag=    12.0000
       N       E                     dE             d eps       ncg     rms          ort
SDA:   1    -0.376546015662E+03    0.12364E+00    0.00000E+00 10080   0.376E+00 0.000E+00
CGA:   2    -0.376626369410E+03   -0.80354E-01   -0.80433E-01 10080   0.151E+00 0.255E-02
CGA:   3    -0.376659706277E+03   -0.33337E-01   -0.33326E-01 10080   0.570E-01-0.565E-03
CGA:   4    -0.376669406688E+03   -0.97004E-02   -0.96575E-02 10080   0.140E-01-0.631E-03
CGA:   5    -0.376671830222E+03   -0.24235E-02   -0.24148E-02 10080   0.335E-02-0.145E-03
CGA:   6    -0.376672528294E+03   -0.69807E-03   -0.69583E-03 10080   0.997E-03-0.998E-04
CGA:   7    -0.376672760309E+03   -0.23201E-03   -0.23264E-03 10080   0.386E-03-0.695E-04
CGA:   8    -0.376672851745E+03   -0.91436E-04   -0.92034E-04 10080   0.138E-03-0.248E-04
CGA:   9    -0.376672892939E+03   -0.41195E-04   -0.57200E-04 10080   0.147E-03-0.767E-04
CGA:  10    -0.376672917350E+03   -0.24410E-04   -0.24931E-04 10080   0.210E-04 0.701E-05
CGA:  11    -0.376672923955E+03   -0.66051E-05   -0.65138E-05 10080   0.738E-05 0.163E-05
  42 F= -.37667292E+03 E0= -.37667292E+03  d E =-.326615E-02  mag=    12.0000
       N       E                     dE             d eps       ncg     rms          ort
SDA:   1    -0.376646525767E+03    0.26392E-01    0.00000E+00 10080   0.705E-01 0.000E+00
CGA:   2    -0.376665292030E+03   -0.18766E-01   -0.18873E-01 10080   0.241E-01 0.572E-03
CGA:   3    -0.376670616675E+03   -0.53246E-02   -0.52337E-02 10080   0.860E-02-0.419E-03
CGA:   4    -0.376672057858E+03   -0.14412E-02   -0.13811E-02 10080   0.176E-02-0.233E-03
CGA:   5    -0.376672379997E+03   -0.32214E-03   -0.31687E-03 10080   0.502E-03-0.241E-04
CGA:   6    -0.376672482640E+03   -0.10264E-03   -0.96929E-04 10080   0.167E-03-0.282E-04
CGA:   7    -0.376672543914E+03   -0.61275E-04   -0.61269E-04 10080   0.171E-03-0.873E-04
CGA:   8    -0.376672572650E+03   -0.28736E-04   -0.27805E-04 10080   0.310E-04-0.417E-05
CGA:   9    -0.376672550995E+03    0.21655E-04   -0.29996E-04 10080   0.366E-03-0.841E-04
CGA:  10    -0.376672601379E+03   -0.50383E-04   -0.54928E-04 10080   0.364E-04 0.175E-04
CGA:  11    -0.376672609083E+03   -0.77049E-05   -0.85429E-05 10080   0.377E-05 0.489E-05
CGA:  12    -0.376672549506E+03    0.59577E-04   -0.32284E-04 10080   0.285E-03-0.333E-04
CGA:  13    -0.376672603157E+03   -0.53650E-04   -0.59150E-04 10080   0.375E-04 0.110E-04
CGA:  14    -0.376672619513E+03   -0.16357E-04   -0.14359E-04 10080   0.470E-05-0.642E-05
CGA:  15    -0.376672618212E+03    0.13011E-05   -0.31808E-06 10080   0.254E-05 0.278E-05
  43 F= -.37667262E+03 E0= -.37667262E+03  d E =0.305743E-03  mag=    12.0000
       N       E                     dE             d eps       ncg     rms          ort
SDA:   1    -0.376477568688E+03    0.19505E+00    0.00000E+00 10080   0.551E+00 0.000E+00
CGA:   2    -0.376617865013E+03   -0.14030E+00   -0.14103E+00 10080   0.163E+00 0.167E-02
CGA:   3    -0.376657851421E+03   -0.39986E-01   -0.39625E-01 10080   0.501E-01-0.943E-03
CGA:   4    -0.376666076160E+03   -0.82247E-02   -0.81179E-02 10080   0.114E-01-0.305E-03
CGA:   5    -0.376668210507E+03   -0.21343E-02   -0.21071E-02 10080   0.300E-02-0.781E-04
CGA:   6    -0.376668890335E+03   -0.67983E-03   -0.64669E-03 10080   0.110E-02-0.104E-03
CGA:   7    -0.376669216650E+03   -0.32632E-03   -0.30380E-03 10080   0.544E-03-0.969E-04
CGA:   8    -0.376669397113E+03   -0.18046E-03   -0.16336E-03 10080   0.338E-03-0.965E-04
CGA:   9    -0.376669515048E+03   -0.11793E-03   -0.10285E-03 10080   0.212E-03-0.118E-03
CGA:  10    -0.376669555000E+03   -0.39952E-04   -0.36091E-04 10080   0.694E-04-0.168E-04
CGA:  11    -0.376669568854E+03   -0.13854E-04   -0.15488E-04 10080   0.261E-04 0.687E-05
CGA:  12    -0.376669575805E+03   -0.69508E-05   -0.76129E-05 10080   0.122E-04 0.326E-05
  44 F= -.37666958E+03 E0= -.37666958E+03  d E =0.304241E-02  mag=    12.0000
       N       E                     dE             d eps       ncg     rms          ort
SDA:   1    -0.376514731038E+03    0.15484E+00    0.00000E+00 10080   0.410E+00 0.000E+00
CGA:   2    -0.376624840754E+03   -0.11011E+00   -0.11041E+00 10080   0.139E+00 0.133E-02
CGA:   3    -0.376656467291E+03   -0.31627E-01   -0.31550E-01 10080   0.416E-01-0.432E-03
CGA:   4    -0.376663352673E+03   -0.68854E-02   -0.67906E-02 10080   0.919E-02-0.366E-03
CGA:   5    -0.376665114171E+03   -0.17615E-02   -0.17319E-02 10080   0.261E-02-0.136E-03
CGA:   6    -0.376665647078E+03   -0.53291E-03   -0.52787E-03 10080   0.860E-03-0.267E-04
CGA:   7    -0.376665893604E+03   -0.24653E-03   -0.24171E-03 10080   0.417E-03-0.457E-04
CGA:   8    -0.376666026565E+03   -0.13296E-03   -0.12813E-03 10080   0.261E-03-0.803E-04
CGA:   9    -0.376666089062E+03   -0.62498E-04   -0.60170E-04 10080   0.965E-04-0.243E-04
CGA:  10    -0.376666111999E+03   -0.22937E-04   -0.23327E-04 10080   0.313E-04 0.351E-05
CGA:  11    -0.376666124713E+03   -0.12714E-04   -0.13096E-04 10080   0.236E-04-0.118E-04
CGA:  12    -0.376666126013E+03   -0.12999E-05   -0.23809E-05 10080   0.122E-04 0.511E-05
  45 F= -.37666613E+03 E0= -.37666613E+03  d E =0.344979E-02  mag=    12.0000
       N       E                     dE             d eps       ncg     rms          ort
SDA:   1    -0.376601063917E+03    0.65061E-01    0.00000E+00 10080   0.167E+00 0.000E+00
CGA:   2    -0.376652800680E+03   -0.51737E-01   -0.51730E-01 10080   0.729E-01-0.207E-03
CGA:   3    -0.376665758040E+03   -0.12957E-01   -0.13026E-01 10080   0.176E-01 0.380E-03
CGA:   4    -0.376668787882E+03   -0.30298E-02   -0.30456E-02 10080   0.428E-02 0.888E-04
CGA:   5    -0.376669569860E+03   -0.78198E-03   -0.77949E-03 10080   0.111E-02-0.175E-04
CGA:   6    -0.376669789248E+03   -0.21939E-03   -0.22496E-03 10080   0.318E-03 0.458E-04
CGA:   7    -0.376669854583E+03   -0.65335E-04   -0.70562E-04 10080   0.102E-03 0.496E-04
CGA:   8    -0.376669874244E+03   -0.19662E-04   -0.23582E-04 10080   0.358E-04 0.350E-04
CGA:   9    -0.376669878840E+03   -0.45956E-05   -0.79735E-05 10080   0.157E-04 0.239E-04
  46 F= -.37666988E+03 E0= -.37666988E+03  d E =-.375283E-02  mag=    12.0000
       N       E                     dE             d eps       ncg     rms          ort
SDA:   1    -0.376602927612E+03    0.66947E-01    0.00000E+00 10080   0.161E+00 0.000E+00
CGA:   2    -0.376659705551E+03   -0.56778E-01   -0.56777E-01 10080   0.520E-01-0.107E-04
CGA:   3    -0.376669361633E+03   -0.96561E-02   -0.96980E-02 10080   0.127E-01 0.353E-03
CGA:   4    -0.376671473601E+03   -0.21120E-02   -0.21233E-02 10080   0.294E-02 0.873E-04
CGA:   5    -0.376672027011E+03   -0.55341E-03   -0.55414E-03 10080   0.839E-03 0.676E-05
CGA:   6    -0.376672183959E+03   -0.15695E-03   -0.16166E-03 10080   0.226E-03 0.527E-04
CGA:   7    -0.376672227043E+03   -0.43085E-04   -0.47569E-04 10080   0.726E-04 0.566E-04
CGA:   8    -0.376672237748E+03   -0.10705E-04   -0.15035E-04 10080   0.311E-04 0.404E-04
CGA:   9    -0.376672240907E+03   -0.31581E-05   -0.50923E-05 10080   0.160E-04 0.186E-04
  47 F= -.37667224E+03 E0= -.37667224E+03  d E =-.236207E-02  mag=    12.0000
       N       E                     dE             d eps       ncg     rms          ort
SDA:   1    -0.376202860159E+03    0.46938E+00    0.00000E+00 10080   0.113E+01 0.000E+00
CGA:   2    -0.376583374224E+03   -0.38051E+00   -0.38049E+00 10080   0.340E+00 0.468E-04
CGA:   3    -0.376657663737E+03   -0.74290E-01   -0.74335E-01 10080   0.661E-01 0.955E-03
CGA:   4    -0.376668882851E+03   -0.11219E-01   -0.11167E-01 10080   0.175E-01-0.591E-03
CGA:   5    -0.376672175918E+03   -0.32931E-02   -0.32930E-02 10080   0.434E-02-0.376E-05
CGA:   6    -0.376673032624E+03   -0.85671E-03   -0.86969E-03 10080   0.133E-02 0.256E-03
CGA:   7    -0.376673399083E+03   -0.36646E-03   -0.36639E-03 10080   0.563E-03 0.663E-05
CGA:   8    -0.376673552825E+03   -0.15374E-03   -0.15234E-03 10080   0.247E-03 0.699E-04
CGA:   9    -0.376673608565E+03   -0.55740E-04   -0.59231E-04 10080   0.849E-04 0.950E-04
CGA:  10    -0.376673639035E+03   -0.30470E-04   -0.30239E-04 10080   0.386E-04 0.260E-04
CGA:  11    -0.376673655030E+03   -0.15995E-04   -0.15653E-04 10080   0.184E-04 0.553E-05
CGA:  12    -0.376673655468E+03   -0.43783E-06   -0.24067E-05 10080   0.110E-04 0.143E-04
  48 F= -.37667366E+03 E0= -.37667366E+03  d E =-.141456E-02  mag=    12.0000
       N       E                     dE             d eps       ncg     rms          ort
SDA:   1    -0.368467369175E+03    0.82063E+01    0.00000E+00 10080   0.205E+02 0.000E+00
CGA:   2    -0.374908051048E+03   -0.64407E+01   -0.64395E+01 10080   0.656E+01 0.705E-02
CGA:   3    -0.376351659463E+03   -0.14436E+01   -0.14441E+01 10080   0.128E+01 0.164E-01
CGA:   4    -0.376574584580E+03   -0.22293E+00   -0.22198E+00 10080   0.300E+00-0.125E-01
CGA:   5    -0.376633002646E+03   -0.58418E-01   -0.58435E-01 10080   0.826E-01 0.305E-03
CGA:   6    -0.376649139865E+03   -0.16137E-01   -0.16232E-01 10080   0.272E-01 0.235E-02
CGA:   7    -0.376657172282E+03   -0.80324E-02   -0.81616E-02 10080   0.133E-01-0.221E-02
CGA:   8    -0.376660902634E+03   -0.37304E-02   -0.37482E-02 10080   0.699E-02-0.258E-03
CGA:   9    -0.376662747603E+03   -0.18450E-02   -0.18339E-02 10080   0.240E-02 0.402E-03
CGA:  10    -0.376663640779E+03   -0.89318E-03   -0.10929E-02 10080   0.201E-02-0.105E-02
CGA:  11    -0.376663804336E+03   -0.16356E-03   -0.18275E-03 10080   0.950E-03 0.216E-03
CGA:  12    -0.376663921294E+03   -0.11696E-03   -0.14579E-03 10080   0.400E-03 0.266E-03
CGA:  13    -0.376664034576E+03   -0.11328E-03   -0.11369E-03 10080   0.225E-03 0.215E-04
CGA:  14    -0.376664096293E+03   -0.61717E-04   -0.98487E-04 10080   0.342E-03-0.210E-03
CGA:  15    -0.376664103180E+03   -0.68873E-05   -0.34886E-04 10080   0.116E-03 0.191E-03
CGA:  16    -0.376664111186E+03   -0.80054E-05   -0.15543E-04 10080   0.435E-04 0.698E-04
CGA:  17    -0.376664122261E+03   -0.11075E-04   -0.10844E-04 10080   0.866E-05 0.178E-04
CGA:  18    -0.376664123250E+03   -0.98957E-06   -0.17237E-05 10080   0.392E-05 0.768E-05
  49 F= -.37666412E+03 E0= -.37666412E+03  d E =0.953222E-02  mag=    12.0000
       N       E                     dE             d eps       ncg     rms          ort
SDA:   1    -0.375197149228E+03    0.14670E+01    0.00000E+00 10080   0.355E+01 0.000E+00
CGA:   2    -0.376248061224E+03   -0.10509E+01   -0.10503E+01 10080   0.149E+01 0.775E-02
CGA:   3    -0.376524961551E+03   -0.27690E+00   -0.27673E+00 10080   0.418E+00-0.423E-02
CGA:   4    -0.376599607092E+03   -0.74646E-01   -0.74536E-01 10080   0.105E+00-0.237E-02
CGA:   5    -0.376618094922E+03   -0.18488E-01   -0.18487E-01 10080   0.261E-01-0.589E-04
CGA:   6    -0.376623715564E+03   -0.56206E-02   -0.56210E-02 10080   0.854E-02 0.625E-04
CGA:   7    -0.376625927003E+03   -0.22114E-02   -0.22192E-02 10080   0.344E-02-0.203E-03
CGA:   8    -0.376626842804E+03   -0.91580E-03   -0.92821E-03 10080   0.141E-02-0.230E-03
CGA:   9    -0.376627250655E+03   -0.40785E-03   -0.44136E-03 10080   0.641E-03-0.307E-03
CGA:  10    -0.376627398817E+03   -0.14816E-03   -0.16068E-03 10080   0.243E-03-0.140E-03
CGA:  11    -0.376627458541E+03   -0.59724E-04   -0.71507E-04 10080   0.118E-03-0.832E-04
CGA:  12    -0.376627484236E+03   -0.25696E-04   -0.36480E-04 10080   0.845E-04-0.473E-04
CGA:  13    -0.376627502832E+03   -0.18595E-04   -0.20439E-04 10080   0.383E-04-0.123E-04
CGA:  14    -0.376627511171E+03   -0.83398E-05   -0.23277E-04 10080   0.604E-04-0.332E-04
  50 F= -.37662751E+03 E0= -.37662751E+03  d E =0.366121E-01  mag=    12.0000
       N       E                     dE             d eps       ncg     rms          ort
SDA:   1    -0.373840114584E+03    0.27874E+01    0.00000E+00 10080   0.730E+01 0.000E+00
CGA:   2    -0.375979159412E+03   -0.21390E+01   -0.21390E+01 10080   0.260E+01-0.517E-02
CGA:   3    -0.376519971047E+03   -0.54081E+00   -0.54096E+00 10080   0.693E+00 0.192E-02
CGA:   4    -0.376631624401E+03   -0.11165E+00   -0.11178E+00 10080   0.151E+00 0.701E-03
CGA:   5    -0.376660517325E+03   -0.28893E-01   -0.28892E-01 10080   0.418E-01-0.599E-04
CGA:   6    -0.376669282675E+03   -0.87653E-02   -0.87593E-02 10080   0.136E-01-0.117E-03
CGA:   7    -0.376672961968E+03   -0.36793E-02   -0.36831E-02 10080   0.600E-02-0.351E-03
CGA:   8    -0.376674695826E+03   -0.17339E-02   -0.17484E-02 10080   0.310E-02-0.389E-03
CGA:   9    -0.376675580536E+03   -0.88471E-03   -0.89172E-03 10080   0.122E-02-0.161E-03
CGA:  10    -0.376675944043E+03   -0.36351E-03   -0.36850E-03 10080   0.460E-03-0.977E-04
CGA:  11    -0.376676077516E+03   -0.13347E-03   -0.13433E-03 10080   0.167E-03-0.179E-04
CGA:  12    -0.376676133679E+03   -0.56164E-04   -0.55773E-04 10080   0.707E-04 0.498E-05
CGA:  13    -0.376676162401E+03   -0.28722E-04   -0.29198E-04 10080   0.330E-04-0.384E-05
CGA:  14    -0.376676167685E+03   -0.52846E-05   -0.63272E-05 10080   0.116E-04 0.133E-04
  51 F= -.37667617E+03 E0= -.37667617E+03  d E =-.486565E-01  mag=    12.0000
       N       E                     dE             d eps       ncg     rms          ort
SDA:   1    -0.376455110928E+03    0.22105E+00    0.00000E+00 10080   0.603E+00 0.000E+00
CGA:   2    -0.376615699733E+03   -0.16059E+00   -0.16060E+00 10080   0.197E+00 0.181E-02
CGA:   3    -0.376661294405E+03   -0.45595E-01   -0.45573E-01 10080   0.572E-01-0.593E-03
CGA:   4    -0.376670663337E+03   -0.93689E-02   -0.93139E-02 10080   0.131E-01-0.533E-03
CGA:   5    -0.376673144760E+03   -0.24814E-02   -0.24715E-02 10080   0.360E-02-0.136E-03
CGA:   6    -0.376673880193E+03   -0.73543E-03   -0.73706E-03 10080   0.122E-02 0.295E-04
CGA:   7    -0.376674228183E+03   -0.34799E-03   -0.34906E-03 10080   0.590E-03-0.422E-04
CGA:   8    -0.376674398451E+03   -0.17027E-03   -0.17218E-03 10080   0.313E-03-0.445E-04
CGA:   9    -0.376674482561E+03   -0.84110E-04   -0.84156E-04 10080   0.116E-03-0.166E-05
CGA:  10    -0.376674520313E+03   -0.37751E-04   -0.38943E-04 10080   0.515E-04-0.160E-04
CGA:  11    -0.376674532655E+03   -0.12342E-04   -0.12320E-04 10080   0.169E-04 0.209E-05
CGA:  12    -0.376674538106E+03   -0.54510E-05   -0.54079E-05 10080   0.705E-05 0.105E-05
  52 F= -.37667454E+03 E0= -.37667454E+03  d E =0.162958E-02  mag=    12.0000
       N       E                     dE             d eps       ncg     rms          ort
SDA:   1    -0.376342146852E+03    0.33239E+00    0.00000E+00 10080   0.958E+00 0.000E+00
CGA:   2    -0.376586507991E+03   -0.24436E+00   -0.24442E+00 10080   0.290E+00 0.434E-02
CGA:   3    -0.376657143562E+03   -0.70636E-01   -0.70616E-01 10080   0.814E-01-0.937E-03
CGA:   4    -0.376670130451E+03   -0.12987E-01   -0.12922E-01 10080   0.192E-01-0.627E-03
CGA:   5    -0.376673791857E+03   -0.36614E-02   -0.36448E-02 10080   0.505E-02-0.248E-03
CGA:   6    -0.376674853249E+03   -0.10614E-02   -0.10600E-02 10080   0.189E-02-0.335E-04
CGA:   7    -0.376675373591E+03   -0.52034E-03   -0.52058E-03 10080   0.911E-03-0.108E-04
CGA:   8    -0.376675656276E+03   -0.28269E-03   -0.28386E-03 10080   0.515E-03-0.206E-04
CGA:   9    -0.376675817418E+03   -0.16114E-03   -0.16390E-03 10080   0.232E-03-0.414E-04
CGA:  10    -0.376675887282E+03   -0.69864E-04   -0.73267E-04 10080   0.985E-04-0.419E-04
CGA:  11    -0.376675911171E+03   -0.23889E-04   -0.24120E-04 10080   0.319E-04-0.710E-05
CGA:  12    -0.376675918959E+03   -0.77884E-05   -0.78093E-05 10080   0.102E-04 0.523E-05
  53 F= -.37667592E+03 E0= -.37667592E+03  d E =-.138085E-02  mag=    12.0000
       N       E                     dE             d eps       ncg     rms          ort
SDA:   1    -0.374827068412E+03    0.18488E+01    0.00000E+00 10080   0.512E+01 0.000E+00
CGA:   2    -0.376139879761E+03   -0.13128E+01   -0.13130E+01 10080   0.171E+01 0.140E-01
CGA:   3    -0.376525748111E+03   -0.38587E+00   -0.38581E+00 10080   0.540E+00-0.207E-02
CGA:   4    -0.376612519398E+03   -0.86771E-01   -0.86719E-01 10080   0.120E+00-0.888E-03
CGA:   5    -0.376635296541E+03   -0.22777E-01   -0.22758E-01 10080   0.331E-01-0.340E-03
CGA:   6    -0.376642260056E+03   -0.69635E-02   -0.69582E-02 10080   0.114E-01-0.131E-03
CGA:   7    -0.376645279093E+03   -0.30190E-02   -0.30150E-02 10080   0.507E-02 0.262E-03
CGA:   8    -0.376646748691E+03   -0.14696E-02   -0.14638E-02 10080   0.239E-02 0.189E-03
CGA:   9    -0.376647572392E+03   -0.82370E-03   -0.83230E-03 10080   0.116E-02-0.104E-03
CGA:  10    -0.376647914688E+03   -0.34230E-03   -0.34387E-03 10080   0.444E-03-0.299E-04
CGA:  11    -0.376648061939E+03   -0.14725E-03   -0.15225E-03 10080   0.193E-03-0.547E-04
CGA:  12    -0.376648116873E+03   -0.54934E-04   -0.54829E-04 10080   0.694E-04 0.163E-05
CGA:  13    -0.376648134036E+03   -0.17163E-04   -0.17498E-04 10080   0.225E-04 0.193E-04
CGA:  14    -0.376648142888E+03   -0.88520E-05   -0.87240E-05 10080   0.903E-05 0.350E-05
  54 F= -.37664814E+03 E0= -.37664814E+03  d E =0.277761E-01  mag=    12.0000
       N       E                     dE             d eps       ncg     rms          ort
SDA:   1    -0.376035943689E+03    0.61219E+00    0.00000E+00 10080   0.167E+01 0.000E+00
CGA:   2    -0.376508443305E+03   -0.47250E+00   -0.47263E+00 10080   0.596E+00-0.818E-02
CGA:   3    -0.376633234868E+03   -0.12479E+00   -0.12489E+00 10080   0.179E+00 0.140E-02
CGA:   4    -0.376663098836E+03   -0.29864E-01   -0.29866E-01 10080   0.412E-01 0.735E-06
CGA:   5    -0.376670840374E+03   -0.77415E-02   -0.77407E-02 10080   0.114E-01-0.169E-04
CGA:   6    -0.376673193408E+03   -0.23530E-02   -0.23621E-02 10080   0.375E-02 0.190E-03
CGA:   7    -0.376674301277E+03   -0.11079E-02   -0.11196E-02 10080   0.188E-02-0.287E-03
CGA:   8    -0.376674808460E+03   -0.50718E-03   -0.51863E-03 10080   0.978E-03-0.261E-03
CGA:   9    -0.376675014878E+03   -0.20642E-03   -0.20724E-03 10080   0.301E-03 0.742E-04
CGA:  10    -0.376675101599E+03   -0.86721E-04   -0.86457E-04 10080   0.115E-03 0.253E-04
CGA:  11    -0.376675143474E+03   -0.41875E-04   -0.43862E-04 10080   0.671E-04-0.208E-04
CGA:  12    -0.376675153356E+03   -0.98815E-05   -0.10967E-04 10080   0.292E-04 0.175E-04
  55 F= -.37667515E+03 E0= -.37667515E+03  d E =-.270105E-01  mag=    12.0000
       N       E                     dE             d eps       ncg     rms          ort
SDA:   1    -0.376623597452E+03    0.51546E-01    0.00000E+00 10080   0.131E+00 0.000E+00
CGA:   2    -0.376660089036E+03   -0.36492E-01   -0.36499E-01 10080   0.611E-01-0.410E-03
CGA:   3    -0.376671408712E+03   -0.11320E-01   -0.11301E-01 10080   0.164E-01-0.286E-03
CGA:   4    -0.376674282274E+03   -0.28736E-02   -0.28651E-02 10080   0.419E-02-0.108E-03
CGA:   5    -0.376675022706E+03   -0.74043E-03   -0.74007E-03 10080   0.106E-02-0.543E-05
CGA:   6    -0.376675248231E+03   -0.22553E-03   -0.22427E-03 10080   0.332E-03-0.357E-04
CGA:   7    -0.376675343701E+03   -0.95470E-04   -0.10392E-03 10080   0.235E-03-0.108E-03
CGA:   8    -0.376675387424E+03   -0.43723E-04   -0.49801E-04 10080   0.138E-03-0.937E-04
CGA:   9    -0.376675411550E+03   -0.24125E-04   -0.27251E-04 10080   0.658E-04-0.411E-04
CGA:  10    -0.376675424636E+03   -0.13087E-04   -0.13322E-04 10080   0.278E-04-0.751E-05
CGA:  11    -0.376675428983E+03   -0.43464E-05   -0.48501E-05 10080   0.114E-04 0.822E-05
  56 F= -.37667543E+03 E0= -.37667543E+03  d E =-.275627E-03  mag=    12.0000
       N       E                     dE             d eps       ncg     rms          ort
SDA:   1    -0.376645085301E+03    0.30339E-01    0.00000E+00 10080   0.857E-01 0.000E+00
CGA:   2    -0.376667580000E+03   -0.22495E-01   -0.22478E-01 10080   0.264E-01 0.140E-02
CGA:   3    -0.376674030748E+03   -0.64507E-02   -0.64491E-02 10080   0.740E-02-0.154E-03
CGA:   4    -0.376675211090E+03   -0.11803E-02   -0.11752E-02 10080   0.177E-02-0.590E-04
CGA:   5    -0.376675549116E+03   -0.33803E-03   -0.33602E-03 10080   0.488E-03-0.368E-04
CGA:   6    -0.376675648411E+03   -0.99294E-04   -0.99204E-04 10080   0.173E-03-0.262E-05
CGA:   7    -0.376675683018E+03   -0.34607E-04   -0.35953E-04 10080   0.609E-04 0.414E-04
CGA:   8    -0.376675696249E+03   -0.13232E-04   -0.14608E-04 10080   0.288E-04 0.296E-04
CGA:   9    -0.376675706558E+03   -0.10308E-04   -0.10272E-04 10080   0.162E-04 0.138E-04
CGA:  10    -0.376675714232E+03   -0.76740E-05   -0.74042E-05 10080   0.900E-05 0.376E-05
  57 F= -.37667571E+03 E0= -.37667571E+03  d E =-.285249E-03  mag=    12.0000
       N       E                     dE             d eps       ncg     rms          ort
SDA:   1    -0.376636502514E+03    0.39204E-01    0.00000E+00 10080   0.110E+00 0.000E+00
CGA:   2    -0.376664213063E+03   -0.27711E-01   -0.27696E-01 10080   0.323E-01 0.103E-02
CGA:   3    -0.376672249095E+03   -0.80360E-02   -0.80357E-02 10080   0.945E-02 0.520E-04
CGA:   4    -0.376673735192E+03   -0.14861E-02   -0.14974E-02 10080   0.217E-02 0.132E-03
CGA:   5    -0.376674168639E+03   -0.43345E-03   -0.43226E-03 10080   0.608E-03-0.303E-04
CGA:   6    -0.376674316667E+03   -0.14803E-03   -0.14943E-03 10080   0.313E-03-0.950E-04
CGA:   7    -0.376674369199E+03   -0.52532E-04   -0.53955E-04 10080   0.109E-03 0.464E-04
CGA:   8    -0.376674395300E+03   -0.26101E-04   -0.26717E-04 10080   0.504E-04 0.310E-04
CGA:   9    -0.376674392216E+03    0.30842E-05   -0.49604E-04 10080   0.287E-03-0.990E-04
CGA:  10    -0.376674427497E+03   -0.35281E-04   -0.41424E-04 10080   0.350E-04 0.535E-04
CGA:  11    -0.376674440180E+03   -0.12683E-04   -0.13549E-04 10080   0.134E-04-0.119E-04
CGA:  12    -0.376674446897E+03   -0.67172E-05    0.24088E-05 10080   0.564E-05-0.145E-05
  58 F= -.37667445E+03 E0= -.37667445E+03  d E =0.126733E-02  mag=    12.0000
       N       E                     dE             d eps       ncg     rms          ort
SDA:   1    -0.376311594529E+03    0.36285E+00    0.00000E+00 10080   0.103E+01 0.000E+00
CGA:   2    -0.376573225928E+03   -0.26163E+00   -0.26161E+00 10080   0.304E+00 0.278E-02
CGA:   3    -0.376649527508E+03   -0.76302E-01   -0.76302E-01 10080   0.812E-01-0.481E-03
CGA:   4    -0.376662719926E+03   -0.13192E-01   -0.13158E-01 10080   0.197E-01-0.410E-03
CGA:   5    -0.376666523578E+03   -0.38037E-02   -0.37943E-02 10080   0.514E-02-0.185E-03
CGA:   6    -0.376667644911E+03   -0.11213E-02   -0.11199E-02 10080   0.207E-02-0.656E-04
CGA:   7    -0.376668226520E+03   -0.58161E-03   -0.58514E-03 10080   0.105E-02-0.788E-04
CGA:   8    -0.376668565151E+03   -0.33863E-03   -0.35052E-03 10080   0.660E-03-0.117E-03
CGA:   9    -0.376668745134E+03   -0.17998E-03   -0.18571E-03 10080   0.287E-03-0.850E-04
CGA:  10    -0.376668819321E+03   -0.74187E-04   -0.75809E-04 10080   0.966E-04-0.321E-04
CGA:  11    -0.376668848207E+03   -0.28886E-04   -0.31144E-04 10080   0.449E-04-0.209E-04
CGA:  12    -0.376668857963E+03   -0.97568E-05   -0.96971E-05 10080   0.151E-04 0.377E-05
  59 F= -.37666886E+03 E0= -.37666886E+03  d E =0.558893E-02  mag=    12.0000
       N       E                     dE             d eps       ncg     rms          ort
SDA:   1    -0.376057125334E+03    0.61172E+00    0.00000E+00 10080   0.183E+01 0.000E+00
CGA:   2    -0.376502602205E+03   -0.44548E+00   -0.44557E+00 10080   0.493E+00 0.465E-02
CGA:   3    -0.376633027656E+03   -0.13043E+00   -0.13043E+00 10080   0.121E+00-0.798E-03
CGA:   4    -0.376654342368E+03   -0.21315E-01   -0.21244E-01 10080   0.335E-01-0.937E-03
CGA:   5    -0.376660540343E+03   -0.61980E-02   -0.61838E-02 10080   0.839E-02-0.224E-03
CGA:   6    -0.376662442340E+03   -0.19020E-02   -0.19023E-02 10080   0.375E-02 0.104E-04
CGA:   7    -0.376663551268E+03   -0.11089E-02   -0.11180E-02 10080   0.208E-02-0.187E-03
CGA:   8    -0.376664207743E+03   -0.65648E-03   -0.66812E-03 10080   0.117E-02-0.134E-03
CGA:   9    -0.376664517191E+03   -0.30945E-03   -0.30958E-03 10080   0.420E-03-0.539E-05
CGA:  10    -0.376664647848E+03   -0.13066E-03   -0.13424E-03 10080   0.163E-03-0.558E-04
CGA:  11    -0.376664687305E+03   -0.39458E-04   -0.39419E-04 10080   0.532E-04 0.206E-05
CGA:  12    -0.376664701111E+03   -0.13805E-04   -0.13846E-04 10080   0.177E-04 0.105E-04
CGA:  13    -0.376664706797E+03   -0.56860E-05   -0.56561E-05 10080   0.654E-05 0.458E-05
  60 F= -.37666471E+03 E0= -.37666471E+03  d E =0.415117E-02  mag=    12.0000
       N       E                     dE             d eps       ncg     rms          ort
SDA:   1    -0.376469907497E+03    0.19479E+00    0.00000E+00 10080   0.486E+00 0.000E+00
CGA:   2    -0.376606299852E+03   -0.13639E+00   -0.13630E+00 10080   0.212E+00 0.315E-02
CGA:   3    -0.376647467740E+03   -0.41168E-01   -0.41154E-01 10080   0.609E-01-0.285E-03
CGA:   4    -0.376658016281E+03   -0.10549E-01   -0.10532E-01 10080   0.148E-01-0.228E-03
CGA:   5    -0.376660614869E+03   -0.25986E-02   -0.26019E-02 10080   0.367E-02 0.428E-04
CGA:   6    -0.376661410800E+03   -0.79593E-03   -0.79635E-03 10080   0.122E-02 0.141E-04
CGA:   7    -0.376661702512E+03   -0.29171E-03   -0.29206E-03 10080   0.447E-03 0.631E-04
CGA:   8    -0.376661807499E+03   -0.10499E-03   -0.10638E-03 10080   0.150E-03 0.821E-04
CGA:   9    -0.376661861357E+03   -0.53858E-04   -0.53077E-04 10080   0.681E-04 0.137E-04
CGA:  10    -0.376661885483E+03   -0.24125E-04   -0.24477E-04 10080   0.344E-04-0.418E-05
CGA:  11    -0.376661889386E+03   -0.39038E-05   -0.51825E-05 10080   0.134E-04 0.144E-04
  61 F= -.37666189E+03 E0= -.37666189E+03  d E =0.281741E-02  mag=    12.0000
       N       E                     dE             d eps       ncg     rms          ort
SDA:   1    -0.376360998325E+03    0.30089E+00    0.00000E+00 10080   0.890E+00 0.000E+00
CGA:   2    -0.376588564958E+03   -0.22757E+00   -0.22764E+00 10080   0.256E+00-0.503E-02
CGA:   3    -0.376653526699E+03   -0.64962E-01   -0.64944E-01 10080   0.608E-01 0.109E-02
CGA:   4    -0.376664102358E+03   -0.10576E-01   -0.10586E-01 10080   0.167E-01 0.128E-03
CGA:   5    -0.376667133053E+03   -0.30307E-02   -0.30418E-02 10080   0.413E-02 0.193E-03
CGA:   6    -0.376668070487E+03   -0.93743E-03   -0.93852E-03 10080   0.179E-02 0.108E-03
CGA:   7    -0.376668626110E+03   -0.55562E-03   -0.56882E-03 10080   0.108E-02-0.174E-03
CGA:   8    -0.376668924218E+03   -0.29811E-03   -0.30074E-03 10080   0.560E-03-0.380E-04
CGA:   9    -0.376669057313E+03   -0.13309E-03   -0.13278E-03 10080   0.180E-03 0.731E-04
CGA:  10    -0.376669119397E+03   -0.62084E-04   -0.62370E-04 10080   0.750E-04-0.453E-05
CGA:  11    -0.376669137737E+03   -0.18340E-04   -0.18288E-04 10080   0.261E-04 0.993E-05
CGA:  12    -0.376669145329E+03   -0.75917E-05   -0.75316E-05 10080   0.105E-04 0.628E-05
CGA:  13    -0.376669101251E+03    0.44077E-04   -0.23938E-04 10080   0.212E-03-0.487E-04
CGA:  14    -0.376669137494E+03   -0.36243E-04   -0.43680E-04 10080   0.261E-04 0.307E-04
CGA:  15    -0.376669151295E+03   -0.13801E-04   -0.17137E-04 10080   0.394E-04-0.243E-04
CGA:  16    -0.376669150893E+03    0.40153E-06   -0.47869E-05 10080   0.897E-05 0.162E-04
  62 F= -.37666915E+03 E0= -.37666915E+03  d E =-.726151E-02  mag=    12.0000
       N       E                     dE             d eps       ncg     rms          ort
SDA:   1    -0.376650993808E+03    0.18157E-01    0.00000E+00 10080   0.491E-01 0.000E+00
CGA:   2    -0.376663290465E+03   -0.12297E-01   -0.12346E-01 10080   0.173E-01 0.285E-03
CGA:   3    -0.376667119704E+03   -0.38292E-02   -0.38287E-02 10080   0.566E-02-0.111E-04
CGA:   4    -0.376668081798E+03   -0.96209E-03   -0.94367E-03 10080   0.132E-02-0.819E-04
CGA:   5    -0.376668328714E+03   -0.24692E-03   -0.24143E-03 10080   0.369E-03-0.282E-04
CGA:   6    -0.376668404132E+03   -0.75418E-04   -0.75290E-04 10080   0.119E-03-0.876E-06
CGA:   7    -0.376668436703E+03   -0.32571E-04   -0.32338E-04 10080   0.569E-04-0.254E-05
CGA:   8    -0.376668452530E+03   -0.15827E-04   -0.15716E-04 10080   0.266E-04-0.143E-05
CGA:   9    -0.376668460036E+03   -0.75058E-05   -0.75736E-05 10080   0.104E-04 0.104E-05
  63 F= -.37666846E+03 E0= -.37666846E+03  d E =0.690858E-03  mag=    12.0000
       N       E                     dE             d eps       ncg     rms          ort
SDA:   1    -0.376659369281E+03    0.90832E-02    0.00000E+00 10080   0.218E-01 0.000E+00
CGA:   2    -0.376666557335E+03   -0.71881E-02   -0.71887E-02 10080   0.786E-02 0.214E-04
CGA:   3    -0.376668052029E+03   -0.14947E-02   -0.14931E-02 10080   0.198E-02-0.108E-04
CGA:   4    -0.376668381101E+03   -0.32907E-03   -0.33352E-03 10080   0.430E-03 0.251E-04
CGA:   5    -0.376668459326E+03   -0.78226E-04   -0.79842E-04 10080   0.115E-03 0.106E-04
CGA:   6    -0.376668490644E+03   -0.31318E-04   -0.29823E-04 10080   0.515E-04-0.203E-04
CGA:   7    -0.376668502344E+03   -0.11700E-04   -0.11237E-04 10080   0.226E-04-0.793E-05
CGA:   8    -0.376668507225E+03   -0.48814E-05   -0.47937E-05 10080   0.849E-05-0.127E-05
  64 F= -.37666851E+03 E0= -.37666851E+03  d E =-.471896E-04  mag=    12.0000
       N       E                     dE             d eps       ncg     rms          ort
SDA:   1    -0.376661360177E+03    0.71422E-02    0.00000E+00 10080   0.160E-01 0.000E+00
CGA:   2    -0.376666706619E+03   -0.53464E-02   -0.53452E-02 10080   0.614E-02 0.191E-03
CGA:   3    -0.376667804678E+03   -0.10981E-02   -0.10912E-02 10080   0.150E-02-0.470E-04
CGA:   4    -0.376668051914E+03   -0.24724E-03   -0.24229E-03 10080   0.362E-03-0.315E-04
CGA:   5    -0.376668112498E+03   -0.60584E-04   -0.60458E-04 10080   0.981E-04-0.962E-06
CGA:   6    -0.376668132620E+03   -0.20122E-04   -0.19924E-04 10080   0.273E-04-0.193E-05
CGA:   7    -0.376668141055E+03   -0.84346E-05   -0.86434E-05 10080   0.187E-04-0.984E-05
  65 F= -.37666814E+03 E0= -.37666814E+03  d E =0.366171E-03  mag=    12.0000
