       N       E                     dE             d eps       ncg     rms          rms(c)
DAV:   1     0.245906844192E+04    0.24591E+04   -0.13160E+05 25656   0.156E+03
DAV:   2    -0.117137143783E+03   -0.25762E+04   -0.23947E+04 26392   0.422E+02
DAV:   3    -0.411394449307E+03   -0.29426E+03   -0.28822E+03 27632   0.160E+02
DAV:   4    -0.421903647749E+03   -0.10509E+02   -0.10406E+02 31600   0.299E+01
DAV:   5    -0.422395254774E+03   -0.49161E+00   -0.49037E+00 39272   0.487E+00    0.811E+00
DAV:   6    -0.347276373696E+03    0.75119E+02   -0.16176E+01 28200   0.136E+01    0.104E+01
DAV:   7    -0.344091334944E+03    0.31850E+01   -0.21623E+00 27656   0.613E+00    0.313E+00
DAV:   8    -0.344084231840E+03    0.71031E-02   -0.17184E-01 32584   0.147E+00    0.202E+00
DAV:   9    -0.344042511396E+03    0.41720E-01   -0.22785E-01 28312   0.152E+00    0.120E+00
DAV:  10    -0.344052036260E+03   -0.95249E-02   -0.34671E-02 28104   0.653E-01    0.560E-01
DAV:  11    -0.344047393543E+03    0.46427E-02   -0.57264E-03 28896   0.298E-01    0.330E-01
DAV:  12    -0.344046825084E+03    0.56846E-03   -0.13597E-03 29776   0.109E-01    0.192E-01
DAV:  13    -0.344046885253E+03   -0.60169E-04   -0.48764E-05 28232   0.230E-02    0.190E-01
DAV:  14    -0.344045901169E+03    0.98408E-03   -0.68098E-04 28480   0.917E-02    0.766E-02
DAV:  15    -0.344045897435E+03    0.37336E-05   -0.21119E-04 29312   0.487E-02    0.716E-02
DAV:  16    -0.344045821066E+03    0.76369E-04   -0.18112E-05 19736   0.155E-02    0.561E-02
DAV:  17    -0.344045815464E+03    0.56029E-05   -0.18640E-06 14960   0.523E-03
   1 F= -.34404582E+03 E0= -.34404582E+03  d E =-.344046E+03  mag=    18.0000
