       N       E                     dE             d eps       ncg     rms          ort
DAV:   1     0.332794759377E+04    0.33279E+04   -0.14816E+05  6480   0.180E+03
DAV:   2     0.204418678403E+02   -0.33075E+04   -0.30377E+04  6480   0.482E+02
DAV:   3    -0.492051379946E+03   -0.51249E+03   -0.49761E+03  6480   0.204E+02
DAV:   4    -0.524066237843E+03   -0.32015E+02   -0.30933E+02  6480   0.469E+01
DAV:   5    -0.526377541154E+03   -0.23113E+01   -0.22645E+01  6480   0.895E+00
SDA:   6    -0.193247319188E+03    0.33313E+03   -0.22645E+01  6480   0.294E+04 0.000E+00
CGA:   7    -0.323547103612E+03   -0.13030E+03   -0.29060E+03  6480   0.363E+04-0.490E+03
CGA:   8    -0.333749594995E+03   -0.10202E+02   -0.16183E+03  6480   0.531E+03-0.637E+03
CGA:   9    -0.377532633728E+03   -0.43783E+02   -0.22804E+02  6480   0.203E+03 0.296E+03
CGA:  10    -0.391476542091E+03   -0.13944E+02   -0.19562E+02  6480   0.486E+03-0.241E+02
CGA:  11    -0.401318740039E+03   -0.98422E+01   -0.14277E+02  6480   0.114E+03 0.664E+02
CGA:  12    -0.398476090950E+03    0.28426E+01   -0.54203E+01  6480   0.320E+03-0.273E+03
CGA:  13    -0.400021971958E+03   -0.15459E+01   -0.19716E+02  6480   0.116E+03-0.514E+02
CGA:  14    -0.403979608649E+03   -0.39576E+01   -0.32028E+01  6480   0.111E+03 0.119E+03
CGA:  15    -0.405696674389E+03   -0.17171E+01   -0.36266E+01  6480   0.882E+02-0.128E+03
CGA:  16    -0.403569711822E+03    0.21270E+01   -0.54493E+01  6480   0.561E+02-0.118E+02
CGA:  17    -0.405443850361E+03   -0.18741E+01   -0.85138E+00  6480   0.106E+03 0.116E+03
CGA:  18    -0.406474442881E+03   -0.10306E+01   -0.30944E+01  6480   0.573E+02-0.693E+02
CGA:  19    -0.407008214143E+03   -0.53377E+00   -0.15610E+01  6480   0.914E+02-0.103E+03
CGA:  20    -0.406647766859E+03    0.36045E+00   -0.33006E+01  6480   0.520E+02-0.307E+02
CGA:  21    -0.407626399877E+03   -0.97863E+00   -0.60853E+00  6480   0.198E+02 0.213E+02
CGA:  22    -0.408089783447E+03   -0.46338E+00   -0.38854E+00  6480   0.671E+01-0.112E+02
CGA:  23    -0.408206243254E+03   -0.11646E+00   -0.20083E+00  6480   0.709E+01-0.176E+01
CGA:  24    -0.408530381745E+03   -0.32414E+00   -0.32786E+00  6480   0.137E+02-0.608E+00
CGA:  25    -0.408829598736E+03   -0.29922E+00   -0.14484E+00  6480   0.803E+01 0.134E+02
CGA:  26    -0.408963839050E+03   -0.13424E+00   -0.11580E+00  6480   0.148E+01 0.106E+01
CGA:  27    -0.409145516640E+03   -0.18168E+00   -0.18726E+00  6480   0.108E+02-0.229E+00
CGA:  28    -0.409178838759E+03   -0.33322E-01   -0.14131E+00  6480   0.302E+02-0.194E+02
CGA:  29    -0.409184389640E+03   -0.55509E-02   -0.10528E+01  6480   0.212E+02-0.183E+02
CGA:  30    -0.409657289903E+03   -0.47290E+00   -0.43011E+00  6480   0.891E+00-0.177E+01
CGA:  31    -0.409803018221E+03   -0.14573E+00   -0.13542E+00  6480   0.406E+01 0.117E+00
CGA:  32    -0.409932797928E+03   -0.12978E+00   -0.69946E-01  6480   0.195E+01 0.389E+01
CGA:  33    -0.409973591976E+03   -0.40794E-01   -0.33793E-01  6480   0.437E+00 0.350E+00
CGA:  34    -0.410025597127E+03   -0.52005E-01   -0.53190E-01  6480   0.291E+01-0.361E-01
CGA:  35    -0.410116526778E+03   -0.90930E-01   -0.87889E-01  6480   0.458E+01 0.258E+00
CGA:  36    -0.410219283390E+03   -0.10276E+00   -0.67141E-01  6480   0.294E+01 0.291E+01
CGA:  37    -0.410325173280E+03   -0.10589E+00   -0.10404E+00  6480   0.491E+00-0.135E+00
CGA:  38    -0.410338105930E+03   -0.12933E-01   -0.11302E-01  6480   0.180E+00 0.555E-01
CGA:  39    -0.410358274117E+03   -0.20168E-01   -0.19165E-01  6480   0.499E+00 0.307E-01
CGA:  40    -0.410408701481E+03   -0.50427E-01   -0.48738E-01  6480   0.640E+00 0.108E+00
CGA:  41    -0.410461031799E+03   -0.52330E-01   -0.50831E-01  6480   0.321E+00-0.535E-01
CGA:  42    -0.410481809684E+03   -0.20778E-01   -0.20843E-01  6480   0.222E+00 0.651E-02
CGA:  43    -0.410499726060E+03   -0.17916E-01   -0.17877E-01  6480   0.105E+00 0.415E-02
CGA:  44    -0.410508208979E+03   -0.84829E-02   -0.84871E-02  6480   0.116E+00-0.217E-02
CGA:  45    -0.410520945521E+03   -0.12737E-01   -0.13765E-01  6480   0.255E+00-0.205E-01
CGA:  46    -0.410537520313E+03   -0.16575E-01   -0.16560E-01  6480   0.125E+00 0.323E-02
CGA:  47    -0.410546705224E+03   -0.91849E-02   -0.92668E-02  6480   0.498E-01 0.974E-02
CGA:  48    -0.410555472143E+03   -0.87669E-02   -0.90733E-02  6480   0.128E+00-0.397E-02
CGA:  49    -0.410561886874E+03   -0.64147E-02   -0.66591E-02  6480   0.102E+00-0.224E-02
CGA:  50    -0.410568343910E+03   -0.64570E-02   -0.60850E-02  6480   0.365E-01-0.468E-02
CGA:  51    -0.410574352921E+03   -0.60090E-02   -0.64407E-02  6480   0.686E-01-0.413E-02
CGA:  52    -0.410577812339E+03   -0.34594E-02   -0.31956E-02  6480   0.739E-01 0.544E-03
CGA:  53    -0.410582841217E+03   -0.50289E-02   -0.51303E-02  6480   0.348E-01 0.157E-02
CGA:  54    -0.410584795513E+03   -0.19543E-02   -0.19842E-02  6480   0.416E-01-0.834E-03
CGA:  55    -0.410587462091E+03   -0.26666E-02   -0.25797E-02  6480   0.472E-01-0.159E-02
CGA:  56    -0.410591202389E+03   -0.37403E-02   -0.37569E-02  6480   0.500E-01-0.409E-02
CGA:  57    -0.410592647936E+03   -0.14455E-02   -0.15375E-02  6480   0.258E-01-0.387E-02
CGA:  58    -0.410596398592E+03   -0.37507E-02   -0.39029E-02  6480   0.385E-01-0.205E-02
CGA:  59    -0.410597910689E+03   -0.15121E-02   -0.14449E-02  6480   0.405E-01 0.107E-02
CGA:  60    -0.410601054692E+03   -0.31440E-02   -0.31581E-02  6480   0.325E-01 0.124E-02
CGA:  61    -0.410602380811E+03   -0.13261E-02   -0.13704E-02  6480   0.293E-01-0.175E-02
CGA:  62    -0.410605615540E+03   -0.32347E-02   -0.37842E-02  6480   0.461E-01-0.906E-02
CGA:  63    -0.410607178436E+03   -0.15629E-02   -0.14531E-02  6480   0.272E-01-0.398E-03
CGA:  64    -0.410608189984E+03   -0.10115E-02   -0.10529E-02  6480   0.207E-01-0.129E-02
CGA:  65    -0.410610485014E+03   -0.22950E-02   -0.24536E-02  6480   0.474E-01-0.307E-02
CGA:  66    -0.410612098285E+03   -0.16133E-02   -0.14861E-02  6480   0.440E-01 0.466E-02
SDA:  67    -0.410613590426E+03   -0.14921E-02   -0.17138E-02  6480   0.228E-01-0.870E-03
CGA:  68    -0.410616130908E+03   -0.25405E-02   -0.25231E-02  6480   0.357E-01 0.408E-03
CGA:  69    -0.410618331595E+03   -0.22007E-02   -0.21877E-02  6480   0.447E-01 0.196E-03
CGA:  70    -0.410621337774E+03   -0.30062E-02   -0.30116E-02  6480   0.338E-01 0.292E-03
CGA:  71    -0.410625509356E+03   -0.41716E-02   -0.41821E-02  6480   0.217E-01-0.214E-03
CGA:  72    -0.410626356432E+03   -0.84708E-03   -0.83197E-03  6480   0.234E-01 0.114E-02
CGA:  73    -0.410628833718E+03   -0.24773E-02   -0.24309E-02  6480   0.147E-01 0.205E-02
CGA:  74    -0.410629216191E+03   -0.38247E-03   -0.40701E-03  6480   0.464E-02-0.237E-03
CGA:  75    -0.410629784709E+03   -0.56852E-03   -0.56446E-03  6480   0.809E-02 0.960E-04
CGA:  76    -0.410630852636E+03   -0.10679E-02   -0.10588E-02  6480   0.373E-02 0.145E-03
CGA:  77    -0.410631962455E+03   -0.11098E-02   -0.95237E-03  6480   0.895E-02 0.938E-03
CGA:  78    -0.410632536069E+03   -0.57361E-03   -0.55882E-03  6480   0.108E-01 0.574E-03
CGA:  79    -0.410633275294E+03   -0.73922E-03   -0.75633E-03  6480   0.124E-01 0.508E-03
CGA:  80    -0.410635001011E+03   -0.17257E-02   -0.15535E-02  6480   0.180E-01 0.392E-02
CGA:  81    -0.410635735591E+03   -0.73458E-03   -0.60560E-03  6480   0.945E-02 0.481E-02
CGA:  82    -0.410637244409E+03   -0.15088E-02   -0.20361E-02  6480   0.955E-01-0.649E-02
CGA:  83    -0.410639024011E+03   -0.17796E-02   -0.18522E-02  6480   0.393E-02-0.364E-02
CGA:  84    -0.410639592395E+03   -0.56838E-03   -0.58307E-03  6480   0.136E-01-0.210E-03
CGA:  85    -0.410640478821E+03   -0.88643E-03   -0.88835E-03  6480   0.104E-01-0.138E-03
CGA:  86    -0.410640963785E+03   -0.48496E-03   -0.47718E-03  6480   0.465E-02 0.107E-03
CGA:  87    -0.410641455638E+03   -0.49185E-03   -0.48611E-03  6480   0.476E-02 0.266E-03
CGA:  88    -0.410641733533E+03   -0.27789E-03   -0.27160E-03  6480   0.642E-02-0.942E-05
CGA:  89    -0.410642800042E+03   -0.10665E-02   -0.10779E-02  6480   0.550E-02-0.135E-03
CGA:  90    -0.410643098445E+03   -0.29840E-03   -0.29108E-03  6480   0.308E-02-0.393E-04
CGA:  91    -0.410644435804E+03   -0.13374E-02   -0.11228E-02  6480   0.929E-02 0.844E-03
CGA:  92    -0.410644930611E+03   -0.49481E-03   -0.45788E-03  6480   0.528E-02 0.111E-02
CGA:  93    -0.410645230759E+03   -0.30015E-03   -0.32156E-03  6480   0.588E-02-0.756E-04
CGA:  94    -0.410645673529E+03   -0.44277E-03   -0.18349E-02  6480   0.713E-01-0.941E-02
CGA:  95    -0.410647164668E+03   -0.14911E-02   -0.15629E-02  6480   0.815E-02-0.240E-02
CGA:  96    -0.410647563817E+03   -0.39915E-03   -0.40414E-03  6480   0.433E-02 0.196E-03
CGA:  97    -0.410648047825E+03   -0.48401E-03   -0.48027E-03  6480   0.342E-02 0.419E-03
CGA:  98    -0.410648309521E+03   -0.26170E-03   -0.26106E-03  6480   0.615E-02 0.197E-04
CGA:  99    -0.410648683987E+03   -0.37447E-03   -0.37961E-03  6480   0.177E-02-0.258E-04
CGA: 100    -0.410649148979E+03   -0.46499E-03   -0.41165E-03  6480   0.354E-02 0.392E-03
CGA: 101    -0.410649282398E+03   -0.13342E-03   -0.13490E-03  6480   0.160E-02 0.187E-03
CGA: 102    -0.410649589535E+03   -0.30714E-03   -0.27820E-03  6480   0.173E-02 0.430E-03
CGA: 103    -0.410649710846E+03   -0.12131E-03   -0.12550E-03  6480   0.188E-02 0.144E-03
CGA: 104    -0.410649863089E+03   -0.15224E-03   -0.16114E-03  6480   0.256E-02 0.326E-03
CGA: 105    -0.410650099369E+03   -0.23628E-03   -0.23940E-03  6480   0.145E-02 0.282E-03
CGA: 106    -0.410650334127E+03   -0.23476E-03   -0.22201E-03  6480   0.300E-02 0.275E-03
CGA: 107    -0.410650499810E+03   -0.16568E-03   -0.15276E-03  6480   0.176E-02 0.130E-03
CGA: 108    -0.410650660214E+03   -0.16040E-03   -0.16169E-03  6480   0.174E-02 0.633E-04
CGA: 109    -0.410650902390E+03   -0.24218E-03   -0.24926E-03  6480   0.458E-02-0.171E-03
CGA: 110    -0.410651281216E+03   -0.37883E-03   -0.38785E-03  6480   0.357E-02 0.765E-03
CGA: 111    -0.410651487497E+03   -0.20628E-03   -0.18459E-03  6480   0.287E-02 0.368E-03
CGA: 112    -0.410651897757E+03   -0.41026E-03   -0.39568E-03  6480   0.552E-02 0.385E-03
CGA: 113    -0.410652259192E+03   -0.36143E-03   -0.34664E-03  6480   0.195E-02 0.675E-04
CGA: 114    -0.410652459105E+03   -0.19991E-03   -0.19964E-03  6480   0.604E-02-0.898E-04
CGA: 115    -0.410652885866E+03   -0.42676E-03   -0.33849E-03  6480   0.156E-02-0.173E-03
CGA: 116    -0.410652996718E+03   -0.11085E-03   -0.10980E-03  6480   0.232E-02-0.949E-04
CGA: 117    -0.410653252415E+03   -0.25570E-03   -0.29470E-03  6480   0.620E-02-0.804E-03
CGA: 118    -0.410653412168E+03   -0.15975E-03   -0.16571E-03  6480   0.247E-02-0.520E-03
CGA: 119    -0.410653506367E+03   -0.94199E-04   -0.96121E-04  6480   0.321E-02-0.129E-03
CGA: 120    -0.410653726505E+03   -0.22014E-03   -0.21719E-03  6480   0.171E-02-0.494E-04
CGA: 121    -0.410653821718E+03   -0.95214E-04   -0.93572E-04  6480   0.228E-02 0.122E-04
CGA: 122    -0.410653937632E+03   -0.11591E-03   -0.11818E-03  6480   0.172E-02 0.328E-04
CGA: 123    -0.410654029783E+03   -0.92151E-04   -0.94436E-04  6480   0.120E-02 0.653E-04
CGA: 124    -0.410654106590E+03   -0.76807E-04   -0.73674E-04  6480   0.223E-02-0.117E-03
SDA: 125    -0.410654262938E+03   -0.15635E-03   -0.15176E-03  6480   0.105E-02-0.599E-03
CGA: 126    -0.410654305119E+03   -0.42182E-04   -0.42026E-04  6480   0.105E-02-0.796E-05
CGA: 127    -0.410654440443E+03   -0.13532E-03   -0.13890E-03  6480   0.591E-03-0.684E-04
CGA: 128    -0.410654489818E+03   -0.49375E-04   -0.52373E-04  6480   0.116E-02-0.253E-03
CGA: 129    -0.410654552018E+03   -0.62200E-04   -0.82658E-04  6480   0.197E-02-0.496E-03
CGA: 130    -0.410654603233E+03   -0.51215E-04   -0.45722E-04  6480   0.161E-02-0.135E-03
CGA: 131    -0.410654728833E+03   -0.12560E-03   -0.12562E-03  6480   0.152E-02-0.629E-04
CGA: 132    -0.410654784527E+03   -0.55694E-04   -0.52713E-04  6480   0.954E-03-0.448E-04
CGA: 133    -0.410654874232E+03   -0.89705E-04   -0.90933E-04  6480   0.190E-02-0.704E-04
CGA: 134    -0.410654950450E+03   -0.76218E-04   -0.77571E-04  6480   0.475E-03 0.383E-04
CGA: 135    -0.410654963120E+03   -0.12670E-04   -0.13946E-04  6480   0.259E-03 0.286E-04
CGA: 136    -0.410654998635E+03   -0.35515E-04   -0.34466E-04  6480   0.832E-03 0.218E-04
CGA: 137    -0.410655049126E+03   -0.50491E-04   -0.48500E-04  6480   0.331E-03-0.793E-04
CGA: 138    -0.410655064270E+03   -0.15144E-04   -0.12153E-04  6480   0.265E-03-0.763E-04
CGA: 139    -0.410655077715E+03   -0.13445E-04   -0.31797E-04  6480   0.647E-03-0.230E-03
CGA: 140    -0.410655109202E+03   -0.31487E-04   -0.34587E-04  6480   0.183E-03 0.113E-03
CGA: 141    -0.410655119952E+03   -0.10750E-04   -0.11657E-04  6480   0.100E-03 0.362E-04
CGA: 142    -0.410655130052E+03   -0.10100E-04   -0.99497E-05  6480   0.180E-03 0.307E-04
CGA: 143    -0.410655143312E+03   -0.13261E-04   -0.13969E-04  6480   0.566E-04 0.379E-04
CGA: 144    -0.410655149458E+03   -0.61454E-05   -0.12217E-04  6480   0.461E-03-0.599E-04
CGA: 145    -0.410655158777E+03   -0.93194E-05   -0.10128E-04  6480   0.792E-04 0.118E-04
   1 F= -.41065516E+03 E0= -.41064766E+03  d E =-.410655E+03  mag=    14.0000
       N       E                     dE             d eps       ncg     rms          ort
SDA:   1    -0.410654652790E+03    0.49667E-03    0.00000E+00  6480   0.203E-01 0.000E+00
CGA:   2    -0.410655105359E+03   -0.45257E-03   -0.48061E-03  6480   0.164E-02-0.400E-03
CGA:   3    -0.410655145376E+03   -0.40017E-04   -0.42758E-04  6480   0.329E-03 0.689E-04
CGA:   4    -0.410655175698E+03   -0.30322E-04   -0.29614E-04  6480   0.186E-03 0.551E-04
CGA:   5    -0.410655195789E+03   -0.20091E-04   -0.20206E-04  6480   0.525E-03-0.611E-05
CGA:   6    -0.410655218141E+03   -0.22351E-04   -0.21492E-04  6480   0.897E-04-0.260E-04
CGA:   7    -0.410655221596E+03   -0.34557E-05   -0.34332E-05  6480   0.122E-03-0.553E-06
CGA:   8    -0.410655232358E+03   -0.10762E-04   -0.10558E-04  6480   0.612E-04 0.138E-04
CGA:   9    -0.410655234451E+03   -0.20927E-05   -0.20949E-05  6480   0.483E-04 0.793E-07
   2 F= -.41065523E+03 E0= -.41064772E+03  d E =-.756740E-04  mag=    14.0000
       N       E                     dE             d eps       ncg     rms          ort
SDA:   1    -0.410645400179E+03    0.98322E-02    0.00000E+00  6480   0.447E+00 0.000E+00
CGA:   2    -0.410652721928E+03   -0.73217E-02   -0.11872E-01  6480   0.103E+00-0.148E+00
CGA:   3    -0.410654913145E+03   -0.21912E-02   -0.21094E-02  6480   0.635E-02 0.167E-02
CGA:   4    -0.410655150453E+03   -0.23731E-03   -0.22508E-03  6480   0.132E-02-0.105E-03
CGA:   5    -0.410655200576E+03   -0.50123E-04   -0.48919E-04  6480   0.913E-03-0.271E-04
CGA:   6    -0.410655251659E+03   -0.51083E-04   -0.51216E-04  6480   0.395E-03 0.126E-04
CGA:   7    -0.410655281983E+03   -0.30323E-04   -0.30720E-04  6480   0.370E-03 0.127E-04
CGA:   8    -0.410655292552E+03   -0.10569E-04   -0.12123E-04  6480   0.128E-03 0.197E-04
CGA:   9    -0.410655298883E+03   -0.63314E-05   -0.72721E-05  6480   0.779E-04 0.196E-04
CGA:  10    -0.410655310155E+03   -0.11272E-04   -0.12571E-04  6480   0.292E-03-0.328E-04
CGA:  11    -0.410655314291E+03   -0.41368E-05   -0.31069E-05  6480   0.135E-03-0.124E-04
   3 F= -.41065531E+03 E0= -.41064780E+03  d E =-.798403E-04  mag=    14.0000
       N       E                     dE             d eps       ncg     rms          ort
SDA:   1    -0.410646851068E+03    0.84591E-02    0.00000E+00  6480   0.378E-01 0.000E+00
CGA:   2    -0.410648832472E+03   -0.19814E-02   -0.19438E-02  6480   0.336E-01-0.982E-04
CGA:   3    -0.410651770558E+03   -0.29381E-02   -0.29393E-02  6480   0.456E-01 0.162E-03
CGA:   4    -0.410653520357E+03   -0.17498E-02   -0.17331E-02  6480   0.114E-01 0.792E-03
CGA:   5    -0.410654634548E+03   -0.11142E-02   -0.11109E-02  6480   0.310E-02 0.422E-03
CGA:   6    -0.410655077789E+03   -0.44324E-03   -0.46144E-03  6480   0.257E-02-0.337E-03
CGA:   7    -0.410655149062E+03   -0.71273E-04   -0.71895E-04  6480   0.798E-03-0.192E-04
CGA:   8    -0.410655194125E+03   -0.45064E-04   -0.45842E-04  6480   0.778E-03 0.274E-04
CGA:   9    -0.410655245004E+03   -0.50878E-04   -0.50520E-04  6480   0.158E-03-0.155E-04
CGA:  10    -0.410655264111E+03   -0.19107E-04   -0.23173E-04  6480   0.447E-03-0.642E-04
CGA:  11    -0.410655270519E+03   -0.64078E-05   -0.54893E-05  6480   0.188E-03-0.130E-04
   4 F= -.41065527E+03 E0= -.41064777E+03  d E =0.437727E-04  mag=    14.0000
       N       E                     dE             d eps       ncg     rms          ort
SDA:   1    -0.410650191385E+03    0.50727E-02    0.00000E+00  6480   0.183E+00 0.000E+00
CGA:   2    -0.410653695356E+03   -0.35040E-02   -0.33015E-02  6480   0.773E-02 0.855E-02
CGA:   3    -0.410654350575E+03   -0.65522E-03   -0.65626E-03  6480   0.786E-02-0.574E-03
CGA:   4    -0.410654579896E+03   -0.22932E-03   -0.22655E-03  6480   0.464E-02-0.139E-03
CGA:   5    -0.410655159179E+03   -0.57928E-03   -0.57082E-03  6480   0.615E-02 0.176E-03
CGA:   6    -0.410655293714E+03   -0.13454E-03   -0.13345E-03  6480   0.497E-03 0.799E-04
CGA:   7    -0.410655344674E+03   -0.50960E-04   -0.53301E-04  6480   0.106E-02-0.794E-04
CGA:   8    -0.410655373308E+03   -0.28634E-04   -0.28631E-04  6480   0.392E-03-0.185E-05
CGA:   9    -0.410655382338E+03   -0.90301E-05   -0.10782E-04  6480   0.138E-03 0.377E-04
   5 F= -.41065538E+03 E0= -.41064788E+03  d E =-.111819E-03  mag=    14.0000
       N       E                     dE             d eps       ncg     rms          ort
SDA:   1    -0.410652556453E+03    0.28169E-02    0.00000E+00  6480   0.106E+00 0.000E+00
CGA:   2    -0.410654956092E+03   -0.23996E-02   -0.22691E-02  6480   0.705E-02 0.517E-02
CGA:   3    -0.410655148388E+03   -0.19230E-03   -0.19660E-03  6480   0.912E-03 0.822E-04
CGA:   4    -0.410655282053E+03   -0.13366E-03   -0.13721E-03  6480   0.148E-02-0.434E-04
CGA:   5    -0.410655325105E+03   -0.43051E-04   -0.43663E-04  6480   0.709E-03 0.202E-04
CGA:   6    -0.410655373742E+03   -0.48637E-04   -0.48770E-04  6480   0.236E-03 0.133E-03
CGA:   7    -0.410655383883E+03   -0.10141E-04   -0.10592E-04  6480   0.236E-03 0.145E-04
CGA:   8    -0.410655410057E+03   -0.26175E-04   -0.28085E-04  6480   0.726E-04-0.425E-04
CGA:   9    -0.410655414531E+03   -0.44735E-05   -0.73159E-05  6480   0.364E-03-0.532E-04
   6 F= -.41065541E+03 E0= -.41064790E+03  d E =-.321926E-04  mag=    14.0000
