       N       E                     dE             d eps       ncg     rms          ort
DAV:   1     0.243378734530E+04    0.24338E+04   -0.14179E+05  7056   0.152E+03
DAV:   2    -0.216663902474E+03   -0.26505E+04   -0.25533E+04  7056   0.411E+02
DAV:   3    -0.453699352392E+03   -0.23704E+03   -0.23048E+03  7056   0.141E+02
DAV:   4    -0.464511534545E+03   -0.10812E+02   -0.10494E+02  7056   0.318E+01
DAV:   5    -0.465068622626E+03   -0.55709E+00   -0.55097E+00  7056   0.474E+00
SDA:   6    -0.298424826144E+03    0.16664E+03   -0.55097E+00  7056   0.545E+03 0.000E+00
CGA:   7    -0.349426183535E+03   -0.51001E+02   -0.67967E+02  7056   0.525E+02 0.282E+02
CGA:   8    -0.360435964956E+03   -0.11010E+02   -0.11010E+02  7056   0.121E+02-0.675E-02
CGA:   9    -0.363633664353E+03   -0.31977E+01   -0.31941E+01  7056   0.382E+01 0.369E-01
CGA:  10    -0.364645596226E+03   -0.10119E+01   -0.10120E+01  7056   0.131E+01-0.967E-02
CGA:  11    -0.364998754721E+03   -0.35316E+00   -0.35453E+00  7056   0.424E+00-0.198E-01
CGA:  12    -0.365119681280E+03   -0.12093E+00   -0.12143E+00  7056   0.123E+00-0.593E-02
CGA:  13    -0.365153895004E+03   -0.34214E-01   -0.34198E-01  7056   0.363E-01 0.224E-03
CGA:  14    -0.365166245538E+03   -0.12351E-01   -0.12328E-01  7056   0.122E-01 0.189E-03
CGA:  15    -0.365170625322E+03   -0.43798E-02   -0.43339E-02  7056   0.462E-02 0.341E-03
CGA:  16    -0.365172376789E+03   -0.17515E-02   -0.17108E-02  7056   0.161E-02 0.303E-03
CGA:  17    -0.365173111552E+03   -0.73476E-03   -0.75700E-03  7056   0.798E-03-0.108E-03
CGA:  18    -0.365173380546E+03   -0.26899E-03   -0.47809E-03  7056   0.101E-02-0.525E-03
CGA:  19    -0.365173583204E+03   -0.20266E-03   -0.20860E-03  7056   0.168E-03 0.103E-03
CGA:  20    -0.365173626125E+03   -0.42921E-04   -0.44131E-04  7056   0.489E-04 0.518E-04
CGA:  21    -0.365173642221E+03   -0.16097E-04   -0.16255E-04  7056   0.252E-04 0.263E-04
CGA:  22    -0.365173650835E+03   -0.86139E-05   -0.83801E-05  7056   0.181E-04 0.322E-05
   1 F= -.36517365E+03 E0= -.36517365E+03  d E =-.365174E+03  mag=    12.0000
       N       E                     dE             d eps       ncg     rms          ort
SDA:   1    -0.365210991798E+03   -0.37350E-01    0.00000E+00  7056   0.107E-01 0.000E+00
CGA:   2    -0.365213403097E+03   -0.24113E-02   -0.24313E-02  7056   0.254E-02 0.513E-03
CGA:   3    -0.365214171303E+03   -0.76821E-03   -0.77222E-03  7056   0.797E-03-0.155E-03
CGA:   4    -0.365214319297E+03   -0.14799E-03   -0.14704E-03  7056   0.182E-03-0.143E-04
CGA:   5    -0.365214358013E+03   -0.38715E-04   -0.39067E-04  7056   0.454E-04 0.813E-05
CGA:   6    -0.365214375046E+03   -0.17033E-04   -0.20490E-04  7056   0.460E-04-0.201E-04
CGA:   7    -0.365214382337E+03   -0.72918E-05   -0.95704E-05  7056   0.359E-04-0.219E-04
   2 F= -.36521438E+03 E0= -.36521438E+03  d E =-.407315E-01  mag=    12.0000
       N       E                     dE             d eps       ncg     rms          ort
SDA:   1    -0.361168701632E+03    0.40457E+01    0.00000E+00  7056   0.161E+02 0.000E+00
CGA:   2    -0.365042385000E+03   -0.38737E+01   -0.38743E+01  7056   0.413E+01-0.368E-02
CGA:   3    -0.366122803887E+03   -0.10804E+01   -0.10804E+01  7056   0.107E+01-0.990E-02
CGA:   4    -0.366342863876E+03   -0.22006E+00   -0.22001E+00  7056   0.253E+00-0.845E-03
CGA:   5    -0.366401688393E+03   -0.58825E-01   -0.58813E-01  7056   0.687E-01-0.405E-03
CGA:   6    -0.366422888499E+03   -0.21200E-01   -0.21228E-01  7056   0.312E-01-0.596E-03
CGA:   7    -0.366432557713E+03   -0.96692E-02   -0.96769E-02  7056   0.131E-01-0.158E-03
CGA:   8    -0.366436563576E+03   -0.40059E-02   -0.39898E-02  7056   0.416E-02 0.406E-03
CGA:   9    -0.366437936054E+03   -0.13725E-02   -0.13598E-02  7056   0.133E-02 0.263E-03
CGA:  10    -0.366438441358E+03   -0.50530E-03   -0.50166E-03  7056   0.534E-03 0.429E-04
CGA:  11    -0.366438658330E+03   -0.21697E-03   -0.21329E-03  7056   0.223E-03 0.326E-04
CGA:  12    -0.366438742181E+03   -0.83851E-04   -0.81904E-04  7056   0.726E-04 0.295E-04
CGA:  13    -0.366438762392E+03   -0.20211E-04   -0.21025E-04  7056   0.225E-04 0.287E-04
CGA:  14    -0.366438768424E+03   -0.60321E-05   -0.68804E-05  7056   0.901E-05 0.133E-04
   3 F= -.36643877E+03 E0= -.36643877E+03  d E =-.122439E+01  mag=    12.0000
       N       E                     dE             d eps       ncg     rms          ort
SDA:   1    -0.352929178763E+03    0.13510E+02    0.00000E+00  7056   0.469E+02 0.000E+00
CGA:   2    -0.363550646362E+03   -0.10621E+02   -0.10647E+02  7056   0.113E+02 0.905E-01
CGA:   3    -0.366503444234E+03   -0.29528E+01   -0.29518E+01  7056   0.308E+01-0.446E-01
CGA:   4    -0.367127094012E+03   -0.62365E+00   -0.62344E+00  7056   0.716E+00-0.527E-02
CGA:   5    -0.367292484231E+03   -0.16539E+00   -0.16545E+00  7056   0.197E+00 0.169E-02
CGA:   6    -0.367352132871E+03   -0.59649E-01   -0.59628E-01  7056   0.910E-01 0.722E-03
CGA:   7    -0.367381494581E+03   -0.29362E-01   -0.29406E-01  7056   0.406E-01-0.889E-03
CGA:   8    -0.367394041034E+03   -0.12546E-01   -0.12551E-01  7056   0.135E-01-0.105E-03
CGA:   9    -0.367398319527E+03   -0.42785E-02   -0.42676E-02  7056   0.423E-02 0.279E-03
CGA:  10    -0.367399804547E+03   -0.14850E-02   -0.14793E-02  7056   0.157E-02 0.914E-04
CGA:  11    -0.367400442367E+03   -0.63782E-03   -0.63067E-03  7056   0.661E-03 0.653E-04
CGA:  12    -0.367400721719E+03   -0.27935E-03   -0.28148E-03  7056   0.261E-03-0.179E-04
CGA:  13    -0.367400809605E+03   -0.87886E-04   -0.87115E-04  7056   0.736E-04 0.157E-04
CGA:  14    -0.367400841537E+03   -0.31933E-04   -0.32957E-04  7056   0.305E-04-0.823E-05
CGA:  15    -0.367400846499E+03   -0.49621E-05   -0.59644E-05  7056   0.117E-04 0.120E-04
   4 F= -.36740085E+03 E0= -.36740085E+03  d E =-.962078E+00  mag=    12.0000
       N       E                     dE             d eps       ncg     rms          ort
SDA:   1    -0.363077263189E+03    0.43236E+01    0.00000E+00  7056   0.151E+02 0.000E+00
CGA:   2    -0.366361345241E+03   -0.32841E+01   -0.32895E+01  7056   0.381E+01 0.153E-01
CGA:   3    -0.367341887340E+03   -0.98054E+00   -0.98037E+00  7056   0.103E+01-0.354E-02
CGA:   4    -0.367547575699E+03   -0.20569E+00   -0.20573E+00  7056   0.224E+00-0.522E-03
CGA:   5    -0.367599534350E+03   -0.51959E-01   -0.51954E-01  7056   0.582E-01-0.112E-03
CGA:   6    -0.367617013797E+03   -0.17479E-01   -0.17472E-01  7056   0.272E-01 0.427E-03
CGA:   7    -0.367626135466E+03   -0.91217E-02   -0.91115E-02  7056   0.133E-01 0.203E-03
CGA:   8    -0.367630501446E+03   -0.43660E-02   -0.43630E-02  7056   0.476E-02 0.702E-04
CGA:   9    -0.367632038419E+03   -0.15370E-02   -0.15364E-02  7056   0.144E-02 0.163E-04
CGA:  10    -0.367632520467E+03   -0.48205E-03   -0.48285E-03  7056   0.482E-03-0.173E-04
CGA:  11    -0.367632701617E+03   -0.18115E-03   -0.17994E-03  7056   0.187E-03 0.139E-04
CGA:  12    -0.367632784607E+03   -0.82990E-04   -0.86569E-04  7056   0.845E-04-0.231E-04
CGA:  13    -0.367632807547E+03   -0.22940E-04   -0.22889E-04  7056   0.229E-04 0.824E-05
CGA:  14    -0.367632817130E+03   -0.95826E-05   -0.99438E-05  7056   0.999E-05-0.391E-05
   5 F= -.36763282E+03 E0= -.36763282E+03  d E =-.231971E+00  mag=    12.0000
       N       E                     dE             d eps       ncg     rms          ort
SDA:   1    -0.359464346135E+03    0.81685E+01    0.00000E+00  7056   0.250E+02 0.000E+00
CGA:   2    -0.365278359482E+03   -0.58140E+01   -0.58246E+01  7056   0.794E+01 0.213E-01
CGA:   3    -0.367156668776E+03   -0.18783E+01   -0.18788E+01  7056   0.203E+01 0.404E-02
CGA:   4    -0.367548145362E+03   -0.39148E+00   -0.39183E+00  7056   0.389E+00 0.629E-03
CGA:   5    -0.367640043958E+03   -0.91899E-01   -0.91859E-01  7056   0.982E-01-0.103E-02
CGA:   6    -0.367667968165E+03   -0.27924E-01   -0.27925E-01  7056   0.420E-01 0.169E-03
CGA:   7    -0.367681654156E+03   -0.13686E-01   -0.13674E-01  7056   0.199E-01 0.331E-03
CGA:   8    -0.367688561614E+03   -0.69075E-02   -0.69155E-02  7056   0.804E-02-0.159E-03
CGA:   9    -0.367691215697E+03   -0.26541E-02   -0.26631E-02  7056   0.263E-02-0.234E-03
CGA:  10    -0.367692072030E+03   -0.85633E-03   -0.85966E-03  7056   0.878E-03-0.833E-04
CGA:  11    -0.367692404957E+03   -0.33293E-03   -0.33782E-03  7056   0.379E-03-0.497E-04
CGA:  12    -0.367692554144E+03   -0.14919E-03   -0.15426E-03  7056   0.165E-03-0.398E-04
CGA:  13    -0.367692601140E+03   -0.46997E-04   -0.46932E-04  7056   0.506E-04 0.965E-05
CGA:  14    -0.367692618248E+03   -0.17107E-04   -0.17094E-04  7056   0.161E-04 0.155E-05
CGA:  15    -0.367692536064E+03    0.82184E-04   -0.44400E-04  7056   0.346E-03-0.682E-04
CGA:  16    -0.367692612743E+03   -0.76679E-04   -0.86005E-04  7056   0.469E-04 0.295E-04
CGA:  17    -0.367692632493E+03   -0.19750E-04   -0.18467E-04  7056   0.178E-04-0.680E-05
CGA:  18    -0.367692635118E+03   -0.26243E-05   -0.37197E-05  7056   0.401E-05 0.370E-05
   6 F= -.36769264E+03 E0= -.36769264E+03  d E =-.598180E-01  mag=    12.0000
       N       E                     dE             d eps       ncg     rms          ort
SDA:   1    -0.359933832715E+03    0.77588E+01    0.00000E+00  7056   0.207E+02 0.000E+00
CGA:   2    -0.365582631644E+03   -0.56488E+01   -0.56588E+01  7056   0.814E+01-0.101E-02
CGA:   3    -0.367299604916E+03   -0.17170E+01   -0.17208E+01  7056   0.173E+01 0.135E-01
CGA:   4    -0.367636724811E+03   -0.33712E+00   -0.33770E+00  7056   0.317E+00 0.130E-02
CGA:   5    -0.367712106232E+03   -0.75381E-01   -0.75355E-01  7056   0.786E-01-0.166E-03
CGA:   6    -0.367733350208E+03   -0.21244E-01   -0.21225E-01  7056   0.296E-01-0.130E-03
CGA:   7    -0.367742581434E+03   -0.92312E-02   -0.92191E-02  7056   0.127E-01-0.914E-04
CGA:   8    -0.367747020511E+03   -0.44391E-02   -0.44297E-02  7056   0.521E-02-0.100E-03
CGA:   9    -0.367748738410E+03   -0.17179E-02   -0.17061E-02  7056   0.168E-02-0.109E-03
CGA:  10    -0.367749295074E+03   -0.55666E-03   -0.55321E-03  7056   0.564E-03-0.354E-04
CGA:  11    -0.367749522904E+03   -0.22783E-03   -0.22711E-03  7056   0.273E-03-0.407E-04
CGA:  12    -0.367749631793E+03   -0.10889E-03   -0.10892E-03  7056   0.126E-03-0.129E-04
CGA:  13    -0.367749681537E+03   -0.49744E-04   -0.49482E-04  7056   0.599E-04-0.159E-04
CGA:  14    -0.367749693339E+03   -0.11802E-04   -0.13098E-04  7056   0.178E-04 0.730E-05
CGA:  15    -0.367749702510E+03   -0.91707E-05   -0.11039E-04  7056   0.203E-04-0.138E-04
   7 F= -.36774970E+03 E0= -.36774970E+03  d E =-.570674E-01  mag=    12.0000
       N       E                     dE             d eps       ncg     rms          ort
SDA:   1    -0.366465455425E+03    0.12842E+01    0.00000E+00  7056   0.397E+01 0.000E+00
CGA:   2    -0.367470717361E+03   -0.10053E+01   -0.10056E+01  7056   0.123E+01-0.238E-02
CGA:   3    -0.367770722250E+03   -0.30000E+00   -0.30046E+00  7056   0.292E+00 0.206E-02
CGA:   4    -0.367830747239E+03   -0.60025E-01   -0.60001E-01  7056   0.661E-01-0.361E-03
CGA:   5    -0.367846137208E+03   -0.15390E-01   -0.15388E-01  7056   0.175E-01-0.194E-05
CGA:   6    -0.367851454989E+03   -0.53178E-02   -0.53157E-02  7056   0.752E-02-0.284E-04
CGA:   7    -0.367853832452E+03   -0.23775E-02   -0.23771E-02  7056   0.331E-02-0.807E-05
CGA:   8    -0.367854914459E+03   -0.10820E-02   -0.10815E-02  7056   0.117E-02-0.122E-04
CGA:   9    -0.367855298994E+03   -0.38453E-03   -0.38408E-03  7056   0.378E-03-0.101E-04
CGA:  10    -0.367855421477E+03   -0.12248E-03   -0.12271E-03  7056   0.129E-03 0.519E-05
CGA:  11    -0.367855474597E+03   -0.53120E-04   -0.53270E-04  7056   0.614E-04-0.376E-05
CGA:  12    -0.367855493640E+03   -0.19043E-04   -0.19503E-04  7056   0.203E-04 0.105E-04
CGA:  13    -0.367855503020E+03   -0.93798E-05   -0.93993E-05  7056   0.895E-05-0.727E-06
   8 F= -.36785550E+03 E0= -.36785550E+03  d E =-.105801E+00  mag=    12.0000
       N       E                     dE             d eps       ncg     rms          ort
SDA:   1    -0.367256142660E+03    0.59935E+00    0.00000E+00  7056   0.184E+01 0.000E+00
CGA:   2    -0.367721495704E+03   -0.46535E+00   -0.46531E+00  7056   0.596E+00-0.174E-02
CGA:   3    -0.367859654883E+03   -0.13816E+00   -0.13842E+00  7056   0.135E+00 0.164E-02
CGA:   4    -0.367886451932E+03   -0.26797E-01   -0.26771E-01  7056   0.270E-01-0.291E-03
CGA:   5    -0.367892709858E+03   -0.62579E-02   -0.62392E-02  7056   0.662E-02-0.161E-03
CGA:   6    -0.367894605179E+03   -0.18953E-02   -0.18960E-02  7056   0.276E-02 0.111E-04
CGA:   7    -0.367895508677E+03   -0.90350E-03   -0.90401E-03  7056   0.134E-02 0.456E-04
CGA:   8    -0.367896000120E+03   -0.49144E-03   -0.49216E-03  7056   0.569E-03-0.310E-04
CGA:   9    -0.367896186195E+03   -0.18607E-03   -0.18600E-03  7056   0.182E-03-0.197E-04
CGA:  10    -0.367896240370E+03   -0.54175E-04   -0.54318E-04  7056   0.544E-04 0.493E-05
CGA:  11    -0.367896265406E+03   -0.25036E-04   -0.27196E-04  7056   0.387E-04-0.144E-04
CGA:  12    -0.367896273049E+03   -0.76432E-05   -0.79733E-05  7056   0.149E-04 0.515E-05
   9 F= -.36789627E+03 E0= -.36789627E+03  d E =-.407700E-01  mag=    12.0000
       N       E                     dE             d eps       ncg     rms          ort
SDA:   1    -0.365146156305E+03    0.27501E+01    0.00000E+00  7056   0.717E+01 0.000E+00
CGA:   2    -0.367234211182E+03   -0.20881E+01   -0.20883E+01  7056   0.267E+01-0.507E-03
CGA:   3    -0.367789100666E+03   -0.55489E+00   -0.55547E+00  7056   0.522E+00 0.235E-02
CGA:   4    -0.367889621057E+03   -0.10052E+00   -0.10045E+00  7056   0.962E-01-0.103E-02
CGA:   5    -0.367912162451E+03   -0.22541E-01   -0.22490E-01  7056   0.225E-01-0.611E-03
CGA:   6    -0.367917998465E+03   -0.58360E-02   -0.58458E-02  7056   0.764E-02 0.167E-03
CGA:   7    -0.367920363307E+03   -0.23648E-02   -0.23660E-02  7056   0.343E-02 0.174E-03
CGA:   8    -0.367921686806E+03   -0.13235E-02   -0.13309E-02  7056   0.164E-02-0.113E-03
CGA:   9    -0.367922241534E+03   -0.55473E-03   -0.55823E-03  7056   0.582E-03-0.978E-04
CGA:  10    -0.367922423455E+03   -0.18192E-03   -0.18217E-03  7056   0.199E-03-0.171E-04
CGA:  11    -0.367922507242E+03   -0.83787E-04   -0.88422E-04  7056   0.123E-03-0.332E-04
CGA:  12    -0.367922548320E+03   -0.41078E-04   -0.41392E-04  7056   0.559E-04-0.408E-05
CGA:  13    -0.367922567063E+03   -0.18743E-04   -0.18747E-04  7056   0.205E-04-0.230E-06
CGA:  14    -0.367922573604E+03   -0.65407E-05   -0.65503E-05  7056   0.590E-05 0.958E-06
CGA:  15    -0.367922536287E+03    0.37317E-04   -0.20125E-04  7056   0.153E-03-0.288E-04
CGA:  16    -0.367922573570E+03   -0.37283E-04   -0.41104E-04  7056   0.162E-04 0.114E-04
CGA:  17    -0.367922581090E+03   -0.75196E-05   -0.68898E-05  7056   0.868E-05-0.331E-05
  10 F= -.36792258E+03 E0= -.36792258E+03  d E =-.263080E-01  mag=    12.0000
       N       E                     dE             d eps       ncg     rms          ort
SDA:   1    -0.313265615471E+03    0.54657E+02    0.00000E+00  7056   0.128E+03 0.000E+00
CGA:   2    -0.352133081843E+03   -0.38867E+02   -0.39332E+02  7056   0.463E+02 0.516E+00
CGA:   3    -0.361542103448E+03   -0.94090E+01   -0.95365E+01  7056   0.103E+02 0.557E+00
CGA:   4    -0.363795817601E+03   -0.22537E+01   -0.22610E+01  7056   0.229E+01 0.325E-01
CGA:   5    -0.364373986770E+03   -0.57817E+00   -0.57725E+00  7056   0.739E+00 0.318E-02
CGA:   6    -0.364584289621E+03   -0.21030E+00   -0.21055E+00  7056   0.274E+00-0.133E-03
CGA:   7    -0.364667411313E+03   -0.83122E-01   -0.83126E-01  7056   0.106E+00-0.350E-03
CGA:   8    -0.364701093206E+03   -0.33682E-01   -0.33700E-01  7056   0.331E-01 0.123E-03
CGA:   9    -0.364711917897E+03   -0.10825E-01   -0.10789E-01  7056   0.971E-02-0.246E-03
CGA:  10    -0.364715136969E+03   -0.32191E-02   -0.31864E-02  7056   0.299E-02-0.240E-03
CGA:  11    -0.364716216376E+03   -0.10794E-02   -0.10819E-02  7056   0.117E-02 0.285E-04
CGA:  12    -0.364716649639E+03   -0.43326E-03   -0.44008E-03  7056   0.543E-03 0.867E-04
CGA:  13    -0.364716833669E+03   -0.18403E-03   -0.19208E-03  7056   0.283E-03 0.670E-04
CGA:  14    -0.364716930818E+03   -0.97149E-04   -0.10115E-03  7056   0.121E-03 0.329E-04
CGA:  15    -0.364716971542E+03   -0.40724E-04   -0.44087E-04  7056   0.437E-04 0.305E-04
CGA:  16    -0.364716983983E+03   -0.12440E-04   -0.15385E-04  7056   0.176E-04 0.197E-04
CGA:  17    -0.364716993952E+03   -0.99692E-05   -0.10039E-04  7056   0.119E-04 0.235E-05
  11 F= -.36471699E+03 E0= -.36471699E+03  d E =0.320559E+01  mag=    12.0000
       N       E                     dE             d eps       ncg     rms          ort
SDA:   1    -0.344822053888E+03    0.19895E+02    0.00000E+00  7056   0.540E+02 0.000E+00
CGA:   2    -0.362183945917E+03   -0.17362E+02   -0.17387E+02  7056   0.172E+02 0.376E-01
CGA:   3    -0.366468303771E+03   -0.42844E+01   -0.42989E+01  7056   0.313E+01 0.885E-02
CGA:   4    -0.367221237872E+03   -0.75293E+00   -0.75299E+00  7056   0.895E+00-0.163E-02
CGA:   5    -0.367435514704E+03   -0.21428E+00   -0.21406E+00  7056   0.300E+00-0.202E-02
CGA:   6    -0.367527562796E+03   -0.92048E-01   -0.91984E-01  7056   0.105E+00-0.691E-03
CGA:   7    -0.367560550392E+03   -0.32988E-01   -0.32984E-01  7056   0.418E-01-0.475E-04
CGA:   8    -0.367572978819E+03   -0.12428E-01   -0.12405E-01  7056   0.129E-01-0.274E-03
CGA:   9    -0.367576944335E+03   -0.39655E-02   -0.39564E-02  7056   0.342E-02-0.125E-03
CGA:  10    -0.367578074453E+03   -0.11301E-02   -0.11274E-02  7056   0.105E-02-0.634E-04
CGA:  11    -0.367578461717E+03   -0.38726E-03   -0.38729E-03  7056   0.443E-03-0.109E-04
CGA:  12    -0.367578655411E+03   -0.19369E-03   -0.19689E-03  7056   0.247E-03-0.417E-04
CGA:  13    -0.367578729916E+03   -0.74505E-04   -0.75540E-04  7056   0.106E-03 0.257E-04
CGA:  14    -0.367578780741E+03   -0.50825E-04   -0.53072E-04  7056   0.770E-04-0.287E-04
CGA:  15    -0.367578794920E+03   -0.14179E-04   -0.15103E-04  7056   0.309E-04 0.847E-05
CGA:  16    -0.367578804603E+03   -0.96833E-05   -0.97086E-05  7056   0.124E-04 0.268E-06
CGA:  17    -0.367578814747E+03   -0.10144E-04    0.23060E-04  7056   0.940E-05-0.315E-05
CGA:  18    -0.367578816775E+03   -0.20282E-05   -0.20290E-05  7056   0.449E-05 0.133E-07
  12 F= -.36757882E+03 E0= -.36757882E+03  d E =-.286182E+01  mag=    12.0000
       N       E                     dE             d eps       ncg     rms          ort
SDA:   1    -0.367192992363E+03    0.38582E+00    0.00000E+00  7056   0.144E+01 0.000E+00
CGA:   2    -0.367646919084E+03   -0.45393E+00   -0.45418E+00  7056   0.483E+00 0.346E-02
CGA:   3    -0.367760510501E+03   -0.11359E+00   -0.11367E+00  7056   0.116E+00 0.311E-03
CGA:   4    -0.367783686314E+03   -0.23176E-01   -0.23078E-01  7056   0.254E-01-0.761E-03
CGA:   5    -0.367789974460E+03   -0.62881E-02   -0.62710E-02  7056   0.771E-02-0.199E-03
CGA:   6    -0.367792186545E+03   -0.22121E-02   -0.22240E-02  7056   0.279E-02 0.265E-03
CGA:   7    -0.367793007093E+03   -0.82055E-03   -0.82819E-03  7056   0.101E-02 0.164E-03
CGA:   8    -0.367793368830E+03   -0.36174E-03   -0.36195E-03  7056   0.347E-03-0.327E-04
CGA:   9    -0.367793485002E+03   -0.11617E-03   -0.11683E-03  7056   0.105E-03-0.396E-04
CGA:  10    -0.367793510916E+03   -0.25914E-04   -0.26083E-04  7056   0.238E-04 0.329E-05
CGA:  11    -0.367793518896E+03   -0.79792E-05   -0.79883E-05  7056   0.868E-05 0.192E-05
CGA:  12    -0.367793513197E+03    0.56987E-05   -0.11711E-04  7056   0.625E-04-0.189E-04
CGA:  13    -0.367793526013E+03   -0.12817E-04   -0.13824E-04  7056   0.847E-05 0.649E-05
CGA:  14    -0.367793528852E+03   -0.28382E-05   -0.28119E-05  7056   0.340E-05-0.404E-06
  13 F= -.36779353E+03 E0= -.36779353E+03  d E =-.214712E+00  mag=    12.0000
       N       E                     dE             d eps       ncg     rms          ort
SDA:   1    -0.365355332246E+03    0.24382E+01    0.00000E+00  7056   0.622E+01 0.000E+00
CGA:   2    -0.367278259774E+03   -0.19229E+01   -0.19259E+01  7056   0.215E+01 0.212E-01
CGA:   3    -0.367775564764E+03   -0.49730E+00   -0.49787E+00  7056   0.553E+00 0.158E-02
CGA:   4    -0.367884426521E+03   -0.10886E+00   -0.10869E+00  7056   0.113E+00-0.175E-02
CGA:   5    -0.367912850658E+03   -0.28424E-01   -0.28399E-01  7056   0.351E-01-0.395E-03
CGA:   6    -0.367923094747E+03   -0.10244E-01   -0.10274E-01  7056   0.133E-01 0.619E-03
CGA:   7    -0.367927028955E+03   -0.39342E-02   -0.39528E-02  7056   0.479E-02 0.395E-03
CGA:   8    -0.367928650794E+03   -0.16218E-02   -0.16211E-02  7056   0.150E-02-0.930E-04
CGA:   9    -0.367929140630E+03   -0.48984E-03   -0.48954E-03  7056   0.423E-03-0.123E-03
CGA:  10    -0.367929255137E+03   -0.11451E-03   -0.11440E-03  7056   0.953E-04-0.253E-05
CGA:  11    -0.367929289155E+03   -0.34018E-04   -0.34109E-04  7056   0.353E-04-0.351E-05
CGA:  12    -0.367929304844E+03   -0.15689E-04   -0.18302E-04  7056   0.297E-04-0.129E-04
CGA:  13    -0.367929311433E+03   -0.65886E-05   -0.10981E-04  7056   0.364E-04-0.185E-04
  14 F= -.36792931E+03 E0= -.36792931E+03  d E =-.135783E+00  mag=    12.0000
       N       E                     dE             d eps       ncg     rms          ort
SDA:   1    -0.367861434067E+03    0.67871E-01    0.00000E+00  7056   0.237E+00 0.000E+00
CGA:   2    -0.367934090154E+03   -0.72656E-01   -0.72665E-01  7056   0.916E-01 0.124E-03
CGA:   3    -0.367952982269E+03   -0.18892E-01   -0.18946E-01  7056   0.212E-01 0.268E-03
CGA:   4    -0.367957375401E+03   -0.43931E-02   -0.43627E-02  7056   0.439E-02-0.237E-03
CGA:   5    -0.367958464574E+03   -0.10892E-02   -0.10849E-02  7056   0.124E-02-0.517E-04
CGA:   6    -0.367958785146E+03   -0.32057E-03   -0.32457E-03  7056   0.419E-03 0.625E-04
CGA:   7    -0.367958902929E+03   -0.11778E-03   -0.12006E-03  7056   0.141E-03 0.432E-04
CGA:   8    -0.367958960321E+03   -0.57392E-04   -0.57761E-04  7056   0.595E-04-0.751E-05
CGA:   9    -0.367958979377E+03   -0.19056E-04   -0.19179E-04  7056   0.203E-04-0.808E-05
CGA:  10    -0.367958982221E+03   -0.28444E-05   -0.34987E-05  7056   0.549E-05 0.518E-05
  15 F= -.36795898E+03 E0= -.36795898E+03  d E =-.296708E-01  mag=    12.0000
       N       E                     dE             d eps       ncg     rms          ort
SDA:   1    -0.367323709924E+03    0.63527E+00    0.00000E+00  7056   0.165E+01 0.000E+00
CGA:   2    -0.367809526221E+03   -0.48582E+00   -0.48586E+00  7056   0.687E+00 0.743E-03
CGA:   3    -0.367941654504E+03   -0.13213E+00   -0.13237E+00  7056   0.145E+00 0.934E-03
CGA:   4    -0.367972231283E+03   -0.30577E-01   -0.30514E-01  7056   0.271E-01-0.712E-03
CGA:   5    -0.367978587543E+03   -0.63563E-02   -0.63422E-02  7056   0.734E-02-0.220E-03
CGA:   6    -0.367980492801E+03   -0.19053E-02   -0.19116E-02  7056   0.240E-02 0.174E-03
CGA:   7    -0.367981205154E+03   -0.71235E-03   -0.71342E-03  7056   0.868E-03 0.168E-03
CGA:   8    -0.367981537228E+03   -0.33207E-03   -0.33367E-03  7056   0.349E-03-0.257E-04
CGA:   9    -0.367981653912E+03   -0.11668E-03   -0.11919E-03  7056   0.122E-03-0.475E-04
CGA:  10    -0.367981680427E+03   -0.26515E-04   -0.27052E-04  7056   0.301E-04 0.121E-04
CGA:  11    -0.367981692004E+03   -0.11577E-04   -0.11698E-04  7056   0.157E-04-0.224E-05
CGA:  12    -0.367981617724E+03    0.74280E-04   -0.40075E-04  7056   0.318E-03-0.621E-04
CGA:  13    -0.367981691252E+03   -0.73528E-04   -0.76510E-04  7056   0.474E-04 0.951E-05
CGA:  14    -0.367981702450E+03   -0.11199E-04   -0.13522E-04  7056   0.146E-04 0.892E-05
CGA:  15    -0.367981708773E+03   -0.63224E-05   -0.62873E-05  7056   0.444E-05-0.199E-06
  16 F= -.36798171E+03 E0= -.36798171E+03  d E =-.227266E-01  mag=    12.0000
       N       E                     dE             d eps       ncg     rms          ort
SDA:   1    -0.367619517116E+03    0.36219E+00    0.00000E+00  7056   0.924E+00 0.000E+00
CGA:   2    -0.367899936548E+03   -0.28042E+00   -0.28009E+00  7056   0.390E+00-0.191E-02
CGA:   3    -0.367971600686E+03   -0.71664E-01   -0.72044E-01  7056   0.721E-01 0.762E-03
CGA:   4    -0.367986295482E+03   -0.14695E-01   -0.14818E-01  7056   0.135E-01 0.416E-03
CGA:   5    -0.367989411720E+03   -0.31162E-02   -0.31132E-02  7056   0.318E-02-0.146E-04
CGA:   6    -0.367990271087E+03   -0.85937E-03   -0.84070E-03  7056   0.105E-02-0.100E-03
CGA:   7    -0.367990587984E+03   -0.31690E-03   -0.31288E-03  7056   0.413E-03-0.292E-04
CGA:   8    -0.367990714712E+03   -0.12673E-03   -0.12896E-03  7056   0.141E-03 0.192E-04
CGA:   9    -0.367990765224E+03   -0.50512E-04   -0.50007E-04  7056   0.475E-04-0.551E-05
CGA:  10    -0.367990781187E+03   -0.15962E-04   -0.15687E-04  7056   0.156E-04-0.332E-05
CGA:  11    -0.367990788062E+03   -0.68756E-05   -0.76971E-05  7056   0.163E-04-0.763E-05
  17 F= -.36799079E+03 E0= -.36799079E+03  d E =-.907929E-02  mag=    12.0000
       N       E                     dE             d eps       ncg     rms          ort
SDA:   1    -0.367171742999E+03    0.81904E+00    0.00000E+00  7056   0.198E+01 0.000E+00
CGA:   2    -0.367815931039E+03   -0.64419E+00   -0.64397E+00  7056   0.780E+00-0.285E-02
CGA:   3    -0.367955661866E+03   -0.13973E+00   -0.14034E+00  7056   0.140E+00 0.170E-02
CGA:   4    -0.367984372346E+03   -0.28710E-01   -0.28789E-01  7056   0.264E-01 0.317E-03
CGA:   5    -0.367990551984E+03   -0.61796E-02   -0.61590E-02  7056   0.623E-02-0.138E-03
CGA:   6    -0.367992148253E+03   -0.15963E-02   -0.15888E-02  7056   0.194E-02-0.631E-04
CGA:   7    -0.367992734575E+03   -0.58632E-03   -0.58559E-03  7056   0.779E-03-0.104E-04
CGA:   8    -0.367992994860E+03   -0.26028E-03   -0.26097E-03  7056   0.299E-03 0.202E-04
CGA:   9    -0.367993102547E+03   -0.10769E-03   -0.10726E-03  7056   0.107E-03-0.223E-04
CGA:  10    -0.367993140191E+03   -0.37643E-04   -0.37936E-04  7056   0.440E-04-0.207E-04
CGA:  11    -0.367993153689E+03   -0.13499E-04   -0.13552E-04  7056   0.194E-04-0.399E-05
CGA:  12    -0.367993158764E+03   -0.50743E-05   -0.53192E-05  7056   0.833E-05 0.358E-05
  18 F= -.36799316E+03 E0= -.36799316E+03  d E =-.237070E-02  mag=    12.0000
       N       E                     dE             d eps       ncg     rms          ort
SDA:   1    -0.363984167996E+03    0.40090E+01    0.00000E+00  7056   0.944E+01 0.000E+00
CGA:   2    -0.367207005799E+03   -0.32228E+01   -0.32230E+01  7056   0.340E+01-0.882E-03
CGA:   3    -0.367823764675E+03   -0.61676E+00   -0.61810E+00  7056   0.612E+00 0.275E-02
CGA:   4    -0.367947661078E+03   -0.12390E+00   -0.12369E+00  7056   0.117E+00-0.172E-02
CGA:   5    -0.367975311979E+03   -0.27651E-01   -0.27580E-01  7056   0.274E-01-0.559E-03
CGA:   6    -0.367982102583E+03   -0.67906E-02   -0.68265E-02  7056   0.822E-02 0.308E-03
CGA:   7    -0.367984673988E+03   -0.25714E-02   -0.25762E-02  7056   0.342E-02 0.102E-03
CGA:   8    -0.367985950330E+03   -0.12763E-02   -0.12778E-02  7056   0.147E-02-0.963E-04
CGA:   9    -0.367986446248E+03   -0.49592E-03   -0.49504E-03  7056   0.490E-03-0.105E-03
CGA:  10    -0.367986603814E+03   -0.15757E-03   -0.15718E-03  7056   0.171E-03-0.410E-04
CGA:  11    -0.367986664264E+03   -0.60450E-04   -0.60760E-04  7056   0.912E-04-0.921E-05
CGA:  12    -0.367986702237E+03   -0.37972E-04   -0.39789E-04  7056   0.767E-04-0.172E-04
CGA:  13    -0.367986722418E+03   -0.20181E-04   -0.20196E-04  7056   0.307E-04 0.438E-06
CGA:  14    -0.367986733714E+03   -0.11297E-04   -0.11308E-04  7056   0.111E-04-0.153E-05
CGA:  15    -0.367986712695E+03    0.21020E-04   -0.15035E-04  7056   0.148E-03-0.339E-04
CGA:  16    -0.367986736561E+03   -0.23866E-04   -0.27674E-04  7056   0.174E-04 0.168E-04
CGA:  17    -0.367986742902E+03   -0.63413E-05   -0.63838E-05  7056   0.383E-05 0.586E-06
  19 F= -.36798674E+03 E0= -.36798674E+03  d E =0.641586E-02  mag=    12.0000
       N       E                     dE             d eps       ncg     rms          ort
SDA:   1    -0.350011835772E+03    0.17975E+02    0.00000E+00  7056   0.416E+02 0.000E+00
CGA:   2    -0.364488433609E+03   -0.14477E+02   -0.14479E+02  7056   0.136E+02 0.492E-02
CGA:   3    -0.367118257163E+03   -0.26298E+01   -0.26349E+01  7056   0.245E+01 0.747E-02
CGA:   4    -0.367607896547E+03   -0.48964E+00   -0.48967E+00  7056   0.517E+00-0.246E-02
CGA:   5    -0.367733116317E+03   -0.12522E+00   -0.12514E+00  7056   0.124E+00-0.668E-03
CGA:   6    -0.367766652841E+03   -0.33537E-01   -0.33561E-01  7056   0.435E-01 0.148E-03
CGA:   7    -0.367780072190E+03   -0.13419E-01   -0.13416E-01  7056   0.187E-01-0.647E-04
CGA:   8    -0.367786587962E+03   -0.65158E-02   -0.65088E-02  7056   0.688E-02-0.314E-03
CGA:   9    -0.367788853169E+03   -0.22652E-02   -0.22536E-02  7056   0.208E-02-0.313E-03
CGA:  10    -0.367789519165E+03   -0.66600E-03   -0.66195E-03  7056   0.671E-03-0.117E-03
CGA:  11    -0.367789771696E+03   -0.25253E-03   -0.25325E-03  7056   0.332E-03-0.214E-04
CGA:  12    -0.367789906025E+03   -0.13433E-03   -0.13344E-03  7056   0.196E-03 0.193E-04
CGA:  13    -0.367789988624E+03   -0.82599E-04   -0.82824E-04  7056   0.127E-03-0.773E-05
CGA:  14    -0.367790024324E+03   -0.35700E-04   -0.36474E-04  7056   0.436E-04 0.106E-04
CGA:  15    -0.367790046381E+03   -0.22057E-04   -0.28077E-04  7056   0.480E-04-0.265E-04
CGA:  16    -0.367790054884E+03   -0.85033E-05   -0.10208E-04  7056   0.699E-05 0.102E-04
CGA:  17    -0.367790061652E+03   -0.67678E-05    0.21003E-04  7056   0.402E-05-0.613E-06
  20 F= -.36779006E+03 E0= -.36779006E+03  d E =0.196681E+00  mag=    12.0000
       N       E                     dE             d eps       ncg     rms          ort
SDA:   1    -0.364148672423E+03    0.36414E+01    0.00000E+00  7056   0.938E+01 0.000E+00
CGA:   2    -0.367009466606E+03   -0.28608E+01   -0.28589E+01  7056   0.365E+01-0.951E-02
CGA:   3    -0.367736892258E+03   -0.72743E+00   -0.72794E+00  7056   0.811E+00-0.204E-02
CGA:   4    -0.367903034457E+03   -0.16614E+00   -0.16647E+00  7056   0.155E+00 0.142E-02
CGA:   5    -0.367940880384E+03   -0.37846E-01   -0.37855E-01  7056   0.442E-01 0.171E-03
CGA:   6    -0.367953384975E+03   -0.12505E-01   -0.12448E-01  7056   0.165E-01-0.557E-03
CGA:   7    -0.367958379979E+03   -0.49950E-02   -0.49800E-02  7056   0.637E-02-0.212E-03
CGA:   8    -0.367960390256E+03   -0.20103E-02   -0.20136E-02  7056   0.195E-02 0.654E-04
CGA:   9    -0.367961000763E+03   -0.61051E-03   -0.61144E-03  7056   0.551E-03 0.156E-04
CGA:  10    -0.367961185400E+03   -0.18464E-03   -0.18405E-03  7056   0.172E-03-0.165E-04
CGA:  11    -0.367961248120E+03   -0.62720E-04   -0.62753E-04  7056   0.746E-04-0.297E-05
CGA:  12    -0.367961268031E+03   -0.19911E-04   -0.21251E-04  7056   0.318E-04 0.175E-04
CGA:  13    -0.367961282879E+03   -0.14848E-04   -0.14834E-04  7056   0.191E-04 0.927E-06
CGA:  14    -0.367961289812E+03   -0.69326E-05   -0.69624E-05  7056   0.821E-05 0.332E-05
  21 F= -.36796129E+03 E0= -.36796129E+03  d E =-.171228E+00  mag=    12.0000
       N       E                     dE             d eps       ncg     rms          ort
SDA:   1    -0.366899477466E+03    0.10618E+01    0.00000E+00  7056   0.273E+01 0.000E+00
CGA:   2    -0.367760520237E+03   -0.86104E+00   -0.86150E+00  7056   0.100E+01 0.568E-02
CGA:   3    -0.367964478044E+03   -0.20396E+00   -0.20384E+00  7056   0.242E+00-0.200E-02
CGA:   4    -0.368013123926E+03   -0.48646E-01   -0.48497E-01  7056   0.434E-01-0.121E-02
CGA:   5    -0.368024024494E+03   -0.10901E-01   -0.10885E-01  7056   0.134E-01-0.188E-03
CGA:   6    -0.368027578596E+03   -0.35541E-02   -0.35777E-02  7056   0.463E-02 0.316E-03
CGA:   7    -0.368028978245E+03   -0.13996E-02   -0.14064E-02  7056   0.175E-02 0.166E-03
CGA:   8    -0.368029622416E+03   -0.64417E-03   -0.64630E-03  7056   0.635E-03-0.100E-03
CGA:   9    -0.368029808849E+03   -0.18643E-03   -0.18571E-03  7056   0.171E-03-0.276E-04
CGA:  10    -0.368029860842E+03   -0.51993E-04   -0.51829E-04  7056   0.492E-04-0.935E-05
CGA:  11    -0.368029875869E+03   -0.15026E-04   -0.15057E-04  7056   0.180E-04 0.283E-05
CGA:  12    -0.368029889017E+03   -0.13148E-04    0.97453E-04  7056   0.802E-05 0.245E-05
CGA:  13    -0.368029892003E+03   -0.29864E-05   -0.29975E-05  7056   0.348E-05 0.225E-05
  22 F= -.36802989E+03 E0= -.36802989E+03  d E =-.686022E-01  mag=    12.0000
       N       E                     dE             d eps       ncg     rms          ort
SDA:   1    -0.367687196097E+03    0.34269E+00    0.00000E+00  7056   0.833E+00 0.000E+00
CGA:   2    -0.367960527617E+03   -0.27333E+00   -0.27334E+00  7056   0.321E+00 0.159E-02
CGA:   3    -0.368020071673E+03   -0.59544E-01   -0.59577E-01  7056   0.610E-01-0.227E-03
CGA:   4    -0.368032571332E+03   -0.12500E-01   -0.12406E-01  7056   0.112E-01-0.803E-03
CGA:   5    -0.368035255810E+03   -0.26845E-02   -0.26726E-02  7056   0.293E-02-0.155E-03
CGA:   6    -0.368035920860E+03   -0.66505E-03   -0.68181E-03  7056   0.808E-03 0.209E-03
CGA:   7    -0.368036161157E+03   -0.24030E-03   -0.24358E-03  7056   0.302E-03 0.107E-03
CGA:   8    -0.368036291460E+03   -0.13030E-03   -0.13085E-03  7056   0.148E-03-0.760E-05
CGA:   9    -0.368036334876E+03   -0.43416E-04   -0.43419E-04  7056   0.436E-04 0.245E-06
CGA:  10    -0.368036350076E+03   -0.15199E-04   -0.15557E-04  7056   0.173E-04-0.835E-05
CGA:  11    -0.368036354500E+03   -0.44246E-05   -0.44246E-05  7056   0.671E-05 0.110E-06
  23 F= -.36803635E+03 E0= -.36803635E+03  d E =-.646250E-02  mag=    12.0000
       N       E                     dE             d eps       ncg     rms          ort
SDA:   1    -0.357605222803E+03    0.10431E+02    0.00000E+00  7056   0.244E+02 0.000E+00
CGA:   2    -0.365851741178E+03   -0.82465E+01   -0.82462E+01  7056   0.985E+01-0.146E-03
CGA:   3    -0.367584564641E+03   -0.17328E+01   -0.17356E+01  7056   0.158E+01 0.469E-02
CGA:   4    -0.367905529550E+03   -0.32096E+00   -0.32080E+00  7056   0.306E+00-0.338E-02
CGA:   5    -0.367978187694E+03   -0.72658E-01   -0.72599E-01  7056   0.718E-01-0.933E-03
CGA:   6    -0.367995950673E+03   -0.17763E-01   -0.17801E-01  7056   0.215E-01 0.681E-03
CGA:   7    -0.368002794163E+03   -0.68435E-02   -0.68419E-02  7056   0.909E-02 0.939E-04
CGA:   8    -0.368006119990E+03   -0.33258E-02   -0.33441E-02  7056   0.390E-02-0.272E-03
CGA:   9    -0.368007368867E+03   -0.12489E-02   -0.12545E-02  7056   0.120E-02-0.192E-03
CGA:  10    -0.368007747835E+03   -0.37897E-03   -0.38219E-03  7056   0.397E-03-0.104E-03
CGA:  11    -0.368007868236E+03   -0.12040E-03   -0.11992E-03  7056   0.169E-03 0.192E-04
CGA:  12    -0.368007947522E+03   -0.79286E-04   -0.81178E-04  7056   0.128E-03-0.123E-04
CGA:  13    -0.368007985129E+03   -0.37608E-04   -0.37523E-04  7056   0.524E-04 0.298E-04
CGA:  14    -0.368008006526E+03   -0.21397E-04   -0.21271E-04  7056   0.203E-04 0.863E-05
CGA:  15    -0.368008011331E+03   -0.48050E-05   -0.19574E-04  7056   0.739E-04-0.288E-04
CGA:  16    -0.368008019473E+03   -0.81418E-05   -0.11662E-04  7056   0.114E-04 0.192E-04
  24 F= -.36800802E+03 E0= -.36800802E+03  d E =0.283350E-01  mag=    12.0000
       N       E                     dE             d eps       ncg     rms          ort
SDA:   1    -0.363086891540E+03    0.49211E+01    0.00000E+00  7056   0.120E+02 0.000E+00
CGA:   2    -0.366896274259E+03   -0.38094E+01   -0.38094E+01  7056   0.484E+01-0.392E-02
CGA:   3    -0.367791469211E+03   -0.89519E+00   -0.89665E+00  7056   0.851E+00 0.328E-02
CGA:   4    -0.367962008693E+03   -0.17054E+00   -0.17041E+00  7056   0.159E+00-0.180E-02
CGA:   5    -0.367999731478E+03   -0.37723E-01   -0.37678E-01  7056   0.371E-01-0.611E-03
CGA:   6    -0.368009052006E+03   -0.93205E-02   -0.93405E-02  7056   0.112E-01 0.337E-03
CGA:   7    -0.368012590297E+03   -0.35383E-02   -0.35382E-02  7056   0.471E-02 0.147E-04
CGA:   8    -0.368014307920E+03   -0.17176E-02   -0.17221E-02  7056   0.197E-02-0.770E-04
CGA:   9    -0.368014967384E+03   -0.65946E-03   -0.66186E-03  7056   0.638E-03-0.757E-04
CGA:  10    -0.368015185038E+03   -0.21765E-03   -0.22146E-03  7056   0.236E-03-0.759E-04
CGA:  11    -0.368015258433E+03   -0.73395E-04   -0.73210E-04  7056   0.100E-03 0.469E-05
CGA:  12    -0.368015301740E+03   -0.43307E-04   -0.43804E-04  7056   0.662E-04-0.443E-05
CGA:  13    -0.368015319504E+03   -0.17764E-04   -0.18311E-04  7056   0.254E-04 0.173E-04
CGA:  14    -0.368015331756E+03   -0.12252E-04   -0.12248E-04  7056   0.123E-04 0.295E-07
CGA:  15    -0.368015310200E+03    0.21556E-04   -0.17620E-04  7056   0.151E-03-0.355E-04
CGA:  16    -0.368015330820E+03   -0.20620E-04   -0.25978E-04  7056   0.197E-04 0.261E-04
CGA:  17    -0.368015338186E+03   -0.73657E-05   -0.74074E-05  7056   0.633E-05 0.874E-06
CGA:  18    -0.368015343312E+03   -0.51267E-05    0.19226E-04  7056   0.411E-05-0.117E-05
  25 F= -.36801534E+03 E0= -.36801534E+03  d E =-.732384E-02  mag=    12.0000
       N       E                     dE             d eps       ncg     rms          ort
SDA:   1    -0.363627086937E+03    0.43883E+01    0.00000E+00  7056   0.104E+02 0.000E+00
CGA:   2    -0.366967897036E+03   -0.33408E+01   -0.33409E+01  7056   0.459E+01-0.341E-02
CGA:   3    -0.367794207255E+03   -0.82631E+00   -0.82766E+00  7056   0.757E+00-0.272E-03
CGA:   4    -0.367949121356E+03   -0.15491E+00   -0.15518E+00  7056   0.147E+00 0.206E-02
CGA:   5    -0.367984211007E+03   -0.35090E-01   -0.35145E-01  7056   0.372E-01 0.496E-03
CGA:   6    -0.367994192855E+03   -0.99818E-02   -0.99369E-02  7056   0.125E-01-0.679E-03
CGA:   7    -0.367998041031E+03   -0.38482E-02   -0.38409E-02  7056   0.504E-02-0.414E-03
CGA:   8    -0.367999728890E+03   -0.16879E-02   -0.16899E-02  7056   0.183E-02-0.115E-03
CGA:   9    -0.368000301722E+03   -0.57283E-03   -0.57237E-03  7056   0.531E-03-0.502E-04
CGA:  10    -0.368000460432E+03   -0.15871E-03   -0.15883E-03  7056   0.150E-03 0.531E-05
CGA:  11    -0.368000519747E+03   -0.59315E-04   -0.60466E-04  7056   0.831E-04-0.163E-04
CGA:  12    -0.368000541159E+03   -0.21411E-04   -0.22006E-04  7056   0.360E-04 0.171E-04
CGA:  13    -0.368000558040E+03   -0.16881E-04   -0.16779E-04  7056   0.205E-04 0.179E-05
CGA:  14    -0.368000566855E+03   -0.88155E-05   -0.87415E-05  7056   0.111E-04 0.995E-06
  26 F= -.36800057E+03 E0= -.36800057E+03  d E =0.147765E-01  mag=    12.0000
       N       E                     dE             d eps       ncg     rms          ort
SDA:   1    -0.367375865633E+03    0.62469E+00    0.00000E+00  7056   0.163E+01 0.000E+00
CGA:   2    -0.367886029479E+03   -0.51016E+00   -0.51014E+00  7056   0.593E+00-0.157E-02
CGA:   3    -0.368012535377E+03   -0.12651E+00   -0.12655E+00  7056   0.132E+00-0.274E-03
CGA:   4    -0.368038826050E+03   -0.26291E-01   -0.26377E-01  7056   0.286E-01 0.597E-03
CGA:   5    -0.368045985731E+03   -0.71597E-02   -0.71623E-02  7056   0.791E-02 0.398E-04
CGA:   6    -0.368048394670E+03   -0.24089E-02   -0.24066E-02  7056   0.327E-02-0.285E-03
CGA:   7    -0.368049322956E+03   -0.92829E-03   -0.92684E-03  7056   0.122E-02-0.826E-04
CGA:   8    -0.368049705171E+03   -0.38222E-03   -0.38225E-03  7056   0.377E-03-0.289E-05
CGA:   9    -0.368049822690E+03   -0.11752E-03   -0.11752E-03  7056   0.110E-03 0.167E-06
CGA:  10    -0.368049856232E+03   -0.33542E-04   -0.33576E-04  7056   0.318E-04 0.602E-05
CGA:  11    -0.368049868821E+03   -0.12589E-04   -0.12548E-04  7056   0.148E-04 0.646E-06
CGA:  12    -0.368049872038E+03   -0.32168E-05   -0.36565E-05  7056   0.630E-05 0.609E-05
  27 F= -.36804987E+03 E0= -.36804987E+03  d E =-.493052E-01  mag=    12.0000
       N       E                     dE             d eps       ncg     rms          ort
SDA:   1    -0.367761247109E+03    0.28862E+00    0.00000E+00  7056   0.711E+00 0.000E+00
CGA:   2    -0.367984070203E+03   -0.22282E+00   -0.22282E+00  7056   0.306E+00 0.939E-03
CGA:   3    -0.368039246244E+03   -0.55176E-01   -0.55286E-01  7056   0.509E-01 0.324E-03
CGA:   4    -0.368049782267E+03   -0.10536E-01   -0.10466E-01  7056   0.965E-02-0.731E-03
CGA:   5    -0.368052034761E+03   -0.22525E-02   -0.22420E-02  7056   0.228E-02-0.166E-03
CGA:   6    -0.368052532591E+03   -0.49783E-03   -0.51055E-03  7056   0.588E-03 0.183E-03
CGA:   7    -0.368052703197E+03   -0.17061E-03   -0.17271E-03  7056   0.216E-03 0.984E-04
CGA:   8    -0.368052797006E+03   -0.93809E-04   -0.92984E-04  7056   0.111E-03 0.107E-04
CGA:   9    -0.368052833971E+03   -0.36965E-04   -0.36869E-04  7056   0.375E-04 0.477E-05
CGA:  10    -0.368052847744E+03   -0.13773E-04   -0.14175E-04  7056   0.161E-04-0.618E-05
CGA:  11    -0.368052851764E+03   -0.40200E-05   -0.40204E-05  7056   0.627E-05 0.777E-06
CGA:  12    -0.368052855789E+03   -0.40256E-05    0.52213E-04  7056   0.293E-05 0.131E-05
  28 F= -.36805286E+03 E0= -.36805286E+03  d E =-.298375E-02  mag=    12.0000
       N       E                     dE             d eps       ncg     rms          ort
SDA:   1    -0.367748495392E+03    0.30436E+00    0.00000E+00  7056   0.722E+00 0.000E+00
CGA:   2    -0.367999715213E+03   -0.25122E+00   -0.25121E+00  7056   0.224E+00 0.105E-02
CGA:   3    -0.368044913406E+03   -0.45198E-01   -0.45233E-01  7056   0.397E-01 0.710E-04
CGA:   4    -0.368052890346E+03   -0.79769E-02   -0.78973E-02  7056   0.849E-02-0.624E-03
CGA:   5    -0.368054806768E+03   -0.19164E-02   -0.19160E-02  7056   0.186E-02-0.616E-05
CGA:   6    -0.368055247065E+03   -0.44030E-03   -0.45109E-03  7056   0.532E-03 0.137E-03
CGA:   7    -0.368055424885E+03   -0.17782E-03   -0.17796E-03  7056   0.247E-03 0.235E-04
CGA:   8    -0.368055519968E+03   -0.95083E-04   -0.95356E-04  7056   0.109E-03-0.525E-05
CGA:   9    -0.368055556840E+03   -0.36873E-04   -0.37029E-04  7056   0.354E-04-0.599E-05
CGA:  10    -0.368055569528E+03   -0.12687E-04   -0.13485E-04  7056   0.183E-04-0.976E-05
CGA:  11    -0.368055573411E+03   -0.38830E-05   -0.39156E-05  7056   0.755E-05 0.106E-05
  29 F= -.36805557E+03 E0= -.36805557E+03  d E =-.271762E-02  mag=    12.0000
       N       E                     dE             d eps       ncg     rms          ort
SDA:   1    -0.348333335769E+03    0.19722E+02    0.00000E+00  7056   0.468E+02 0.000E+00
CGA:   2    -0.364393238821E+03   -0.16060E+02   -0.16059E+02  7056   0.145E+02 0.240E-01
CGA:   3    -0.367329855758E+03   -0.29366E+01   -0.29412E+01  7056   0.255E+01 0.665E-02
CGA:   4    -0.367836474995E+03   -0.50662E+00   -0.50644E+00  7056   0.550E+00-0.415E-02
CGA:   5    -0.367964834283E+03   -0.12836E+00   -0.12833E+00  7056   0.129E+00-0.447E-03
CGA:   6    -0.367999589985E+03   -0.34756E-01   -0.34763E-01  7056   0.440E-01 0.134E-03
CGA:   7    -0.368013753570E+03   -0.14164E-01   -0.14174E-01  7056   0.208E-01-0.718E-03
CGA:   8    -0.368020691157E+03   -0.69376E-02   -0.69546E-02  7056   0.783E-02-0.530E-03
CGA:   9    -0.368023232071E+03   -0.25409E-02   -0.25503E-02  7056   0.232E-02-0.374E-03
CGA:  10    -0.368023967826E+03   -0.73575E-03   -0.73966E-03  7056   0.773E-03-0.159E-03
CGA:  11    -0.368024255740E+03   -0.28791E-03   -0.29157E-03  7056   0.379E-03-0.393E-04
CGA:  12    -0.368024420314E+03   -0.16457E-03   -0.16339E-03  7056   0.229E-03 0.821E-05
CGA:  13    -0.368024508470E+03   -0.88156E-04   -0.87649E-04  7056   0.118E-03 0.971E-05
CGA:  14    -0.368024549710E+03   -0.41240E-04   -0.41227E-04  7056   0.450E-04 0.143E-05
CGA:  15    -0.368024564783E+03   -0.15073E-04   -0.34553E-04  7056   0.969E-04-0.451E-04
CGA:  16    -0.368024583486E+03   -0.18703E-04   -0.20238E-04  7056   0.143E-04 0.111E-04
CGA:  17    -0.368024583625E+03   -0.13952E-06   -0.13138E-04  7056   0.645E-04-0.268E-04
CGA:  18    -0.368024594691E+03   -0.11065E-04   -0.12661E-04  7056   0.724E-05 0.944E-05
CGA:  19    -0.368024596292E+03   -0.16011E-05   -0.58901E-05  7056   0.186E-04-0.121E-04
  30 F= -.36802460E+03 E0= -.36802460E+03  d E =0.309771E-01  mag=    12.0000
       N       E                     dE             d eps       ncg     rms          ort
SDA:   1    -0.346351077228E+03    0.21674E+02    0.00000E+00  7056   0.512E+02 0.000E+00
CGA:   2    -0.363955103881E+03   -0.17604E+02   -0.17604E+02  7056   0.164E+02-0.257E-01
CGA:   3    -0.367164631628E+03   -0.32095E+01   -0.32182E+01  7056   0.305E+01 0.890E-02
CGA:   4    -0.367766970810E+03   -0.60234E+00   -0.60250E+00  7056   0.623E+00-0.412E-02
CGA:   5    -0.367915397102E+03   -0.14843E+00   -0.14835E+00  7056   0.148E+00-0.695E-03
CGA:   6    -0.367955014589E+03   -0.39617E-01   -0.39632E-01  7056   0.496E-01 0.900E-04
CGA:   7    -0.367970899742E+03   -0.15885E-01   -0.15870E-01  7056   0.220E-01-0.766E-03
CGA:   8    -0.367978376013E+03   -0.74763E-02   -0.74789E-02  7056   0.809E-02-0.465E-03
CGA:   9    -0.367980991478E+03   -0.26155E-02   -0.26124E-02  7056   0.238E-02-0.315E-03
CGA:  10    -0.367981771316E+03   -0.77984E-03   -0.78018E-03  7056   0.807E-03-0.199E-03
CGA:  11    -0.367982046611E+03   -0.27529E-03   -0.27523E-03  7056   0.369E-03 0.128E-05
CGA:  12    -0.367982205053E+03   -0.15844E-03   -0.15781E-03  7056   0.241E-03 0.696E-05
CGA:  13    -0.367982297769E+03   -0.92716E-04   -0.91909E-04  7056   0.113E-03 0.267E-04
CGA:  14    -0.367982356493E+03   -0.58724E-04   -0.62120E-04  7056   0.673E-04-0.227E-04
CGA:  15    -0.367982380003E+03   -0.23511E-04   -0.24213E-04  7056   0.281E-04-0.741E-05
CGA:  16    -0.367982193934E+03    0.18607E-03   -0.10002E-03  7056   0.712E-03-0.124E-03
CGA:  17    -0.367982386471E+03   -0.19254E-03   -0.20018E-03  7056   0.812E-04 0.167E-04
CGA:  18    -0.367982411717E+03   -0.25246E-04   -0.24046E-04  7056   0.227E-04-0.342E-05
CGA:  19    -0.367982415667E+03   -0.39505E-05   -0.65667E-05  7056   0.718E-05 0.823E-05
  31 F= -.36798242E+03 E0= -.36798242E+03  d E =0.421806E-01  mag=    12.0000
       N       E                     dE             d eps       ncg     rms          ort
SDA:   1    -0.354647879727E+03    0.13335E+02    0.00000E+00  7056   0.323E+02 0.000E+00
CGA:   2    -0.364769263519E+03   -0.10121E+02   -0.10155E+02  7056   0.120E+02 0.259E-05
CGA:   3    -0.367171406364E+03   -0.24021E+01   -0.24098E+01  7056   0.243E+01 0.368E-01
CGA:   4    -0.367654414455E+03   -0.48301E+00   -0.48361E+00  7056   0.477E+00 0.365E-02
CGA:   5    -0.367770681779E+03   -0.11627E+00   -0.11634E+00  7056   0.127E+00 0.108E-03
CGA:   6    -0.367806362170E+03   -0.35680E-01   -0.35617E-01  7056   0.457E-01-0.340E-03
CGA:   7    -0.367820462346E+03   -0.14100E-01   -0.14046E-01  7056   0.190E-01-0.281E-03
CGA:   8    -0.367826822812E+03   -0.63605E-02   -0.63326E-02  7056   0.652E-02-0.176E-03
CGA:   9    -0.367828913111E+03   -0.20903E-02   -0.20792E-02  7056   0.191E-02-0.668E-04
CGA:  10    -0.367829526288E+03   -0.61318E-03   -0.61273E-03  7056   0.605E-03-0.310E-05
CGA:  11    -0.367829761161E+03   -0.23487E-03   -0.23518E-03  7056   0.291E-03 0.349E-05
CGA:  12    -0.367829869392E+03   -0.10823E-03   -0.11106E-03  7056   0.161E-03 0.309E-04
CGA:  13    -0.367829936152E+03   -0.66759E-04   -0.67044E-04  7056   0.956E-04 0.306E-05
CGA:  14    -0.367829958255E+03   -0.22104E-04   -0.26747E-04  7056   0.325E-04 0.248E-04
CGA:  15    -0.367829967613E+03   -0.93572E-05   -0.11456E-04  7056   0.130E-04 0.121E-04
  32 F= -.36782997E+03 E0= -.36782997E+03  d E =0.152448E+00  mag=    12.0000
       N       E                     dE             d eps       ncg     rms          ort
SDA:   1    -0.364128649509E+03    0.37013E+01    0.00000E+00  7056   0.101E+02 0.000E+00
CGA:   2    -0.366930590812E+03   -0.28019E+01   -0.28018E+01  7056   0.454E+01-0.517E-02
CGA:   3    -0.367825457330E+03   -0.89487E+00   -0.89680E+00  7056   0.910E+00 0.321E-03
CGA:   4    -0.368013349938E+03   -0.18789E+00   -0.18821E+00  7056   0.180E+00 0.115E-02
CGA:   5    -0.368056915298E+03   -0.43565E-01   -0.43591E-01  7056   0.494E-01 0.168E-03
CGA:   6    -0.368070628336E+03   -0.13713E-01   -0.13663E-01  7056   0.185E-01-0.407E-03
CGA:   7    -0.368076203663E+03   -0.55753E-02   -0.55612E-02  7056   0.691E-02-0.161E-03
CGA:   8    -0.368078495579E+03   -0.22919E-02   -0.22900E-02  7056   0.239E-02-0.353E-04
CGA:   9    -0.368079248465E+03   -0.75289E-03   -0.75126E-03  7056   0.734E-03-0.237E-04
CGA:  10    -0.368079486772E+03   -0.23831E-03   -0.23848E-03  7056   0.233E-03 0.307E-05
CGA:  11    -0.368079579820E+03   -0.93048E-04   -0.93216E-04  7056   0.114E-03-0.946E-05
CGA:  12    -0.368079617123E+03   -0.37304E-04   -0.37774E-04  7056   0.500E-04 0.128E-04
CGA:  13    -0.368079637918E+03   -0.20795E-04   -0.20796E-04  7056   0.253E-04 0.169E-06
CGA:  14    -0.368079644905E+03   -0.69862E-05   -0.75114E-05  7056   0.871E-05 0.630E-05
  33 F= -.36807964E+03 E0= -.36807964E+03  d E =-.249677E+00  mag=    12.0000
       N       E                     dE             d eps       ncg     rms          ort
SDA:   1    -0.366811804852E+03    0.12678E+01    0.00000E+00  7056   0.301E+01 0.000E+00
CGA:   2    -0.367861632257E+03   -0.10498E+01   -0.10498E+01  7056   0.899E+00-0.287E-03
CGA:   3    -0.368045187638E+03   -0.18356E+00   -0.18377E+00  7056   0.162E+00 0.378E-03
CGA:   4    -0.368077455402E+03   -0.32268E-01   -0.32140E-01  7056   0.343E-01-0.941E-03
CGA:   5    -0.368085309853E+03   -0.78545E-02   -0.78555E-02  7056   0.752E-02 0.340E-05
CGA:   6    -0.368087286036E+03   -0.19762E-02   -0.19856E-02  7056   0.234E-02 0.110E-03
CGA:   7    -0.368088059171E+03   -0.77313E-03   -0.77166E-03  7056   0.113E-02-0.775E-04
CGA:   8    -0.368088427283E+03   -0.36811E-03   -0.36801E-03  7056   0.415E-03-0.168E-04
CGA:   9    -0.368088568001E+03   -0.14072E-03   -0.14075E-03  7056   0.129E-03-0.245E-04
CGA:  10    -0.368088612839E+03   -0.44839E-04   -0.45712E-04  7056   0.532E-04-0.258E-04
CGA:  11    -0.368088629732E+03   -0.16893E-04   -0.17371E-04  7056   0.262E-04-0.750E-05
CGA:  12    -0.368088638763E+03   -0.90314E-05   -0.90606E-05  7056   0.154E-04-0.543E-06
  34 F= -.36808864E+03 E0= -.36808864E+03  d E =-.899386E-02  mag=    12.0000
       N       E                     dE             d eps       ncg     rms          ort
SDA:   1    -0.363337958561E+03    0.47507E+01    0.00000E+00  7056   0.112E+02 0.000E+00
CGA:   2    -0.367107400647E+03   -0.37694E+01   -0.37697E+01  7056   0.427E+01 0.129E-02
CGA:   3    -0.367871435345E+03   -0.76403E+00   -0.76572E+00  7056   0.764E+00 0.227E-02
CGA:   4    -0.368025447582E+03   -0.15401E+00   -0.15386E+00  7056   0.142E+00-0.173E-02
CGA:   5    -0.368059199309E+03   -0.33752E-01   -0.33714E-01  7056   0.331E-01-0.370E-03
CGA:   6    -0.368067534362E+03   -0.83351E-02   -0.83570E-02  7056   0.101E-01 0.246E-03
CGA:   7    -0.368070811231E+03   -0.32769E-02   -0.32750E-02  7056   0.444E-02-0.165E-03
CGA:   8    -0.368072404715E+03   -0.15935E-02   -0.15999E-02  7056   0.182E-02-0.187E-03
CGA:   9    -0.368072993863E+03   -0.58915E-03   -0.58968E-03  7056   0.541E-03-0.961E-04
CGA:  10    -0.368073170797E+03   -0.17693E-03   -0.17759E-03  7056   0.176E-03-0.512E-04
CGA:  11    -0.368073236307E+03   -0.65510E-04   -0.67158E-04  7056   0.950E-04-0.190E-04
CGA:  12    -0.368073275560E+03   -0.39253E-04   -0.43410E-04  7056   0.976E-04-0.240E-04
CGA:  13    -0.368073296088E+03   -0.20529E-04   -0.20437E-04  7056   0.424E-04-0.156E-05
CGA:  14    -0.368073312048E+03   -0.15960E-04   -0.16369E-04  7056   0.198E-04-0.855E-05
CGA:  15    -0.368073314276E+03   -0.22271E-05   -0.11075E-04  7056   0.640E-04-0.250E-04
CGA:  16    -0.368073323442E+03   -0.91667E-05   -0.10491E-04  7056   0.631E-05 0.661E-05
  35 F= -.36807332E+03 E0= -.36807332E+03  d E =0.153153E-01  mag=    12.0000
       N       E                     dE             d eps       ncg     rms          ort
SDA:   1    -0.305124436295E+03    0.62949E+02    0.00000E+00  7056   0.139E+03 0.000E+00
CGA:   2    -0.350696663395E+03   -0.45572E+02   -0.45591E+02  7056   0.423E+02-0.348E+00
CGA:   3    -0.360504262415E+03   -0.98076E+01   -0.98661E+01  7056   0.101E+02 0.125E-01
CGA:   4    -0.362653754677E+03   -0.21495E+01   -0.21394E+01  7056   0.251E+01 0.134E-01
CGA:   5    -0.363322295759E+03   -0.66854E+00   -0.66827E+00  7056   0.853E+00-0.175E-02
CGA:   6    -0.363572148593E+03   -0.24985E+00   -0.24986E+00  7056   0.309E+00-0.193E-02
CGA:   7    -0.363664415350E+03   -0.92267E-01   -0.92206E-01  7056   0.122E+00-0.122E-02
CGA:   8    -0.363700608128E+03   -0.36193E-01   -0.36194E-01  7056   0.370E-01 0.108E-03
CGA:   9    -0.363712763870E+03   -0.12156E-01   -0.12153E-01  7056   0.109E-01-0.217E-03
CGA:  10    -0.363716404602E+03   -0.36407E-02   -0.36396E-02  7056   0.366E-02-0.229E-03
CGA:  11    -0.363717702604E+03   -0.12980E-02   -0.12962E-02  7056   0.149E-02 0.882E-04
CGA:  12    -0.363718254906E+03   -0.55230E-03   -0.55003E-03  7056   0.708E-03 0.119E-03
CGA:  13    -0.363718494509E+03   -0.23960E-03   -0.24294E-03  7056   0.305E-03 0.138E-03
CGA:  14    -0.363718637744E+03   -0.14323E-03   -0.14161E-03  7056   0.145E-03 0.349E-04
CGA:  15    -0.363718695436E+03   -0.57692E-04   -0.57338E-04  7056   0.554E-04 0.308E-04
CGA:  16    -0.363718716563E+03   -0.21128E-04   -0.21507E-04  7056   0.209E-04 0.158E-04
CGA:  17    -0.363718577833E+03    0.13873E-03   -0.74582E-04  7056   0.608E-03-0.108E-03
CGA:  18    -0.363718700581E+03   -0.12275E-03   -0.13743E-03  7056   0.120E-03 0.382E-04
CGA:  19    -0.363718743955E+03   -0.43374E-04   -0.39779E-04  7056   0.341E-04-0.123E-04
CGA:  20    -0.363718752227E+03   -0.82726E-05   -0.98283E-05  7056   0.977E-05 0.580E-05
  36 F= -.36371875E+03 E0= -.36371875E+03  d E =0.435457E+01  mag=    12.0000
       N       E                     dE             d eps       ncg     rms          ort
SDA:   1    -0.356149633008E+03    0.75691E+01    0.00000E+00  7056   0.244E+02 0.000E+00
CGA:   2    -0.364276075622E+03   -0.81264E+01   -0.81293E+01  7056   0.741E+01 0.120E-01
CGA:   3    -0.366118694646E+03   -0.18426E+01   -0.18493E+01  7056   0.136E+01-0.281E-02
CGA:   4    -0.366440165573E+03   -0.32147E+00   -0.32157E+00  7056   0.367E+00 0.300E-03
CGA:   5    -0.366528133151E+03   -0.87968E-01   -0.87898E-01  7056   0.124E+00-0.365E-03
CGA:   6    -0.366564921703E+03   -0.36789E-01   -0.36774E-01  7056   0.435E-01-0.529E-04
CGA:   7    -0.366578517708E+03   -0.13596E-01   -0.13604E-01  7056   0.174E-01 0.370E-04
CGA:   8    -0.366583617722E+03   -0.51000E-02   -0.50961E-02  7056   0.530E-02-0.197E-04
CGA:   9    -0.366585256634E+03   -0.16389E-02   -0.16311E-02  7056   0.146E-02-0.447E-04
CGA:  10    -0.366585715275E+03   -0.45864E-03   -0.46166E-03  7056   0.439E-03 0.198E-04
CGA:  11    -0.366585880591E+03   -0.16532E-03   -0.16595E-03  7056   0.192E-03 0.693E-05
CGA:  12    -0.366585963182E+03   -0.82591E-04   -0.82275E-04  7056   0.104E-03-0.858E-05
CGA:  13    -0.366586003004E+03   -0.39822E-04   -0.39503E-04  7056   0.545E-04-0.528E-05
CGA:  14    -0.366586021980E+03   -0.18977E-04   -0.18718E-04  7056   0.247E-04-0.280E-05
CGA:  15    -0.366586029898E+03   -0.79172E-05   -0.79432E-05  7056   0.870E-05 0.214E-06
  37 F= -.36658603E+03 E0= -.36658603E+03  d E =-.286728E+01  mag=    12.0000
       N       E                     dE             d eps       ncg     rms          ort
SDA:   1    -0.361425505068E+03    0.51605E+01    0.00000E+00  7056   0.145E+02 0.000E+00
CGA:   2    -0.366232904470E+03   -0.48074E+01   -0.48162E+01  7056   0.456E+01 0.180E-01
CGA:   3    -0.367367811802E+03   -0.11349E+01   -0.11352E+01  7056   0.871E+00 0.158E-02
CGA:   4    -0.367565931584E+03   -0.19812E+00   -0.19818E+00  7056   0.237E+00-0.718E-03
CGA:   5    -0.367622276375E+03   -0.56345E-01   -0.56343E-01  7056   0.791E-01-0.261E-03
CGA:   6    -0.367646184735E+03   -0.23908E-01   -0.23951E-01  7056   0.279E-01 0.410E-03
CGA:   7    -0.367654719920E+03   -0.85352E-02   -0.85598E-02  7056   0.111E-01 0.237E-03
CGA:   8    -0.367658067173E+03   -0.33473E-02   -0.33410E-02  7056   0.334E-02-0.632E-04
CGA:   9    -0.367659115923E+03   -0.10487E-02   -0.10431E-02  7056   0.897E-03-0.675E-04
CGA:  10    -0.367659381799E+03   -0.26588E-03   -0.26839E-03  7056   0.245E-03 0.285E-04
CGA:  11    -0.367659475907E+03   -0.94108E-04   -0.94165E-04  7056   0.107E-03 0.347E-05
CGA:  12    -0.367659522649E+03   -0.46742E-04   -0.47024E-04  7056   0.591E-04-0.612E-05
CGA:  13    -0.367659546043E+03   -0.23394E-04   -0.23621E-04  7056   0.365E-04-0.686E-05
CGA:  14    -0.367659553752E+03   -0.77093E-05   -0.83673E-05  7056   0.139E-04 0.495E-05
  38 F= -.36765955E+03 E0= -.36765955E+03  d E =-.107352E+01  mag=    12.0000
       N       E                     dE             d eps       ncg     rms          ort
SDA:   1    -0.366727944571E+03    0.93160E+00    0.00000E+00  7056   0.284E+01 0.000E+00
CGA:   2    -0.367655884806E+03   -0.92794E+00   -0.92867E+00  7056   0.872E+00 0.758E-02
CGA:   3    -0.367872123949E+03   -0.21624E+00   -0.21605E+00  7056   0.185E+00-0.136E-02
CGA:   4    -0.367911248250E+03   -0.39124E-01   -0.39048E-01  7056   0.476E-01-0.677E-03
CGA:   5    -0.367922667896E+03   -0.11420E-01   -0.11403E-01  7056   0.154E-01-0.173E-03
CGA:   6    -0.367927239561E+03   -0.45717E-02   -0.45933E-02  7056   0.536E-02 0.366E-03
CGA:   7    -0.367928819850E+03   -0.15803E-02   -0.15937E-02  7056   0.215E-02 0.205E-03
CGA:   8    -0.367929504428E+03   -0.68458E-03   -0.68313E-03  7056   0.661E-03-0.319E-04
CGA:   9    -0.367929718857E+03   -0.21443E-03   -0.21347E-03  7056   0.190E-03-0.442E-04
CGA:  10    -0.367929766842E+03   -0.47985E-04   -0.48803E-04  7056   0.443E-04 0.111E-04
CGA:  11    -0.367929781633E+03   -0.14790E-04   -0.14944E-04  7056   0.160E-04 0.584E-05
CGA:  12    -0.367929790115E+03   -0.84827E-05   -0.12126E-04  7056   0.251E-04-0.111E-04
  39 F= -.36792979E+03 E0= -.36792979E+03  d E =-.270236E+00  mag=    12.0000
       N       E                     dE             d eps       ncg     rms          ort
SDA:   1    -0.365392673424E+03    0.25371E+01    0.00000E+00  7056   0.640E+01 0.000E+00
CGA:   2    -0.367449339101E+03   -0.20567E+01   -0.20586E+01  7056   0.196E+01 0.321E-01
CGA:   3    -0.367945736861E+03   -0.49640E+00   -0.49620E+00  7056   0.436E+00-0.127E-02
CGA:   4    -0.368036832408E+03   -0.91096E-01   -0.91050E-01  7056   0.109E+00-0.103E-02
CGA:   5    -0.368063580911E+03   -0.26749E-01   -0.26755E-01  7056   0.373E-01-0.105E-03
CGA:   6    -0.368074704306E+03   -0.11123E-01   -0.11147E-01  7056   0.128E-01 0.653E-03
CGA:   7    -0.368078643949E+03   -0.39396E-02   -0.39505E-02  7056   0.516E-02 0.347E-03
CGA:   8    -0.368080223313E+03   -0.15794E-02   -0.15772E-02  7056   0.148E-02-0.678E-04
CGA:   9    -0.368080698490E+03   -0.47518E-03   -0.47483E-03  7056   0.407E-03-0.963E-04
CGA:  10    -0.368080807118E+03   -0.10863E-03   -0.10867E-03  7056   0.983E-04 0.833E-06
CGA:  11    -0.368080839823E+03   -0.32705E-04   -0.32688E-04  7056   0.336E-04 0.393E-05
CGA:  12    -0.368080854771E+03   -0.14948E-04   -0.22752E-04  7056   0.537E-04-0.241E-04
CGA:  13    -0.368080863298E+03   -0.85265E-05   -0.99595E-05  7056   0.841E-05 0.902E-05
  40 F= -.36808086E+03 E0= -.36808086E+03  d E =-.151073E+00  mag=    12.0000
       N       E                     dE             d eps       ncg     rms          ort
SDA:   1    -0.368004424962E+03    0.76430E-01    0.00000E+00  7056   0.217E+00 0.000E+00
CGA:   2    -0.368075807058E+03   -0.71382E-01   -0.71383E-01  7056   0.710E-01 0.175E-03
CGA:   3    -0.368092993320E+03   -0.17186E-01   -0.17190E-01  7056   0.144E-01 0.193E-04
CGA:   4    -0.368096087030E+03   -0.30937E-02   -0.30802E-02  7056   0.377E-02-0.130E-03
CGA:   5    -0.368096967090E+03   -0.88006E-03   -0.87964E-03  7056   0.112E-02-0.558E-05
CGA:   6    -0.368097299421E+03   -0.33233E-03   -0.33266E-03  7056   0.404E-03 0.180E-04
CGA:   7    -0.368097421181E+03   -0.12176E-03   -0.12167E-03  7056   0.165E-03-0.472E-05
CGA:   8    -0.368097471576E+03   -0.50396E-04   -0.50366E-04  7056   0.496E-04-0.455E-05
CGA:   9    -0.368097486707E+03   -0.15131E-04   -0.15130E-04  7056   0.136E-04-0.154E-05
CGA:  10    -0.368097491581E+03   -0.48743E-05   -0.70358E-05  7056   0.156E-04-0.988E-05
  41 F= -.36809749E+03 E0= -.36809749E+03  d E =-.166283E-01  mag=    12.0000
       N       E                     dE             d eps       ncg     rms          ort
SDA:   1    -0.368043089162E+03    0.54398E-01    0.00000E+00  7056   0.144E+00 0.000E+00
CGA:   2    -0.368087907758E+03   -0.44819E-01   -0.44827E-01  7056   0.440E-01 0.120E-02
CGA:   3    -0.368098754450E+03   -0.10847E-01   -0.10831E-01  7056   0.123E-01-0.252E-03
CGA:   4    -0.368101157909E+03   -0.24035E-02   -0.23630E-02  7056   0.241E-02-0.346E-03
CGA:   5    -0.368101765103E+03   -0.60719E-03   -0.60445E-03  7056   0.777E-03-0.552E-04
CGA:   6    -0.368101952912E+03   -0.18781E-03   -0.19223E-03  7056   0.238E-03 0.842E-04
CGA:   7    -0.368102018654E+03   -0.65741E-04   -0.68095E-04  7056   0.836E-04 0.517E-04
CGA:   8    -0.368102054149E+03   -0.35495E-04   -0.35397E-04  7056   0.344E-04 0.209E-05
CGA:   9    -0.368102067327E+03   -0.13178E-04   -0.14588E-04  7056   0.192E-04-0.127E-04
CGA:  10    -0.368102069476E+03   -0.21495E-05   -0.69537E-05  7056   0.268E-04-0.181E-04
  42 F= -.36810207E+03 E0= -.36810207E+03  d E =-.457789E-02  mag=    12.0000
       N       E                     dE             d eps       ncg     rms          ort
SDA:   1    -0.368049421153E+03    0.52646E-01    0.00000E+00  7056   0.131E+00 0.000E+00
CGA:   2    -0.368089245873E+03   -0.39825E-01   -0.39836E-01  7056   0.481E-01 0.102E-02
CGA:   3    -0.368099338175E+03   -0.10092E-01   -0.10105E-01  7056   0.122E-01 0.421E-04
CGA:   4    -0.368101891661E+03   -0.25535E-02   -0.25150E-02  7056   0.223E-02-0.383E-03
CGA:   5    -0.368102426874E+03   -0.53521E-03   -0.53101E-03  7056   0.692E-03-0.734E-04
CGA:   6    -0.368102584374E+03   -0.15750E-03   -0.16163E-03  7056   0.201E-03 0.697E-04
CGA:   7    -0.368102638074E+03   -0.53700E-04   -0.55809E-04  7056   0.691E-04 0.465E-04
CGA:   8    -0.368102669154E+03   -0.31079E-04   -0.31104E-04  7056   0.345E-04-0.349E-06
CGA:   9    -0.368102681381E+03   -0.12228E-04   -0.13240E-04  7056   0.171E-04-0.116E-04
CGA:  10    -0.368102685038E+03   -0.36565E-05   -0.49808E-05  7056   0.113E-04-0.971E-05
  43 F= -.36810269E+03 E0= -.36810269E+03  d E =-.615562E-03  mag=    12.0000
       N       E                     dE             d eps       ncg     rms          ort
SDA:   1    -0.367982804461E+03    0.11988E+00    0.00000E+00  7056   0.298E+00 0.000E+00
CGA:   2    -0.368068617493E+03   -0.85813E-01   -0.85832E-01  7056   0.141E+00 0.819E-03
CGA:   3    -0.368094832563E+03   -0.26215E-01   -0.26294E-01  7056   0.234E-01 0.425E-03
CGA:   4    -0.368099687846E+03   -0.48553E-02   -0.48227E-02  7056   0.449E-02-0.358E-03
CGA:   5    -0.368100725166E+03   -0.10373E-02   -0.10296E-02  7056   0.113E-02-0.127E-03
CGA:   6    -0.368100985593E+03   -0.26043E-03   -0.26236E-03  7056   0.312E-03 0.360E-04
CGA:   7    -0.368101078376E+03   -0.92783E-04   -0.92794E-04  7056   0.120E-03 0.196E-04
CGA:   8    -0.368101129597E+03   -0.51221E-04   -0.54986E-04  7056   0.777E-04-0.263E-04
CGA:   9    -0.368101149305E+03   -0.19708E-04   -0.20252E-04  7056   0.276E-04-0.142E-04
CGA:  10    -0.368101157250E+03   -0.79449E-05   -0.89458E-05  7056   0.147E-04-0.100E-04
  44 F= -.36810116E+03 E0= -.36810116E+03  d E =0.152779E-02  mag=    12.0000
       N       E                     dE             d eps       ncg     rms          ort
SDA:   1    -0.361976491701E+03    0.61247E+01    0.00000E+00  7056   0.150E+02 0.000E+00
CGA:   2    -0.366509164691E+03   -0.45327E+01   -0.45336E+01  7056   0.713E+01 0.438E-02
CGA:   3    -0.367789978627E+03   -0.12808E+01   -0.12836E+01  7056   0.105E+01 0.425E-02
CGA:   4    -0.368002849873E+03   -0.21287E+00   -0.21266E+00  7056   0.208E+00-0.164E-02
CGA:   5    -0.368050731997E+03   -0.47882E-01   -0.47835E-01  7056   0.487E-01-0.596E-03
CGA:   6    -0.368062607844E+03   -0.11876E-01   -0.11870E-01  7056   0.144E-01-0.997E-04
CGA:   7    -0.368067040390E+03   -0.44325E-02   -0.44312E-02  7056   0.619E-02-0.260E-03
CGA:   8    -0.368069211780E+03   -0.21714E-02   -0.21855E-02  7056   0.278E-02-0.312E-03
CGA:   9    -0.368070073418E+03   -0.86164E-03   -0.86341E-03  7056   0.870E-03-0.169E-03
CGA:  10    -0.368070351626E+03   -0.27821E-03   -0.28131E-03  7056   0.281E-03-0.114E-03
CGA:  11    -0.368070442472E+03   -0.90846E-04   -0.92395E-04  7056   0.121E-03-0.260E-04
CGA:  12    -0.368070487364E+03   -0.44892E-04   -0.44976E-04  7056   0.660E-04-0.100E-05
CGA:  13    -0.368070507963E+03   -0.20599E-04   -0.20709E-04  7056   0.273E-04 0.118E-04
CGA:  14    -0.368070522160E+03   -0.14197E-04   -0.15033E-04  7056   0.166E-04-0.589E-05
CGA:  15    -0.368070528118E+03   -0.59575E-05   -0.72613E-05  7056   0.110E-04-0.580E-05
  45 F= -.36807053E+03 E0= -.36807053E+03  d E =0.306291E-01  mag=    12.0000
       N       E                     dE             d eps       ncg     rms          ort
SDA:   1    -0.361481132869E+03    0.65894E+01    0.00000E+00  7056   0.155E+02 0.000E+00
CGA:   2    -0.366628342476E+03   -0.51472E+01   -0.51473E+01  7056   0.617E+01-0.590E-03
CGA:   3    -0.367747052885E+03   -0.11187E+01   -0.11207E+01  7056   0.103E+01 0.323E-03
CGA:   4    -0.367953247388E+03   -0.20619E+00   -0.20603E+00  7056   0.206E+00-0.165E-02
CGA:   5    -0.368001520892E+03   -0.48274E-01   -0.48247E-01  7056   0.492E-01-0.299E-03
CGA:   6    -0.368013896433E+03   -0.12376E-01   -0.12379E-01  7056   0.152E-01 0.341E-04
CGA:   7    -0.368018568495E+03   -0.46721E-02   -0.46680E-02  7056   0.644E-02-0.258E-03
CGA:   8    -0.368020830165E+03   -0.22617E-02   -0.22726E-02  7056   0.274E-02-0.295E-03
CGA:   9    -0.368021679302E+03   -0.84914E-03   -0.84930E-03  7056   0.830E-03-0.122E-03
CGA:  10    -0.368021945566E+03   -0.26626E-03   -0.26735E-03  7056   0.266E-03-0.812E-04
CGA:  11    -0.368022037454E+03   -0.91887E-04   -0.93696E-04  7056   0.123E-03-0.276E-04
CGA:  12    -0.368022085316E+03   -0.47863E-04   -0.49065E-04  7056   0.782E-04-0.103E-04
CGA:  13    -0.368022108545E+03   -0.23228E-04   -0.23310E-04  7056   0.331E-04 0.946E-05
CGA:  14    -0.368022122661E+03   -0.14116E-04   -0.14117E-04  7056   0.133E-04 0.236E-07
CGA:  15    -0.368022124561E+03   -0.18999E-05   -0.13023E-04  7056   0.406E-04-0.172E-04
  46 F= -.36802212E+03 E0= -.36802212E+03  d E =0.484036E-01  mag=    12.0000
       N       E                     dE             d eps       ncg     rms          ort
SDA:   1    -0.365606138410E+03    0.24160E+01    0.00000E+00  7056   0.653E+01 0.000E+00
CGA:   2    -0.367260251042E+03   -0.16541E+01   -0.16547E+01  7056   0.308E+01-0.208E-02
CGA:   3    -0.367871994441E+03   -0.61174E+00   -0.61205E+00  7056   0.572E+00-0.260E-02
CGA:   4    -0.367991128636E+03   -0.11913E+00   -0.11921E+00  7056   0.115E+00 0.254E-03
CGA:   5    -0.368017553677E+03   -0.26425E-01   -0.26478E-01  7056   0.287E-01 0.444E-03
CGA:   6    -0.368025029896E+03   -0.74762E-02   -0.74809E-02  7056   0.965E-02 0.543E-04
CGA:   7    -0.368027944271E+03   -0.29144E-02   -0.29131E-02  7056   0.365E-02-0.441E-04
CGA:   8    -0.368029161154E+03   -0.12169E-02   -0.12171E-02  7056   0.131E-02-0.277E-04
CGA:   9    -0.368029566922E+03   -0.40577E-03   -0.40562E-03  7056   0.382E-03-0.841E-05
CGA:  10    -0.368029682939E+03   -0.11602E-03   -0.11631E-03  7056   0.103E-03 0.132E-04
CGA:  11    -0.368029720542E+03   -0.37603E-04   -0.37509E-04  7056   0.397E-04 0.384E-05
CGA:  12    -0.368029736252E+03   -0.15710E-04   -0.15577E-04  7056   0.197E-04 0.263E-05
CGA:  13    -0.368029743706E+03   -0.74537E-05   -0.74110E-05  7056   0.986E-05 0.201E-05
  47 F= -.36802974E+03 E0= -.36802974E+03  d E =-.761914E-02  mag=    12.0000
       N       E                     dE             d eps       ncg     rms          ort
SDA:   1    -0.367302969256E+03    0.72677E+00    0.00000E+00  7056   0.194E+01 0.000E+00
CGA:   2    -0.367896802371E+03   -0.59383E+00   -0.59373E+00  7056   0.742E+00-0.405E-02
CGA:   3    -0.368046449053E+03   -0.14965E+00   -0.14982E+00  7056   0.175E+00 0.707E-03
CGA:   4    -0.368081902391E+03   -0.35453E-01   -0.35528E-01  7056   0.320E-01 0.521E-03
CGA:   5    -0.368089951521E+03   -0.80491E-02   -0.80481E-02  7056   0.941E-02-0.838E-05
CGA:   6    -0.368092657012E+03   -0.27055E-02   -0.27007E-02  7056   0.359E-02-0.210E-03
CGA:   7    -0.368093712862E+03   -0.10559E-02   -0.10549E-02  7056   0.137E-02-0.104E-03
CGA:   8    -0.368094134368E+03   -0.42151E-03   -0.42130E-03  7056   0.401E-03 0.228E-04
CGA:   9    -0.368094254361E+03   -0.11999E-03   -0.12024E-03  7056   0.104E-03 0.171E-04
CGA:  10    -0.368094288723E+03   -0.34362E-04   -0.34353E-04  7056   0.282E-04 0.968E-06
CGA:  11    -0.368094297785E+03   -0.90622E-05   -0.90351E-05  7056   0.937E-05 0.316E-05
  48 F= -.36809430E+03 E0= -.36809430E+03  d E =-.645541E-01  mag=    12.0000
       N       E                     dE             d eps       ncg     rms          ort
SDA:   1    -0.367266626794E+03    0.82766E+00    0.00000E+00  7056   0.196E+01 0.000E+00
CGA:   2    -0.367921883004E+03   -0.65526E+00   -0.65523E+00  7056   0.759E+00 0.365E-03
CGA:   3    -0.368060089834E+03   -0.13821E+00   -0.13836E+00  7056   0.125E+00 0.354E-03
CGA:   4    -0.368084791836E+03   -0.24702E-01   -0.24672E-01  7056   0.244E-01-0.360E-03
CGA:   5    -0.368090425890E+03   -0.56341E-02   -0.56334E-02  7056   0.549E-02-0.149E-04
CGA:   6    -0.368091785246E+03   -0.13594E-02   -0.13580E-02  7056   0.162E-02-0.324E-04
CGA:   7    -0.368092301295E+03   -0.51605E-03   -0.52029E-03  7056   0.777E-03-0.122E-03
CGA:   8    -0.368092551805E+03   -0.25051E-03   -0.25304E-03  7056   0.333E-03-0.406E-04
CGA:   9    -0.368092649313E+03   -0.97508E-04   -0.97511E-04  7056   0.971E-04-0.119E-06
CGA:  10    -0.368092685720E+03   -0.36407E-04   -0.40043E-04  7056   0.509E-04-0.308E-04
CGA:  11    -0.368092695331E+03   -0.96116E-05   -0.96807E-05  7056   0.189E-04 0.319E-05
  49 F= -.36809270E+03 E0= -.36809270E+03  d E =0.160245E-02  mag=    12.0000
       N       E                     dE             d eps       ncg     rms          ort
SDA:   1    -0.314809937919E+03    0.53283E+02    0.00000E+00  7056   0.148E+03 0.000E+00
CGA:   2    -0.350116552409E+03   -0.35307E+02   -0.35419E+02  7056   0.641E+02 0.632E+00
CGA:   3    -0.363567813136E+03   -0.13451E+02   -0.13509E+02  7056   0.124E+02 0.351E+00
CGA:   4    -0.366143328459E+03   -0.25755E+01   -0.25782E+01  7056   0.253E+01 0.483E-02
CGA:   5    -0.366715619096E+03   -0.57229E+00   -0.57258E+00  7056   0.674E+00 0.306E-02
CGA:   6    -0.366894972322E+03   -0.17935E+00   -0.17937E+00  7056   0.226E+00 0.212E-03
CGA:   7    -0.366963174051E+03   -0.68202E-01   -0.68225E-01  7056   0.902E-01-0.142E-02
CGA:   8    -0.366992152285E+03   -0.28978E-01   -0.28994E-01  7056   0.313E-01-0.423E-03
CGA:   9    -0.367001999345E+03   -0.98471E-02   -0.98545E-02  7056   0.938E-02-0.243E-03
CGA:  10    -0.367005167792E+03   -0.31684E-02   -0.31912E-02  7056   0.316E-02-0.400E-03
CGA:  11    -0.367006354844E+03   -0.11871E-02   -0.12026E-02  7056   0.139E-02-0.145E-03
CGA:  12    -0.367006871283E+03   -0.51644E-03   -0.50773E-03  7056   0.577E-03 0.975E-04
CGA:  13    -0.367007109818E+03   -0.23854E-03   -0.23503E-03  7056   0.274E-03 0.424E-04
CGA:  14    -0.367007209818E+03   -0.99999E-04   -0.99052E-04  7056   0.125E-03 0.274E-04
CGA:  15    -0.367007260616E+03   -0.50798E-04   -0.50599E-04  7056   0.574E-04 0.316E-05
CGA:  16    -0.367007276846E+03   -0.16229E-04   -0.16645E-04  7056   0.214E-04 0.169E-04
CGA:  17    -0.367007285546E+03   -0.87002E-05   -0.86580E-05  7056   0.893E-05 0.630E-05
CGA:  18    -0.367007293014E+03   -0.74680E-05    0.33072E-04  7056   0.474E-05 0.398E-05
  50 F= -.36700729E+03 E0= -.36700729E+03  d E =0.108540E+01  mag=    12.0000
       N       E                     dE             d eps       ncg     rms          ort
SDA:   1    -0.327700743659E+03    0.39307E+02    0.00000E+00  7056   0.940E+02 0.000E+00
CGA:   2    -0.357061129884E+03   -0.29360E+02   -0.29359E+02  7056   0.314E+02-0.254E+00
CGA:   3    -0.363964385547E+03   -0.69033E+01   -0.69143E+01  7056   0.787E+01 0.940E-02
CGA:   4    -0.365623948068E+03   -0.16596E+01   -0.16606E+01  7056   0.195E+01-0.249E-02
CGA:   5    -0.366127436335E+03   -0.50349E+00   -0.50340E+00  7056   0.661E+00-0.118E-02
CGA:   6    -0.366320954849E+03   -0.19352E+00   -0.19353E+00  7056   0.253E+00 0.129E-02
CGA:   7    -0.366394198854E+03   -0.73244E-01   -0.73245E-01  7056   0.917E-01-0.184E-03
CGA:   8    -0.366422701191E+03   -0.28502E-01   -0.28506E-01  7056   0.270E-01-0.250E-03
CGA:   9    -0.366431319864E+03   -0.86187E-02   -0.86253E-02  7056   0.775E-02-0.281E-03
CGA:  10    -0.366433814908E+03   -0.24950E-02   -0.25000E-02  7056   0.229E-02-0.173E-03
CGA:  11    -0.366434617083E+03   -0.80218E-03   -0.80213E-03  7056   0.878E-03 0.509E-06
CGA:  12    -0.366434952875E+03   -0.33579E-03   -0.33582E-03  7056   0.411E-03-0.419E-06
CGA:  13    -0.366435097600E+03   -0.14472E-03   -0.14276E-03  7056   0.184E-03 0.471E-04
CGA:  14    -0.366435176006E+03   -0.78407E-04   -0.77549E-04  7056   0.953E-04 0.120E-04
CGA:  15    -0.366435212715E+03   -0.36709E-04   -0.36165E-04  7056   0.414E-04 0.128E-04
CGA:  16    -0.366435230542E+03   -0.17827E-04   -0.17667E-04  7056   0.183E-04 0.233E-05
CGA:  17    -0.366435239194E+03   -0.86517E-05   -0.11334E-04  7056   0.227E-04-0.968E-05
  51 F= -.36643524E+03 E0= -.36643524E+03  d E =0.572054E+00  mag=    12.0000
       N       E                     dE             d eps       ncg     rms          ort
SDA:   1    -0.358775569463E+03    0.76597E+01    0.00000E+00  7056   0.214E+02 0.000E+00
CGA:   2    -0.365527636211E+03   -0.67521E+01   -0.67531E+01  7056   0.704E+01 0.723E-01
CGA:   3    -0.367279473613E+03   -0.17518E+01   -0.17533E+01  7056   0.145E+01 0.335E-03
CGA:   4    -0.367600456749E+03   -0.32098E+00   -0.32109E+00  7056   0.398E+00 0.522E-03
CGA:   5    -0.367695715237E+03   -0.95258E-01   -0.95226E-01  7056   0.127E+00-0.775E-03
CGA:   6    -0.367735185522E+03   -0.39470E-01   -0.39471E-01  7056   0.479E-01-0.422E-03
CGA:   7    -0.367749238090E+03   -0.14053E-01   -0.14055E-01  7056   0.183E-01 0.152E-03
CGA:   8    -0.367754774284E+03   -0.55362E-02   -0.55358E-02  7056   0.535E-02-0.498E-04
CGA:   9    -0.367756450258E+03   -0.16760E-02   -0.16762E-02  7056   0.143E-02-0.384E-04
CGA:  10    -0.367756903067E+03   -0.45281E-03   -0.45268E-03  7056   0.396E-03 0.120E-04
CGA:  11    -0.367757050011E+03   -0.14694E-03   -0.14620E-03  7056   0.160E-03 0.131E-04
CGA:  12    -0.367757114652E+03   -0.64641E-04   -0.63406E-04  7056   0.707E-04 0.172E-04
CGA:  13    -0.367757145753E+03   -0.31102E-04   -0.30253E-04  7056   0.358E-04 0.121E-04
CGA:  14    -0.367757160180E+03   -0.14426E-04   -0.14233E-04  7056   0.166E-04 0.941E-05
CGA:  15    -0.367757165809E+03   -0.56295E-05   -0.59159E-05  7056   0.628E-05 0.755E-05
  52 F= -.36775717E+03 E0= -.36775717E+03  d E =-.132193E+01  mag=    12.0000
       N       E                     dE             d eps       ncg     rms          ort
SDA:   1    -0.367049749603E+03    0.70741E+00    0.00000E+00  7056   0.207E+01 0.000E+00
CGA:   2    -0.367685692995E+03   -0.63594E+00   -0.63605E+00  7056   0.770E+00 0.602E-02
CGA:   3    -0.367858269217E+03   -0.17258E+00   -0.17289E+00  7056   0.188E+00 0.221E-02
CGA:   4    -0.367895994366E+03   -0.37725E-01   -0.37603E-01  7056   0.405E-01-0.117E-02
CGA:   5    -0.367906106514E+03   -0.10112E-01   -0.10098E-01  7056   0.121E-01-0.263E-03
CGA:   6    -0.367909529833E+03   -0.34233E-02   -0.34283E-02  7056   0.456E-02 0.274E-03
CGA:   7    -0.367910863945E+03   -0.13341E-02   -0.13356E-02  7056   0.163E-02 0.908E-04
CGA:   8    -0.367911426688E+03   -0.56274E-03   -0.56471E-03  7056   0.547E-03-0.533E-04
CGA:   9    -0.367911596659E+03   -0.16997E-03   -0.17052E-03  7056   0.152E-03-0.302E-04
CGA:  10    -0.367911640065E+03   -0.43406E-04   -0.43404E-04  7056   0.369E-04-0.106E-05
CGA:  11    -0.367911651948E+03   -0.11883E-04   -0.11822E-04  7056   0.121E-04 0.337E-05
CGA:  12    -0.367911658199E+03   -0.62511E-05   -0.69789E-05  7056   0.105E-04-0.328E-05
  53 F= -.36791166E+03 E0= -.36791166E+03  d E =-.154492E+00  mag=    12.0000
       N       E                     dE             d eps       ncg     rms          ort
SDA:   1    -0.367299246276E+03    0.61241E+00    0.00000E+00  7056   0.177E+01 0.000E+00
CGA:   2    -0.367764260258E+03   -0.46501E+00   -0.46519E+00  7056   0.811E+00 0.979E-03
CGA:   3    -0.367926162059E+03   -0.16190E+00   -0.16244E+00  7056   0.174E+00 0.348E-02
CGA:   4    -0.367963167557E+03   -0.37005E-01   -0.36940E-01  7056   0.331E-01-0.783E-03
CGA:   5    -0.367970834354E+03   -0.76668E-02   -0.76287E-02  7056   0.960E-02-0.599E-03
CGA:   6    -0.367973345873E+03   -0.25115E-02   -0.25158E-02  7056   0.328E-02 0.152E-03
CGA:   7    -0.367974288939E+03   -0.94307E-03   -0.94504E-03  7056   0.114E-02 0.212E-03
CGA:   8    -0.367974711168E+03   -0.42223E-03   -0.42379E-03  7056   0.440E-03-0.284E-04
CGA:   9    -0.367974857301E+03   -0.14613E-03   -0.14978E-03  7056   0.151E-03-0.673E-04
CGA:  10    -0.367974894107E+03   -0.36806E-04   -0.36803E-04  7056   0.349E-04-0.301E-06
CGA:  11    -0.367974903107E+03   -0.89997E-05   -0.92395E-05  7056   0.112E-04 0.747E-05
  54 F= -.36797490E+03 E0= -.36797490E+03  d E =-.632449E-01  mag=    12.0000
       N       E                     dE             d eps       ncg     rms          ort
SDA:   1    -0.365322788349E+03    0.26521E+01    0.00000E+00  7056   0.756E+01 0.000E+00
CGA:   2    -0.367122990785E+03   -0.18002E+01   -0.18016E+01  7056   0.359E+01 0.102E-02
CGA:   3    -0.367855827277E+03   -0.73284E+00   -0.73446E+00  7056   0.680E+00 0.940E-02
CGA:   4    -0.367997861054E+03   -0.14203E+00   -0.14204E+00  7056   0.135E+00-0.850E-04
CGA:   5    -0.368028098161E+03   -0.30237E-01   -0.30180E-01  7056   0.353E-01-0.101E-02
CGA:   6    -0.368037392828E+03   -0.92947E-02   -0.92954E-02  7056   0.119E-01 0.157E-04
CGA:   7    -0.368040968123E+03   -0.35753E-02   -0.35712E-02  7056   0.460E-02 0.267E-03
CGA:   8    -0.368042557867E+03   -0.15897E-02   -0.15935E-02  7056   0.168E-02-0.724E-04
CGA:   9    -0.368043106088E+03   -0.54822E-03   -0.55507E-03  7056   0.510E-03-0.147E-03
CGA:  10    -0.368043253065E+03   -0.14698E-03   -0.14742E-03  7056   0.131E-03-0.170E-04
CGA:  11    -0.368043296945E+03   -0.43880E-04   -0.43732E-04  7056   0.467E-04 0.273E-05
CGA:  12    -0.368043318938E+03   -0.21993E-04   -0.26181E-04  7056   0.411E-04-0.165E-04
CGA:  13    -0.368043326596E+03   -0.76583E-05   -0.76733E-05  7056   0.197E-04 0.775E-06
  55 F= -.36804333E+03 E0= -.36804333E+03  d E =-.684235E-01  mag=    12.0000
       N       E                     dE             d eps       ncg     rms          ort
SDA:   1    -0.365780625632E+03    0.22627E+01    0.00000E+00  7056   0.686E+01 0.000E+00
CGA:   2    -0.367249869378E+03   -0.14692E+01   -0.14700E+01  7056   0.321E+01-0.386E-02
CGA:   3    -0.367939203144E+03   -0.68933E+00   -0.69032E+00  7056   0.539E+00 0.640E-02
CGA:   4    -0.368043884340E+03   -0.10468E+00   -0.10482E+00  7056   0.102E+00 0.111E-02
CGA:   5    -0.368066276432E+03   -0.22392E-01   -0.22372E-01  7056   0.219E-01-0.310E-03
CGA:   6    -0.368071549817E+03   -0.52734E-02   -0.52548E-02  7056   0.558E-02-0.414E-03
CGA:   7    -0.368073145614E+03   -0.15958E-02   -0.15975E-02  7056   0.207E-02-0.213E-03
CGA:   8    -0.368073826284E+03   -0.68067E-03   -0.68559E-03  7056   0.868E-03-0.828E-04
CGA:   9    -0.368074117107E+03   -0.29082E-03   -0.29494E-03  7056   0.311E-03-0.617E-04
CGA:  10    -0.368074224961E+03   -0.10785E-03   -0.11491E-03  7056   0.125E-03-0.661E-04
CGA:  11    -0.368074259002E+03   -0.34042E-04   -0.34466E-04  7056   0.425E-04-0.772E-05
CGA:  12    -0.368074269042E+03   -0.10040E-04   -0.10469E-04  7056   0.150E-04 0.118E-04
CGA:  13    -0.368074272272E+03   -0.32296E-05   -0.39935E-05  7056   0.666E-05 0.867E-05
  56 F= -.36807427E+03 E0= -.36807427E+03  d E =-.309457E-01  mag=    12.0000
[...]
CGA:   2    -0.367343952062E+03   -0.20020E+01   -0.20038E+01  7056   0.292E+01-0.967E-02
CGA:   3    -0.367940495212E+03   -0.59654E+00   -0.59744E+00  7056   0.591E+00-0.105E-02
CGA:   4    -0.368050955633E+03   -0.11046E+00   -0.11111E+00  7056   0.104E+00 0.179E-02
CGA:   5    -0.368074692909E+03   -0.23737E-01   -0.23797E-01  7056   0.251E-01 0.211E-03
CGA:   6    -0.368081181894E+03   -0.64890E-02   -0.64498E-02  7056   0.847E-02-0.206E-03
CGA:   7    -0.368083675926E+03   -0.24940E-02   -0.24962E-02  7056   0.365E-02 0.115E-04
CGA:   8    -0.368084987019E+03   -0.13111E-02   -0.13046E-02  7056   0.167E-02-0.751E-04
CGA:   9    -0.368085564468E+03   -0.57745E-03   -0.56720E-03  7056   0.617E-03-0.110E-03
CGA:  10    -0.368085738574E+03   -0.17411E-03   -0.17568E-03  7056   0.182E-03 0.119E-04
CGA:  11    -0.368085803433E+03   -0.64858E-04   -0.65663E-04  7056   0.766E-04 0.106E-04
CGA:  12    -0.368085841557E+03   -0.38125E-04   -0.38464E-04  7056   0.491E-04-0.699E-05
CGA:  13    -0.368085858517E+03   -0.16960E-04   -0.17026E-04  7056   0.192E-04 0.138E-05
CGA:  14    -0.368085862266E+03   -0.37491E-05   -0.48586E-05  7056   0.647E-05 0.618E-05
  83 F= -.36808586E+03 E0= -.36808586E+03  d E =-.147032E-01  mag=    12.0000
       N       E                     dE             d eps       ncg     rms          ort
SDA:   1    -0.362410065532E+03    0.56758E+01    0.00000E+00  7056   0.142E+02 0.000E+00
CGA:   2    -0.366733661881E+03   -0.43236E+01   -0.43246E+01  7056   0.558E+01-0.110E-01
CGA:   3    -0.367836318056E+03   -0.11027E+01   -0.11043E+01  7056   0.998E+00 0.120E-02
CGA:   4    -0.368023940734E+03   -0.18762E+00   -0.18841E+00  7056   0.184E+00 0.345E-02
CGA:   5    -0.368066618293E+03   -0.42678E-01   -0.42703E-01  7056   0.433E-01 0.108E-03
CGA:   6    -0.368077737392E+03   -0.11119E-01   -0.11043E-01  7056   0.141E-01-0.661E-03
CGA:   7    -0.368081932770E+03   -0.41954E-02   -0.41843E-02  7056   0.622E-02-0.174E-03
CGA:   8    -0.368084162345E+03   -0.22296E-02   -0.22292E-02  7056   0.295E-02-0.204E-03
CGA:   9    -0.368085157621E+03   -0.99528E-03   -0.99182E-03  7056   0.107E-02-0.202E-03
CGA:  10    -0.368085464665E+03   -0.30704E-03   -0.30740E-03  7056   0.320E-03 0.614E-05
CGA:  11    -0.368085580702E+03   -0.11604E-03   -0.11605E-03  7056   0.141E-03 0.181E-04
CGA:  12    -0.368085640937E+03   -0.60235E-04   -0.59433E-04  7056   0.736E-04 0.209E-04
CGA:  13    -0.368085675783E+03   -0.34846E-04   -0.34380E-04  7056   0.336E-04 0.105E-04
CGA:  14    -0.368085685624E+03   -0.98406E-05   -0.10912E-04  7056   0.113E-04 0.132E-04
  84 F= -.36808569E+03 E0= -.36808569E+03  d E =0.176643E-03  mag=    12.0000
       N       E                     dE             d eps       ncg     rms          ort
SDA:   1    -0.366966064343E+03    0.11196E+01    0.00000E+00  7056   0.284E+01 0.000E+00
CGA:   2    -0.367802834057E+03   -0.83677E+00   -0.83710E+00  7056   0.115E+01 0.457E-02
CGA:   3    -0.368031062126E+03   -0.22823E+00   -0.22831E+00  7056   0.220E+00-0.647E-03
CGA:   4    -0.368073548965E+03   -0.42487E-01   -0.42257E-01  7056   0.400E-01-0.163E-02
CGA:   5    -0.368082674628E+03   -0.91257E-02   -0.91098E-02  7056   0.956E-02-0.155E-03
CGA:   6    -0.368085033611E+03   -0.23590E-02   -0.23649E-02  7056   0.297E-02 0.653E-04
CGA:   7    -0.368085949580E+03   -0.91597E-03   -0.91386E-03  7056   0.132E-02-0.917E-04
CGA:   8    -0.368086395832E+03   -0.44625E-03   -0.44672E-03  7056   0.567E-03-0.227E-04
CGA:   9    -0.368086568353E+03   -0.17252E-03   -0.17282E-03  7056   0.174E-03 0.164E-04
CGA:  10    -0.368086636646E+03   -0.68293E-04   -0.70737E-04  7056   0.834E-04-0.369E-04
CGA:  11    -0.368086659581E+03   -0.22935E-04   -0.22964E-04  7056   0.319E-04-0.160E-05
CGA:  12    -0.368086667827E+03   -0.82461E-05   -0.87060E-05  7056   0.127E-04 0.860E-05
  85 F= -.36808667E+03 E0= -.36808667E+03  d E =-.982203E-03  mag=    12.0000
       N       E                     dE             d eps       ncg     rms          ort
SDA:   1    -0.367829064862E+03    0.25759E+00    0.00000E+00  7056   0.639E+00 0.000E+00
CGA:   2    -0.368030637941E+03   -0.20157E+00   -0.20161E+00  7056   0.240E+00 0.378E-02
CGA:   3    -0.368078855383E+03   -0.48217E-01   -0.48149E-01  7056   0.443E-01-0.847E-03
CGA:   4    -0.368087704342E+03   -0.88490E-02   -0.87275E-02  7056   0.888E-02-0.104E-02
CGA:   5    -0.368089685811E+03   -0.19815E-02   -0.19854E-02  7056   0.210E-02 0.455E-04
CGA:   6    -0.368090175229E+03   -0.48942E-03   -0.50050E-03  7056   0.619E-03 0.156E-03
CGA:   7    -0.368090378984E+03   -0.20375E-03   -0.20372E-03  7056   0.279E-03 0.229E-04
CGA:   8    -0.368090481779E+03   -0.10280E-03   -0.10253E-03  7056   0.122E-03 0.533E-05
CGA:   9    -0.368090520213E+03   -0.38433E-04   -0.38419E-04  7056   0.376E-04 0.783E-05
CGA:  10    -0.368090536377E+03   -0.16165E-04   -0.18243E-04  7056   0.274E-04-0.140E-04
CGA:  11    -0.368090541972E+03   -0.55951E-05   -0.56151E-05  7056   0.133E-04-0.169E-05
  86 F= -.36809054E+03 E0= -.36809054E+03  d E =-.387415E-02  mag=    12.0000
       N       E                     dE             d eps       ncg     rms          ort
SDA:   1    -0.368058100549E+03    0.32436E-01    0.00000E+00  7056   0.855E-01 0.000E+00
CGA:   2    -0.368082231567E+03   -0.24131E-01   -0.24089E-01  7056   0.352E-01-0.109E-02
CGA:   3    -0.368089294303E+03   -0.70627E-02   -0.70589E-02  7056   0.696E-02-0.750E-04
CGA:   4    -0.368090499822E+03   -0.12055E-02   -0.12487E-02  7056   0.116E-02 0.317E-03
CGA:   5    -0.368090768167E+03   -0.26835E-03   -0.27268E-03  7056   0.279E-03 0.519E-04
CGA:   6    -0.368090854149E+03   -0.85982E-04   -0.85681E-04  7056   0.120E-03-0.344E-04
CGA:   7    -0.368090879846E+03   -0.25697E-04   -0.26282E-04  7056   0.411E-04 0.109E-04
CGA:   8    -0.368090893932E+03   -0.14086E-04   -0.14050E-04  7056   0.191E-04 0.272E-05
CGA:   9    -0.368090759605E+03    0.13433E-03   -0.72337E-04  7056   0.625E-03-0.105E-03
CGA:  10    -0.368090871056E+03   -0.11145E-03   -0.12589E-03  7056   0.675E-04 0.411E-04
CGA:  11    -0.368090894524E+03   -0.23468E-04   -0.24901E-04  7056   0.184E-04 0.774E-05
CGA:  12    -0.368090904437E+03   -0.99128E-05   -0.97209E-05  7056   0.125E-04-0.399E-05
  87 F= -.36809090E+03 E0= -.36809090E+03  d E =-.362464E-03  mag=    12.0000
       N       E                     dE             d eps       ncg     rms          ort
SDA:   1    -0.368050834921E+03    0.40060E-01    0.00000E+00  7056   0.989E-01 0.000E+00
CGA:   2    -0.368081968080E+03   -0.31133E-01   -0.31293E-01  7056   0.395E-01 0.798E-03
CGA:   3    -0.368089575204E+03   -0.76071E-02   -0.75617E-02  7056   0.675E-02-0.198E-03
CGA:   4    -0.368090981887E+03   -0.14067E-02   -0.13391E-02  7056   0.132E-02-0.243E-03
CGA:   5    -0.368091267142E+03   -0.28526E-03   -0.28548E-03  7056   0.286E-03 0.575E-06
CGA:   6    -0.368091323653E+03   -0.56511E-04   -0.63074E-04  7056   0.733E-04 0.277E-04
CGA:   7    -0.368091347559E+03   -0.23906E-04   -0.24482E-04  7056   0.337E-04 0.410E-05
CGA:   8    -0.368091360814E+03   -0.13255E-04   -0.13251E-04  7056   0.176E-04-0.578E-07
CGA:   9    -0.368091365950E+03   -0.51364E-05   -0.53436E-05  7056   0.564E-05 0.158E-05
  88 F= -.36809137E+03 E0= -.36809137E+03  d E =-.461514E-03  mag=    12.0000
       N       E                     dE             d eps       ncg     rms          ort
SDA:   1    -0.362127633843E+03    0.59637E+01    0.00000E+00  7056   0.146E+02 0.000E+00
CGA:   2    -0.366740096885E+03   -0.46125E+01   -0.46148E+01  7056   0.578E+01 0.107E-01
CGA:   3    -0.367838121971E+03   -0.10980E+01   -0.10991E+01  7056   0.987E+00-0.253E-02
CGA:   4    -0.368029924960E+03   -0.19180E+00   -0.19119E+00  7056   0.184E+00-0.329E-02
CGA:   5    -0.368072338247E+03   -0.42413E-01   -0.42399E-01  7056   0.431E-01-0.125E-03
CGA:   6    -0.368082801896E+03   -0.10464E-01   -0.10491E-01  7056   0.128E-01 0.158E-03
CGA:   7    -0.368086755243E+03   -0.39533E-02   -0.39420E-02  7056   0.561E-02-0.148E-03
CGA:   8    -0.368088767261E+03   -0.20120E-02   -0.20091E-02  7056   0.263E-02-0.142E-03
CGA:   9    -0.368089629546E+03   -0.86229E-03   -0.85905E-03  7056   0.872E-03-0.712E-04
CGA:  10    -0.368089930695E+03   -0.30115E-03   -0.29889E-03  7056   0.321E-03-0.845E-04
CGA:  11    -0.368090041985E+03   -0.11129E-03   -0.11134E-03  7056   0.147E-03-0.868E-05
CGA:  12    -0.368090101809E+03   -0.59825E-04   -0.59511E-04  7056   0.818E-04 0.852E-05
CGA:  13    -0.368090130656E+03   -0.28846E-04   -0.29492E-04  7056   0.334E-04 0.164E-04
CGA:  14    -0.368090148719E+03   -0.18063E-04   -0.18567E-04  7056   0.200E-04-0.588E-05
CGA:  15    -0.368090154629E+03   -0.59105E-05   -0.59291E-05  7056   0.776E-05 0.822E-06
CGA:  16    -0.368090140459E+03    0.14170E-04   -0.12038E-04  7056   0.877E-04-0.236E-04
CGA:  17    -0.368090167610E+03   -0.27151E-04   -0.26838E-04  7056   0.629E-05-0.240E-05
CGA:  18    -0.368090168334E+03   -0.72383E-06   -0.12272E-05  7056   0.173E-05 0.219E-05
  89 F= -.36809017E+03 E0= -.36809017E+03  d E =0.119762E-02  mag=    12.0000
       N       E                     dE             d eps       ncg     rms          ort
SDA:   1    -0.350911936088E+03    0.17178E+02    0.00000E+00  7056   0.419E+02 0.000E+00
CGA:   2    -0.364280206845E+03   -0.13368E+02   -0.13375E+02  7056   0.159E+02 0.276E-01
CGA:   3    -0.367357645106E+03   -0.30774E+01   -0.30840E+01  7056   0.272E+01 0.603E-02
CGA:   4    -0.367886839092E+03   -0.52919E+00   -0.52856E+00  7056   0.529E+00-0.432E-02
CGA:   5    -0.368010023100E+03   -0.12318E+00   -0.12320E+00  7056   0.127E+00-0.656E-04
CGA:   6    -0.368041710258E+03   -0.31687E-01   -0.31685E-01  7056   0.407E-01-0.108E-03
CGA:   7    -0.368054216299E+03   -0.12506E-01   -0.12478E-01  7056   0.180E-01-0.474E-03
CGA:   8    -0.368060470371E+03   -0.62541E-02   -0.62490E-02  7056   0.795E-02-0.405E-03
CGA:   9    -0.368063034841E+03   -0.25645E-02   -0.25553E-02  7056   0.257E-02-0.261E-03
CGA:  10    -0.368063881912E+03   -0.84707E-03   -0.84269E-03  7056   0.889E-03-0.186E-03
CGA:  11    -0.368064195609E+03   -0.31370E-03   -0.31392E-03  7056   0.401E-03-0.122E-04
CGA:  12    -0.368064356204E+03   -0.16060E-03   -0.15888E-03  7056   0.208E-03 0.440E-04
CGA:  13    -0.368064443604E+03   -0.87400E-04   -0.86967E-04  7056   0.951E-04 0.341E-04
CGA:  14    -0.368064488256E+03   -0.44652E-04   -0.44511E-04  7056   0.432E-04 0.384E-05
CGA:  15    -0.368064506820E+03   -0.18563E-04   -0.18511E-04  7056   0.195E-04 0.109E-05
CGA:  16    -0.368064482525E+03    0.24295E-04   -0.30721E-04  7056   0.199E-03-0.470E-04
CGA:  17    -0.368064529948E+03   -0.47423E-04   -0.47601E-04  7056   0.302E-04 0.114E-05
CGA:  18    -0.368064538608E+03   -0.86603E-05   -0.86168E-05  7056   0.611E-05-0.317E-06
  90 F= -.36806454E+03 E0= -.36806454E+03  d E =0.256297E-01  mag=    12.0000
       N       E                     dE             d eps       ncg     rms          ort
SDA:   1    -0.357888769663E+03    0.10176E+02    0.00000E+00  7056   0.250E+02 0.000E+00
CGA:   2    -0.365690991624E+03   -0.78022E+01   -0.78090E+01  7056   0.101E+02-0.360E-02
CGA:   3    -0.367620585437E+03   -0.19296E+01   -0.19342E+01  7056   0.180E+01 0.309E-02
CGA:   4    -0.367965903931E+03   -0.34532E+00   -0.34619E+00  7056   0.338E+00 0.324E-02
CGA:   5    -0.368045945713E+03   -0.80042E-01   -0.80029E-01  7056   0.867E-01-0.246E-03
CGA:   6    -0.368068019758E+03   -0.22074E-01   -0.22025E-01  7056   0.285E-01-0.462E-03
CGA:   7    -0.368076771328E+03   -0.87516E-02   -0.87461E-02  7056   0.123E-01-0.985E-04
CGA:   8    -0.368081135879E+03   -0.43646E-02   -0.43600E-02  7056   0.532E-02-0.378E-03
CGA:   9    -0.368082855996E+03   -0.17201E-02   -0.17100E-02  7056   0.168E-02-0.291E-03
CGA:  10    -0.368083346756E+03   -0.49076E-03   -0.49075E-03  7056   0.490E-03-0.401E-06
CGA:  11    -0.368083529256E+03   -0.18250E-03   -0.18234E-03  7056   0.224E-03 0.170E-04
CGA:  12    -0.368083639019E+03   -0.10976E-03   -0.10987E-03  7056   0.149E-03-0.106E-05
CGA:  13    -0.368083693779E+03   -0.54760E-04   -0.54739E-04  7056   0.670E-04 0.198E-04
CGA:  14    -0.368083712955E+03   -0.19176E-04   -0.20934E-04  7056   0.232E-04 0.190E-04
CGA:  15    -0.368083720920E+03   -0.79655E-05   -0.86293E-05  7056   0.877E-05 0.898E-05
  91 F= -.36808372E+03 E0= -.36808372E+03  d E =-.191823E-01  mag=    12.0000
       N       E                     dE             d eps       ncg     rms          ort
SDA:   1    -0.361558626811E+03    0.65251E+01    0.00000E+00  7056   0.161E+02 0.000E+00
CGA:   2    -0.366496683253E+03   -0.49381E+01   -0.49383E+01  7056   0.685E+01-0.116E-01
CGA:   3    -0.367777866156E+03   -0.12812E+01   -0.12840E+01  7056   0.118E+01 0.677E-02
CGA:   4    -0.368010565774E+03   -0.23270E+00   -0.23311E+00  7056   0.211E+00 0.230E-02
CGA:   5    -0.368059846406E+03   -0.49281E-01   -0.49283E-01  7056   0.529E-01-0.362E-04
CGA:   6    -0.368072951721E+03   -0.13105E-01   -0.13075E-01  7056   0.163E-01-0.377E-03
CGA:   7    -0.368077982664E+03   -0.50309E-02   -0.50233E-02  7056   0.705E-02-0.433E-03
CGA:   8    -0.368080415913E+03   -0.24332E-02   -0.24402E-02  7056   0.304E-02-0.253E-03
CGA:   9    -0.368081377422E+03   -0.96151E-03   -0.96144E-03  7056   0.939E-03-0.883E-04
CGA:  10    -0.368081672427E+03   -0.29500E-03   -0.29491E-03  7056   0.288E-03-0.169E-04
CGA:  11    -0.368081776242E+03   -0.10382E-03   -0.10328E-03  7056   0.123E-03 0.148E-04
CGA:  12    -0.368081830911E+03   -0.54669E-04   -0.53355E-04  7056   0.691E-04 0.158E-04
CGA:  13    -0.368081853064E+03   -0.22153E-04   -0.23189E-04  7056   0.300E-04 0.276E-04
CGA:  14    -0.368081867499E+03   -0.14435E-04   -0.14355E-04  7056   0.137E-04 0.868E-05
CGA:  15    -0.368081871911E+03   -0.44113E-05   -0.48655E-05  7056   0.597E-05 0.791E-05
  92 F= -.36808187E+03 E0= -.36808187E+03  d E =0.184901E-02  mag=    12.0000
       N       E                     dE             d eps       ncg     rms          ort
SDA:   1    -0.365346409865E+03    0.27355E+01    0.00000E+00  7056   0.681E+01 0.000E+00
CGA:   2    -0.367378402124E+03   -0.20320E+01   -0.20321E+01  7056   0.282E+01 0.260E-02
CGA:   3    -0.367926946679E+03   -0.54854E+00   -0.54890E+00  7056   0.554E+00-0.530E-03
CGA:   4    -0.368036589635E+03   -0.10964E+00   -0.10944E+00  7056   0.101E+00-0.190E-02
CGA:   5    -0.368059910961E+03   -0.23321E-01   -0.23317E-01  7056   0.264E-01-0.626E-04
CGA:   6    -0.368066670185E+03   -0.67592E-02   -0.67568E-02  7056   0.846E-02-0.568E-04
CGA:   7    -0.368069276457E+03   -0.26063E-02   -0.26071E-02  7056   0.361E-02-0.323E-03
CGA:   8    -0.368070435074E+03   -0.11586E-02   -0.11604E-02  7056   0.137E-02-0.626E-04
CGA:   9    -0.368070834906E+03   -0.39983E-03   -0.40029E-03  7056   0.378E-03 0.468E-04
CGA:  10    -0.368070975667E+03   -0.14076E-03   -0.14392E-03  7056   0.151E-03-0.519E-04
CGA:  11    -0.368071025627E+03   -0.49960E-04   -0.51117E-04  7056   0.676E-04-0.140E-04
CGA:  12    -0.368071045148E+03   -0.19522E-04   -0.19478E-04  7056   0.275E-04 0.125E-04
CGA:  13    -0.368071053728E+03   -0.85802E-05   -0.90018E-05  7056   0.117E-04 0.111E-04
  93 F= -.36807105E+03 E0= -.36807105E+03  d E =0.108182E-01  mag=    12.0000
       N       E                     dE             d eps       ncg     rms          ort
SDA:   1    -0.366924757565E+03    0.11463E+01    0.00000E+00  7056   0.295E+01 0.000E+00
CGA:   2    -0.367788029306E+03   -0.86327E+00   -0.86341E+00  7056   0.124E+01 0.367E-02
CGA:   3    -0.368030330676E+03   -0.24230E+00   -0.24209E+00  7056   0.253E+00-0.376E-02
CGA:   4    -0.368080895297E+03   -0.50565E-01   -0.50525E-01  7056   0.432E-01-0.587E-03
CGA:   5    -0.368090936052E+03   -0.10041E-01   -0.10038E-01  7056   0.120E-01-0.568E-04
CGA:   6    -0.368093987087E+03   -0.30510E-02   -0.30530E-02  7056   0.386E-02 0.365E-04
CGA:   7    -0.368095094703E+03   -0.11076E-02   -0.11096E-02  7056   0.144E-02 0.175E-03
CGA:   8    -0.368095608920E+03   -0.51422E-03   -0.51323E-03  7056   0.569E-03 0.221E-04
CGA:   9    -0.368095818490E+03   -0.20957E-03   -0.21618E-03  7056   0.234E-03-0.893E-04
CGA:  10    -0.368095878825E+03   -0.60335E-04   -0.60358E-04  7056   0.658E-04-0.957E-05
CGA:  11    -0.368095902290E+03   -0.23465E-04   -0.23887E-04  7056   0.315E-04-0.566E-05
CGA:  12    -0.368095914304E+03   -0.12014E-04   -0.19888E-04  7056   0.489E-04-0.206E-04
CGA:  13    -0.368095929127E+03   -0.14823E-04   -0.14579E-04  7056   0.126E-04-0.863E-05
CGA:  14    -0.368095930125E+03   -0.99765E-06   -0.17346E-05  7056   0.402E-05 0.464E-05
  94 F= -.36809593E+03 E0= -.36809593E+03  d E =-.248764E-01  mag=    12.0000
       N       E                     dE             d eps       ncg     rms          ort
SDA:   1    -0.367678246276E+03    0.41768E+00    0.00000E+00  7056   0.101E+01 0.000E+00
CGA:   2    -0.368004626875E+03   -0.32638E+00   -0.32630E+00  7056   0.362E+00 0.536E-02
CGA:   3    -0.368077574198E+03   -0.72947E-01   -0.72818E-01  7056   0.676E-01-0.156E-02
CGA:   4    -0.368090875718E+03   -0.13302E-01   -0.13159E-01  7056   0.135E-01-0.137E-02
CGA:   5    -0.368093892269E+03   -0.30166E-02   -0.30206E-02  7056   0.315E-02 0.532E-04
CGA:   6    -0.368094645795E+03   -0.75353E-03   -0.76442E-03  7056   0.936E-03 0.200E-03
CGA:   7    -0.368094945704E+03   -0.29991E-03   -0.29957E-03  7056   0.411E-03 0.435E-04
CGA:   8    -0.368095101878E+03   -0.15617E-03   -0.15631E-03  7056   0.186E-03-0.209E-05
CGA:   9    -0.368095161447E+03   -0.59569E-04   -0.59587E-04  7056   0.589E-04-0.709E-06
CGA:  10    -0.368095183620E+03   -0.22173E-04   -0.23825E-04  7056   0.308E-04-0.154E-04
CGA:  11    -0.368095192290E+03   -0.86696E-05   -0.90696E-05  7056   0.154E-04-0.425E-05
CGA:  12    -0.368095122415E+03    0.69875E-04   -0.37686E-04  7056   0.355E-03-0.569E-04
CGA:  13    -0.368095188070E+03   -0.65655E-04   -0.74322E-04  7056   0.389E-04 0.245E-04
CGA:  14    -0.368095202482E+03   -0.14412E-04   -0.12994E-04  7056   0.117E-04-0.611E-05
CGA:  15    -0.368095204898E+03   -0.24157E-05   -0.29506E-05  7056   0.334E-05 0.230E-05
  95 F= -.36809520E+03 E0= -.36809520E+03  d E =0.725227E-03  mag=    12.0000
       N       E                     dE             d eps       ncg     rms          ort
SDA:   1    -0.368045808677E+03    0.49394E-01    0.00000E+00  7056   0.127E+00 0.000E+00
CGA:   2    -0.368083396808E+03   -0.37588E-01   -0.37671E-01  7056   0.539E-01 0.343E-03
CGA:   3    -0.368093847193E+03   -0.10450E-01   -0.10469E-01  7056   0.103E-01-0.144E-04
CGA:   4    -0.368095951963E+03   -0.21048E-02   -0.20680E-02  7056   0.195E-02-0.132E-03
CGA:   5    -0.368096390448E+03   -0.43849E-03   -0.44114E-03  7056   0.498E-03 0.103E-04
CGA:   6    -0.368096517803E+03   -0.12736E-03   -0.12798E-03  7056   0.160E-03 0.275E-05
CGA:   7    -0.368096575927E+03   -0.58124E-04   -0.55387E-04  7056   0.842E-04-0.245E-04
CGA:   8    -0.368096596006E+03   -0.20079E-04   -0.20518E-04  7056   0.264E-04 0.269E-05
CGA:   9    -0.368096599889E+03   -0.38833E-05   -0.57331E-05  7056   0.747E-05 0.800E-05
  96 F= -.36809660E+03 E0= -.36809660E+03  d E =-.139499E-02  mag=    12.0000
       N       E                     dE             d eps       ncg     rms          ort
SDA:   1    -0.368087037901E+03    0.95581E-02    0.00000E+00  7056   0.257E-01 0.000E+00
CGA:   2    -0.368094443231E+03   -0.74053E-02   -0.73126E-02  7056   0.940E-02-0.696E-03
CGA:   3    -0.368096411268E+03   -0.19680E-02   -0.19849E-02  7056   0.195E-02 0.774E-04
CGA:   4    -0.368096721537E+03   -0.31027E-03   -0.34977E-03  7056   0.328E-03 0.174E-03
CGA:   5    -0.368096800063E+03   -0.78526E-04   -0.81762E-04  7056   0.871E-04 0.197E-04
CGA:   6    -0.368096836792E+03   -0.36728E-04   -0.37731E-04  7056   0.801E-04-0.409E-04
CGA:   7    -0.368096845585E+03   -0.87934E-05   -0.85864E-05  7056   0.400E-04-0.114E-05
  97 F= -.36809685E+03 E0= -.36809685E+03  d E =-.245696E-03  mag=    12.0000
