       N       E                     dE             d eps       ncg     rms          ort
DAV:   1     0.247787466565E+04    0.24779E+04   -0.14140E+05 10584   0.157E+03
DAV:   2    -0.175378905825E+03   -0.26533E+04   -0.24789E+04 10584   0.418E+02
DAV:   3    -0.448622812328E+03   -0.27324E+03   -0.26901E+03 10584   0.151E+02
DAV:   4    -0.456770985817E+03   -0.81482E+01   -0.80280E+01 10584   0.254E+01
DAV:   5    -0.457117243578E+03   -0.34626E+00   -0.34506E+00 10584   0.411E+00
SDA:   6    -0.286372556051E+03    0.17074E+03   -0.34506E+00 10584   0.371E+03 0.000E+00
CGA:   7    -0.336816023160E+03   -0.50443E+02   -0.42827E+02 10584   0.496E+02 0.727E+02
CGA:   8    -0.346522048209E+03   -0.97060E+01   -0.87825E+01 10584   0.639E+02-0.151E+01
CGA:   9    -0.348169089694E+03   -0.16470E+01   -0.37350E+01 10584   0.345E+02-0.209E+02
CGA:  10    -0.349157207570E+03   -0.98812E+00   -0.12250E+01 10584   0.166E+02 0.250E+01
CGA:  11    -0.349930852116E+03   -0.77364E+00   -0.43611E+00 10584   0.129E+02 0.129E+02
CGA:  12    -0.351190168002E+03   -0.12593E+01   -0.83654E+00 10584   0.101E+02 0.495E+01
CGA:  13    -0.352833467136E+03   -0.16433E+01   -0.17012E+01 10584   0.195E+01 0.204E+00
CGA:  14    -0.353391527110E+03   -0.55806E+00   -0.58172E+00 10584   0.342E+01-0.208E+00
CGA:  15    -0.353689954637E+03   -0.29843E+00   -0.34543E+00 10584   0.114E+01 0.139E+00
CGA:  16    -0.353857601844E+03   -0.16765E+00   -0.17197E+00 10584   0.257E+00 0.833E-01
CGA:  17    -0.353914437762E+03   -0.56836E-01   -0.56152E-01 10584   0.789E-01 0.181E-01
CGA:  18    -0.353933684595E+03   -0.19247E-01   -0.19062E-01 10584   0.357E-01 0.325E-02
CGA:  19    -0.353945845855E+03   -0.12161E-01   -0.12688E-01 10584   0.225E-01-0.314E-02
CGA:  20    -0.353951209037E+03   -0.53632E-02   -0.57584E-02 10584   0.911E-02-0.396E-02
CGA:  21    -0.353953186202E+03   -0.19772E-02   -0.30131E-02 10584   0.649E-02-0.481E-02
CGA:  22    -0.353955144206E+03   -0.19580E-02   -0.18985E-02 10584   0.113E-02 0.618E-03
CGA:  23    -0.353955371713E+03   -0.22751E-03   -0.23554E-03 10584   0.464E-03 0.746E-03
CGA:  24    -0.353955472696E+03   -0.10098E-03   -0.97969E-04 10584   0.200E-03 0.278E-03
CGA:  25    -0.353955539274E+03   -0.66578E-04   -0.56214E-04 10584   0.879E-04 0.131E-03
CGA:  26    -0.353955566217E+03   -0.26943E-04   -0.23273E-04 10584   0.432E-04 0.612E-04
CGA:  27    -0.353955580219E+03   -0.14002E-04   -0.11918E-04 10584   0.219E-04 0.306E-04
CGA:  28    -0.353955591918E+03   -0.11700E-04   -0.90126E-05 10584   0.861E-05 0.134E-04
CGA:  29    -0.353955596782E+03   -0.48636E-05    0.34436E-05 10584   0.595E-05 0.723E-05
   1 F= -.35395560E+03 E0= -.35395560E+03  d E =-.353956E+03  mag=    18.0000
       N       E                     dE             d eps       ncg     rms          ort
SDA:   1    -0.353956745227E+03   -0.11533E-02    0.00000E+00 10584   0.140E-03 0.000E+00
CGA:   2    -0.353956809360E+03   -0.64133E-04    0.39645E-03 10584   0.477E-04 0.240E-04
CGA:   3    -0.353956551060E+03    0.25830E-03   -0.13908E-03 10584   0.193E-02-0.280E-03
CGA:   4    -0.353956772147E+03   -0.22109E-03   -0.23004E-03 10584   0.308E-03 0.305E-04
CGA:   5    -0.353956816375E+03   -0.44228E-04   -0.59989E-04 10584   0.946E-04 0.797E-04
CGA:   6    -0.353956823461E+03   -0.70858E-05   -0.16501E-04 10584   0.203E-04 0.391E-04
   2 F= -.35395682E+03 E0= -.35395682E+03  d E =-.122668E-02  mag=    18.0000
       N       E                     dE             d eps       ncg     rms          ort
SDA:   1    -0.353931894996E+03    0.24921E-01    0.00000E+00 10584   0.171E+00 0.000E+00
CGA:   2    -0.353977372983E+03   -0.45478E-01   -0.45436E-01 10584   0.710E-01-0.492E-03
CGA:   3    -0.353991281509E+03   -0.13909E-01   -0.13879E-01 10584   0.220E-01-0.225E-03
CGA:   4    -0.353995156340E+03   -0.38748E-02   -0.38864E-02 10584   0.451E-02 0.660E-04
CGA:   5    -0.353995960988E+03   -0.80465E-03   -0.82544E-03 10584   0.132E-02 0.132E-03
CGA:   6    -0.353996210039E+03   -0.24905E-03   -0.26579E-03 10584   0.407E-03 0.123E-03
CGA:   7    -0.353996313915E+03   -0.10388E-03   -0.10760E-03 10584   0.158E-03 0.451E-04
CGA:   8    -0.353996371194E+03   -0.57279E-04   -0.57459E-04 10584   0.951E-04-0.246E-04
CGA:   9    -0.353996391476E+03   -0.20282E-04   -0.20249E-04 10584   0.320E-04-0.485E-06
CGA:  10    -0.353996395658E+03   -0.41826E-05   -0.56036E-05 10584   0.110E-04 0.100E-04
   3 F= -.35399640E+03 E0= -.35399640E+03  d E =-.395722E-01  mag=    18.0000
       N       E                     dE             d eps       ncg     rms          ort
SDA:   1    -0.353686428619E+03    0.30996E+00    0.00000E+00 10584   0.106E+01 0.000E+00
CGA:   2    -0.353956440429E+03   -0.27001E+00   -0.26995E+00 10584   0.424E+00-0.176E-02
CGA:   3    -0.354039373149E+03   -0.82933E-01   -0.82893E-01 10584   0.136E+00-0.623E-03
CGA:   4    -0.354063093291E+03   -0.23720E-01   -0.23755E-01 10584   0.279E-01 0.299E-03
CGA:   5    -0.354068020502E+03   -0.49272E-02   -0.49658E-02 10584   0.795E-02 0.345E-03
CGA:   6    -0.354069623443E+03   -0.16029E-02   -0.16291E-02 10584   0.248E-02 0.323E-03
CGA:   7    -0.354070262014E+03   -0.63857E-03   -0.64250E-03 10584   0.974E-03 0.127E-03
CGA:   8    -0.354070562784E+03   -0.30077E-03   -0.30146E-03 10584   0.462E-03-0.415E-04
CGA:   9    -0.354070688923E+03   -0.12614E-03   -0.12616E-03 10584   0.164E-03-0.353E-05
CGA:  10    -0.354070726489E+03   -0.37566E-04   -0.38629E-04 10584   0.461E-04 0.254E-04
CGA:  11    -0.354070738353E+03   -0.11864E-04   -0.12402E-04 10584   0.150E-04 0.122E-04
CGA:  12    -0.354070742467E+03   -0.41137E-05   -0.43792E-05 10584   0.606E-05 0.611E-05
   4 F= -.35407074E+03 E0= -.35407074E+03  d E =-.743468E-01  mag=    18.0000
       N       E                     dE             d eps       ncg     rms          ort
SDA:   1    -0.353539040034E+03    0.53170E+00    0.00000E+00 10584   0.171E+01 0.000E+00
CGA:   2    -0.353968256573E+03   -0.42922E+00   -0.42917E+00 10584   0.635E+00-0.289E-02
CGA:   3    -0.354095236737E+03   -0.12698E+00   -0.12696E+00 10584   0.209E+00-0.568E-03
CGA:   4    -0.354131283871E+03   -0.36047E-01   -0.36104E-01 10584   0.418E-01 0.597E-03
CGA:   5    -0.354138762185E+03   -0.74783E-02   -0.75056E-02 10584   0.118E-01 0.315E-03
CGA:   6    -0.354141152280E+03   -0.23901E-02   -0.24054E-02 10584   0.377E-02 0.263E-03
CGA:   7    -0.354142128683E+03   -0.97640E-03   -0.97697E-03 10584   0.154E-02 0.126E-03
CGA:   8    -0.354142585192E+03   -0.45651E-03   -0.45689E-03 10584   0.699E-03-0.124E-04
CGA:   9    -0.354142784484E+03   -0.19929E-03   -0.19890E-03 10584   0.246E-03 0.138E-04
CGA:  10    -0.354142850919E+03   -0.66434E-04   -0.66367E-04 10584   0.701E-04 0.181E-04
CGA:  11    -0.354142873024E+03   -0.22105E-04   -0.22047E-04 10584   0.225E-04 0.180E-05
CGA:  12    -0.354142878552E+03   -0.55276E-05   -0.56405E-05 10584   0.743E-05 0.632E-05
   5 F= -.35414288E+03 E0= -.35414288E+03  d E =-.721361E-01  mag=    18.0000
       N       E                     dE             d eps       ncg     rms          ort
SDA:   1    -0.352875657530E+03    0.12672E+01    0.00000E+00 10584   0.396E+01 0.000E+00
CGA:   2    -0.353849749737E+03   -0.97409E+00   -0.97417E+00 10584   0.128E+01-0.212E-02
CGA:   3    -0.354121820173E+03   -0.27207E+00   -0.27206E+00 10584   0.441E+00-0.408E-03
CGA:   4    -0.354196455611E+03   -0.74635E-01   -0.74734E-01 10584   0.890E-01 0.875E-03
CGA:   5    -0.354212872922E+03   -0.16417E-01   -0.16431E-01 10584   0.254E-01 0.133E-03
CGA:   6    -0.354218071333E+03   -0.51984E-02   -0.52037E-02 10584   0.864E-02 0.759E-04
CGA:   7    -0.354220361113E+03   -0.22898E-02   -0.22898E-02 10584   0.370E-02 0.504E-04
CGA:   8    -0.354221432362E+03   -0.10712E-02   -0.10712E-02 10584   0.166E-02 0.432E-05
CGA:   9    -0.354221908944E+03   -0.47658E-03   -0.47597E-03 10584   0.566E-03 0.294E-04
CGA:  10    -0.354222075696E+03   -0.16675E-03   -0.16704E-03 10584   0.172E-03-0.123E-04
CGA:  11    -0.354222129002E+03   -0.53306E-04   -0.54606E-04 10584   0.614E-04-0.228E-04
CGA:  12    -0.354222143631E+03   -0.14629E-04   -0.14608E-04 10584   0.178E-04 0.587E-05
CGA:  13    -0.354222148454E+03   -0.48228E-05   -0.13685E-04 10584   0.411E-04-0.206E-04
CGA:  14    -0.354222159314E+03   -0.10861E-04   -0.10782E-04 10584   0.372E-05-0.260E-05
CGA:  15    -0.354222159301E+03    0.13202E-07   -0.38743E-06 10584   0.158E-05 0.223E-05
   6 F= -.35422216E+03 E0= -.35422216E+03  d E =-.792807E-01  mag=    18.0000
       N       E                     dE             d eps       ncg     rms          ort
SDA:   1    -0.351515516856E+03    0.27066E+01    0.00000E+00 10584   0.786E+01 0.000E+00
CGA:   2    -0.353535187188E+03   -0.20197E+01   -0.20200E+01 10584   0.252E+01 0.887E-02
CGA:   3    -0.354087482906E+03   -0.55230E+00   -0.55220E+00 10584   0.839E+00-0.198E-02
CGA:   4    -0.354225748007E+03   -0.13827E+00   -0.13827E+00 10584   0.166E+00-0.139E-03
CGA:   5    -0.354256720077E+03   -0.30972E-01   -0.30977E-01 10584   0.469E-01 0.182E-05
CGA:   6    -0.354266374821E+03   -0.96547E-02   -0.96637E-02 10584   0.165E-01 0.143E-03
CGA:   7    -0.354270682023E+03   -0.43072E-02   -0.43070E-02 10584   0.710E-02 0.595E-04
CGA:   8    -0.354272739332E+03   -0.20573E-02   -0.20572E-02 10584   0.325E-02 0.209E-05
CGA:   9    -0.354273676902E+03   -0.93757E-03   -0.93644E-03 10584   0.114E-02 0.391E-04
CGA:  10    -0.354274012325E+03   -0.33542E-03   -0.33676E-03 10584   0.351E-03-0.421E-04
CGA:  11    -0.354274116802E+03   -0.10448E-03   -0.10655E-03 10584   0.120E-03-0.396E-04
CGA:  12    -0.354274148091E+03   -0.31288E-04   -0.31106E-04 10584   0.366E-04 0.670E-05
CGA:  13    -0.354274163852E+03   -0.15761E-04   -0.19729E-04 10584   0.325E-04-0.163E-04
CGA:  14    -0.354274169970E+03   -0.61179E-05   -0.69399E-05 10584   0.190E-04-0.777E-05
   7 F= -.35427417E+03 E0= -.35427417E+03  d E =-.520107E-01  mag=    18.0000
       N       E                     dE             d eps       ncg     rms          ort
SDA:   1    -0.354012880876E+03    0.26128E+00    0.00000E+00 10584   0.738E+00 0.000E+00
CGA:   2    -0.354214518925E+03   -0.20164E+00   -0.20164E+00 10584   0.270E+00 0.591E-03
CGA:   3    -0.354268398854E+03   -0.53880E-01   -0.53867E-01 10584   0.872E-01-0.233E-03
CGA:   4    -0.354282670402E+03   -0.14272E-01   -0.14259E-01 10584   0.173E-01-0.126E-03
CGA:   5    -0.354285850500E+03   -0.31801E-02   -0.31697E-02 10584   0.507E-02-0.126E-03
CGA:   6    -0.354286893593E+03   -0.10431E-02   -0.10390E-02 10584   0.166E-02-0.726E-04
CGA:   7    -0.354287306380E+03   -0.41279E-03   -0.41260E-03 10584   0.678E-03-0.193E-04
CGA:   8    -0.354287491698E+03   -0.18532E-03   -0.18536E-03 10584   0.293E-03-0.273E-05
CGA:   9    -0.354287575209E+03   -0.83511E-04   -0.83360E-04 10584   0.102E-03 0.642E-05
CGA:  10    -0.354287608534E+03   -0.33325E-04   -0.34300E-04 10584   0.412E-04-0.152E-04
CGA:  11    -0.354287619031E+03   -0.10497E-04   -0.17407E-04 10584   0.475E-04-0.302E-04
CGA:  12    -0.354287626145E+03   -0.71145E-05   -0.79684E-05 10584   0.561E-05 0.776E-05
   8 F= -.35428763E+03 E0= -.35428763E+03  d E =-.134562E-01  mag=    18.0000
       N       E                     dE             d eps       ncg     rms          ort
SDA:   1    -0.354250094727E+03    0.37524E-01    0.00000E+00 10584   0.111E+00 0.000E+00
CGA:   2    -0.354276799962E+03   -0.26705E-01   -0.26715E-01 10584   0.505E-01 0.259E-03
CGA:   3    -0.354286144041E+03   -0.93441E-02   -0.93534E-02 10584   0.148E-01 0.867E-04
CGA:   4    -0.354288807350E+03   -0.26633E-02   -0.26612E-02 10584   0.343E-02-0.264E-04
CGA:   5    -0.354289405378E+03   -0.59803E-03   -0.59109E-03 10584   0.910E-03-0.803E-04
CGA:   6    -0.354289610125E+03   -0.20475E-03   -0.20176E-03 10584   0.337E-03-0.105E-03
CGA:   7    -0.354289682904E+03   -0.72779E-04   -0.72427E-04 10584   0.128E-03-0.320E-04
CGA:   8    -0.354289708746E+03   -0.25842E-04   -0.26123E-04 10584   0.386E-04 0.101E-04
CGA:   9    -0.354289719894E+03   -0.11148E-04   -0.11102E-04 10584   0.135E-04 0.318E-05
CGA:  10    -0.354289723542E+03   -0.36483E-05   -0.84899E-05 10584   0.301E-04-0.149E-04
   9 F= -.35428972E+03 E0= -.35428972E+03  d E =-.209740E-02  mag=    18.0000
       N       E                     dE             d eps       ncg     rms          ort
SDA:   1    -0.353764988232E+03    0.52473E+00    0.00000E+00 10584   0.138E+01 0.000E+00
CGA:   2    -0.354139264834E+03   -0.37428E+00   -0.37426E+00 10584   0.704E+00 0.147E-02
CGA:   3    -0.354260751170E+03   -0.12149E+00   -0.12146E+00 10584   0.172E+00-0.548E-03
CGA:   4    -0.354290039169E+03   -0.29288E-01   -0.29249E-01 10584   0.379E-01-0.458E-03
CGA:   5    -0.354296551917E+03   -0.65127E-02   -0.64974E-02 10584   0.996E-02-0.196E-03
CGA:   6    -0.354298613952E+03   -0.20620E-02   -0.20557E-02 10584   0.291E-02-0.148E-03
CGA:   7    -0.354299275135E+03   -0.66118E-03   -0.66032E-03 10584   0.101E-02-0.475E-04
CGA:   8    -0.354299534664E+03   -0.25953E-03   -0.25929E-03 10584   0.390E-03 0.171E-04
CGA:   9    -0.354299650021E+03   -0.11536E-03   -0.11512E-03 10584   0.145E-03 0.561E-05
CGA:  10    -0.354299698943E+03   -0.48922E-04   -0.52228E-04 10584   0.713E-04-0.320E-04
CGA:  11    -0.354299716382E+03   -0.17439E-04   -0.19175E-04 10584   0.296E-04-0.196E-04
CGA:  12    -0.354299723460E+03   -0.70776E-05   -0.81105E-05 10584   0.137E-04-0.877E-05
  10 F= -.35429972E+03 E0= -.35429972E+03  d E =-.999992E-02  mag=    18.0000
       N       E                     dE             d eps       ncg     rms          ort
SDA:   1    -0.352068830518E+03    0.22309E+01    0.00000E+00 10584   0.576E+01 0.000E+00
CGA:   2    -0.353712355710E+03   -0.16435E+01   -0.16434E+01 10584   0.249E+01 0.817E-02
CGA:   3    -0.354158745809E+03   -0.44639E+00   -0.44629E+00 10584   0.678E+00-0.211E-02
CGA:   4    -0.354272571359E+03   -0.11383E+00   -0.11364E+00 10584   0.136E+00-0.193E-02
CGA:   5    -0.354296486605E+03   -0.23915E-01   -0.23870E-01 10584   0.381E-01-0.551E-03
CGA:   6    -0.354304287587E+03   -0.78010E-02   -0.77934E-02 10584   0.111E-01-0.153E-03
CGA:   7    -0.354306955166E+03   -0.26676E-02   -0.26676E-02 10584   0.425E-02-0.984E-06
CGA:   8    -0.354308143298E+03   -0.11881E-02   -0.11877E-02 10584   0.188E-02 0.169E-04
CGA:   9    -0.354308714791E+03   -0.57149E-03   -0.57177E-03 10584   0.740E-03-0.626E-05
CGA:  10    -0.354308938540E+03   -0.22375E-03   -0.22628E-03 10584   0.255E-03-0.538E-04
CGA:  11    -0.354309013192E+03   -0.74652E-04   -0.77312E-04 10584   0.901E-04-0.414E-04
CGA:  12    -0.354309037816E+03   -0.24624E-04   -0.25288E-04 10584   0.317E-04-0.956E-05
CGA:  13    -0.354309047616E+03   -0.98000E-05   -0.97494E-05 10584   0.115E-04 0.644E-06
  11 F= -.35430905E+03 E0= -.35430905E+03  d E =-.932416E-02  mag=    18.0000
       N       E                     dE             d eps       ncg     rms          ort
SDA:   1    -0.353990580329E+03    0.31846E+00    0.00000E+00 10584   0.791E+00 0.000E+00
CGA:   2    -0.354233180583E+03   -0.24260E+00   -0.24252E+00 10584   0.343E+00 0.218E-02
CGA:   3    -0.354292519121E+03   -0.59339E-01   -0.59263E-01 10584   0.865E-01-0.897E-03
CGA:   4    -0.354307180245E+03   -0.14661E-01   -0.14591E-01 10584   0.177E-01-0.708E-03
CGA:   5    -0.354310376424E+03   -0.31962E-02   -0.31744E-02 10584   0.515E-02-0.267E-03
CGA:   6    -0.354311427203E+03   -0.10508E-02   -0.10445E-02 10584   0.149E-02-0.118E-03
CGA:   7    -0.354311772376E+03   -0.34517E-03   -0.34475E-03 10584   0.554E-03-0.215E-04
CGA:   8    -0.354311923815E+03   -0.15144E-03   -0.15153E-03 10584   0.237E-03-0.457E-05
CGA:   9    -0.354311998506E+03   -0.74691E-04   -0.76064E-04 10584   0.103E-03-0.208E-04
CGA:  10    -0.354312029238E+03   -0.30733E-04   -0.34196E-04 10584   0.528E-04-0.333E-04
CGA:  11    -0.354312040167E+03   -0.10929E-04   -0.12449E-04 10584   0.239E-04-0.183E-04
CGA:  12    -0.354312044743E+03   -0.45759E-05   -0.46125E-05 10584   0.839E-05-0.141E-05
  12 F= -.35431204E+03 E0= -.35431204E+03  d E =-.299713E-02  mag=    18.0000
       N       E                     dE             d eps       ncg     rms          ort
SDA:   1    -0.354286879745E+03    0.25160E-01    0.00000E+00 10584   0.708E-01 0.000E+00
CGA:   2    -0.354307129884E+03   -0.20250E-01   -0.20252E-01 10584   0.327E-01-0.123E-03
CGA:   3    -0.354312881205E+03   -0.57513E-02   -0.57437E-02 10584   0.906E-02-0.943E-04
CGA:   4    -0.354314433037E+03   -0.15518E-02   -0.15476E-02 10584   0.196E-02-0.465E-04
CGA:   5    -0.354314768729E+03   -0.33569E-03   -0.33677E-03 10584   0.527E-03 0.120E-04
CGA:   6    -0.354314875905E+03   -0.10718E-03   -0.10776E-03 10584   0.159E-03 0.111E-04
CGA:   7    -0.354314917705E+03   -0.41800E-04   -0.41849E-04 10584   0.677E-04-0.845E-05
CGA:   8    -0.354314936099E+03   -0.18393E-04   -0.18698E-04 10584   0.318E-04-0.782E-05
CGA:   9    -0.354314944732E+03   -0.86338E-05   -0.90102E-05 10584   0.139E-04-0.572E-05
  13 F= -.35431494E+03 E0= -.35431494E+03  d E =-.289999E-02  mag=    18.0000
       N       E                     dE             d eps       ncg     rms          ort
SDA:   1    -0.354103695779E+03    0.21124E+00    0.00000E+00 10584   0.522E+00 0.000E+00
CGA:   2    -0.354263048094E+03   -0.15935E+00   -0.15930E+00 10584   0.257E+00 0.102E-02
CGA:   3    -0.354305218172E+03   -0.42170E-01   -0.42114E-01 10584   0.579E-01-0.692E-03
CGA:   4    -0.354315181395E+03   -0.99632E-02   -0.99170E-02 10584   0.127E-01-0.544E-03
CGA:   5    -0.354317383624E+03   -0.22022E-02   -0.21920E-02 10584   0.349E-02-0.133E-03
CGA:   6    -0.354318097391E+03   -0.71377E-03   -0.71237E-03 10584   0.979E-03-0.333E-04
CGA:   7    -0.354318324267E+03   -0.22688E-03   -0.22660E-03 10584   0.351E-03-0.202E-04
CGA:   8    -0.354318423539E+03   -0.99273E-04   -0.10031E-03 10584   0.161E-03-0.232E-04
CGA:   9    -0.354318470181E+03   -0.46642E-04   -0.48166E-04 10584   0.708E-04-0.212E-04
CGA:  10    -0.354318489495E+03   -0.19314E-04   -0.21268E-04 10584   0.326E-04-0.209E-04
CGA:  11    -0.354318496450E+03   -0.69554E-05   -0.88934E-05 10584   0.191E-04-0.149E-04
  14 F= -.35431850E+03 E0= -.35431850E+03  d E =-.355172E-02  mag=    18.0000
       N       E                     dE             d eps       ncg     rms          ort
SDA:   1    -0.347551630003E+03    0.67669E+01    0.00000E+00 10584   0.165E+02 0.000E+00
CGA:   2    -0.352597738718E+03   -0.50461E+01   -0.50456E+01 10584   0.808E+01 0.933E-02
CGA:   3    -0.353910303748E+03   -0.13126E+01   -0.13129E+01 10584   0.182E+01 0.277E-02
CGA:   4    -0.354221264997E+03   -0.31096E+00   -0.31075E+00 10584   0.399E+00-0.235E-02
CGA:   5    -0.354291314455E+03   -0.70049E-01   -0.70021E-01 10584   0.111E+00-0.510E-03
CGA:   6    -0.354314192785E+03   -0.22878E-01   -0.22875E-01 10584   0.319E-01-0.105E-03
CGA:   7    -0.354321638181E+03   -0.74454E-02   -0.74422E-02 10584   0.115E-01-0.123E-03
CGA:   8    -0.354324869358E+03   -0.32312E-02   -0.32327E-02 10584   0.493E-02-0.779E-04
CGA:   9    -0.354326325781E+03   -0.14564E-02   -0.14597E-02 10584   0.187E-02-0.942E-04
CGA:  10    -0.354326864266E+03   -0.53848E-03   -0.54215E-03 10584   0.597E-03-0.120E-03
CGA:  11    -0.354327030091E+03   -0.16583E-03   -0.16803E-03 10584   0.173E-03-0.637E-04
CGA:  12    -0.354327084718E+03   -0.54627E-04   -0.62446E-04 10584   0.899E-04-0.570E-04
CGA:  13    -0.354327106804E+03   -0.22086E-04   -0.30408E-04 10584   0.677E-04-0.363E-04
CGA:  14    -0.354327119874E+03   -0.13070E-04   -0.13054E-04 10584   0.258E-04 0.307E-06
CGA:  15    -0.354327129700E+03   -0.98259E-05   -0.12800E-04 10584   0.229E-04-0.145E-04
  15 F= -.35432713E+03 E0= -.35432713E+03  d E =-.863325E-02  mag=    18.0000
       N       E                     dE             d eps       ncg     rms          ort
SDA:   1    -0.351953929251E+03    0.23732E+01    0.00000E+00 10584   0.530E+01 0.000E+00
CGA:   2    -0.353578567710E+03   -0.16246E+01   -0.16246E+01 10584   0.212E+01-0.181E-02
CGA:   3    -0.353993091614E+03   -0.41452E+00   -0.41468E+00 10584   0.670E+00 0.164E-02
CGA:   4    -0.354105373694E+03   -0.11228E+00   -0.11252E+00 10584   0.158E+00 0.175E-02
CGA:   5    -0.354136562931E+03   -0.31189E-01   -0.31252E-01 10584   0.523E-01 0.820E-03
CGA:   6    -0.354147371359E+03   -0.10808E-01   -0.10820E-01 10584   0.189E-01 0.145E-03
CGA:   7    -0.354152373194E+03   -0.50018E-02   -0.50009E-02 10584   0.775E-02-0.553E-04
CGA:   8    -0.354154306433E+03   -0.19332E-02   -0.19364E-02 10584   0.287E-02 0.100E-03
CGA:   9    -0.354155126983E+03   -0.82055E-03   -0.82050E-03 10584   0.935E-03 0.229E-04
CGA:  10    -0.354155402603E+03   -0.27562E-03   -0.27637E-03 10584   0.320E-03-0.572E-04
CGA:  11    -0.354155482388E+03   -0.79786E-04   -0.79809E-04 10584   0.817E-04 0.140E-05
CGA:  12    -0.354155509567E+03   -0.27178E-04   -0.27725E-04 10584   0.302E-04-0.950E-05
CGA:  13    -0.354155514442E+03   -0.48751E-05   -0.19561E-04 10584   0.720E-04-0.329E-04
CGA:  14    -0.354155525058E+03   -0.10617E-04   -0.12690E-04 10584   0.850E-05 0.161E-04
CGA:  15    -0.354155526388E+03   -0.13300E-05   -0.18610E-05 10584   0.326E-05 0.443E-05
  16 F= -.35415553E+03 E0= -.35415553E+03  d E =0.171603E+00  mag=    18.0000
       N       E                     dE             d eps       ncg     rms          ort
SDA:   1    -0.353987911057E+03    0.16761E+00    0.00000E+00 10584   0.698E+00 0.000E+00
CGA:   2    -0.354214557791E+03   -0.22665E+00   -0.22658E+00 10584   0.224E+00-0.313E-03
CGA:   3    -0.354269618258E+03   -0.55060E-01   -0.54974E-01 10584   0.551E-01-0.405E-03
CGA:   4    -0.354279225567E+03   -0.96073E-02   -0.95792E-02 10584   0.202E-01-0.818E-04
CGA:   5    -0.354282905334E+03   -0.36798E-02   -0.36751E-02 10584   0.562E-02-0.140E-04
CGA:   6    -0.354284162541E+03   -0.12572E-02   -0.12589E-02 10584   0.257E-02 0.608E-05
CGA:   7    -0.354284815967E+03   -0.65343E-03   -0.64594E-03 10584   0.917E-03-0.354E-04
CGA:   8    -0.354285071077E+03   -0.25511E-03   -0.25088E-03 10584   0.385E-03-0.241E-04
CGA:   9    -0.354285156311E+03   -0.85234E-04   -0.89974E-04 10584   0.106E-03 0.231E-04
CGA:  10    -0.354285188081E+03   -0.31770E-04   -0.31673E-04 10584   0.335E-04-0.651E-06
CGA:  11    -0.354285202473E+03   -0.14392E-04   -0.14643E-04 10584   0.302E-04-0.203E-04
CGA:  12    -0.354285203978E+03   -0.15050E-05   -0.41563E-05 10584   0.432E-05 0.912E-05
  17 F= -.35428520E+03 E0= -.35428520E+03  d E =-.129678E+00  mag=    18.0000
       N       E                     dE             d eps       ncg     rms          ort
SDA:   1    -0.354166757497E+03    0.11844E+00    0.00000E+00 10584   0.385E+00 0.000E+00
CGA:   2    -0.354291644406E+03   -0.12489E+00   -0.12487E+00 10584   0.126E+00-0.340E-03
CGA:   3    -0.354322159051E+03   -0.30515E-01   -0.30475E-01 10584   0.315E-01-0.291E-03
CGA:   4    -0.354327778604E+03   -0.56196E-02   -0.56024E-02 10584   0.104E-01-0.834E-04
CGA:   5    -0.354329778108E+03   -0.19995E-02   -0.19960E-02 10584   0.302E-02-0.186E-04
CGA:   6    -0.354330454146E+03   -0.67604E-03   -0.67634E-03 10584   0.140E-02 0.181E-05
CGA:   7    -0.354330810725E+03   -0.35658E-03   -0.35309E-03 10584   0.510E-03-0.321E-04
CGA:   8    -0.354330950757E+03   -0.14003E-03   -0.13847E-03 10584   0.214E-03-0.201E-04
CGA:   9    -0.354330996276E+03   -0.45519E-04   -0.47763E-04 10584   0.563E-04 0.188E-04
CGA:  10    -0.354331013373E+03   -0.17097E-04   -0.17147E-04 10584   0.187E-04 0.727E-06
CGA:  11    -0.354331017868E+03   -0.44955E-05   -0.12267E-04 10584   0.519E-04-0.256E-04
  18 F= -.35433102E+03 E0= -.35433102E+03  d E =-.458139E-01  mag=    18.0000
       N       E                     dE             d eps       ncg     rms          ort
SDA:   1    -0.354285647941E+03    0.45365E-01    0.00000E+00 10584   0.124E+00 0.000E+00
CGA:   2    -0.354325452133E+03   -0.39804E-01   -0.39799E-01 10584   0.438E-01-0.224E-03
CGA:   3    -0.354335157605E+03   -0.97055E-02   -0.96882E-02 10584   0.134E-01-0.150E-03
CGA:   4    -0.354337343663E+03   -0.21861E-02   -0.21767E-02 10584   0.358E-02-0.557E-04
CGA:   5    -0.354338079621E+03   -0.73596E-03   -0.73179E-03 10584   0.111E-02-0.331E-04
CGA:   6    -0.354338315900E+03   -0.23628E-03   -0.23542E-03 10584   0.462E-03-0.791E-05
CGA:   7    -0.354338439157E+03   -0.12326E-03   -0.12242E-03 10584   0.186E-03-0.163E-04
CGA:   8    -0.354338488466E+03   -0.49309E-04   -0.48759E-04 10584   0.784E-04-0.125E-04
CGA:   9    -0.354338504519E+03   -0.16053E-04   -0.16790E-04 10584   0.202E-04 0.872E-05
CGA:  10    -0.354338509860E+03   -0.53409E-05   -0.55177E-05 10584   0.656E-05 0.278E-05
  19 F= -.35433851E+03 E0= -.35433851E+03  d E =-.749199E-02  mag=    18.0000
       N       E                     dE             d eps       ncg     rms          ort
SDA:   1    -0.354336081793E+03    0.24227E-02    0.00000E+00 10584   0.744E-02 0.000E+00
CGA:   2    -0.354338180875E+03   -0.20991E-02   -0.20946E-02 10584   0.394E-02-0.839E-04
CGA:   3    -0.354338830306E+03   -0.64943E-03   -0.64496E-03 10584   0.120E-02-0.279E-04
CGA:   4    -0.354339024744E+03   -0.19444E-03   -0.19496E-03 10584   0.273E-03 0.307E-05
CGA:   5    -0.354339077824E+03   -0.53080E-04   -0.52332E-04 10584   0.781E-04-0.606E-05
CGA:   6    -0.354339095895E+03   -0.18071E-04   -0.17042E-04 10584   0.364E-04-0.118E-04
CGA:   7    -0.354339104613E+03   -0.87176E-05   -0.84644E-05 10584   0.182E-04-0.795E-05
  20 F= -.35433910E+03 E0= -.35433910E+03  d E =-.594753E-03  mag=    18.0000
       N       E                     dE             d eps       ncg     rms          ort
SDA:   1    -0.354335187801E+03    0.39081E-02    0.00000E+00 10584   0.118E-01 0.000E+00
CGA:   2    -0.354338259946E+03   -0.30721E-02   -0.30713E-02 10584   0.636E-02-0.266E-04
CGA:   3    -0.354339394744E+03   -0.11348E-02   -0.11318E-02 10584   0.167E-02-0.274E-04
CGA:   4    -0.354339674893E+03   -0.28015E-03   -0.28055E-03 10584   0.405E-03 0.311E-05
CGA:   5    -0.354339746846E+03   -0.71953E-04   -0.71656E-04 10584   0.111E-03-0.281E-05
CGA:   6    -0.354339773218E+03   -0.26372E-04   -0.25797E-04 10584   0.442E-04-0.124E-04
CGA:   7    -0.354339784092E+03   -0.10874E-04   -0.10854E-04 10584   0.230E-04-0.965E-05
CGA:   8    -0.354339787434E+03   -0.33419E-05   -0.35095E-05 10584   0.677E-05 0.202E-05
  21 F= -.35433979E+03 E0= -.35433979E+03  d E =-.682821E-03  mag=    18.0000
       N       E                     dE             d eps       ncg     rms          ort
SDA:   1    -0.354338810601E+03    0.97349E-03    0.00000E+00 10584   0.346E-02 0.000E+00
CGA:   2    -0.354339668035E+03   -0.85743E-03   -0.85710E-03 10584   0.196E-02-0.185E-04
CGA:   3    -0.354340017846E+03   -0.34981E-03   -0.34765E-03 10584   0.479E-03-0.253E-04
CGA:   4    -0.354340096474E+03   -0.78628E-04   -0.78726E-04 10584   0.106E-03 0.948E-06
CGA:   5    -0.354340115234E+03   -0.18759E-04   -0.18864E-04 10584   0.273E-04 0.128E-05
CGA:   6    -0.354340122183E+03   -0.69491E-05   -0.69358E-05 10584   0.119E-04-0.494E-05
  22 F= -.35434012E+03 E0= -.35434012E+03  d E =-.334749E-03  mag=    18.0000
       N       E                     dE             d eps       ncg     rms          ort
SDA:   1    -0.354309987507E+03    0.30128E-01    0.00000E+00 10584   0.848E-01 0.000E+00
CGA:   2    -0.354330621491E+03   -0.20634E-01   -0.20633E-01 10584   0.481E-01-0.113E-03
CGA:   3    -0.354339194509E+03   -0.85730E-02   -0.85570E-02 10584   0.116E-01-0.225E-03
CGA:   4    -0.354341109381E+03   -0.19149E-02   -0.19122E-02 10584   0.276E-02-0.329E-04
CGA:   5    -0.354341568532E+03   -0.45915E-03   -0.45973E-03 10584   0.673E-03 0.629E-05
CGA:   6    -0.354341711982E+03   -0.14345E-03   -0.14317E-03 10584   0.201E-03-0.861E-05
CGA:   7    -0.354341761915E+03   -0.49932E-04   -0.50150E-04 10584   0.801E-04-0.248E-04
CGA:   8    -0.354341780427E+03   -0.18513E-04   -0.18634E-04 10584   0.306E-04-0.566E-05
CGA:   9    -0.354341786615E+03   -0.61877E-05   -0.62982E-05 10584   0.854E-05 0.478E-05
  23 F= -.35434179E+03 E0= -.35434179E+03  d E =-.166443E-02  mag=    18.0000
       N       E                     dE             d eps       ncg     rms          ort
SDA:   1    -0.354310788243E+03    0.30992E-01    0.00000E+00 10584   0.867E-01 0.000E+00
CGA:   2    -0.354331858102E+03   -0.21070E-01   -0.21070E-01 10584   0.499E-01-0.111E-03
CGA:   3    -0.354340777887E+03   -0.89198E-02   -0.89028E-02 10584   0.118E-01-0.289E-03
CGA:   4    -0.354342735590E+03   -0.19577E-02   -0.19530E-02 10584   0.268E-02-0.666E-04
CGA:   5    -0.354343188850E+03   -0.45326E-03   -0.45335E-03 10584   0.678E-03 0.652E-06
CGA:   6    -0.354343331224E+03   -0.14237E-03   -0.14224E-03 10584   0.201E-03-0.595E-05
CGA:   7    -0.354343380993E+03   -0.49769E-04   -0.50284E-04 10584   0.812E-04-0.254E-04
CGA:   8    -0.354343400402E+03   -0.19408E-04   -0.19854E-04 10584   0.336E-04-0.956E-05
CGA:   9    -0.354343407283E+03   -0.68818E-05   -0.68924E-05 10584   0.951E-05 0.342E-05
  24 F= -.35434341E+03 E0= -.35434341E+03  d E =-.162067E-02  mag=    18.0000
       N       E                     dE             d eps       ncg     rms          ort
SDA:   1    -0.354107744394E+03    0.23566E+00    0.00000E+00 10584   0.626E+00 0.000E+00
CGA:   2    -0.354266067111E+03   -0.15832E+00   -0.15832E+00 10584   0.361E+00 0.252E-04
CGA:   3    -0.354328961789E+03   -0.62895E-01   -0.62859E-01 10584   0.821E-01-0.747E-03
CGA:   4    -0.354342668046E+03   -0.13706E-01   -0.13694E-01 10584   0.186E-01-0.201E-03
CGA:   5    -0.354345845657E+03   -0.31776E-02   -0.31791E-02 10584   0.473E-02 0.195E-04
CGA:   6    -0.354346833663E+03   -0.98801E-03   -0.98790E-03 10584   0.138E-02-0.687E-05
CGA:   7    -0.354347158441E+03   -0.32478E-03   -0.32549E-03 10584   0.492E-03-0.687E-04
CGA:   8    -0.354347287052E+03   -0.12861E-03   -0.12996E-03 10584   0.199E-03-0.268E-04
CGA:   9    -0.354347337537E+03   -0.50484E-04   -0.50164E-04 10584   0.645E-04 0.874E-05
CGA:  10    -0.354347357429E+03   -0.19893E-04   -0.20010E-04 10584   0.223E-04-0.179E-05
CGA:  11    -0.354347364036E+03   -0.66068E-05   -0.67883E-05 10584   0.757E-05-0.232E-05
  25 F= -.35434736E+03 E0= -.35434736E+03  d E =-.395675E-02  mag=    18.0000
       N       E                     dE             d eps       ncg     rms          ort
SDA:   1    -0.354134585619E+03    0.21277E+00    0.00000E+00 10584   0.540E+00 0.000E+00
CGA:   2    -0.354286267607E+03   -0.15168E+00   -0.15169E+00 10584   0.302E+00-0.343E-03
CGA:   3    -0.354335990694E+03   -0.49723E-01   -0.49706E-01 10584   0.651E-01-0.380E-03
CGA:   4    -0.354346928023E+03   -0.10937E-01   -0.10942E-01 10584   0.147E-01 0.587E-04
CGA:   5    -0.354349461496E+03   -0.25335E-02   -0.25378E-02 10584   0.380E-02 0.702E-04
CGA:   6    -0.354350259179E+03   -0.79768E-03   -0.79700E-03 10584   0.111E-02-0.351E-04
CGA:   7    -0.354350519781E+03   -0.26060E-03   -0.26119E-03 10584   0.412E-03-0.587E-04
CGA:   8    -0.354350624933E+03   -0.10515E-03   -0.10534E-03 10584   0.159E-03-0.473E-05
CGA:   9    -0.354350667782E+03   -0.42849E-04   -0.42411E-04 10584   0.528E-04 0.112E-04
CGA:  10    -0.354350685197E+03   -0.17415E-04   -0.17695E-04 10584   0.200E-04-0.349E-05
CGA:  11    -0.354350690242E+03   -0.50452E-05   -0.50317E-05 10584   0.548E-05 0.393E-06
  26 F= -.35435069E+03 E0= -.35435069E+03  d E =-.332621E-02  mag=    18.0000
       N       E                     dE             d eps       ncg     rms          ort
SDA:   1    -0.354090243498E+03    0.26044E+00    0.00000E+00 10584   0.636E+00 0.000E+00
CGA:   2    -0.354286385319E+03   -0.19614E+00   -0.19618E+00 10584   0.322E+00-0.826E-03
CGA:   3    -0.354337707215E+03   -0.51322E-01   -0.51329E-01 10584   0.684E-01-0.744E-04
CGA:   4    -0.354349370458E+03   -0.11663E-01   -0.11679E-01 10584   0.155E-01 0.214E-03
CGA:   5    -0.354352116946E+03   -0.27465E-02   -0.27481E-02 10584   0.421E-02 0.216E-04
CGA:   6    -0.354353001406E+03   -0.88446E-03   -0.88151E-03 10584   0.124E-02-0.119E-03
CGA:   7    -0.354353288224E+03   -0.28682E-03   -0.28716E-03 10584   0.467E-03-0.584E-04
CGA:   8    -0.354353405897E+03   -0.11767E-03   -0.11743E-03 10584   0.174E-03 0.773E-05
CGA:   9    -0.354353458506E+03   -0.52608E-04   -0.52574E-04 10584   0.654E-04 0.511E-06
CGA:  10    -0.354353479751E+03   -0.21246E-04   -0.22885E-04 10584   0.306E-04-0.148E-04
CGA:  11    -0.354353485488E+03   -0.57365E-05   -0.57367E-05 10584   0.810E-05 0.198E-06
  27 F= -.35435349E+03 E0= -.35435349E+03  d E =-.279525E-02  mag=    18.0000
       N       E                     dE             d eps       ncg     rms          ort
SDA:   1    -0.354167062913E+03    0.18642E+00    0.00000E+00 10584   0.442E+00 0.000E+00
CGA:   2    -0.354312980269E+03   -0.14592E+00   -0.14593E+00 10584   0.200E+00-0.318E-03
CGA:   3    -0.354344556289E+03   -0.31576E-01   -0.31603E-01 10584   0.427E-01 0.156E-03
CGA:   4    -0.354351967739E+03   -0.74114E-02   -0.74292E-02 10584   0.977E-02 0.222E-03
CGA:   5    -0.354353728220E+03   -0.17605E-02   -0.17647E-02 10584   0.268E-02 0.587E-04
CGA:   6    -0.354354282613E+03   -0.55439E-03   -0.55232E-03 10584   0.784E-03-0.531E-04
CGA:   7    -0.354354464683E+03   -0.18207E-03   -0.18201E-03 10584   0.291E-03-0.104E-04
CGA:   8    -0.354354534377E+03   -0.69694E-04   -0.69682E-04 10584   0.100E-03 0.347E-04
CGA:   9    -0.354354565061E+03   -0.30685E-04   -0.30225E-04 10584   0.367E-04 0.167E-04
CGA:  10    -0.354354578890E+03   -0.13828E-04   -0.14078E-04 10584   0.166E-04-0.293E-05
CGA:  11    -0.354354581309E+03   -0.24189E-05   -0.27523E-05 10584   0.497E-05 0.491E-05
  28 F= -.35435458E+03 E0= -.35435458E+03  d E =-.109582E-02  mag=    18.0000
       N       E                     dE             d eps       ncg     rms          ort
SDA:   1    -0.354248148564E+03    0.10643E+00    0.00000E+00 10584   0.251E+00 0.000E+00
CGA:   2    -0.354331953371E+03   -0.83805E-01   -0.83802E-01 10584   0.108E+00-0.209E-04
CGA:   3    -0.354349233570E+03   -0.17280E-01   -0.17259E-01 10584   0.246E-01-0.307E-03
CGA:   4    -0.354353475331E+03   -0.42418E-02   -0.42352E-02 10584   0.569E-02-0.102E-03
CGA:   5    -0.354354503671E+03   -0.10283E-02   -0.10263E-02 10584   0.157E-02-0.388E-04
CGA:   6    -0.354354821594E+03   -0.31792E-03   -0.31687E-03 10584   0.453E-03-0.356E-04
CGA:   7    -0.354354932952E+03   -0.11136E-03   -0.11210E-03 10584   0.189E-03-0.348E-04
CGA:   8    -0.354354981807E+03   -0.48854E-04   -0.49787E-04 10584   0.824E-04-0.176E-04
CGA:   9    -0.354355002653E+03   -0.20846E-04   -0.20891E-04 10584   0.269E-04-0.102E-05
CGA:  10    -0.354355011169E+03   -0.85159E-05   -0.94459E-05 10584   0.127E-04-0.794E-05
  29 F= -.35435501E+03 E0= -.35435501E+03  d E =-.429860E-03  mag=    18.0000
       N       E                     dE             d eps       ncg     rms          ort
SDA:   1    -0.354274670802E+03    0.80332E-01    0.00000E+00 10584   0.193E+00 0.000E+00
CGA:   2    -0.354335119061E+03   -0.60448E-01   -0.60432E-01 10584   0.960E-01 0.229E-03
CGA:   3    -0.354350556938E+03   -0.15438E-01   -0.15407E-01 10584   0.210E-01-0.357E-03
CGA:   4    -0.354354178609E+03   -0.36217E-02   -0.36120E-02 10584   0.489E-02-0.121E-03
CGA:   5    -0.354355046543E+03   -0.86793E-03   -0.87000E-03 10584   0.132E-02 0.276E-04
CGA:   6    -0.354355302551E+03   -0.25601E-03   -0.25790E-03 10584   0.379E-03 0.361E-04
CGA:   7    -0.354355393980E+03   -0.91429E-04   -0.91414E-04 10584   0.146E-03-0.160E-05
CGA:   8    -0.354355434930E+03   -0.40950E-04   -0.41250E-04 10584   0.644E-04-0.742E-05
CGA:   9    -0.354355449502E+03   -0.14572E-04   -0.14635E-04 10584   0.194E-04 0.985E-05
CGA:  10    -0.354355454503E+03   -0.50017E-05   -0.50893E-05 10584   0.595E-05 0.487E-05
  30 F= -.35435545E+03 E0= -.35435545E+03  d E =-.443335E-03  mag=    18.0000
       N       E                     dE             d eps       ncg     rms          ort
SDA:   1    -0.354289526811E+03    0.65923E-01    0.00000E+00 10584   0.166E+00 0.000E+00
CGA:   2    -0.354335341152E+03   -0.45814E-01   -0.45797E-01 10584   0.903E-01 0.604E-03
CGA:   3    -0.354350716306E+03   -0.15375E-01   -0.15348E-01 10584   0.208E-01-0.350E-03
CGA:   4    -0.354354242244E+03   -0.35259E-02   -0.35059E-02 10584   0.488E-02-0.257E-03
CGA:   5    -0.354355091900E+03   -0.84966E-03   -0.84629E-03 10584   0.128E-02-0.506E-04
CGA:   6    -0.354355341015E+03   -0.24911E-03   -0.25022E-03 10584   0.356E-03 0.255E-04
CGA:   7    -0.354355425057E+03   -0.84042E-04   -0.84068E-04 10584   0.126E-03 0.413E-05
CGA:   8    -0.354355462146E+03   -0.37089E-04   -0.38013E-04 10584   0.636E-04-0.151E-04
CGA:   9    -0.354355476094E+03   -0.13948E-04   -0.13918E-04 10584   0.205E-04 0.348E-05
CGA:  10    -0.354355481164E+03   -0.50698E-05   -0.50900E-05 10584   0.600E-05 0.343E-05
  31 F= -.35435548E+03 E0= -.35435548E+03  d E =-.266603E-04  mag=    18.0000
       N       E                     dE             d eps       ncg     rms          ort
SDA:   1    -0.353658206625E+03    0.69727E+00    0.00000E+00 10584   0.177E+01 0.000E+00
CGA:   2    -0.354135736338E+03   -0.47753E+00   -0.47749E+00 10584   0.963E+00 0.333E-02
CGA:   3    -0.354301463960E+03   -0.16573E+00   -0.16566E+00 10584   0.228E+00-0.986E-03
CGA:   4    -0.354339747931E+03   -0.38284E-01   -0.38204E-01 10584   0.521E-01-0.893E-03
CGA:   5    -0.354348819352E+03   -0.90714E-02   -0.90654E-02 10584   0.137E-01-0.888E-04
CGA:   6    -0.354351526243E+03   -0.27069E-02   -0.27156E-02 10584   0.389E-02 0.173E-03
CGA:   7    -0.354352427293E+03   -0.90105E-03   -0.90199E-03 10584   0.135E-02 0.545E-04
CGA:   8    -0.354352791485E+03   -0.36419E-03   -0.36435E-03 10584   0.550E-03-0.732E-05
CGA:   9    -0.354352940963E+03   -0.14948E-03   -0.14867E-03 10584   0.192E-03 0.311E-04
CGA:  10    -0.354352997055E+03   -0.56092E-04   -0.55716E-04 10584   0.594E-04 0.135E-04
CGA:  11    -0.354353018229E+03   -0.21174E-04   -0.22150E-04 10584   0.254E-04-0.982E-05
CGA:  12    -0.354353021324E+03   -0.30950E-05   -0.37259E-05 10584   0.896E-05 0.807E-05
  32 F= -.35435302E+03 E0= -.35435302E+03  d E =0.245984E-02  mag=    18.0000
       N       E                     dE             d eps       ncg     rms          ort
SDA:   1    -0.352081970609E+03    0.22710E+01    0.00000E+00 10584   0.577E+01 0.000E+00
CGA:   2    -0.353645743646E+03   -0.15638E+01   -0.15634E+01 10584   0.301E+01 0.983E-02
CGA:   3    -0.354169789201E+03   -0.52405E+00   -0.52397E+00 10584   0.748E+00-0.185E-02
CGA:   4    -0.354295557105E+03   -0.12577E+00   -0.12561E+00 10584   0.170E+00-0.210E-02
CGA:   5    -0.354325083794E+03   -0.29527E-01   -0.29509E-01 10584   0.460E-01-0.320E-03
CGA:   6    -0.354334168513E+03   -0.90847E-02   -0.90957E-02 10584   0.134E-01 0.288E-03
CGA:   7    -0.354337289616E+03   -0.31211E-02   -0.31212E-02 10584   0.470E-02 0.786E-04
CGA:   8    -0.354338555441E+03   -0.12658E-02   -0.12678E-02 10584   0.193E-02-0.572E-04
CGA:   9    -0.354339093117E+03   -0.53768E-03   -0.53633E-03 10584   0.693E-03 0.284E-04
CGA:  10    -0.354339294760E+03   -0.20164E-03   -0.20165E-03 10584   0.222E-03-0.107E-06
CGA:  11    -0.354339365728E+03   -0.70968E-04   -0.74558E-04 10584   0.841E-04-0.375E-04
CGA:  12    -0.354339381351E+03   -0.15623E-04   -0.15851E-04 10584   0.229E-04 0.129E-04
CGA:  13    -0.354339387113E+03   -0.57621E-05   -0.58886E-05 10584   0.826E-05 0.614E-05
  33 F= -.35433939E+03 E0= -.35433939E+03  d E =0.136342E-01  mag=    18.0000
       N       E                     dE             d eps       ncg     rms          ort
SDA:   1    -0.353915887535E+03    0.42349E+00    0.00000E+00 10584   0.112E+01 0.000E+00
CGA:   2    -0.354207912824E+03   -0.29203E+00   -0.29203E+00 10584   0.612E+00-0.477E-03
CGA:   3    -0.354315891600E+03   -0.10798E+00   -0.10804E+00 10584   0.152E+00 0.743E-03
CGA:   4    -0.354341155465E+03   -0.25264E-01   -0.25326E-01 10584   0.346E-01 0.710E-03
CGA:   5    -0.354347158351E+03   -0.60029E-02   -0.60311E-02 10584   0.939E-02 0.359E-03
CGA:   6    -0.354349054410E+03   -0.18961E-02   -0.19006E-02 10584   0.278E-02 0.975E-04
CGA:   7    -0.354349715472E+03   -0.66106E-03   -0.66121E-03 10584   0.986E-03 0.159E-04
CGA:   8    -0.354349956976E+03   -0.24150E-03   -0.24151E-03 10584   0.345E-03 0.697E-04
CGA:   9    -0.354350056150E+03   -0.99174E-04   -0.98256E-04 10584   0.119E-03 0.409E-04
CGA:  10    -0.354350093069E+03   -0.36920E-04   -0.36555E-04 10584   0.405E-04 0.122E-04
CGA:  11    -0.354350100537E+03   -0.74680E-05   -0.84376E-05 10584   0.126E-04 0.170E-04
  34 F= -.35435010E+03 E0= -.35435010E+03  d E =-.107134E-01  mag=    18.0000
       N       E                     dE             d eps       ncg     rms          ort
SDA:   1    -0.354328200246E+03    0.21893E-01    0.00000E+00 10584   0.664E-01 0.000E+00
CGA:   2    -0.354342501126E+03   -0.14301E-01   -0.14293E-01 10584   0.336E-01-0.371E-03
CGA:   3    -0.354349132940E+03   -0.66318E-02   -0.66328E-02 10584   0.109E-01 0.204E-04
CGA:   4    -0.354350964123E+03   -0.18312E-02   -0.18380E-02 10584   0.246E-02 0.103E-03
CGA:   5    -0.354351395959E+03   -0.43184E-03   -0.43146E-03 10584   0.662E-03-0.678E-05
CGA:   6    -0.354351542106E+03   -0.14615E-03   -0.14561E-03 10584   0.242E-03-0.638E-04
CGA:   7    -0.354351596419E+03   -0.54313E-04   -0.55083E-04 10584   0.101E-03-0.342E-04
CGA:   8    -0.354351616228E+03   -0.19809E-04   -0.19807E-04 10584   0.306E-04-0.144E-05
CGA:   9    -0.354351625133E+03   -0.89052E-05   -0.92188E-05 10584   0.125E-04-0.413E-05
  35 F= -.35435163E+03 E0= -.35435163E+03  d E =-.152460E-02  mag=    18.0000
       N       E                     dE             d eps       ncg     rms          ort
SDA:   1    -0.354343194420E+03    0.84218E-02    0.00000E+00 10584   0.209E-01 0.000E+00
CGA:   2    -0.354348714265E+03   -0.55198E-02   -0.55133E-02 10584   0.111E-01 0.301E-03
CGA:   3    -0.354350732540E+03   -0.20183E-02   -0.20147E-02 10584   0.288E-02-0.565E-04
CGA:   4    -0.354351226252E+03   -0.49371E-03   -0.48980E-03 10584   0.648E-03-0.567E-04
CGA:   5    -0.354351335786E+03   -0.10953E-03   -0.11055E-03 10584   0.168E-03 0.160E-04
CGA:   6    -0.354351362644E+03   -0.26858E-04   -0.28812E-04 10584   0.442E-04 0.293E-04
CGA:   7    -0.354351370996E+03   -0.83528E-05   -0.91843E-05 10584   0.155E-04 0.156E-04
  36 F= -.35435137E+03 E0= -.35435137E+03  d E =0.254137E-03  mag=    18.0000
       N       E                     dE             d eps       ncg     rms          ort
SDA:   1    -0.354342769046E+03    0.85936E-02    0.00000E+00 10584   0.246E-01 0.000E+00
CGA:   2    -0.354348653302E+03   -0.58843E-02   -0.58856E-02 10584   0.138E-01-0.105E-03
CGA:   3    -0.354351155958E+03   -0.25027E-02   -0.25097E-02 10584   0.350E-02 0.157E-03
CGA:   4    -0.354351716843E+03   -0.56089E-03   -0.56791E-03 10584   0.715E-03 0.110E-03
CGA:   5    -0.354351840161E+03   -0.12332E-03   -0.12509E-03 10584   0.186E-03 0.343E-04
CGA:   6    -0.354351879730E+03   -0.39569E-04   -0.39651E-04 10584   0.551E-04 0.545E-05
CGA:   7    -0.354351891270E+03   -0.11540E-04   -0.11621E-04 10584   0.159E-04 0.628E-05
CGA:   8    -0.354351894076E+03   -0.28064E-05   -0.30815E-05 10584   0.524E-05 0.635E-05
  37 F= -.35435189E+03 E0= -.35435189E+03  d E =-.523080E-03  mag=    18.0000
       N       E                     dE             d eps       ncg     rms          ort
SDA:   1    -0.353799765525E+03    0.55213E+00    0.00000E+00 10584   0.143E+01 0.000E+00
CGA:   2    -0.354170431884E+03   -0.37067E+00   -0.37062E+00 10584   0.801E+00 0.529E-03
CGA:   3    -0.354311866387E+03   -0.14143E+00   -0.14148E+00 10584   0.190E+00 0.118E-02
CGA:   4    -0.354342895813E+03   -0.31029E-01   -0.31059E-01 10584   0.419E-01 0.599E-03
CGA:   5    -0.354350146840E+03   -0.72510E-02   -0.72597E-02 10584   0.111E-01 0.223E-03
CGA:   6    -0.354352403595E+03   -0.22568E-02   -0.22569E-02 10584   0.321E-02 0.241E-04
CGA:   7    -0.354353119825E+03   -0.71623E-03   -0.71573E-03 10584   0.104E-02 0.344E-04
CGA:   8    -0.354353373575E+03   -0.25375E-03   -0.25137E-03 10584   0.358E-03 0.757E-04
CGA:   9    -0.354353479513E+03   -0.10594E-03   -0.10379E-03 10584   0.128E-03 0.361E-04
CGA:  10    -0.354353517975E+03   -0.38462E-04   -0.37515E-04 10584   0.421E-04 0.182E-04
CGA:  11    -0.354353527020E+03   -0.90455E-05   -0.94094E-05 10584   0.131E-04 0.180E-04
  38 F= -.35435353E+03 E0= -.35435353E+03  d E =-.163294E-02  mag=    18.0000
       N       E                     dE             d eps       ncg     rms          ort
SDA:   1    -0.351447371498E+03    0.29061E+01    0.00000E+00 10584   0.699E+01 0.000E+00
CGA:   2    -0.353586168844E+03   -0.21388E+01   -0.21386E+01 10584   0.362E+01-0.355E-03
CGA:   3    -0.354175390564E+03   -0.58922E+00   -0.58940E+00 10584   0.764E+00 0.228E-02
CGA:   4    -0.354303691432E+03   -0.12830E+00   -0.12835E+00 10584   0.176E+00 0.100E-02
CGA:   5    -0.354334737458E+03   -0.31046E-01   -0.31057E-01 10584   0.480E-01 0.264E-03
CGA:   6    -0.354344462512E+03   -0.97251E-02   -0.97245E-02 10584   0.138E-01-0.752E-04
CGA:   7    -0.354347626759E+03   -0.31642E-02   -0.31634E-02 10584   0.486E-02 0.426E-04
CGA:   8    -0.354348913752E+03   -0.12870E-02   -0.12801E-02 10584   0.191E-02 0.134E-03
CGA:   9    -0.354349484851E+03   -0.57110E-03   -0.56858E-03 10584   0.717E-03 0.330E-04
CGA:  10    -0.354349687956E+03   -0.20310E-03   -0.20173E-03 10584   0.212E-03 0.233E-04
CGA:  11    -0.354349741318E+03   -0.53363E-04   -0.52705E-04 10584   0.488E-04 0.320E-04
CGA:  12    -0.354349760386E+03   -0.19067E-04   -0.21769E-04 10584   0.268E-04-0.163E-04
CGA:  13    -0.354349765904E+03   -0.55186E-05   -0.60195E-05 10584   0.126E-04-0.468E-05
  39 F= -.35434977E+03 E0= -.35434977E+03  d E =0.376112E-02  mag=    18.0000
       N       E                     dE             d eps       ncg     rms          ort
SDA:   1    -0.353832555893E+03    0.51720E+00    0.00000E+00 10584   0.147E+01 0.000E+00
CGA:   2    -0.354150980312E+03   -0.31842E+00   -0.31850E+00 10584   0.773E+00 0.384E-02
CGA:   3    -0.354304268869E+03   -0.15329E+00   -0.15327E+00 10584   0.228E+00-0.879E-03
CGA:   4    -0.354342066804E+03   -0.37798E-01   -0.37714E-01 10584   0.512E-01-0.128E-02
CGA:   5    -0.354350748417E+03   -0.86816E-02   -0.86679E-02 10584   0.134E-01-0.254E-03
CGA:   6    -0.354353405561E+03   -0.26571E-02   -0.26609E-02 10584   0.391E-02 0.155E-03
CGA:   7    -0.354354291271E+03   -0.88571E-03   -0.88564E-03 10584   0.127E-02 0.388E-04
CGA:   8    -0.354354614098E+03   -0.32283E-03   -0.32308E-03 10584   0.458E-03-0.869E-05
CGA:   9    -0.354354735369E+03   -0.12127E-03   -0.12056E-03 10584   0.155E-03 0.173E-04
CGA:  10    -0.354354783962E+03   -0.48593E-04   -0.49325E-04 10584   0.603E-04-0.918E-05
CGA:  11    -0.354354801719E+03   -0.17757E-04   -0.18534E-04 10584   0.224E-04-0.808E-05
CGA:  12    -0.354354803722E+03   -0.20033E-05   -0.28253E-05 10584   0.838E-05 0.918E-05
  40 F= -.35435480E+03 E0= -.35435480E+03  d E =-.503782E-02  mag=    18.0000
       N       E                     dE             d eps       ncg     rms          ort
SDA:   1    -0.354165140113E+03    0.18966E+00    0.00000E+00 10584   0.452E+00 0.000E+00
CGA:   2    -0.354307676276E+03   -0.14254E+00   -0.14249E+00 10584   0.224E+00 0.441E-03
CGA:   3    -0.354344449323E+03   -0.36773E-01   -0.36733E-01 10584   0.499E-01-0.710E-03
CGA:   4    -0.354353015356E+03   -0.85660E-02   -0.85452E-02 10584   0.117E-01-0.393E-03
CGA:   5    -0.354355088699E+03   -0.20733E-02   -0.20687E-02 10584   0.328E-02-0.107E-03
CGA:   6    -0.354355741552E+03   -0.65285E-03   -0.65297E-03 10584   0.963E-03 0.516E-05
CGA:   7    -0.354355978377E+03   -0.23683E-03   -0.23771E-03 10584   0.379E-03-0.330E-04
CGA:   8    -0.354356087984E+03   -0.10961E-03   -0.11734E-03 10584   0.217E-03-0.777E-04
CGA:   9    -0.354356135101E+03   -0.47117E-04   -0.48429E-04 10584   0.766E-04-0.239E-04
CGA:  10    -0.354356154828E+03   -0.19727E-04   -0.20716E-04 10584   0.266E-04-0.131E-04
CGA:  11    -0.354356108247E+03    0.46581E-04   -0.25264E-04 10584   0.300E-03-0.787E-04
CGA:  12    -0.354356154546E+03   -0.46299E-04   -0.51170E-04 10584   0.306E-04 0.453E-04
CGA:  13    -0.354356163819E+03   -0.92732E-05   -0.93164E-05 10584   0.812E-05 0.554E-05
CGA:  14    -0.354356114018E+03    0.49801E-04   -0.26829E-04 10584   0.215E-03-0.450E-04
CGA:  15    -0.354356148635E+03   -0.34617E-04   -0.44955E-04 10584   0.275E-04 0.359E-04
CGA:  16    -0.354356164946E+03   -0.16311E-04   -0.16801E-04 10584   0.125E-04-0.117E-04
CGA:  17    -0.354356165560E+03   -0.61405E-06   -0.12520E-05 10584   0.570E-05 0.206E-05
  41 F= -.35435617E+03 E0= -.35435617E+03  d E =-.136184E-02  mag=    18.0000
       N       E                     dE             d eps       ncg     rms          ort
SDA:   1    -0.354325340083E+03    0.30825E-01    0.00000E+00 10584   0.813E-01 0.000E+00
CGA:   2    -0.354346019779E+03   -0.20680E-01   -0.20686E-01 10584   0.456E-01-0.800E-05
CGA:   3    -0.354354186028E+03   -0.81662E-02   -0.81930E-02 10584   0.112E-01 0.836E-04
CGA:   4    -0.354356018540E+03   -0.18325E-02   -0.18466E-02 10584   0.248E-02 0.529E-04
CGA:   5    -0.354356439555E+03   -0.42102E-03   -0.43094E-03 10584   0.674E-03 0.403E-04
CGA:   6    -0.354356570551E+03   -0.13100E-03   -0.13668E-03 10584   0.195E-03 0.276E-04
CGA:   7    -0.354356614412E+03   -0.43861E-04   -0.45739E-04 10584   0.668E-04 0.111E-04
CGA:   8    -0.354356630664E+03   -0.16252E-04   -0.17189E-04 10584   0.242E-04 0.658E-05
CGA:   9    -0.354356636117E+03   -0.54531E-05   -0.62818E-05 10584   0.815E-05 0.582E-05
  42 F= -.35435664E+03 E0= -.35435664E+03  d E =-.470557E-03  mag=    18.0000
       N       E                     dE             d eps       ncg     rms          ort
SDA:   1    -0.354354283603E+03    0.23471E-02    0.00000E+00 10584   0.694E-02 0.000E+00
CGA:   2    -0.354356061114E+03   -0.17775E-02   -0.17740E-02 10584   0.392E-02-0.357E-04
CGA:   3    -0.354356775196E+03   -0.71408E-03   -0.70885E-03 10584   0.102E-02-0.314E-04
CGA:   4    -0.354356956677E+03   -0.18148E-03   -0.17688E-03 10584   0.246E-03-0.266E-04
CGA:   5    -0.354357005845E+03   -0.49168E-04   -0.45708E-04 10584   0.804E-04-0.233E-04
CGA:   6    -0.354357025476E+03   -0.19631E-04   -0.17963E-04 10584   0.374E-04-0.195E-04
CGA:   7    -0.354357033853E+03   -0.83767E-05   -0.78323E-05 10584   0.193E-04-0.106E-04
  43 F= -.35435703E+03 E0= -.35435703E+03  d E =-.397735E-03  mag=    18.0000
       N       E                     dE             d eps       ncg     rms          ort
SDA:   1    -0.354340684014E+03    0.16341E-01    0.00000E+00 10584   0.431E-01 0.000E+00
CGA:   2    -0.354351904015E+03   -0.11220E-01   -0.11219E-01 10584   0.255E-01-0.403E-04
CGA:   3    -0.354356283557E+03   -0.43795E-02   -0.43771E-02 10584   0.532E-02-0.307E-04
CGA:   4    -0.354357180146E+03   -0.89659E-03   -0.89225E-03 10584   0.121E-02-0.315E-04
CGA:   5    -0.354357395875E+03   -0.21573E-03   -0.21389E-03 10584   0.316E-03-0.149E-04
CGA:   6    -0.354357462728E+03   -0.66853E-04   -0.66244E-04 10584   0.930E-04-0.720E-05
CGA:   7    -0.354357485343E+03   -0.22615E-04   -0.22176E-04 10584   0.350E-04-0.885E-05
CGA:   8    -0.354357495430E+03   -0.10087E-04   -0.10441E-04 10584   0.202E-04-0.926E-05
CGA:   9    -0.354357499863E+03   -0.44329E-05   -0.44616E-05 10584   0.798E-05-0.396E-05
  44 F= -.35435750E+03 E0= -.35435750E+03  d E =-.466010E-03  mag=    18.0000
       N       E                     dE             d eps       ncg     rms          ort
SDA:   1    -0.354289330381E+03    0.68165E-01    0.00000E+00 10584   0.169E+00 0.000E+00
CGA:   2    -0.354337598156E+03   -0.48268E-01   -0.48270E-01 10584   0.964E-01 0.108E-03
CGA:   3    -0.354353324803E+03   -0.15727E-01   -0.15731E-01 10584   0.190E-01-0.186E-04
CGA:   4    -0.354356575482E+03   -0.32507E-02   -0.32434E-02 10584   0.446E-02-0.646E-04
CGA:   5    -0.354357351942E+03   -0.77646E-03   -0.77505E-03 10584   0.116E-02-0.142E-04
CGA:   6    -0.354357586725E+03   -0.23478E-03   -0.23537E-03 10584   0.321E-03 0.764E-05
CGA:   7    -0.354357660636E+03   -0.73910E-04   -0.73875E-04 10584   0.109E-03-0.875E-06
CGA:   8    -0.354357692090E+03   -0.31454E-04   -0.31608E-04 10584   0.498E-04-0.851E-05
CGA:   9    -0.354357704864E+03   -0.12774E-04   -0.12779E-04 10584   0.177E-04-0.897E-06
CGA:  10    -0.354357709212E+03   -0.43481E-05   -0.43771E-05 10584   0.465E-05 0.133E-05
  45 F= -.35435771E+03 E0= -.35435771E+03  d E =-.209349E-03  mag=    18.0000
       N       E                     dE             d eps       ncg     rms          ort
SDA:   1    -0.334085542123E+03    0.20272E+02    0.00000E+00 10584   0.488E+02 0.000E+00
CGA:   2    -0.349189636463E+03   -0.15104E+02   -0.15100E+02 10584   0.246E+02 0.629E-01
CGA:   3    -0.353133859013E+03   -0.39442E+01   -0.39532E+01 10584   0.493E+01 0.724E-01
CGA:   4    -0.353995189143E+03   -0.86133E+00   -0.86125E+00 10584   0.120E+01 0.214E-03
CGA:   5    -0.354210246466E+03   -0.21506E+00   -0.21521E+00 10584   0.340E+00 0.737E-03
CGA:   6    -0.354280689433E+03   -0.70443E-01   -0.70517E-01 10584   0.103E+00 0.120E-02
CGA:   7    -0.354305534742E+03   -0.24845E-01   -0.24846E-01 10584   0.397E-01 0.269E-05
CGA:   8    -0.354316670127E+03   -0.11135E-01   -0.11143E-01 10584   0.167E-01-0.305E-03
CGA:   9    -0.354321433478E+03   -0.47634E-02   -0.47616E-02 10584   0.585E-02 0.555E-04
CGA:  10    -0.354323046337E+03   -0.16129E-02   -0.16132E-02 10584   0.165E-02-0.197E-04
CGA:  11    -0.354323501058E+03   -0.45472E-03   -0.45528E-03 10584   0.400E-03-0.317E-04
CGA:  12    -0.354323609560E+03   -0.10850E-03   -0.10811E-03 10584   0.984E-04 0.256E-04
CGA:  13    -0.354323644936E+03   -0.35376E-04   -0.35243E-04 10584   0.359E-04 0.169E-05
CGA:  14    -0.354323655643E+03   -0.10707E-04   -0.10493E-04 10584   0.129E-04 0.953E-05
CGA:  15    -0.354323657688E+03   -0.20454E-05   -0.28747E-05 10584   0.620E-05 0.919E-05
  46 F= -.35432366E+03 E0= -.35432366E+03  d E =0.340515E-01  mag=    18.0000
       N       E                     dE             d eps       ncg     rms          ort
SDA:   1    -0.351503349039E+03    0.28203E+01    0.00000E+00 10584   0.717E+01 0.000E+00
CGA:   2    -0.353390415913E+03   -0.18871E+01   -0.18870E+01 10584   0.417E+01 0.829E-02
CGA:   3    -0.354123163278E+03   -0.73275E+00   -0.73288E+00 10584   0.944E+00 0.190E-03
CGA:   4    -0.354281352898E+03   -0.15819E+00   -0.15806E+00 10584   0.215E+00-0.144E-02
CGA:   5    -0.354319649823E+03   -0.38297E-01   -0.38250E-01 10584   0.602E-01-0.728E-03
CGA:   6    -0.354332102646E+03   -0.12453E-01   -0.12439E-01 10584   0.182E-01-0.363E-03
CGA:   7    -0.354336392677E+03   -0.42900E-02   -0.42885E-02 10584   0.665E-02-0.227E-03
CGA:   8    -0.354338126489E+03   -0.17338E-02   -0.17357E-02 10584   0.254E-02-0.974E-04
CGA:   9    -0.354338868197E+03   -0.74171E-03   -0.74817E-03 10584   0.974E-03-0.120E-03
CGA:  10    -0.354339147983E+03   -0.27979E-03   -0.28943E-03 10584   0.373E-03-0.151E-03
CGA:  11    -0.354339239429E+03   -0.91446E-04   -0.94063E-04 10584   0.107E-03-0.557E-04
CGA:  12    -0.354339267247E+03   -0.27817E-04   -0.28453E-04 10584   0.312E-04-0.107E-04
CGA:  13    -0.354339277106E+03   -0.98594E-05   -0.10227E-04 10584   0.127E-04-0.341E-05
  47 F= -.35433928E+03 E0= -.35433928E+03  d E =-.156194E-01  mag=    18.0000
       N       E                     dE             d eps       ncg     rms          ort
SDA:   1    -0.345667258431E+03    0.86720E+01    0.00000E+00 10584   0.209E+02 0.000E+00
CGA:   2    -0.352129234702E+03   -0.64620E+01   -0.64608E+01 10584   0.107E+02 0.246E-01
CGA:   3    -0.353842526462E+03   -0.17133E+01   -0.17144E+01 10584   0.213E+01 0.214E-01
CGA:   4    -0.354213979076E+03   -0.37145E+00   -0.37135E+00 10584   0.507E+00 0.106E-02
CGA:   5    -0.354304272595E+03   -0.90294E-01   -0.90359E-01 10584   0.139E+00 0.453E-03
CGA:   6    -0.354332816571E+03   -0.28544E-01   -0.28560E-01 10584   0.408E-01 0.198E-03
CGA:   7    -0.354342429635E+03   -0.96131E-02   -0.96120E-02 10584   0.150E-01-0.463E-04
CGA:   8    -0.354346565047E+03   -0.41354E-02   -0.41345E-02 10584   0.610E-02 0.779E-04
CGA:   9    -0.354348346382E+03   -0.17813E-02   -0.17806E-02 10584   0.220E-02 0.278E-04
CGA:  10    -0.354348981387E+03   -0.63501E-03   -0.63690E-03 10584   0.668E-03-0.895E-04
CGA:  11    -0.354349156891E+03   -0.17550E-03   -0.17559E-03 10584   0.159E-03-0.138E-04
CGA:  12    -0.354349201074E+03   -0.44182E-04   -0.44095E-04 10584   0.398E-04 0.580E-05
CGA:  13    -0.354349214904E+03   -0.13830E-04   -0.13761E-04 10584   0.142E-04 0.104E-05
CGA:  14    -0.354349217876E+03   -0.29718E-05   -0.32692E-05 10584   0.550E-05 0.622E-05
  48 F= -.35434922E+03 E0= -.35434922E+03  d E =-.994077E-02  mag=    18.0000
       N       E                     dE             d eps       ncg     rms          ort
SDA:   1    -0.353689753395E+03    0.65946E+00    0.00000E+00 10584   0.168E+01 0.000E+00
CGA:   2    -0.354116313917E+03   -0.42656E+00   -0.42656E+00 10584   0.917E+00-0.509E-03
CGA:   3    -0.354285219479E+03   -0.16891E+00   -0.16891E+00 10584   0.251E+00-0.308E-03
CGA:   4    -0.354327976811E+03   -0.42757E-01   -0.42741E-01 10584   0.587E-01-0.213E-03
CGA:   5    -0.354338500032E+03   -0.10523E-01   -0.10504E-01 10584   0.171E-01-0.265E-03
CGA:   6    -0.354342088248E+03   -0.35882E-02   -0.35783E-02 10584   0.558E-02-0.243E-03
CGA:   7    -0.354343456960E+03   -0.13687E-02   -0.13687E-02 10584   0.229E-02-0.144E-03
CGA:   8    -0.354344038389E+03   -0.58143E-03   -0.58233E-03 10584   0.845E-03-0.775E-04
CGA:   9    -0.354344273954E+03   -0.23557E-03   -0.23723E-03 10584   0.310E-03-0.408E-04
CGA:  10    -0.354344358225E+03   -0.84271E-04   -0.85356E-04 10584   0.105E-03-0.288E-04
CGA:  11    -0.354344389514E+03   -0.31289E-04   -0.38062E-04 10584   0.620E-04-0.462E-04
CGA:  12    -0.354344398117E+03   -0.86031E-05   -0.16902E-04 10584   0.557E-04-0.367E-04
CGA:  13    -0.354344408565E+03   -0.10448E-04   -0.11160E-04 10584   0.105E-04 0.987E-05
CGA:  14    -0.354344412555E+03   -0.39899E-05   -0.38874E-05 10584   0.326E-05 0.230E-05
  49 F= -.35434441E+03 E0= -.35434441E+03  d E =0.480532E-02  mag=    18.0000
       N       E                     dE             d eps       ncg     rms          ort
SDA:   1    -0.353592626818E+03    0.75178E+00    0.00000E+00 10584   0.182E+01 0.000E+00
CGA:   2    -0.354190503223E+03   -0.59788E+00   -0.59779E+00 10584   0.751E+00 0.115E-02
CGA:   3    -0.354316177720E+03   -0.12567E+00   -0.12567E+00 10584   0.180E+00-0.380E-03
CGA:   4    -0.354347011528E+03   -0.30834E-01   -0.30818E-01 10584   0.415E-01-0.176E-03
CGA:   5    -0.354354643726E+03   -0.76322E-02   -0.76529E-02 10584   0.120E-01 0.257E-03
CGA:   6    -0.354357014630E+03   -0.23709E-02   -0.23861E-02 10584   0.351E-02 0.242E-03
CGA:   7    -0.354357894909E+03   -0.88028E-03   -0.88104E-03 10584   0.135E-02 0.727E-04
CGA:   8    -0.354358269774E+03   -0.37487E-03   -0.37449E-03 10584   0.563E-03 0.245E-04
CGA:   9    -0.354358430229E+03   -0.16045E-03   -0.15973E-03 10584   0.189E-03 0.332E-04
CGA:  10    -0.354358482608E+03   -0.52379E-04   -0.52322E-04 10584   0.537E-04 0.179E-04
CGA:  11    -0.354358495237E+03   -0.12629E-04   -0.13103E-04 10584   0.132E-04 0.134E-04
CGA:  12    -0.354358497520E+03   -0.22828E-05   -0.28826E-05 10584   0.486E-05 0.737E-05
  50 F= -.35435850E+03 E0= -.35435850E+03  d E =-.140850E-01  mag=    18.0000
       N       E                     dE             d eps       ncg     rms          ort
SDA:   1    -0.354324645724E+03    0.33850E-01    0.00000E+00 10584   0.791E-01 0.000E+00
CGA:   2    -0.354350928274E+03   -0.26283E-01   -0.26283E-01 10584   0.365E-01-0.196E-04
CGA:   3    -0.354356642583E+03   -0.57143E-02   -0.57219E-02 10584   0.752E-02 0.574E-04
CGA:   4    -0.354357939937E+03   -0.12974E-02   -0.12972E-02 10584   0.175E-02-0.272E-05
CGA:   5    -0.354358251821E+03   -0.31188E-03   -0.31200E-03 10584   0.485E-03 0.118E-05
CGA:   6    -0.354358346365E+03   -0.94543E-04   -0.95018E-04 10584   0.129E-03 0.958E-05
CGA:   7    -0.354358375708E+03   -0.29343E-04   -0.29476E-04 10584   0.436E-04 0.723E-05
CGA:   8    -0.354358389007E+03   -0.13299E-04   -0.13307E-04 10584   0.203E-04-0.174E-06
CGA:   9    -0.354358394868E+03   -0.58607E-05   -0.58487E-05 10584   0.778E-05 0.264E-06
  51 F= -.35435839E+03 E0= -.35435839E+03  d E =0.102652E-03  mag=    18.0000
       N       E                     dE             d eps       ncg     rms          ort
SDA:   1    -0.353463351990E+03    0.89504E+00    0.00000E+00 10584   0.207E+01 0.000E+00
CGA:   2    -0.354179338121E+03   -0.71599E+00   -0.71602E+00 10584   0.829E+00-0.558E-03
CGA:   3    -0.354313177924E+03   -0.13384E+00   -0.13393E+00 10584   0.182E+00 0.664E-03
CGA:   4    -0.354344253633E+03   -0.31076E-01   -0.31085E-01 10584   0.418E-01 0.107E-03
CGA:   5    -0.354351908175E+03   -0.76545E-02   -0.76605E-02 10584   0.119E-01 0.946E-04
CGA:   6    -0.354354227949E+03   -0.23198E-02   -0.23244E-02 10584   0.326E-02 0.107E-03
CGA:   7    -0.354354996227E+03   -0.76828E-03   -0.76842E-03 10584   0.118E-02 0.713E-04
CGA:   8    -0.354355331645E+03   -0.33542E-03   -0.33483E-03 10584   0.512E-03 0.136E-04
CGA:   9    -0.354355484296E+03   -0.15265E-03   -0.15254E-03 10584   0.192E-03 0.193E-05
CGA:  10    -0.354355532351E+03   -0.48054E-04   -0.47891E-04 10584   0.491E-04 0.216E-04
CGA:  11    -0.354355543904E+03   -0.11553E-04   -0.11846E-04 10584   0.114E-04 0.122E-04
CGA:  12    -0.354355547334E+03   -0.34299E-05   -0.34252E-05 10584   0.335E-05 0.267E-05
  52 F= -.35435555E+03 E0= -.35435555E+03  d E =0.284753E-02  mag=    18.0000
       N       E                     dE             d eps       ncg     rms          ort
SDA:   1    -0.354221129426E+03    0.13441E+00    0.00000E+00 10584   0.342E+00 0.000E+00
CGA:   2    -0.354314397752E+03   -0.93268E-01   -0.93258E-01 10584   0.196E+00 0.173E-03
CGA:   3    -0.354347749309E+03   -0.33352E-01   -0.33348E-01 10584   0.428E-01-0.114E-03
CGA:   4    -0.354354966026E+03   -0.72167E-02   -0.72102E-02 10584   0.981E-02-0.983E-04
CGA:   5    -0.354356708180E+03   -0.17422E-02   -0.17370E-02 10584   0.268E-02-0.907E-04
CGA:   6    -0.354357264358E+03   -0.55618E-03   -0.55452E-03 10584   0.811E-03-0.689E-04
CGA:   7    -0.354357449164E+03   -0.18481E-03   -0.18487E-03 10584   0.287E-03-0.275E-04
CGA:   8    -0.354357522081E+03   -0.72917E-04   -0.73195E-04 10584   0.110E-03-0.852E-05
CGA:   9    -0.354357555794E+03   -0.33713E-04   -0.36069E-04 10584   0.550E-04-0.223E-04
CGA:  10    -0.354357568956E+03   -0.13162E-04   -0.16206E-04 10584   0.330E-04-0.232E-04
CGA:  11    -0.354357574187E+03   -0.52315E-05   -0.56199E-05 10584   0.118E-04-0.792E-05
  53 F= -.35435757E+03 E0= -.35435757E+03  d E =-.202685E-02  mag=    18.0000
       N       E                     dE             d eps       ncg     rms          ort
SDA:   1    -0.354264281054E+03    0.93288E-01    0.00000E+00 10584   0.226E+00 0.000E+00
CGA:   2    -0.354333437043E+03   -0.69156E-01   -0.69151E-01 10584   0.116E+00 0.238E-04
CGA:   3    -0.354352105843E+03   -0.18669E-01   -0.18663E-01 10584   0.241E-01-0.107E-03
CGA:   4    -0.354356270262E+03   -0.41644E-02   -0.41649E-02 10584   0.561E-02 0.414E-05
CGA:   5    -0.354357274691E+03   -0.10044E-02   -0.10026E-02 10584   0.154E-02-0.294E-04
CGA:   6    -0.354357590194E+03   -0.31550E-03   -0.31406E-03 10584   0.461E-03-0.389E-04
CGA:   7    -0.354357694894E+03   -0.10470E-03   -0.10463E-03 10584   0.162E-03-0.102E-04
CGA:   8    -0.354357735863E+03   -0.40968E-04   -0.40865E-04 10584   0.597E-04 0.583E-05
CGA:   9    -0.354357755065E+03   -0.19202E-04   -0.19466E-04 10584   0.252E-04-0.356E-05
CGA:  10    -0.354357762756E+03   -0.76913E-05   -0.97585E-05 10584   0.189E-04-0.123E-04
  54 F= -.35435776E+03 E0= -.35435776E+03  d E =-.188569E-03  mag=    18.0000
       N       E                     dE             d eps       ncg     rms          ort
SDA:   1    -0.354328405251E+03    0.29350E-01    0.00000E+00 10584   0.696E-01 0.000E+00
CGA:   2    -0.354351266031E+03   -0.22861E-01   -0.22860E-01 10584   0.312E-01 0.188E-05
CGA:   3    -0.354356284419E+03   -0.50184E-02   -0.50234E-02 10584   0.692E-02 0.420E-04
CGA:   4    -0.354357459486E+03   -0.11751E-02   -0.11745E-02 10584   0.160E-02-0.708E-05
CGA:   5    -0.354357745604E+03   -0.28612E-03   -0.28717E-03 10584   0.458E-03 0.149E-04
CGA:   6    -0.354357832225E+03   -0.86621E-04   -0.87797E-04 10584   0.121E-03 0.212E-04
CGA:   7    -0.354357861263E+03   -0.29037E-04   -0.29152E-04 10584   0.424E-04 0.881E-05
CGA:   8    -0.354357874406E+03   -0.13143E-04   -0.13173E-04 10584   0.206E-04-0.624E-06
CGA:   9    -0.354357879757E+03   -0.53510E-05   -0.53229E-05 10584   0.698E-05 0.158E-05
  55 F= -.35435788E+03 E0= -.35435788E+03  d E =-.117001E-03  mag=    18.0000
       N       E                     dE             d eps       ncg     rms          ort
SDA:   1    -0.354332333810E+03    0.25541E-01    0.00000E+00 10584   0.592E-01 0.000E+00
CGA:   2    -0.354352368727E+03   -0.20035E-01   -0.20021E-01 10584   0.247E-01 0.142E-03
CGA:   3    -0.354356393119E+03   -0.40244E-02   -0.40213E-02 10584   0.549E-02-0.402E-04
CGA:   4    -0.354357321789E+03   -0.92867E-03   -0.92620E-03 10584   0.125E-02-0.340E-04
CGA:   5    -0.354357541255E+03   -0.21947E-03   -0.22065E-03 10584   0.350E-03 0.190E-04
CGA:   6    -0.354357604606E+03   -0.63351E-04   -0.64768E-04 10584   0.880E-04 0.265E-04
CGA:   7    -0.354357625777E+03   -0.21171E-04   -0.21242E-04 10584   0.312E-04 0.791E-05
CGA:   8    -0.354357635976E+03   -0.10199E-04   -0.10320E-04 10584   0.172E-04-0.170E-05
CGA:   9    -0.354357639781E+03   -0.38048E-05   -0.38087E-05 10584   0.576E-05 0.234E-05
  56 F= -.35435764E+03 E0= -.35435764E+03  d E =0.239976E-03  mag=    18.0000
