       N       E                     dE             d eps       ncg     rms          ort
DAV:   1     0.266500490440E+04    0.26650E+04   -0.13930E+05  6048   0.161E+03
DAV:   2     0.493627938129E+02   -0.26156E+04   -0.24068E+04  6048   0.413E+02
DAV:   3    -0.257270799091E+03   -0.30663E+03   -0.30205E+03  6048   0.161E+02
DAV:   4    -0.268111122534E+03   -0.10840E+02   -0.10596E+02  6048   0.302E+01
DAV:   5    -0.268559099449E+03   -0.44798E+00   -0.44200E+00  6048   0.481E+00
SDA:   6    -0.129330559617E+03    0.13923E+03   -0.44200E+00  6048   0.666E+03 0.000E+00
CGA:   7    -0.180915468025E+03   -0.51585E+02   -0.75180E+02  6048   0.399E+03 0.237E+02
CGA:   8    -0.199874703947E+03   -0.18959E+02   -0.10385E+02  6048   0.678E+03-0.249E+03
CGA:   9    -0.209763196472E+03   -0.98885E+01   -0.47752E+02  6048   0.296E+03-0.222E+03
CGA:  10    -0.201003312045E+03    0.87599E+01   -0.18160E+02  6048   0.346E+03-0.205E+02
CGA:  11    -0.216787439955E+03   -0.15784E+02   -0.61995E+01  6048   0.220E+03 0.363E+03
CGA:  12    -0.215254240654E+03    0.15332E+01   -0.86731E+01  6048   0.528E+03-0.276E+03
CGA:  13    -0.217188011515E+03   -0.19338E+01   -0.29790E+02  6048   0.155E+03-0.629E+02
CGA:  14    -0.211556941643E+03    0.56311E+01   -0.74676E+01  6048   0.635E+03-0.541E+02
CGA:  15    -0.205462816276E+03    0.60941E+01   -0.18538E+02  6048   0.247E+03-0.169E+03
CGA:  16    -0.210617890039E+03   -0.51551E+01   -0.24302E+01  6048   0.219E+03 0.207E+03
CGA:  17    -0.218918844804E+03   -0.83010E+01   -0.45474E+01  6048   0.113E+03 0.166E+03
CGA:  18    -0.222402275972E+03   -0.34834E+01   -0.19649E+01  6048   0.671E+02 0.903E+02
CGA:  19    -0.225151580522E+03   -0.27493E+01   -0.15635E+01  6048   0.286E+02 0.465E+02
CGA:  20    -0.226802563933E+03   -0.16510E+01   -0.13255E+01  6048   0.368E+01 0.785E+01
CGA:  21    -0.227043759369E+03   -0.24120E+00   -0.18171E+00  6048   0.142E+01 0.119E+01
CGA:  22    -0.227231546479E+03   -0.18779E+00   -0.18342E+00  6048   0.479E+01-0.748E-01
CGA:  23    -0.227453936949E+03   -0.22239E+00   -0.19015E+00  6048   0.883E+01 0.773E+00
CGA:  24    -0.227643705153E+03   -0.18977E+00   -0.31260E+00  6048   0.654E+01-0.477E+01
CGA:  25    -0.227925334841E+03   -0.28163E+00   -0.27605E+00  6048   0.954E+00 0.131E+00
CGA:  26    -0.228070827544E+03   -0.14549E+00   -0.14569E+00  6048   0.752E+00-0.325E-02
CGA:  27    -0.228103424382E+03   -0.32597E-01   -0.27487E-01  6048   0.128E+00 0.103E+00
CGA:  28    -0.228122932059E+03   -0.19508E-01   -0.20037E-01  6048   0.419E+00-0.116E-01
CGA:  29    -0.228144405212E+03   -0.21473E-01   -0.21206E-01  6048   0.342E+00 0.173E-02
CGA:  30    -0.228157507972E+03   -0.13103E-01   -0.15250E-01  6048   0.189E+00-0.291E-01
CGA:  31    -0.228165696537E+03   -0.81886E-02   -0.83439E-02  6048   0.152E+00-0.782E-03
CGA:  32    -0.228182683319E+03   -0.16987E-01   -0.17366E-01  6048   0.358E+00-0.132E-01
CGA:  33    -0.228195686366E+03   -0.13003E-01   -0.12910E-01  6048   0.162E+00 0.437E-02
CGA:  34    -0.228200551813E+03   -0.48654E-02   -0.50380E-02  6048   0.823E-01-0.345E-02
CGA:  35    -0.228207593132E+03   -0.70413E-02   -0.70518E-02  6048   0.202E+00 0.145E-02
CGA:  36    -0.228221012164E+03   -0.13419E-01   -0.12752E-01  6048   0.151E+00 0.124E-02
CGA:  37    -0.228225929633E+03   -0.49175E-02   -0.44588E-02  6048   0.706E-01 0.131E-01
CGA:  38    -0.228229322316E+03   -0.33927E-02   -0.34747E-02  6048   0.827E-01-0.663E-03
CGA:  39    -0.228235198659E+03   -0.58763E-02   -0.58499E-02  6048   0.159E+00-0.633E-03
CGA:  40    -0.228242291121E+03   -0.70925E-02   -0.71276E-02  6048   0.161E+00-0.293E-02
CGA:  41    -0.228247189407E+03   -0.48983E-02   -0.42805E-02  6048   0.970E-01 0.181E-01
CGA:  42    -0.228249876149E+03   -0.26867E-02   -0.23783E-02  6048   0.528E-01 0.116E-01
CGA:  43    -0.228251366085E+03   -0.14899E-02   -0.14554E-02  6048   0.398E-01 0.110E-02
CGA:  44    -0.228252780711E+03   -0.14146E-02   -0.13995E-02  6048   0.683E-01 0.205E-03
CGA:  45    -0.228256042024E+03   -0.32613E-02   -0.33278E-02  6048   0.155E+00-0.249E-03
CGA:  46    -0.228259866616E+03   -0.38246E-02   -0.29047E-02  6048   0.857E-01 0.451E-01
CGA:  47    -0.228261711534E+03   -0.18449E-02   -0.15263E-02  6048   0.343E-01 0.204E-01
CGA:  48    -0.228262694004E+03   -0.98247E-03   -0.91285E-03  6048   0.372E-01 0.246E-02
CGA:  49    -0.228263574409E+03   -0.88041E-03   -0.81856E-03  6048   0.428E-01 0.238E-02
CGA:  50    -0.228264355722E+03   -0.78131E-03   -0.75191E-03  6048   0.382E-01 0.147E-02
CGA:  51    -0.228265129049E+03   -0.77333E-03   -0.77508E-03  6048   0.554E-01-0.146E-03
CGA:  52    -0.228266672446E+03   -0.15434E-02   -0.15989E-02  6048   0.126E+00-0.902E-03
CGA:  53    -0.228268445393E+03   -0.17729E-02   -0.11314E-02  6048   0.115E+00 0.673E-01
CGA:  54    -0.228271344602E+03   -0.28992E-02   -0.28839E-02  6048   0.193E-01 0.325E-03
CGA:  55    -0.228272580855E+03   -0.12363E-02   -0.12352E-02  6048   0.250E-01 0.684E-04
CGA:  56    -0.228275858867E+03   -0.32780E-02   -0.32602E-02  6048   0.457E-01 0.132E-03
CGA:  57    -0.228280697657E+03   -0.48388E-02   -0.46709E-02  6048   0.734E-02 0.338E-02
CGA:  58    -0.228281932249E+03   -0.12346E-02   -0.12296E-02  6048   0.143E-01 0.507E-04
CGA:  59    -0.228282694929E+03   -0.76268E-03   -0.75522E-03  6048   0.103E-01-0.193E-03
CGA:  60    -0.228283180070E+03   -0.48514E-03   -0.48697E-03  6048   0.596E-02 0.266E-04
CGA:  61    -0.228283477573E+03   -0.29750E-03   -0.29647E-03  6048   0.467E-02-0.242E-04
CGA:  62    -0.228284183191E+03   -0.70562E-03   -0.72395E-03  6048   0.297E-02-0.220E-03
CGA:  63    -0.228284257987E+03   -0.74796E-04   -0.74685E-04  6048   0.127E-02-0.650E-05
CGA:  64    -0.228284424323E+03   -0.16634E-03   -0.16976E-03  6048   0.273E-02-0.497E-04
CGA:  65    -0.228284655090E+03   -0.23077E-03   -0.23727E-03  6048   0.495E-02-0.238E-03
CGA:  66    -0.228284815128E+03   -0.16004E-03   -0.14542E-03  6048   0.164E-02 0.231E-03
CGA:  67    -0.228284857338E+03   -0.42210E-04   -0.41033E-04  6048   0.765E-03 0.287E-04
CGA:  68    -0.228284911162E+03   -0.53824E-04   -0.53941E-04  6048   0.241E-02-0.141E-04
CGA:  69    -0.228285022403E+03   -0.11124E-03   -0.11041E-03  6048   0.222E-02 0.115E-05
CGA:  70    -0.228285068712E+03   -0.46309E-04   -0.46426E-04  6048   0.944E-03 0.766E-05
CGA:  71    -0.228285103303E+03   -0.34591E-04   -0.34279E-04  6048   0.898E-03 0.818E-05
CGA:  72    -0.228285126897E+03   -0.23594E-04   -0.23076E-04  6048   0.620E-03 0.207E-04
CGA:  73    -0.228285159454E+03   -0.32557E-04   -0.32443E-04  6048   0.166E-02-0.445E-06
CGA:  74    -0.228285229684E+03   -0.70230E-04   -0.68648E-04  6048   0.221E-02 0.126E-04
CGA:  75    -0.228285269037E+03   -0.39352E-04   -0.37350E-04  6048   0.819E-03 0.131E-03
CGA:  76    -0.228285283692E+03   -0.14656E-04   -0.14611E-04  6048   0.456E-03 0.912E-05
CGA:  77    -0.228285298113E+03   -0.14421E-04   -0.14370E-04  6048   0.804E-03 0.162E-05
CGA:  78    -0.228285324103E+03   -0.25989E-04   -0.25406E-04  6048   0.117E-02 0.572E-05
CGA:  79    -0.228285348655E+03   -0.24553E-04   -0.23056E-04  6048   0.111E-02 0.534E-04
CGA:  80    -0.228285373805E+03   -0.25149E-04   -0.23919E-04  6048   0.127E-02 0.366E-04
CGA:  81    -0.228285396198E+03   -0.22394E-04   -0.21217E-04  6048   0.877E-03 0.497E-04
CGA:  82    -0.228285407360E+03   -0.11162E-04   -0.10889E-04  6048   0.391E-03 0.132E-04
CGA:  83    -0.228285413198E+03   -0.58377E-05   -0.57766E-05  6048   0.367E-03-0.302E-06
   1 F= -.22828541E+03 E0= -.22828059E+03  d E =-.228285E+03  mag=    18.0000
