       N       E                     dE             d eps       ncg     rms          ort
DAV:   1     0.273976132144E+04    0.27398E+04   -0.14594E+05  7392   0.164E+03
DAV:   2    -0.112094101750E+03   -0.28519E+04   -0.26471E+04  7392   0.430E+02
DAV:   3    -0.452633042299E+03   -0.34054E+03   -0.33415E+03  7392   0.169E+02
DAV:   4    -0.467565451077E+03   -0.14932E+02   -0.14480E+02  7392   0.326E+01
DAV:   5    -0.468509294427E+03   -0.94384E+00   -0.93035E+00  7392   0.598E+00
SDA:   6    -0.247990694203E+03    0.22052E+03   -0.93035E+00  7392   0.596E+03 0.000E+00
CGA:   7    -0.336951055010E+03   -0.88960E+02   -0.73014E+02  7392   0.189E+03-0.966E+02
CGA:   8    -0.336599821699E+03    0.35123E+00   -0.14076E+02  7392   0.337E+03-0.245E+02
CGA:   9    -0.342826069615E+03   -0.62262E+01   -0.14568E+02  7392   0.432E+03-0.301E+03
CGA:  10    -0.336583474374E+03    0.62426E+01   -0.30488E+02  7392   0.471E+03-0.246E+03
CGA:  11    -0.333125066719E+03    0.34584E+01   -0.30778E+02  7392   0.733E+03-0.592E+03
CGA:  12    -0.329865876664E+03    0.32592E+01   -0.52103E+02  7392   0.485E+03-0.248E+03
CGA:  13    -0.340764346676E+03   -0.10898E+02   -0.22386E+02  7392   0.727E+03 0.324E+03
CGA:  14    -0.322601093346E+03    0.18163E+02   -0.47601E+02  7392   0.636E+03 0.626E+01
CGA:  15    -0.328637917043E+03   -0.60368E+01   -0.36460E+02  7392   0.980E+03 0.267E+03
CGA:  16    -0.326918191158E+03    0.17197E+01   -0.83419E+02  7392   0.601E+03-0.412E+02
CGA:  17    -0.331468983754E+03   -0.45508E+01   -0.33760E+02  7392   0.517E+03-0.433E+03
CGA:  18    -0.337870184862E+03   -0.64012E+01   -0.31827E+02  7392   0.139E+03-0.130E+03
CGA:  19    -0.345341055856E+03   -0.74709E+01   -0.28590E+01  7392   0.351E+03 0.371E+03
CGA:  20    -0.339405467395E+03    0.59356E+01   -0.13375E+02  7392   0.336E+03-0.285E+03
CGA:  21    -0.340311562783E+03   -0.90610E+00   -0.17402E+02  7392   0.128E+03-0.104E+03
CGA:  22    -0.346269040910E+03   -0.59575E+01   -0.23716E+01  7392   0.465E+03 0.483E+03
CGA:  23    -0.332479802661E+03    0.13789E+02   -0.20111E+02  7392   0.434E+03-0.316E+03
CGA:  24    -0.340497968087E+03   -0.80182E+01   -0.21331E+02  7392   0.179E+03-0.149E+03
CGA:  25    -0.346469262495E+03   -0.59713E+01   -0.32564E+01  7392   0.551E+03 0.584E+03
CGA:  26    -0.332431202941E+03    0.14038E+02   -0.21959E+02  7392   0.515E+03-0.375E+03
CGA:  27    -0.340181767373E+03   -0.77506E+01   -0.22286E+02  7392   0.293E+03-0.231E+03
CGA:  28    -0.357049634427E+03   -0.16868E+02   -0.48682E+01  7392   0.247E+03 0.599E+03
CGA:  29    -0.352945999955E+03    0.41036E+01   -0.66295E+01  7392   0.807E+03-0.431E+03
CGA:  30    -0.341464988298E+03    0.11481E+02   -0.33129E+02  7392   0.214E+03-0.703E+02
CGA:  31    -0.356837964276E+03   -0.15373E+02   -0.47269E+01  7392   0.358E+03-0.608E+03
CGA:  32    -0.347765753470E+03    0.90722E+01   -0.10917E+02  7392   0.777E+03-0.399E+03
CGA:  33    -0.347711652860E+03    0.54101E-01   -0.29218E+02  7392   0.389E+03-0.175E+03
CGA:  34    -0.348142162298E+03   -0.43051E+00   -0.10307E+02  7392   0.581E+03-0.592E+03
CGA:  35    -0.337123703863E+03    0.11018E+02   -0.16518E+02  7392   0.160E+03-0.109E+03
CGA:  36    -0.343692539157E+03   -0.65688E+01   -0.36108E+01  7392   0.236E+03-0.191E+03
CGA:  37    -0.356541297844E+03   -0.12849E+02   -0.44991E+01  7392   0.735E+03-0.134E+04
CGA:  38    -0.343210887529E+03    0.13330E+02   -0.22370E+02  7392   0.264E+03-0.150E+03
CGA:  39    -0.354646309238E+03   -0.11435E+02   -0.36066E+01  7392   0.109E+04-0.164E+04
CGA:  40    -0.343628675729E+03    0.11018E+02   -0.33283E+02  7392   0.244E+03-0.110E+03
CGA:  41    -0.361051466822E+03   -0.17423E+02   -0.36766E+01  7392   0.106E+03-0.464E+03
CGA:  42    -0.361067174708E+03   -0.15708E-01   -0.17178E+01  7392   0.137E+03-0.784E+02
CGA:  43    -0.361056939358E+03    0.10235E-01   -0.19740E+01  7392   0.147E+03-0.124E+03
CGA:  44    -0.361151461033E+03   -0.94522E-01   -0.23132E+01  7392   0.119E+03-0.103E+03
CGA:  45    -0.362014586182E+03   -0.86313E+00   -0.14280E+01  7392   0.161E+02-0.346E+02
CGA:  46    -0.362182217943E+03   -0.16763E+00   -0.31715E+00  7392   0.554E+01-0.177E+01
CGA:  47    -0.362320194755E+03   -0.13798E+00   -0.18019E+00  7392   0.149E+01 0.393E+00
CGA:  48    -0.362397000215E+03   -0.76805E-01   -0.78861E-01  7392   0.803E+00 0.284E+00
CGA:  49    -0.362513741773E+03   -0.11674E+00   -0.94392E-01  7392   0.516E+00 0.385E+00
CGA:  50    -0.362699535961E+03   -0.18579E+00   -0.12482E+00  7392   0.333E+00 0.499E+00
CGA:  51    -0.362893310051E+03   -0.19377E+00   -0.38910E-01  7392   0.327E+00 0.105E+00
CGA:  52    -0.362975465930E+03   -0.82156E-01   -0.71843E-01  7392   0.608E-01 0.133E+00
CGA:  53    -0.362997786664E+03   -0.22321E-01   -0.21089E-01  7392   0.381E-01 0.870E-02
CGA:  54    -0.363017051667E+03   -0.19265E-01   -0.18366E-01  7392   0.102E-01 0.363E-02
CGA:  55    -0.363021977719E+03   -0.49261E-02   -0.16867E-03  7392   0.297E-01-0.613E-02
CGA:  56    -0.363028468610E+03   -0.64909E-02   -0.65169E-02  7392   0.609E-02 0.985E-03
CGA:  57    -0.363030929636E+03   -0.24610E-02   -0.67799E-02  7392   0.363E-01-0.518E-02
CGA:  58    -0.363037649632E+03   -0.67200E-02   -0.69570E-02  7392   0.523E-02 0.239E-02
CGA:  59    -0.363040160110E+03   -0.25105E-02   -0.28063E-02  7392   0.612E-02-0.134E-02
CGA:  60    -0.363042849764E+03   -0.26897E-02    0.62601E-01  7392   0.643E-02 0.370E-02
CGA:  61    -0.363045377369E+03   -0.25276E-02   -0.25248E-02  7392   0.288E-02 0.290E-04
CGA:  62    -0.363047106295E+03   -0.17289E-02    0.65422E-01  7392   0.230E-02 0.185E-02
CGA:  63    -0.363049112719E+03   -0.20064E-02   -0.21265E-02  7392   0.494E-02-0.164E-03
CGA:  64    -0.353782843721E+03    0.92663E+01   -0.15164E+01  7392   0.475E+02-0.373E+00
CGA:  65    -0.362580617826E+03   -0.87978E+01   -0.16436E+02  7392   0.268E+01-0.125E+01
CGA:  66    -0.362923556067E+03   -0.34294E+00   -0.48080E+00  7392   0.828E+00 0.108E+00
CGA:  67    -0.362654862866E+03    0.26869E+00   -0.15347E+00  7392   0.287E+01 0.234E+00
CGA:  68    -0.360560946849E+03    0.20939E+01   -0.39478E+00  7392   0.122E+02 0.140E+01
CGA:  69    -0.337131374928E+03    0.23430E+02   -0.12433E+01  7392   0.129E+03 0.180E+02
CGA:  70    -0.346535543029E+03   -0.94042E+01   -0.20634E+02  7392   0.790E+02 0.258E+02
CGA:  71    -0.347945642888E+03   -0.14101E+01   -0.15587E+02  7392   0.135E+03-0.534E+00
CGA:  72    -0.344299115535E+03    0.36465E+01   -0.20823E+02  7392   0.440E+02 0.175E+02
CGA:  73    -0.348711139060E+03   -0.44120E+01   -0.96020E+01  7392   0.360E+02 0.192E+02
CGA:  74    -0.348357716632E+03    0.35342E+00   -0.84693E+01  7392   0.302E+02 0.224E+02
CGA:  75    -0.354683879938E+03   -0.63262E+01   -0.79066E+01  7392   0.158E+02 0.680E+01
CGA:  76    -0.358535375015E+03   -0.38515E+01   -0.48683E+01  7392   0.840E+01 0.465E+01
CGA:  77    -0.360114531101E+03   -0.15792E+01   -0.24480E+01  7392   0.482E+01 0.275E+01
CGA:  78    -0.360956136770E+03   -0.84161E+00   -0.14541E+01  7392   0.211E+01 0.154E+01
CGA:  79    -0.361667067466E+03   -0.71093E+00   -0.80429E+00  7392   0.937E+00-0.322E+00
CGA:  80    -0.361975656206E+03   -0.30859E+00   -0.48323E+00  7392   0.990E+00-0.304E+00
CGA:  81    -0.361979556580E+03   -0.39004E-02   -0.99468E-01  7392   0.961E+00 0.315E+00
CGA:  82    -0.362059671943E+03   -0.80115E-01   -0.19952E+00  7392   0.757E+00 0.567E+00
CGA:  83    -0.362395960424E+03   -0.33629E+00   -0.32859E+00  7392   0.748E+00 0.229E+00
CGA:  84    -0.362743348390E+03   -0.34739E+00   -0.35378E+00  7392   0.509E+00 0.183E+00
CGA:  85    -0.362922151933E+03   -0.17880E+00   -0.19133E+00  7392   0.141E+00 0.888E-01
CGA:  86    -0.362989985922E+03   -0.67834E-01   -0.66656E-01  7392   0.568E-01 0.282E-01
CGA:  87    -0.363032047871E+03   -0.42062E-01   -0.41312E-01  7392   0.316E-01 0.920E-03
CGA:  88    -0.363049255296E+03   -0.17207E-01   -0.17481E-01  7392   0.196E-01-0.192E-02
CGA:  89    -0.363056979336E+03   -0.77240E-02   -0.77642E-02  7392   0.131E-01-0.109E-02
CGA:  90    -0.363061919395E+03   -0.49401E-02   -0.49445E-02  7392   0.967E-02-0.803E-03
CGA:  91    -0.363065240674E+03   -0.33213E-02   -0.32990E-02  7392   0.781E-02-0.478E-03
CGA:  92    -0.363067736867E+03   -0.24962E-02   -0.24750E-02  7392   0.610E-02-0.176E-03
CGA:  93    -0.363069612885E+03   -0.18760E-02   -0.18641E-02  7392   0.489E-02-0.305E-04
CGA:  94    -0.363071111824E+03   -0.14989E-02   -0.14877E-02  7392   0.394E-02-0.528E-04
CGA:  95    -0.363072272447E+03   -0.11606E-02   -0.11497E-02  7392   0.326E-02-0.677E-04
CGA:  96    -0.363073146938E+03   -0.87449E-03   -0.86742E-03  7392   0.255E-02-0.320E-04
CGA:  97    -0.363073821447E+03   -0.67451E-03   -0.66922E-03  7392   0.213E-02-0.326E-04
CGA:  98    -0.363074389338E+03   -0.56789E-03   -0.55871E-03  7392   0.179E-02-0.826E-04
CGA:  99    -0.363074844833E+03   -0.45550E-03   -0.44314E-03  7392   0.152E-02-0.116E-03
CGA: 100    -0.363075212673E+03   -0.36784E-03   -0.35669E-03  7392   0.130E-02-0.105E-03
CGA: 101    -0.363075519423E+03   -0.30675E-03   -0.29714E-03  7392   0.114E-02-0.907E-04
CGA: 102    -0.363075799270E+03   -0.27985E-03   -0.26897E-03  7392   0.102E-02-0.116E-03
CGA: 103    -0.363076038887E+03   -0.23962E-03   -0.22550E-03  7392   0.891E-03-0.148E-03
CGA: 104    -0.363076236294E+03   -0.19741E-03   -0.18365E-03  7392   0.797E-03-0.142E-03
CGA: 105    -0.363076398030E+03   -0.16174E-03   -0.15004E-03  7392   0.692E-03-0.108E-03
CGA: 106    -0.363076544419E+03   -0.14639E-03   -0.13707E-03  7392   0.617E-03-0.960E-04
CGA: 107    -0.363076679634E+03   -0.13522E-03   -0.12552E-03  7392   0.545E-03-0.114E-03
CGA: 108    -0.363076794782E+03   -0.11515E-03   -0.10533E-03  7392   0.499E-03-0.122E-03
CGA: 109    -0.363076888410E+03   -0.93629E-04   -0.84701E-04  7392   0.443E-03-0.942E-04
CGA: 110    -0.363076969834E+03   -0.81424E-04   -0.75018E-04  7392   0.387E-03-0.637E-04
CGA: 111    -0.363077047080E+03   -0.77246E-04   -0.71967E-04  7392   0.331E-03-0.607E-04
CGA: 112    -0.363077114340E+03   -0.67260E-04   -0.61711E-04  7392   0.282E-03-0.703E-04
SDA: 113    -0.363077167072E+03   -0.52732E-04   -0.47970E-04  7392   0.251E-03-0.598E-04
CGA: 114    -0.363077337351E+03   -0.17028E-03   -0.15331E-03  7392   0.141E-03 0.527E-04
CGA: 115    -0.363077405756E+03   -0.68405E-04   -0.80971E-04  7392   0.197E-03-0.756E-04
CGA: 116    -0.363077419903E+03   -0.14147E-04   -0.23379E-04  7392   0.166E-04 0.466E-04
CGA: 117    -0.363077419350E+03    0.55379E-06   -0.18300E-05  7392   0.773E-05 0.110E-04
   1 F= -.36307742E+03 E0= -.36307742E+03  d E =-.363077E+03  mag=    16.0000
       N       E                     dE             d eps       ncg     rms          ort
SDA:   1    -0.363077546310E+03   -0.12641E-03    0.00000E+00  7392   0.343E-02 0.000E+00
CGA:   2    -0.363078597062E+03   -0.10508E-02   -0.10482E-02  7392   0.111E-02 0.177E-03
CGA:   3    -0.363078854622E+03   -0.25756E-03   -0.25271E-03  7392   0.498E-03-0.644E-04
CGA:   4    -0.363078933942E+03   -0.79320E-04   -0.75589E-04  7392   0.110E-03-0.295E-04
CGA:   5    -0.363078956727E+03   -0.22785E-04   -0.22301E-04  7392   0.389E-04-0.734E-05
CGA:   6    -0.363078964402E+03   -0.76747E-05   -0.76887E-05  7392   0.158E-04 0.190E-06
   2 F= -.36307896E+03 E0= -.36307896E+03  d E =-.154505E-02  mag=    16.0000
       N       E                     dE             d eps       ncg     rms          ort
SDA:   1    -0.363064539936E+03    0.14417E-01    0.00000E+00  7392   0.421E-01 0.000E+00
CGA:   2    -0.363077679170E+03   -0.13139E-01   -0.13110E-01  7392   0.153E-01 0.699E-03
CGA:   3    -0.363080669330E+03   -0.29902E-02   -0.29711E-02  7392   0.569E-02-0.237E-03
CGA:   4    -0.363081631132E+03   -0.96180E-03   -0.94571E-03  7392   0.128E-02-0.163E-03
CGA:   5    -0.363081894252E+03   -0.26312E-03   -0.26009E-03  7392   0.437E-03-0.563E-04
CGA:   6    -0.363081981332E+03   -0.87080E-04   -0.86804E-04  7392   0.160E-03-0.530E-05
CGA:   7    -0.363082017646E+03   -0.36314E-04   -0.36819E-04  7392   0.577E-04 0.207E-04
CGA:   8    -0.363082033347E+03   -0.15701E-04   -0.15838E-04  7392   0.245E-04 0.994E-05
CGA:   9    -0.363082043370E+03   -0.10023E-04   -0.10191E-04  7392   0.161E-04-0.172E-05
CGA:  10    -0.363082046633E+03   -0.32630E-05   -0.33922E-05  7392   0.739E-05 0.381E-05
   3 F= -.36308205E+03 E0= -.36308205E+03  d E =-.308223E-02  mag=    16.0000
       N       E                     dE             d eps       ncg     rms          ort
SDA:   1    -0.363057133354E+03    0.24910E-01    0.00000E+00  7392   0.607E-01 0.000E+00
CGA:   2    -0.363074120315E+03   -0.16987E-01   -0.16956E-01  7392   0.268E-01 0.125E-02
CGA:   3    -0.363078859364E+03   -0.47390E-02   -0.47195E-02  7392   0.904E-02-0.236E-03
CGA:   4    -0.363080474245E+03   -0.16149E-02   -0.15868E-02  7392   0.213E-02-0.377E-03
CGA:   5    -0.363080880127E+03   -0.40588E-03   -0.39819E-03  7392   0.683E-03-0.146E-03
CGA:   6    -0.363081011862E+03   -0.13173E-03   -0.13103E-03  7392   0.223E-03-0.178E-04
CGA:   7    -0.363081058504E+03   -0.46642E-04   -0.47488E-04  7392   0.788E-04 0.333E-04
CGA:   8    -0.363081080031E+03   -0.21527E-04   -0.21594E-04  7392   0.333E-04 0.173E-04
CGA:   9    -0.363081095666E+03   -0.15635E-04   -0.17277E-04  7392   0.361E-04-0.899E-05
CGA:  10    -0.363081102003E+03   -0.63363E-05   -0.63331E-05  7392   0.215E-04-0.319E-06
   4 F= -.36308110E+03 E0= -.36308110E+03  d E =0.944630E-03  mag=    16.0000
       N       E                     dE             d eps       ncg     rms          ort
SDA:   1    -0.363066942058E+03    0.14154E-01    0.00000E+00  7392   0.331E-01 0.000E+00
CGA:   2    -0.363074633558E+03   -0.76915E-02   -0.77081E-02  7392   0.150E-01 0.109E-02
CGA:   3    -0.363077370545E+03   -0.27370E-02   -0.27342E-02  7392   0.510E-02-0.411E-04
CGA:   4    -0.363078305402E+03   -0.93486E-03   -0.91248E-03  7392   0.124E-02-0.349E-03
CGA:   5    -0.363078532060E+03   -0.22666E-03   -0.21845E-03  7392   0.394E-03-0.161E-03
CGA:   6    -0.363078602600E+03   -0.70541E-04   -0.69710E-04  7392   0.119E-03-0.241E-04
CGA:   7    -0.363078621509E+03   -0.18909E-04   -0.20349E-04  7392   0.378E-04 0.268E-04
CGA:   8    -0.363078629312E+03   -0.78025E-05   -0.86263E-05  7392   0.177E-04 0.174E-04
   5 F= -.36307863E+03 E0= -.36307863E+03  d E =0.247269E-02  mag=    16.0000
       N       E                     dE             d eps       ncg     rms          ort
SDA:   1    -0.362765403165E+03    0.31322E+00    0.00000E+00  7392   0.862E+00 0.000E+00
CGA:   2    -0.362958239514E+03   -0.19284E+00   -0.19289E+00  7392   0.443E+00 0.504E-02
CGA:   3    -0.363034850131E+03   -0.76611E-01   -0.76605E-01  7392   0.132E+00-0.168E-03
CGA:   4    -0.363057799095E+03   -0.22949E-01   -0.22856E-01  7392   0.294E-01-0.169E-02
CGA:   5    -0.363063062698E+03   -0.52636E-02   -0.52365E-02  7392   0.787E-02-0.595E-03
CGA:   6    -0.363064625200E+03   -0.15625E-02   -0.15623E-02  7392   0.229E-02-0.123E-04
CGA:   7    -0.363065126947E+03   -0.50175E-03   -0.50224E-03  7392   0.776E-03 0.129E-03
CGA:   8    -0.363065348539E+03   -0.22159E-03   -0.21902E-03  7392   0.332E-03 0.584E-04
CGA:   9    -0.363065469266E+03   -0.12073E-03   -0.12537E-03  7392   0.204E-03-0.369E-04
CGA:  10    -0.363065528511E+03   -0.59245E-04   -0.63313E-04  7392   0.109E-03-0.348E-04
CGA:  11    -0.363065557218E+03   -0.28707E-04   -0.29862E-04  7392   0.497E-04-0.125E-04
CGA:  12    -0.363065574026E+03   -0.16808E-04   -0.24477E-04  7392   0.666E-04-0.244E-04
CGA:  13    -0.363065585679E+03   -0.11653E-04   -0.13267E-04  7392   0.562E-04-0.121E-04
CGA:  14    -0.363065602237E+03   -0.16558E-04   -0.18167E-04  7392   0.463E-04-0.123E-04
CGA:  15    -0.363065612441E+03   -0.10203E-04   -0.24700E-04  7392   0.897E-04-0.351E-04
CGA:  16    -0.363065639501E+03   -0.27060E-04   -0.27011E-04  7392   0.182E-04 0.497E-05
CGA:  17    -0.363065652148E+03   -0.12647E-04    0.21506E-04  7392   0.845E-05 0.881E-05
CGA:  18    -0.363065658345E+03   -0.61971E-05   -0.16272E-04  7392   0.508E-04-0.100E-04
CGA:  19    -0.363065677410E+03   -0.19066E-04   -0.23229E-04  7392   0.418E-04-0.361E-04
CGA:  20    -0.363065678034E+03   -0.62313E-06   -0.51941E-05  7392   0.104E-04 0.204E-04
   6 F= -.36306568E+03 E0= -.36306568E+03  d E =0.129513E-01  mag=    16.0000
       N       E                     dE             d eps       ncg     rms          ort
SDA:   1    -0.362735992643E+03    0.32968E+00    0.00000E+00  7392   0.860E+00 0.000E+00
CGA:   2    -0.362949593108E+03   -0.21360E+00   -0.21388E+00  7392   0.396E+00 0.340E-02
CGA:   3    -0.363019969621E+03   -0.70377E-01   -0.70248E-01  7392   0.129E+00-0.901E-03
CGA:   4    -0.363041359538E+03   -0.21390E-01   -0.21228E-01  7392   0.245E-01-0.111E-02
CGA:   5    -0.363045856989E+03   -0.44975E-02   -0.44809E-02  7392   0.706E-02-0.138E-03
CGA:   6    -0.363047259083E+03   -0.14021E-02   -0.14156E-02  7392   0.205E-02 0.135E-03
CGA:   7    -0.363047750191E+03   -0.49111E-03   -0.49626E-03  7392   0.807E-03 0.887E-04
CGA:   8    -0.363047987471E+03   -0.23728E-03   -0.23745E-03  7392   0.379E-03 0.158E-04
CGA:   9    -0.363048105007E+03   -0.11754E-03   -0.11738E-03  7392   0.166E-03 0.128E-04
CGA:  10    -0.363048157502E+03   -0.52496E-04   -0.52454E-04  7392   0.672E-04 0.328E-05
CGA:  11    -0.363048184359E+03   -0.26857E-04   -0.29822E-04  7392   0.506E-04-0.210E-04
CGA:  12    -0.363048197442E+03   -0.13083E-04   -0.14161E-04  7392   0.340E-04-0.101E-04
CGA:  13    -0.363048206441E+03   -0.89984E-05   -0.89488E-05  7392   0.178E-04 0.209E-05
   7 F= -.36304821E+03 E0= -.36304821E+03  d E =0.174716E-01  mag=    16.0000
       N       E                     dE             d eps       ncg     rms          ort
SDA:   1    -0.363021637812E+03    0.26560E-01    0.00000E+00  7392   0.747E-01 0.000E+00
CGA:   2    -0.363039643785E+03   -0.18006E-01   -0.18028E-01  7392   0.442E-01 0.314E-03
CGA:   3    -0.363047045951E+03   -0.74022E-02   -0.74236E-02  7392   0.119E-01 0.150E-03
CGA:   4    -0.363049095112E+03   -0.20492E-02   -0.20444E-02  7392   0.289E-02-0.405E-04
CGA:   5    -0.363049633270E+03   -0.53816E-03   -0.53520E-03  7392   0.844E-03-0.293E-04
CGA:   6    -0.363049802381E+03   -0.16911E-03   -0.16904E-03  7392   0.262E-03-0.120E-05
CGA:   7    -0.363049863786E+03   -0.61405E-04   -0.61489E-04  7392   0.983E-04 0.176E-05
CGA:   8    -0.363049889179E+03   -0.25393E-04   -0.25421E-04  7392   0.365E-04 0.128E-05
CGA:   9    -0.363049900280E+03   -0.11101E-04   -0.11148E-04  7392   0.152E-04-0.193E-05
CGA:  10    -0.363049904841E+03   -0.45610E-05   -0.46645E-05  7392   0.689E-05-0.228E-05
   8 F= -.36304990E+03 E0= -.36304990E+03  d E =-.169840E-02  mag=    16.0000
       N       E                     dE             d eps       ncg     rms          ort
SDA:   1    -0.363027728259E+03    0.22172E-01    0.00000E+00  7392   0.487E-01 0.000E+00
CGA:   2    -0.363040850625E+03   -0.13122E-01   -0.13141E-01  7392   0.225E-01 0.834E-03
CGA:   3    -0.363044910967E+03   -0.40603E-02   -0.40414E-02  7392   0.695E-02-0.171E-03
CGA:   4    -0.363046074884E+03   -0.11639E-02   -0.11347E-02  7392   0.136E-02-0.245E-03
CGA:   5    -0.363046324622E+03   -0.24974E-03   -0.24700E-03  7392   0.384E-03-0.305E-04
CGA:   6    -0.363046390301E+03   -0.65679E-04   -0.68620E-04  7392   0.981E-04 0.322E-04
CGA:   7    -0.363046412025E+03   -0.21724E-04   -0.22672E-04  7392   0.359E-04 0.168E-04
CGA:   8    -0.363046424227E+03   -0.12202E-04   -0.12166E-04  7392   0.196E-04 0.161E-05
CGA:   9    -0.363046430079E+03   -0.58519E-05   -0.58273E-05  7392   0.908E-05 0.154E-05
   9 F= -.36304643E+03 E0= -.36304643E+03  d E =0.347476E-02  mag=    16.0000
       N       E                     dE             d eps       ncg     rms          ort
SDA:   1    -0.362851739489E+03    0.19468E+00    0.00000E+00  7392   0.478E+00 0.000E+00
CGA:   2    -0.362981476306E+03   -0.12974E+00   -0.12976E+00  7392   0.216E+00 0.386E-02
CGA:   3    -0.363019744569E+03   -0.38268E-01   -0.38229E-01  7392   0.663E-01-0.440E-03
CGA:   4    -0.363030410444E+03   -0.10666E-01   -0.10551E-01  7392   0.123E-01-0.104E-02
CGA:   5    -0.363032740777E+03   -0.23303E-02   -0.23015E-02  7392   0.375E-02-0.383E-03
CGA:   6    -0.363033449448E+03   -0.70867E-03   -0.70778E-03  7392   0.103E-02-0.142E-04
CGA:   7    -0.363033677570E+03   -0.22812E-03   -0.23064E-03  7392   0.374E-03 0.729E-04
CGA:   8    -0.363033785799E+03   -0.10823E-03   -0.10783E-03  7392   0.170E-03 0.307E-04
CGA:   9    -0.363033850367E+03   -0.64568E-04   -0.66406E-04  7392   0.106E-03-0.176E-04
CGA:  10    -0.363033882228E+03   -0.31861E-04   -0.36136E-04  7392   0.667E-04-0.358E-04
CGA:  11    -0.363033896044E+03   -0.13816E-04   -0.16275E-04  7392   0.363E-04-0.245E-04
CGA:  12    -0.363033903875E+03   -0.78319E-05   -0.87411E-05  7392   0.214E-04-0.853E-05
  10 F= -.36303390E+03 E0= -.36303390E+03  d E =0.125262E-01  mag=    16.0000
       N       E                     dE             d eps       ncg     rms          ort
SDA:   1    -0.361773059377E+03    0.12608E+01    0.00000E+00  7392   0.310E+01 0.000E+00
CGA:   2    -0.362671887227E+03   -0.89883E+00   -0.89880E+00  7392   0.144E+01 0.577E-02
CGA:   3    -0.362913845985E+03   -0.24196E+00   -0.24177E+00  7392   0.410E+00-0.183E-02
CGA:   4    -0.362978597227E+03   -0.64751E-01   -0.64549E-01  7392   0.762E-01-0.167E-02
CGA:   5    -0.362992855961E+03   -0.14259E-01   -0.14260E-01  7392   0.224E-01 0.362E-05
CGA:   6    -0.362997203017E+03   -0.43471E-02   -0.43753E-02  7392   0.607E-02 0.375E-03
CGA:   7    -0.362998658949E+03   -0.14559E-02   -0.14601E-02  7392   0.234E-02 0.139E-03
CGA:   8    -0.362999320124E+03   -0.66118E-03   -0.66066E-03  7392   0.106E-02 0.435E-04
CGA:   9    -0.362999636565E+03   -0.31644E-03   -0.31425E-03  7392   0.427E-03 0.844E-04
CGA:  10    -0.362999774067E+03   -0.13750E-03   -0.13686E-03  7392   0.161E-03 0.215E-04
CGA:  11    -0.362999836100E+03   -0.62032E-04   -0.65898E-04  7392   0.950E-04-0.317E-04
CGA:  12    -0.362999864776E+03   -0.28676E-04   -0.30800E-04  7392   0.613E-04-0.163E-04
CGA:  13    -0.362999883974E+03   -0.19198E-04   -0.19082E-04  7392   0.333E-04 0.125E-05
CGA:  14    -0.362999893878E+03   -0.99036E-05   -0.98518E-05  7392   0.158E-04 0.105E-04
  11 F= -.36299989E+03 E0= -.36299989E+03  d E =0.340100E-01  mag=    16.0000
       N       E                     dE             d eps       ncg     rms          ort
SDA:   1    -0.362889064442E+03    0.11082E+00    0.00000E+00  7392   0.325E+00 0.000E+00
CGA:   2    -0.362977376100E+03   -0.88312E-01   -0.88283E-01  7392   0.153E+00-0.181E-02
CGA:   3    -0.363003849013E+03   -0.26473E-01   -0.26506E-01  7392   0.483E-01 0.265E-03
CGA:   4    -0.363011562288E+03   -0.77133E-02   -0.77788E-02  7392   0.941E-02 0.528E-03
CGA:   5    -0.363013406790E+03   -0.18445E-02   -0.18532E-02  7392   0.297E-02 0.105E-03
CGA:   6    -0.363014045942E+03   -0.63915E-03   -0.63428E-03  7392   0.994E-03-0.807E-04
CGA:   7    -0.363014299484E+03   -0.25354E-03   -0.25326E-03  7392   0.446E-03-0.396E-04
CGA:   8    -0.363014407008E+03   -0.10752E-03   -0.10771E-03  7392   0.166E-03 0.103E-04
CGA:   9    -0.363014459302E+03   -0.52294E-04   -0.52639E-04  7392   0.709E-04-0.818E-05
CGA:  10    -0.363014478498E+03   -0.19196E-04   -0.19201E-04  7392   0.249E-04-0.320E-06
CGA:  11    -0.363014483570E+03   -0.50715E-05   -0.54372E-05  7392   0.851E-05 0.717E-05
  12 F= -.36301448E+03 E0= -.36301448E+03  d E =-.145897E-01  mag=    16.0000
       N       E                     dE             d eps       ncg     rms          ort
SDA:   1    -0.363002838066E+03    0.11640E-01    0.00000E+00  7392   0.413E-01 0.000E+00
CGA:   2    -0.363013858966E+03   -0.11021E-01   -0.11022E-01  7392   0.186E-01-0.322E-03
CGA:   3    -0.363017020548E+03   -0.31616E-02   -0.31916E-02  7392   0.600E-02 0.324E-03
CGA:   4    -0.363018021173E+03   -0.10006E-02   -0.10136E-02  7392   0.119E-02 0.138E-03
CGA:   5    -0.363018292050E+03   -0.27088E-03   -0.26495E-03  7392   0.478E-03-0.158E-03
CGA:   6    -0.363018398755E+03   -0.10670E-03   -0.10783E-03  7392   0.280E-03-0.156E-03
CGA:   7    -0.363018437190E+03   -0.38436E-04   -0.38133E-04  7392   0.967E-04-0.595E-05
CGA:   8    -0.363018448137E+03   -0.10946E-04   -0.14201E-04  7392   0.361E-04 0.322E-04
CGA:   9    -0.363018453795E+03   -0.56583E-05   -0.71891E-05  7392   0.143E-04 0.159E-04
  13 F= -.36301845E+03 E0= -.36301845E+03  d E =-.397023E-02  mag=    16.0000
       N       E                     dE             d eps       ncg     rms          ort
SDA:   1    -0.362987961035E+03    0.30487E-01    0.00000E+00  7392   0.785E-01 0.000E+00
CGA:   2    -0.363010417803E+03   -0.22457E-01   -0.22432E-01  7392   0.392E-01 0.593E-03
CGA:   3    -0.363016599568E+03   -0.61818E-02   -0.62090E-02  7392   0.105E-01 0.290E-03
CGA:   4    -0.363018501886E+03   -0.19023E-02   -0.18955E-02  7392   0.236E-02-0.110E-03
CGA:   5    -0.363018996127E+03   -0.49424E-03   -0.48258E-03  7392   0.886E-03-0.357E-03
CGA:   6    -0.363019178110E+03   -0.18198E-03   -0.18325E-03  7392   0.412E-03-0.221E-03
CGA:   7    -0.363019233017E+03   -0.54907E-04   -0.56334E-04  7392   0.115E-03 0.254E-04
CGA:   8    -0.363019245888E+03   -0.12871E-04   -0.17390E-04  7392   0.442E-04 0.484E-04
CGA:   9    -0.363019252884E+03   -0.69966E-05   -0.90470E-05  7392   0.179E-04 0.236E-04
  14 F= -.36301925E+03 E0= -.36301925E+03  d E =-.799089E-03  mag=    16.0000
       N       E                     dE             d eps       ncg     rms          ort
SDA:   1    -0.362865777742E+03    0.15347E+00    0.00000E+00  7392   0.359E+00 0.000E+00
CGA:   2    -0.362978236977E+03   -0.11246E+00   -0.11237E+00  7392   0.197E+00 0.974E-03
CGA:   3    -0.363006778899E+03   -0.28542E-01   -0.28534E-01  7392   0.401E-01-0.159E-03
CGA:   4    -0.363013562899E+03   -0.67840E-02   -0.67656E-02  7392   0.921E-02-0.325E-03
CGA:   5    -0.363015262192E+03   -0.16993E-02   -0.16919E-02  7392   0.256E-02-0.193E-03
CGA:   6    -0.363015749503E+03   -0.48731E-03   -0.48701E-03  7392   0.661E-03-0.116E-04
CGA:   7    -0.363015888190E+03   -0.13869E-03   -0.13903E-03  7392   0.206E-03 0.375E-04
CGA:   8    -0.363015944638E+03   -0.56447E-04   -0.55714E-04  7392   0.823E-04 0.203E-04
CGA:   9    -0.363015974889E+03   -0.30252E-04   -0.30892E-04  7392   0.474E-04-0.534E-05
CGA:  10    -0.363015988171E+03   -0.13282E-04   -0.22154E-04  7392   0.569E-04-0.326E-04
CGA:  11    -0.363015997159E+03   -0.89877E-05   -0.96228E-05  7392   0.902E-05 0.880E-05
  15 F= -.36301600E+03 E0= -.36301600E+03  d E =0.325573E-02  mag=    16.0000
       N       E                     dE             d eps       ncg     rms          ort
SDA:   1    -0.362714500714E+03    0.30149E+00    0.00000E+00  7392   0.677E+00 0.000E+00
CGA:   2    -0.362959642701E+03   -0.24514E+00   -0.24533E+00  7392   0.225E+00-0.160E-02
CGA:   3    -0.362997824952E+03   -0.38182E-01   -0.38162E-01  7392   0.606E-01-0.254E-03
CGA:   4    -0.363007003377E+03   -0.91784E-02   -0.92141E-02  7392   0.124E-01 0.369E-03
CGA:   5    -0.363009530610E+03   -0.25272E-02   -0.25371E-02  7392   0.359E-02 0.252E-03
CGA:   6    -0.363010237855E+03   -0.70725E-03   -0.70877E-03  7392   0.107E-02 0.321E-04
CGA:   7    -0.363010515572E+03   -0.27772E-03   -0.27851E-03  7392   0.450E-03-0.376E-04
CGA:   8    -0.363010628694E+03   -0.11312E-03   -0.11270E-03  7392   0.186E-03 0.208E-04
CGA:   9    -0.363010674882E+03   -0.46189E-04   -0.46274E-04  7392   0.615E-04 0.458E-04
CGA:  10    -0.363010698405E+03   -0.23523E-04   -0.23260E-04  7392   0.299E-04 0.412E-05
CGA:  11    -0.363010586764E+03    0.11164E-03   -0.60474E-04  7392   0.624E-03-0.121E-03
CGA:  12    -0.363010699664E+03   -0.11290E-03   -0.12152E-03  7392   0.876E-04 0.346E-04
CGA:  13    -0.363010734892E+03   -0.35228E-04   -0.35063E-04  7392   0.313E-04-0.321E-05
CGA:  14    -0.363010746927E+03   -0.12035E-04   -0.12023E-04  7392   0.128E-04-0.417E-06
CGA:  15    -0.363010761716E+03   -0.14789E-04    0.71983E-05  7392   0.725E-05 0.133E-05
CGA:  16    -0.363010761808E+03   -0.92157E-07   -0.14539E-05  7392   0.442E-05 0.555E-05
  16 F= -.36301076E+03 E0= -.36301076E+03  d E =0.523535E-02  mag=    16.0000
       N       E                     dE             d eps       ncg     rms          ort
SDA:   1    -0.362894982830E+03    0.11578E+00    0.00000E+00  7392   0.294E+00 0.000E+00
CGA:   2    -0.362981587424E+03   -0.86605E-01   -0.86549E-01  7392   0.151E+00-0.606E-03
CGA:   3    -0.363005178197E+03   -0.23591E-01   -0.23606E-01  7392   0.396E-01 0.618E-04
CGA:   4    -0.363011730042E+03   -0.65518E-02   -0.66032E-02  7392   0.847E-02 0.226E-03
CGA:   5    -0.363013332402E+03   -0.16024E-02   -0.16039E-02  7392   0.254E-02 0.623E-05
CGA:   6    -0.363013886804E+03   -0.55440E-03   -0.53853E-03  7392   0.843E-03-0.103E-03
CGA:   7    -0.363014091375E+03   -0.20457E-03   -0.20039E-03  7392   0.345E-03-0.377E-04
CGA:   8    -0.363014171989E+03   -0.80614E-04   -0.81731E-04  7392   0.124E-03 0.105E-04
CGA:   9    -0.363014209313E+03   -0.37324E-04   -0.37381E-04  7392   0.486E-04 0.104E-05
CGA:  10    -0.363014224748E+03   -0.15435E-04   -0.15321E-04  7392   0.197E-04-0.349E-05
CGA:  11    -0.363014231954E+03   -0.72061E-05   -0.81538E-05  7392   0.171E-04-0.921E-05
  17 F= -.36301423E+03 E0= -.36301423E+03  d E =-.347015E-02  mag=    16.0000
       N       E                     dE             d eps       ncg     rms          ort
SDA:   1    -0.363004761326E+03    0.94634E-02    0.00000E+00  7392   0.251E-01 0.000E+00
CGA:   2    -0.363012776540E+03   -0.80152E-02   -0.80175E-02  7392   0.944E-02 0.792E-04
CGA:   3    -0.363014489410E+03   -0.17129E-02   -0.17117E-02  7392   0.323E-02-0.869E-05
CGA:   4    -0.363015030255E+03   -0.54085E-03   -0.53424E-03  7392   0.705E-03-0.391E-04
CGA:   5    -0.363015185317E+03   -0.15506E-03   -0.14935E-03  7392   0.257E-03-0.499E-04
CGA:   6    -0.363015236299E+03   -0.50982E-04   -0.49550E-04  7392   0.921E-04-0.124E-04
CGA:   7    -0.363015253812E+03   -0.17514E-04   -0.18755E-04  7392   0.292E-04 0.120E-04
CGA:   8    -0.363015261161E+03   -0.73482E-05   -0.77193E-05  7392   0.119E-04 0.473E-05
  18 F= -.36301526E+03 E0= -.36301526E+03  d E =-.102921E-02  mag=    16.0000
       N       E                     dE             d eps       ncg     rms          ort
SDA:   1    -0.362992604776E+03    0.22649E-01    0.00000E+00  7392   0.502E-01 0.000E+00
CGA:   2    -0.363010819498E+03   -0.18215E-01   -0.18220E-01  7392   0.177E-01-0.130E-03
CGA:   3    -0.363013611449E+03   -0.27920E-02   -0.27786E-02  7392   0.468E-02-0.806E-04
CGA:   4    -0.363014324508E+03   -0.71306E-03   -0.71840E-03  7392   0.962E-03 0.329E-04
CGA:   5    -0.363014511176E+03   -0.18667E-03   -0.18794E-03  7392   0.280E-03 0.113E-04
CGA:   6    -0.363014567231E+03   -0.56054E-04   -0.55291E-04  7392   0.762E-04-0.732E-05
CGA:   7    -0.363014584813E+03   -0.17582E-04   -0.17627E-04  7392   0.280E-04 0.771E-06
CGA:   8    -0.363014591186E+03   -0.63735E-05   -0.66343E-05  7392   0.102E-04 0.456E-05
  19 F= -.36301459E+03 E0= -.36301459E+03  d E =0.669974E-03  mag=    16.0000
       N       E                     dE             d eps       ncg     rms          ort
SDA:   1    -0.361424573575E+03    0.15900E+01    0.00000E+00  7392   0.380E+01 0.000E+00
CGA:   2    -0.362634417283E+03   -0.12098E+01   -0.12099E+01  7392   0.193E+01-0.150E-02
CGA:   3    -0.362918901906E+03   -0.28448E+00   -0.28417E+00  7392   0.427E+00-0.328E-03
CGA:   4    -0.362989965277E+03   -0.71063E-01   -0.71112E-01  7392   0.891E-01 0.375E-03
CGA:   5    -0.363006453007E+03   -0.16488E-01   -0.16506E-01  7392   0.253E-01 0.188E-03
CGA:   6    -0.363011485292E+03   -0.50323E-02   -0.50287E-02  7392   0.673E-02-0.561E-04
CGA:   7    -0.363013017466E+03   -0.15322E-02   -0.15312E-02  7392   0.244E-02-0.258E-04
CGA:   8    -0.363013673538E+03   -0.65607E-03   -0.65587E-03  7392   0.102E-02 0.350E-04
CGA:   9    -0.363013981337E+03   -0.30780E-03   -0.30691E-03  7392   0.421E-03 0.277E-04
CGA:  10    -0.363014118015E+03   -0.13668E-03   -0.13795E-03  7392   0.158E-03-0.241E-04
CGA:  11    -0.363014165074E+03   -0.47059E-04   -0.47872E-04  7392   0.581E-04-0.157E-04
CGA:  12    -0.363014181129E+03   -0.16056E-04   -0.15902E-04  7392   0.230E-04 0.467E-05
CGA:  13    -0.363014190165E+03   -0.90355E-05   -0.86421E-05  7392   0.134E-04 0.522E-05
  20 F= -.36301419E+03 E0= -.36301419E+03  d E =0.401021E-03  mag=    16.0000
       N       E                     dE             d eps       ncg     rms          ort
SDA:   1    -0.359605210251E+03    0.34090E+01    0.00000E+00  7392   0.825E+01 0.000E+00
CGA:   2    -0.362172386659E+03   -0.25672E+01   -0.25671E+01  7392   0.407E+01-0.166E-02
CGA:   3    -0.362797416903E+03   -0.62503E+00   -0.62458E+00  7392   0.968E+00 0.230E-02
CGA:   4    -0.362956591666E+03   -0.15917E+00   -0.15934E+00  7392   0.193E+00 0.144E-02
CGA:   5    -0.362992915401E+03   -0.36324E-01   -0.36357E-01  7392   0.572E-01 0.378E-03
CGA:   6    -0.363004397693E+03   -0.11482E-01   -0.11469E-01  7392   0.158E-01-0.218E-03
CGA:   7    -0.363008107019E+03   -0.37093E-02   -0.37068E-02  7392   0.615E-02-0.910E-04
CGA:   8    -0.363009775905E+03   -0.16689E-02   -0.16682E-02  7392   0.264E-02 0.672E-04
CGA:   9    -0.363010582268E+03   -0.80636E-03   -0.80572E-03  7392   0.110E-02 0.166E-04
CGA:  10    -0.363010926416E+03   -0.34415E-03   -0.34710E-03  7392   0.406E-03-0.595E-04
CGA:  11    -0.363011046789E+03   -0.12037E-03   -0.12199E-03  7392   0.151E-03-0.320E-04
CGA:  12    -0.363011096908E+03   -0.50118E-04   -0.50724E-04  7392   0.767E-04-0.630E-05
CGA:  13    -0.363011131832E+03   -0.34925E-04   -0.37922E-04  7392   0.670E-04-0.124E-04
CGA:  14    -0.363011158764E+03   -0.26932E-04   -0.36625E-04  7392   0.728E-04-0.265E-04
CGA:  15    -0.363011176421E+03   -0.17657E-04   -0.23481E-04  7392   0.572E-04-0.255E-04
CGA:  16    -0.363011181889E+03   -0.54682E-05   -0.32943E-04  7392   0.131E-03-0.484E-04
CGA:  17    -0.363011226694E+03   -0.44805E-04   -0.44801E-04  7392   0.316E-04-0.252E-05
CGA:  18    -0.363011248473E+03   -0.21779E-04   -0.28792E-04  7392   0.579E-04-0.120E-04
CGA:  19    -0.363011260262E+03   -0.11789E-04   -0.11871E-04  7392   0.339E-04 0.184E-05
CGA:  20    -0.363011273978E+03   -0.13716E-04   -0.13901E-04  7392   0.213E-04-0.722E-05
CGA:  21    -0.363011254562E+03    0.19416E-04   -0.22373E-04  7392   0.176E-03-0.435E-04
CGA:  22    -0.363011286515E+03   -0.31953E-04   -0.36698E-04  7392   0.329E-04 0.222E-04
CGA:  23    -0.363011301430E+03   -0.14915E-04   -0.14920E-04  7392   0.105E-04 0.633E-06
CGA:  24    -0.363011300971E+03    0.45823E-06   -0.12162E-04  7392   0.726E-04-0.173E-04
CGA:  25    -0.363011314328E+03   -0.13356E-04   -0.15615E-04  7392   0.704E-05 0.977E-05
CGA:  26    -0.363011317934E+03   -0.36057E-05   -0.80780E-05  7392   0.223E-04-0.774E-05
  21 F= -.36301132E+03 E0= -.36301132E+03  d E =0.287223E-02  mag=    16.0000
       N       E                     dE             d eps       ncg     rms          ort
SDA:   1    -0.359474052290E+03    0.35373E+01    0.00000E+00  7392   0.864E+01 0.000E+00
CGA:   2    -0.362093228802E+03   -0.26192E+01   -0.26220E+01  7392   0.469E+01 0.585E-02
CGA:   3    -0.362794152472E+03   -0.70092E+00   -0.70081E+00  7392   0.101E+01 0.278E-01
CGA:   4    -0.362965714492E+03   -0.17156E+00   -0.17123E+00  7392   0.218E+00 0.422E-03
CGA:   5    -0.363005499487E+03   -0.39785E-01   -0.39845E-01  7392   0.612E-01 0.834E-04
CGA:   6    -0.363017687711E+03   -0.12188E-01   -0.12236E-01  7392   0.167E-01 0.214E-03
CGA:   7    -0.363021473470E+03   -0.37858E-02   -0.37925E-02  7392   0.597E-02 0.383E-04
CGA:   8    -0.363023085536E+03   -0.16121E-02   -0.16218E-02  7392   0.251E-02 0.823E-04
CGA:   9    -0.363023836123E+03   -0.75059E-03   -0.75264E-03  7392   0.102E-02 0.238E-04
CGA:  10    -0.363024133007E+03   -0.29688E-03   -0.29892E-03  7392   0.331E-03 0.232E-04
CGA:  11    -0.363024214917E+03   -0.81910E-04   -0.86861E-04  7392   0.935E-04 0.426E-04
CGA:  12    -0.363024251998E+03   -0.37080E-04   -0.37037E-04  7392   0.498E-04-0.273E-05
CGA:  13    -0.363024268810E+03   -0.16813E-04   -0.16926E-04  7392   0.281E-04 0.714E-05
CGA:  14    -0.363024277767E+03   -0.89568E-05   -0.96688E-05  7392   0.150E-04 0.111E-04
  22 F= -.36302428E+03 E0= -.36302428E+03  d E =-.129598E-01  mag=    16.0000
       N       E                     dE             d eps       ncg     rms          ort
SDA:   1    -0.362344870633E+03    0.67940E+00    0.00000E+00  7392   0.164E+01 0.000E+00
CGA:   2    -0.362796662403E+03   -0.45179E+00   -0.45210E+00  7392   0.867E+00 0.279E-02
CGA:   3    -0.362936189305E+03   -0.13953E+00   -0.13967E+00  7392   0.238E+00 0.952E-03
CGA:   4    -0.362977994227E+03   -0.41805E-01   -0.41722E-01  7392   0.539E-01-0.455E-03
CGA:   5    -0.362988014654E+03   -0.10020E-01   -0.10009E-01  7392   0.160E-01-0.921E-04
CGA:   6    -0.362991305745E+03   -0.32911E-02   -0.32994E-02  7392   0.519E-02 0.634E-04
CGA:   7    -0.362992580284E+03   -0.12745E-02   -0.12773E-02  7392   0.212E-02 0.348E-04
CGA:   8    -0.362993137079E+03   -0.55679E-03   -0.55916E-03  7392   0.845E-03 0.403E-04
CGA:   9    -0.362993388438E+03   -0.25136E-03   -0.25166E-03  7392   0.326E-03 0.119E-04
CGA:  10    -0.362993483772E+03   -0.95334E-04   -0.95646E-04  7392   0.125E-03 0.118E-04
CGA:  11    -0.362993520127E+03   -0.36355E-04   -0.36982E-04  7392   0.542E-04 0.214E-04
CGA:  12    -0.362993550194E+03   -0.30067E-04   -0.29763E-04  7392   0.628E-04 0.176E-05
CGA:  13    -0.362993585310E+03   -0.35116E-04   -0.33199E-04  7392   0.757E-04 0.938E-05
CGA:  14    -0.362993625759E+03   -0.40449E-04   -0.37763E-04  7392   0.662E-04 0.248E-04
CGA:  15    -0.362993669935E+03   -0.44176E-04   -0.41812E-04  7392   0.601E-04 0.157E-04
CGA:  16    -0.362993705863E+03   -0.35928E-04   -0.33904E-04  7392   0.464E-04 0.173E-04
CGA:  17    -0.362993733516E+03   -0.27653E-04   -0.26250E-04  7392   0.354E-04 0.153E-04
CGA:  18    -0.362993752848E+03   -0.19333E-04   -0.18603E-04  7392   0.245E-04 0.172E-04
CGA:  19    -0.362993764710E+03   -0.11862E-04   -0.12203E-04  7392   0.150E-04 0.172E-04
CGA:  20    -0.362993773342E+03   -0.86321E-05   -0.90442E-05  7392   0.120E-04-0.164E-05
  23 F= -.36299377E+03 E0= -.36299377E+03  d E =0.305044E-01  mag=    16.0000
       N       E                     dE             d eps       ncg     rms          ort
SDA:   1    -0.362182968726E+03    0.81080E+00    0.00000E+00  7392   0.210E+01 0.000E+00
CGA:   2    -0.362779525579E+03   -0.59656E+00   -0.59649E+00  7392   0.114E+01-0.159E-02
CGA:   3    -0.362958410175E+03   -0.17888E+00   -0.17860E+00  7392   0.286E+00-0.216E-04
CGA:   4    -0.363007250961E+03   -0.48841E-01   -0.48919E-01  7392   0.622E-01 0.373E-03
CGA:   5    -0.363018645694E+03   -0.11395E-01   -0.11430E-01  7392   0.180E-01 0.213E-03
CGA:   6    -0.363022364631E+03   -0.37189E-02   -0.37155E-02  7392   0.558E-02-0.319E-04
CGA:   7    -0.363023697499E+03   -0.13329E-02   -0.13305E-02  7392   0.220E-02-0.286E-04
CGA:   8    -0.363024275860E+03   -0.57836E-03   -0.57966E-03  7392   0.892E-03 0.240E-04
CGA:   9    -0.363024538512E+03   -0.26265E-03   -0.26292E-03  7392   0.343E-03 0.111E-04
CGA:  10    -0.363024645414E+03   -0.10690E-03   -0.10681E-03  7392   0.132E-03-0.129E-04
CGA:  11    -0.363024685713E+03   -0.40299E-04   -0.40323E-04  7392   0.536E-04-0.637E-05
CGA:  12    -0.363024703677E+03   -0.17964E-04   -0.17806E-04  7392   0.295E-04 0.457E-05
CGA:  13    -0.363024717281E+03   -0.13603E-04   -0.13016E-04  7392   0.216E-04 0.647E-05
CGA:  14    -0.363024732056E+03   -0.14775E-04   -0.14099E-04  7392   0.210E-04 0.313E-05
CGA:  15    -0.363024744873E+03   -0.12818E-04   -0.12261E-04  7392   0.171E-04 0.305E-05
CGA:  16    -0.363024755822E+03   -0.10949E-04   -0.10649E-04  7392   0.150E-04 0.138E-05
CGA:  17    -0.363024753001E+03    0.28212E-05   -0.24504E-04  7392   0.100E-03-0.240E-04
CGA:  18    -0.363024781786E+03   -0.28785E-04   -0.29017E-04  7392   0.140E-04 0.194E-05
CGA:  19    -0.363024789085E+03   -0.72993E-05   -0.10788E-04  7392   0.229E-04-0.990E-05
  24 F= -.36302479E+03 E0= -.36302479E+03  d E =-.310157E-01  mag=    16.0000
       N       E                     dE             d eps       ncg     rms          ort
SDA:   1    -0.363012600417E+03    0.12181E-01    0.00000E+00  7392   0.315E-01 0.000E+00
CGA:   2    -0.363022109947E+03   -0.95095E-02   -0.95163E-02  7392   0.181E-01 0.547E-04
CGA:   3    -0.363024735951E+03   -0.26260E-02   -0.26532E-02  7392   0.370E-02 0.107E-03
CGA:   4    -0.363025359511E+03   -0.62356E-03   -0.62572E-03  7392   0.809E-03 0.934E-05
CGA:   5    -0.363025507934E+03   -0.14842E-03   -0.14822E-03  7392   0.226E-03-0.116E-05
CGA:   6    -0.363025553713E+03   -0.45779E-04   -0.45314E-04  7392   0.615E-04-0.279E-05
CGA:   7    -0.363025568429E+03   -0.14716E-04   -0.14296E-04  7392   0.238E-04-0.332E-05
CGA:   8    -0.363025574798E+03   -0.63686E-05   -0.62826E-05  7392   0.107E-04-0.113E-05
  25 F= -.36302557E+03 E0= -.36302557E+03  d E =-.785713E-03  mag=    16.0000
       N       E                     dE             d eps       ncg     rms          ort
SDA:   1    -0.362818351671E+03    0.20722E+00    0.00000E+00  7392   0.576E+00 0.000E+00
CGA:   2    -0.362964923439E+03   -0.14657E+00   -0.14642E+00  7392   0.305E+00-0.175E-02
CGA:   3    -0.363015272159E+03   -0.50349E-01   -0.50418E-01  7392   0.829E-01 0.348E-03
CGA:   4    -0.363028793257E+03   -0.13521E-01   -0.13637E-01  7392   0.160E-01 0.649E-03
CGA:   5    -0.363031649567E+03   -0.28563E-02   -0.28904E-02  7392   0.452E-02 0.218E-03
CGA:   6    -0.363032584146E+03   -0.93458E-03   -0.92853E-03  7392   0.129E-02-0.506E-04
CGA:   7    -0.363032904648E+03   -0.32050E-03   -0.31393E-03  7392   0.552E-03-0.910E-04
CGA:   8    -0.363033040373E+03   -0.13572E-03   -0.13556E-03  7392   0.227E-03-0.340E-05
CGA:   9    -0.363033104827E+03   -0.64454E-04   -0.64820E-04  7392   0.940E-04 0.141E-04
CGA:  10    -0.363033139554E+03   -0.34728E-04   -0.35128E-04  7392   0.483E-04-0.998E-05
CGA:  11    -0.363033154654E+03   -0.15100E-04   -0.15407E-04  7392   0.252E-04-0.714E-05
CGA:  12    -0.363033019085E+03    0.13557E-03   -0.73021E-04  7392   0.741E-03-0.106E-03
CGA:  13    -0.363033166156E+03   -0.14707E-03   -0.15595E-03  7392   0.782E-04 0.241E-04
CGA:  14    -0.363033196856E+03   -0.30700E-04   -0.28430E-04  7392   0.272E-04-0.111E-04
CGA:  15    -0.363033199804E+03   -0.29487E-05   -0.59564E-05  7392   0.105E-04 0.103E-04
  26 F= -.36303320E+03 E0= -.36303320E+03  d E =-.762501E-02  mag=    16.0000
       N       E                     dE             d eps       ncg     rms          ort
SDA:   1    -0.362880240870E+03    0.15296E+00    0.00000E+00  7392   0.374E+00 0.000E+00
CGA:   2    -0.362998051299E+03   -0.11781E+00   -0.11768E+00  7392   0.186E+00-0.690E-03
CGA:   3    -0.363026357908E+03   -0.28307E-01   -0.28248E-01  7392   0.441E-01-0.317E-04
CGA:   4    -0.363033450788E+03   -0.70929E-02   -0.71479E-02  7392   0.907E-02 0.154E-03
CGA:   5    -0.363035124372E+03   -0.16736E-02   -0.16785E-02  7392   0.273E-02 0.153E-04
CGA:   6    -0.363035673454E+03   -0.54908E-03   -0.53826E-03  7392   0.748E-03-0.401E-04
CGA:   7    -0.363035846935E+03   -0.17348E-03   -0.17074E-03  7392   0.277E-03-0.123E-04
CGA:   8    -0.363035919658E+03   -0.72724E-04   -0.73058E-04  7392   0.112E-03 0.185E-05
CGA:   9    -0.363035953941E+03   -0.34283E-04   -0.34258E-04  7392   0.469E-04-0.194E-06
CGA:  10    -0.363035970452E+03   -0.16510E-04   -0.15857E-04  7392   0.202E-04-0.715E-05
CGA:  11    -0.363035976607E+03   -0.61558E-05   -0.57646E-05  7392   0.834E-05-0.437E-05
  27 F= -.36303598E+03 E0= -.36303598E+03  d E =-.277680E-02  mag=    16.0000
       N       E                     dE             d eps       ncg     rms          ort
SDA:   1    -0.363005549489E+03    0.30421E-01    0.00000E+00  7392   0.861E-01 0.000E+00
CGA:   2    -0.363026782983E+03   -0.21233E-01   -0.21223E-01  7392   0.524E-01-0.948E-04
CGA:   3    -0.363035460779E+03   -0.86778E-02   -0.86596E-02  7392   0.128E-01-0.981E-04
CGA:   4    -0.363037585040E+03   -0.21243E-02   -0.21277E-02  7392   0.284E-02 0.117E-04
CGA:   5    -0.363038099586E+03   -0.51455E-03   -0.51648E-03  7392   0.779E-03 0.892E-05
CGA:   6    -0.363038257177E+03   -0.15759E-03   -0.15743E-03  7392   0.226E-03-0.132E-05
CGA:   7    -0.363038308209E+03   -0.51032E-04   -0.51268E-04  7392   0.791E-04 0.169E-05
CGA:   8    -0.363038330748E+03   -0.22539E-04   -0.22227E-04  7392   0.348E-04-0.412E-05
CGA:   9    -0.363038343295E+03   -0.12546E-04   -0.13212E-04  7392   0.275E-04-0.134E-04
CGA:  10    -0.363038347844E+03   -0.45491E-05   -0.42816E-05  7392   0.108E-04-0.267E-05
  28 F= -.36303835E+03 E0= -.36303835E+03  d E =-.237124E-02  mag=    16.0000
       N       E                     dE             d eps       ncg     rms          ort
SDA:   1    -0.362953804490E+03    0.84539E-01    0.00000E+00  7392   0.200E+00 0.000E+00
CGA:   2    -0.363025444261E+03   -0.71640E-01   -0.71660E-01  7392   0.632E-01-0.114E-02
CGA:   3    -0.363037107312E+03   -0.11663E-01   -0.11720E-01  7392   0.148E-01 0.363E-03
CGA:   4    -0.363039253366E+03   -0.21461E-02   -0.21802E-02  7392   0.343E-02 0.182E-03
CGA:   5    -0.363039972857E+03   -0.71949E-03   -0.71895E-03  7392   0.922E-03-0.469E-05
CGA:   6    -0.363040161261E+03   -0.18840E-03   -0.18242E-03  7392   0.314E-03-0.501E-04
CGA:   7    -0.363040235928E+03   -0.74667E-04   -0.73537E-04  7392   0.122E-03-0.176E-04
CGA:   8    -0.363040263951E+03   -0.28023E-04   -0.28614E-04  7392   0.481E-04 0.964E-05
CGA:   9    -0.363040278151E+03   -0.14200E-04   -0.14375E-04  7392   0.175E-04 0.606E-05
CGA:  10    -0.363040285703E+03   -0.75516E-05   -0.84370E-05  7392   0.149E-04-0.719E-05
  29 F= -.36304029E+03 E0= -.36304029E+03  d E =-.193786E-02  mag=    16.0000
       N       E                     dE             d eps       ncg     rms          ort
SDA:   1    -0.362643053611E+03    0.39722E+00    0.00000E+00  7392   0.974E+00 0.000E+00
CGA:   2    -0.362967846513E+03   -0.32479E+00   -0.32486E+00  7392   0.318E+00-0.385E-02
CGA:   3    -0.363033105608E+03   -0.65259E-01   -0.65426E-01  7392   0.655E-01 0.151E-02
CGA:   4    -0.363042903135E+03   -0.97975E-02   -0.98692E-02  7392   0.172E-01 0.448E-03
CGA:   5    -0.363046371107E+03   -0.34680E-02   -0.34716E-02  7392   0.403E-02 0.361E-04
CGA:   6    -0.363047241258E+03   -0.87015E-03   -0.85941E-03  7392   0.153E-02-0.129E-03
CGA:   7    -0.363047611403E+03   -0.37015E-03   -0.36761E-03  7392   0.607E-03-0.578E-04
CGA:   8    -0.363047775722E+03   -0.16432E-03   -0.16445E-03  7392   0.289E-03 0.154E-04
CGA:   9    -0.363047861197E+03   -0.85475E-04   -0.85490E-04  7392   0.106E-03 0.856E-05
CGA:  10    -0.363047896494E+03   -0.35297E-04   -0.35603E-04  7392   0.413E-04-0.842E-05
CGA:  11    -0.363047910194E+03   -0.13700E-04   -0.18045E-04  7392   0.406E-04-0.237E-04
CGA:  12    -0.363047918495E+03   -0.83013E-05   -0.84693E-05  7392   0.611E-05 0.181E-05
  30 F= -.36304792E+03 E0= -.36304792E+03  d E =-.763279E-02  mag=    16.0000
       N       E                     dE             d eps       ncg     rms          ort
SDA:   1    -0.362603537655E+03    0.44437E+00    0.00000E+00  7392   0.113E+01 0.000E+00
CGA:   2    -0.362958835534E+03   -0.35530E+00   -0.35519E+00  7392   0.412E+00-0.328E-02
CGA:   3    -0.363038779498E+03   -0.79944E-01   -0.80093E-01  7392   0.107E+00 0.974E-03
CGA:   4    -0.363054247806E+03   -0.15468E-01   -0.15580E-01  7392   0.214E-01 0.555E-03
CGA:   5    -0.363058732083E+03   -0.44843E-02   -0.44854E-02  7392   0.596E-02 0.917E-05
CGA:   6    -0.363059936462E+03   -0.12044E-02   -0.11855E-02  7392   0.196E-02-0.150E-03
CGA:   7    -0.363060433245E+03   -0.49678E-03   -0.49294E-03  7392   0.838E-03-0.638E-04
CGA:   8    -0.363060660360E+03   -0.22711E-03   -0.22682E-03  7392   0.417E-03-0.820E-05
CGA:   9    -0.363060793942E+03   -0.13358E-03   -0.13384E-03  7392   0.184E-03-0.265E-04
CGA:  10    -0.363060846805E+03   -0.52864E-04   -0.52764E-04  7392   0.663E-04-0.117E-04
CGA:  11    -0.363060869972E+03   -0.23167E-04   -0.25014E-04  7392   0.419E-04-0.209E-04
CGA:  12    -0.363060881886E+03   -0.11914E-04   -0.14275E-04  7392   0.347E-04-0.133E-04
CGA:  13    -0.363060890361E+03   -0.84754E-05   -0.16365E-04  7392   0.504E-04-0.218E-04
CGA:  14    -0.363060905257E+03   -0.14896E-04   -0.14618E-04  7392   0.110E-04-0.500E-05
CGA:  15    -0.363060910160E+03   -0.49028E-05   -0.60529E-05  7392   0.129E-04-0.435E-05
  31 F= -.36306091E+03 E0= -.36306091E+03  d E =-.129917E-01  mag=    16.0000
       N       E                     dE             d eps       ncg     rms          ort
SDA:   1    -0.362565329888E+03    0.49558E+00    0.00000E+00  7392   0.121E+01 0.000E+00
CGA:   2    -0.362942115763E+03   -0.37679E+00   -0.37673E+00  7392   0.560E+00-0.151E-02
CGA:   3    -0.363033179124E+03   -0.91063E-01   -0.91065E-01  7392   0.150E+00 0.564E-04
CGA:   4    -0.363057321333E+03   -0.24142E-01   -0.24213E-01  7392   0.296E-01 0.361E-03
CGA:   5    -0.363063036323E+03   -0.57150E-02   -0.57097E-02  7392   0.896E-02-0.423E-04
CGA:   6    -0.363064879028E+03   -0.18427E-02   -0.18216E-02  7392   0.274E-02-0.172E-03
CGA:   7    -0.363065539035E+03   -0.66001E-03   -0.65807E-03  7392   0.111E-02-0.256E-04
CGA:   8    -0.363065829375E+03   -0.29034E-03   -0.29150E-03  7392   0.466E-03 0.223E-04
CGA:   9    -0.363065984372E+03   -0.15500E-03   -0.15533E-03  7392   0.218E-03-0.301E-04
CGA:  10    -0.363066048815E+03   -0.64442E-04   -0.64450E-04  7392   0.874E-04-0.211E-04
CGA:  11    -0.363066073574E+03   -0.24759E-04   -0.24755E-04  7392   0.357E-04-0.166E-05
CGA:  12    -0.363066084209E+03   -0.10635E-04   -0.10720E-04  7392   0.189E-04 0.892E-05
CGA:  13    -0.363066093108E+03   -0.88987E-05   -0.85453E-05  7392   0.141E-04 0.756E-05
CGA:  14    -0.363066104885E+03   -0.11777E-04   -0.11096E-04  7392   0.173E-04 0.275E-05
CGA:  15    -0.363066115070E+03   -0.10186E-04   -0.94924E-05  7392   0.157E-04 0.529E-05
CGA:  16    -0.363066127720E+03   -0.12650E-04   -0.12717E-04  7392   0.236E-04-0.287E-06
CGA:  17    -0.363066099243E+03    0.28478E-04   -0.39241E-04  7392   0.186E-03-0.496E-04
CGA:  18    -0.363066156191E+03   -0.56948E-04   -0.58574E-04  7392   0.319E-04 0.159E-04
CGA:  19    -0.363066175289E+03   -0.19099E-04   -0.23706E-04  7392   0.396E-04-0.170E-04
CGA:  20    -0.363066178296E+03   -0.30069E-05   -0.66348E-05  7392   0.918E-05 0.140E-04
  32 F= -.36306618E+03 E0= -.36306618E+03  d E =-.526814E-02  mag=    16.0000
       N       E                     dE             d eps       ncg     rms          ort
SDA:   1    -0.362969434259E+03    0.96741E-01    0.00000E+00  7392   0.241E+00 0.000E+00
CGA:   2    -0.363037571566E+03   -0.68137E-01   -0.68175E-01  7392   0.122E+00 0.248E-03
CGA:   3    -0.363057439286E+03   -0.19868E-01   -0.19863E-01  7392   0.342E-01-0.849E-04
CGA:   4    -0.363063354120E+03   -0.59148E-02   -0.59022E-02  7392   0.748E-02-0.649E-04
CGA:   5    -0.363064725424E+03   -0.13713E-02   -0.13814E-02  7392   0.217E-02 0.511E-04
CGA:   6    -0.363065161055E+03   -0.43563E-03   -0.44626E-03  7392   0.688E-03 0.636E-04
CGA:   7    -0.363065339180E+03   -0.17812E-03   -0.17853E-03  7392   0.292E-03 0.358E-05
CGA:   8    -0.363065420125E+03   -0.80945E-04   -0.80530E-04  7392   0.128E-03-0.510E-05
CGA:   9    -0.363065451005E+03   -0.30880E-04   -0.32307E-04  7392   0.431E-04 0.151E-04
CGA:  10    -0.363065464194E+03   -0.13189E-04   -0.13485E-04  7392   0.169E-04 0.441E-05
CGA:  11    -0.363065471741E+03   -0.75475E-05   -0.11608E-04  7392   0.353E-04-0.146E-04
  33 F= -.36306547E+03 E0= -.36306547E+03  d E =0.706555E-03  mag=    16.0000
       N       E                     dE             d eps       ncg     rms          ort
SDA:   1    -0.362944865851E+03    0.12060E+00    0.00000E+00  7392   0.299E+00 0.000E+00
CGA:   2    -0.363044521342E+03   -0.99655E-01   -0.99626E-01  7392   0.108E+00-0.173E-02
CGA:   3    -0.363064117167E+03   -0.19596E-01   -0.19677E-01  7392   0.274E-01 0.476E-03
CGA:   4    -0.363068029833E+03   -0.39127E-02   -0.39755E-02  7392   0.552E-02 0.317E-03
CGA:   5    -0.363069165033E+03   -0.11352E-02   -0.11406E-02  7392   0.157E-02 0.422E-04
CGA:   6    -0.363069486288E+03   -0.32126E-03   -0.31197E-03  7392   0.498E-03-0.729E-04
CGA:   7    -0.363069612099E+03   -0.12581E-03   -0.12346E-03  7392   0.217E-03-0.397E-04
CGA:   8    -0.363069662362E+03   -0.50264E-04   -0.50727E-04  7392   0.896E-04 0.749E-05
CGA:   9    -0.363069689548E+03   -0.27186E-04   -0.27294E-04  7392   0.347E-04 0.580E-05
CGA:  10    -0.363069702781E+03   -0.13233E-04   -0.13660E-04  7392   0.198E-04-0.736E-05
CGA:  11    -0.363069708172E+03   -0.53910E-05   -0.79255E-05  7392   0.237E-04-0.132E-04
  34 F= -.36306971E+03 E0= -.36306971E+03  d E =-.423643E-02  mag=    16.0000
       N       E                     dE             d eps       ncg     rms          ort
SDA:   1    -0.361697937783E+03    0.13718E+01    0.00000E+00  7392   0.338E+01 0.000E+00
CGA:   2    -0.362713026111E+03   -0.10151E+01   -0.10151E+01  7392   0.177E+01-0.253E-02
CGA:   3    -0.362987295175E+03   -0.27427E+00   -0.27423E+00  7392   0.417E+00 0.790E-03
CGA:   4    -0.363054558253E+03   -0.67263E-01   -0.67388E-01  7392   0.853E-01 0.924E-03
CGA:   5    -0.363070106500E+03   -0.15548E-01   -0.15590E-01  7392   0.242E-01 0.319E-03
CGA:   6    -0.363074947404E+03   -0.48409E-02   -0.48243E-02  7392   0.668E-02-0.173E-03
CGA:   7    -0.363076501143E+03   -0.15537E-02   -0.15447E-02  7392   0.251E-02-0.154E-03
CGA:   8    -0.363077157660E+03   -0.65652E-03   -0.65719E-03  7392   0.105E-02 0.313E-04
CGA:   9    -0.363077482489E+03   -0.32483E-03   -0.32455E-03  7392   0.451E-03 0.176E-04
CGA:  10    -0.363077633221E+03   -0.15073E-03   -0.15263E-03  7392   0.190E-03-0.431E-04
CGA:  11    -0.363077686468E+03   -0.53247E-04   -0.53496E-04  7392   0.684E-04-0.122E-04
CGA:  12    -0.363077711892E+03   -0.25424E-04   -0.29474E-04  7392   0.569E-04-0.241E-04
CGA:  13    -0.363077726514E+03   -0.14622E-04   -0.15508E-04  7392   0.366E-04-0.741E-05
CGA:  14    -0.363077738144E+03   -0.11631E-04   -0.20857E-04  7392   0.525E-04-0.266E-04
CGA:  15    -0.363077750338E+03   -0.12194E-04   -0.12729E-04  7392   0.625E-05 0.656E-05
CGA:  16    -0.363077727489E+03    0.22849E-04   -0.12694E-04  7392   0.126E-03-0.221E-04
CGA:  17    -0.363077751836E+03   -0.24347E-04   -0.30977E-04  7392   0.149E-04 0.196E-04
CGA:  18    -0.363077721853E+03    0.29983E-04   -0.24540E-04  7392   0.290E-03-0.637E-04
CGA:  19    -0.363077741430E+03   -0.19577E-04   -0.46992E-04  7392   0.443E-04 0.610E-04
CGA:  20    -0.363077755310E+03   -0.13879E-04   -0.14980E-04  7392   0.905E-05 0.357E-05
CGA:  21    -0.363077776864E+03   -0.21554E-04    0.30119E-05  7392   0.419E-04-0.176E-04
CGA:  22    -0.363077771651E+03    0.52131E-05   -0.38668E-05  7392   0.919E-05 0.189E-04
  35 F= -.36307777E+03 E0= -.36307777E+03  d E =-.806348E-02  mag=    16.0000
       N       E                     dE             d eps       ncg     rms          ort
SDA:   1    -0.357580620158E+03    0.54972E+01    0.00000E+00  7392   0.130E+02 0.000E+00
CGA:   2    -0.361857593160E+03   -0.42770E+01   -0.42803E+01  7392   0.590E+01 0.930E-03
CGA:   3    -0.362760080778E+03   -0.90249E+00   -0.90163E+00  7392   0.136E+01 0.472E-01
CGA:   4    -0.362986087831E+03   -0.22601E+00   -0.22608E+00  7392   0.294E+00 0.285E-02
CGA:   5    -0.363041432890E+03   -0.55345E-01   -0.55412E-01  7392   0.865E-01 0.121E-03
CGA:   6    -0.363058573588E+03   -0.17141E-01   -0.17092E-01  7392   0.242E-01-0.207E-03
CGA:   7    -0.363064287579E+03   -0.57140E-02   -0.56936E-02  7392   0.935E-02-0.102E-03
CGA:   8    -0.363066822974E+03   -0.25354E-02   -0.25498E-02  7392   0.405E-02 0.842E-04
CGA:   9    -0.363068059359E+03   -0.12364E-02   -0.12387E-02  7392   0.165E-02 0.178E-04
CGA:  10    -0.363068572180E+03   -0.51282E-03   -0.50450E-03  7392   0.581E-03-0.688E-04
CGA:  11    -0.363068749249E+03   -0.17707E-03   -0.17438E-03  7392   0.216E-03-0.251E-04
CGA:  12    -0.363068835420E+03   -0.86171E-04   -0.86231E-04  7392   0.150E-03-0.245E-04
CGA:  13    -0.363068903493E+03   -0.68073E-04   -0.69636E-04  7392   0.136E-03-0.135E-04
CGA:  14    -0.363068975322E+03   -0.71829E-04   -0.82198E-04  7392   0.155E-03-0.415E-04
CGA:  15    -0.363069023345E+03   -0.48024E-04   -0.48210E-04  7392   0.995E-04-0.111E-04
CGA:  16    -0.363069067408E+03   -0.44062E-04   -0.44752E-04  7392   0.831E-04-0.122E-04
CGA:  17    -0.363069105609E+03   -0.38201E-04   -0.38021E-04  7392   0.757E-04 0.287E-05
CGA:  18    -0.363069143203E+03   -0.37594E-04   -0.37172E-04  7392   0.526E-04 0.124E-04
CGA:  19    -0.363069167797E+03   -0.24594E-04   -0.25079E-04  7392   0.279E-04 0.155E-04
CGA:  20    -0.363069177347E+03   -0.95497E-05   -0.11389E-04  7392   0.125E-04 0.149E-04
  36 F= -.36306918E+03 E0= -.36306918E+03  d E =0.859430E-02  mag=    16.0000
       N       E                     dE             d eps       ncg     rms          ort
SDA:   1    -0.361705530202E+03    0.13636E+01    0.00000E+00  7392   0.371E+01 0.000E+00
CGA:   2    -0.362575504328E+03   -0.86997E+00   -0.87233E+00  7392   0.215E+01 0.295E-02
CGA:   3    -0.362940005167E+03   -0.36450E+00   -0.36441E+00  7392   0.555E+00 0.358E-02
CGA:   4    -0.363033431649E+03   -0.93426E-01   -0.93110E-01  7392   0.127E+00-0.900E-03
CGA:   5    -0.363056278939E+03   -0.22847E-01   -0.22831E-01  7392   0.348E-01-0.159E-03
CGA:   6    -0.363063211727E+03   -0.69328E-02   -0.69717E-02  7392   0.102E-01 0.188E-03
CGA:   7    -0.363065512022E+03   -0.23003E-02   -0.23195E-02  7392   0.359E-02 0.123E-03
CGA:   8    -0.363066462196E+03   -0.95017E-03   -0.95630E-03  7392   0.143E-02 0.556E-04
CGA:   9    -0.363066899735E+03   -0.43754E-03   -0.43582E-03  7392   0.619E-03-0.264E-04
CGA:  10    -0.363067082459E+03   -0.18272E-03   -0.18276E-03  7392   0.239E-03 0.591E-06
CGA:  11    -0.363067149947E+03   -0.67487E-04   -0.68913E-04  7392   0.887E-04 0.198E-04
CGA:  12    -0.363067194247E+03   -0.44300E-04   -0.49097E-04  7392   0.108E-03-0.309E-04
CGA:  13    -0.363067222352E+03   -0.28105E-04   -0.28469E-04  7392   0.101E-03-0.899E-05
CGA:  14    -0.363067259665E+03   -0.37313E-04   -0.37651E-04  7392   0.881E-04-0.839E-05
CGA:  15    -0.363067297719E+03   -0.38054E-04   -0.44441E-04  7392   0.112E-03-0.348E-04
CGA:  16    -0.363067319115E+03   -0.21396E-04   -0.21468E-04  7392   0.950E-04 0.174E-05
CGA:  17    -0.363067351514E+03   -0.32399E-04   -0.32351E-04  7392   0.707E-04-0.542E-06
CGA:  18    -0.363067385596E+03   -0.34082E-04   -0.48874E-04  7392   0.133E-03-0.448E-04
CGA:  19    -0.363067410367E+03   -0.24771E-04   -0.31254E-04  7392   0.270E-04 0.421E-04
CGA:  20    -0.363067307773E+03    0.10259E-03   -0.59197E-04  7392   0.535E-03-0.126E-03
CGA:  21    -0.363067385301E+03   -0.77529E-04   -0.11108E-03  7392   0.100E-03 0.141E-03
CGA:  22    -0.363067438986E+03   -0.53685E-04   -0.52650E-04  7392   0.368E-04-0.583E-04
CGA:  23    -0.363067439179E+03   -0.19255E-06   -0.54596E-05  7392   0.105E-04 0.185E-04
  37 F= -.36306744E+03 E0= -.36306744E+03  d E =0.173817E-02  mag=    16.0000
       N       E                     dE             d eps       ncg     rms          ort
SDA:   1    -0.362259285498E+03    0.80815E+00    0.00000E+00  7392   0.191E+01 0.000E+00
CGA:   2    -0.362902474173E+03   -0.64319E+00   -0.64327E+00  7392   0.853E+00 0.304E-03
CGA:   3    -0.363030042315E+03   -0.12757E+00   -0.12767E+00  7392   0.206E+00 0.714E-03
CGA:   4    -0.363064134214E+03   -0.34092E-01   -0.34100E-01  7392   0.440E-01 0.336E-04
CGA:   5    -0.363072291504E+03   -0.81573E-02   -0.81782E-02  7392   0.128E-01 0.982E-04
CGA:   6    -0.363074793927E+03   -0.25024E-02   -0.25204E-02  7392   0.355E-02 0.977E-04
CGA:   7    -0.363075623441E+03   -0.82951E-03   -0.83133E-03  7392   0.132E-02 0.132E-04
CGA:   8    -0.363075988161E+03   -0.36472E-03   -0.36424E-03  7392   0.581E-03-0.577E-05
CGA:   9    -0.363076159574E+03   -0.17141E-03   -0.17158E-03  7392   0.226E-03 0.285E-05
CGA:  10    -0.363076220497E+03   -0.60923E-04   -0.61934E-04  7392   0.674E-04 0.125E-04
CGA:  11    -0.363076237969E+03   -0.17472E-04   -0.18325E-04  7392   0.194E-04 0.937E-05
CGA:  12    -0.363076245642E+03   -0.76729E-05   -0.76723E-05  7392   0.106E-04 0.227E-06
  38 F= -.36307625E+03 E0= -.36307625E+03  d E =-.880646E-02  mag=    16.0000
       N       E                     dE             d eps       ncg     rms          ort
SDA:   1    -0.362143185644E+03    0.93305E+00    0.00000E+00  7392   0.226E+01 0.000E+00
CGA:   2    -0.362858750889E+03   -0.71557E+00   -0.71550E+00  7392   0.107E+01-0.251E-02
CGA:   3    -0.363025809203E+03   -0.16706E+00   -0.16712E+00  7392   0.262E+00 0.628E-03
CGA:   4    -0.363067621994E+03   -0.41813E-01   -0.41936E-01  7392   0.523E-01 0.713E-03
CGA:   5    -0.363077443357E+03   -0.98214E-02   -0.98334E-02  7392   0.153E-01 0.765E-04
CGA:   6    -0.363080491327E+03   -0.30480E-02   -0.30239E-02  7392   0.426E-02-0.197E-03
CGA:   7    -0.363081489176E+03   -0.99785E-03   -0.99049E-03  7392   0.164E-02-0.929E-04
CGA:   8    -0.363081916852E+03   -0.42768E-03   -0.42908E-03  7392   0.688E-03 0.312E-04
CGA:   9    -0.363082131987E+03   -0.21514E-03   -0.21516E-03  7392   0.294E-03 0.893E-05
CGA:  10    -0.363082230708E+03   -0.98721E-04   -0.99582E-04  7392   0.124E-03-0.345E-04
CGA:  11    -0.363082265203E+03   -0.34495E-04   -0.34540E-04  7392   0.457E-04-0.103E-04
CGA:  12    -0.363082281077E+03   -0.15873E-04   -0.16396E-04  7392   0.268E-04-0.646E-05
CGA:  13    -0.363082291719E+03   -0.10642E-04   -0.11329E-04  7392   0.207E-04-0.385E-05
CGA:  14    -0.363082297660E+03   -0.59407E-05   -0.14952E-04  7392   0.436E-04-0.173E-04
CGA:  15    -0.363082307693E+03   -0.10033E-04   -0.10570E-04  7392   0.601E-05 0.502E-05
CGA:  16    -0.363082278990E+03    0.28702E-04   -0.15706E-04  7392   0.141E-03-0.240E-04
CGA:  17    -0.363082308000E+03   -0.29009E-04   -0.36371E-04  7392   0.166E-04 0.199E-04
CGA:  18    -0.363082208663E+03    0.99336E-04   -0.38350E-04  7392   0.579E-03-0.970E-04
CGA:  19    -0.363082263264E+03   -0.54600E-04   -0.10765E-03  7392   0.100E-03 0.107E-03
CGA:  20    -0.363082312223E+03   -0.48960E-04   -0.43412E-04  7392   0.178E-04-0.192E-04
CGA:  21    -0.363082336458E+03   -0.24234E-04    0.14844E-04  7392   0.333E-04-0.161E-04
CGA:  22    -0.363082329869E+03    0.65885E-05   -0.31466E-05  7392   0.996E-05 0.178E-04
  39 F= -.36308233E+03 E0= -.36308233E+03  d E =-.608423E-02  mag=    16.0000
       N       E                     dE             d eps       ncg     rms          ort
SDA:   1    -0.362487890445E+03    0.59445E+00    0.00000E+00  7392   0.137E+01 0.000E+00
CGA:   2    -0.362969242263E+03   -0.48135E+00   -0.48146E+00  7392   0.485E+00 0.195E-03
CGA:   3    -0.363047882265E+03   -0.78640E-01   -0.78677E-01  7392   0.133E+00 0.221E-03
CGA:   4    -0.363068995034E+03   -0.21113E-01   -0.21082E-01  7392   0.269E-01-0.654E-04
CGA:   5    -0.363074276064E+03   -0.52810E-02   -0.52563E-02  7392   0.790E-02-0.741E-04
CGA:   6    -0.363075792081E+03   -0.15160E-02   -0.15155E-02  7392   0.220E-02-0.315E-05
CGA:   7    -0.363076313668E+03   -0.52159E-03   -0.52388E-03  7392   0.838E-03 0.837E-05
CGA:   8    -0.363076537266E+03   -0.22360E-03   -0.22695E-03  7392   0.370E-03 0.152E-04
CGA:   9    -0.363076644547E+03   -0.10728E-03   -0.11029E-03  7392   0.143E-03 0.162E-04
CGA:  10    -0.363076691006E+03   -0.46459E-04   -0.45617E-04  7392   0.519E-04-0.519E-05
CGA:  11    -0.363076706877E+03   -0.15870E-04   -0.15534E-04  7392   0.189E-04-0.224E-05
CGA:  12    -0.363076712833E+03   -0.59570E-05   -0.60957E-05  7392   0.931E-05 0.121E-05
  40 F= -.36307671E+03 E0= -.36307671E+03  d E =0.561704E-02  mag=    16.0000
       N       E                     dE             d eps       ncg     rms          ort
SDA:   1    -0.362379052113E+03    0.69765E+00    0.00000E+00  7392   0.169E+01 0.000E+00
CGA:   2    -0.362895113265E+03   -0.51606E+00   -0.51648E+00  7392   0.867E+00 0.215E-02
CGA:   3    -0.363029124261E+03   -0.13401E+00   -0.13390E+00  7392   0.205E+00 0.347E-03
CGA:   4    -0.363062696157E+03   -0.33572E-01   -0.33416E-01  7392   0.422E-01-0.589E-03
CGA:   5    -0.363070441657E+03   -0.77455E-02   -0.77411E-02  7392   0.121E-01-0.265E-04
CGA:   6    -0.363072750532E+03   -0.23089E-02   -0.23420E-02  7392   0.322E-02 0.158E-03
CGA:   7    -0.363073475408E+03   -0.72488E-03   -0.73780E-03  7392   0.115E-02 0.782E-04
CGA:   8    -0.363073805198E+03   -0.32979E-03   -0.32993E-03  7392   0.525E-03 0.125E-05
CGA:   9    -0.363073970456E+03   -0.16526E-03   -0.16458E-03  7392   0.235E-03-0.107E-04
CGA:  10    -0.363074032298E+03   -0.61842E-04   -0.63194E-04  7392   0.733E-04 0.136E-04
CGA:  11    -0.363074051452E+03   -0.19154E-04   -0.20285E-04  7392   0.228E-04 0.106E-04
CGA:  12    -0.363074060927E+03   -0.94751E-05   -0.94748E-05  7392   0.137E-04-0.715E-06
  41 F= -.36307406E+03 E0= -.36307406E+03  d E =0.265191E-02  mag=    16.0000
       N       E                     dE             d eps       ncg     rms          ort
SDA:   1    -0.363025224601E+03    0.48827E-01    0.00000E+00  7392   0.126E+00 0.000E+00
CGA:   2    -0.363059705389E+03   -0.34481E-01   -0.34449E-01  7392   0.699E-01-0.387E-03
CGA:   3    -0.363070817862E+03   -0.11112E-01   -0.11118E-01  7392   0.183E-01 0.833E-05
CGA:   4    -0.363073909389E+03   -0.30915E-02   -0.31217E-02  7392   0.419E-02 0.164E-03
CGA:   5    -0.363074676942E+03   -0.76755E-03   -0.77920E-03  7392   0.121E-02 0.734E-04
CGA:   6    -0.363074936562E+03   -0.25962E-03   -0.25858E-03  7392   0.394E-03-0.875E-05
CGA:   7    -0.363075037164E+03   -0.10060E-03   -0.99365E-04  7392   0.173E-03-0.171E-04
CGA:   8    -0.363075080976E+03   -0.43811E-04   -0.43511E-04  7392   0.670E-04-0.507E-05
CGA:   9    -0.363075099963E+03   -0.18988E-04   -0.18959E-04  7392   0.256E-04-0.100E-05
CGA:  10    -0.363075105489E+03   -0.55256E-05   -0.59402E-05  7392   0.807E-05 0.496E-05
  42 F= -.36307511E+03 E0= -.36307511E+03  d E =-.104456E-02  mag=    16.0000
       N       E                     dE             d eps       ncg     rms          ort
SDA:   1    -0.362841745384E+03    0.23335E+00    0.00000E+00  7392   0.553E+00 0.000E+00
CGA:   2    -0.363030153782E+03   -0.18841E+00   -0.18844E+00  7392   0.221E+00-0.114E-02
CGA:   3    -0.363064985671E+03   -0.34832E-01   -0.34874E-01  7392   0.573E-01 0.256E-03
CGA:   4    -0.363074079472E+03   -0.90938E-02   -0.91302E-02  7392   0.116E-01 0.247E-03
CGA:   5    -0.363076349887E+03   -0.22704E-02   -0.22680E-02  7392   0.343E-02-0.253E-04
CGA:   6    -0.363077035001E+03   -0.68511E-03   -0.67732E-03  7392   0.980E-03-0.836E-04
CGA:   7    -0.363077269599E+03   -0.23460E-03   -0.23335E-03  7392   0.384E-03-0.291E-04
CGA:   8    -0.363077361540E+03   -0.91942E-04   -0.92823E-04  7392   0.146E-03 0.247E-04
CGA:   9    -0.363077404932E+03   -0.43392E-04   -0.43435E-04  7392   0.546E-04 0.162E-04
CGA:  10    -0.363077426479E+03   -0.21546E-04   -0.22847E-04  7392   0.325E-04-0.139E-04
CGA:  11    -0.363077432744E+03   -0.62655E-05   -0.62495E-05  7392   0.112E-04-0.542E-06
  43 F= -.36307743E+03 E0= -.36307743E+03  d E =-.232726E-02  mag=    16.0000
       N       E                     dE             d eps       ncg     rms          ort
SDA:   1    -0.362924584159E+03    0.15284E+00    0.00000E+00  7392   0.373E+00 0.000E+00
CGA:   2    -0.363031892294E+03   -0.10731E+00   -0.10730E+00  7392   0.169E+00 0.289E-02
CGA:   3    -0.363061416036E+03   -0.29524E-01   -0.29495E-01  7392   0.473E-01-0.273E-03
CGA:   4    -0.363068842200E+03   -0.74262E-02   -0.73449E-02  7392   0.882E-02-0.667E-03
CGA:   5    -0.363070511549E+03   -0.16693E-02   -0.16584E-02  7392   0.269E-02-0.135E-03
CGA:   6    -0.363070982652E+03   -0.47110E-03   -0.48171E-03  7392   0.660E-03 0.123E-03
CGA:   7    -0.363071128148E+03   -0.14550E-03   -0.14950E-03  7392   0.239E-03 0.847E-04
CGA:   8    -0.363071205888E+03   -0.77740E-04   -0.77445E-04  7392   0.128E-03 0.116E-04
CGA:   9    -0.363071246840E+03   -0.40952E-04   -0.40632E-04  7392   0.624E-04 0.783E-05
CGA:  10    -0.363071263704E+03   -0.16864E-04   -0.16951E-04  7392   0.218E-04 0.994E-05
CGA:  11    -0.363071269779E+03   -0.60745E-05   -0.61828E-05  7392   0.794E-05 0.568E-05
  44 F= -.36307127E+03 E0= -.36307127E+03  d E =0.616297E-02  mag=    16.0000
       N       E                     dE             d eps       ncg     rms          ort
SDA:   1    -0.361412478795E+03    0.16588E+01    0.00000E+00  7392   0.389E+01 0.000E+00
CGA:   2    -0.362728432648E+03   -0.13160E+01   -0.13158E+01  7392   0.150E+01 0.201E-02
CGA:   3    -0.362970829669E+03   -0.24240E+00   -0.24227E+00  7392   0.395E+00-0.140E-02
CGA:   4    -0.363034006368E+03   -0.63177E-01   -0.63090E-01  7392   0.781E-01-0.921E-03
CGA:   5    -0.363049118747E+03   -0.15112E-01   -0.15113E-01  7392   0.227E-01 0.659E-05
CGA:   6    -0.363053491554E+03   -0.43728E-02   -0.43894E-02  7392   0.614E-02 0.280E-03
CGA:   7    -0.363054963240E+03   -0.14717E-02   -0.14732E-02  7392   0.231E-02 0.119E-03
CGA:   8    -0.363055627159E+03   -0.66392E-03   -0.66351E-03  7392   0.108E-02 0.121E-04
CGA:   9    -0.363055937234E+03   -0.31008E-03   -0.30761E-03  7392   0.398E-03 0.718E-04
CGA:  10    -0.363056058338E+03   -0.12110E-03   -0.12035E-03  7392   0.127E-03 0.240E-04
CGA:  11    -0.363056104195E+03   -0.45857E-04   -0.47835E-04  7392   0.601E-04-0.197E-04
CGA:  12    -0.363056117946E+03   -0.13751E-04   -0.13657E-04  7392   0.234E-04 0.922E-05
CGA:  13    -0.363056124460E+03   -0.65142E-05   -0.66388E-05  7392   0.119E-04 0.919E-05
  45 F= -.36305612E+03 E0= -.36305612E+03  d E =0.151453E-01  mag=    16.0000
       N       E                     dE             d eps       ncg     rms          ort
SDA:   1    -0.361963433043E+03    0.10927E+01    0.00000E+00  7392   0.259E+01 0.000E+00
CGA:   2    -0.362829479231E+03   -0.86605E+00   -0.86616E+00  7392   0.108E+01-0.202E-02
CGA:   3    -0.362999010102E+03   -0.16953E+00   -0.16956E+00  7392   0.272E+00 0.289E-03
CGA:   4    -0.363042289430E+03   -0.43279E-01   -0.43338E-01  7392   0.556E-01 0.588E-03
CGA:   5    -0.363052943639E+03   -0.10654E-01   -0.10649E-01  7392   0.166E-01-0.947E-04
CGA:   6    -0.363056202759E+03   -0.32591E-02   -0.32448E-02  7392   0.456E-02-0.276E-03
CGA:   7    -0.363057270365E+03   -0.10676E-02   -0.10671E-02  7392   0.176E-02-0.601E-04
CGA:   8    -0.363057731629E+03   -0.46126E-03   -0.46045E-03  7392   0.728E-03 0.424E-04
CGA:   9    -0.363057963664E+03   -0.23204E-03   -0.23228E-03  7392   0.310E-03-0.376E-05
CGA:  10    -0.363058060203E+03   -0.96539E-04   -0.98628E-04  7392   0.118E-03-0.298E-04
CGA:  11    -0.363058093693E+03   -0.33490E-04   -0.34507E-04  7392   0.447E-04-0.144E-04
CGA:  12    -0.363058106743E+03   -0.13050E-04   -0.12937E-04  7392   0.199E-04 0.154E-05
CGA:  13    -0.363058115073E+03   -0.83307E-05   -0.79255E-05  7392   0.123E-04 0.323E-05
  46 F= -.36305812E+03 E0= -.36305812E+03  d E =-.199061E-02  mag=    16.0000
       N       E                     dE             d eps       ncg     rms          ort
SDA:   1    -0.362057054730E+03    0.10011E+01    0.00000E+00  7392   0.244E+01 0.000E+00
CGA:   2    -0.362832235960E+03   -0.77518E+00   -0.77516E+00  7392   0.110E+01-0.513E-03
CGA:   3    -0.363004196995E+03   -0.17196E+00   -0.17202E+00  7392   0.282E+00 0.417E-03
CGA:   4    -0.363050852080E+03   -0.46655E-01   -0.46698E-01  7392   0.568E-01 0.406E-03
CGA:   5    -0.363061482951E+03   -0.10631E-01   -0.10639E-01  7392   0.164E-01 0.949E-04
CGA:   6    -0.363064847508E+03   -0.33646E-02   -0.33572E-02  7392   0.478E-02-0.127E-03
CGA:   7    -0.363065981541E+03   -0.11340E-02   -0.11325E-02  7392   0.181E-02-0.744E-04
CGA:   8    -0.363066464531E+03   -0.48299E-03   -0.48272E-03  7392   0.771E-03 0.210E-04
CGA:   9    -0.363066711880E+03   -0.24735E-03   -0.25032E-03  7392   0.338E-03-0.483E-04
CGA:  10    -0.363066810235E+03   -0.98355E-04   -0.10049E-03  7392   0.125E-03-0.394E-04
CGA:  11    -0.363066836556E+03   -0.26321E-04   -0.26665E-04  7392   0.337E-04 0.141E-04
CGA:  12    -0.363066848400E+03   -0.11844E-04   -0.11778E-04  7392   0.173E-04 0.133E-05
CGA:  13    -0.363066850375E+03   -0.19748E-05   -0.16272E-04  7392   0.681E-04-0.225E-04
CGA:  14    -0.363066864795E+03   -0.14421E-04   -0.15053E-04  7392   0.962E-05 0.815E-05
CGA:  15    -0.363066819664E+03    0.45132E-04   -0.24437E-04  7392   0.186E-03-0.401E-04
CGA:  16    -0.363066865366E+03   -0.45702E-04   -0.51468E-04  7392   0.225E-04 0.222E-04
CGA:  17    -0.363066602759E+03    0.26261E-03   -0.63548E-04  7392   0.114E-02-0.163E-03
CGA:  18    -0.363066784482E+03   -0.18172E-03   -0.25228E-03  7392   0.171E-03 0.175E-03
CGA:  19    -0.363066890547E+03   -0.10607E-03   -0.94148E-04  7392   0.895E-04-0.949E-04
CGA:  20    -0.363066885888E+03    0.46588E-05   -0.12431E-04  7392   0.190E-04 0.372E-04
  47 F= -.36306689E+03 E0= -.36306689E+03  d E =-.877081E-02  mag=    16.0000
       N       E                     dE             d eps       ncg     rms          ort
SDA:   1    -0.362926159365E+03    0.14073E+00    0.00000E+00  7392   0.367E+00 0.000E+00
CGA:   2    -0.363017314483E+03   -0.91155E-01   -0.91336E-01  7392   0.200E+00 0.465E-03
CGA:   3    -0.363051134372E+03   -0.33820E-01   -0.33796E-01  7392   0.564E-01-0.364E-04
CGA:   4    -0.363060895995E+03   -0.97616E-02   -0.96977E-02  7392   0.134E-01-0.186E-03
CGA:   5    -0.363063306503E+03   -0.24105E-02   -0.24286E-02  7392   0.389E-02 0.552E-04
CGA:   6    -0.363064047112E+03   -0.74061E-03   -0.77808E-03  7392   0.116E-02 0.130E-03
CGA:   7    -0.363064316106E+03   -0.26899E-03   -0.28175E-03  7392   0.454E-03 0.537E-04
CGA:   8    -0.363064443888E+03   -0.12778E-03   -0.12852E-03  7392   0.186E-03 0.381E-05
CGA:   9    -0.363064490260E+03   -0.46371E-04   -0.49503E-04  7392   0.642E-04 0.168E-04
CGA:  10    -0.363064504262E+03   -0.14002E-04   -0.16816E-04  7392   0.212E-04 0.141E-04
CGA:  11    -0.363064510041E+03   -0.57795E-05   -0.67182E-05  7392   0.856E-05 0.549E-05
  48 F= -.36306451E+03 E0= -.36306451E+03  d E =0.237585E-02  mag=    16.0000
       N       E                     dE             d eps       ncg     rms          ort
SDA:   1    -0.362833812572E+03    0.23069E+00    0.00000E+00  7392   0.545E+00 0.000E+00
CGA:   2    -0.363018993665E+03   -0.18518E+00   -0.18517E+00  7392   0.215E+00-0.240E-03
CGA:   3    -0.363052865888E+03   -0.33872E-01   -0.33897E-01  7392   0.564E-01 0.973E-04
CGA:   4    -0.363061914132E+03   -0.90482E-02   -0.90674E-02  7392   0.115E-01 0.766E-04
CGA:   5    -0.363064145214E+03   -0.22311E-02   -0.22174E-02  7392   0.343E-02-0.720E-04
CGA:   6    -0.363064827832E+03   -0.68262E-03   -0.67162E-03  7392   0.964E-03-0.617E-04
CGA:   7    -0.363065051352E+03   -0.22352E-03   -0.22332E-03  7392   0.359E-03-0.160E-05
CGA:   8    -0.363065146407E+03   -0.95055E-04   -0.95765E-04  7392   0.151E-03 0.752E-05
CGA:   9    -0.363065193748E+03   -0.47341E-04   -0.47330E-04  7392   0.620E-04-0.219E-06
CGA:  10    -0.363065212969E+03   -0.19221E-04   -0.19045E-04  7392   0.219E-04-0.381E-05
CGA:  11    -0.363065220510E+03   -0.75418E-05   -0.76614E-05  7392   0.113E-04-0.587E-05
  49 F= -.36306522E+03 E0= -.36306522E+03  d E =-.710469E-03  mag=    16.0000
       N       E                     dE             d eps       ncg     rms          ort
SDA:   1    -0.363026812928E+03    0.38400E-01    0.00000E+00  7392   0.918E-01 0.000E+00
CGA:   2    -0.363053999532E+03   -0.27187E-01   -0.27225E-01  7392   0.468E-01 0.728E-03
CGA:   3    -0.363061353554E+03   -0.73540E-02   -0.73560E-02  7392   0.115E-01 0.666E-05
CGA:   4    -0.363063320800E+03   -0.19672E-02   -0.19344E-02  7392   0.249E-02-0.197E-03
CGA:   5    -0.363063778489E+03   -0.45769E-03   -0.44868E-03  7392   0.718E-03-0.630E-04
CGA:   6    -0.363063910113E+03   -0.13162E-03   -0.13407E-03  7392   0.186E-03 0.189E-04
CGA:   7    -0.363063948220E+03   -0.38107E-04   -0.40133E-04  7392   0.613E-04 0.194E-04
CGA:   8    -0.363063967105E+03   -0.18885E-04   -0.18950E-04  7392   0.296E-04 0.228E-05
CGA:   9    -0.363063978791E+03   -0.11686E-04   -0.13087E-04  7392   0.273E-04-0.118E-04
CGA:  10    -0.363063982873E+03   -0.40822E-05   -0.38568E-05  7392   0.117E-04-0.290E-05
  50 F= -.36306398E+03 E0= -.36306398E+03  d E =0.123764E-02  mag=    16.0000
       N       E                     dE             d eps       ncg     rms          ort
SDA:   1    -0.362967342850E+03    0.96636E-01    0.00000E+00  7392   0.226E+00 0.000E+00
CGA:   2    -0.363048304824E+03   -0.80962E-01   -0.81000E-01  7392   0.684E-01-0.671E-03
CGA:   3    -0.363061058496E+03   -0.12754E-01   -0.12785E-01  7392   0.168E-01 0.262E-03
CGA:   4    -0.363063545463E+03   -0.24870E-02   -0.25012E-02  7392   0.381E-02 0.937E-04
CGA:   5    -0.363064348658E+03   -0.80319E-03   -0.80047E-03  7392   0.996E-03-0.335E-04
CGA:   6    -0.363064546662E+03   -0.19800E-03   -0.19520E-03  7392   0.326E-03-0.317E-04
CGA:   7    -0.363064623044E+03   -0.76381E-04   -0.76281E-04  7392   0.120E-03-0.250E-05
CGA:   8    -0.363064653608E+03   -0.30564E-04   -0.30792E-04  7392   0.512E-04 0.102E-04
CGA:   9    -0.363064669526E+03   -0.15918E-04   -0.15880E-04  7392   0.196E-04 0.557E-05
CGA:  10    -0.363064676722E+03   -0.71963E-05   -0.72582E-05  7392   0.894E-05-0.115E-05
  51 F= -.36306468E+03 E0= -.36306468E+03  d E =-.693849E-03  mag=    16.0000
       N       E                     dE             d eps       ncg     rms          ort
SDA:   1    -0.362872801777E+03    0.19187E+00    0.00000E+00  7392   0.463E+00 0.000E+00
CGA:   2    -0.363025799555E+03   -0.15300E+00   -0.15306E+00  7392   0.177E+00-0.153E-02
CGA:   3    -0.363056088778E+03   -0.30289E-01   -0.30319E-01  7392   0.494E-01 0.266E-03
CGA:   4    -0.363063466706E+03   -0.73779E-02   -0.74265E-02  7392   0.951E-02 0.360E-03
CGA:   5    -0.363065348087E+03   -0.18814E-02   -0.18898E-02  7392   0.285E-02 0.105E-03
CGA:   6    -0.363065916011E+03   -0.56792E-03   -0.56513E-03  7392   0.851E-03-0.373E-04
CGA:   7    -0.363066130090E+03   -0.21408E-03   -0.21359E-03  7392   0.366E-03-0.331E-04
CGA:   8    -0.363066223278E+03   -0.93189E-04   -0.93205E-04  7392   0.158E-03 0.492E-05
CGA:   9    -0.363066268220E+03   -0.44942E-04   -0.44752E-04  7392   0.583E-04 0.163E-04
CGA:  10    -0.363066287918E+03   -0.19697E-04   -0.19622E-04  7392   0.240E-04 0.207E-05
CGA:  11    -0.363066297379E+03   -0.94612E-05   -0.13305E-04  7392   0.339E-04-0.145E-04
  52 F= -.36306630E+03 E0= -.36306630E+03  d E =-.162066E-02  mag=    16.0000
       N       E                     dE             d eps       ncg     rms          ort
SDA:   1    -0.363042179815E+03    0.24108E-01    0.00000E+00  7392   0.577E-01 0.000E+00
CGA:   2    -0.363060139872E+03   -0.17960E-01   -0.17934E-01  7392   0.220E-01 0.822E-03
CGA:   3    -0.363064239465E+03   -0.40996E-02   -0.40845E-02  7392   0.731E-02-0.156E-03
CGA:   4    -0.363065415902E+03   -0.11764E-02   -0.11537E-02  7392   0.149E-02-0.195E-03
CGA:   5    -0.363065723621E+03   -0.30772E-03   -0.30439E-03  7392   0.490E-03-0.547E-04
CGA:   6    -0.363065812483E+03   -0.88862E-04   -0.90406E-04  7392   0.146E-03 0.203E-04
CGA:   7    -0.363065847306E+03   -0.34823E-04   -0.35378E-04  7392   0.535E-04 0.183E-04
CGA:   8    -0.363065864915E+03   -0.17609E-04   -0.17640E-04  7392   0.290E-04-0.101E-05
CGA:   9    -0.363065874185E+03   -0.92697E-05   -0.96487E-05  7392   0.148E-04-0.506E-05
  53 F= -.36306587E+03 E0= -.36306587E+03  d E =0.423194E-03  mag=    16.0000
       N       E                     dE             d eps       ncg     rms          ort
SDA:   1    -0.362994535457E+03    0.71329E-01    0.00000E+00  7392   0.166E+00 0.000E+00
CGA:   2    -0.363054473368E+03   -0.59938E-01   -0.59974E-01  7392   0.472E-01-0.412E-03
CGA:   3    -0.363063665121E+03   -0.91918E-02   -0.92083E-02  7392   0.106E-01 0.202E-03
CGA:   4    -0.363065256629E+03   -0.15915E-02   -0.15958E-02  7392   0.276E-02 0.337E-04
CGA:   5    -0.363065831192E+03   -0.57456E-03   -0.57101E-03  7392   0.673E-03-0.592E-04
CGA:   6    -0.363065965670E+03   -0.13448E-03   -0.13277E-03  7392   0.234E-03-0.277E-04
CGA:   7    -0.363066018639E+03   -0.52969E-04   -0.52981E-04  7392   0.825E-04 0.471E-06
CGA:   8    -0.363066040436E+03   -0.21797E-04   -0.21764E-04  7392   0.367E-04 0.823E-05
CGA:   9    -0.363066053350E+03   -0.12914E-04   -0.12884E-04  7392   0.174E-04 0.504E-06
CGA:  10    -0.363066059824E+03   -0.64737E-05   -0.73090E-05  7392   0.131E-04-0.549E-05
  54 F= -.36306606E+03 E0= -.36306606E+03  d E =-.185639E-03  mag=    16.0000
