       N       E                     dE             d eps       ncg     rms          ort
DAV:   1     0.284774241325E+04    0.28477E+04   -0.13305E+05 10584   0.174E+03
DAV:   2    -0.608258483897E+02   -0.29086E+04   -0.26119E+04 10584   0.449E+02
DAV:   3    -0.476074268703E+03   -0.41525E+03   -0.40611E+03 10584   0.194E+02
DAV:   4    -0.494559092691E+03   -0.18485E+02   -0.18282E+02 10584   0.405E+01
DAV:   5    -0.495114662857E+03   -0.55557E+00   -0.55300E+00 10584   0.587E+00
SDA:   6    -0.171857392911E+03    0.32326E+03   -0.55300E+00 10584   0.997E+03 0.000E+00
CGA:   7    -0.299800255694E+03   -0.12794E+03   -0.13377E+03 10584   0.156E+03 0.113E+02
CGA:   8    -0.327396417167E+03   -0.27596E+02   -0.27154E+02 10584   0.704E+02-0.519E+01
CGA:   9    -0.337850557536E+03   -0.10454E+02   -0.10059E+02 10584   0.471E+02-0.142E+01
CGA:  10    -0.345421231855E+03   -0.75707E+01   -0.75833E+01 10584   0.291E+02 0.168E+00
CGA:  11    -0.348913476462E+03   -0.34922E+01   -0.34907E+01 10584   0.125E+02-0.346E-03
CGA:  12    -0.350754728465E+03   -0.18413E+01   -0.18383E+01 10584   0.619E+01-0.934E-01
CGA:  13    -0.351560570360E+03   -0.80584E+00   -0.79933E+00 10584   0.258E+01-0.519E-01
CGA:  14    -0.351992217305E+03   -0.43165E+00   -0.43141E+00 10584   0.173E+01-0.950E-02
CGA:  15    -0.352263394282E+03   -0.27118E+00   -0.27143E+00 10584   0.916E+00 0.152E-01
CGA:  16    -0.352424911270E+03   -0.16152E+00   -0.16152E+00 10584   0.627E+00 0.443E-02
CGA:  17    -0.352529539273E+03   -0.10463E+00   -0.10421E+00 10584   0.347E+00-0.156E-01
CGA:  18    -0.352590923885E+03   -0.61385E-01   -0.61398E-01 10584   0.290E+00-0.112E-01
CGA:  19    -0.352635469824E+03   -0.44546E-01   -0.44393E-01 10584   0.141E+00-0.907E-02
CGA:  20    -0.352663275302E+03   -0.27805E-01   -0.28705E-01 10584   0.162E+00-0.271E-01
CGA:  21    -0.352680037301E+03   -0.16762E-01   -0.15681E-01 10584   0.813E-01-0.171E-01
CGA:  22    -0.352689331446E+03   -0.92941E-02   -0.87310E-02 10584   0.768E-01-0.978E-02
CGA:  23    -0.352700119649E+03   -0.10788E-01   -0.10503E-01 10584   0.463E-01-0.151E-01
CGA:  24    -0.352704060596E+03   -0.39409E-02   -0.35286E-02 10584   0.318E-01-0.451E-02
CGA:  25    -0.352708139327E+03   -0.40787E-02   -0.40447E-02 10584   0.320E-01-0.139E-02
CGA:  26    -0.352711361023E+03   -0.32217E-02   -0.32469E-02 10584   0.164E-01-0.206E-04
CGA:  27    -0.352712985153E+03   -0.16241E-02   -0.16269E-02 10584   0.121E-01 0.221E-03
CGA:  28    -0.352714573404E+03   -0.15883E-02   -0.16488E-02 10584   0.121E-01 0.225E-02
CGA:  29    -0.352715478828E+03   -0.90542E-03   -0.11458E-02 10584   0.451E-02 0.285E-02
CGA:  30    -0.352715975843E+03   -0.49701E-03   -0.59071E-03 10584   0.465E-02 0.184E-02
CGA:  31    -0.352716784293E+03   -0.80845E-03   -0.84437E-03 10584   0.192E-02 0.139E-02
CGA:  32    -0.352717114681E+03   -0.33039E-03   -0.33496E-03 10584   0.223E-02 0.242E-03
CGA:  33    -0.352717299115E+03   -0.18443E-03   -0.24302E-03 10584   0.149E-02 0.995E-03
CGA:  34    -0.352717356067E+03   -0.56952E-04   -0.13739E-03 10584   0.716E-03 0.878E-03
CGA:  35    -0.352717532001E+03   -0.17593E-03   -0.15448E-03 10584   0.579E-03 0.305E-03
CGA:  36    -0.352717581285E+03   -0.49284E-04   -0.73961E-04 10584   0.183E-03 0.422E-03
CGA:  37    -0.352717672950E+03   -0.91665E-04   -0.76656E-04 10584   0.463E-03 0.508E-04
CGA:  38    -0.352717664547E+03    0.84025E-05   -0.33987E-04 10584   0.149E-03 0.402E-03
   1 F= -.35271766E+03 E0= -.35271654E+03  d E =-.352718E+03  mag=    20.0000
       N       E                     dE             d eps       ncg     rms          ort
SDA:   1    -0.352756744857E+03   -0.39072E-01    0.00000E+00 10584   0.174E-01 0.000E+00
CGA:   2    -0.352758445652E+03   -0.17008E-02   -0.15370E-02 10584   0.824E-02-0.258E-02
CGA:   3    -0.352759260904E+03   -0.81525E-03   -0.84497E-03 10584   0.220E-02 0.121E-02
CGA:   4    -0.352759419043E+03   -0.15814E-03   -0.20308E-03 10584   0.707E-03 0.709E-03
CGA:   5    -0.352759600264E+03   -0.18122E-03   -0.27454E-03 10584   0.281E-02-0.610E-03
CGA:   6    -0.352759719459E+03   -0.11920E-03   -0.14349E-03 10584   0.154E-03 0.227E-03
CGA:   7    -0.352758929821E+03    0.78964E-03   -0.42646E-03 10584   0.120E-01-0.121E-02
CGA:   8    -0.352759610903E+03   -0.68108E-03   -0.85399E-03 10584   0.638E-03 0.747E-03
CGA:   9    -0.352759719356E+03   -0.10845E-03   -0.10381E-03 10584   0.106E-03-0.480E-04
CGA:  10    -0.352759784517E+03   -0.65161E-04    0.35044E-04 10584   0.215E-03-0.909E-04
CGA:  11    -0.352759769543E+03    0.14974E-04   -0.74454E-05 10584   0.551E-04 0.105E-03
CGA:  12    -0.352759760969E+03    0.85735E-05   -0.17566E-05 10584   0.214E-04 0.480E-04
   2 F= -.35275976E+03 E0= -.35275842E+03  d E =-.420964E-01  mag=    20.0000
       N       E                     dE             d eps       ncg     rms          ort
SDA:   1    -0.349406826170E+03    0.33529E+01    0.00000E+00 10584   0.152E+02 0.000E+00
CGA:   2    -0.352414926591E+03   -0.30081E+01   -0.29736E+01 10584   0.154E+02-0.717E+00
CGA:   3    -0.353416542136E+03   -0.10016E+01   -0.12842E+01 10584   0.337E+01-0.155E+01
CGA:   4    -0.354073104461E+03   -0.65656E+00   -0.65744E+00 10584   0.111E+01-0.694E-01
CGA:   5    -0.354185221095E+03   -0.11212E+00   -0.11879E+00 10584   0.442E+00-0.128E-01
CGA:   6    -0.354247293568E+03   -0.62072E-01   -0.60786E-01 10584   0.145E+00-0.868E-02
CGA:   7    -0.354269286384E+03   -0.21993E-01   -0.22175E-01 10584   0.772E-01 0.196E-02
CGA:   8    -0.354281233060E+03   -0.11947E-01   -0.11929E-01 10584   0.418E-01-0.320E-04
CGA:   9    -0.354288399652E+03   -0.71666E-02   -0.72269E-02 10584   0.215E-01 0.224E-02
CGA:  10    -0.354292153370E+03   -0.37537E-02   -0.36850E-02 10584   0.163E-01-0.207E-02
CGA:  11    -0.354293887667E+03   -0.17343E-02   -0.18515E-02 10584   0.390E-02 0.161E-02
CGA:  12    -0.354295049954E+03   -0.11623E-02   -0.11516E-02 10584   0.155E-02 0.130E-03
CGA:  13    -0.354295414240E+03   -0.36429E-03   -0.39320E-03 10584   0.252E-02-0.554E-03
CGA:  14    -0.354295548984E+03   -0.13474E-03   -0.15239E-03 10584   0.108E-02 0.168E-03
CGA:  15    -0.354295582055E+03   -0.33071E-04   -0.68672E-04 10584   0.468E-03 0.267E-03
CGA:  16    -0.354295616810E+03   -0.34755E-04   -0.55225E-04 10584   0.474E-03 0.227E-03
CGA:  17    -0.354295705723E+03   -0.88913E-04   -0.90638E-04 10584   0.155E-03 0.321E-04
CGA:  18    -0.354294589646E+03    0.11161E-02   -0.60329E-03 10584   0.155E-01-0.136E-02
CGA:  19    -0.354295376246E+03   -0.78660E-03   -0.10778E-02 10584   0.909E-03 0.755E-03
CGA:  20    -0.354295569164E+03   -0.19292E-03   -0.18601E-03 10584   0.942E-03-0.603E-04
CGA:  21    -0.354295708025E+03   -0.13886E-03   -0.11698E-03 10584   0.249E-03-0.129E-03
CGA:  22    -0.354295758218E+03   -0.50193E-04   -0.42424E-04 10584   0.930E-04-0.793E-04
CGA:  23    -0.354295752579E+03    0.56388E-05   -0.37595E-05 10584   0.559E-04 0.404E-04
   3 F= -.35429575E+03 E0= -.35429506E+03  d E =-.153599E+01  mag=    20.0000
       N       E                     dE             d eps       ncg     rms          ort
SDA:   1    -0.347343333044E+03    0.69524E+01    0.00000E+00 10584   0.261E+02 0.000E+00
CGA:   2    -0.352819404586E+03   -0.54761E+01   -0.54118E+01 10584   0.146E+02-0.125E+00
CGA:   3    -0.354122265056E+03   -0.13029E+01   -0.16200E+01 10584   0.585E+01-0.124E+01
CGA:   4    -0.355063172990E+03   -0.94091E+00   -0.87740E+00 10584   0.152E+01 0.169E+00
CGA:   5    -0.355276499657E+03   -0.21333E+00   -0.22042E+00 10584   0.597E+00-0.845E-02
CGA:   6    -0.355359475046E+03   -0.82975E-01   -0.80276E-01 10584   0.180E+00-0.474E-02
CGA:   7    -0.355392884820E+03   -0.33410E-01   -0.33884E-01 10584   0.970E-01 0.513E-02
CGA:   8    -0.355408604948E+03   -0.15720E-01   -0.15572E-01 10584   0.623E-01-0.985E-03
CGA:   9    -0.355419854710E+03   -0.11250E-01   -0.11349E-01 10584   0.251E-01 0.110E-02
CGA:  10    -0.355425134937E+03   -0.52802E-02   -0.52860E-02 10584   0.164E-01 0.205E-03
CGA:  11    -0.355427497841E+03   -0.23629E-02   -0.23828E-02 10584   0.601E-02 0.541E-04
CGA:  12    -0.355428807482E+03   -0.13096E-02   -0.13054E-02 10584   0.395E-02-0.390E-03
CGA:  13    -0.355429157440E+03   -0.34996E-03   -0.40944E-03 10584   0.112E-02 0.476E-03
CGA:  14    -0.355429592288E+03   -0.43485E-03   -0.45854E-03 10584   0.820E-03-0.168E-03
CGA:  15    -0.355429646416E+03   -0.54128E-04   -0.74877E-04 10584   0.426E-03 0.170E-03
CGA:  16    -0.355429721320E+03   -0.74904E-04   -0.84360E-04 10584   0.249E-03 0.162E-03
CGA:  17    -0.355429798931E+03   -0.77611E-04   -0.81216E-04 10584   0.539E-03-0.218E-03
CGA:  18    -0.355429810466E+03   -0.11535E-04   -0.33203E-04 10584   0.735E-04 0.135E-03
CGA:  19    -0.355429811497E+03   -0.10311E-05   -0.68876E-05 10584   0.478E-04 0.425E-04
CGA:  20    -0.355429839229E+03   -0.27732E-04    0.11870E-04 10584   0.544E-04 0.749E-06
CGA:  21    -0.355429842627E+03   -0.33977E-05   -0.58612E-05 10584   0.165E-04 0.246E-04
   4 F= -.35542984E+03 E0= -.35542961E+03  d E =-.113409E+01  mag=    20.0000
       N       E                     dE             d eps       ncg     rms          ort
SDA:   1    -0.350422835050E+03    0.50070E+01    0.00000E+00 10584   0.176E+02 0.000E+00
CGA:   2    -0.354263829762E+03   -0.38410E+01   -0.38389E+01 10584   0.678E+01 0.542E-01
CGA:   3    -0.355127274556E+03   -0.86344E+00   -0.87906E+00 10584   0.339E+01 0.913E-02
CGA:   4    -0.355698457281E+03   -0.57118E+00   -0.56944E+00 10584   0.743E+00-0.352E-01
CGA:   5    -0.355809412907E+03   -0.11096E+00   -0.11149E+00 10584   0.301E+00 0.614E-02
CGA:   6    -0.355851121139E+03   -0.41708E-01   -0.41255E-01 10584   0.973E-01-0.584E-02
CGA:   7    -0.355868146489E+03   -0.17025E-01   -0.17055E-01 10584   0.373E-01 0.427E-02
CGA:   8    -0.355877649757E+03   -0.95033E-02   -0.95660E-02 10584   0.309E-01-0.103E-02
CGA:   9    -0.355881783686E+03   -0.41339E-02   -0.42028E-02 10584   0.134E-01 0.121E-02
CGA:  10    -0.355885086349E+03   -0.33027E-02   -0.33141E-02 10584   0.633E-02-0.231E-03
CGA:  11    -0.355886261139E+03   -0.11748E-02   -0.11752E-02 10584   0.419E-02-0.373E-03
CGA:  12    -0.355886788711E+03   -0.52757E-03   -0.54163E-03 10584   0.106E-02 0.273E-03
CGA:  13    -0.355887061897E+03   -0.27319E-03   -0.26333E-03 10584   0.356E-03 0.205E-03
CGA:  14    -0.355887126744E+03   -0.64847E-04   -0.20543E-03 10584   0.212E-02-0.477E-03
CGA:  15    -0.355887196738E+03   -0.69995E-04   -0.13232E-03 10584   0.204E-03 0.434E-03
CGA:  16    -0.355887203594E+03   -0.68560E-05   -0.19148E-04 10584   0.117E-03 0.104E-03
CGA:  17    -0.355887263283E+03   -0.59689E-04    0.32566E-04 10584   0.996E-04 0.531E-05
CGA:  18    -0.355887266211E+03   -0.29281E-05   -0.85282E-05 10584   0.281E-04 0.518E-04
   5 F= -.35588727E+03 E0= -.35588715E+03  d E =-.457424E+00  mag=    20.0000
       N       E                     dE             d eps       ncg     rms          ort
SDA:   1    -0.352097719860E+03    0.37895E+01    0.00000E+00 10584   0.124E+02 0.000E+00
CGA:   2    -0.354911176573E+03   -0.28135E+01   -0.28109E+01 10584   0.430E+01 0.335E-01
CGA:   3    -0.355563511164E+03   -0.65233E+00   -0.65220E+00 10584   0.248E+01-0.704E-02
CGA:   4    -0.355922348490E+03   -0.35884E+00   -0.35796E+00 10584   0.549E+00-0.817E-02
CGA:   5    -0.356007311450E+03   -0.84963E-01   -0.85100E-01 10584   0.178E+00 0.409E-02
CGA:   6    -0.356034628495E+03   -0.27317E-01   -0.27187E-01 10584   0.736E-01-0.478E-02
CGA:   7    -0.356045133809E+03   -0.10505E-01   -0.10592E-01 10584   0.274E-01 0.292E-02
CGA:   8    -0.356052478183E+03   -0.73444E-02   -0.75086E-02 10584   0.183E-01-0.182E-02
CGA:   9    -0.356055475323E+03   -0.29971E-02   -0.29985E-02 10584   0.112E-01 0.727E-03
CGA:  10    -0.356057568142E+03   -0.20928E-02   -0.20940E-02 10584   0.532E-02-0.535E-03
CGA:  11    -0.356058480860E+03   -0.91272E-03   -0.91209E-03 10584   0.217E-02 0.206E-03
CGA:  12    -0.356058861888E+03   -0.38103E-03   -0.38186E-03 10584   0.918E-03 0.998E-04
CGA:  13    -0.356059024205E+03   -0.16232E-03   -0.16285E-03 10584   0.372E-03 0.717E-04
CGA:  14    -0.356059111702E+03   -0.87497E-04   -0.90924E-04 10584   0.305E-03-0.685E-04
CGA:  15    -0.356059131331E+03   -0.19629E-04   -0.24494E-04 10584   0.101E-03 0.598E-04
CGA:  16    -0.356059152030E+03   -0.20699E-04   -0.20738E-04 10584   0.117E-03 0.111E-04
CGA:  17    -0.356059175701E+03   -0.23671E-04   -0.26130E-04 10584   0.101E-03-0.969E-04
CGA:  18    -0.356059178516E+03   -0.28147E-05   -0.71701E-05 10584   0.315E-04 0.412E-04
   6 F= -.35605918E+03 E0= -.35605907E+03  d E =-.171912E+00  mag=    20.0000
       N       E                     dE             d eps       ncg     rms          ort
SDA:   1    -0.350669501086E+03    0.53897E+01    0.00000E+00 10584   0.149E+02 0.000E+00
CGA:   2    -0.354453373516E+03   -0.37839E+01   -0.37763E+01 10584   0.718E+01 0.730E-01
CGA:   3    -0.355489740686E+03   -0.10364E+01   -0.10259E+01 10584   0.315E+01-0.108E+00
CGA:   4    -0.355928295653E+03   -0.43855E+00   -0.44063E+00 10584   0.751E+00 0.295E-01
CGA:   5    -0.356042662586E+03   -0.11437E+00   -0.11438E+00 10584   0.200E+00 0.122E-02
CGA:   6    -0.356075563035E+03   -0.32900E-01   -0.32893E-01 10584   0.777E-01-0.151E-02
CGA:   7    -0.356086904935E+03   -0.11342E-01   -0.11389E-01 10584   0.316E-01 0.192E-02
CGA:   8    -0.356093638454E+03   -0.67335E-02   -0.67975E-02 10584   0.169E-01-0.149E-02
CGA:   9    -0.356096844529E+03   -0.32061E-02   -0.31955E-02 10584   0.980E-02 0.329E-03
CGA:  10    -0.356098641664E+03   -0.17971E-02   -0.17994E-02 10584   0.535E-02-0.247E-03
CGA:  11    -0.356099596813E+03   -0.95515E-03   -0.95435E-03 10584   0.225E-02 0.589E-04
CGA:  12    -0.356099968822E+03   -0.37201E-03   -0.37416E-03 10584   0.846E-03 0.282E-03
CGA:  13    -0.356100178378E+03   -0.20956E-03   -0.21314E-03 10584   0.514E-03-0.692E-04
CGA:  14    -0.356100220259E+03   -0.41882E-04   -0.50044E-04 10584   0.168E-03 0.119E-03
CGA:  15    -0.356100254541E+03   -0.34282E-04   -0.34539E-04 10584   0.111E-03 0.723E-04
CGA:  16    -0.356100286132E+03   -0.31591E-04   -0.37718E-04 10584   0.237E-03-0.930E-04
CGA:  17    -0.356100293419E+03   -0.72867E-05   -0.14273E-04 10584   0.386E-04 0.612E-04
   7 F= -.35610029E+03 E0= -.35610025E+03  d E =-.411149E-01  mag=    20.0000
       N       E                     dE             d eps       ncg     rms          ort
SDA:   1    -0.346476823761E+03    0.96235E+01    0.00000E+00 10584   0.253E+02 0.000E+00
CGA:   2    -0.352511809142E+03   -0.60350E+01   -0.59710E+01 10584   0.181E+02 0.691E+00
CGA:   3    -0.354944357474E+03   -0.24325E+01   -0.23871E+01 10584   0.542E+01-0.206E+00
CGA:   4    -0.355762031839E+03   -0.81767E+00   -0.81571E+00 10584   0.162E+01-0.612E-01
CGA:   5    -0.355943519674E+03   -0.18149E+00   -0.18570E+00 10584   0.542E+00 0.264E-01
CGA:   6    -0.356019713028E+03   -0.76193E-01   -0.75590E-01 10584   0.155E+00-0.154E-01
CGA:   7    -0.356045055781E+03   -0.25343E-01   -0.25291E-01 10584   0.602E-01 0.608E-02
CGA:   8    -0.356055916264E+03   -0.10860E-01   -0.10954E-01 10584   0.438E-01-0.628E-02
CGA:   9    -0.356060936855E+03   -0.50206E-02   -0.50616E-02 10584   0.152E-01 0.837E-03
CGA:  10    -0.356064390888E+03   -0.34540E-02   -0.34531E-02 10584   0.919E-02-0.163E-04
CGA:  11    -0.356065949636E+03   -0.15587E-02   -0.15692E-02 10584   0.588E-02-0.133E-02
CGA:  12    -0.356066801203E+03   -0.85157E-03   -0.84981E-03 10584   0.163E-02 0.301E-03
CGA:  13    -0.356067060410E+03   -0.25921E-03   -0.26361E-03 10584   0.877E-03 0.430E-03
CGA:  14    -0.356067199519E+03   -0.13911E-03   -0.44428E-03 10584   0.316E-02-0.129E-02
CGA:  15    -0.356067337771E+03   -0.13825E-03   -0.21849E-03 10584   0.516E-03 0.742E-03
CGA:  16    -0.356067406112E+03   -0.68341E-04   -0.77513E-04 10584   0.316E-03 0.189E-03
CGA:  17    -0.356067278642E+03    0.12747E-03   -0.20121E-03 10584   0.278E-02-0.110E-02
CGA:  18    -0.356067411832E+03   -0.13319E-03   -0.20749E-03 10584   0.552E-03 0.675E-03
CGA:  19    -0.356067506115E+03   -0.94284E-04   -0.99125E-04 10584   0.276E-03 0.149E-03
CGA:  20    -0.356067384914E+03    0.12120E-03   -0.14958E-03 10584   0.323E-02-0.108E-02
CGA:  21    -0.356067508123E+03   -0.12321E-03   -0.21076E-03 10584   0.374E-03 0.693E-03
CGA:  22    -0.356067528252E+03   -0.20129E-04   -0.38669E-04 10584   0.209E-03 0.191E-03
CGA:  23    -0.356067614470E+03   -0.86218E-04    0.11333E-03 10584   0.156E-03-0.126E-04
CGA:  24    -0.356067615850E+03   -0.13794E-05   -0.98522E-05 10584   0.487E-04 0.768E-04
   8 F= -.35606762E+03 E0= -.35606729E+03  d E =0.326776E-01  mag=    20.0000
       N       E                     dE             d eps       ncg     rms          ort
SDA:   1    -0.353467222864E+03    0.26004E+01    0.00000E+00 10584   0.672E+01 0.000E+00
CGA:   2    -0.355525512324E+03   -0.20583E+01   -0.20583E+01 10584   0.359E+01-0.197E-02
CGA:   3    -0.355921470350E+03   -0.39596E+00   -0.39224E+00 10584   0.130E+01 0.503E-02
CGA:   4    -0.356133559423E+03   -0.21209E+00   -0.21219E+00 10584   0.250E+00 0.127E-01
CGA:   5    -0.356176089804E+03   -0.42530E-01   -0.42531E-01 10584   0.850E-01-0.287E-02
CGA:   6    -0.356187633698E+03   -0.11544E-01   -0.11657E-01 10584   0.326E-01 0.328E-02
CGA:   7    -0.356193665164E+03   -0.60315E-02   -0.60656E-02 10584   0.149E-01-0.263E-02
CGA:   8    -0.356196187531E+03   -0.25224E-02   -0.25122E-02 10584   0.669E-02 0.591E-03
CGA:   9    -0.356197536896E+03   -0.13494E-02   -0.13584E-02 10584   0.451E-02-0.337E-03
CGA:  10    -0.356198182159E+03   -0.64526E-03   -0.64680E-03 10584   0.180E-02 0.728E-04
CGA:  11    -0.356198530448E+03   -0.34829E-03   -0.34491E-03 10584   0.600E-03 0.169E-03
CGA:  12    -0.356198683489E+03   -0.15304E-03   -0.15750E-03 10584   0.447E-03-0.643E-04
CGA:  13    -0.356198712931E+03   -0.29441E-04   -0.37133E-04 10584   0.129E-03 0.953E-04
CGA:  14    -0.356198727745E+03   -0.14814E-04   -0.18062E-04 10584   0.965E-04 0.607E-04
CGA:  15    -0.356198754220E+03   -0.26476E-04   -0.26746E-04 10584   0.493E-04-0.132E-04
CGA:  16    -0.356198738488E+03    0.15733E-04   -0.33101E-04 10584   0.349E-03-0.822E-04
CGA:  17    -0.356198753936E+03   -0.15449E-04   -0.26010E-04 10584   0.901E-04 0.846E-04
CGA:  18    -0.356198775948E+03   -0.22012E-04   -0.21956E-04 10584   0.587E-04 0.128E-04
CGA:  19    -0.356197996171E+03    0.77978E-03   -0.42613E-03 10584   0.106E-01-0.824E-03
CGA:  20    -0.356198595085E+03   -0.59891E-03   -0.72093E-03 10584   0.621E-03 0.179E-03
CGA:  21    -0.356198753266E+03   -0.15818E-03   -0.16569E-03 10584   0.153E-03 0.102E-03
CGA:  22    -0.356198817623E+03   -0.64358E-04   -0.46509E-04 10584   0.659E-03-0.251E-03
CGA:  23    -0.356198813634E+03    0.39891E-05   -0.36461E-04 10584   0.391E-04 0.144E-03
   9 F= -.35619881E+03 E0= -.35619873E+03  d E =-.131198E+00  mag=    20.0000
       N       E                     dE             d eps       ncg     rms          ort
SDA:   1    -0.354938586481E+03    0.12602E+01    0.00000E+00 10584   0.339E+01 0.000E+00
CGA:   2    -0.355904753777E+03   -0.96617E+00   -0.96663E+00 10584   0.164E+01 0.137E-01
CGA:   3    -0.356105366643E+03   -0.20061E+00   -0.18205E+00 10584   0.594E+00 0.111E+00
CGA:   4    -0.356213506136E+03   -0.10814E+00   -0.10907E+00 10584   0.119E+00 0.481E-02
CGA:   5    -0.356232227566E+03   -0.18721E-01   -0.18925E-01 10584   0.442E-01 0.133E-02
CGA:   6    -0.356238952443E+03   -0.67249E-02   -0.65222E-02 10584   0.170E-01-0.129E-02
CGA:   7    -0.356241562592E+03   -0.26101E-02   -0.26658E-02 10584   0.547E-02 0.468E-03
CGA:   8    -0.356242856183E+03   -0.12936E-02   -0.12966E-02 10584   0.317E-02 0.805E-04
CGA:   9    -0.356243453068E+03   -0.59689E-03   -0.58055E-03 10584   0.244E-02-0.195E-03
CGA:  10    -0.356243734665E+03   -0.28160E-03   -0.31652E-03 10584   0.708E-03 0.279E-03
CGA:  11    -0.356243965908E+03   -0.23124E-03   -0.23380E-03 10584   0.398E-03-0.610E-04
CGA:  12    -0.356244005716E+03   -0.39807E-04   -0.43065E-04 10584   0.209E-03 0.230E-04
CGA:  13    -0.356244031652E+03   -0.25937E-04   -0.31736E-04 10584   0.600E-04 0.545E-04
CGA:  14    -0.356244050955E+03   -0.19303E-04   -0.20475E-04 10584   0.170E-03-0.439E-04
CGA:  15    -0.356244054453E+03   -0.34980E-05   -0.10056E-04 10584   0.185E-04 0.349E-04
  10 F= -.35624405E+03 E0= -.35624397E+03  d E =-.452408E-01  mag=    20.0000
       N       E                     dE             d eps       ncg     rms          ort
SDA:   1    -0.354086406134E+03    0.21576E+01    0.00000E+00 10584   0.525E+01 0.000E+00
CGA:   2    -0.355670128147E+03   -0.15837E+01   -0.15774E+01 10584   0.362E+01 0.670E-01
CGA:   3    -0.356071672347E+03   -0.40154E+00   -0.37018E+00 10584   0.743E+00 0.175E+00
CGA:   4    -0.356215944263E+03   -0.14427E+00   -0.14462E+00 10584   0.192E+00 0.812E-02
CGA:   5    -0.356242848523E+03   -0.26904E-01   -0.27123E-01 10584   0.691E-01 0.204E-02
CGA:   6    -0.356252603723E+03   -0.97552E-02   -0.96248E-02 10584   0.222E-01-0.136E-02
CGA:   7    -0.356256524958E+03   -0.39212E-02   -0.39209E-02 10584   0.701E-02-0.266E-04
CGA:   8    -0.356257771618E+03   -0.12467E-02   -0.12597E-02 10584   0.381E-02 0.387E-03
CGA:   9    -0.356258508471E+03   -0.73685E-03   -0.72030E-03 10584   0.272E-02-0.518E-03
CGA:  10    -0.356258800391E+03   -0.29192E-03   -0.32187E-03 10584   0.801E-03 0.407E-03
CGA:  11    -0.356258998449E+03   -0.19806E-03   -0.19694E-03 10584   0.413E-03 0.136E-03
CGA:  12    -0.356259095250E+03   -0.96802E-04   -0.94427E-04 10584   0.629E-03-0.219E-03
CGA:  13    -0.356259108008E+03   -0.12758E-04   -0.35624E-04 10584   0.843E-04 0.151E-03
CGA:  14    -0.356259108173E+03   -0.16477E-06   -0.70551E-05 10584   0.566E-04 0.526E-04
CGA:  15    -0.356259131363E+03   -0.23190E-04    0.79249E-04 10584   0.639E-04 0.227E-05
CGA:  16    -0.356259133038E+03   -0.16750E-05   -0.54710E-05 10584   0.204E-04 0.346E-04
  11 F= -.35625913E+03 E0= -.35625904E+03  d E =-.150786E-01  mag=    20.0000
       N       E                     dE             d eps       ncg     rms          ort
SDA:   1    -0.317510067044E+03    0.38749E+02    0.00000E+00 10584   0.135E+03 0.000E+00
CGA:   2    -0.334730960707E+03   -0.17221E+02   -0.18996E+02 10584   0.807E+02 0.137E+02
CGA:   3    -0.344797914736E+03   -0.10067E+02   -0.62408E+01 10584   0.259E+02 0.519E+02
CGA:   4    -0.348129550454E+03   -0.33316E+01   -0.29635E+01 10584   0.350E+02-0.410E+00
CGA:   5    -0.351441052815E+03   -0.33115E+01   -0.35684E+01 10584   0.285E+02-0.126E+00
CGA:   6    -0.353866335870E+03   -0.24253E+01   -0.24598E+01 10584   0.316E+01 0.656E+00
CGA:   7    -0.354143489098E+03   -0.27715E+00   -0.25136E+00 10584   0.277E+01 0.180E+00
CGA:   8    -0.354308246273E+03   -0.16476E+00   -0.18556E+00 10584   0.700E+00-0.176E+00
CGA:   9    -0.354416770154E+03   -0.10852E+00   -0.10895E+00 10584   0.542E+00-0.274E-01
CGA:  10    -0.354482688565E+03   -0.65918E-01   -0.66670E-01 10584   0.373E+00 0.146E-01
CGA:  11    -0.354506528443E+03   -0.23840E-01   -0.22421E-01 10584   0.144E+00 0.715E-02
CGA:  12    -0.354533223520E+03   -0.26695E-01   -0.26556E-01 10584   0.946E-01 0.300E-02
CGA:  13    -0.354544778265E+03   -0.11555E-01   -0.11310E-01 10584   0.684E-01-0.729E-02
CGA:  14    -0.354549255588E+03   -0.44773E-02   -0.47006E-02 10584   0.438E-01 0.540E-03
CGA:  15    -0.354555326267E+03   -0.60707E-02   -0.60605E-02 10584   0.130E-01-0.172E-02
CGA:  16    -0.354558694954E+03   -0.33687E-02   -0.36640E-02 10584   0.795E-02-0.208E-02
CGA:  17    -0.354559743369E+03   -0.10484E-02   -0.11612E-02 10584   0.295E-01-0.500E-02
CGA:  18    -0.354560567290E+03   -0.82392E-03   -0.10791E-02 10584   0.349E-02 0.831E-03
CGA:  19    -0.354561542982E+03   -0.97569E-03   -0.10587E-02 10584   0.610E-02-0.589E-03
CGA:  20    -0.354562005258E+03   -0.46228E-03   -0.15052E-02 10584   0.290E-01-0.756E-02
CGA:  21    -0.354563010711E+03   -0.10055E-02   -0.12823E-02 10584   0.704E-02 0.145E-02
CGA:  22    -0.354563999589E+03   -0.98888E-03   -0.98485E-03 10584   0.467E-02-0.208E-03
CGA:  23    -0.354564868116E+03   -0.86853E-03   -0.11165E-02 10584   0.579E-02-0.276E-02
CGA:  24    -0.354565314011E+03   -0.44590E-03   -0.49177E-03 10584   0.265E-02 0.576E-03
CGA:  25    -0.354565771296E+03   -0.45729E-03   -0.47835E-03 10584   0.100E-01-0.233E-02
CGA:  26    -0.354566053431E+03   -0.28213E-03   -0.37862E-03 10584   0.131E-02 0.595E-03
CGA:  27    -0.354561446088E+03    0.46073E-02   -0.24450E-02 10584   0.917E-01-0.743E-02
CGA:  28    -0.354567880089E+03   -0.64340E-02   -0.68781E-02 10584   0.463E-02-0.498E-03
CGA:  29    -0.354568697421E+03   -0.81733E-03   -0.67539E-03 10584   0.598E-02-0.122E-02
CGA:  30    -0.354568898051E+03   -0.20063E-03   -0.21240E-03 10584   0.169E-02-0.116E-03
CGA:  31    -0.354569069861E+03   -0.17181E-03   -0.17028E-03 10584   0.431E-02-0.721E-04
CGA:  32    -0.354563486800E+03    0.55831E-02   -0.30448E-02 10584   0.143E+00-0.202E-01
CGA:  33    -0.354573963826E+03   -0.10477E-01   -0.11891E-01 10584   0.547E-01-0.576E-02
CGA:  34    -0.354577101020E+03   -0.31372E-02   -0.26762E-02 10584   0.445E-02-0.147E-02
CGA:  35    -0.354577478233E+03   -0.37721E-03   -0.38733E-03 10584   0.822E-03 0.419E-04
CGA:  36    -0.354577679073E+03   -0.20084E-03   -0.42321E-03 10584   0.111E-01-0.833E-03
CGA:  37    -0.354578408738E+03   -0.72967E-03   -0.49060E-03 10584   0.148E-02-0.111E-02
CGA:  38    -0.354578569798E+03   -0.16106E-03   -0.17397E-03 10584   0.604E-03 0.101E-03
CGA:  39    -0.354579050743E+03   -0.48095E-03    0.12909E-03 10584   0.404E-02-0.447E-03
CGA:  40    -0.354579092394E+03   -0.41651E-04   -0.14496E-03 10584   0.412E-03 0.461E-03
CGA:  41    -0.354579204922E+03   -0.11253E-03   -0.17439E-03 10584   0.458E-02-0.408E-03
CGA:  42    -0.354579645231E+03   -0.44031E-03   -0.24188E-03 10584   0.124E-02-0.111E-02
CGA:  43    -0.354579791720E+03   -0.14649E-03   -0.13934E-03 10584   0.685E-03-0.108E-03
CGA:  44    -0.354580218570E+03   -0.42685E-03    0.12489E-03 10584   0.370E-02-0.438E-03
CGA:  45    -0.354580253725E+03   -0.35156E-04   -0.12925E-03 10584   0.312E-03 0.470E-03
CGA:  46    -0.354580332873E+03   -0.79148E-04   -0.10001E-03 10584   0.308E-02-0.290E-03
CGA:  47    -0.354580651733E+03   -0.31886E-03   -0.16449E-03 10584   0.830E-03-0.968E-03
CGA:  48    -0.354580722269E+03   -0.70537E-04   -0.75052E-04 10584   0.378E-03 0.540E-04
CGA:  49    -0.354581097682E+03   -0.37541E-03    0.31393E-04 10584   0.128E-02-0.119E-04
CGA:  50    -0.354582188094E+03   -0.10904E-02    0.10772E-03 10584   0.743E-03 0.759E-03
CGA:  51    -0.354582220919E+03   -0.32825E-04   -0.52790E-04 10584   0.194E-03 0.148E-03
CGA:  52    -0.354582388458E+03   -0.16754E-03    0.27186E-04 10584   0.766E-03-0.889E-04
CGA:  53    -0.354582760131E+03   -0.37167E-03    0.31638E-04 10584   0.371E-02-0.839E-03
CGA:  54    -0.354583080823E+03   -0.32069E-03   -0.31631E-03 10584   0.108E-02-0.366E-04
CGA:  55    -0.354583266126E+03   -0.18530E-03   -0.21857E-03 10584   0.850E-02-0.236E-02
CGA:  56    -0.354583375616E+03   -0.10949E-03   -0.29586E-03 10584   0.498E-03 0.114E-02
CGA:  57    -0.354583372098E+03    0.35190E-05   -0.26812E-04 10584   0.251E-03 0.221E-03
CGA:  58    -0.354583433632E+03   -0.61535E-04   -0.56255E-04 10584   0.512E-03-0.252E-03
CGA:  59    -0.354583412822E+03    0.20810E-04   -0.16560E-03 10584   0.459E-02-0.127E-02
CGA:  60    -0.354583750297E+03   -0.33747E-03   -0.32261E-03 10584   0.659E-03-0.175E-03
CGA:  61    -0.354583731572E+03    0.18725E-04   -0.18595E-04 10584   0.140E-03 0.251E-03
CGA:  62    -0.354583722802E+03    0.87699E-05   -0.46935E-05 10584   0.724E-04 0.918E-04
  12 F= -.35458372E+03 E0= -.35457631E+03  d E =0.167541E+01  mag=    20.0000
       N       E                     dE             d eps       ncg     rms          ort
SDA:   1    -0.313056418351E+03    0.41527E+02    0.00000E+00 10584   0.735E+03 0.000E+00
CGA:   2    -0.334859124071E+03   -0.21803E+02   -0.63031E+02 10584   0.919E+02-0.577E+01
CGA:   3    -0.344617680252E+03   -0.97586E+01   -0.70856E+01 10584   0.262E+02 0.278E+02
CGA:   4    -0.350555152959E+03   -0.59375E+01   -0.59844E+01 10584   0.506E+02-0.155E+01
CGA:   5    -0.353690424379E+03   -0.31353E+01   -0.32936E+01 10584   0.238E+02-0.679E+00
CGA:   6    -0.354679220086E+03   -0.98880E+00   -0.12469E+01 10584   0.510E+01-0.350E+01
CGA:   7    -0.355161235027E+03   -0.48201E+00   -0.49212E+00 10584   0.433E+01 0.953E-01
CGA:   8    -0.355651807727E+03   -0.49057E+00   -0.48500E+00 10584   0.171E+01-0.398E-01
CGA:   9    -0.355821710288E+03   -0.16990E+00   -0.16743E+00 10584   0.113E+01-0.130E-01
CGA:  10    -0.355966252541E+03   -0.14454E+00   -0.14503E+00 10584   0.718E+00 0.247E-01
CGA:  11    -0.356037336631E+03   -0.71084E-01   -0.71927E-01 10584   0.352E+00 0.883E-02
CGA:  12    -0.356090679240E+03   -0.53343E-01   -0.53463E-01 10584   0.249E+00-0.949E-02
CGA:  13    -0.356111791597E+03   -0.21112E-01   -0.21109E-01 10584   0.778E-01-0.323E-02
CGA:  14    -0.356123054375E+03   -0.11263E-01   -0.11221E-01 10584   0.788E-01 0.351E-02
CGA:  15    -0.356133058700E+03   -0.10004E-01   -0.10015E-01 10584   0.244E-01 0.559E-03
CGA:  16    -0.356136448546E+03   -0.33898E-02   -0.33968E-02 10584   0.230E-01-0.286E-02
CGA:  17    -0.356139563850E+03   -0.31153E-02   -0.31093E-02 10584   0.137E-01 0.121E-03
CGA:  18    -0.356140779895E+03   -0.12160E-02   -0.13025E-02 10584   0.710E-02 0.182E-02
CGA:  19    -0.356142203767E+03   -0.14239E-02   -0.13859E-02 10584   0.747E-02 0.923E-03
CGA:  20    -0.356143444968E+03   -0.12412E-02   -0.12614E-02 10584   0.480E-02-0.167E-02
CGA:  21    -0.356144054715E+03   -0.60975E-03   -0.61227E-03 10584   0.450E-02-0.195E-03
CGA:  22    -0.356144543442E+03   -0.48873E-03   -0.50151E-03 10584   0.243E-02 0.481E-03
CGA:  23    -0.356145050011E+03   -0.50657E-03   -0.53502E-03 10584   0.352E-02-0.515E-03
CGA:  24    -0.356145456141E+03   -0.40613E-03   -0.42211E-03 10584   0.221E-02-0.147E-02
CGA:  25    -0.356145606752E+03   -0.15061E-03   -0.13763E-03 10584   0.176E-02-0.413E-03
CGA:  26    -0.356145798471E+03   -0.19172E-03   -0.19075E-03 10584   0.129E-02-0.178E-03
CGA:  27    -0.356145949982E+03   -0.15151E-03   -0.14712E-03 10584   0.866E-03-0.366E-03
CGA:  28    -0.356146041205E+03   -0.91223E-04   -0.13476E-03 10584   0.104E-02-0.566E-03
CGA:  29    -0.356146109360E+03   -0.68155E-04   -0.85111E-04 10584   0.287E-03 0.276E-03
CGA:  30    -0.356146161411E+03   -0.52051E-04   -0.51597E-04 10584   0.191E-03 0.163E-03
CGA:  31    -0.356146127210E+03    0.34201E-04   -0.81020E-04 10584   0.226E-02-0.406E-03
CGA:  32    -0.356146228061E+03   -0.10085E-03   -0.13632E-03 10584   0.853E-04 0.367E-03
CGA:  33    -0.356146224582E+03    0.34786E-05   -0.33797E-05 10584   0.393E-04 0.595E-04
  13 F= -.35614622E+03 E0= -.35614615E+03  d E =-.156250E+01  mag=    20.0000
       N       E                     dE             d eps       ncg     rms          ort
SDA:   1    -0.355912377880E+03    0.23385E+00    0.00000E+00 10584   0.805E+00 0.000E+00
CGA:   2    -0.356173685911E+03   -0.26131E+00   -0.26177E+00 10584   0.352E+00-0.264E-02
CGA:   3    -0.356215933404E+03   -0.42247E-01   -0.42304E-01 10584   0.163E+00 0.122E-02
CGA:   4    -0.356242191810E+03   -0.26258E-01   -0.26313E-01 10584   0.353E-01-0.331E-02
CGA:   5    -0.356247744409E+03   -0.55526E-02   -0.55329E-02 10584   0.962E-02 0.145E-02
CGA:   6    -0.356249641222E+03   -0.18968E-02   -0.19879E-02 10584   0.749E-02-0.179E-02
CGA:   7    -0.356250286595E+03   -0.64537E-03   -0.67965E-03 10584   0.226E-02 0.865E-03
CGA:   8    -0.356250661455E+03   -0.37486E-03   -0.37452E-03 10584   0.142E-02 0.433E-03
CGA:   9    -0.356250957433E+03   -0.29598E-03   -0.36117E-03 10584   0.232E-02-0.101E-02
CGA:  10    -0.356251068047E+03   -0.11061E-03   -0.15510E-03 10584   0.371E-03 0.514E-03
CGA:  11    -0.356251109263E+03   -0.41216E-04   -0.47766E-04 10584   0.187E-03 0.156E-03
CGA:  12    -0.356251146490E+03   -0.37226E-04   -0.75075E-04 10584   0.682E-03-0.276E-03
CGA:  13    -0.356251170537E+03   -0.24047E-04   -0.42903E-04 10584   0.133E-03 0.210E-03
CGA:  14    -0.356251179326E+03   -0.87893E-05   -0.13745E-04 10584   0.687E-04 0.721E-04
CGA:  15    -0.356251205203E+03   -0.25877E-04    0.16117E-04 10584   0.570E-04 0.234E-05
CGA:  16    -0.356251209251E+03   -0.40479E-05   -0.57299E-05 10584   0.253E-04 0.356E-04
  14 F= -.35625121E+03 E0= -.35625110E+03  d E =-.104985E+00  mag=    20.0000
       N       E                     dE             d eps       ncg     rms          ort
SDA:   1    -0.354305167231E+03    0.19460E+01    0.00000E+00 10584   0.496E+01 0.000E+00
CGA:   2    -0.355835183589E+03   -0.15300E+01   -0.15238E+01 10584   0.202E+01 0.374E-01
CGA:   3    -0.356127272142E+03   -0.29209E+00   -0.29200E+00 10584   0.101E+01-0.512E-01
CGA:   4    -0.356273350172E+03   -0.14608E+00   -0.14599E+00 10584   0.201E+00 0.157E-01
CGA:   5    -0.356307989014E+03   -0.34639E-01   -0.34633E-01 10584   0.686E-01 0.529E-04
CGA:   6    -0.356318597113E+03   -0.10608E-01   -0.10637E-01 10584   0.379E-01-0.319E-02
CGA:   7    -0.356323622458E+03   -0.50253E-02   -0.50415E-02 10584   0.126E-01 0.204E-02
CGA:   8    -0.356326882518E+03   -0.32601E-02   -0.34332E-02 10584   0.817E-02-0.155E-02
CGA:   9    -0.356327947091E+03   -0.10646E-02   -0.10662E-02 10584   0.466E-02 0.508E-03
CGA:  10    -0.356328765150E+03   -0.81806E-03   -0.82290E-03 10584   0.187E-02-0.341E-03
CGA:  11    -0.356329123135E+03   -0.35799E-03   -0.35535E-03 10584   0.805E-03 0.456E-04
CGA:  12    -0.356329244417E+03   -0.12128E-03   -0.12177E-03 10584   0.358E-03 0.635E-04
CGA:  13    -0.356329318233E+03   -0.73816E-04   -0.72373E-04 10584   0.156E-03 0.425E-04
CGA:  14    -0.356329011808E+03    0.30643E-03   -0.16785E-03 10584   0.443E-02-0.604E-03
CGA:  15    -0.356329252790E+03   -0.24098E-03   -0.32277E-03 10584   0.700E-03 0.319E-03
CGA:  16    -0.356329413848E+03   -0.16106E-03   -0.15895E-03 10584   0.197E-03-0.342E-04
CGA:  17    -0.356329450497E+03   -0.36649E-04   -0.75354E-04 10584   0.118E-02-0.297E-03
CGA:  18    -0.356329477990E+03   -0.27493E-04   -0.70526E-04 10584   0.765E-04 0.189E-03
CGA:  19    -0.356329475754E+03    0.22355E-05   -0.58668E-05 10584   0.364E-04 0.402E-04
CGA:  20    -0.356329495926E+03   -0.20172E-04    0.59580E-04 10584   0.407E-04-0.455E-05
CGA:  21    -0.356329494317E+03    0.16089E-05   -0.19177E-05 10584   0.144E-04 0.173E-04
  15 F= -.35632949E+03 E0= -.35632927E+03  d E =-.782851E-01  mag=    20.0000
       N       E                     dE             d eps       ncg     rms          ort
SDA:   1    -0.356225429455E+03    0.10407E+00    0.00000E+00 10584   0.290E+00 0.000E+00
CGA:   2    -0.356309207745E+03   -0.83778E-01   -0.83702E-01 10584   0.108E+00 0.138E-02
CGA:   3    -0.356327925326E+03   -0.18718E-01   -0.18838E-01 10584   0.466E-01 0.168E-02
CGA:   4    -0.356334814657E+03   -0.68893E-02   -0.66244E-02 10584   0.136E-01-0.268E-02
CGA:   5    -0.356336260171E+03   -0.14455E-02   -0.15485E-02 10584   0.346E-02 0.867E-03
CGA:   6    -0.356336857845E+03   -0.59767E-03   -0.59421E-03 10584   0.150E-02-0.538E-04
CGA:   7    -0.356337080681E+03   -0.22284E-03   -0.22192E-03 10584   0.666E-03-0.138E-04
CGA:   8    -0.356337170137E+03   -0.89457E-04   -0.96952E-04 10584   0.240E-03 0.104E-03
CGA:   9    -0.356337235824E+03   -0.65686E-04   -0.65168E-04 10584   0.118E-03 0.261E-04
CGA:  10    -0.356337161465E+03    0.74359E-04   -0.94102E-04 10584   0.211E-02-0.337E-03
CGA:  11    -0.356337249436E+03   -0.87971E-04   -0.13581E-03 10584   0.171E-03 0.256E-03
CGA:  12    -0.356337261227E+03   -0.11791E-04   -0.20702E-04 10584   0.788E-04 0.716E-04
CGA:  13    -0.356337285224E+03   -0.23997E-04   -0.22759E-04 10584   0.841E-04-0.554E-04
CGA:  14    -0.356337285656E+03   -0.43238E-06   -0.50697E-05 10584   0.169E-04 0.280E-04
  16 F= -.35633729E+03 E0= -.35633709E+03  d E =-.779134E-02  mag=    20.0000
       N       E                     dE             d eps       ncg     rms          ort
SDA:   1    -0.354337982376E+03    0.19993E+01    0.00000E+00 10584   0.531E+01 0.000E+00
CGA:   2    -0.355791518287E+03   -0.14535E+01   -0.14514E+01 10584   0.208E+01 0.287E-01
CGA:   3    -0.356124667302E+03   -0.33315E+00   -0.32952E+00 10584   0.108E+01-0.209E-01
CGA:   4    -0.356257984164E+03   -0.13332E+00   -0.13622E+00 10584   0.229E+00 0.399E-02
CGA:   5    -0.356291441560E+03   -0.33457E-01   -0.33213E-01 10584   0.717E-01-0.295E-02
CGA:   6    -0.356301487876E+03   -0.10046E-01   -0.10057E-01 10584   0.281E-01 0.117E-03
CGA:   7    -0.356305662651E+03   -0.41748E-02   -0.41940E-02 10584   0.102E-01 0.366E-03
CGA:   8    -0.356307643163E+03   -0.19805E-02   -0.19824E-02 10584   0.540E-02 0.315E-03
CGA:   9    -0.356308712141E+03   -0.10690E-02   -0.10670E-02 10584   0.427E-02-0.384E-03
CGA:  10    -0.356309221932E+03   -0.50979E-03   -0.53851E-03 10584   0.146E-02 0.458E-03
CGA:  11    -0.356309698870E+03   -0.47694E-03   -0.51784E-03 10584   0.102E-02-0.325E-03
CGA:  12    -0.356309774470E+03   -0.75599E-04   -0.88115E-04 10584   0.487E-03 0.139E-03
CGA:  13    -0.356309854778E+03   -0.80308E-04   -0.83813E-04 10584   0.191E-03 0.792E-04
CGA:  14    -0.356309318321E+03    0.53646E-03   -0.18352E-03 10584   0.809E-02-0.114E-02
CGA:  15    -0.356309764984E+03   -0.44666E-03   -0.57885E-03 10584   0.636E-03 0.783E-03
CGA:  16    -0.356309874657E+03   -0.10967E-03   -0.11747E-03 10584   0.267E-03 0.160E-03
CGA:  17    -0.356309937133E+03   -0.62476E-04   -0.90768E-04 10584   0.101E-02-0.496E-03
CGA:  18    -0.356309950885E+03   -0.13752E-04   -0.57743E-04 10584   0.107E-03 0.270E-03
CGA:  19    -0.356309945837E+03    0.50479E-05   -0.61894E-05 10584   0.469E-04 0.685E-04
CGA:  20    -0.356309959380E+03   -0.13543E-04   -0.13261E-04 10584   0.368E-05 0.345E-05
CGA:  21    -0.356309961239E+03   -0.18596E-05    0.27989E-05 10584   0.258E-05 0.183E-05
  17 F= -.35630996E+03 E0= -.35630977E+03  d E =0.273244E-01  mag=    20.0000
       N       E                     dE             d eps       ncg     rms          ort
SDA:   1    -0.355772861677E+03    0.53710E+00    0.00000E+00 10584   0.123E+01 0.000E+00
CGA:   2    -0.356174233866E+03   -0.40137E+00   -0.39999E+00 10584   0.600E+00 0.108E-01
CGA:   3    -0.356248789126E+03   -0.74555E-01   -0.73529E-01 10584   0.236E+00-0.308E-02
CGA:   4    -0.356282623885E+03   -0.33835E-01   -0.33920E-01 10584   0.437E-01-0.814E-03
CGA:   5    -0.356289851272E+03   -0.72274E-02   -0.72124E-02 10584   0.145E-01-0.455E-03
CGA:   6    -0.356291977525E+03   -0.21263E-02   -0.21323E-02 10584   0.590E-02 0.127E-03
CGA:   7    -0.356292817813E+03   -0.84029E-03   -0.85440E-03 10584   0.190E-02 0.269E-03
CGA:   8    -0.356293272156E+03   -0.45434E-03   -0.45208E-03 10584   0.878E-03 0.625E-04
CGA:   9    -0.356293467581E+03   -0.19543E-03   -0.19548E-03 10584   0.645E-03-0.375E-05
CGA:  10    -0.356293562494E+03   -0.94913E-04   -0.95748E-04 10584   0.259E-03 0.171E-04
CGA:  11    -0.356293617880E+03   -0.55385E-04   -0.54924E-04 10584   0.843E-04 0.318E-04
CGA:  12    -0.356293632454E+03   -0.14574E-04   -0.15189E-04 10584   0.469E-04 0.185E-04
CGA:  13    -0.356293637794E+03   -0.53404E-05   -0.68322E-05 10584   0.138E-04 0.205E-04
CGA:  14    -0.356293641372E+03   -0.35780E-05   -0.12869E-04 10584   0.721E-04-0.204E-04
  18 F= -.35629364E+03 E0= -.35629351E+03  d E =0.163199E-01  mag=    20.0000
       N       E                     dE             d eps       ncg     rms          ort
SDA:   1    -0.354859885216E+03    0.14338E+01    0.00000E+00 10584   0.342E+01 0.000E+00
CGA:   2    -0.355947292392E+03   -0.10874E+01   -0.10820E+01 10584   0.197E+01 0.441E-01
CGA:   3    -0.356168659808E+03   -0.22137E+00   -0.20992E+00 10584   0.563E+00 0.283E-01
CGA:   4    -0.356262522479E+03   -0.93863E-01   -0.94103E-01 10584   0.115E+00 0.307E-02
CGA:   5    -0.356278200399E+03   -0.15678E-01   -0.15683E-01 10584   0.487E-01 0.478E-04
CGA:   6    -0.356285004918E+03   -0.68045E-02   -0.67790E-02 10584   0.139E-01-0.403E-03
CGA:   7    -0.356287413218E+03   -0.24083E-02   -0.24201E-02 10584   0.405E-02 0.591E-03
CGA:   8    -0.356288303620E+03   -0.89040E-03   -0.88827E-03 10584   0.276E-02 0.134E-03
CGA:   9    -0.356288766129E+03   -0.46251E-03   -0.45808E-03 10584   0.169E-02-0.129E-03
CGA:  10    -0.356289006826E+03   -0.24070E-03   -0.25239E-03 10584   0.550E-03 0.310E-03
CGA:  11    -0.356289208465E+03   -0.20164E-03   -0.23982E-03 10584   0.659E-03-0.218E-03
CGA:  12    -0.356289202520E+03    0.59452E-05   -0.19794E-04 10584   0.363E-03 0.170E-03
CGA:  13    -0.356289195531E+03    0.69890E-05   -0.21147E-04 10584   0.181E-03 0.191E-03
CGA:  14    -0.356289242022E+03   -0.46491E-04   -0.80841E-04 10584   0.237E-03-0.132E-03
CGA:  15    -0.356289239463E+03    0.25593E-05   -0.13912E-04 10584   0.727E-04 0.117E-03
  19 F= -.35628924E+03 E0= -.35628912E+03  d E =0.440191E-02  mag=    20.0000
       N       E                     dE             d eps       ncg     rms          ort
SDA:   1    -0.272991538175E+03    0.83298E+02    0.00000E+00 10584   0.952E+03 0.000E+00
CGA:   2    -0.299446612812E+03   -0.26455E+02   -0.76359E+02 10584   0.179E+03-0.961E-02
CGA:   3    -0.318644670289E+03   -0.19198E+02   -0.10537E+02 10584   0.948E+02 0.156E+03
CGA:   4    -0.324804825652E+03   -0.61602E+01   -0.41752E+01 10584   0.101E+03-0.370E+02
CGA:   5    -0.323551089534E+03    0.12537E+01   -0.38383E+01 10584   0.650E+03-0.544E+02
CGA:   6    -0.329990832063E+03   -0.64397E+01   -0.38163E+02 10584   0.104E+03-0.762E+02
CGA:   7    -0.336034043249E+03   -0.60432E+01   -0.29109E+01 10584   0.818E+02 0.105E+03
CGA:   8    -0.340915284050E+03   -0.48812E+01   -0.22977E+01 10584   0.168E+02 0.358E+02
CGA:   9    -0.341265761360E+03   -0.35048E+00   -0.59580E+00 10584   0.510E+02-0.125E+02
CGA:  10    -0.341224811188E+03    0.40950E-01   -0.29454E+01 10584   0.722E+02-0.210E+02
CGA:  11    -0.345219813099E+03   -0.39950E+01   -0.20748E+01 10584   0.243E+02 0.360E+02
CGA:  12    -0.345868157028E+03   -0.64834E+00   -0.73247E+00 10584   0.167E+02-0.102E+02
CGA:  13    -0.346555128997E+03   -0.68697E+00   -0.67820E+00 10584   0.742E+02-0.773E-01
CGA:  14    -0.348391185501E+03   -0.18361E+01   -0.25083E+01 10584   0.172E+01-0.134E+02
CGA:  15    -0.348458538211E+03   -0.67353E-01   -0.64332E-01 10584   0.218E+01 0.154E-01
CGA:  16    -0.348680712781E+03   -0.22217E+00   -0.22388E+00 10584   0.162E+01 0.675E-01
CGA:  17    -0.348792406152E+03   -0.11169E+00   -0.10893E+00 10584   0.207E+01-0.384E-01
CGA:  18    -0.348871974560E+03   -0.79568E-01   -0.99530E-01 10584   0.386E+00-0.226E+00
CGA:  19    -0.348918925542E+03   -0.46951E-01   -0.47951E-01 10584   0.836E+00-0.317E-01
CGA:  20    -0.348945692458E+03   -0.26767E-01   -0.31489E-01 10584   0.203E+00-0.740E-01
CGA:  21    -0.348975456997E+03   -0.29765E-01   -0.32858E-01 10584   0.325E+00-0.436E-01
CGA:  22    -0.348989684542E+03   -0.14228E-01   -0.15362E-01 10584   0.233E+00-0.215E-01
CGA:  23    -0.349012936674E+03   -0.23252E-01   -0.23238E-01 10584   0.110E+00-0.408E-01
CGA:  24    -0.348977554870E+03    0.35382E-01   -0.23551E-01 10584   0.875E+00-0.163E+00
CGA:  25    -0.349044468715E+03   -0.66914E-01   -0.71054E-01 10584   0.176E+00-0.409E-01
CGA:  26    -0.349075356101E+03   -0.30887E-01   -0.30888E-01 10584   0.838E-01-0.166E-02
CGA:  27    -0.349089612830E+03   -0.14257E-01   -0.14247E-01 10584   0.401E-01-0.145E-02
CGA:  28    -0.349098802548E+03   -0.91897E-02   -0.91654E-02 10584   0.242E-01 0.222E-04
CGA:  29    -0.349103978387E+03   -0.51758E-02   -0.53280E-02 10584   0.199E-01-0.506E-02
CGA:  30    -0.349107628732E+03   -0.36503E-02   -0.37960E-02 10584   0.141E-01-0.313E-02
CGA:  31    -0.349110186719E+03   -0.25580E-02   -0.27256E-02 10584   0.137E-01-0.478E-02
CGA:  32    -0.349111899968E+03   -0.17132E-02   -0.16721E-02 10584   0.550E-02-0.358E-02
CGA:  33    -0.349112865680E+03   -0.96571E-03   -0.18824E-02 10584   0.915E-02-0.342E-02
CGA:  34    -0.349114100834E+03   -0.12352E-02   -0.12593E-02 10584   0.227E-02 0.318E-03
CGA:  35    -0.349114577628E+03   -0.47679E-03   -0.47750E-03 10584   0.183E-02 0.276E-03
CGA:  36    -0.349114977515E+03   -0.39989E-03   -0.40577E-03 10584   0.679E-03 0.707E-03
CGA:  37    -0.349115195789E+03   -0.21827E-03   -0.21529E-03 10584   0.758E-03 0.121E-03
CGA:  38    -0.349115322841E+03   -0.12705E-03   -0.14400E-03 10584   0.370E-03 0.373E-03
CGA:  39    -0.349115349030E+03   -0.26189E-04   -0.54858E-04 10584   0.175E-03 0.273E-03
CGA:  40    -0.349115409162E+03   -0.60132E-04   -0.60226E-04 10584   0.379E-03-0.187E-05
CGA:  41    -0.349115513335E+03   -0.10417E-03   -0.99164E-04 10584   0.295E-03 0.801E-04
CGA:  42    -0.349115627565E+03   -0.11423E-03   -0.10486E-03 10584   0.292E-03 0.105E-03
CGA:  43    -0.349115746569E+03   -0.11900E-03   -0.11694E-03 10584   0.502E-03 0.178E-04
CGA:  44    -0.349115934668E+03   -0.18810E-03   -0.18205E-03 10584   0.510E-03 0.276E-04
CGA:  45    -0.349116045408E+03   -0.11074E-03   -0.11255E-03 10584   0.425E-03 0.117E-03
CGA:  46    -0.349116168750E+03   -0.12334E-03   -0.20851E-03 10584   0.818E-03-0.486E-03
CGA:  47    -0.349116240154E+03   -0.71404E-04   -0.87286E-04 10584   0.163E-03 0.125E-03
CGA:  48    -0.349116253404E+03   -0.13251E-04   -0.22239E-04 10584   0.569E-04 0.840E-04
CGA:  49    -0.349116261309E+03   -0.79050E-05   -0.35404E-04 10584   0.461E-03-0.689E-04
CGA:  50    -0.349116282513E+03   -0.21204E-04   -0.35252E-04 10584   0.334E-04 0.844E-04
CGA:  51    -0.349116281910E+03    0.60314E-06   -0.28176E-05 10584   0.199E-04 0.213E-04
CGA:  52    -0.349116289825E+03   -0.79149E-05   -0.21514E-04 10584   0.155E-03-0.160E-04
CGA:  53    -0.349116301706E+03   -0.11881E-04   -0.15898E-04 10584   0.281E-04 0.241E-04
CGA:  54    -0.349116303031E+03   -0.13246E-05   -0.37593E-05 10584   0.129E-04 0.170E-04
  20 F= -.34911630E+03 E0= -.34911011E+03  d E =0.717294E+01  mag=    19.9982
       N       E                     dE             d eps       ncg     rms          ort
SDA:   1    -0.164884221334E+03    0.18423E+03    0.00000E+00 10584   0.742E+03 0.000E+00
CGA:   2    -0.298069567165E+03   -0.13319E+03   -0.87425E+02 10584   0.317E+03-0.185E+03
CGA:   3    -0.321570576362E+03   -0.23501E+02   -0.15671E+02 10584   0.153E+03 0.138E+03
CGA:   4    -0.335235185685E+03   -0.13665E+02   -0.10469E+02 10584   0.581E+02 0.755E+02
CGA:   5    -0.336771870119E+03   -0.15367E+01   -0.58722E+01 10584   0.170E+03-0.336E+02
CGA:   6    -0.343927593387E+03   -0.71557E+01   -0.17383E+02 10584   0.545E+02-0.273E+02
CGA:   7    -0.349087439197E+03   -0.51598E+01   -0.31713E+01 10584   0.177E+02 0.279E+02
CGA:   8    -0.351143283623E+03   -0.20558E+01   -0.16278E+01 10584   0.887E+01 0.260E+01
CGA:   9    -0.353457507848E+03   -0.23142E+01   -0.23121E+01 10584   0.932E+01-0.565E-01
CGA:  10    -0.354464409324E+03   -0.10069E+01   -0.10528E+01 10584   0.282E+01-0.155E+00
CGA:  11    -0.354886002072E+03   -0.42159E+00   -0.42260E+00 10584   0.132E+01-0.139E-01
CGA:  12    -0.355058664291E+03   -0.17266E+00   -0.16979E+00 10584   0.939E+00 0.541E-02
CGA:  13    -0.355288471335E+03   -0.22981E+00   -0.23069E+00 10584   0.745E+00-0.110E-01
CGA:  14    -0.355367773051E+03   -0.79302E-01   -0.80469E-01 10584   0.270E+00-0.302E-02
CGA:  15    -0.355414856430E+03   -0.47083E-01   -0.47164E-01 10584   0.213E+00 0.377E-02
CGA:  16    -0.355440441263E+03   -0.25585E-01   -0.25359E-01 10584   0.497E-01 0.214E-02
CGA:  17    -0.355449372183E+03   -0.89309E-02   -0.89292E-02 10584   0.530E-01 0.546E-04
CGA:  18    -0.355456610239E+03   -0.72381E-02   -0.73069E-02 10584   0.198E-01 0.121E-02
CGA:  19    -0.355460736112E+03   -0.41259E-02   -0.41253E-02 10584   0.186E-01 0.137E-04
CGA:  20    -0.355462911139E+03   -0.21750E-02   -0.21575E-02 10584   0.727E-02-0.196E-03
CGA:  21    -0.355464601221E+03   -0.16901E-02   -0.16604E-02 10584   0.765E-02 0.598E-03
CGA:  22    -0.355465644914E+03   -0.10437E-02   -0.10553E-02 10584   0.308E-02 0.314E-04
CGA:  23    -0.355466593060E+03   -0.94815E-03   -0.10589E-02 10584   0.373E-02-0.157E-02
CGA:  24    -0.355467000063E+03   -0.40700E-03   -0.45590E-03 10584   0.133E-02 0.721E-03
CGA:  25    -0.355467355363E+03   -0.35530E-03   -0.35612E-03 10584   0.955E-03-0.311E-04
CGA:  26    -0.355467559866E+03   -0.20450E-03   -0.19959E-03 10584   0.816E-03 0.184E-03
CGA:  27    -0.355467752827E+03   -0.19296E-03   -0.19331E-03 10584   0.524E-03-0.710E-04
CGA:  28    -0.355467855008E+03   -0.10218E-03   -0.11585E-03 10584   0.949E-03-0.263E-03
CGA:  29    -0.355467958690E+03   -0.10368E-03   -0.92896E-04 10584   0.395E-03-0.126E-03
CGA:  30    -0.355468004778E+03   -0.46089E-04   -0.49576E-04 10584   0.113E-03 0.816E-04
CGA:  31    -0.355467628465E+03    0.37631E-03   -0.17648E-03 10584   0.819E-02-0.600E-03
CGA:  32    -0.355468181072E+03   -0.55261E-03   -0.56982E-03 10584   0.327E-03-0.147E-03
CGA:  33    -0.355468207440E+03   -0.26368E-04   -0.36812E-04 10584   0.195E-03 0.501E-04
CGA:  34    -0.355468283454E+03   -0.76014E-04   -0.83630E-04 10584   0.324E-03-0.131E-03
CGA:  35    -0.355468293140E+03   -0.96867E-05   -0.26782E-04 10584   0.805E-04 0.724E-04
CGA:  36    -0.355468314501E+03   -0.21360E-04   -0.20597E-04 10584   0.635E-04-0.816E-05
CGA:  37    -0.355468349272E+03   -0.34772E-04    0.54290E-03 10584   0.219E-03-0.419E-04
CGA:  38    -0.355468364684E+03   -0.15411E-04   -0.20062E-04 10584   0.525E-04 0.217E-04
CGA:  39    -0.355467856535E+03    0.50815E-03   -0.27276E-03 10584   0.408E-02-0.388E-03
CGA:  40    -0.355468367321E+03   -0.51079E-03   -0.49578E-03 10584   0.206E-02-0.138E-03
CGA:  41    -0.355468524601E+03   -0.15728E-03   -0.19649E-03 10584   0.916E-04 0.116E-03
CGA:  42    -0.355468531289E+03   -0.66876E-05   -0.12278E-04 10584   0.479E-04 0.154E-04
  21 F= -.35546853E+03 E0= -.35546580E+03  d E =-.635223E+01  mag=    18.0893
       N       E                     dE             d eps       ncg     rms          ort
SDA:   1    -0.355372038198E+03    0.96486E-01    0.00000E+00 10584   0.670E+00 0.000E+00
CGA:   2    -0.355568563628E+03   -0.19653E+00   -0.19399E+00 10584   0.537E+00-0.184E-02
CGA:   3    -0.355619392959E+03   -0.50829E-01   -0.61210E-01 10584   0.175E+00-0.687E-01
CGA:   4    -0.355641834471E+03   -0.22442E-01   -0.22708E-01 10584   0.515E-01 0.237E-02
CGA:   5    -0.355648510333E+03   -0.66759E-02   -0.64204E-02 10584   0.176E-01-0.522E-03
CGA:   6    -0.355650729830E+03   -0.22195E-02   -0.24362E-02 10584   0.440E-02 0.655E-03
CGA:   7    -0.355651624414E+03   -0.89458E-03   -0.89518E-03 10584   0.299E-02 0.838E-05
CGA:   8    -0.355652112714E+03   -0.48830E-03   -0.49004E-03 10584   0.132E-02-0.354E-05
CGA:   9    -0.355652353368E+03   -0.24065E-03   -0.27125E-03 10584   0.598E-03 0.186E-03
CGA:  10    -0.355652464625E+03   -0.11126E-03   -0.13863E-03 10584   0.376E-03 0.175E-03
CGA:  11    -0.355652512166E+03   -0.47541E-04   -0.75625E-04 10584   0.222E-03 0.138E-03
CGA:  12    -0.355652506909E+03    0.52578E-05   -0.36493E-04 10584   0.121E-03 0.189E-03
CGA:  13    -0.355652524560E+03   -0.17652E-04   -0.25750E-04 10584   0.101E-03 0.681E-04
CGA:  14    -0.355652516756E+03    0.78045E-05   -0.83937E-05 10584   0.700E-04 0.669E-04
CGA:  15    -0.355652516808E+03   -0.52685E-07   -0.10572E-04 10584   0.648E-04 0.649E-04
  22 F= -.35565252E+03 E0= -.35565200E+03  d E =-.183986E+00  mag=    18.0119
       N       E                     dE             d eps       ncg     rms          ort
SDA:   1    -0.351673708743E+03    0.39788E+01    0.00000E+00 10584   0.102E+02 0.000E+00
CGA:   2    -0.355013925178E+03   -0.33402E+01   -0.33392E+01 10584   0.430E+01 0.126E-01
CGA:   3    -0.355627841178E+03   -0.61392E+00   -0.60769E+00 10584   0.182E+01 0.315E-01
CGA:   4    -0.355905875876E+03   -0.27803E+00   -0.27076E+00 10584   0.484E+00 0.335E-01
CGA:   5    -0.355974595393E+03   -0.68720E-01   -0.70362E-01 10584   0.168E+00 0.427E-03
CGA:   6    -0.355998841142E+03   -0.24246E-01   -0.23698E-01 10584   0.613E-01-0.151E-02
CGA:   7    -0.356010785547E+03   -0.11944E-01   -0.12001E-01 10584   0.272E-01 0.530E-03
CGA:   8    -0.356016650822E+03   -0.58653E-02   -0.58198E-02 10584   0.176E-01-0.851E-03
CGA:   9    -0.356019035982E+03   -0.23852E-02   -0.24586E-02 10584   0.818E-02 0.528E-03
CGA:  10    -0.356020836984E+03   -0.18010E-02   -0.17975E-02 10584   0.345E-02-0.915E-04
CGA:  11    -0.356021330158E+03   -0.49317E-03   -0.54151E-03 10584   0.169E-02 0.503E-03
CGA:  12    -0.356021722199E+03   -0.39204E-03   -0.39804E-03 10584   0.930E-03 0.131E-03
CGA:  13    -0.356021812703E+03   -0.90504E-04   -0.13665E-03 10584   0.520E-03 0.412E-03
CGA:  14    -0.356021969720E+03   -0.15702E-03   -0.16460E-03 10584   0.406E-03 0.332E-03
CGA:  15    -0.356022086823E+03   -0.11710E-03   -0.11784E-03 10584   0.882E-03-0.164E-04
CGA:  16    -0.356022168504E+03   -0.81681E-04   -0.12128E-03 10584   0.506E-03 0.393E-03
CGA:  17    -0.356022231828E+03   -0.63324E-04   -0.97814E-04 10584   0.512E-03 0.328E-03
CGA:  18    -0.356022324655E+03   -0.92827E-04   -0.84143E-04 10584   0.655E-03-0.127E-03
CGA:  19    -0.356022372874E+03   -0.48219E-04   -0.72407E-04 10584   0.490E-03 0.292E-03
CGA:  20    -0.356022390321E+03   -0.17447E-04   -0.58057E-04 10584   0.242E-03 0.282E-03
CGA:  21    -0.356022466408E+03   -0.76088E-04   -0.98021E-04 10584   0.134E-02-0.119E-03
CGA:  22    -0.356022478988E+03   -0.12580E-04   -0.50959E-04 10584   0.170E-02 0.248E-03
CGA:  23    -0.356022508020E+03   -0.29031E-04   -0.12653E-03 10584   0.665E-03 0.607E-03
CGA:  24    -0.356022531440E+03   -0.23420E-04   -0.79447E-04 10584   0.765E-03 0.448E-03
CGA:  25    -0.356022673191E+03   -0.14175E-03   -0.12915E-03 10584   0.106E-02-0.340E-03
CGA:  26    -0.356022713768E+03   -0.40577E-04   -0.61224E-04 10584   0.696E-03 0.205E-03
CGA:  27    -0.356022715757E+03   -0.19892E-05   -0.41239E-04 10584   0.178E-03 0.261E-03
CGA:  28    -0.356022710874E+03    0.48830E-05   -0.14091E-04 10584   0.168E-03 0.141E-03
CGA:  29    -0.356022731261E+03   -0.20387E-04   -0.95458E-04 10584   0.200E-02-0.198E-03
CGA:  30    -0.356022791664E+03   -0.60403E-04   -0.11480E-03 10584   0.154E-03 0.362E-03
CGA:  31    -0.356022787396E+03    0.42681E-05   -0.10550E-04 10584   0.110E-03 0.107E-03
CGA:  32    -0.356022820436E+03   -0.33040E-04   -0.28546E-04 10584   0.134E-03 0.648E-04
CGA:  33    -0.356022817292E+03    0.31439E-05   -0.82775E-05 10584   0.836E-04 0.869E-04
CGA:  34    -0.356022826542E+03   -0.92499E-05   -0.12381E-04 10584   0.809E-04 0.813E-04
CGA:  35    -0.356022841392E+03   -0.14850E-04   -0.14889E-04 10584   0.793E-04 0.791E-04
CGA:  36    -0.356022846775E+03   -0.53834E-05   -0.99513E-05 10584   0.779E-04 0.771E-04
CGA:  37    -0.356022863450E+03   -0.16674E-04   -0.15436E-04 10584   0.781E-04 0.747E-04
CGA:  38    -0.356022865344E+03   -0.18945E-05   -0.78655E-05 10584   0.752E-04 0.729E-04
CGA:  39    -0.356022882722E+03   -0.17377E-04   -0.15454E-04 10584   0.774E-04 0.708E-04
CGA:  40    -0.356022883025E+03   -0.30341E-06   -0.67553E-05 10584   0.722E-04 0.696E-04
CGA:  41    -0.356022898302E+03   -0.15277E-04   -0.13992E-04 10584   0.734E-04 0.686E-04
CGA:  42    -0.356022899104E+03   -0.80253E-06   -0.66040E-05 10584   0.696E-04 0.673E-04
CGA:  43    -0.356022913299E+03   -0.14195E-04   -0.13097E-04 10584   0.706E-04 0.661E-04
CGA:  44    -0.356022914017E+03   -0.71738E-06   -0.62191E-05 10584   0.670E-04 0.650E-04
CGA:  45    -0.356022926857E+03   -0.12840E-04   -0.12076E-04 10584   0.675E-04 0.640E-04
CGA:  46    -0.356022927771E+03   -0.91410E-06   -0.59831E-05 10584   0.646E-04 0.629E-04
CGA:  47    -0.356022939447E+03   -0.11676E-04   -0.11176E-04 10584   0.648E-04 0.620E-04
CGA:  48    -0.356022940501E+03   -0.10540E-05   -0.57439E-05 10584   0.624E-04 0.610E-04
CGA:  49    -0.356022951067E+03   -0.10565E-04   -0.10323E-04 10584   0.623E-04 0.601E-04
CGA:  50    -0.356022952294E+03   -0.12276E-05   -0.55415E-05 10584   0.603E-04 0.592E-04
  23 F= -.35602295E+03 E0= -.35602293E+03  d E =-.370435E+00  mag=    18.0000
       N       E                     dE             d eps       ncg     rms          ort
SDA:   1    -0.355870264407E+03    0.15269E+00    0.00000E+00 10584   0.534E+00 0.000E+00
CGA:   2    -0.356037775603E+03   -0.16751E+00   -0.16758E+00 10584   0.215E+00-0.516E-03
CGA:   3    -0.356073111536E+03   -0.35336E-01   -0.35336E-01 10584   0.775E-01 0.185E-03
CGA:   4    -0.356085622304E+03   -0.12511E-01   -0.12510E-01 10584   0.236E-01-0.626E-04
CGA:   5    -0.356089023824E+03   -0.34015E-02   -0.34029E-02 10584   0.799E-02 0.533E-04
CGA:   6    -0.356090227402E+03   -0.12036E-02   -0.12037E-02 10584   0.347E-02-0.280E-05
CGA:   7    -0.356090917219E+03   -0.68982E-03   -0.69261E-03 10584   0.203E-02-0.800E-04
CGA:   8    -0.356091239887E+03   -0.32267E-03   -0.32347E-03 10584   0.972E-03 0.382E-03
CGA:   9    -0.356091532089E+03   -0.29220E-03   -0.28491E-03 10584   0.814E-03 0.875E-04
CGA:  10    -0.356091652904E+03   -0.12082E-03   -0.13026E-03 10584   0.456E-03 0.413E-03
CGA:  11    -0.356091795436E+03   -0.14253E-03   -0.14004E-03 10584   0.453E-03 0.169E-04
CGA:  12    -0.356091820076E+03   -0.24640E-04   -0.46433E-04 10584   0.285E-03 0.284E-03
CGA:  13    -0.356091889916E+03   -0.69840E-04   -0.63184E-04 10584   0.172E-03 0.131E-03
CGA:  14    -0.356091931164E+03   -0.41248E-04   -0.42323E-04 10584   0.185E-03 0.211E-03
CGA:  15    -0.356092014953E+03   -0.83789E-04   -0.67976E-04 10584   0.321E-03 0.809E-04
CGA:  16    -0.356092059892E+03   -0.44938E-04   -0.60789E-04 10584   0.205E-03 0.304E-03
CGA:  17    -0.356092127891E+03   -0.68000E-04   -0.61732E-04 10584   0.327E-03 0.513E-04
CGA:  18    -0.356092157048E+03   -0.29157E-04   -0.47173E-04 10584   0.184E-03 0.250E-03
CGA:  19    -0.356092214519E+03   -0.57472E-04   -0.48991E-04 10584   0.125E-03 0.101E-03
CGA:  20    -0.356092239236E+03   -0.24717E-04   -0.24115E-04 10584   0.117E-03 0.111E-03
CGA:  21    -0.356092292566E+03   -0.53330E-04   -0.39410E-04 10584   0.177E-03 0.926E-04
CGA:  22    -0.356092295830E+03   -0.32637E-05   -0.13974E-04 10584   0.110E-03 0.919E-04
CGA:  23    -0.356092355953E+03   -0.60123E-04   -0.42916E-04 10584   0.194E-03 0.847E-04
CGA:  24    -0.356092356237E+03   -0.28459E-06   -0.12938E-04 10584   0.999E-04 0.951E-04
CGA:  25    -0.356092361708E+03   -0.54707E-05   -0.15583E-04 10584   0.160E-03 0.114E-03
CGA:  26    -0.356092392991E+03   -0.31283E-04   -0.48994E-04 10584   0.106E-02-0.150E-03
CGA:  27    -0.356092421679E+03   -0.28688E-04   -0.57920E-04 10584   0.106E-03 0.206E-03
CGA:  28    -0.356092420529E+03    0.11500E-05   -0.82776E-05 10584   0.104E-03 0.772E-04
CGA:  29    -0.356092473125E+03   -0.52596E-04   -0.55761E-04 10584   0.842E-03-0.972E-05
CGA:  30    -0.356092632104E+03   -0.15898E-03   -0.15575E-03 10584   0.105E-02 0.633E-03
CGA:  31    -0.356092659257E+03   -0.27153E-04   -0.55307E-04 10584   0.774E-04 0.190E-03
CGA:  32    -0.356092656675E+03    0.25820E-05   -0.49540E-05 10584   0.624E-04 0.546E-04
CGA:  33    -0.356092688085E+03   -0.31409E-04   -0.23080E-04 10584   0.124E-03 0.446E-04
CGA:  34    -0.356092685451E+03    0.26339E-05   -0.65261E-05 10584   0.568E-04 0.645E-04
  24 F= -.35609269E+03 E0= -.35609266E+03  d E =-.697332E-01  mag=    18.0000
       N       E                     dE             d eps       ncg     rms          ort
SDA:   1    -0.352945463699E+03    0.31472E+01    0.00000E+00 10584   0.783E+01 0.000E+00
CGA:   2    -0.355275832120E+03   -0.23304E+01   -0.23237E+01 10584   0.395E+01 0.544E-01
CGA:   3    -0.355796723922E+03   -0.52089E+00   -0.51118E+00 10584   0.149E+01-0.522E-02
CGA:   4    -0.356032129390E+03   -0.23541E+00   -0.23601E+00 10584   0.427E+00 0.760E-02
CGA:   5    -0.356095838548E+03   -0.63709E-01   -0.63575E-01 10584   0.148E+00-0.211E-02
CGA:   6    -0.356116447054E+03   -0.20609E-01   -0.20646E-01 10584   0.589E-01 0.103E-02
CGA:   7    -0.356127961689E+03   -0.11515E-01   -0.11528E-01 10584   0.288E-01-0.111E-02
CGA:   8    -0.356133424861E+03   -0.54632E-02   -0.54465E-02 10584   0.161E-01 0.153E-02
CGA:   9    -0.356136820768E+03   -0.33959E-02   -0.34275E-02 10584   0.127E-01-0.160E-02
CGA:  10    -0.356138561364E+03   -0.17406E-02   -0.17752E-02 10584   0.480E-02 0.116E-02
CGA:  11    -0.356139953210E+03   -0.13918E-02   -0.13849E-02 10584   0.327E-02 0.691E-04
CGA:  12    -0.356140597793E+03   -0.64458E-03   -0.64420E-03 10584   0.331E-02 0.336E-04
CGA:  13    -0.356141261857E+03   -0.66406E-03   -0.65813E-03 10584   0.162E-02 0.563E-03
CGA:  14    -0.356142004709E+03   -0.74285E-03   -0.66795E-03 10584   0.201E-02 0.423E-03
CGA:  15    -0.356142455881E+03   -0.45117E-03   -0.45557E-03 10584   0.192E-02 0.248E-03
CGA:  16    -0.356142996561E+03   -0.54068E-03   -0.52102E-03 10584   0.103E-02 0.358E-03
CGA:  17    -0.356143256175E+03   -0.25961E-03   -0.25583E-03 10584   0.903E-03 0.272E-03
CGA:  18    -0.356143458590E+03   -0.20242E-03   -0.20492E-03 10584   0.403E-03 0.118E-03
CGA:  19    -0.356143512950E+03   -0.54360E-04   -0.66703E-04 10584   0.227E-03 0.239E-03
CGA:  20    -0.356143590548E+03   -0.77598E-04   -0.84029E-04 10584   0.508E-03-0.383E-04
CGA:  21    -0.356143606795E+03   -0.16247E-04   -0.36501E-04 10584   0.215E-03 0.171E-03
CGA:  22    -0.356143607072E+03   -0.27662E-06   -0.17778E-04 10584   0.118E-03 0.128E-03
CGA:  23    -0.356143645205E+03   -0.38133E-04   -0.35666E-04 10584   0.117E-03 0.212E-04
CGA:  24    -0.356143651923E+03   -0.67183E-05   -0.13793E-04 10584   0.575E-04 0.725E-04
CGA:  25    -0.356143661229E+03   -0.93061E-05   -0.10015E-04 10584   0.415E-04 0.411E-04
CGA:  26    -0.356143685761E+03   -0.24532E-04   -0.17842E-04 10584   0.798E-04 0.270E-04
CGA:  27    -0.356143684766E+03    0.99518E-06   -0.46030E-05 10584   0.337E-04 0.385E-04
  25 F= -.35614368E+03 E0= -.35614364E+03  d E =-.509993E-01  mag=    18.0006
       N       E                     dE             d eps       ncg     rms          ort
SDA:   1    -0.355935160412E+03    0.20853E+00    0.00000E+00 10584   0.579E+00 0.000E+00
CGA:   2    -0.356104311694E+03   -0.16915E+00   -0.16887E+00 10584   0.401E+00 0.295E-02
CGA:   3    -0.356146703089E+03   -0.42391E-01   -0.42278E-01 10584   0.111E+00-0.453E-02
CGA:   4    -0.356166340213E+03   -0.19637E-01   -0.19656E-01 10584   0.313E-01 0.163E-02
CGA:   5    -0.356171007646E+03   -0.46674E-02   -0.46169E-02 10584   0.124E-01-0.107E-02
CGA:   6    -0.356172539836E+03   -0.15322E-02   -0.15651E-02 10584   0.303E-02 0.548E-03
CGA:   7    -0.356173228279E+03   -0.68844E-03   -0.68316E-03 10584   0.156E-02 0.166E-03
CGA:   8    -0.356173538647E+03   -0.31037E-03   -0.31043E-03 10584   0.101E-02-0.213E-04
CGA:   9    -0.356173700619E+03   -0.16197E-03   -0.16213E-03 10584   0.429E-03 0.540E-05
CGA:  10    -0.356173791818E+03   -0.91200E-04   -0.89827E-04 10584   0.187E-03 0.568E-04
CGA:  11    -0.356172831508E+03    0.96031E-03   -0.51557E-03 10584   0.137E-01-0.122E-02
CGA:  12    -0.356173597167E+03   -0.76566E-03   -0.96204E-03 10584   0.105E-02 0.455E-03
CGA:  13    -0.356173813164E+03   -0.21600E-03   -0.21887E-03 10584   0.365E-03 0.231E-04
CGA:  14    -0.356173902169E+03   -0.89004E-04   -0.69908E-04 10584   0.379E-03-0.145E-03
CGA:  15    -0.356173918964E+03   -0.16796E-04   -0.27172E-04 10584   0.171E-03 0.532E-04
CGA:  16    -0.356173919618E+03   -0.65418E-06   -0.12774E-04 10584   0.553E-04 0.506E-04
  26 F= -.35617392E+03 E0= -.35617390E+03  d E =-.302349E-01  mag=    18.0001
       N       E                     dE             d eps       ncg     rms          ort
SDA:   1    -0.356105444906E+03    0.68474E-01    0.00000E+00 10584   0.173E+00 0.000E+00
CGA:   2    -0.356148591789E+03   -0.43147E-01   -0.43296E-01 10584   0.119E+00 0.429E-02
CGA:   3    -0.356164301039E+03   -0.15709E-01   -0.15241E-01 10584   0.383E-01-0.190E-02
CGA:   4    -0.356169927253E+03   -0.56262E-02   -0.56964E-02 10584   0.874E-02 0.498E-03
CGA:   5    -0.356171338897E+03   -0.14116E-02   -0.13431E-02 10584   0.345E-02-0.591E-03
CGA:   6    -0.356171714073E+03   -0.37518E-03   -0.38466E-03 10584   0.934E-03 0.633E-04
CGA:   7    -0.356171873374E+03   -0.15930E-03   -0.16470E-03 10584   0.297E-03 0.660E-04
CGA:   8    -0.356171929070E+03   -0.55696E-04   -0.58450E-04 10584   0.142E-03 0.413E-04
CGA:   9    -0.356171946639E+03   -0.17569E-04   -0.22328E-04 10584   0.589E-04 0.434E-04
CGA:  10    -0.356171973343E+03   -0.26703E-04   -0.31211E-04 10584   0.743E-04-0.276E-04
CGA:  11    -0.356171974435E+03   -0.10927E-05   -0.30920E-05 10584   0.496E-04 0.116E-04
  27 F= -.35617197E+03 E0= -.35617195E+03  d E =0.194518E-02  mag=    18.0000
       N       E                     dE             d eps       ncg     rms          ort
SDA:   1    -0.354949697622E+03    0.12223E+01    0.00000E+00 10584   0.312E+01 0.000E+00
CGA:   2    -0.355755717839E+03   -0.80602E+00   -0.80578E+00 10584   0.210E+01 0.120E-01
CGA:   3    -0.356008007728E+03   -0.25229E+00   -0.25005E+00 10584   0.718E+00 0.388E-02
CGA:   4    -0.356113699845E+03   -0.10569E+00   -0.10599E+00 10584   0.160E+00 0.164E-04
CGA:   5    -0.356137730353E+03   -0.24031E-01   -0.23758E-01 10584   0.476E-01-0.294E-02
CGA:   6    -0.356144160225E+03   -0.64299E-02   -0.65094E-02 10584   0.169E-01 0.679E-03
CGA:   7    -0.356146923554E+03   -0.27633E-02   -0.27535E-02 10584   0.620E-02-0.151E-03
CGA:   8    -0.356147927994E+03   -0.10044E-02   -0.10273E-02 10584   0.278E-02 0.474E-03
CGA:   9    -0.356148491753E+03   -0.56376E-03   -0.56210E-03 10584   0.185E-02-0.698E-04
CGA:  10    -0.356148760549E+03   -0.26880E-03   -0.28165E-03 10584   0.719E-03 0.232E-03
CGA:  11    -0.356148999833E+03   -0.23928E-03   -0.27100E-03 10584   0.760E-03-0.252E-03
CGA:  12    -0.356149016779E+03   -0.16945E-04   -0.37515E-04 10584   0.365E-03 0.147E-03
CGA:  13    -0.356149036799E+03   -0.20021E-04   -0.36735E-04 10584   0.227E-03 0.135E-03
CGA:  14    -0.356149082649E+03   -0.45850E-04   -0.44238E-04 10584   0.846E-04-0.276E-04
CGA:  15    -0.356148877611E+03    0.20504E-03   -0.71071E-04 10584   0.267E-02-0.366E-03
CGA:  16    -0.356148985465E+03   -0.10785E-03   -0.17927E-03 10584   0.321E-03 0.410E-03
CGA:  17    -0.356149027175E+03   -0.41710E-04   -0.51552E-04 10584   0.206E-03 0.111E-03
CGA:  18    -0.356149089766E+03   -0.62591E-04   -0.65843E-04 10584   0.336E-03-0.242E-03
CGA:  19    -0.356149087140E+03    0.26266E-05   -0.17656E-04 10584   0.606E-04 0.118E-03
  28 F= -.35614909E+03 E0= -.35614906E+03  d E =0.228873E-01  mag=    18.0000
       N       E                     dE             d eps       ncg     rms          ort
SDA:   1    -0.354545263380E+03    0.16038E+01    0.00000E+00 10584   0.385E+01 0.000E+00
CGA:   2    -0.355702516240E+03   -0.11573E+01   -0.11536E+01 10584   0.252E+01 0.355E-01
CGA:   3    -0.355980360422E+03   -0.27784E+00   -0.26703E+00 10584   0.728E+00 0.387E-01
CGA:   4    -0.356096143791E+03   -0.11578E+00   -0.11596E+00 10584   0.151E+00 0.621E-03
CGA:   5    -0.356120015821E+03   -0.23872E-01   -0.23803E-01 10584   0.459E-01-0.138E-02
CGA:   6    -0.356126762272E+03   -0.67465E-02   -0.67507E-02 10584   0.184E-01 0.671E-04
CGA:   7    -0.356129428436E+03   -0.26662E-02   -0.26780E-02 10584   0.598E-02 0.226E-03
CGA:   8    -0.356130486008E+03   -0.10576E-02   -0.10687E-02 10584   0.258E-02 0.554E-03
CGA:   9    -0.356131101032E+03   -0.61502E-03   -0.62544E-03 10584   0.253E-02-0.393E-03
CGA:  10    -0.356131313771E+03   -0.21274E-03   -0.24536E-03 10584   0.816E-03 0.392E-03
CGA:  11    -0.356131448263E+03   -0.13449E-03   -0.14314E-03 10584   0.610E-03 0.212E-03
CGA:  12    -0.356131581274E+03   -0.13301E-03   -0.12862E-03 10584   0.384E-03-0.189E-03
CGA:  13    -0.356131595291E+03   -0.14016E-04   -0.23279E-04 10584   0.188E-03 0.911E-04
CGA:  14    -0.356131600698E+03   -0.54071E-05   -0.16392E-04 10584   0.100E-03 0.962E-04
CGA:  15    -0.356131617371E+03   -0.16673E-04   -0.38962E-04 10584   0.478E-03-0.106E-03
CGA:  16    -0.356131625781E+03   -0.84103E-05   -0.24309E-04 10584   0.389E-04 0.115E-03
  29 F= -.35613163E+03 E0= -.35613160E+03  d E =0.174614E-01  mag=    18.0000
       N       E                     dE             d eps       ncg     rms          ort
SDA:   1    -0.344292324233E+03    0.11839E+02    0.00000E+00 10584   0.307E+02 0.000E+00
CGA:   2    -0.351637457469E+03   -0.73451E+01   -0.71754E+01 10584   0.251E+02 0.209E+01
CGA:   3    -0.354933980107E+03   -0.32965E+01   -0.30042E+01 10584   0.447E+01 0.104E+01
CGA:   4    -0.355764670124E+03   -0.83069E+00   -0.83050E+00 10584   0.182E+01 0.255E-01
CGA:   5    -0.355963002546E+03   -0.19833E+00   -0.19843E+00 10584   0.433E+00-0.323E-02
CGA:   6    -0.356037781204E+03   -0.74779E-01   -0.74772E-01 10584   0.131E+00 0.240E-02
CGA:   7    -0.356058753693E+03   -0.20972E-01   -0.20963E-01 10584   0.703E-01-0.293E-03
CGA:   8    -0.356068368676E+03   -0.96150E-02   -0.97036E-02 10584   0.249E-01 0.197E-02
CGA:   9    -0.356074431387E+03   -0.60627E-02   -0.61141E-02 10584   0.164E-01-0.743E-03
CGA:  10    -0.356076696807E+03   -0.22654E-02   -0.23096E-02 10584   0.802E-02 0.149E-02
CGA:  11    -0.356078541955E+03   -0.18451E-02   -0.18646E-02 10584   0.397E-02-0.473E-03
CGA:  12    -0.356079053717E+03   -0.51176E-03   -0.53128E-03 10584   0.152E-02 0.617E-03
CGA:  13    -0.356079364525E+03   -0.31081E-03   -0.31010E-03 10584   0.497E-03 0.136E-03
CGA:  14    -0.356079435608E+03   -0.71083E-04   -0.76862E-04 10584   0.247E-03 0.190E-03
CGA:  15    -0.356079486495E+03   -0.50888E-04   -0.52824E-04 10584   0.886E-04 0.122E-03
CGA:  16    -0.356079498538E+03   -0.12043E-04   -0.16326E-04 10584   0.610E-04 0.915E-04
CGA:  17    -0.356079502665E+03   -0.41268E-05   -0.67889E-05 10584   0.440E-04 0.473E-04
  30 F= -.35607950E+03 E0= -.35607947E+03  d E =0.521231E-01  mag=    18.0000
       N       E                     dE             d eps       ncg     rms          ort
SDA:   1    -0.320355085951E+03    0.35724E+02    0.00000E+00 10584   0.103E+03 0.000E+00
CGA:   2    -0.340164534011E+03   -0.19809E+02   -0.19365E+02 10584   0.608E+02 0.104E+02
CGA:   3    -0.348168145094E+03   -0.80036E+01   -0.57110E+01 10584   0.163E+02 0.245E+02
CGA:   4    -0.351798023791E+03   -0.36299E+01   -0.36272E+01 10584   0.311E+02-0.156E+01
CGA:   5    -0.353122879169E+03   -0.13249E+01   -0.15149E+01 10584   0.111E+02-0.212E+01
CGA:   6    -0.353765815761E+03   -0.64294E+00   -0.71797E+00 10584   0.549E+01-0.387E+00
CGA:   7    -0.354212381476E+03   -0.44657E+00   -0.44379E+00 10584   0.221E+01 0.972E-02
CGA:   8    -0.354379874881E+03   -0.16749E+00   -0.16170E+00 10584   0.114E+01 0.190E-01
CGA:   9    -0.354505473237E+03   -0.12560E+00   -0.12554E+00 10584   0.108E+01-0.532E-02
CGA:  10    -0.354603863801E+03   -0.98391E-01   -0.99358E-01 10584   0.548E+00 0.151E-02
CGA:  11    -0.354652097421E+03   -0.48234E-01   -0.48225E-01 10584   0.346E+00-0.349E-02
CGA:  12    -0.354694027046E+03   -0.41930E-01   -0.41841E-01 10584   0.246E+00-0.583E-02
CGA:  13    -0.354712510498E+03   -0.18483E-01   -0.18562E-01 10584   0.935E-01-0.364E-03
CGA:  14    -0.354723925370E+03   -0.11415E-01   -0.11437E-01 10584   0.859E-01 0.171E-02
CGA:  15    -0.354732301097E+03   -0.83757E-02   -0.83527E-02 10584   0.321E-01-0.668E-03
CGA:  16    -0.354736221469E+03   -0.39204E-02   -0.39102E-02 10584   0.309E-01-0.135E-02
CGA:  17    -0.354739492862E+03   -0.32714E-02   -0.32617E-02 10584   0.139E-01-0.560E-03
CGA:  18    -0.354740960887E+03   -0.14680E-02   -0.14594E-02 10584   0.105E-01-0.409E-03
CGA:  19    -0.354742387956E+03   -0.14271E-02   -0.14490E-02 10584   0.794E-02-0.149E-02
CGA:  20    -0.354743215780E+03   -0.82782E-03   -0.81861E-03 10584   0.472E-02-0.111E-02
CGA:  21    -0.354743698768E+03   -0.48299E-03   -0.47775E-03 10584   0.425E-02-0.514E-03
CGA:  22    -0.354744364209E+03   -0.66544E-03   -0.76491E-03 10584   0.343E-02-0.136E-02
CGA:  23    -0.354744603381E+03   -0.23917E-03   -0.20990E-03 10584   0.222E-02-0.710E-03
CGA:  24    -0.354744928037E+03   -0.32466E-03   -0.39731E-03 10584   0.320E-02-0.769E-03
CGA:  25    -0.354745063249E+03   -0.13521E-03   -0.13104E-03 10584   0.155E-02-0.717E-04
CGA:  26    -0.354745187414E+03   -0.12416E-03   -0.12641E-03 10584   0.149E-02 0.428E-04
CGA:  27    -0.354745370147E+03   -0.18273E-03   -0.18095E-03 10584   0.118E-02-0.181E-03
CGA:  28    -0.354745470133E+03   -0.99986E-04   -0.89036E-04 10584   0.806E-03-0.263E-03
CGA:  29    -0.354745533308E+03   -0.63175E-04   -0.61343E-04 10584   0.674E-03-0.685E-04
CGA:  30    -0.354745567708E+03   -0.34400E-04   -0.40268E-04 10584   0.400E-03 0.979E-04
CGA:  31    -0.354745597608E+03   -0.29900E-04   -0.34146E-04 10584   0.293E-03 0.903E-04
SDA:  32    -0.354745639255E+03   -0.41647E-04   -0.41483E-04 10584   0.302E-03-0.463E-04
CGA:  33    -0.354745678378E+03   -0.39123E-04   -0.39533E-04 10584   0.137E-03-0.335E-04
CGA:  34    -0.354745683756E+03   -0.53778E-05   -0.90449E-05 10584   0.728E-04 0.817E-04
  31 F= -.35474568E+03 E0= -.35474552E+03  d E =0.133382E+01  mag=    17.9979
       N       E                     dE             d eps       ncg     rms          ort
SDA:   1    -0.346456841881E+03    0.82888E+01    0.00000E+00 10584   0.297E+02 0.000E+00
CGA:   2    -0.351653481155E+03   -0.51966E+01   -0.48420E+01 10584   0.164E+02 0.540E+01
CGA:   3    -0.354350443072E+03   -0.26970E+01   -0.27616E+01 10584   0.102E+02-0.193E+01
CGA:   4    -0.355560553245E+03   -0.12101E+01   -0.12015E+01 10584   0.129E+01 0.380E+00
CGA:   5    -0.355842888749E+03   -0.28234E+00   -0.28135E+00 10584   0.692E+00 0.990E-02
CGA:   6    -0.355918900898E+03   -0.76012E-01   -0.75629E-01 10584   0.193E+00-0.144E-01
CGA:   7    -0.355952683825E+03   -0.33783E-01   -0.33530E-01 10584   0.874E-01 0.413E-02
CGA:   8    -0.355969214283E+03   -0.16530E-01   -0.16605E-01 10584   0.500E-01-0.135E-02
CGA:   9    -0.355978161816E+03   -0.89475E-02   -0.89435E-02 10584   0.177E-01 0.514E-04
CGA:  10    -0.355982106403E+03   -0.39446E-02   -0.41004E-02 10584   0.147E-01-0.159E-02
CGA:  11    -0.355983741748E+03   -0.16353E-02   -0.16377E-02 10584   0.527E-02 0.102E-03
CGA:  12    -0.355984953922E+03   -0.12122E-02   -0.13278E-02 10584   0.277E-02-0.102E-02
CGA:  13    -0.355985442767E+03   -0.48885E-03   -0.59360E-03 10584   0.386E-02-0.857E-03
CGA:  14    -0.355985773796E+03   -0.33103E-03   -0.32685E-03 10584   0.131E-02-0.189E-03
CGA:  15    -0.355985991765E+03   -0.21797E-03   -0.23041E-03 10584   0.184E-02-0.328E-03
CGA:  16    -0.355986248446E+03   -0.25668E-03   -0.33444E-03 10584   0.218E-02-0.846E-03
CGA:  17    -0.355986353280E+03   -0.10483E-03   -0.97118E-04 10584   0.126E-02-0.126E-03
CGA:  18    -0.355986491978E+03   -0.13870E-03   -0.13786E-03 10584   0.129E-02-0.344E-04
CGA:  19    -0.355986706856E+03   -0.21488E-03   -0.24212E-03 10584   0.108E-02-0.624E-03
CGA:  20    -0.355986791113E+03   -0.84258E-04   -0.82262E-04 10584   0.140E-02-0.609E-03
CGA:  21    -0.355986925751E+03   -0.13464E-03   -0.14619E-03 10584   0.441E-03 0.249E-03
CGA:  22    -0.355987031068E+03   -0.10532E-03   -0.11186E-03 10584   0.186E-03-0.971E-04
CGA:  23    -0.355987048823E+03   -0.17755E-04   -0.18673E-04 10584   0.939E-04 0.408E-04
CGA:  24    -0.355987070523E+03   -0.21700E-04   -0.20826E-04 10584   0.470E-04 0.272E-04
CGA:  25    -0.355987083144E+03   -0.12621E-04   -0.18088E-04 10584   0.149E-03-0.377E-04
CGA:  26    -0.355987088723E+03   -0.55793E-05   -0.95703E-05 10584   0.256E-04 0.421E-04
  32 F= -.35598709E+03 E0= -.35598706E+03  d E =-.124140E+01  mag=    18.0000
       N       E                     dE             d eps       ncg     rms          ort
SDA:   1    -0.355436540436E+03    0.55054E+00    0.00000E+00 10584   0.172E+01 0.000E+00
CGA:   2    -0.355872157283E+03   -0.43562E+00   -0.43336E+00 10584   0.128E+01 0.215E-01
CGA:   3    -0.356031316026E+03   -0.15916E+00   -0.15856E+00 10584   0.365E+00-0.109E-01
CGA:   4    -0.356087678995E+03   -0.56363E-01   -0.56352E-01 10584   0.105E+00 0.736E-02
CGA:   5    -0.356104625505E+03   -0.16947E-01   -0.16963E-01 10584   0.379E-01-0.475E-02
CGA:   6    -0.356109112226E+03   -0.44867E-02   -0.45346E-02 10584   0.960E-02 0.145E-02
CGA:   7    -0.356111101634E+03   -0.19894E-02   -0.19997E-02 10584   0.566E-02-0.217E-03
CGA:   8    -0.356111928825E+03   -0.82719E-03   -0.82724E-03 10584   0.273E-02 0.291E-05
CGA:   9    -0.356112448872E+03   -0.52005E-03   -0.51917E-03 10584   0.104E-02 0.238E-04
CGA:  10    -0.356112719840E+03   -0.27097E-03   -0.43481E-03 10584   0.150E-02-0.639E-03
CGA:  11    -0.356112852669E+03   -0.13283E-03   -0.14355E-03 10584   0.378E-03 0.142E-03
CGA:  12    -0.356112937266E+03   -0.84597E-04   -0.90337E-04 10584   0.196E-03-0.110E-03
CGA:  13    -0.356112987130E+03   -0.49864E-04    0.17683E-03 10584   0.105E-03 0.230E-05
CGA:  14    -0.356113008072E+03   -0.20942E-04   -0.36845E-04 10584   0.248E-03-0.899E-04
CGA:  15    -0.356112997185E+03    0.10887E-04   -0.86493E-04 10584   0.212E-02-0.573E-03
CGA:  16    -0.356113074864E+03   -0.77679E-04   -0.12238E-03 10584   0.101E-03 0.336E-03
CGA:  17    -0.356113075536E+03   -0.67210E-06   -0.65987E-05 10584   0.353E-04 0.478E-04
  33 F= -.35611308E+03 E0= -.35611306E+03  d E =-.125987E+00  mag=    18.0000
       N       E                     dE             d eps       ncg     rms          ort
SDA:   1    -0.355321401897E+03    0.79167E+00    0.00000E+00 10584   0.227E+01 0.000E+00
CGA:   2    -0.355857582327E+03   -0.53618E+00   -0.53481E+00 10584   0.157E+01 0.200E-01
CGA:   3    -0.356067693572E+03   -0.21011E+00   -0.20957E+00 10584   0.523E+00-0.912E-02
CGA:   4    -0.356142048982E+03   -0.74355E-01   -0.74605E-01 10584   0.143E+00 0.625E-02
CGA:   5    -0.356164803828E+03   -0.22755E-01   -0.22678E-01 10584   0.516E-01-0.457E-02
CGA:   6    -0.356171013591E+03   -0.62098E-02   -0.62562E-02 10584   0.143E-01 0.717E-03
CGA:   7    -0.356173632307E+03   -0.26187E-02   -0.26194E-02 10584   0.609E-02-0.599E-04
CGA:   8    -0.356174770882E+03   -0.11386E-02   -0.11420E-02 10584   0.348E-02-0.182E-03
CGA:   9    -0.356175290937E+03   -0.52005E-03   -0.52185E-03 10584   0.138E-02 0.113E-03
CGA:  10    -0.356175658979E+03   -0.36804E-03   -0.39614E-03 10584   0.939E-03-0.262E-03
CGA:  11    -0.356175802947E+03   -0.14397E-03   -0.17743E-03 10584   0.152E-02-0.575E-03
CGA:  12    -0.356175880270E+03   -0.77323E-04   -0.99187E-04 10584   0.198E-03 0.190E-03
CGA:  13    -0.356175938664E+03   -0.58394E-04   -0.61230E-04 10584   0.226E-03-0.279E-04
CGA:  14    -0.356175968699E+03   -0.30036E-04   -0.40238E-04 10584   0.596E-03-0.336E-03
CGA:  15    -0.356175995323E+03   -0.26624E-04   -0.38336E-04 10584   0.875E-04 0.101E-03
CGA:  16    -0.356176020322E+03   -0.24999E-04   -0.33164E-04 10584   0.200E-03-0.543E-04
CGA:  17    -0.356176055474E+03   -0.35152E-04   -0.27075E-04 10584   0.237E-03-0.178E-03
CGA:  18    -0.356176059883E+03   -0.44082E-05   -0.11749E-04 10584   0.199E-04 0.567E-04
  34 F= -.35617606E+03 E0= -.35617603E+03  d E =-.629843E-01  mag=    18.0000
       N       E                     dE             d eps       ncg     rms          ort
SDA:   1    -0.355895106914E+03    0.28095E+00    0.00000E+00 10584   0.803E+00 0.000E+00
CGA:   2    -0.356078739185E+03   -0.18363E+00   -0.18324E+00 10584   0.474E+00 0.615E-02
CGA:   3    -0.356151643061E+03   -0.72904E-01   -0.72891E-01 10584   0.174E+00-0.105E-02
CGA:   4    -0.356175049840E+03   -0.23407E-01   -0.23432E-01 10584   0.496E-01 0.837E-03
CGA:   5    -0.356182460605E+03   -0.74108E-02   -0.73589E-02 10584   0.172E-01-0.265E-02
CGA:   6    -0.356184517999E+03   -0.20574E-02   -0.20816E-02 10584   0.463E-02 0.586E-03
CGA:   7    -0.356185409000E+03   -0.89100E-03   -0.89615E-03 10584   0.187E-02-0.220E-03
CGA:   8    -0.356185699519E+03   -0.29052E-03   -0.29077E-03 10584   0.754E-03 0.203E-03
[...]
CGA:   7    -0.355919209851E+03   -0.14364E-01   -0.14380E-01 10584   0.472E-01 0.812E-03
CGA:   8    -0.355926251766E+03   -0.70419E-02   -0.70698E-02 10584   0.188E-01 0.222E-02
CGA:   9    -0.355930149241E+03   -0.38975E-02   -0.40041E-02 10584   0.189E-01-0.241E-02
CGA:  10    -0.355932112418E+03   -0.19632E-02   -0.20547E-02 10584   0.510E-02 0.232E-02
CGA:  11    -0.355933488907E+03   -0.13765E-02   -0.13172E-02 10584   0.405E-02 0.817E-03
CGA:  12    -0.355934232033E+03   -0.74313E-03   -0.73434E-03 10584   0.373E-02-0.143E-02
CGA:  13    -0.355934460076E+03   -0.22804E-03   -0.25120E-03 10584   0.157E-02 0.382E-03
CGA:  14    -0.355934508063E+03   -0.47987E-04   -0.10179E-03 10584   0.634E-03 0.526E-03
CGA:  15    -0.355934555964E+03   -0.47902E-04   -0.70601E-04 10584   0.483E-03 0.319E-03
CGA:  16    -0.355932196415E+03    0.23595E-02   -0.12674E-02 10584   0.456E-01-0.349E-02
CGA:  17    -0.355934572967E+03   -0.23766E-02   -0.29242E-02 10584   0.916E-03 0.252E-03
CGA:  18    -0.355934660547E+03   -0.87580E-04   -0.10091E-03 10584   0.362E-03 0.839E-04
CGA:  19    -0.355934762191E+03   -0.10164E-03   -0.10179E-03 10584   0.132E-03-0.169E-03
CGA:  20    -0.355934761243E+03    0.94767E-06   -0.49945E-05 10584   0.673E-04 0.318E-04
  95 F= -.35593476E+03 E0= -.35593455E+03  d E =0.617312E-01  mag=    20.0000
       N       E                     dE             d eps       ncg     rms          ort
SDA:   1    -0.355376735748E+03    0.55803E+00    0.00000E+00 10584   0.137E+01 0.000E+00
CGA:   2    -0.355814017873E+03   -0.43728E+00   -0.43752E+00 10584   0.689E+00-0.279E-02
CGA:   3    -0.355910112917E+03   -0.96095E-01   -0.96450E-01 10584   0.214E+00 0.209E-02
CGA:   4    -0.355941048139E+03   -0.30935E-01   -0.30669E-01 10584   0.672E-01-0.208E-02
CGA:   5    -0.355950083235E+03   -0.90351E-02   -0.91627E-02 10584   0.191E-01 0.114E-02
CGA:   6    -0.355953210997E+03   -0.31278E-02   -0.30828E-02 10584   0.756E-02-0.631E-03
CGA:   7    -0.355954236889E+03   -0.10259E-02   -0.10476E-02 10584   0.332E-02 0.248E-03
CGA:   8    -0.355954842479E+03   -0.60559E-03   -0.59989E-03 10584   0.158E-02-0.128E-03
CGA:   9    -0.355955094267E+03   -0.25179E-03   -0.25532E-03 10584   0.737E-03 0.695E-04
CGA:  10    -0.355955251559E+03   -0.15729E-03   -0.15653E-03 10584   0.449E-03-0.632E-04
CGA:  11    -0.355955297876E+03   -0.46317E-04   -0.52629E-04 10584   0.147E-03 0.716E-04
CGA:  12    -0.355955339185E+03   -0.41309E-04   -0.42014E-04 10584   0.814E-04-0.199E-04
CGA:  13    -0.355955341231E+03   -0.20454E-05   -0.60540E-05 10584   0.388E-04 0.315E-04
  96 F= -.35595534E+03 E0= -.35595522E+03  d E =-.205800E-01  mag=    20.0000
       N       E                     dE             d eps       ncg     rms          ort
SDA:   1    -0.355495283181E+03    0.46006E+00    0.00000E+00 10584   0.116E+01 0.000E+00
CGA:   2    -0.355868269559E+03   -0.37299E+00   -0.37356E+00 10584   0.435E+00-0.518E-02
CGA:   3    -0.355935493606E+03   -0.67224E-01   -0.66994E-01 10584   0.228E+00-0.253E-02
CGA:   4    -0.355960923483E+03   -0.25430E-01   -0.25799E-01 10584   0.374E-01 0.304E-02
CGA:   5    -0.355967174793E+03   -0.62513E-02   -0.62519E-02 10584   0.120E-01 0.109E-04
CGA:   6    -0.355969172507E+03   -0.19977E-02   -0.19903E-02 10584   0.524E-02-0.241E-03
CGA:   7    -0.355969901591E+03   -0.72908E-03   -0.71699E-03 10584   0.232E-02-0.223E-03
CGA:   8    -0.355970299795E+03   -0.39820E-03   -0.39831E-03 10584   0.971E-03 0.518E-05
CGA:   9    -0.355970537135E+03   -0.23734E-03   -0.29034E-03 10584   0.185E-02-0.504E-03
CGA:  10    -0.355970606381E+03   -0.69246E-04   -0.11420E-03 10584   0.251E-03 0.319E-03
CGA:  11    -0.355970631962E+03   -0.25582E-04   -0.33995E-04 10584   0.162E-03 0.111E-03
CGA:  12    -0.355970678453E+03   -0.46491E-04   -0.49961E-04 10584   0.268E-03-0.131E-03
CGA:  13    -0.355970683146E+03   -0.46926E-05   -0.15945E-04 10584   0.603E-04 0.865E-04
  97 F= -.35597068E+03 E0= -.35597056E+03  d E =-.153419E-01  mag=    20.0000
       N       E                     dE             d eps       ncg     rms          ort
SDA:   1    -0.355744465293E+03    0.22621E+00    0.00000E+00 10584   0.639E+00 0.000E+00
CGA:   2    -0.355892839679E+03   -0.14837E+00   -0.14835E+00 10584   0.352E+00 0.285E-03
CGA:   3    -0.355944670171E+03   -0.51830E-01   -0.51904E-01 10584   0.134E+00 0.202E-02
CGA:   4    -0.355963079446E+03   -0.18409E-01   -0.18371E-01 10584   0.409E-01-0.888E-03
CGA:   5    -0.355968675472E+03   -0.55960E-02   -0.55730E-02 10584   0.106E-01-0.589E-03
CGA:   6    -0.355970138072E+03   -0.14626E-02   -0.14763E-02 10584   0.311E-02 0.396E-03
CGA:   7    -0.355970755893E+03   -0.61782E-03   -0.63641E-03 10584   0.239E-02-0.750E-03
CGA:   8    -0.355970897057E+03   -0.14116E-03   -0.16873E-03 10584   0.723E-03 0.336E-03
CGA:   9    -0.355970965485E+03   -0.68428E-04   -0.83612E-04 10584   0.425E-03 0.221E-03
CGA:  10    -0.355971058588E+03   -0.93103E-04   -0.93358E-04 10584   0.283E-03-0.151E-03
CGA:  11    -0.355971081840E+03   -0.23252E-04   -0.23855E-04 10584   0.186E-03 0.167E-04
CGA:  12    -0.355971093399E+03   -0.11559E-04   -0.17176E-04 10584   0.882E-04 0.723E-04
CGA:  13    -0.355971105962E+03   -0.12563E-04   -0.13703E-04 10584   0.371E-04 0.231E-04
CGA:  14    -0.355971121332E+03   -0.15371E-04    0.10814E-03 10584   0.243E-04 0.130E-05
CGA:  15    -0.355971122193E+03   -0.86027E-06   -0.18427E-05 10584   0.130E-04 0.115E-04
  98 F= -.35597112E+03 E0= -.35597100E+03  d E =-.439047E-03  mag=    20.0000
       N       E                     dE             d eps       ncg     rms          ort
SDA:   1    -0.355829232754E+03    0.14189E+00    0.00000E+00 10584   0.387E+00 0.000E+00
CGA:   2    -0.355925311085E+03   -0.96078E-01   -0.95338E-01 10584   0.143E+00 0.738E-02
CGA:   3    -0.355952153692E+03   -0.26843E-01   -0.26877E-01 10584   0.726E-01-0.108E-02
CGA:   4    -0.355961456146E+03   -0.93025E-02   -0.92956E-02 10584   0.179E-01-0.449E-03
CGA:   5    -0.355963752522E+03   -0.22964E-02   -0.22890E-02 10584   0.562E-02-0.296E-03
CGA:   6    -0.355964692856E+03   -0.94033E-03   -0.95614E-03 10584   0.285E-02-0.782E-03
CGA:   7    -0.355964908188E+03   -0.21533E-03   -0.24284E-03 10584   0.830E-03 0.497E-03
CGA:   8    -0.355965069251E+03   -0.16106E-03   -0.15925E-03 10584   0.498E-03 0.144E-03
CGA:   9    -0.355965172777E+03   -0.10353E-03   -0.11393E-03 10584   0.829E-03-0.240E-03
CGA:  10    -0.355965189663E+03   -0.16886E-04   -0.25693E-04 10584   0.620E-03 0.932E-04
CGA:  11    -0.355965202471E+03   -0.12808E-04   -0.31106E-04 10584   0.231E-03 0.174E-03
CGA:  12    -0.355965214677E+03   -0.12206E-04   -0.19653E-04 10584   0.215E-03 0.959E-04
CGA:  13    -0.355965257888E+03   -0.43211E-04   -0.43403E-04 10584   0.148E-03-0.671E-04
CGA:  14    -0.355965063368E+03    0.19452E-03   -0.43714E-04 10584   0.352E-02-0.823E-03
CGA:  15    -0.355965216214E+03   -0.15285E-03   -0.20411E-03 10584   0.319E-03 0.508E-03
CGA:  16    -0.355965244019E+03   -0.27804E-04   -0.35978E-04 10584   0.208E-03 0.160E-03
CGA:  17    -0.355965138426E+03    0.10559E-03   -0.98698E-04 10584   0.401E-02-0.625E-03
CGA:  18    -0.355965297384E+03   -0.15896E-03   -0.21444E-03 10584   0.764E-04 0.471E-03
CGA:  19    -0.355965294676E+03    0.27079E-05   -0.28719E-05 10584   0.266E-04 0.447E-04
  99 F= -.35596529E+03 E0= -.35596515E+03  d E =0.582752E-02  mag=    20.0000
       N       E                     dE             d eps       ncg     rms          ort
SDA:   1    -0.355526361185E+03    0.43894E+00    0.00000E+00 10584   0.120E+01 0.000E+00
CGA:   2    -0.355844784846E+03   -0.31842E+00   -0.31616E+00 10584   0.377E+00 0.184E-01
CGA:   3    -0.355925774744E+03   -0.80990E-01   -0.81824E-01 10584   0.222E+00-0.135E-01
CGA:   4    -0.355946655122E+03   -0.20880E-01   -0.21312E-01 10584   0.314E-01 0.577E-02
CGA:   5    -0.355952834829E+03   -0.61797E-02   -0.62358E-02 10584   0.123E-01-0.138E-02
CGA:   6    -0.355954628479E+03   -0.17937E-02   -0.17919E-02 10584   0.534E-02-0.661E-03
CGA:   7    -0.355955215505E+03   -0.58703E-03   -0.60381E-03 10584   0.199E-02 0.473E-03
CGA:   8    -0.355955673536E+03   -0.45803E-03   -0.44677E-03 10584   0.911E-03 0.209E-03
CGA:   9    -0.355955885909E+03   -0.21237E-03   -0.36815E-03 10584   0.303E-02-0.743E-03
CGA:  10    -0.355956019150E+03   -0.13324E-03   -0.19471E-03 10584   0.372E-03 0.591E-03
CGA:  11    -0.355956056589E+03   -0.37439E-04   -0.46451E-04 10584   0.221E-03 0.159E-03
CGA:  12    -0.355956064046E+03   -0.74579E-05   -0.11943E-03 10584   0.106E-02-0.508E-03
CGA:  13    -0.355956117116E+03   -0.53069E-04   -0.80272E-04 10584   0.241E-03 0.288E-03
CGA:  14    -0.355956152145E+03   -0.35029E-04   -0.38255E-04 10584   0.795E-04 0.810E-04
CGA:  15    -0.355956187962E+03   -0.35817E-04    0.22593E-03 10584   0.876E-04-0.540E-04
CGA:  16    -0.355956185112E+03    0.28500E-05   -0.32531E-05 10584   0.305E-04 0.486E-04
 100 F= -.35595619E+03 E0= -.35595604E+03  d E =0.910956E-02  mag=    20.0000
       N       E                     dE             d eps       ncg     rms          ort
SDA:   1    -0.349746487721E+03    0.62097E+01    0.00000E+00 10584   0.175E+02 0.000E+00
CGA:   2    -0.353978842524E+03   -0.42324E+01   -0.41929E+01 10584   0.889E+01 0.381E+00
CGA:   3    -0.355106384151E+03   -0.11275E+01   -0.10969E+01 10584   0.391E+01-0.221E+00
CGA:   4    -0.355733083463E+03   -0.62670E+00   -0.62566E+00 10584   0.721E+00 0.578E-01
CGA:   5    -0.355820407526E+03   -0.87324E-01   -0.87027E-01 10584   0.314E+00-0.242E-02
CGA:   6    -0.355866265492E+03   -0.45858E-01   -0.45840E-01 10584   0.804E-01-0.347E-02
CGA:   7    -0.355881875752E+03   -0.15610E-01   -0.15640E-01 10584   0.348E-01-0.685E-03
CGA:   8    -0.355887395503E+03   -0.55198E-02   -0.55090E-02 10584   0.251E-01 0.165E-02
CGA:   9    -0.355892125743E+03   -0.47302E-02   -0.47853E-02 10584   0.135E-01-0.196E-02
CGA:  10    -0.355894367623E+03   -0.22419E-02   -0.22102E-02 10584   0.681E-02 0.140E-02
CGA:  11    -0.355895992698E+03   -0.16251E-02   -0.17451E-02 10584   0.683E-02-0.160E-02
CGA:  12    -0.355896433989E+03   -0.44129E-03   -0.48353E-03 10584   0.200E-02 0.599E-03
CGA:  13    -0.355896662375E+03   -0.22839E-03   -0.24935E-03 10584   0.146E-02 0.496E-03
CGA:  14    -0.355896939330E+03   -0.27696E-03   -0.27523E-03 10584   0.654E-03-0.403E-03
CGA:  15    -0.355897030736E+03   -0.91405E-04   -0.99294E-04 10584   0.567E-03-0.145E-03
CGA:  16    -0.355897071604E+03   -0.40868E-04   -0.46182E-04 10584   0.221E-03 0.100E-03
CGA:  17    -0.355897111269E+03   -0.39665E-04   -0.39716E-04 10584   0.194E-03 0.253E-04
CGA:  18    -0.355897147902E+03   -0.36633E-04   -0.43301E-04 10584   0.175E-03-0.147E-03
CGA:  19    -0.355897166794E+03   -0.18893E-04   -0.19376E-04 10584   0.831E-04 0.102E-04
CGA:  20    -0.355897174680E+03   -0.78854E-05   -0.93236E-05 10584   0.133E-04 0.296E-04
 101 F= -.35589717E+03 E0= -.35589693E+03  d E =0.590104E-01  mag=    20.0000
       N       E                     dE             d eps       ncg     rms          ort
SDA:   1    -0.354111909659E+03    0.17853E+01    0.00000E+00 10584   0.477E+01 0.000E+00
CGA:   2    -0.355453375291E+03   -0.13415E+01   -0.13356E+01 10584   0.216E+01 0.407E-01
CGA:   3    -0.355735252109E+03   -0.28188E+00   -0.27760E+00 10584   0.122E+01-0.454E-01
CGA:   4    -0.355891555087E+03   -0.15630E+00   -0.15755E+00 10584   0.174E+00 0.247E-01
CGA:   5    -0.355920774697E+03   -0.29220E-01   -0.29194E-01 10584   0.612E-01 0.281E-02
CGA:   6    -0.355930398514E+03   -0.96238E-02   -0.96197E-02 10584   0.278E-01-0.259E-02
CGA:   7    -0.355933933874E+03   -0.35354E-02   -0.35746E-02 10584   0.840E-02 0.173E-02
CGA:   8    -0.355936115314E+03   -0.21814E-02   -0.21815E-02 10584   0.443E-02-0.674E-05
CGA:   9    -0.355937150977E+03   -0.10357E-02   -0.10925E-02 10584   0.452E-02-0.655E-03
CGA:  10    -0.355937527132E+03   -0.37616E-03   -0.40584E-03 10584   0.153E-02 0.496E-03
CGA:  11    -0.355937781823E+03   -0.25469E-03   -0.25800E-03 10584   0.107E-02 0.374E-03
CGA:  12    -0.355937992850E+03   -0.21103E-03   -0.20980E-03 10584   0.668E-03-0.353E-03
CGA:  13    -0.355938054672E+03   -0.61822E-04   -0.62301E-04 10584   0.301E-03 0.215E-04
CGA:  14    -0.355938069834E+03   -0.15163E-04   -0.25618E-04 10584   0.161E-03 0.136E-03
CGA:  15    -0.355938094016E+03   -0.24182E-04   -0.26956E-04 10584   0.802E-04 0.684E-04
CGA:  16    -0.355938132970E+03   -0.38954E-04    0.78380E-04 10584   0.578E-04-0.324E-05
CGA:  17    -0.355938134957E+03   -0.19876E-05   -0.41758E-05 10584   0.393E-04 0.278E-04
 102 F= -.35593813E+03 E0= -.35593801E+03  d E =-.409603E-01  mag=    20.0000
       N       E                     dE             d eps       ncg     rms          ort
SDA:   1    -0.354367691723E+03    0.15704E+01    0.00000E+00 10584   0.415E+01 0.000E+00
CGA:   2    -0.355543368054E+03   -0.11757E+01   -0.11730E+01 10584   0.171E+01 0.170E-01
CGA:   3    -0.355796894383E+03   -0.25353E+00   -0.25330E+00 10584   0.942E+00-0.450E-01
CGA:   4    -0.355916541001E+03   -0.11965E+00   -0.12025E+00 10584   0.107E+00 0.230E-01
CGA:   5    -0.355937607403E+03   -0.21066E-01   -0.21051E-01 10584   0.484E-01 0.354E-03
CGA:   6    -0.355943522338E+03   -0.59149E-02   -0.59172E-02 10584   0.198E-01 0.131E-04
CGA:   7    -0.355946568149E+03   -0.30458E-02   -0.30473E-02 10584   0.752E-02-0.429E-03
CGA:   8    -0.355948098585E+03   -0.15304E-02   -0.15031E-02 10584   0.431E-02 0.496E-03
CGA:   9    -0.355948970146E+03   -0.87156E-03   -0.94978E-03 10584   0.572E-02-0.147E-02
CGA:  10    -0.355949338177E+03   -0.36803E-03   -0.39067E-03 10584   0.233E-02 0.421E-03
CGA:  11    -0.355949482240E+03   -0.14406E-03   -0.18945E-03 10584   0.133E-02 0.578E-03
CGA:  12    -0.355949706551E+03   -0.22431E-03   -0.22713E-03 10584   0.688E-03 0.222E-03
CGA:  13    -0.355949827628E+03   -0.12108E-03   -0.12662E-03 10584   0.111E-02-0.624E-03
CGA:  14    -0.355949855333E+03   -0.27706E-04   -0.59360E-04 10584   0.186E-03 0.326E-03
CGA:  15    -0.355949859564E+03   -0.42301E-05   -0.14361E-04 10584   0.114E-03 0.119E-03
CGA:  16    -0.355949897804E+03   -0.38241E-04    0.41836E-04 10584   0.749E-04 0.287E-04
CGA:  17    -0.355949902727E+03   -0.49227E-05   -0.78231E-05 10584   0.248E-04 0.511E-04
 103 F= -.35594990E+03 E0= -.35594970E+03  d E =-.117678E-01  mag=    20.0000
       N       E                     dE             d eps       ncg     rms          ort
SDA:   1    -0.355057413423E+03    0.89248E+00    0.00000E+00 10584   0.226E+01 0.000E+00
CGA:   2    -0.355735676497E+03   -0.67826E+00   -0.67823E+00 10584   0.989E+00-0.398E-03
CGA:   3    -0.355869888230E+03   -0.13421E+00   -0.13408E+00 10584   0.521E+00-0.159E-01
CGA:   4    -0.355934443340E+03   -0.64555E-01   -0.64811E-01 10584   0.829E-01 0.111E-01
CGA:   5    -0.355948142983E+03   -0.13700E-01   -0.13679E-01 10584   0.263E-01 0.952E-03
CGA:   6    -0.355952445270E+03   -0.43023E-02   -0.43099E-02 10584   0.121E-01-0.355E-03
CGA:   7    -0.355954035829E+03   -0.15906E-02   -0.15915E-02 10584   0.451E-02 0.752E-04
CGA:   8    -0.355954999677E+03   -0.96385E-03   -0.96217E-03 10584   0.226E-02 0.197E-04
CGA:   9    -0.355955486110E+03   -0.48643E-03   -0.57725E-03 10584   0.351E-02-0.836E-03
CGA:  10    -0.355955638793E+03   -0.15268E-03   -0.17552E-03 10584   0.142E-02 0.314E-03
CGA:  11    -0.355955704486E+03   -0.65692E-04   -0.96537E-04 10584   0.749E-03 0.359E-03
CGA:  12    -0.355955802925E+03   -0.98440E-04   -0.10550E-03 10584   0.596E-03 0.231E-03
CGA:  13    -0.355955894182E+03   -0.91257E-04   -0.84179E-04 10584   0.241E-03-0.212E-03
CGA:  14    -0.355955919585E+03   -0.25402E-04   -0.25256E-04 10584   0.147E-03 0.598E-05
CGA:  15    -0.355955921963E+03   -0.23785E-05   -0.90544E-05 10584   0.811E-04 0.826E-04
CGA:  16    -0.355955937028E+03   -0.15065E-04   -0.13925E-04 10584   0.292E-04 0.327E-04
CGA:  17    -0.355955951572E+03   -0.14544E-04    0.10232E-04 10584   0.128E-04 0.121E-04
CGA:  18    -0.355955956862E+03   -0.52895E-05   -0.56067E-05 10584   0.181E-04-0.198E-05
 104 F= -.35595596E+03 E0= -.35595584E+03  d E =-.605413E-02  mag=    20.0000
       N       E                     dE             d eps       ncg     rms          ort
SDA:   1    -0.355494523049E+03    0.46143E+00    0.00000E+00 10584   0.119E+01 0.000E+00
CGA:   2    -0.355836749810E+03   -0.34223E+00   -0.33899E+00 10584   0.525E+00 0.226E-01
CGA:   3    -0.355912574765E+03   -0.75825E-01   -0.75676E-01 10584   0.256E+00-0.149E-01
CGA:   4    -0.355946820296E+03   -0.34246E-01   -0.34337E-01 10584   0.402E-01 0.636E-02
CGA:   5    -0.355954462231E+03   -0.76419E-02   -0.77088E-02 10584   0.121E-01-0.177E-02
CGA:   6    -0.355956624516E+03   -0.21623E-02   -0.21579E-02 10584   0.374E-02 0.123E-03
CGA:   7    -0.355957246570E+03   -0.62205E-03   -0.61795E-03 10584   0.190E-02 0.388E-03
CGA:   8    -0.355957630984E+03   -0.38441E-03   -0.38603E-03 10584   0.113E-02-0.541E-04
CGA:   9    -0.355957803004E+03   -0.17202E-03   -0.17176E-03 10584   0.410E-03 0.205E-03
CGA:  10    -0.355957936832E+03   -0.13383E-03   -0.18580E-03 10584   0.607E-03-0.228E-03
CGA:  11    -0.355957992228E+03   -0.55396E-04   -0.61075E-04 10584   0.154E-03 0.856E-04
CGA:  12    -0.355958024832E+03   -0.32604E-04   -0.35153E-04 10584   0.103E-03-0.701E-04
CGA:  13    -0.355958030900E+03   -0.60677E-05   -0.65654E-05 10584   0.558E-04 0.104E-04
 105 F= -.35595803E+03 E0= -.35595789E+03  d E =-.207404E-02  mag=    20.0000
       N       E                     dE             d eps       ncg     rms          ort
SDA:   1    -0.355855557862E+03    0.10247E+00    0.00000E+00 10584   0.258E+00 0.000E+00
CGA:   2    -0.355927190205E+03   -0.71632E-01   -0.71095E-01 10584   0.147E+00 0.461E-02
CGA:   3    -0.355944347389E+03   -0.17157E-01   -0.16942E-01 10584   0.572E-01-0.279E-02
CGA:   4    -0.355953234365E+03   -0.88870E-02   -0.88917E-02 10584   0.101E-01 0.611E-03
CGA:   5    -0.355954917475E+03   -0.16831E-02   -0.16831E-02 10584   0.349E-02-0.562E-04
CGA:   6    -0.355955442824E+03   -0.52535E-03   -0.52198E-03 10584   0.172E-02-0.235E-03
CGA:   7    -0.355955659996E+03   -0.21717E-03   -0.21811E-03 10584   0.511E-03 0.322E-04
CGA:   8    -0.355955735081E+03   -0.75085E-04   -0.77404E-04 10584   0.205E-03 0.163E-03
CGA:   9    -0.355955146034E+03    0.58905E-03   -0.32026E-03 10584   0.730E-02-0.101E-02
CGA:  10    -0.355955559907E+03   -0.41387E-03   -0.56181E-03 10584   0.115E-02 0.581E-03
CGA:  11    -0.355955797629E+03   -0.23772E-03   -0.23471E-03 10584   0.272E-03-0.315E-04
CGA:  12    -0.355955872414E+03   -0.74786E-04   -0.68380E-04 10584   0.816E-03-0.294E-03
CGA:  13    -0.355955881102E+03   -0.86873E-05   -0.46192E-04 10584   0.580E-04 0.166E-03
 106 F= -.35595588E+03 E0= -.35595573E+03  d E =0.214980E-02  mag=    20.0000
       N       E                     dE             d eps       ncg     rms          ort
SDA:   1    -0.355928620552E+03    0.27252E-01    0.00000E+00 10584   0.692E-01 0.000E+00
CGA:   2    -0.355951338663E+03   -0.22718E-01   -0.22802E-01 10584   0.311E-01-0.116E-02
CGA:   3    -0.355955132737E+03   -0.37941E-02   -0.39294E-02 10584   0.119E-01 0.917E-03
CGA:   4    -0.355956897041E+03   -0.17643E-02   -0.16947E-02 10584   0.338E-02-0.567E-03
CGA:   5    -0.355957265542E+03   -0.36850E-03   -0.40157E-03 10584   0.865E-03 0.261E-03
CGA:   6    -0.355957426253E+03   -0.16071E-03   -0.15788E-03 10584   0.394E-03-0.397E-04
CGA:   7    -0.355957482892E+03   -0.56638E-04   -0.54254E-04 10584   0.178E-03-0.256E-04
CGA:   8    -0.355957516368E+03   -0.33476E-04   -0.32707E-04 10584   0.809E-04-0.213E-04
CGA:   9    -0.355957523389E+03   -0.70206E-05   -0.92706E-05 10584   0.309E-04 0.222E-04
CGA:  10    -0.355957534376E+03   -0.10987E-04   -0.13257E-04 10584   0.392E-04-0.206E-04
CGA:  11    -0.355957532634E+03    0.17420E-05   -0.22226E-05 10584   0.146E-04 0.226E-04
 107 F= -.35595753E+03 E0= -.35595738E+03  d E =-.165153E-02  mag=    20.0000
