       N       E                     dE             d eps       ncg     rms          ort
DAV:   1     0.282453857684E+04    0.28245E+04   -0.13329E+05 10584   0.173E+03
DAV:   2    -0.667540241565E+02   -0.28913E+04   -0.26003E+04 10584   0.446E+02
DAV:   3    -0.478891441157E+03   -0.41214E+03   -0.40327E+03 10584   0.192E+02
DAV:   4    -0.496444734801E+03   -0.17553E+02   -0.17371E+02 10584   0.398E+01
DAV:   5    -0.496949225555E+03   -0.50449E+00   -0.50190E+00 10584   0.554E+00
SDA:   6    -0.176229940132E+03    0.32072E+03   -0.50190E+00 10584   0.987E+03 0.000E+00
CGA:   7    -0.302869989096E+03   -0.12664E+03   -0.13229E+03 10584   0.154E+03 0.102E+02
CGA:   8    -0.330015904670E+03   -0.27146E+02   -0.26739E+02 10584   0.711E+02-0.474E+01
CGA:   9    -0.340307362812E+03   -0.10291E+02   -0.98772E+01 10584   0.463E+02-0.104E+01
CGA:  10    -0.347925428786E+03   -0.76181E+01   -0.76332E+01 10584   0.291E+02 0.230E+00
CGA:  11    -0.351432383083E+03   -0.35070E+01   -0.35062E+01 10584   0.123E+02 0.597E-02
CGA:  12    -0.353284638116E+03   -0.18523E+01   -0.18503E+01 10584   0.619E+01-0.881E-01
CGA:  13    -0.354091727799E+03   -0.80709E+00   -0.80041E+00 10584   0.251E+01-0.550E-01
CGA:  14    -0.354527596975E+03   -0.43587E+00   -0.43574E+00 10584   0.172E+01-0.118E-01
CGA:  15    -0.354799203813E+03   -0.27161E+00   -0.27189E+00 10584   0.900E+00 0.151E-01
CGA:  16    -0.354967639121E+03   -0.16844E+00   -0.16840E+00 10584   0.618E+00 0.925E-02
CGA:  17    -0.355073703713E+03   -0.10606E+00   -0.10557E+00 10584   0.362E+00-0.229E-01
CGA:  18    -0.355141972175E+03   -0.68268E-01   -0.68523E-01 10584   0.300E+00-0.165E-01
CGA:  19    -0.355186921483E+03   -0.44949E-01   -0.44777E-01 10584   0.156E+00-0.104E-01
CGA:  20    -0.355221437156E+03   -0.34516E-01   -0.35447E-01 10584   0.133E+00-0.191E-01
CGA:  21    -0.355238681939E+03   -0.17245E-01   -0.16086E-01 10584   0.765E-01-0.197E-01
CGA:  22    -0.355252334991E+03   -0.13653E-01   -0.14666E-01 10584   0.738E-01-0.236E-01
CGA:  23    -0.355257770260E+03   -0.54353E-02   -0.49986E-02 10584   0.383E-01-0.605E-02
CGA:  24    -0.355262548386E+03   -0.47781E-02   -0.47395E-02 10584   0.396E-01-0.117E-02
CGA:  25    -0.355268272952E+03   -0.57246E-02   -0.56252E-02 10584   0.206E-01-0.334E-02
CGA:  26    -0.355270523414E+03   -0.22505E-02   -0.21386E-02 10584   0.176E-01-0.137E-02
CGA:  27    -0.355272763007E+03   -0.22396E-02   -0.23224E-02 10584   0.158E-01 0.270E-02
CGA:  28    -0.355273900203E+03   -0.11372E-02   -0.14785E-02 10584   0.704E-02 0.385E-02
CGA:  29    -0.355274735368E+03   -0.83517E-03   -0.98589E-03 10584   0.709E-02 0.285E-02
CGA:  30    -0.355275904079E+03   -0.11687E-02   -0.12361E-02 10584   0.357E-02 0.171E-02
CGA:  31    -0.355276396738E+03   -0.49266E-03   -0.52279E-03 10584   0.294E-02 0.691E-03
CGA:  32    -0.355276685183E+03   -0.28844E-03   -0.36710E-03 10584   0.228E-02 0.143E-02
CGA:  33    -0.355276860536E+03   -0.17535E-03   -0.27502E-03 10584   0.114E-02 0.132E-02
CGA:  34    -0.355277306436E+03   -0.44590E-03   -0.44147E-03 10584   0.230E-02 0.192E-04
CGA:  35    -0.355277390855E+03   -0.84418E-04   -0.15849E-03 10584   0.393E-03 0.770E-03
CGA:  36    -0.355277386266E+03    0.45890E-05   -0.26288E-04 10584   0.241E-03 0.285E-03
CGA:  37    -0.355277428058E+03   -0.41792E-04   -0.40126E-04 10584   0.180E-03 0.136E-03
CGA:  38    -0.355277420973E+03    0.70845E-05   -0.79576E-05 10584   0.124E-03 0.137E-03
   1 F= -.35527742E+03 E0= -.35527528E+03  d E =-.355277E+03  mag=    20.0000
       N       E                     dE             d eps       ncg     rms          ort
SDA:   1    -0.355279905678E+03   -0.24776E-02    0.00000E+00 10584   0.413E-03 0.000E+00
CGA:   2    -0.355279960137E+03   -0.54460E-04   -0.55936E-04 10584   0.179E-03 0.156E-03
CGA:   3    -0.355279969360E+03   -0.92230E-05   -0.19191E-04 10584   0.796E-04 0.149E-03
CGA:   4    -0.355279969842E+03   -0.48130E-06   -0.53404E-05 10584   0.574E-04 0.656E-04
   2 F= -.35527997E+03 E0= -.35527777E+03  d E =-.254887E-02  mag=    20.0000
       N       E                     dE             d eps       ncg     rms          ort
SDA:   1    -0.355130941557E+03    0.14903E+00    0.00000E+00 10584   0.786E+00 0.000E+00
CGA:   2    -0.355283484465E+03   -0.15254E+00   -0.15423E+00 10584   0.792E+00-0.248E-01
CGA:   3    -0.355351165585E+03   -0.67681E-01   -0.69602E-01 10584   0.164E+00 0.143E-01
CGA:   4    -0.355381888994E+03   -0.30723E-01   -0.30860E-01 10584   0.738E-01-0.281E-02
CGA:   5    -0.355390430350E+03   -0.85414E-02   -0.84274E-02 10584   0.249E-01-0.504E-02
CGA:   6    -0.355393158985E+03   -0.27286E-02   -0.27483E-02 10584   0.636E-02 0.101E-02
CGA:   7    -0.355394031696E+03   -0.87271E-03   -0.87489E-03 10584   0.324E-02 0.579E-03
CGA:   8    -0.355394495970E+03   -0.46427E-03   -0.46471E-03 10584   0.142E-02 0.960E-04
CGA:   9    -0.355394800765E+03   -0.30480E-03   -0.31841E-03 10584   0.122E-02-0.167E-03
CGA:  10    -0.355394854808E+03   -0.54043E-04   -0.79494E-04 10584   0.476E-03 0.385E-03
CGA:  11    -0.355394918552E+03   -0.63744E-04   -0.68609E-04 10584   0.440E-03 0.180E-03
CGA:  12    -0.355395006879E+03   -0.88327E-04   -0.15295E-03 10584   0.844E-03-0.556E-03
CGA:  13    -0.355395019240E+03   -0.12360E-04   -0.46081E-04 10584   0.265E-03 0.389E-03
CGA:  14    -0.355395027673E+03   -0.84329E-05   -0.23373E-04 10584   0.139E-03 0.196E-03
CGA:  15    -0.355395077705E+03   -0.50033E-04    0.25546E-04 10584   0.103E-03 0.991E-05
CGA:  16    -0.355395074924E+03    0.27815E-05   -0.45016E-05 10584   0.532E-04 0.792E-04
   3 F= -.35539507E+03 E0= -.35539320E+03  d E =-.115105E+00  mag=    20.0000
       N       E                     dE             d eps       ncg     rms          ort
SDA:   1    -0.354463114158E+03    0.93196E+00    0.00000E+00 10584   0.325E+01 0.000E+00
CGA:   2    -0.355159613006E+03   -0.69650E+00   -0.70628E+00 10584   0.287E+01-0.102E+00
CGA:   3    -0.355403926944E+03   -0.24431E+00   -0.25208E+00 10584   0.688E+00 0.472E-01
CGA:   4    -0.355535998732E+03   -0.13207E+00   -0.13294E+00 10584   0.226E+00-0.136E-01
CGA:   5    -0.355566911972E+03   -0.30913E-01   -0.31000E-01 10584   0.764E-01-0.767E-02
CGA:   6    -0.355575321840E+03   -0.84099E-02   -0.84504E-02 10584   0.237E-01 0.249E-02
CGA:   7    -0.355579215339E+03   -0.38935E-02   -0.38670E-02 10584   0.923E-02 0.882E-03
CGA:   8    -0.355580954075E+03   -0.17387E-02   -0.17760E-02 10584   0.780E-02-0.686E-03
CGA:   9    -0.355581780652E+03   -0.82658E-03   -0.84232E-03 10584   0.266E-02 0.961E-03
CGA:  10    -0.355582452425E+03   -0.67177E-03   -0.64452E-03 10584   0.206E-02 0.322E-03
CGA:  11    -0.355582819041E+03   -0.36662E-03   -0.44311E-03 10584   0.366E-02-0.137E-02
CGA:  12    -0.355582970631E+03   -0.15159E-03   -0.21488E-03 10584   0.549E-03 0.767E-03
CGA:  13    -0.355583011009E+03   -0.40379E-04   -0.56490E-04 10584   0.373E-03 0.323E-03
CGA:  14    -0.355581950779E+03    0.10602E-02   -0.56832E-03 10584   0.231E-01-0.189E-02
CGA:  15    -0.355583079490E+03   -0.11287E-02   -0.13644E-02 10584   0.422E-03 0.627E-03
CGA:  16    -0.355583121454E+03   -0.41965E-04   -0.54694E-04 10584   0.196E-03 0.119E-03
CGA:  17    -0.355582896957E+03    0.22450E-03   -0.17111E-03 10584   0.377E-02-0.876E-03
CGA:  18    -0.355583051749E+03   -0.15479E-03   -0.26941E-03 10584   0.662E-03 0.619E-03
CGA:  19    -0.355583141260E+03   -0.89511E-04   -0.11168E-03 10584   0.258E-03 0.231E-03
CGA:  20    -0.355583216709E+03   -0.75449E-04   -0.59130E-04 10584   0.320E-03-0.247E-03
CGA:  21    -0.355583207008E+03    0.97012E-05   -0.13811E-04 10584   0.542E-04 0.123E-03
   4 F= -.35558321E+03 E0= -.35558180E+03  d E =-.188132E+00  mag=    20.0000
       N       E                     dE             d eps       ncg     rms          ort
SDA:   1    -0.353842388542E+03    0.17408E+01    0.00000E+00 10584   0.545E+01 0.000E+00
CGA:   2    -0.355131951805E+03   -0.12896E+01   -0.12907E+01 10584   0.332E+01-0.297E-01
CGA:   3    -0.355476378754E+03   -0.34443E+00   -0.36528E+00 10584   0.133E+01-0.615E-01
CGA:   4    -0.355680487734E+03   -0.20411E+00   -0.20200E+00 10584   0.356E+00-0.151E-01
CGA:   5    -0.355732188611E+03   -0.51701E-01   -0.51804E-01 10584   0.979E-01-0.178E-03
CGA:   6    -0.355745596720E+03   -0.13408E-01   -0.13197E-01 10584   0.438E-01-0.241E-02
CGA:   7    -0.355750857001E+03   -0.52603E-02   -0.54159E-02 10584   0.144E-01 0.180E-02
CGA:   8    -0.355754299995E+03   -0.34430E-02   -0.34678E-02 10584   0.917E-02-0.731E-03
CGA:   9    -0.355755372088E+03   -0.10721E-02   -0.11542E-02 10584   0.500E-02 0.120E-02
CGA:  10    -0.355756698078E+03   -0.13260E-02   -0.13669E-02 10584   0.359E-02-0.885E-03
CGA:  11    -0.355757101189E+03   -0.40311E-03   -0.42484E-03 10584   0.185E-02 0.392E-03
CGA:  12    -0.355757476404E+03   -0.37521E-03   -0.37578E-03 10584   0.727E-03 0.455E-04
CGA:  13    -0.355757632491E+03   -0.15609E-03   -0.15532E-03 10584   0.391E-03 0.527E-04
CGA:  14    -0.355757671365E+03   -0.38874E-04   -0.47896E-04 10584   0.166E-03 0.111E-03
CGA:  15    -0.355757718413E+03   -0.47047E-04   -0.46126E-04 10584   0.743E-04 0.347E-04
CGA:  16    -0.355757741364E+03   -0.22952E-04   -0.38854E-04 10584   0.286E-03-0.669E-04
CGA:  17    -0.355757743552E+03   -0.21877E-05   -0.15750E-04 10584   0.517E-04 0.903E-04
   5 F= -.35575774E+03 E0= -.35575661E+03  d E =-.174537E+00  mag=    20.0000
       N       E                     dE             d eps       ncg     rms          ort
SDA:   1    -0.353492999750E+03    0.22647E+01    0.00000E+00 10584   0.648E+01 0.000E+00
CGA:   2    -0.355149781866E+03   -0.16568E+01   -0.16560E+01 10584   0.349E+01 0.794E-02
CGA:   3    -0.355559547197E+03   -0.40977E+00   -0.40884E+00 10584   0.153E+01 0.622E-02
CGA:   4    -0.355788042480E+03   -0.22850E+00   -0.22800E+00 10584   0.370E+00-0.687E-02
CGA:   5    -0.355843385523E+03   -0.55343E-01   -0.55351E-01 10584   0.957E-01-0.688E-03
CGA:   6    -0.355858023698E+03   -0.14638E-01   -0.14590E-01 10584   0.414E-01-0.135E-02
CGA:   7    -0.355863308904E+03   -0.52852E-02   -0.53485E-02 10584   0.169E-01 0.987E-03
CGA:   8    -0.355866810393E+03   -0.35015E-02   -0.35010E-02 10584   0.811E-02 0.184E-04
CGA:   9    -0.355868552019E+03   -0.17416E-02   -0.17448E-02 10584   0.660E-02-0.117E-03
CGA:  10    -0.355869505962E+03   -0.95394E-03   -0.95435E-03 10584   0.325E-02-0.121E-05
CGA:  11    -0.355870224500E+03   -0.71854E-03   -0.71726E-03 10584   0.144E-02 0.244E-04
CGA:  12    -0.355870506716E+03   -0.28222E-03   -0.28296E-03 10584   0.118E-02-0.674E-04
CGA:  13    -0.355870628064E+03   -0.12135E-03   -0.13122E-03 10584   0.288E-03 0.142E-03
CGA:  14    -0.355870719731E+03   -0.91666E-04   -0.88082E-04 10584   0.143E-03 0.378E-04
CGA:  15    -0.355870754318E+03   -0.34587E-04   -0.36539E-04 10584   0.303E-03-0.494E-04
CGA:  16    -0.355870766465E+03   -0.12148E-04   -0.16055E-04 10584   0.187E-03 0.352E-04
CGA:  17    -0.355870770373E+03   -0.39077E-05   -0.99402E-05 10584   0.620E-04 0.438E-04
   6 F= -.35587077E+03 E0= -.35586988E+03  d E =-.113027E+00  mag=    20.0000
       N       E                     dE             d eps       ncg     rms          ort
SDA:   1    -0.352717268788E+03    0.31535E+01    0.00000E+00 10584   0.843E+01 0.000E+00
CGA:   2    -0.354958440439E+03   -0.22412E+01   -0.22255E+01 10584   0.501E+01 0.139E+00
CGA:   3    -0.355533717848E+03   -0.57528E+00   -0.52822E+00 10584   0.175E+01 0.144E+00
CGA:   4    -0.355834105310E+03   -0.30039E+00   -0.30047E+00 10584   0.415E+00 0.115E-01
CGA:   5    -0.355897381229E+03   -0.63276E-01   -0.63279E-01 10584   0.122E+00 0.129E-03
CGA:   6    -0.355914645482E+03   -0.17264E-01   -0.17246E-01 10584   0.512E-01-0.623E-03
CGA:   7    -0.355921896166E+03   -0.72507E-02   -0.72364E-02 10584   0.210E-01-0.530E-03
CGA:   8    -0.355925249042E+03   -0.33529E-02   -0.33638E-02 10584   0.104E-01 0.185E-02
CGA:   9    -0.355927556231E+03   -0.23072E-02   -0.24338E-02 10584   0.118E-01-0.268E-02
CGA:  10    -0.355928473793E+03   -0.91756E-03   -0.99064E-03 10584   0.451E-02 0.126E-02
CGA:  11    -0.355929022861E+03   -0.54907E-03   -0.60038E-03 10584   0.337E-02 0.109E-02
CGA:  12    -0.355929718213E+03   -0.69535E-03   -0.69739E-03 10584   0.179E-02-0.823E-03
CGA:  13    -0.355929899775E+03   -0.18156E-03   -0.18499E-03 10584   0.111E-02 0.121E-03
CGA:  14    -0.355930023992E+03   -0.12422E-03   -0.13906E-03 10584   0.407E-03 0.321E-03
CGA:  15    -0.355930124496E+03   -0.10050E-03   -0.10676E-03 10584   0.586E-03-0.148E-03
CGA:  16    -0.355930142350E+03   -0.17854E-04   -0.22784E-04 10584   0.350E-03 0.477E-04
CGA:  17    -0.355930152069E+03   -0.97197E-05   -0.19135E-04 10584   0.199E-03 0.869E-04
CGA:  18    -0.355930168949E+03   -0.16880E-04   -0.21446E-04 10584   0.232E-03 0.686E-04
CGA:  19    -0.355930202204E+03   -0.33255E-04   -0.31889E-04 10584   0.864E-04-0.300E-04
CGA:  20    -0.355930211607E+03   -0.94023E-05   -0.86731E-05 10584   0.103E-03-0.235E-04
   7 F= -.35593021E+03 E0= -.35592951E+03  d E =-.594412E-01  mag=    20.0000
       N       E                     dE             d eps       ncg     rms          ort
SDA:   1    -0.349838773456E+03    0.60914E+01    0.00000E+00 10584   0.156E+02 0.000E+00
CGA:   2    -0.354081414007E+03   -0.42426E+01   -0.42000E+01 10584   0.994E+01 0.311E+00
CGA:   3    -0.355275939483E+03   -0.11945E+01   -0.11588E+01 10584   0.347E+01-0.233E+00
CGA:   4    -0.355760990247E+03   -0.48505E+00   -0.48530E+00 10584   0.878E+00 0.601E-01
CGA:   5    -0.355874601748E+03   -0.11361E+00   -0.11341E+00 10584   0.312E+00-0.323E-02
CGA:   6    -0.355915162061E+03   -0.40560E-01   -0.40561E-01 10584   0.908E-01-0.383E-03
CGA:   7    -0.355930847175E+03   -0.15685E-01   -0.15718E-01 10584   0.381E-01-0.113E-02
CGA:   8    -0.355936091940E+03   -0.52448E-02   -0.52591E-02 10584   0.201E-01 0.227E-02
CGA:   9    -0.355939927892E+03   -0.38360E-02   -0.39537E-02 10584   0.133E-01-0.289E-02
CGA:  10    -0.355941497591E+03   -0.15697E-02   -0.15829E-02 10584   0.564E-02 0.157E-02
CGA:  11    -0.355942954794E+03   -0.14572E-02   -0.14746E-02 10584   0.286E-02-0.211E-03
CGA:  12    -0.355943485825E+03   -0.53103E-03   -0.52860E-03 10584   0.198E-02 0.542E-04
CGA:  13    -0.355943741721E+03   -0.25590E-03   -0.26071E-03 10584   0.590E-03 0.194E-03
CGA:  14    -0.355943855586E+03   -0.11387E-03   -0.11053E-03 10584   0.300E-03 0.180E-03
CGA:  15    -0.355943779404E+03    0.76182E-04   -0.20994E-03 10584   0.323E-02-0.750E-03
CGA:  16    -0.355943922015E+03   -0.14261E-03   -0.20548E-03 10584   0.387E-03 0.559E-03
CGA:  17    -0.355943967198E+03   -0.45182E-04   -0.51839E-04 10584   0.222E-03 0.126E-03
CGA:  18    -0.355944014034E+03   -0.46837E-04   -0.78398E-04 10584   0.453E-03-0.307E-03
CGA:  19    -0.355944022261E+03   -0.82264E-05   -0.25875E-04 10584   0.990E-04 0.156E-03
   8 F= -.35594402E+03 E0= -.35594352E+03  d E =-.138107E-01  mag=    20.0000
       N       E                     dE             d eps       ncg     rms          ort
SDA:   1    -0.355111114335E+03    0.83290E+00    0.00000E+00 10584   0.214E+01 0.000E+00
CGA:   2    -0.355737231040E+03   -0.62612E+00   -0.62228E+00 10584   0.138E+01 0.278E-01
CGA:   3    -0.355888186535E+03   -0.15096E+00   -0.14693E+00 10584   0.420E+00-0.193E-01
CGA:   4    -0.355948505178E+03   -0.60319E-01   -0.60526E-01 10584   0.136E+00 0.100E-01
CGA:   5    -0.355963192203E+03   -0.14687E-01   -0.14688E-01 10584   0.387E-01 0.543E-03
CGA:   6    -0.355969249224E+03   -0.60570E-02   -0.60551E-02 10584   0.111E-01-0.612E-03
CGA:   7    -0.355971064863E+03   -0.18156E-02   -0.18144E-02 10584   0.513E-02 0.163E-03
CGA:   8    -0.355971740348E+03   -0.67549E-03   -0.67736E-03 10584   0.244E-02 0.492E-04
CGA:   9    -0.355972263593E+03   -0.52324E-03   -0.64701E-03 10584   0.361E-02-0.119E-02
CGA:  10    -0.355972352947E+03   -0.89355E-04   -0.12131E-03 10584   0.174E-02 0.321E-03
CGA:  11    -0.355972419518E+03   -0.66571E-04   -0.10943E-03 10584   0.957E-03 0.420E-03
CGA:  12    -0.355972548097E+03   -0.12858E-03   -0.13582E-03 10584   0.864E-03 0.186E-03
CGA:  13    -0.355972674130E+03   -0.12603E-03   -0.10826E-03 10584   0.459E-03-0.385E-03
CGA:  14    -0.355972697716E+03   -0.23585E-04   -0.24161E-04 10584   0.345E-03 0.102E-04
CGA:  15    -0.355972707732E+03   -0.10016E-04   -0.21489E-04 10584   0.183E-03 0.134E-03
CGA:  16    -0.355972720078E+03   -0.12346E-04   -0.18570E-04 10584   0.103E-03 0.904E-04
CGA:  17    -0.355972743827E+03   -0.23749E-04   -0.29490E-04 10584   0.196E-03-0.108E-03
CGA:  18    -0.355972753612E+03   -0.97843E-05   -0.12746E-04 10584   0.401E-04 0.385E-04
CGA:  19    -0.355972770142E+03   -0.16531E-04    0.12948E-04 10584   0.251E-04 0.132E-04
CGA:  20    -0.355972713068E+03    0.57074E-04   -0.21625E-04 10584   0.960E-03-0.154E-03
CGA:  21    -0.355972757699E+03   -0.44631E-04   -0.56898E-04 10584   0.100E-03 0.115E-03
CGA:  22    -0.355972709167E+03    0.48532E-04   -0.65196E-04 10584   0.110E-02-0.269E-03
CGA:  23    -0.355972761779E+03   -0.52612E-04   -0.74105E-04 10584   0.123E-03 0.189E-03
CGA:  24    -0.355972767070E+03   -0.52908E-05   -0.11730E-04 10584   0.583E-04 0.699E-04
CGA:  25    -0.355972792727E+03   -0.25657E-04    0.16200E-04 10584   0.353E-04-0.139E-05
CGA:  26    -0.355972793171E+03   -0.44434E-06   -0.21988E-05 10584   0.898E-05 0.167E-04
   9 F= -.35597279E+03 E0= -.35597219E+03  d E =-.287709E-01  mag=    20.0000
       N       E                     dE             d eps       ncg     rms          ort
SDA:   1    -0.355458531197E+03    0.51426E+00    0.00000E+00 10584   0.141E+01 0.000E+00
CGA:   2    -0.355848764000E+03   -0.39023E+00   -0.38940E+00 10584   0.701E+00 0.639E-02
CGA:   3    -0.355938996090E+03   -0.90232E-01   -0.89503E-01 10584   0.306E+00-0.114E-01
CGA:   4    -0.355979393810E+03   -0.40398E-01   -0.40621E-01 10584   0.725E-01 0.627E-02
CGA:   5    -0.355989538108E+03   -0.10144E-01   -0.10184E-01 10584   0.214E-01 0.181E-02
CGA:   6    -0.355992831200E+03   -0.32931E-02   -0.32760E-02 10584   0.103E-01-0.188E-02
CGA:   7    -0.355993799950E+03   -0.96875E-03   -0.10315E-02 10584   0.308E-02 0.127E-02
CGA:   8    -0.355994436555E+03   -0.63660E-03   -0.63816E-03 10584   0.242E-02-0.558E-04
CGA:   9    -0.355994802510E+03   -0.36595E-03   -0.36461E-03 10584   0.150E-02-0.412E-03
CGA:  10    -0.355995043146E+03   -0.24064E-03   -0.23758E-03 10584   0.720E-03 0.891E-04
CGA:  11    -0.355995142628E+03   -0.99482E-04   -0.10312E-03 10584   0.440E-03 0.156E-03
CGA:  12    -0.355995218323E+03   -0.75696E-04   -0.76908E-04 10584   0.155E-03 0.892E-04
CGA:  13    -0.355994765367E+03    0.45296E-03   -0.24438E-03 10584   0.594E-02-0.745E-03
CGA:  14    -0.355995026420E+03   -0.26105E-03   -0.38847E-03 10584   0.727E-03 0.495E-03
CGA:  15    -0.355995191677E+03   -0.16526E-03   -0.16625E-03 10584   0.417E-03 0.154E-04
CGA:  16    -0.355995280921E+03   -0.89245E-04   -0.58307E-04 10584   0.279E-03-0.230E-03
CGA:  17    -0.355995280658E+03    0.26375E-06   -0.16143E-04 10584   0.483E-04 0.784E-04
  10 F= -.35599528E+03 E0= -.35599465E+03  d E =-.224875E-01  mag=    20.0000
       N       E                     dE             d eps       ncg     rms          ort
SDA:   1    -0.354707221004E+03    0.12881E+01    0.00000E+00 10584   0.326E+01 0.000E+00
CGA:   2    -0.355640053764E+03   -0.93283E+00   -0.93089E+00 10584   0.228E+01 0.359E-01
CGA:   3    -0.355881052357E+03   -0.24100E+00   -0.22512E+00 10584   0.582E+00 0.741E-01
CGA:   4    -0.355975625807E+03   -0.94573E-01   -0.95519E-01 10584   0.210E+00 0.625E-02
CGA:   5    -0.355997551529E+03   -0.21926E-01   -0.22021E-01 10584   0.588E-01 0.178E-02
CGA:   6    -0.356006625319E+03   -0.90738E-02   -0.90597E-02 10584   0.169E-01-0.252E-03
CGA:   7    -0.356009380595E+03   -0.27553E-02   -0.27412E-02 10584   0.888E-02-0.219E-03
CGA:   8    -0.356010385062E+03   -0.10045E-02   -0.10398E-02 10584   0.306E-02 0.314E-03
CGA:   9    -0.356011186835E+03   -0.80177E-03   -0.83096E-03 10584   0.251E-02-0.642E-03
CGA:  10    -0.356011336951E+03   -0.15012E-03   -0.20150E-03 10584   0.115E-02 0.430E-03
CGA:  11    -0.356011564521E+03   -0.22757E-03   -0.23331E-03 10584   0.650E-03 0.142E-03
CGA:  12    -0.356011716729E+03   -0.15221E-03   -0.14873E-03 10584   0.130E-02-0.456E-03
CGA:  13    -0.356011737353E+03   -0.20624E-04   -0.70319E-04 10584   0.188E-03 0.310E-03
CGA:  14    -0.356011739008E+03   -0.16549E-05   -0.16150E-04 10584   0.119E-03 0.108E-03
CGA:  15    -0.356011793732E+03   -0.54724E-04    0.69402E-04 10584   0.208E-03-0.269E-04
CGA:  16    -0.356011801516E+03   -0.77835E-05   -0.14102E-04 10584   0.944E-04 0.578E-04
  11 F= -.35601180E+03 E0= -.35601116E+03  d E =-.165209E-01  mag=    20.0000
       N       E                     dE             d eps       ncg     rms          ort
SDA:   1    -0.349070336537E+03    0.69415E+01    0.00000E+00 10584   0.173E+02 0.000E+00
CGA:   2    -0.353727882379E+03   -0.46575E+01   -0.46024E+01 10584   0.137E+02 0.540E+00
CGA:   3    -0.355276103474E+03   -0.15482E+01   -0.14325E+01 10584   0.295E+01 0.467E+00
CGA:   4    -0.355762264286E+03   -0.48616E+00   -0.48853E+00 10584   0.137E+01 0.458E-01
CGA:   5    -0.355900677303E+03   -0.13841E+00   -0.13676E+00 10584   0.323E+00 0.128E-01
CGA:   6    -0.355955222561E+03   -0.54545E-01   -0.54526E-01 10584   0.925E-01-0.193E-02
CGA:   7    -0.355970643402E+03   -0.15421E-01   -0.15437E-01 10584   0.481E-01 0.144E-02
CGA:   8    -0.355977408088E+03   -0.67647E-02   -0.67284E-02 10584   0.200E-01-0.921E-03
CGA:   9    -0.355981497604E+03   -0.40895E-02   -0.41048E-02 10584   0.103E-01-0.474E-03
CGA:  10    -0.355983194123E+03   -0.16965E-02   -0.17010E-02 10584   0.638E-02 0.622E-03
CGA:  11    -0.355984357022E+03   -0.11629E-02   -0.11595E-02 10584   0.419E-02-0.703E-03
CGA:  12    -0.355984723428E+03   -0.36641E-03   -0.40658E-03 10584   0.136E-02 0.581E-03
CGA:  13    -0.355985000675E+03   -0.27725E-03   -0.27634E-03 10584   0.811E-03 0.150E-03
CGA:  14    -0.355985131787E+03   -0.13111E-03   -0.12770E-03 10584   0.549E-03-0.112E-03
CGA:  15    -0.355985183503E+03   -0.51716E-04   -0.56699E-04 10584   0.252E-03 0.953E-04
CGA:  16    -0.355985235610E+03   -0.52107E-04   -0.52622E-04 10584   0.342E-03-0.590E-04
CGA:  17    -0.355985280225E+03   -0.44615E-04   -0.44873E-04 10584   0.261E-03-0.124E-03
CGA:  18    -0.355985293925E+03   -0.13700E-04   -0.13559E-04 10584   0.174E-03-0.266E-05
CGA:  19    -0.355985326185E+03   -0.32260E-04   -0.34696E-04 10584   0.282E-03-0.687E-04
CGA:  20    -0.355985351284E+03   -0.25100E-04   -0.14904E-04 10584   0.125E-03-0.130E-03
CGA:  21    -0.355985358699E+03   -0.74141E-05   -0.57621E-05 10584   0.120E-03-0.218E-04
  12 F= -.35598536E+03 E0= -.35598503E+03  d E =0.264428E-01  mag=    20.0000
       N       E                     dE             d eps       ncg     rms          ort
SDA:   1    -0.355466755028E+03    0.51860E+00    0.00000E+00 10584   0.138E+01 0.000E+00
CGA:   2    -0.355870211485E+03   -0.40346E+00   -0.39894E+00 10584   0.902E+00 0.324E-01
CGA:   3    -0.355974386401E+03   -0.10417E+00   -0.10232E+00 10584   0.257E+00-0.161E-01
CGA:   4    -0.356018661802E+03   -0.44275E-01   -0.44131E-01 10584   0.687E-01 0.799E-02
CGA:   5    -0.356028805678E+03   -0.10144E-01   -0.10085E-01 10584   0.384E-01-0.301E-02
CGA:   6    -0.356032507715E+03   -0.37020E-02   -0.37888E-02 10584   0.810E-02 0.130E-02
CGA:   7    -0.356034215849E+03   -0.17081E-02   -0.16953E-02 10584   0.417E-02 0.273E-03
CGA:   8    -0.356035019573E+03   -0.80372E-03   -0.82366E-03 10584   0.366E-02-0.621E-03
CGA:   9    -0.356035303372E+03   -0.28380E-03   -0.31490E-03 10584   0.117E-02 0.518E-03
CGA:  10    -0.356035457052E+03   -0.15368E-03   -0.16147E-03 10584   0.839E-03 0.215E-03
CGA:  11    -0.356035626897E+03   -0.16985E-03   -0.17291E-03 10584   0.530E-03-0.167E-03
CGA:  12    -0.356035650873E+03   -0.23976E-04   -0.33480E-04 10584   0.261E-03 0.121E-03
CGA:  13    -0.356035671399E+03   -0.20526E-04   -0.27446E-04 10584   0.143E-03 0.102E-03
CGA:  14    -0.356035698704E+03   -0.27305E-04   -0.26874E-04 10584   0.964E-04-0.310E-04
CGA:  15    -0.356035700626E+03   -0.19220E-05   -0.48630E-05 10584   0.644E-04 0.347E-04
  13 F= -.35603570E+03 E0= -.35603527E+03  d E =-.503419E-01  mag=    20.0000
       N       E                     dE             d eps       ncg     rms          ort
SDA:   1    -0.356029354446E+03    0.63443E-02    0.00000E+00 10584   0.228E-01 0.000E+00
CGA:   2    -0.356035811027E+03   -0.64566E-02   -0.65178E-02 10584   0.162E-01-0.426E-03
CGA:   3    -0.356037500527E+03   -0.16895E-02   -0.16932E-02 10584   0.506E-02 0.578E-04
CGA:   4    -0.356038241502E+03   -0.74098E-03   -0.74077E-03 10584   0.131E-02 0.167E-03
CGA:   5    -0.356038461491E+03   -0.21999E-03   -0.22136E-03 10584   0.500E-03-0.743E-04
CGA:   6    -0.356038488787E+03   -0.27296E-04   -0.36448E-04 10584   0.139E-03 0.133E-03
CGA:   7    -0.356038517503E+03   -0.28715E-04   -0.28867E-04 10584   0.112E-03-0.704E-05
CGA:   8    -0.356038533108E+03   -0.15605E-04   -0.20272E-04 10584   0.216E-03-0.996E-04
CGA:   9    -0.356038535425E+03   -0.23173E-05   -0.10252E-04 10584   0.465E-04 0.803E-04
  14 F= -.35603854E+03 E0= -.35603811E+03  d E =-.283480E-02  mag=    20.0000
       N       E                     dE             d eps       ncg     rms          ort
SDA:   1    -0.355943833936E+03    0.94699E-01    0.00000E+00 10584   0.255E+00 0.000E+00
CGA:   2    -0.356015190089E+03   -0.71356E-01   -0.70934E-01 10584   0.157E+00 0.292E-02
CGA:   3    -0.356033978106E+03   -0.18788E-01   -0.18626E-01 10584   0.675E-01-0.508E-02
CGA:   4    -0.356041500530E+03   -0.75224E-02   -0.76066E-02 10584   0.166E-01 0.288E-02
CGA:   5    -0.356044218310E+03   -0.27178E-02   -0.27217E-02 10584   0.454E-02-0.251E-03
CGA:   6    -0.356044922423E+03   -0.70411E-03   -0.70351E-03 10584   0.146E-02 0.371E-04
CGA:   7    -0.356045156219E+03   -0.23380E-03   -0.23483E-03 10584   0.860E-03-0.618E-04
CGA:   8    -0.356045250501E+03   -0.94283E-04   -0.97715E-04 10584   0.281E-03 0.139E-03
CGA:   9    -0.356045036791E+03    0.21371E-03   -0.22039E-03 10584   0.415E-02-0.815E-03
CGA:  10    -0.356045250045E+03   -0.21325E-03   -0.28532E-03 10584   0.570E-03 0.702E-03
CGA:  11    -0.356045333385E+03   -0.83340E-04   -0.85546E-04 10584   0.176E-03 0.623E-04
CGA:  12    -0.356045331803E+03    0.15812E-05   -0.64031E-04 10584   0.119E-02-0.396E-03
CGA:  13    -0.356045366922E+03   -0.35119E-04   -0.67634E-04 10584   0.112E-03 0.282E-03
CGA:  14    -0.356045366795E+03    0.12690E-06   -0.71623E-05 10584   0.464E-04 0.645E-04
CGA:  15    -0.356045272223E+03    0.94573E-04   -0.51519E-04 10584   0.809E-03-0.165E-03
CGA:  16    -0.356045319884E+03   -0.47661E-04   -0.78165E-04 10584   0.219E-03 0.156E-03
CGA:  17    -0.356045377001E+03   -0.57117E-04   -0.51386E-04 10584   0.516E-04-0.690E-04
CGA:  18    -0.356045375209E+03    0.17917E-05   -0.16161E-05 10584   0.209E-04 0.147E-04
  15 F= -.35604538E+03 E0= -.35604495E+03  d E =-.683978E-02  mag=    20.0000
       N       E                     dE             d eps       ncg     rms          ort
SDA:   1    -0.356034259336E+03    0.11118E-01    0.00000E+00 10584   0.332E-01 0.000E+00
CGA:   2    -0.356043145258E+03   -0.88859E-02   -0.88757E-02 10584   0.234E-01 0.701E-03
CGA:   3    -0.356045910620E+03   -0.27654E-02   -0.25998E-02 10584   0.901E-02-0.917E-03
CGA:   4    -0.356046879889E+03   -0.96927E-03   -0.10398E-02 10584   0.192E-02 0.514E-03
CGA:   5    -0.356047219226E+03   -0.33934E-03   -0.33714E-03 10584   0.509E-03-0.300E-04
CGA:   6    -0.356047301281E+03   -0.82055E-04   -0.82915E-04 10584   0.153E-03 0.119E-04
CGA:   7    -0.356047329330E+03   -0.28049E-04   -0.26962E-04 10584   0.123E-03-0.181E-04
CGA:   8    -0.356047333742E+03   -0.44126E-05   -0.90605E-05 10584   0.352E-04 0.315E-04
  16 F= -.35604733E+03 E0= -.35604691E+03  d E =-.195853E-02  mag=    20.0000
       N       E                     dE             d eps       ncg     rms          ort
SDA:   1    -0.355595745556E+03    0.45158E+00    0.00000E+00 10584   0.114E+01 0.000E+00
CGA:   2    -0.355920964174E+03   -0.32522E+00   -0.32465E+00 10584   0.778E+00 0.750E-02
CGA:   3    -0.356005002792E+03   -0.84039E-01   -0.80719E-01 10584   0.271E+00 0.687E-02
CGA:   4    -0.356040453318E+03   -0.35451E-01   -0.35984E-01 10584   0.656E-01 0.323E-02
CGA:   5    -0.356050344796E+03   -0.98915E-02   -0.98620E-02 10584   0.200E-01-0.365E-03
CGA:   6    -0.356052902479E+03   -0.25577E-02   -0.25762E-02 10584   0.776E-02 0.171E-03
CGA:   7    -0.356054010574E+03   -0.11081E-02   -0.10908E-02 10584   0.302E-02-0.255E-03
CGA:   8    -0.356054409125E+03   -0.39855E-03   -0.41888E-03 10584   0.109E-02 0.337E-03
CGA:   9    -0.356054691813E+03   -0.28269E-03   -0.32216E-03 10584   0.200E-02-0.603E-03
CGA:  10    -0.356054747969E+03   -0.56156E-04   -0.11685E-03 10584   0.322E-03 0.410E-03
CGA:  11    -0.356054774621E+03   -0.26652E-04   -0.39838E-04 10584   0.209E-03 0.142E-03
CGA:  12    -0.356054835827E+03   -0.61206E-04   -0.71808E-04 10584   0.586E-03-0.221E-03
CGA:  13    -0.356054847288E+03   -0.11461E-04   -0.34224E-04 10584   0.127E-03 0.167E-03
CGA:  14    -0.356054857599E+03   -0.10311E-04   -0.15595E-04 10584   0.771E-04 0.579E-04
CGA:  15    -0.356054873917E+03   -0.16318E-04   -0.30996E-04 10584   0.388E-03-0.155E-03
CGA:  16    -0.356054878160E+03   -0.42435E-05   -0.21083E-04 10584   0.846E-04 0.126E-03
  17 F= -.35605488E+03 E0= -.35605445E+03  d E =-.754442E-02  mag=    20.0000
       N       E                     dE             d eps       ncg     rms          ort
SDA:   1    -0.355899522501E+03    0.15535E+00    0.00000E+00 10584   0.387E+00 0.000E+00
CGA:   2    -0.356016693339E+03   -0.11717E+00   -0.11641E+00 10584   0.296E+00 0.575E-02
CGA:   3    -0.356044250517E+03   -0.27557E-01   -0.26395E-01 10584   0.752E-01-0.848E-03
CGA:   4    -0.356056262331E+03   -0.12012E-01   -0.12044E-01 10584   0.155E-01 0.186E-02
CGA:   5    -0.356058664106E+03   -0.24018E-02   -0.24041E-02 10584   0.550E-02 0.932E-04
CGA:   6    -0.356059361892E+03   -0.69779E-03   -0.70298E-03 10584   0.210E-02 0.103E-03
CGA:   7    -0.356059723123E+03   -0.36123E-03   -0.36014E-03 10584   0.113E-02-0.333E-03
CGA:   8    -0.356059783551E+03   -0.60428E-04   -0.83594E-04 10584   0.350E-03 0.275E-03
CGA:   9    -0.356059847828E+03   -0.64277E-04   -0.65228E-04 10584   0.283E-03 0.529E-04
CGA:  10    -0.356059892633E+03   -0.44805E-04   -0.86615E-04 10584   0.118E-02-0.421E-03
CGA:  11    -0.356059921337E+03   -0.28704E-04   -0.62697E-04 10584   0.168E-03 0.281E-03
CGA:  12    -0.356059927130E+03   -0.57932E-05   -0.14550E-04 10584   0.935E-04 0.914E-04
CGA:  13    -0.356059960687E+03   -0.33557E-04    0.64658E-04 10584   0.125E-03-0.273E-04
CGA:  14    -0.356059961139E+03   -0.45224E-06   -0.50830E-05 10584   0.641E-04 0.448E-04
  18 F= -.35605996E+03 E0= -.35605956E+03  d E =-.508298E-02  mag=    20.0000
       N       E                     dE             d eps       ncg     rms          ort
SDA:   1    -0.355375006281E+03    0.68495E+00    0.00000E+00 10584   0.164E+01 0.000E+00
CGA:   2    -0.355920038434E+03   -0.54503E+00   -0.54218E+00 10584   0.821E+00 0.156E-01
CGA:   3    -0.356017312907E+03   -0.97274E-01   -0.95966E-01 10584   0.276E+00-0.178E-01
CGA:   4    -0.356056692750E+03   -0.39380E-01   -0.39476E-01 10584   0.479E-01 0.876E-02
CGA:   5    -0.356064588733E+03   -0.78960E-02   -0.79044E-02 10584   0.249E-01-0.193E-02
CGA:   6    -0.356066966531E+03   -0.23778E-02   -0.24386E-02 10584   0.743E-02 0.983E-03
CGA:   7    -0.356068242258E+03   -0.12757E-02   -0.12746E-02 10584   0.228E-02 0.905E-04
CGA:   8    -0.356068765269E+03   -0.52301E-03   -0.56714E-03 10584   0.211E-02-0.481E-03
CGA:   9    -0.356068909518E+03   -0.14425E-03   -0.16253E-03 10584   0.807E-03 0.298E-03
CGA:  10    -0.356069029909E+03   -0.12039E-03   -0.12407E-03 10584   0.598E-03 0.177E-03
CGA:  11    -0.356069150369E+03   -0.12046E-03   -0.12306E-03 10584   0.439E-03-0.183E-03
CGA:  12    -0.356069180490E+03   -0.30121E-04   -0.33603E-04 10584   0.258E-03 0.775E-04
CGA:  13    -0.356069195747E+03   -0.15257E-04   -0.23444E-04 10584   0.113E-03 0.108E-03
CGA:  14    -0.356069209344E+03   -0.13598E-04   -0.16111E-04 10584   0.619E-04 0.513E-04
CGA:  15    -0.356069223940E+03   -0.14596E-04   -0.15115E-04 10584   0.540E-04-0.242E-04
CGA:  16    -0.356069225365E+03   -0.14248E-05   -0.21327E-05 10584   0.409E-04 0.851E-05
  19 F= -.35606923E+03 E0= -.35606886E+03  d E =-.926423E-02  mag=    20.0000
       N       E                     dE             d eps       ncg     rms          ort
SDA:   1    -0.350429216767E+03    0.56400E+01    0.00000E+00 10584   0.148E+02 0.000E+00
CGA:   2    -0.353671329570E+03   -0.32421E+01   -0.32372E+01 10584   0.144E+02 0.509E-01
CGA:   3    -0.355093138056E+03   -0.14218E+01   -0.14715E+01 10584   0.462E+01 0.164E+00
CGA:   4    -0.355653453192E+03   -0.56032E+00   -0.54962E+00 10584   0.178E+01-0.151E+00
CGA:   5    -0.355854449322E+03   -0.20100E+00   -0.20206E+00 10584   0.404E+00 0.308E-01
CGA:   6    -0.355921648326E+03   -0.67199E-01   -0.67489E-01 10584   0.138E+00-0.110E-01
CGA:   7    -0.355937337754E+03   -0.15689E-01   -0.15812E-01 10584   0.742E-01 0.416E-02
CGA:   8    -0.355946832379E+03   -0.94946E-02   -0.94472E-02 10584   0.342E-01-0.295E-02
CGA:   9    -0.355951274319E+03   -0.44419E-02   -0.44432E-02 10584   0.184E-01 0.237E-03
CGA:  10    -0.355954270193E+03   -0.29959E-02   -0.30314E-02 10584   0.917E-02-0.139E-02
CGA:  11    -0.355955390258E+03   -0.11201E-02   -0.11271E-02 10584   0.496E-02 0.107E-02
CGA:  12    -0.355956338880E+03   -0.94862E-03   -0.99282E-03 10584   0.500E-02-0.111E-02
CGA:  13    -0.355956615775E+03   -0.27689E-03   -0.30496E-03 10584   0.134E-02 0.426E-03
CGA:  14    -0.355956748611E+03   -0.13284E-03   -0.14535E-03 10584   0.128E-02 0.325E-03
CGA:  15    -0.355956991595E+03   -0.24298E-03   -0.25140E-03 10584   0.546E-03-0.393E-03
CGA:  16    -0.355957039387E+03   -0.47792E-04   -0.47710E-04 10584   0.392E-03-0.945E-05
CGA:  17    -0.355957122132E+03   -0.82744E-04   -0.91198E-04 10584   0.213E-03-0.879E-04
CGA:  18    -0.355957183671E+03   -0.61539E-04    0.36632E-04 10584   0.189E-03 0.490E-04
CGA:  19    -0.355957231534E+03   -0.47862E-04   -0.58151E-04 10584   0.288E-03-0.983E-04
CGA:  20    -0.355957273255E+03   -0.41722E-04   -0.46493E-04 10584   0.863E-03-0.332E-03
CGA:  21    -0.355957285779E+03   -0.12524E-04   -0.33788E-04 10584   0.596E-04 0.191E-03
CGA:  22    -0.355957284139E+03    0.16399E-05   -0.22069E-05 10584   0.248E-04 0.342E-04
  20 F= -.35595728E+03 E0= -.35595683E+03  d E =0.111941E+00  mag=    20.0000
       N       E                     dE             d eps       ncg     rms          ort
SDA:   1    -0.355805037347E+03    0.15225E+00    0.00000E+00 10584   0.614E+00 0.000E+00
CGA:   2    -0.355924975522E+03   -0.11994E+00   -0.11993E+00 10584   0.714E+00-0.316E-03
CGA:   3    -0.356000676188E+03   -0.75701E-01   -0.74176E-01 10584   0.132E+00 0.807E-02
CGA:   4    -0.356017318820E+03   -0.16643E-01   -0.17319E-01 10584   0.760E-01 0.344E-02
CGA:   5    -0.356027291037E+03   -0.99722E-02   -0.96983E-02 10584   0.153E-01-0.190E-02
CGA:   6    -0.356029690959E+03   -0.23999E-02   -0.24347E-02 10584   0.441E-02 0.508E-03
CGA:   7    -0.356030359585E+03   -0.66863E-03   -0.66540E-03 10584   0.292E-02-0.420E-04
CGA:   8    -0.356030660479E+03   -0.30089E-03   -0.34167E-03 10584   0.107E-02 0.387E-03
CGA:   9    -0.356030902768E+03   -0.24229E-03   -0.23807E-03 10584   0.122E-02-0.218E-03
CGA:  10    -0.356030972073E+03   -0.69305E-04   -0.91983E-04 10584   0.421E-03 0.187E-03
CGA:  11    -0.356030989164E+03   -0.17090E-04   -0.37003E-04 10584   0.241E-03 0.149E-03
CGA:  12    -0.356031031300E+03   -0.42137E-04   -0.44712E-04 10584   0.133E-03 0.391E-04
CGA:  13    -0.356031060710E+03   -0.29409E-04   -0.37756E-04 10584   0.470E-03-0.187E-03
CGA:  14    -0.356031062863E+03   -0.21531E-05   -0.24311E-04 10584   0.723E-04 0.147E-03
  21 F= -.35603106E+03 E0= -.35603070E+03  d E =-.737787E-01  mag=    20.0000
       N       E                     dE             d eps       ncg     rms          ort
SDA:   1    -0.356020044126E+03    0.11017E-01    0.00000E+00 10584   0.711E-01 0.000E+00
CGA:   2    -0.356040946127E+03   -0.20902E-01   -0.21102E-01 10584   0.418E-01-0.181E-02
CGA:   3    -0.356045404246E+03   -0.44581E-02   -0.46650E-02 10584   0.125E-01 0.254E-02
CGA:   4    -0.356047802605E+03   -0.23984E-02   -0.23922E-02 10584   0.415E-02-0.889E-03
CGA:   5    -0.356048292725E+03   -0.49012E-03   -0.51471E-03 10584   0.111E-02 0.450E-03
CGA:   6    -0.356048490433E+03   -0.19771E-03   -0.19511E-03 10584   0.537E-03-0.100E-03
CGA:   7    -0.356048529985E+03   -0.39552E-04   -0.49353E-04 10584   0.211E-03 0.118E-03
CGA:   8    -0.356048566616E+03   -0.36631E-04   -0.38051E-04 10584   0.122E-03 0.449E-04
CGA:   9    -0.356048580931E+03   -0.14315E-04   -0.16303E-04 10584   0.578E-04 0.292E-04
CGA:  10    -0.356048584211E+03   -0.32799E-05   -0.66667E-05 10584   0.344E-04 0.415E-04
CGA:  11    -0.356048588916E+03   -0.47047E-05   -0.12502E-04 10584   0.206E-03-0.406E-04
CGA:  12    -0.356048594597E+03   -0.56817E-05   -0.10988E-04 10584   0.159E-04 0.416E-04
  22 F= -.35604859E+03 E0= -.35604825E+03  d E =-.175317E-01  mag=    20.0000
       N       E                     dE             d eps       ncg     rms          ort
SDA:   1    -0.355633429692E+03    0.41516E+00    0.00000E+00 10584   0.114E+01 0.000E+00
CGA:   2    -0.355949275204E+03   -0.31585E+00   -0.31663E+00 10584   0.637E+00-0.689E-02
CGA:   3    -0.356030816175E+03   -0.81541E-01   -0.82285E-01 10584   0.242E+00 0.116E-01
CGA:   4    -0.356063545432E+03   -0.32729E-01   -0.32482E-01 10584   0.887E-01-0.528E-02
CGA:   5    -0.356074314446E+03   -0.10769E-01   -0.10886E-01 10584   0.278E-01 0.189E-02
CGA:   6    -0.356078154977E+03   -0.38405E-02   -0.38481E-02 10584   0.824E-02 0.251E-03
CGA:   7    -0.356079491144E+03   -0.13362E-02   -0.13359E-02 10584   0.388E-02-0.650E-04
CGA:   8    -0.356080140531E+03   -0.64939E-03   -0.64889E-03 10584   0.187E-02 0.121E-03
CGA:   9    -0.356080357889E+03   -0.21736E-03   -0.23707E-03 10584   0.734E-03 0.469E-03
CGA:  10    -0.356080568666E+03   -0.21078E-03   -0.33405E-03 10584   0.178E-02-0.615E-03
CGA:  11    -0.356080622297E+03   -0.53631E-04   -0.11013E-03 10584   0.331E-03 0.504E-03
CGA:  12    -0.356080644686E+03   -0.22389E-04   -0.35698E-04 10584   0.157E-03 0.160E-03
CGA:  13    -0.356080680684E+03   -0.35999E-04   -0.60992E-04 10584   0.430E-03-0.255E-03
CGA:  14    -0.356080686631E+03   -0.59469E-05   -0.24407E-04 10584   0.110E-03 0.165E-03
CGA:  15    -0.356080690521E+03   -0.38895E-05   -0.10379E-04 10584   0.567E-04 0.685E-04
  23 F= -.35608069E+03 E0= -.35608039E+03  d E =-.320959E-01  mag=    20.0000
       N       E                     dE             d eps       ncg     rms          ort
SDA:   1    -0.356063291205E+03    0.17395E-01    0.00000E+00 10584   0.745E-01 0.000E+00
CGA:   2    -0.356072524191E+03   -0.92330E-02   -0.90879E-02 10584   0.545E-01-0.334E-02
CGA:   3    -0.356079696840E+03   -0.71726E-02   -0.72090E-02 10584   0.142E-01 0.189E-02
CGA:   4    -0.356082217196E+03   -0.25204E-02   -0.25134E-02 10584   0.432E-02 0.428E-03
CGA:   5    -0.356082926108E+03   -0.70891E-03   -0.71253E-03 10584   0.286E-02-0.825E-03
CGA:   6    -0.356083070945E+03   -0.14484E-03   -0.17770E-03 10584   0.714E-03 0.408E-03
CGA:   7    -0.356083111289E+03   -0.40344E-04   -0.59421E-04 10584   0.322E-03 0.240E-03
CGA:   8    -0.356083163785E+03   -0.52496E-04   -0.51718E-04 10584   0.153E-03-0.281E-04
CGA:   9    -0.356083179270E+03   -0.15486E-04   -0.40859E-04 10584   0.429E-03-0.175E-03
CGA:  10    -0.356083185072E+03   -0.58016E-05   -0.22558E-04 10584   0.909E-04 0.164E-03
  24 F= -.35608319E+03 E0= -.35608289E+03  d E =-.249455E-02  mag=    20.0000
       N       E                     dE             d eps       ncg     rms          ort
SDA:   1    -0.355815253210E+03    0.26793E+00    0.00000E+00 10584   0.818E+00 0.000E+00
CGA:   2    -0.355973612587E+03   -0.15836E+00   -0.15862E+00 10584   0.545E+00-0.490E-02
CGA:   3    -0.356043399450E+03   -0.69787E-01   -0.70023E-01 10584   0.240E+00 0.787E-02
CGA:   4    -0.356074810303E+03   -0.31411E-01   -0.31324E-01 10584   0.676E-01-0.394E-02
CGA:   5    -0.356083500627E+03   -0.86903E-02   -0.87286E-02 10584   0.183E-01 0.266E-02
CGA:   6    -0.356086493584E+03   -0.29930E-02   -0.30162E-02 10584   0.779E-02-0.158E-02
CGA:   7    -0.356087170848E+03   -0.67726E-03   -0.71669E-03 10584   0.204E-02 0.875E-03
CGA:   8    -0.356087598683E+03   -0.42783E-03   -0.42995E-03 10584   0.949E-03-0.461E-04
CGA:   9    -0.356087768654E+03   -0.16997E-03   -0.19416E-03 10584   0.108E-02-0.377E-03
CGA:  10    -0.356087815056E+03   -0.46402E-04   -0.53545E-04 10584   0.471E-03 0.107E-03
CGA:  11    -0.356087837239E+03   -0.22184E-04   -0.32337E-04 10584   0.215E-03 0.122E-03
CGA:  12    -0.356087869370E+03   -0.32130E-04   -0.33009E-04 10584   0.189E-03 0.459E-04
CGA:  13    -0.356087901829E+03   -0.32459E-04   -0.32937E-04 10584   0.128E-03-0.135E-03
CGA:  14    -0.356087910246E+03   -0.84170E-05   -0.11038E-04 10584   0.383E-04 0.486E-04
  25 F= -.35608791E+03 E0= -.35608761E+03  d E =-.472517E-02  mag=    20.0000
       N       E                     dE             d eps       ncg     rms          ort
SDA:   1    -0.356078180934E+03    0.97209E-02    0.00000E+00 10584   0.303E-01 0.000E+00
CGA:   2    -0.356084592624E+03   -0.64117E-02   -0.64120E-02 10584   0.175E-01-0.101E-04
CGA:   3    -0.356087354348E+03   -0.27617E-02   -0.27685E-02 10584   0.698E-02-0.440E-03
CGA:   4    -0.356088308661E+03   -0.95431E-03   -0.95395E-03 10584   0.193E-02-0.135E-03
CGA:   5    -0.356088579379E+03   -0.27072E-03   -0.27072E-03 10584   0.540E-03 0.661E-04
CGA:   6    -0.356088681923E+03   -0.10254E-03   -0.12441E-03 10584   0.532E-03-0.275E-03
CGA:   7    -0.356088696123E+03   -0.14200E-04   -0.28587E-04 10584   0.890E-04 0.153E-03
CGA:   8    -0.356088703043E+03   -0.69193E-05   -0.91010E-05 10584   0.506E-04 0.347E-04
CGA:   9    -0.356088724366E+03   -0.21323E-04    0.54963E-04 10584   0.321E-04-0.974E-05
CGA:  10    -0.356088714776E+03    0.95905E-05   -0.12388E-04 10584   0.184E-03-0.649E-04
CGA:  11    -0.356088727402E+03   -0.12626E-04   -0.14938E-04 10584   0.442E-04 0.307E-04
CGA:  12    -0.356088735774E+03   -0.83722E-05   -0.82895E-05 10584   0.101E-04 0.987E-05
  26 F= -.35608874E+03 E0= -.35608844E+03  d E =-.825528E-03  mag=    20.0000
       N       E                     dE             d eps       ncg     rms          ort
SDA:   1    -0.356082005160E+03    0.67222E-02    0.00000E+00 10584   0.194E-01 0.000E+00
CGA:   2    -0.356086652005E+03   -0.46468E-02   -0.47143E-02 10584   0.202E-01-0.753E-03
CGA:   3    -0.356088718650E+03   -0.20666E-02   -0.20817E-02 10584   0.380E-02 0.302E-03
CGA:   4    -0.356089389245E+03   -0.67059E-03   -0.67712E-03 10584   0.130E-02-0.310E-03
CGA:   5    -0.356089477088E+03   -0.87843E-04   -0.10577E-03 10584   0.365E-03 0.269E-03
CGA:   6    -0.356089540832E+03   -0.63744E-04   -0.63645E-04 10584   0.133E-03-0.128E-04
CGA:   7    -0.356089029406E+03    0.51143E-03   -0.27530E-03 10584   0.637E-02-0.786E-03
CGA:   8    -0.356089391670E+03   -0.36226E-03   -0.46107E-03 10584   0.799E-03 0.400E-03
CGA:   9    -0.356089551982E+03   -0.16031E-03   -0.15388E-03 10584   0.290E-03-0.757E-04
CGA:  10    -0.356089578272E+03   -0.26290E-04   -0.29803E-04 10584   0.105E-03 0.234E-04
CGA:  11    -0.356089592546E+03   -0.14274E-04   -0.14462E-04 10584   0.214E-04 0.140E-05
CGA:  12    -0.356089593524E+03   -0.97803E-06   -0.23289E-05 10584   0.957E-05 0.957E-05
  27 F= -.35608959E+03 E0= -.35608930E+03  d E =-.857750E-03  mag=    20.0000
       N       E                     dE             d eps       ncg     rms          ort
SDA:   1    -0.355858801991E+03    0.23079E+00    0.00000E+00 10584   0.558E+00 0.000E+00
CGA:   2    -0.356034458047E+03   -0.17566E+00   -0.17562E+00 10584   0.295E+00 0.361E-03
CGA:   3    -0.356076172025E+03   -0.41714E-01   -0.41487E-01 10584   0.875E-01-0.187E-02
CGA:   4    -0.356087784851E+03   -0.11613E-01   -0.11771E-01 10584   0.222E-01 0.131E-02
CGA:   5    -0.356091107058E+03   -0.33222E-02   -0.33043E-02 10584   0.774E-02-0.197E-03
CGA:   6    -0.356092193634E+03   -0.10866E-02   -0.10474E-02 10584   0.338E-02-0.436E-03
CGA:   7    -0.356092497135E+03   -0.30350E-03   -0.34857E-03 10584   0.103E-02 0.391E-03
CGA:   8    -0.356092763062E+03   -0.26593E-03   -0.27652E-03 10584   0.103E-02-0.410E-03
CGA:   9    -0.356092808501E+03   -0.45439E-04   -0.52603E-04 10584   0.484E-03 0.529E-04
CGA:  10    -0.356092836218E+03   -0.27717E-04   -0.43376E-04 10584   0.296E-03 0.125E-03
CGA:  11    -0.356092882789E+03   -0.46571E-04   -0.46776E-04 10584   0.129E-03 0.233E-05
CGA:  12    -0.356091819750E+03    0.10630E-02   -0.57634E-03 10584   0.116E-01-0.114E-02
CGA:  13    -0.356092442831E+03   -0.62308E-03   -0.86618E-03 10584   0.143E-02 0.615E-03
CGA:  14    -0.356092772391E+03   -0.32956E-03   -0.32295E-03 10584   0.822E-03-0.488E-04
CGA:  15    -0.356092871572E+03   -0.99181E-04   -0.76125E-04 10584   0.179E-03-0.942E-04
CGA:  16    -0.356092923893E+03   -0.52321E-04   -0.52231E-04 10584   0.159E-03-0.665E-04
CGA:  17    -0.356092918046E+03    0.58475E-05   -0.56782E-05 10584   0.763E-04 0.418E-04
  28 F= -.35609292E+03 E0= -.35609262E+03  d E =-.332452E-02  mag=    20.0000
       N       E                     dE             d eps       ncg     rms          ort
SDA:   1    -0.355784448908E+03    0.30847E+00    0.00000E+00 10584   0.756E+00 0.000E+00
CGA:   2    -0.356007102507E+03   -0.22265E+00   -0.22279E+00 10584   0.580E+00 0.972E-02
CGA:   3    -0.356064489172E+03   -0.57387E-01   -0.52875E-01 10584   0.138E+00 0.256E-01
CGA:   4    -0.356087340895E+03   -0.22852E-01   -0.23092E-01 10584   0.406E-01 0.782E-03
CGA:   5    -0.356092552289E+03   -0.52114E-02   -0.53539E-02 10584   0.134E-01 0.767E-03
CGA:   6    -0.356094611461E+03   -0.20592E-02   -0.19766E-02 10584   0.439E-02-0.585E-03
CGA:   7    -0.356095239779E+03   -0.62832E-03   -0.66232E-03 10584   0.154E-02 0.291E-03
CGA:   8    -0.356095439981E+03   -0.20020E-03   -0.22758E-03 10584   0.730E-03 0.211E-03
CGA:   9    -0.356095625883E+03   -0.18590E-03   -0.17717E-03 10584   0.715E-03-0.187E-03
CGA:  10    -0.356095645035E+03   -0.19153E-04   -0.46629E-04 10584   0.294E-03 0.159E-03
CGA:  11    -0.356095655800E+03   -0.10764E-04   -0.30498E-04 10584   0.187E-03 0.119E-03
CGA:  12    -0.356095700497E+03   -0.44698E-04   -0.43244E-04 10584   0.101E-03-0.191E-04
CGA:  13    -0.356095720587E+03   -0.20090E-04   -0.18036E-04 10584   0.143E-03-0.522E-04
CGA:  14    -0.356095717383E+03    0.32038E-05   -0.77823E-05 10584   0.383E-04 0.606E-04
  29 F= -.35609572E+03 E0= -.35609544E+03  d E =-.279934E-02  mag=    20.0000
       N       E                     dE             d eps       ncg     rms          ort
SDA:   1    -0.353782062170E+03    0.23137E+01    0.00000E+00 10584   0.569E+01 0.000E+00
CGA:   2    -0.355359467763E+03   -0.15774E+01   -0.15668E+01 10584   0.491E+01 0.137E+00
CGA:   3    -0.355879280889E+03   -0.51981E+00   -0.47090E+00 10584   0.945E+00 0.315E+00
CGA:   4    -0.356041111561E+03   -0.16183E+00   -0.16220E+00 10584   0.389E+00 0.271E-02
CGA:   5    -0.356081580531E+03   -0.40469E-01   -0.41148E-01 10584   0.100E+00 0.304E-02
CGA:   6    -0.356098552099E+03   -0.16972E-01   -0.16924E-01 10584   0.267E-01-0.134E-02
CGA:   7    -0.356103550271E+03   -0.49982E-02   -0.49932E-02 10584   0.127E-01-0.346E-03
CGA:   8    -0.356104894642E+03   -0.13444E-02   -0.14158E-02 10584   0.560E-02 0.712E-03
CGA:   9    -0.356106124524E+03   -0.12299E-02   -0.12356E-02 10584   0.317E-02-0.567E-03
CGA:  10    -0.356106525224E+03   -0.40070E-03   -0.42277E-03 10584   0.183E-02 0.418E-03
CGA:  11    -0.356106909808E+03   -0.38458E-03   -0.38285E-03 10584   0.104E-02-0.151E-03
CGA:  12    -0.356107019718E+03   -0.10991E-03   -0.12481E-03 10584   0.415E-03 0.227E-03
CGA:  13    -0.356107114935E+03   -0.95217E-04   -0.95441E-04 10584   0.151E-03 0.505E-04
CGA:  14    -0.356107137595E+03   -0.22660E-04   -0.25418E-04 10584   0.889E-04 0.644E-04
CGA:  15    -0.356107158559E+03   -0.20964E-04   -0.21560E-04 10584   0.420E-04 0.283E-04
CGA:  16    -0.356107173744E+03   -0.15185E-04   -0.14390E-04 10584   0.338E-04 0.111E-04
CGA:  17    -0.356107175642E+03   -0.18984E-05   -0.43399E-05 10584   0.198E-04 0.265E-04
CGA:  18    -0.356107183193E+03   -0.75505E-05    0.18004E-03 10584   0.793E-05 0.978E-05
  30 F= -.35610718E+03 E0= -.35610695E+03  d E =-.114658E-01  mag=    20.0000
       N       E                     dE             d eps       ncg     rms          ort
SDA:   1    -0.342677935448E+03    0.13429E+02    0.00000E+00 10584   0.335E+02 0.000E+00
CGA:   2    -0.350598441319E+03   -0.79205E+01   -0.79455E+01 10584   0.283E+02-0.429E+00
CGA:   3    -0.353436727318E+03   -0.28383E+01   -0.29813E+01 10584   0.886E+01-0.217E+00
CGA:   4    -0.354693543502E+03   -0.12568E+01   -0.12159E+01 10584   0.297E+01-0.554E-01
CGA:   5    -0.355076008526E+03   -0.38247E+00   -0.38223E+00 10584   0.105E+01 0.769E-02
CGA:   6    -0.355208128684E+03   -0.13212E+00   -0.13351E+00 10584   0.391E+00 0.201E-02
CGA:   7    -0.355254945655E+03   -0.46817E-01   -0.45467E-01 10584   0.177E+00-0.826E-02
CGA:   8    -0.355282565993E+03   -0.27620E-01   -0.27732E-01 10584   0.725E-01 0.481E-02
CGA:   9    -0.355296684460E+03   -0.14118E-01   -0.14227E-01 10584   0.635E-01-0.669E-02
CGA:  10    -0.355302703284E+03   -0.60188E-02   -0.61899E-02 10584   0.216E-01 0.136E-02
CGA:  11    -0.355308075565E+03   -0.53723E-02   -0.54364E-02 10584   0.997E-02-0.918E-03
CGA:  12    -0.355309976669E+03   -0.19011E-02   -0.19747E-02 10584   0.107E-01-0.242E-02
CGA:  13    -0.355310885523E+03   -0.90885E-03   -0.91138E-03 10584   0.340E-02-0.304E-04
CGA:  14    -0.355311278848E+03   -0.39333E-03   -0.39619E-03 10584   0.241E-02 0.352E-04
CGA:  15    -0.355311812075E+03   -0.53323E-03   -0.65972E-03 10584   0.256E-02-0.129E-02
CGA:  16    -0.355312090621E+03   -0.27855E-03   -0.26940E-03 10584   0.123E-02-0.135E-03
CGA:  17    -0.355312313376E+03   -0.22275E-03   -0.23884E-03 10584   0.126E-02-0.513E-03
CGA:  18    -0.355312379638E+03   -0.66262E-04   -0.68768E-04 10584   0.529E-03 0.262E-04
CGA:  19    -0.355312469765E+03   -0.90127E-04   -0.89736E-04 10584   0.844E-03-0.968E-04
CGA:  20    -0.355312580091E+03   -0.11033E-03   -0.14048E-03 10584   0.137E-02-0.915E-03
CGA:  21    -0.355312715007E+03   -0.13492E-03   -0.14398E-03 10584   0.386E-03 0.129E-03
CGA:  22    -0.355312784500E+03   -0.69493E-04   -0.66342E-04 10584   0.393E-03-0.272E-03
CGA:  23    -0.355312791622E+03   -0.71211E-05   -0.19638E-04 10584   0.648E-04 0.104E-03
  31 F= -.35531279E+03 E0= -.35531153E+03  d E =0.794392E+00  mag=    20.0000
       N       E                     dE             d eps       ncg     rms          ort
SDA:   1    -0.351270773730E+03    0.40420E+01    0.00000E+00 10584   0.114E+02 0.000E+00
CGA:   2    -0.354780626306E+03   -0.35099E+01   -0.34455E+01 10584   0.717E+01 0.412E+00
CGA:   3    -0.355507112432E+03   -0.72649E+00   -0.65454E+00 10584   0.184E+01 0.414E+00
CGA:   4    -0.355916581577E+03   -0.40947E+00   -0.40775E+00 10584   0.464E+00 0.260E-01
CGA:   5    -0.355989542775E+03   -0.72961E-01   -0.73046E-01 10584   0.191E+00 0.696E-02
CGA:   6    -0.356014129954E+03   -0.24587E-01   -0.24340E-01 10584   0.662E-01-0.414E-02
CGA:   7    -0.356026804241E+03   -0.12674E-01   -0.12617E-01 10584   0.260E-01 0.171E-02
CGA:   8    -0.356031834819E+03   -0.50306E-02   -0.49938E-02 10584   0.157E-01 0.149E-02
CGA:   9    -0.356034789431E+03   -0.29546E-02   -0.29844E-02 10584   0.109E-01-0.205E-02
CGA:  10    -0.356036125900E+03   -0.13365E-02   -0.13596E-02 10584   0.317E-02 0.979E-03
CGA:  11    -0.356036863849E+03   -0.73795E-03   -0.73370E-03 10584   0.195E-02 0.849E-04
CGA:  12    -0.356037170239E+03   -0.30639E-03   -0.30181E-03 10584   0.115E-02-0.294E-03
CGA:  13    -0.356037315025E+03   -0.14479E-03   -0.14684E-03 10584   0.336E-03 0.126E-03
CGA:  14    -0.356037363159E+03   -0.48134E-04   -0.51156E-04 10584   0.224E-03 0.107E-03
CGA:  15    -0.356037420232E+03   -0.57073E-04   -0.56854E-04 10584   0.123E-03 0.517E-05
CGA:  16    -0.356037438484E+03   -0.18252E-04   -0.19010E-04 10584   0.782E-04 0.527E-04
CGA:  17    -0.356037446797E+03   -0.83129E-05   -0.12156E-04 10584   0.466E-04 0.678E-04
CGA:  18    -0.356037409063E+03    0.37733E-04   -0.23357E-04 10584   0.963E-03-0.969E-04
CGA:  19    -0.356037461744E+03   -0.52681E-04   -0.68629E-04 10584   0.756E-04 0.669E-04
CGA:  20    -0.356037469639E+03   -0.78944E-05   -0.12112E-04 10584   0.320E-04 0.314E-04
CGA:  21    -0.356037474264E+03   -0.46250E-05   -0.20683E-04 10584   0.324E-03-0.901E-04
CGA:  22    -0.356037478532E+03   -0.42680E-05   -0.20142E-04 10584   0.351E-04 0.696E-04
  32 F= -.35603748E+03 E0= -.35603709E+03  d E =-.724687E+00  mag=    20.0000
       N       E                     dE             d eps       ncg     rms          ort
SDA:   1    -0.355709210875E+03    0.32826E+00    0.00000E+00 10584   0.942E+00 0.000E+00
CGA:   2    -0.356004300599E+03   -0.29509E+00   -0.29442E+00 10584   0.523E+00 0.123E-01
CGA:   3    -0.356064119703E+03   -0.59819E-01   -0.57388E-01 10584   0.176E+00 0.336E-03
CGA:   4    -0.356094467654E+03   -0.30348E-01   -0.30727E-01 10584   0.428E-01 0.275E-02
CGA:   5    -0.356101135664E+03   -0.66680E-02   -0.65989E-02 10584   0.178E-01-0.522E-03
CGA:   6    -0.356103271110E+03   -0.21354E-02   -0.21513E-02 10584   0.562E-02 0.648E-04
CGA:   7    -0.356104353616E+03   -0.10825E-02   -0.10936E-02 10584   0.218E-02 0.223E-03
CGA:   8    -0.356104842960E+03   -0.48934E-03   -0.49067E-03 10584   0.131E-02 0.537E-04
CGA:   9    -0.356105076208E+03   -0.23325E-03   -0.22796E-03 10584   0.883E-03-0.784E-04
CGA:  10    -0.356105187561E+03   -0.11135E-03   -0.11986E-03 10584   0.266E-03 0.909E-04
CGA:  11    -0.356105089998E+03    0.97564E-04   -0.20105E-03 10584   0.345E-02-0.662E-03
CGA:  12    -0.356105226251E+03   -0.13625E-03   -0.22618E-03 10584   0.416E-03 0.447E-03
CGA:  13    -0.356105278944E+03   -0.52694E-04   -0.62472E-04 10584   0.157E-03 0.873E-04
CGA:  14    -0.356105306357E+03   -0.27412E-04   -0.63659E-04 10584   0.117E-02-0.378E-03
CGA:  15    -0.356105320891E+03   -0.14535E-04   -0.65111E-04 10584   0.119E-03 0.263E-03
CGA:  16    -0.356105317141E+03    0.37498E-05   -0.82651E-05 10584   0.551E-04 0.675E-04
CGA:  17    -0.356105346488E+03   -0.29346E-04    0.34625E-04 10584   0.448E-04-0.499E-05
CGA:  18    -0.356105343922E+03    0.25655E-05   -0.16324E-05 10584   0.171E-04 0.226E-04
  33 F= -.35610534E+03 E0= -.35610505E+03  d E =-.678654E-01  mag=    20.0000
       N       E                     dE             d eps       ncg     rms          ort
SDA:   1    -0.355883817082E+03    0.22153E+00    0.00000E+00 10584   0.568E+00 0.000E+00
CGA:   2    -0.356050567807E+03   -0.16675E+00   -0.16583E+00 10584   0.338E+00 0.103E-01
CGA:   3    -0.356093435770E+03   -0.42868E-01   -0.41972E-01 10584   0.116E+00-0.712E-02
CGA:   4    -0.356110137652E+03   -0.16702E-01   -0.16950E-01 10584   0.305E-01 0.386E-02
CGA:   5    -0.356115074078E+03   -0.49364E-02   -0.48497E-02 10584   0.151E-01-0.168E-02
CGA:   6    -0.356116443388E+03   -0.13693E-02   -0.14231E-02 10584   0.407E-02 0.429E-03
CGA:   7    -0.356117151136E+03   -0.70775E-03   -0.71474E-03 10584   0.169E-02 0.275E-03
CGA:   8    -0.356117505149E+03   -0.35401E-03   -0.35422E-03 10584   0.164E-02-0.238E-03
CGA:   9    -0.356117635094E+03   -0.12994E-03   -0.14834E-03 10584   0.500E-03 0.202E-03
CGA:  10    -0.356117709442E+03   -0.74349E-04   -0.77988E-04 10584   0.457E-03 0.696E-04
CGA:  11    -0.356117809190E+03   -0.99747E-04   -0.10150E-03 10584   0.340E-03-0.246E-03
CGA:  12    -0.356117836749E+03   -0.27559E-04   -0.33479E-04 10584   0.941E-04 0.655E-04
CGA:  13    -0.356117860279E+03   -0.23530E-04   -0.27698E-04 10584   0.108E-03-0.665E-04
CGA:  14    -0.356117862543E+03   -0.22646E-05   -0.72546E-05 10584   0.287E-04 0.415E-04
  34 F= -.35611786E+03 E0= -.35611761E+03  d E =-.125186E-01  mag=    20.0000
       N       E                     dE             d eps       ncg     rms          ort
SDA:   1    -0.356085885492E+03    0.31975E-01    0.00000E+00 10584   0.992E-01 0.000E+00
CGA:   2    -0.356107721786E+03   -0.21836E-01   -0.21724E-01 10584   0.657E-01 0.272E-02
CGA:   3    -0.356117226749E+03   -0.95050E-02   -0.93770E-02 10584   0.283E-01-0.287E-02
CGA:   4    -0.356120253530E+03   -0.30268E-02   -0.31313E-02 10584   0.656E-02 0.155E-02
CGA:   5    -0.356121289416E+03   -0.10359E-02   -0.10292E-02 10584   0.304E-02-0.243E-03
CGA:   6    -0.356121618443E+03   -0.32903E-03   -0.32819E-03 10584   0.882E-03-0.187E-04
CGA:   7    -0.356121756102E+03   -0.13766E-03   -0.13709E-03 10584   0.328E-03-0.379E-04
CGA:   8    -0.356121794538E+03   -0.38436E-04   -0.41635E-04 10584   0.119E-03 0.840E-04
CGA:   9    -0.356121824122E+03   -0.29584E-04   -0.54031E-04 10584   0.301E-03-0.126E-03
CGA:  10    -0.356121836182E+03   -0.12060E-04   -0.22346E-04 10584   0.604E-04 0.983E-04
CGA:  11    -0.356121847214E+03   -0.11031E-04   -0.10991E-04 10584   0.232E-04-0.114E-05
CGA:  12    -0.356121860506E+03   -0.13292E-04    0.27904E-05 10584   0.236E-04-0.245E-05
CGA:  13    -0.356121861576E+03   -0.10705E-05   -0.18795E-05 10584   0.127E-04 0.977E-05
  35 F= -.35612186E+03 E0= -.35612163E+03  d E =-.399903E-02  mag=    20.0000
       N       E                     dE             d eps       ncg     rms          ort
SDA:   1    -0.356063212374E+03    0.58648E-01    0.00000E+00 10584   0.168E+00 0.000E+00
CGA:   2    -0.356105378326E+03   -0.42166E-01   -0.42348E-01 10584   0.102E+00-0.199E-02
CGA:   3    -0.356119951327E+03   -0.14573E-01   -0.14615E-01 10584   0.340E-01 0.198E-02
CGA:   4    -0.356124837775E+03   -0.48864E-02   -0.48393E-02 10584   0.124E-01-0.187E-02
CGA:   5    -0.356126031820E+03   -0.11940E-02   -0.12554E-02 10584   0.335E-02 0.105E-02
CGA:   6    -0.356126577575E+03   -0.54576E-03   -0.54457E-03 10584   0.125E-02-0.112E-03
CGA:   7    -0.356126764191E+03   -0.18662E-03   -0.18574E-03 10584   0.678E-03-0.149E-03
CGA:   8    -0.356126841601E+03   -0.77411E-04   -0.78613E-04 10584   0.215E-03 0.423E-04
CGA:   9    -0.356126882896E+03   -0.41295E-04   -0.40649E-04 10584   0.972E-04 0.331E-04
CGA:  10    -0.356126523151E+03    0.35975E-03   -0.19365E-03 10584   0.475E-02-0.559E-03
CGA:  11    -0.356126798808E+03   -0.27566E-03   -0.34854E-03 10584   0.470E-03 0.296E-03
CGA:  12    -0.356126886949E+03   -0.88142E-04   -0.93554E-04 10584   0.106E-03 0.587E-04
CGA:  13    -0.356126887075E+03   -0.12609E-06   -0.55518E-04 10584   0.132E-02-0.294E-03
CGA:  14    -0.356126913864E+03   -0.26789E-04   -0.79042E-04 10584   0.821E-04 0.225E-03
CGA:  15    -0.356126911455E+03    0.24084E-05   -0.61418E-05 10584   0.363E-04 0.408E-04
  36 F= -.35612691E+03 E0= -.35612669E+03  d E =-.504988E-02  mag=    20.0000
       N       E                     dE             d eps       ncg     rms          ort
SDA:   1    -0.356073911891E+03    0.53002E-01    0.00000E+00 10584   0.150E+00 0.000E+00
CGA:   2    -0.356109349453E+03   -0.35438E-01   -0.35436E-01 10584   0.973E-01-0.113E-03
CGA:   3    -0.356122791843E+03   -0.13442E-01   -0.13461E-01 10584   0.392E-01-0.170E-03
CGA:   4    -0.356127569661E+03   -0.47778E-02   -0.46936E-02 10584   0.116E-01-0.427E-03
CGA:   5    -0.356128828845E+03   -0.12592E-02   -0.13519E-02 10584   0.299E-02 0.689E-03
CGA:   6    -0.356129414762E+03   -0.58592E-03   -0.55401E-03 10584   0.146E-02-0.520E-03
CGA:   7    -0.356129493044E+03   -0.78282E-04   -0.11298E-03 10584   0.416E-03 0.246E-03
CGA:   8    -0.356129551102E+03   -0.58058E-04   -0.65720E-04 10584   0.221E-03 0.839E-04
CGA:   9    -0.356129510345E+03    0.40757E-04   -0.12065E-03 10584   0.278E-02-0.693E-03
CGA:  10    -0.356129597141E+03   -0.86797E-04   -0.16787E-03 10584   0.317E-03 0.450E-03
CGA:  11    -0.356129616989E+03   -0.19848E-04   -0.35575E-04 10584   0.139E-03 0.123E-03
CGA:  12    -0.356129658165E+03   -0.41177E-04   -0.38807E-04 10584   0.178E-03-0.139E-03
CGA:  13    -0.356129654373E+03    0.37922E-05   -0.82695E-05 10584   0.397E-04 0.702E-04
  37 F= -.35612965E+03 E0= -.35612944E+03  d E =-.274292E-02  mag=    20.0000
       N       E                     dE             d eps       ncg     rms          ort
SDA:   1    -0.356015377275E+03    0.11428E+00    0.00000E+00 10584   0.304E+00 0.000E+00
CGA:   2    -0.356093219408E+03   -0.77842E-01   -0.77747E-01 10584   0.182E+00 0.164E-02
CGA:   3    -0.356121487899E+03   -0.28268E-01   -0.28216E-01 10584   0.603E-01-0.927E-03
CGA:   4    -0.356129089890E+03   -0.76020E-02   -0.77041E-02 10584   0.152E-01 0.131E-02
CGA:   5    -0.356131361346E+03   -0.22715E-02   -0.22212E-02 10584   0.617E-02-0.923E-03
CGA:   6    -0.356131948252E+03   -0.58691E-03   -0.63038E-03 10584   0.167E-02 0.487E-03
CGA:   7    -0.356132250137E+03   -0.30188E-03   -0.30007E-03 10584   0.822E-03-0.768E-04
CGA:   8    -0.356132362313E+03   -0.11218E-03   -0.11198E-03 10584   0.376E-03-0.467E-05
CGA:   9    -0.356132411170E+03   -0.48856E-04   -0.51534E-04 10584   0.124E-03 0.546E-04
CGA:  10    -0.356132447428E+03   -0.36258E-04   -0.37261E-04 10584   0.120E-03-0.130E-04
CGA:  11    -0.356132455072E+03   -0.76438E-05   -0.10125E-04 10584   0.531E-04 0.263E-04
CGA:  12    -0.356132465780E+03   -0.10708E-04   -0.10798E-04 10584   0.471E-04 0.528E-05
CGA:  13    -0.356132473185E+03   -0.74050E-05   -0.68488E-05 10584   0.271E-04-0.112E-04
  38 F= -.35613247E+03 E0= -.35613226E+03  d E =-.281881E-02  mag=    20.0000
       N       E                     dE             d eps       ncg     rms          ort
SDA:   1    -0.355980029955E+03    0.15244E+00    0.00000E+00 10584   0.389E+00 0.000E+00
CGA:   2    -0.356088062978E+03   -0.10803E+00   -0.10823E+00 10584   0.265E+00-0.198E-02
CGA:   3    -0.356120183627E+03   -0.32121E-01   -0.32247E-01 10584   0.852E-01 0.230E-02
CGA:   4    -0.356131545060E+03   -0.11361E-01   -0.11281E-01 10584   0.244E-01-0.166E-02
CGA:   5    -0.356134272802E+03   -0.27277E-02   -0.27944E-02 10584   0.718E-02 0.105E-02
CGA:   6    -0.356135368114E+03   -0.10953E-02   -0.10799E-02 10584   0.293E-02-0.556E-03
CGA:   7    -0.356135723772E+03   -0.35566E-03   -0.35994E-03 10584   0.889E-03 0.111E-03
CGA:   8    -0.356135931396E+03   -0.20762E-03   -0.22614E-03 10584   0.592E-03-0.243E-03
CGA:   9    -0.356135972373E+03   -0.40977E-04   -0.45717E-04 10584   0.274E-03 0.709E-04
CGA:  10    -0.356136033782E+03   -0.61409E-04   -0.63074E-04 10584   0.168E-03-0.459E-04
CGA:  11    -0.356136052885E+03   -0.19103E-04   -0.19056E-04 10584   0.116E-03-0.152E-05
CGA:  12    -0.356136061372E+03   -0.84871E-05   -0.11444E-04 10584   0.466E-04 0.422E-04
  39 F= -.35613606E+03 E0= -.35613584E+03  d E =-.358819E-02  mag=    20.0000
       N       E                     dE             d eps       ncg     rms          ort
SDA:   1    -0.355830048444E+03    0.30600E+00    0.00000E+00 10584   0.758E+00 0.000E+00
CGA:   2    -0.356051574475E+03   -0.22153E+00   -0.22086E+00 10584   0.465E+00 0.511E-02
CGA:   3    -0.356113038988E+03   -0.61465E-01   -0.61221E-01 10584   0.155E+00-0.449E-02
CGA:   4    -0.356131695600E+03   -0.18657E-01   -0.18834E-01 10584   0.391E-01 0.322E-02
CGA:   5    -0.356137206928E+03   -0.55113E-02   -0.54594E-02 10584   0.147E-01-0.172E-02
CGA:   6    -0.356138777351E+03   -0.15704E-02   -0.16017E-02 10584   0.447E-02 0.577E-03
CGA:   7    -0.356139543437E+03   -0.76609E-03   -0.76670E-03 10584   0.174E-02-0.190E-03
CGA:   8    -0.356139826094E+03   -0.28266E-03   -0.28303E-03 10584   0.842E-03-0.483E-04
CGA:   9    -0.356139945332E+03   -0.11924E-03   -0.11924E-03 10584   0.386E-03-0.741E-06
CGA:  10    -0.356140015876E+03   -0.70544E-04   -0.69625E-04 10584   0.177E-03 0.475E-04
CGA:  11    -0.356140061797E+03   -0.45921E-04   -0.57417E-04 10584   0.347E-03-0.920E-04
CGA:  12    -0.356140071736E+03   -0.99383E-05   -0.19388E-04 10584   0.525E-04 0.829E-04
  40 F= -.35614007E+03 E0= -.35613986E+03  d E =-.401036E-02  mag=    20.0000
       N       E                     dE             d eps       ncg     rms          ort
SDA:   1    -0.354777695335E+03    0.13624E+01    0.00000E+00 10584   0.322E+01 0.000E+00
CGA:   2    -0.355769589331E+03   -0.99189E+00   -0.97967E+00 10584   0.253E+01 0.818E-01
CGA:   3    -0.356025272999E+03   -0.25568E+00   -0.24539E+00 10584   0.518E+00 0.101E-01
CGA:   4    -0.356110455755E+03   -0.85183E-01   -0.85171E-01 10584   0.177E+00 0.763E-02
CGA:   5    -0.356129304015E+03   -0.18848E-01   -0.18909E-01 10584   0.485E-01 0.115E-02
CGA:   6    -0.356137580511E+03   -0.82765E-02   -0.82861E-02 10584   0.143E-01-0.101E-02
CGA:   7    -0.356139869090E+03   -0.22886E-02   -0.22862E-02 10584   0.578E-02 0.830E-03
CGA:   8    -0.356140673532E+03   -0.80444E-03   -0.81535E-03 10584   0.260E-02 0.388E-03
CGA:   9    -0.356141241716E+03   -0.56818E-03   -0.58066E-03 10584   0.190E-02-0.251E-03
CGA:  10    -0.356141392428E+03   -0.15071E-03   -0.17971E-03 10584   0.666E-03 0.501E-03
CGA:  11    -0.356141562019E+03   -0.16959E-03   -0.16480E-03 10584   0.524E-03 0.129E-03
CGA:  12    -0.356141666852E+03   -0.10483E-03   -0.10839E-03 10584   0.691E-03-0.286E-03
CGA:  13    -0.356141685681E+03   -0.18829E-04   -0.38850E-04 10584   0.128E-03 0.188E-03
CGA:  14    -0.356141691146E+03   -0.54650E-05   -0.11998E-04 10584   0.889E-04 0.790E-04
CGA:  15    -0.356141718199E+03   -0.27053E-04    0.10232E-01 10584   0.991E-04-0.231E-05
CGA:  16    -0.356141723586E+03   -0.53878E-05   -0.86982E-05 10584   0.409E-04 0.533E-04
  41 F= -.35614172E+03 E0= -.35614154E+03  d E =-.165185E-02  mag=    20.0000
       N       E                     dE             d eps       ncg     rms          ort
SDA:   1    -0.351091947321E+03    0.50498E+01    0.00000E+00 10584   0.125E+02 0.000E+00
CGA:   2    -0.354382109777E+03   -0.32902E+01   -0.31985E+01 10584   0.114E+02 0.735E+00
CGA:   3    -0.355727056615E+03   -0.13449E+01   -0.13005E+01 10584   0.189E+01-0.150E+00
CGA:   4    -0.356018539618E+03   -0.29148E+00   -0.29082E+00 10584   0.795E+00 0.457E-01
CGA:   5    -0.356102759313E+03   -0.84220E-01   -0.83408E-01 10584   0.180E+00-0.693E-03
CGA:   6    -0.356134021728E+03   -0.31262E-01   -0.31303E-01 10584   0.629E-01-0.186E-02
CGA:   7    -0.356142790400E+03   -0.87687E-02   -0.87823E-02 10584   0.246E-01 0.229E-02
CGA:   8    -0.356146881962E+03   -0.40916E-02   -0.40909E-02 10584   0.113E-01-0.122E-04
CGA:   9    -0.356148901953E+03   -0.20200E-02   -0.20482E-02 10584   0.877E-02-0.851E-03
CGA:  10    -0.356149918037E+03   -0.10161E-02   -0.10440E-02 10584   0.246E-02 0.135E-02
CGA:  11    -0.356150723064E+03   -0.80503E-03   -0.84021E-03 10584   0.273E-02-0.246E-03
CGA:  12    -0.356150898730E+03   -0.17567E-03   -0.21013E-03 10584   0.838E-03 0.484E-03
CGA:  13    -0.356150971228E+03   -0.72499E-04   -0.93624E-04 10584   0.526E-03 0.370E-03
CGA:  14    -0.356151060742E+03   -0.89514E-04   -0.92019E-04 10584   0.190E-03 0.907E-04
CGA:  15    -0.356151083161E+03   -0.22419E-04   -0.98709E-04 10584   0.919E-03-0.260E-03
CGA:  16    -0.356151092803E+03   -0.96425E-05   -0.48063E-04 10584   0.197E-03 0.347E-03
CGA:  17    -0.356151090779E+03    0.20249E-05   -0.13407E-04 10584   0.110E-03 0.143E-03
CGA:  18    -0.356151130746E+03   -0.39968E-04    0.41298E-04 10584   0.540E-04 0.437E-04
CGA:  19    -0.356151132494E+03   -0.17475E-05   -0.54428E-05 10584   0.222E-04 0.466E-04
  42 F= -.35615113E+03 E0= -.35615099E+03  d E =-.940891E-02  mag=    20.0000
       N       E                     dE             d eps       ncg     rms          ort
SDA:   1    -0.347523127101E+03    0.86280E+01    0.00000E+00 10584   0.230E+02 0.000E+00
CGA:   2    -0.352584483064E+03   -0.50614E+01   -0.51185E+01 10584   0.201E+02-0.657E+00
CGA:   3    -0.354579160616E+03   -0.19947E+01   -0.20894E+01 10584   0.598E+01 0.416E+00
CGA:   4    -0.355511909442E+03   -0.93275E+00   -0.93415E+00 10584   0.183E+01-0.104E+00
CGA:   5    -0.355774326870E+03   -0.26242E+00   -0.26241E+00 10584   0.638E+00 0.137E-01
CGA:   6    -0.355850252000E+03   -0.75925E-01   -0.75320E-01 10584   0.248E+00-0.110E-01
CGA:   7    -0.355881110834E+03   -0.30859E-01   -0.30961E-01 10584   0.966E-01 0.314E-02
CGA:   8    -0.355896555720E+03   -0.15445E-01   -0.15524E-01 10584   0.630E-01-0.497E-02
CGA:   9    -0.355904850604E+03   -0.82949E-02   -0.82924E-02 10584   0.233E-01-0.717E-03
CGA:  10    -0.355910286598E+03   -0.54360E-02   -0.57027E-02 10584   0.139E-01-0.259E-02
CGA:  11    -0.355911733912E+03   -0.14473E-02   -0.14880E-02 10584   0.683E-02 0.139E-02
CGA:  12    -0.355913112896E+03   -0.13790E-02   -0.14048E-02 10584   0.327E-02-0.662E-03
CGA:  13    -0.355913430858E+03   -0.31796E-03   -0.32610E-03 10584   0.160E-02 0.199E-03
CGA:  14    -0.355913799401E+03   -0.36854E-03   -0.38364E-03 10584   0.589E-03-0.200E-03
CGA:  15    -0.355913882256E+03   -0.82856E-04   -0.82194E-04 10584   0.425E-03 0.799E-04
CGA:  16    -0.355912494879E+03    0.13874E-02   -0.74181E-03 10584   0.165E-01-0.226E-02
CGA:  17    -0.355913533340E+03   -0.10385E-02   -0.12146E-02 10584   0.299E-02 0.466E-03
CGA:  18    -0.355914166832E+03   -0.63349E-03   -0.61599E-03 10584   0.889E-03-0.264E-03
CGA:  19    -0.355914218110E+03   -0.51278E-04   -0.68219E-04 10584   0.310E-03 0.902E-04
CGA:  20    -0.355914278480E+03   -0.60370E-04   -0.62060E-04 10584   0.123E-03 0.227E-04
CGA:  21    -0.355914293885E+03   -0.15406E-04   -0.15650E-04 10584   0.796E-04 0.155E-05
CGA:  22    -0.355914298141E+03   -0.42554E-05   -0.86588E-05 10584   0.337E-04 0.320E-04
  43 F= -.35591430E+03 E0= -.35591348E+03  d E =0.236834E+00  mag=    20.0000
       N       E                     dE             d eps       ncg     rms          ort
SDA:   1    -0.354745234597E+03    0.11691E+01    0.00000E+00 10584   0.336E+01 0.000E+00
CGA:   2    -0.355759040010E+03   -0.10138E+01   -0.10116E+01 10584   0.173E+01 0.287E-01
CGA:   3    -0.355947682917E+03   -0.18864E+00   -0.17950E+00 10584   0.718E+00 0.440E-01
CGA:   4    -0.356066675786E+03   -0.11899E+00   -0.12076E+00 10584   0.178E+00 0.631E-02
CGA:   5    -0.356095751481E+03   -0.29076E-01   -0.29014E-01 10584   0.497E-01-0.882E-03
CGA:   6    -0.356102864312E+03   -0.71128E-02   -0.72039E-02 10584   0.224E-01 0.114E-02
CGA:   7    -0.356106111916E+03   -0.32476E-02   -0.32529E-02 10584   0.107E-01 0.107E-03
CGA:   8    -0.356107802554E+03   -0.16906E-02   -0.17529E-02 10584   0.423E-02 0.115E-02
CGA:   9    -0.356108832222E+03   -0.10297E-02   -0.10343E-02 10584   0.423E-02-0.588E-03
CGA:  10    -0.356109174919E+03   -0.34270E-03   -0.39301E-03 10584   0.133E-02 0.464E-03
CGA:  11    -0.356109384585E+03   -0.20967E-03   -0.22431E-03 10584   0.843E-03 0.261E-03
CGA:  12    -0.356109582496E+03   -0.19791E-03   -0.18524E-03 10584   0.108E-02-0.582E-03
CGA:  13    -0.356109616157E+03   -0.33661E-04   -0.67868E-04 10584   0.194E-03 0.237E-03
CGA:  14    -0.356109636737E+03   -0.20580E-04   -0.26837E-04 10584   0.113E-03 0.744E-04
CGA:  15    -0.356109652923E+03   -0.16186E-04   -0.50143E-04 10584   0.745E-03-0.267E-03
CGA:  16    -0.356109670184E+03   -0.17261E-04   -0.42835E-04 10584   0.115E-03 0.177E-03
CGA:  17    -0.356109674497E+03   -0.43130E-05   -0.11393E-04 10584   0.639E-04 0.629E-04
CGA:  18    -0.356109701495E+03   -0.26998E-04    0.45269E-04 10584   0.114E-03-0.313E-04
CGA:  19    -0.356109702673E+03   -0.11778E-05   -0.37890E-05 10584   0.832E-04 0.212E-04
  44 F= -.35610970E+03 E0= -.35610932E+03  d E =-.195405E+00  mag=    20.0000
       N       E                     dE             d eps       ncg     rms          ort
SDA:   1    -0.355817475120E+03    0.29223E+00    0.00000E+00 10584   0.833E+00 0.000E+00
CGA:   2    -0.356047992333E+03   -0.23052E+00   -0.22938E+00 10584   0.497E+00 0.109E-01
CGA:   3    -0.356104464762E+03   -0.56472E-01   -0.56353E-01 10584   0.186E+00-0.571E-03
CGA:   4    -0.356133449882E+03   -0.28985E-01   -0.29005E-01 10584   0.549E-01 0.318E-03
CGA:   5    -0.356141306585E+03   -0.78567E-02   -0.78954E-02 10584   0.162E-01 0.116E-02
CGA:   6    -0.356143621899E+03   -0.23153E-02   -0.22675E-02 10584   0.783E-02-0.131E-02
CGA:   7    -0.356144385993E+03   -0.76409E-03   -0.82718E-03 10584   0.217E-02 0.111E-02
CGA:   8    -0.356144823996E+03   -0.43800E-03   -0.43373E-03 10584   0.106E-02 0.576E-03
CGA:   9    -0.356145090556E+03   -0.26656E-03   -0.28115E-03 10584   0.171E-02-0.358E-03
CGA:  10    -0.356145150219E+03   -0.59663E-04   -0.83076E-04 10584   0.102E-02 0.239E-03
CGA:  11    -0.356145174861E+03   -0.24643E-04   -0.58496E-04 10584   0.401E-03 0.291E-03
CGA:  12    -0.356145205250E+03   -0.30389E-04   -0.41699E-04 10584   0.354E-03 0.143E-03
CGA:  13    -0.356145282857E+03   -0.77607E-04   -0.81869E-04 10584   0.352E-03-0.295E-03
CGA:  14    -0.356145328790E+03   -0.45933E-04   -0.43427E-04 10584   0.196E-03-0.765E-04
CGA:  15    -0.356145353932E+03   -0.25142E-04   -0.25908E-04 10584   0.660E-04-0.550E-04
CGA:  16    -0.356145351361E+03    0.25708E-05   -0.16697E-05 10584   0.404E-04 0.352E-04
  45 F= -.35614535E+03 E0= -.35614508E+03  d E =-.356487E-01  mag=    20.0000
       N       E                     dE             d eps       ncg     rms          ort
SDA:   1    -0.355976561375E+03    0.16879E+00    0.00000E+00 10584   0.471E+00 0.000E+00
CGA:   2    -0.356100682535E+03   -0.12412E+00   -0.12299E+00 10584   0.245E+00 0.963E-02
CGA:   3    -0.356137750547E+03   -0.37068E-01   -0.37059E-01 10584   0.963E-01-0.431E-02
CGA:   4    -0.356150328684E+03   -0.12578E-01   -0.12651E-01 10584   0.272E-01 0.406E-02
CGA:   5    -0.356154927500E+03   -0.45988E-02   -0.46288E-02 10584   0.994E-02-0.213E-02
CGA:   6    -0.356155946746E+03   -0.10192E-02   -0.10471E-02 10584   0.286E-02 0.766E-03
CGA:   7    -0.356156391450E+03   -0.44470E-03   -0.44564E-03 10584   0.118E-02 0.269E-03
CGA:   8    -0.356156602373E+03   -0.21092E-03   -0.20825E-03 10584   0.577E-03 0.197E-03
CGA:   9    -0.356156685322E+03   -0.82948E-04   -0.86641E-04 10584   0.236E-03 0.183E-03
CGA:  10    -0.356156751188E+03   -0.65866E-04   -0.62552E-04 10584   0.131E-03 0.615E-04
CGA:  11    -0.356156395724E+03    0.35546E-03   -0.19232E-03 10584   0.428E-02-0.620E-03
CGA:  12    -0.356156670601E+03   -0.27488E-03   -0.31174E-03 10584   0.558E-03 0.164E-03
CGA:  13    -0.356156738428E+03   -0.67827E-04   -0.85209E-04 10584   0.187E-03 0.148E-03
CGA:  14    -0.356156779940E+03   -0.41512E-04   -0.92346E-04 10584   0.145E-02-0.386E-03
CGA:  15    -0.356156807640E+03   -0.27700E-04   -0.86882E-04 10584   0.115E-03 0.281E-03
CGA:  16    -0.356156805649E+03    0.19902E-05   -0.92478E-05 10584   0.573E-04 0.598E-04
CGA:  17    -0.356156845205E+03   -0.39556E-04    0.17302E-04 10584   0.553E-04-0.647E-05
CGA:  18    -0.356156842127E+03    0.30786E-05   -0.23248E-05 10584   0.221E-04 0.273E-04
  46 F= -.35615684E+03 E0= -.35615663E+03  d E =-.114908E-01  mag=    20.0000
       N       E                     dE             d eps       ncg     rms          ort
SDA:   1    -0.356121445088E+03    0.35400E-01    0.00000E+00 10584   0.104E+00 0.000E+00
CGA:   2    -0.356148225895E+03   -0.26781E-01   -0.26776E-01 10584   0.629E-01 0.144E-03
CGA:   3    -0.356157066232E+03   -0.88403E-02   -0.88800E-02 10584   0.216E-01 0.443E-03
CGA:   4    -0.356159858263E+03   -0.27920E-02   -0.27855E-02 10584   0.712E-02-0.127E-03
CGA:   5    -0.356160879210E+03   -0.10209E-02   -0.98135E-03 10584   0.258E-02-0.492E-03
CGA:   6    -0.356161111874E+03   -0.23266E-03   -0.26613E-03 10584   0.578E-03 0.320E-03
CGA:   7    -0.356161255616E+03   -0.14374E-03   -0.14712E-03 10584   0.429E-03-0.187E-03
CGA:   8    -0.356161264974E+03   -0.93582E-05   -0.23806E-04 10584   0.213E-03 0.113E-03
CGA:   9    -0.356161274135E+03   -0.91609E-05   -0.20825E-04 10584   0.890E-04 0.929E-04
CGA:  10    -0.356161299354E+03   -0.25219E-04   -0.25297E-04 10584   0.105E-03-0.655E-04
CGA:  11    -0.356161310459E+03   -0.11105E-04   -0.12416E-04 10584   0.205E-04 0.167E-04
CGA:  12    -0.356161322935E+03   -0.12476E-04    0.63727E-05 10584   0.260E-04-0.100E-04
CGA:  13    -0.356161325306E+03   -0.23711E-05   -0.22549E-05 10584   0.222E-04-0.503E-05
  47 F= -.35616133E+03 E0= -.35616112E+03  d E =-.448318E-02  mag=    20.0000
       N       E                     dE             d eps       ncg     rms          ort
SDA:   1    -0.356120032817E+03    0.41290E-01    0.00000E+00 10584   0.113E+00 0.000E+00
CGA:   2    -0.356150642281E+03   -0.30609E-01   -0.30652E-01 10584   0.703E-01-0.521E-03
CGA:   3    -0.356160322120E+03   -0.96798E-02   -0.96539E-02 10584   0.239E-01-0.487E-03
CGA:   4    -0.356163251112E+03   -0.29290E-02   -0.29496E-02 10584   0.730E-02 0.279E-03
CGA:   5    -0.356164355705E+03   -0.11046E-02   -0.10781E-02 10584   0.285E-02-0.671E-03
CGA:   6    -0.356164601673E+03   -0.24597E-03   -0.27406E-03 10584   0.668E-03 0.358E-03
CGA:   7    -0.356164755013E+03   -0.15334E-03   -0.15918E-03 10584   0.439E-03-0.180E-03
CGA:   8    -0.356164811054E+03   -0.56041E-04   -0.55648E-04 10584   0.254E-03-0.532E-04
CGA:   9    -0.356164829527E+03   -0.18473E-04   -0.22265E-04 10584   0.933E-04 0.468E-04
CGA:  10    -0.356164853094E+03   -0.23567E-04   -0.31468E-04 10584   0.176E-03-0.731E-04
CGA:  11    -0.356164866522E+03   -0.13428E-04   -0.14864E-04 10584   0.336E-04 0.145E-04
CGA:  12    -0.356164872751E+03   -0.62293E-05   -0.62188E-05 10584   0.749E-05-0.177E-05
  48 F= -.35616487E+03 E0= -.35616467E+03  d E =-.354745E-02  mag=    20.0000
       N       E                     dE             d eps       ncg     rms          ort
SDA:   1    -0.356141340119E+03    0.23526E-01    0.00000E+00 10584   0.631E-01 0.000E+00
CGA:   2    -0.356158592753E+03   -0.17253E-01   -0.17424E-01 10584   0.449E-01-0.173E-02
CGA:   3    -0.356163823637E+03   -0.52309E-02   -0.53275E-02 10584   0.122E-01 0.149E-02
CGA:   4    -0.356165801399E+03   -0.19778E-02   -0.19542E-02 10584   0.381E-02-0.969E-03
CGA:   5    -0.356166287282E+03   -0.48588E-03   -0.48939E-03 10584   0.110E-02 0.884E-04
CGA:   6    -0.356166425659E+03   -0.13838E-03   -0.14221E-03 10584   0.348E-03 0.759E-04
CGA:   7    -0.356166490186E+03   -0.64527E-04   -0.11516E-03 10584   0.981E-03-0.373E-03
CGA:   8    -0.356166517359E+03   -0.27173E-04   -0.55845E-04 10584   0.135E-03 0.230E-03
CGA:   9    -0.356166524017E+03   -0.66579E-05   -0.12779E-04 10584   0.636E-04 0.629E-04
CGA:  10    -0.356166538745E+03   -0.14728E-04   -0.23290E-04 10584   0.162E-03-0.106E-03
CGA:  11    -0.356166545326E+03   -0.65818E-05   -0.11463E-04 10584   0.373E-04 0.475E-04
  49 F= -.35616655E+03 E0= -.35616635E+03  d E =-.167258E-02  mag=    20.0000
       N       E                     dE             d eps       ncg     rms          ort
SDA:   1    -0.356035635407E+03    0.13090E+00    0.00000E+00 10584   0.325E+00 0.000E+00
CGA:   2    -0.356130528431E+03   -0.94893E-01   -0.94821E-01 10584   0.194E+00 0.538E-03
CGA:   3    -0.356156767857E+03   -0.26239E-01   -0.26201E-01 10584   0.673E-01-0.584E-03
CGA:   4    -0.356164503578E+03   -0.77357E-02   -0.77830E-02 10584   0.193E-01 0.476E-03
CGA:   5    -0.356167308608E+03   -0.28050E-02   -0.27700E-02 10584   0.661E-02-0.122E-02
CGA:   6    -0.356168013138E+03   -0.70453E-03   -0.73972E-03 10584   0.164E-02 0.696E-03
CGA:   7    -0.356168391516E+03   -0.37838E-03   -0.41003E-03 10584   0.128E-02-0.529E-03
CGA:   8    -0.356168450439E+03   -0.58923E-04   -0.78075E-04 10584   0.555E-03 0.241E-03
[...]
CGA:  21    -0.356177402586E+03   -0.50395E-04   -0.51557E-04 10584   0.648E-04 0.228E-04
CGA:  22    -0.356177418964E+03   -0.16377E-04   -0.12674E-04 10584   0.110E-03-0.539E-04
CGA:  23    -0.356177418215E+03    0.74854E-06   -0.53898E-05 10584   0.125E-04 0.312E-04
  95 F= -.35617742E+03 E0= -.35617688E+03  d E =0.201469E-01  mag=    20.0000
       N       E                     dE             d eps       ncg     rms          ort
SDA:   1    -0.355792188160E+03    0.38523E+00    0.00000E+00 10584   0.968E+00 0.000E+00
CGA:   2    -0.356095088491E+03   -0.30290E+00   -0.30313E+00 10584   0.457E+00-0.276E-02
CGA:   3    -0.356157930967E+03   -0.62842E-01   -0.62603E-01 10584   0.190E+00-0.112E-02
CGA:   4    -0.356183210668E+03   -0.25280E-01   -0.25482E-01 10584   0.540E-01 0.101E-02
CGA:   5    -0.356191414701E+03   -0.82040E-02   -0.81378E-02 10584   0.150E-01-0.885E-03
CGA:   6    -0.356193591426E+03   -0.21767E-02   -0.22149E-02 10584   0.515E-02 0.548E-03
CGA:   7    -0.356194705625E+03   -0.11142E-02   -0.11083E-02 10584   0.446E-02-0.119E-02
CGA:   8    -0.356195060696E+03   -0.35507E-03   -0.38550E-03 10584   0.149E-02 0.292E-03
CGA:   9    -0.356195306158E+03   -0.24546E-03   -0.25297E-03 10584   0.974E-03 0.155E-03
CGA:  10    -0.356195509009E+03   -0.20285E-03   -0.18726E-03 10584   0.108E-02-0.509E-03
CGA:  11    -0.356195545897E+03   -0.36888E-04   -0.71504E-04 10584   0.204E-03 0.248E-03
CGA:  12    -0.356195574637E+03   -0.28740E-04   -0.32729E-04 10584   0.113E-03 0.600E-04
CGA:  13    -0.356195226665E+03    0.34797E-03   -0.11150E-03 10584   0.591E-02-0.809E-03
CGA:  14    -0.356195508569E+03   -0.28190E-03   -0.38024E-03 10584   0.546E-03 0.562E-03
CGA:  15    -0.356195604182E+03   -0.95613E-04   -0.99351E-04 10584   0.190E-03 0.785E-04
CGA:  16    -0.356195613371E+03   -0.91896E-05   -0.68684E-04 10584   0.186E-02-0.572E-03
CGA:  17    -0.356195662481E+03   -0.49109E-04   -0.10241E-03 10584   0.106E-03 0.316E-03
CGA:  18    -0.356195659607E+03    0.28736E-05   -0.64740E-05 10584   0.472E-04 0.596E-04
CGA:  19    -0.356195508577E+03    0.15103E-03   -0.81654E-04 10584   0.119E-02-0.197E-03
CGA:  20    -0.356195585790E+03   -0.77213E-04   -0.11363E-03 10584   0.404E-03 0.129E-03
CGA:  21    -0.356195684137E+03   -0.98347E-04   -0.90537E-04 10584   0.277E-04-0.521E-04
CGA:  22    -0.356195682872E+03    0.12649E-05   -0.16602E-05 10584   0.943E-05 0.105E-04
  96 F= -.35619568E+03 E0= -.35619509E+03  d E =-.182647E-01  mag=    20.0000
       N       E                     dE             d eps       ncg     rms          ort
SDA:   1    -0.355815047250E+03    0.38064E+00    0.00000E+00 10584   0.885E+00 0.000E+00
CGA:   2    -0.356130978569E+03   -0.31593E+00   -0.31579E+00 10584   0.356E+00 0.335E-02
CGA:   3    -0.356174089969E+03   -0.43111E-01   -0.40599E-01 10584   0.146E+00 0.481E-02
CGA:   4    -0.356193806709E+03   -0.19717E-01   -0.20329E-01 10584   0.268E-01 0.178E-02
CGA:   5    -0.356197821218E+03   -0.40145E-02   -0.40416E-02 10584   0.115E-01 0.205E-03
CGA:   6    -0.356199496707E+03   -0.16755E-02   -0.16060E-02 10584   0.392E-02-0.446E-03
CGA:   7    -0.356200098625E+03   -0.60192E-03   -0.61501E-03 10584   0.117E-02 0.102E-03
CGA:   8    -0.356200335298E+03   -0.23667E-03   -0.23712E-03 10584   0.755E-03 0.367E-05
CGA:   9    -0.356200483816E+03   -0.14852E-03   -0.13297E-03 10584   0.624E-03-0.154E-03
CGA:  10    -0.356200528209E+03   -0.44393E-04   -0.59742E-04 10584   0.183E-03 0.100E-03
CGA:  11    -0.356200559866E+03   -0.31656E-04   -0.34975E-04 10584   0.169E-03 0.331E-04
CGA:  12    -0.356200592600E+03   -0.32734E-04   -0.28625E-04 10584   0.715E-04-0.358E-04
CGA:  13    -0.356200591403E+03    0.11965E-05   -0.44506E-05 10584   0.370E-04 0.323E-04
  97 F= -.35620059E+03 E0= -.35619995E+03  d E =-.490853E-02  mag=    20.0000
       N       E                     dE             d eps       ncg     rms          ort
SDA:   1    -0.356072625770E+03    0.12797E+00    0.00000E+00 10584   0.355E+00 0.000E+00
CGA:   2    -0.356153371169E+03   -0.80745E-01   -0.80750E-01 10584   0.215E+00 0.444E-03
CGA:   3    -0.356186415234E+03   -0.33044E-01   -0.33006E-01 10584   0.839E-01-0.116E-03
CGA:   4    -0.356196636374E+03   -0.10221E-01   -0.10362E-01 10584   0.239E-01 0.929E-03
CGA:   5    -0.356200011316E+03   -0.33749E-02   -0.33174E-02 10584   0.750E-02-0.576E-03
CGA:   6    -0.356200900548E+03   -0.88923E-03   -0.93581E-03 10584   0.204E-02 0.476E-03
CGA:   7    -0.356201328329E+03   -0.42778E-03   -0.41729E-03 10584   0.127E-02-0.419E-03
CGA:   8    -0.356201414963E+03   -0.86634E-04   -0.10565E-03 10584   0.415E-03 0.169E-03
CGA:   9    -0.356201485917E+03   -0.70955E-04   -0.73177E-04 10584   0.212E-03 0.405E-04
CGA:  10    -0.356201525993E+03   -0.40076E-04   -0.70025E-04 10584   0.101E-02-0.322E-03
CGA:  11    -0.356201548140E+03   -0.22146E-04   -0.56053E-04 10584   0.106E-03 0.211E-03
CGA:  12    -0.356201548731E+03   -0.59191E-06   -0.85236E-05 10584   0.544E-04 0.574E-04
CGA:  13    -0.356201572868E+03   -0.24137E-04    0.43442E-04 10584   0.655E-04-0.101E-04
CGA:  14    -0.356201571246E+03    0.16220E-05   -0.26738E-05 10584   0.296E-04 0.291E-04
  98 F= -.35620157E+03 E0= -.35620093E+03  d E =-.979843E-03  mag=    20.0000
       N       E                     dE             d eps       ncg     rms          ort
SDA:   1    -0.356097430816E+03    0.10414E+00    0.00000E+00 10584   0.244E+00 0.000E+00
CGA:   2    -0.356179703593E+03   -0.82273E-01   -0.82084E-01 10584   0.109E+00 0.118E-02
CGA:   3    -0.356195237775E+03   -0.15534E-01   -0.15408E-01 10584   0.374E-01-0.238E-02
CGA:   4    -0.356199628687E+03   -0.43909E-02   -0.45028E-02 10584   0.844E-02 0.165E-02
CGA:   5    -0.356201127562E+03   -0.14989E-02   -0.14882E-02 10584   0.330E-02-0.711E-03
CGA:   6    -0.356201479719E+03   -0.35216E-03   -0.36857E-03 10584   0.108E-02 0.262E-03
CGA:   7    -0.356201669507E+03   -0.18979E-03   -0.18760E-03 10584   0.512E-03-0.118E-03
CGA:   8    -0.356201747787E+03   -0.78280E-04   -0.77914E-04 10584   0.256E-03-0.445E-04
CGA:   9    -0.356201789268E+03   -0.41481E-04   -0.41434E-04 10584   0.125E-03-0.277E-04
CGA:  10    -0.356201803914E+03   -0.14645E-04   -0.15736E-04 10584   0.480E-04 0.288E-04
CGA:  11    -0.356201630012E+03    0.17390E-03   -0.93860E-04 10584   0.132E-02-0.252E-03
CGA:  12    -0.356201719556E+03   -0.89544E-04   -0.13984E-03 10584   0.366E-03 0.229E-03
CGA:  13    -0.356201820391E+03   -0.10083E-03   -0.78985E-04 10584   0.204E-03-0.171E-03
CGA:  14    -0.356201820065E+03    0.32511E-06   -0.71999E-05 10584   0.933E-04 0.312E-04
  99 F= -.35620182E+03 E0= -.35620118E+03  d E =-.248819E-03  mag=    20.0000
       N       E                     dE             d eps       ncg     rms          ort
SDA:   1    -0.355809447770E+03    0.39237E+00    0.00000E+00 10584   0.915E+00 0.000E+00
CGA:   2    -0.356113859678E+03   -0.30441E+00   -0.30403E+00 10584   0.571E+00 0.646E-02
CGA:   3    -0.356171059597E+03   -0.57200E-01   -0.53034E-01 10584   0.145E+00 0.198E-01
CGA:   4    -0.356195144103E+03   -0.24085E-01   -0.24290E-01 10584   0.325E-01 0.112E-02
CGA:   5    -0.356199743323E+03   -0.45992E-02   -0.46823E-02 10584   0.113E-01 0.650E-03
CGA:   6    -0.356201523063E+03   -0.17797E-02   -0.17154E-02 10584   0.440E-02-0.560E-03
CGA:   7    -0.356202112031E+03   -0.58897E-03   -0.61216E-03 10584   0.119E-02 0.206E-03
CGA:   8    -0.356202351157E+03   -0.23913E-03   -0.24139E-03 10584   0.640E-03 0.373E-04
CGA:   9    -0.356202506991E+03   -0.15583E-03   -0.14902E-03 10584   0.106E-02-0.301E-03
CGA:  10    -0.356202536169E+03   -0.29178E-04   -0.43257E-04 10584   0.576E-03 0.810E-04
CGA:  11    -0.356202543032E+03   -0.68626E-05   -0.32125E-04 10584   0.231E-03 0.132E-03
CGA:  12    -0.356202556563E+03   -0.13531E-04   -0.25647E-04 10584   0.235E-03 0.867E-04
CGA:  13    -0.356202598913E+03   -0.42350E-04   -0.37881E-04 10584   0.692E-04-0.427E-04
CGA:  14    -0.356202022541E+03    0.57637E-03   -0.31347E-03 10584   0.697E-02-0.555E-03
CGA:  15    -0.356202358189E+03   -0.33565E-03   -0.47631E-03 10584   0.680E-03 0.248E-03
CGA:  16    -0.356202517427E+03   -0.15924E-03   -0.16338E-03 10584   0.292E-03 0.276E-04
CGA:  17    -0.356202612423E+03   -0.94996E-04   -0.58868E-04 10584   0.422E-03-0.202E-03
CGA:  18    -0.356202609649E+03    0.27746E-05   -0.25215E-04 10584   0.401E-04 0.901E-04
 100 F= -.35620261E+03 E0= -.35620199E+03  d E =-.789583E-03  mag=    20.0000
       N       E                     dE             d eps       ncg     rms          ort
SDA:   1    -0.352225000286E+03    0.39776E+01    0.00000E+00 10584   0.101E+02 0.000E+00
CGA:   2    -0.354653265953E+03   -0.24283E+01   -0.24851E+01 10584   0.101E+02 0.147E+00
CGA:   3    -0.355783529418E+03   -0.11303E+01   -0.94084E+00 10584   0.131E+01 0.177E+01
CGA:   4    -0.356025086034E+03   -0.24156E+00   -0.23645E+00 10584   0.940E+00 0.329E-02
CGA:   5    -0.356121659639E+03   -0.96574E-01   -0.10106E+00 10584   0.226E+00-0.104E-01
CGA:   6    -0.356151200867E+03   -0.29541E-01   -0.29926E-01 10584   0.113E+00 0.930E-03
CGA:   7    -0.356163695584E+03   -0.12495E-01   -0.12077E-01 10584   0.291E-01-0.812E-03
CGA:   8    -0.356168933709E+03   -0.52381E-02   -0.52816E-02 10584   0.165E-01 0.405E-03
CGA:   9    -0.356170649558E+03   -0.17158E-02   -0.17969E-02 10584   0.703E-02 0.395E-03
CGA:  10    -0.356172147730E+03   -0.14982E-02   -0.15133E-02 10584   0.411E-02 0.244E-03
CGA:  11    -0.356172849293E+03   -0.70156E-03   -0.66319E-03 10584   0.289E-02-0.351E-03
CGA:  12    -0.356173209565E+03   -0.36027E-03   -0.38475E-03 10584   0.979E-03 0.205E-03
CGA:  13    -0.356173310226E+03   -0.10066E-03   -0.13318E-03 10584   0.597E-03 0.252E-03
CGA:  14    -0.356173456392E+03   -0.14617E-03   -0.14151E-03 10584   0.277E-03-0.802E-04
CGA:  15    -0.356173493083E+03   -0.36691E-04   -0.40153E-04 10584   0.158E-03 0.432E-04
CGA:  16    -0.356173501704E+03   -0.86210E-05   -0.18843E-04 10584   0.676E-04 0.733E-04
CGA:  17    -0.356173521195E+03   -0.19491E-04   -0.20052E-04 10584   0.651E-04 0.171E-04
CGA:  18    -0.356173537058E+03   -0.15863E-04   -0.15156E-04 10584   0.723E-04-0.160E-04
CGA:  19    -0.356173537907E+03   -0.84876E-06   -0.44603E-05 10584   0.565E-04 0.236E-04
 101 F= -.35617354E+03 E0= -.35617282E+03  d E =0.290717E-01  mag=    20.0000
       N       E                     dE             d eps       ncg     rms          ort
SDA:   1    -0.354418858080E+03    0.17547E+01    0.00000E+00 10584   0.417E+01 0.000E+00
CGA:   2    -0.355812196767E+03   -0.13933E+01   -0.13901E+01 10584   0.221E+01 0.251E-01
CGA:   3    -0.356052053389E+03   -0.23986E+00   -0.22705E+00 10584   0.725E+00 0.519E-01
CGA:   4    -0.356162083044E+03   -0.11003E+00   -0.11110E+00 10584   0.156E+00 0.720E-02
CGA:   5    -0.356186255057E+03   -0.24172E-01   -0.24177E-01 10584   0.573E-01 0.465E-03
CGA:   6    -0.356194156289E+03   -0.79012E-02   -0.78519E-02 10584   0.214E-01-0.828E-03
CGA:   7    -0.356197547528E+03   -0.33912E-02   -0.33950E-02 10584   0.727E-02 0.858E-04
CGA:   8    -0.356198857169E+03   -0.13096E-02   -0.13162E-02 10584   0.380E-02 0.266E-03
CGA:   9    -0.356199588157E+03   -0.73099E-03   -0.72091E-03 10584   0.313E-02-0.519E-03
CGA:  10    -0.356199917956E+03   -0.32980E-03   -0.35909E-03 10584   0.915E-03 0.419E-03
CGA:  11    -0.356200131029E+03   -0.21307E-03   -0.21195E-03 10584   0.579E-03 0.170E-03
CGA:  12    -0.356200243597E+03   -0.11257E-03   -0.10659E-03 10584   0.509E-03-0.140E-03
CGA:  13    -0.356200274086E+03   -0.30489E-04   -0.39957E-04 10584   0.207E-03 0.101E-03
CGA:  14    -0.356200280078E+03   -0.59922E-05   -0.16371E-04 10584   0.100E-03 0.822E-04
CGA:  15    -0.356200294158E+03   -0.14080E-04   -0.16875E-04 10584   0.859E-04 0.430E-04
CGA:  16    -0.356200316490E+03   -0.22331E-04   -0.22353E-04 10584   0.130E-03-0.835E-04
CGA:  17    -0.356200319385E+03   -0.28957E-05   -0.82036E-05 10584   0.343E-04 0.445E-04
 102 F= -.35620032E+03 E0= -.35619971E+03  d E =-.267815E-01  mag=    20.0000
       N       E                     dE             d eps       ncg     rms          ort
SDA:   1    -0.354814129222E+03    0.13862E+01    0.00000E+00 10584   0.321E+01 0.000E+00
CGA:   2    -0.355913431669E+03   -0.10993E+01   -0.10960E+01 10584   0.161E+01 0.196E-01
CGA:   3    -0.356091126609E+03   -0.17769E+00   -0.17109E+00 10584   0.563E+00-0.312E-02
CGA:   4    -0.356171780009E+03   -0.80653E-01   -0.81089E-01 10584   0.120E+00 0.918E-02
CGA:   5    -0.356188859122E+03   -0.17079E-01   -0.17119E-01 10584   0.457E-01 0.125E-02
CGA:   6    -0.356195401744E+03   -0.65426E-02   -0.64978E-02 10584   0.165E-01-0.141E-02
CGA:   7    -0.356198032021E+03   -0.26303E-02   -0.26325E-02 10584   0.533E-02 0.275E-03
CGA:   8    -0.356199048793E+03   -0.10168E-02   -0.10179E-02 10584   0.345E-02-0.791E-04
CGA:   9    -0.356199608933E+03   -0.56014E-03   -0.55549E-03 10584   0.235E-02-0.519E-03
CGA:  10    -0.356199862645E+03   -0.25371E-03   -0.26885E-03 10584   0.699E-03 0.400E-03
CGA:  11    -0.356200069296E+03   -0.20665E-03   -0.20845E-03 10584   0.568E-03-0.222E-04
CGA:  12    -0.356200116292E+03   -0.46996E-04   -0.51392E-04 10584   0.214E-03 0.535E-04
CGA:  13    -0.356200138331E+03   -0.22040E-04   -0.27436E-04 10584   0.118E-03 0.102E-03
CGA:  14    -0.356200160781E+03   -0.22450E-04   -0.22534E-04 10584   0.712E-04 0.194E-05
CGA:  15    -0.356200165206E+03   -0.44245E-05   -0.27980E-04 10584   0.268E-03-0.107E-03
CGA:  16    -0.356200167247E+03   -0.20411E-05   -0.14777E-04 10584   0.709E-04 0.104E-03
 103 F= -.35620017E+03 E0= -.35619949E+03  d E =0.152139E-03  mag=    20.0000
       N       E                     dE             d eps       ncg     rms          ort
SDA:   1    -0.355356105137E+03    0.84406E+00    0.00000E+00 10584   0.204E+01 0.000E+00
CGA:   2    -0.355955438081E+03   -0.59933E+00   -0.59338E+00 10584   0.148E+01 0.446E-01
CGA:   3    -0.356118554618E+03   -0.16312E+00   -0.15821E+00 10584   0.396E+00-0.106E-01
CGA:   4    -0.356175523910E+03   -0.56969E-01   -0.57194E-01 10584   0.992E-01 0.681E-02
CGA:   5    -0.356188925440E+03   -0.13402E-01   -0.13404E-01 10584   0.396E-01 0.251E-03
CGA:   6    -0.356194272367E+03   -0.53469E-02   -0.53307E-02 10584   0.998E-02-0.542E-03
CGA:   7    -0.356196114232E+03   -0.18419E-02   -0.18360E-02 10584   0.385E-02 0.255E-03
CGA:   8    -0.356196677295E+03   -0.56306E-03   -0.56935E-03 10584   0.192E-02 0.293E-03
CGA:   9    -0.356197072714E+03   -0.39542E-03   -0.40804E-03 10584   0.158E-02-0.384E-03
CGA:  10    -0.356197182980E+03   -0.11027E-03   -0.13210E-03 10584   0.536E-03 0.352E-03
CGA:  11    -0.356197269539E+03   -0.86558E-04   -0.90218E-04 10584   0.410E-03 0.146E-03
CGA:  12    -0.356197363208E+03   -0.93669E-04   -0.10505E-03 10584   0.557E-03-0.286E-03
CGA:  13    -0.356197378109E+03   -0.14901E-04   -0.33417E-04 10584   0.123E-03 0.177E-03
CGA:  14    -0.356197386296E+03   -0.81874E-05   -0.13223E-04 10584   0.669E-04 0.655E-04
CGA:  15    -0.356197413565E+03   -0.27269E-04    0.16100E-04 10584   0.869E-04-0.150E-04
CGA:  16    -0.356197418027E+03   -0.44615E-05   -0.64492E-05 10584   0.455E-04 0.338E-04
 104 F= -.35619742E+03 E0= -.35619672E+03  d E =0.274922E-02  mag=    20.0000
       N       E                     dE             d eps       ncg     rms          ort
SDA:   1    -0.355819555315E+03    0.37786E+00    0.00000E+00 10584   0.925E+00 0.000E+00
CGA:   2    -0.356100270756E+03   -0.28072E+00   -0.27920E+00 10584   0.482E+00 0.968E-02
CGA:   3    -0.356170070270E+03   -0.69800E-01   -0.69746E-01 10584   0.162E+00-0.521E-02
CGA:   4    -0.356190868194E+03   -0.20798E-01   -0.20935E-01 10584   0.433E-01 0.532E-02
CGA:   5    -0.356197780663E+03   -0.69125E-02   -0.69204E-02 10584   0.151E-01-0.268E-02
CGA:   6    -0.356199511740E+03   -0.17311E-02   -0.17618E-02 10584   0.452E-02 0.109E-02
CGA:   7    -0.356200299182E+03   -0.78744E-03   -0.78577E-03 10584   0.193E-02 0.139E-03
CGA:   8    -0.356200627789E+03   -0.32861E-03   -0.32709E-03 10584   0.874E-03 0.116E-03
CGA:   9    -0.356200756981E+03   -0.12919E-03   -0.13093E-03 10584   0.352E-03 0.169E-03
CGA:  10    -0.356200843671E+03   -0.86691E-04   -0.83596E-04 10584   0.177E-03 0.644E-04
CGA:  11    -0.356200871875E+03   -0.28204E-04   -0.85688E-04 10584   0.803E-03-0.226E-03
CGA:  12    -0.356200903225E+03   -0.31350E-04   -0.48099E-04 10584   0.881E-04 0.155E-03
CGA:  13    -0.356200907258E+03   -0.40335E-05   -0.81104E-05 10584   0.493E-04 0.485E-04
CGA:  14    -0.356200923069E+03   -0.15811E-04    0.17124E-03 10584   0.390E-04-0.415E-06
CGA:  15    -0.356200924528E+03   -0.14593E-05   -0.29383E-05 10584   0.105E-04 0.183E-04
 105 F= -.35620092E+03 E0= -.35620034E+03  d E =-.350650E-02  mag=    20.0000
       N       E                     dE             d eps       ncg     rms          ort
SDA:   1    -0.356098877141E+03    0.10205E+00    0.00000E+00 10584   0.254E+00 0.000E+00
CGA:   2    -0.356172841696E+03   -0.73965E-01   -0.74894E-01 10584   0.152E+00-0.630E-02
CGA:   3    -0.356192134436E+03   -0.19293E-01   -0.19387E-01 10584   0.496E-01 0.378E-02
CGA:   4    -0.356199107188E+03   -0.69728E-02   -0.69283E-02 10584   0.171E-01-0.258E-02
CGA:   5    -0.356201106651E+03   -0.19995E-02   -0.20283E-02 10584   0.459E-02 0.103E-02
CGA:   6    -0.356201865498E+03   -0.75885E-03   -0.75962E-03 10584   0.165E-02-0.142E-03
CGA:   7    -0.356202172043E+03   -0.30655E-03   -0.33919E-03 10584   0.153E-02-0.541E-03
CGA:   8    -0.356202293028E+03   -0.12098E-03   -0.11948E-03 10584   0.499E-03-0.414E-04
CGA:   9    -0.356202347062E+03   -0.54034E-04   -0.57871E-04 10584   0.284E-03 0.117E-03
CGA:  10    -0.356202406337E+03   -0.59275E-04   -0.62192E-04 10584   0.222E-03-0.108E-03
CGA:  11    -0.356202426850E+03   -0.20513E-04   -0.28999E-04 10584   0.230E-03-0.145E-03
CGA:  12    -0.356202429293E+03   -0.24433E-05   -0.13665E-04 10584   0.845E-04 0.117E-03
CGA:  13    -0.356202448563E+03   -0.19270E-04   -0.18122E-04 10584   0.100E-04 0.178E-04
CGA:  14    -0.356202456454E+03   -0.78916E-05    0.82276E-06 10584   0.402E-05 0.471E-05
 106 F= -.35620246E+03 E0= -.35620177E+03  d E =-.153193E-02  mag=    20.0000
       N       E                     dE             d eps       ncg     rms          ort
SDA:   1    -0.356173379328E+03    0.29069E-01    0.00000E+00 10584   0.733E-01 0.000E+00
CGA:   2    -0.356194592820E+03   -0.21213E-01   -0.21315E-01 10584   0.427E-01-0.711E-03
CGA:   3    -0.356200657776E+03   -0.60650E-02   -0.60726E-02 10584   0.120E-01 0.716E-03
CGA:   4    -0.356202445632E+03   -0.17879E-02   -0.17825E-02 10584   0.379E-02-0.740E-03
CGA:   5    -0.356202903227E+03   -0.45759E-03   -0.46295E-03 10584   0.100E-02 0.229E-03
CGA:   6    -0.356203040676E+03   -0.13745E-03   -0.14017E-03 10584   0.317E-03 0.132E-03
CGA:   7    -0.356203049135E+03   -0.84584E-05   -0.14960E-03 10584   0.170E-02-0.533E-03
CGA:   8    -0.356203106315E+03   -0.57181E-04   -0.10029E-03 10584   0.233E-03 0.402E-03
CGA:   9    -0.356203121945E+03   -0.15630E-04   -0.23421E-04 10584   0.101E-03 0.998E-04
CGA:  10    -0.356203103242E+03    0.18703E-04   -0.54635E-04 10584   0.775E-03-0.329E-03
CGA:  11    -0.356203130687E+03   -0.27445E-04   -0.49877E-04 10584   0.151E-03 0.217E-03
CGA:  12    -0.356203145653E+03   -0.14966E-04   -0.18580E-04 10584   0.518E-04 0.556E-04
CGA:  13    -0.356202630250E+03    0.51540E-03   -0.28022E-03 10584   0.636E-02-0.684E-03
CGA:  14    -0.356202962945E+03   -0.33270E-03   -0.43657E-03 10584   0.782E-03 0.354E-03
CGA:  15    -0.356203128075E+03   -0.16513E-03   -0.16437E-03 10584   0.960E-04-0.974E-05
CGA:  16    -0.356203185501E+03   -0.57427E-04    0.12111E-03 10584   0.362E-03-0.120E-03
CGA:  17    -0.356203174410E+03    0.11091E-04   -0.15815E-04 10584   0.398E-04 0.115E-03
CGA:  18    -0.356203168754E+03    0.56562E-05   -0.12442E-05 10584   0.132E-04 0.289E-04
 107 F= -.35620317E+03 E0= -.35620250E+03  d E =-.712300E-03  mag=    20.0000
