       N       E                     dE             d eps       ncg     rms          ort
DAV:   1     0.275605355313E+04    0.27561E+04   -0.14965E+05  6480   0.157E+03
DAV:   2     0.251644195473E+02   -0.27309E+04   -0.25428E+04  6480   0.422E+02
DAV:   3    -0.272833780199E+03   -0.29800E+03   -0.29182E+03  6480   0.145E+02
DAV:   4    -0.283346239002E+03   -0.10512E+02   -0.10440E+02  6480   0.266E+01
DAV:   5    -0.284175441779E+03   -0.82920E+00   -0.82847E+00  6480   0.500E+00
SDA:   6    -0.284198179388E+03   -0.22738E-01   -0.82847E+00  6480   0.167E+00 0.000E+00
CGA:   7    -0.284203430593E+03   -0.52512E-02   -0.61973E-02  6480   0.233E-01-0.236E-01
CGA:   8    -0.284206058893E+03   -0.26283E-02   -0.26151E-02  6480   0.218E-01-0.104E-04
CGA:   9    -0.284207756372E+03   -0.16975E-02   -0.17358E-02  6480   0.103E-01-0.320E-03
CGA:  10    -0.284208699083E+03   -0.94271E-03   -0.93603E-03  6480   0.648E-02 0.195E-04
CGA:  11    -0.284209331062E+03   -0.63198E-03   -0.63419E-03  6480   0.404E-02-0.248E-04
CGA:  12    -0.284209723693E+03   -0.39263E-03   -0.39058E-03  6480   0.347E-02-0.444E-05
CGA:  13    -0.284210123466E+03   -0.39977E-03   -0.40074E-03  6480   0.220E-02-0.114E-04
CGA:  14    -0.284210307392E+03   -0.18393E-03   -0.18270E-03  6480   0.153E-02-0.331E-05
CGA:  15    -0.284210495056E+03   -0.18766E-03   -0.18744E-03  6480   0.113E-02-0.896E-05
CGA:  16    -0.284210582234E+03   -0.87178E-04   -0.86521E-04  6480   0.512E-03-0.399E-05
CGA:  17    -0.284210635849E+03   -0.53614E-04   -0.53467E-04  6480   0.467E-03-0.405E-05
CGA:  18    -0.284210685080E+03   -0.49231E-04   -0.48980E-04  6480   0.245E-03-0.396E-05
CGA:  19    -0.284210703454E+03   -0.18374E-04   -0.18269E-04  6480   0.145E-03-0.159E-05
CGA:  20    -0.284210723877E+03   -0.20423E-04   -0.20411E-04  6480   0.144E-03-0.192E-05
CGA:  21    -0.284210734366E+03   -0.10489E-04   -0.10408E-04  6480   0.570E-04-0.112E-05
CGA:  22    -0.284210740701E+03   -0.63350E-05   -0.62973E-05  6480   0.599E-04-0.104E-05
   1 F= -.28421074E+03 E0= -.28420701E+03  d E =-.284211E+03  mag=    18.0000
