       N       E                     dE             d eps       ncg     rms          ort
DAV:   1     0.270222015617E+04    0.27022E+04   -0.15055E+05  8976   0.164E+03
DAV:   2    -0.164535048960E+03   -0.28668E+04   -0.26697E+04  8976   0.445E+02
DAV:   3    -0.494025174770E+03   -0.32949E+03   -0.32196E+03  8976   0.158E+02
DAV:   4    -0.506583843708E+03   -0.12559E+02   -0.12469E+02  8976   0.301E+01
DAV:   5    -0.507656296908E+03   -0.10725E+01   -0.10710E+01  8976   0.567E+00
SDA:   6    -0.422485679915E+03    0.85171E+02   -0.10710E+01  8976   0.167E+02 0.000E+00
CGA:   7    -0.425271061952E+03   -0.27854E+01   -0.28009E+01  8976   0.239E+01 0.202E+00
CGA:   8    -0.425705543068E+03   -0.43448E+00   -0.43511E+00  8976   0.840E+00 0.365E-01
CGA:   9    -0.425900316294E+03   -0.19477E+00   -0.19404E+00  8976   0.290E+00 0.230E-01
CGA:  10    -0.425971663280E+03   -0.71347E-01   -0.71394E-01  8976   0.152E+00-0.176E-02
CGA:  11    -0.426011463842E+03   -0.39801E-01   -0.40261E-01  8976   0.719E-01-0.733E-02
CGA:  12    -0.426030050669E+03   -0.18587E-01   -0.18409E-01  8976   0.283E-01 0.263E-02
CGA:  13    -0.426036511701E+03   -0.64610E-02   -0.63984E-02  8976   0.889E-02 0.576E-02
CGA:  14    -0.426039212432E+03   -0.27007E-02   -0.26048E-02  8976   0.390E-02 0.270E-02
CGA:  15    -0.426040623211E+03   -0.14108E-02   -0.13414E-02  8976   0.201E-02 0.128E-02
CGA:  16    -0.426041261087E+03   -0.63788E-03   -0.61730E-03  8976   0.983E-03 0.111E-02
CGA:  17    -0.426041676076E+03   -0.41499E-03   -0.45357E-03  8976   0.859E-03-0.155E-03
CGA:  18    -0.426042001820E+03   -0.32574E-03   -0.40401E-03  8976   0.793E-03-0.236E-03
CGA:  19    -0.426042044764E+03   -0.42944E-04   -0.78149E-04  8976   0.404E-03 0.330E-03
CGA:  20    -0.426042052148E+03   -0.73844E-05   -0.53370E-04  8976   0.170E-03 0.320E-03
CGA:  21    -0.426042050426E+03    0.17215E-05   -0.16382E-04  8976   0.108E-03 0.135E-03
   1 F= -.42604205E+03 E0= -.42604205E+03  d E =-.426042E+03  mag=    18.0000
