 vasp.6.1.2 22Jul20 (build Apr 14 2021 21:39:43) complex                        
  
 executed on             LinuxIFC date 2022.03.24  08:48:41
 running on  128 total cores
 distrk:  each k-point on  128 cores,    1 groups
 distr:  one band on NCORE=  16 cores,    8 groups


--------------------------------------------------------------------------------------------------------


 INCAR:
 POTCAR:    PAW_PBE Ca_sv 06Sep2000               
 POTCAR:    PAW_PBE Mn_pv 02Aug2007               
 POTCAR:    PAW_PBE P 06Sep2000                   
 POTCAR:    PAW_PBE O 08Apr2002                   
 POTCAR:    PAW_PBE Ca_sv 06Sep2000               
   SHA256 =  a47365830e737f14e0e6c5cf1ed81b94e081eecf0a33df105380881bc9da05d5 Ca_sv/POTCAR          
   COPYR  = (c) Copyright 06Sep2000 Georg Kresse                                                    
   COPYR  = This file is part of the software VASP. Any use, copying, and all other rights are regul
   COPYR  = If you do not have a valid VASP license, you may not use, copy or distribute this file. 
   VRHFIN =Ca: 3s3p4s                                                                               
   LEXCH  = PE                                                                                      
   EATOM  =  1006.0909 eV,   73.9456 Ry                                                             
                                                                                                    
   TITEL  = PAW_PBE Ca_sv 06Sep2000                                                                 
   LULTRA =        F    use ultrasoft PP ?                                                          
   IUNSCR =        1    unscreen: 0-lin 1-nonlin 2-no                                               
   RPACOR =    2.000    partial core radius                                                         
   POMASS =   40.078; ZVAL   =   10.000    mass and valenz                                          
   RCORE  =    2.300    outmost cutoff radius                                                       
   RWIGS  =    2.500; RWIGS  =    1.323    wigner-seitz radius (au A)                               
   ENMAX  =  266.622; ENMIN  =  199.967 eV                                                          
   RCLOC  =    1.808    cutoff for local pot                                                        
   LCOR   =        T    correct aug charges                                                         
   LPAW   =        T    paw PP                                                                      
   EAUG   =  420.852                                                                                
   RMAX   =    2.359    core radius for proj-oper                                                   
   RAUG   =    1.300    factor for augmentation sphere                                              
   RDEP   =    2.392    radius for radial grids                                                     
   RDEPT  =    1.987    core radius for aug-charge                                                  
                                                                                                    
   Atomic configuration                                                                             
    7 entries                                                                                       
     n  l   j            E        occ.                                                              
     1  0  0.50     -3949.1705   2.0000                                                             
     2  0  0.50      -414.3434   2.0000                                                             
     2  1  1.50      -334.7047   6.0000                                                             
     3  0  0.50       -47.0896   2.0000                                                             
     4  0  0.50        -3.7663   2.0000                                                             
     3  1  1.50       -28.0061   6.0000                                                             
     3  2  1.50        -4.0817   0.0000                                                             
   Description                                                                                      
     l       E           TYP  RCUT    TYP  RCUT                                                     
     0    -47.0896403     23  2.300                                                                 
     0     -3.7663320     23  2.300                                                                 
     1    -28.0060855     23  2.300                                                                 
     1      6.8029130     23  2.300                                                                 
     2     -4.0817478     23  2.300                                                                 
     2      0.4464412     23  2.300                                                                 
  local pseudopotential read in
  partial core-charges read in
  partial kinetic energy density read in
  atomic valenz-charges read in
  non local Contribution for L=           0  read in
    real space projection operators read in
  non local Contribution for L=           0  read in
    real space projection operators read in
  non local Contribution for L=           1  read in
    real space projection operators read in
  non local Contribution for L=           1  read in
    real space projection operators read in
  non local Contribution for L=           2  read in
    real space projection operators read in
  non local Contribution for L=           2  read in
    real space projection operators read in
    PAW grid and wavefunctions read in
 
   number of l-projection  operators is LMAX  =           6
   number of lm-projection operators is LMMAX =          18
 
 POTCAR:    PAW_PBE Mn_pv 02Aug2007               
   SHA256 =  c79df11ab18a0e3347296df6ded47bb5f18b2e4fbd621d0b5280d2eae24c30a0 Mn_pv/POTCAR          
   COPYR  = (c) Copyright 02Aug2007 Georg Kresse                                                    
   COPYR  = This file is part of the software VASP. Any use, copying, and all other rights are regul
   COPYR  = If you do not have a valid VASP license, you may not use, copy or distribute this file. 
   VRHFIN =Mn: 3p4s3d                                                                               
   LEXCH  = PE                                                                                      
   EATOM  =  2025.2664 eV,  148.8529 Ry                                                             
                                                                                                    
   TITEL  = PAW_PBE Mn_pv 02Aug2007                                                                 
   LULTRA =        F    use ultrasoft PP ?                                                          
   IUNSCR =        1    unscreen: 0-lin 1-nonlin 2-no                                               
   RPACOR =    2.080    partial core radius                                                         
   POMASS =   54.938; ZVAL   =   13.000    mass and valenz                                          
   RCORE  =    2.300    outmost cutoff radius                                                       
   RWIGS  =    2.500; RWIGS  =    1.323    wigner-seitz radius (au A)                               
   ENMAX  =  269.864; ENMIN  =  202.398 eV                                                          
   ICORE  =        3    local potential                                                             
   LCOR   =        T    correct aug charges                                                         
   LPAW   =        T    paw PP                                                                      
   EAUG   =  569.085                                                                                
   DEXC   =    0.000                                                                                
   RMAX   =    2.343    core radius for proj-oper                                                   
   RAUG   =    1.300    factor for augmentation sphere                                              
   RDEP   =    2.338    radius for radial grids                                                     
   RDEPT  =    1.798    core radius for aug-charge                                                  
                                                                                                    
   Atomic configuration                                                                             
    8 entries                                                                                       
     n  l   j            E        occ.                                                              
     1  0  0.50     -6424.8287   2.0000                                                             
     2  0  0.50      -739.1154   2.0000                                                             
     2  1  1.50      -625.3949   6.0000                                                             
     3  0  0.50       -81.6100   2.0000                                                             
     3  1  1.50       -50.4667   6.0000                                                             
     3  2  2.50        -3.3745   6.0000                                                             
     4  0  0.50        -4.1331   1.0000                                                             
     4  3  2.50        -1.3606   0.0000                                                             
   Description                                                                                      
     l       E           TYP  RCUT    TYP  RCUT                                                     
     1    -50.4666628     23  2.000                                                                 
     1     -1.3605826     23  2.000                                                                 
     2     -3.3744729     23  2.300                                                                 
     2     -4.7350555     23  2.300                                                                 
     0     -4.1331431     23  2.300                                                                 
     0      7.6656591     23  2.300                                                                 
     3      9.5240782     23  2.300                                                                 
  local pseudopotential read in
  partial core-charges read in
  partial kinetic energy density read in
  atomic valenz-charges read in
  non local Contribution for L=           1  read in
    real space projection operators read in
  non local Contribution for L=           1  read in
    real space projection operators read in
  non local Contribution for L=           2  read in
    real space projection operators read in
  non local Contribution for L=           2  read in
    real space projection operators read in
  non local Contribution for L=           0  read in
    real space projection operators read in
  non local Contribution for L=           0  read in
    real space projection operators read in
    PAW grid and wavefunctions read in
 
   number of l-projection  operators is LMAX  =           6
   number of lm-projection operators is LMMAX =          18
 
 POTCAR:    PAW_PBE P 06Sep2000                   
   SHA256 =  df60c54a93efe35c9e85ae94c010c75e9f6960a95d5595d7cdba4096d109af88 P/POTCAR              
   COPYR  = (c) Copyright 06Sep2000 Georg Kresse                                                    
   COPYR  = This file is part of the software VASP. Any use, copying, and all other rights are regul
   COPYR  = If you do not have a valid VASP license, you may not use, copy or distribute this file. 
   VRHFIN =P : s2p3                                                                                 
   LEXCH  = PE                                                                                      
   EATOM  =   176.0430 eV,   12.9388 Ry                                                             
                                                                                                    
   TITEL  = PAW_PBE P 06Sep2000                                                                     
   LULTRA =        F    use ultrasoft PP ?                                                          
   IUNSCR =        1    unscreen: 0-lin 1-nonlin 2-no                                               
   RPACOR =    1.500    partial core radius                                                         
   POMASS =   30.974; ZVAL   =    5.000    mass and valenz                                          
   RCORE  =    1.900    outmost cutoff radius                                                       
   RWIGS  =    2.330; RWIGS  =    1.233    wigner-seitz radius (au A)                               
   ENMAX  =  255.040; ENMIN  =  191.280 eV                                                          
   ICORE  =        2    local potential                                                             
   LCOR   =        T    correct aug charges                                                         
   LPAW   =        T    paw PP                                                                      
   EAUG   =  342.924                                                                                
   DEXC   =    0.000                                                                                
   RMAX   =    1.935    core radius for proj-oper                                                   
   RAUG   =    1.300    factor for augmentation sphere                                              
   RDEP   =    1.931    radius for radial grids                                                     
   RDEPT  =    1.794    core radius for aug-charge                                                  
                                                                                                    
   Atomic configuration                                                                             
    6 entries                                                                                       
     n  l   j            E        occ.                                                              
     1  0  0.50     -2084.0982   2.0000                                                             
     2  0  0.50      -173.9859   2.0000                                                             
     2  1  1.50      -124.4865   6.0000                                                             
     3  0  0.50       -13.9692   2.0000                                                             
     3  1  0.50        -5.5067   3.0000                                                             
     3  2  1.50        -5.4423   0.0000                                                             
   Description                                                                                      
     l       E           TYP  RCUT    TYP  RCUT                                                     
     0    -13.9691527     23  1.900                                                                 
     0    -11.7794650     23  1.900                                                                 
     1     -5.5066937     23  1.900                                                                 
     1     -0.2556953     23  1.900                                                                 
     2     -5.4423304     23  1.900                                                                 
  local pseudopotential read in
  partial core-charges read in
  partial kinetic energy density read in
  atomic valenz-charges read in
  non local Contribution for L=           0  read in
    real space projection operators read in
  non local Contribution for L=           0  read in
    real space projection operators read in
  non local Contribution for L=           1  read in
    real space projection operators read in
  non local Contribution for L=           1  read in
    real space projection operators read in
    PAW grid and wavefunctions read in
 
   number of l-projection  operators is LMAX  =           4
   number of lm-projection operators is LMMAX =           8
 
 POTCAR:    PAW_PBE O 08Apr2002                   
   SHA256 =  818f92134a0a090dccd8ba1447fa70422a3b330e708bb4f08108d8ae51209ddf O/POTCAR              
   COPYR  = (c) Copyright 08Apr2002 Georg Kresse                                                    
   COPYR  = This file is part of the software VASP. Any use, copying, and all other rights are regul
   COPYR  = If you do not have a valid VASP license, you may not use, copy or distribute this file. 
   VRHFIN =O: s2p4                                                                                  
   LEXCH  = PE                                                                                      
   EATOM  =   432.3788 eV,   31.7789 Ry                                                             
                                                                                                    
   TITEL  = PAW_PBE O 08Apr2002                                                                     
   LULTRA =        F    use ultrasoft PP ?                                                          
   IUNSCR =        1    unscreen: 0-lin 1-nonlin 2-no                                               
   RPACOR =    1.200    partial core radius                                                         
   POMASS =   16.000; ZVAL   =    6.000    mass and valenz                                          
   RCORE  =    1.520    outmost cutoff radius                                                       
   RWIGS  =    1.550; RWIGS  =    0.820    wigner-seitz radius (au A)                               
   ENMAX  =  400.000; ENMIN  =  300.000 eV                                                          
   ICORE  =        2    local potential                                                             
   LCOR   =        T    correct aug charges                                                         
   LPAW   =        T    paw PP                                                                      
   EAUG   =  605.392                                                                                
   DEXC   =    0.000                                                                                
   RMAX   =    1.553    core radius for proj-oper                                                   
   RAUG   =    1.300    factor for augmentation sphere                                              
   RDEP   =    1.550    radius for radial grids                                                     
   RDEPT  =    1.329    core radius for aug-charge                                                  
                                                                                                    
   Atomic configuration                                                                             
    4 entries                                                                                       
     n  l   j            E        occ.                                                              
     1  0  0.50      -514.6923   2.0000                                                             
     2  0  0.50       -23.9615   2.0000                                                             
     2  1  0.50        -9.0305   4.0000                                                             
     3  2  1.50        -9.5241   0.0000                                                             
   Description                                                                                      
     l       E           TYP  RCUT    TYP  RCUT                                                     
     0    -23.9615318     23  1.200                                                                 
     0     -9.5240782     23  1.200                                                                 
     1     -9.0304911     23  1.520                                                                 
     1      8.1634956     23  1.520                                                                 
     2     -9.5240782      7  1.500                                                                 
  local pseudopotential read in
  partial core-charges read in
  partial kinetic energy density read in
  kinetic energy density of atom read in
  atomic valenz-charges read in
  non local Contribution for L=           0  read in
    real space projection operators read in
  non local Contribution for L=           0  read in
    real space projection operators read in
  non local Contribution for L=           1  read in
    real space projection operators read in
  non local Contribution for L=           1  read in
    real space projection operators read in
    PAW grid and wavefunctions read in
 
   number of l-projection  operators is LMAX  =           4
   number of lm-projection operators is LMMAX =           8
 
 Optimization of the real space projectors (new method)

 maximal supplied QI-value         = 16.25
 optimisation between [QCUT,QGAM] = [ 11.54, 23.24] = [ 37.28,151.24] Ry 
 Optimized for a Real-space Cutoff    1.58 Angstroem

   l    n(q)    QCUT    max X(q) W(low)/X(q) W(high)/X(q)  e(spline) 
   0     11    11.539    11.817    0.25E-04    0.22E-05    0.26E-07
   0     11    11.539     8.461    0.39E-04    0.49E-05    0.55E-07
   1     11    11.539     3.957    0.21E-05    0.44E-05    0.32E-07
   1     11    11.539     4.314    0.56E-04    0.44E-04    0.19E-06
   2     10    11.539    14.565    0.25E-03    0.21E-04    0.75E-06
   2     10    11.539    14.552    0.23E-03    0.22E-04    0.72E-06
 Optimization of the real space projectors (new method)

 maximal supplied QI-value         = 16.25
 optimisation between [QCUT,QGAM] = [ 11.54, 23.24] = [ 37.28,151.24] Ry 
 Optimized for a Real-space Cutoff    1.45 Angstroem

   l    n(q)    QCUT    max X(q) W(low)/X(q) W(high)/X(q)  e(spline) 
   1     10    11.539     3.658    0.56E-04    0.12E-03    0.13E-06
   1     10    11.539     5.612    0.11E-03    0.23E-03    0.24E-06
   2      9    11.539    55.373    0.45E-04    0.92E-04    0.22E-06
   2      9    11.539    50.863    0.47E-04    0.95E-04    0.22E-06
   0     10    11.539    79.536    0.46E-04    0.27E-04    0.11E-06
   0     10    11.539    38.668    0.38E-04    0.25E-04    0.10E-06
 Optimization of the real space projectors (new method)

 maximal supplied QI-value         = 19.84
 optimisation between [QCUT,QGAM] = [ 11.51, 23.22] = [ 37.09,150.92] Ry 
 Optimized for a Real-space Cutoff    1.21 Angstroem

   l    n(q)    QCUT    max X(q) W(low)/X(q) W(high)/X(q)  e(spline) 
   0      8    11.508   160.924    0.96E-04    0.17E-03    0.52E-07
   0      8    11.508   130.086    0.95E-04    0.17E-03    0.51E-07
   1      8    11.508    74.434    0.16E-03    0.74E-04    0.91E-07
   1      8    11.508    49.120    0.16E-03    0.71E-04    0.89E-07
 Optimization of the real space projectors (new method)

 maximal supplied QI-value         = 24.76
 optimisation between [QCUT,QGAM] = [ 11.64, 23.27] = [ 37.91,151.63] Ry 
 Optimized for a Real-space Cutoff    1.14 Angstroem

   l    n(q)    QCUT    max X(q) W(low)/X(q) W(high)/X(q)  e(spline) 
   0      8    11.635    20.381    0.10E-03    0.33E-03    0.24E-06
   0      8    11.635    15.268    0.11E-03    0.35E-03    0.26E-06
   1      7    11.635     5.964    0.24E-03    0.31E-03    0.30E-06
   1      7    11.635     5.382    0.22E-03    0.25E-03    0.26E-06
  PAW_PBE Ca_sv 06Sep2000               :
 energy of atom  1       EATOM=-1006.0909
 kinetic energy error for atom=    0.0022 (will be added to EATOM!!)
  PAW_PBE Mn_pv 02Aug2007               :
 energy of atom  2       EATOM=-2025.2664
 kinetic energy error for atom=    0.0058 (will be added to EATOM!!)
  PAW_PBE P 06Sep2000                   :
 energy of atom  3       EATOM= -176.0430
 kinetic energy error for atom=    0.0011 (will be added to EATOM!!)
  PAW_PBE O 08Apr2002                   :
 energy of atom  4       EATOM= -432.3788
 kinetic energy error for atom=    0.0208 (will be added to EATOM!!)
 
 
 POSCAR: Ca5 Mn4 P6 O24
  positions in direct lattice
  velocities in cartesian coordinates

 METAGGA = SCAN     LMAXTAU =  6    LMIXTAU =  F

 exchange correlation table for  LEXCH =        8
   RHO(1)=    0.500       N(1)  =     2000
   RHO(2)=  100.500       N(2)  =     4000
 


--------------------------------------------------------------------------------------------------------


 ion  position               nearest neighbor table
   1  0.598  0.407  0.517-  22 2.32  19 2.36  17 2.37  26 2.38  15 2.42   5 3.14
   2  0.897  0.979  0.090-  18 2.33  23 2.35  20 2.37  25 2.38  21 2.41   7 3.14
   3  0.367  0.733  0.112-  33 2.36  32 2.36  20 2.36  22 2.44  31 2.44  16 2.45  24 2.46  10 3.00
                            14 3.00
   4  0.130  0.384  0.764-  38 2.36  27 2.37  26 2.37  18 2.44  16 2.45  35 2.45  24 2.45  12 2.99
                            14 3.00
   5  0.638  0.667  0.638-  30 1.85  19 1.88  32 1.91  15 1.93  28 2.16  17 2.48   1 3.14
   6  0.162  0.134  0.193-  27 2.02  29 2.06  31 2.08  20 2.13  16 2.39
   7  0.859  0.857  0.829-  34 1.85  23 1.88  38 1.91  21 1.93  36 2.17  25 2.44   2 3.14
   8  0.332  0.304  0.359-  33 2.02  37 2.06  35 2.08  26 2.14  24 2.39
   9  0.247  0.544  0.952-  17 1.53  25 1.53  27 1.55  33 1.55
  10  0.028  0.773  0.440-  28 1.51  34 1.53  24 1.54  20 1.56   3 3.00
  11  0.942  0.245  0.595-  29 1.52  35 1.52  19 1.54  21 1.54
  12  0.469  0.056  0.722-  36 1.51  30 1.53  16 1.54  26 1.56   4 2.99
  13  0.553  0.901  0.251-  37 1.52  31 1.52  23 1.54  15 1.54
  14  0.748  0.489  0.007-  22 1.52  18 1.52  38 1.54  32 1.55   3 3.00   4 3.00
  15  0.593  0.723  0.419-  13 1.54   5 1.93   1 2.42
  16  0.305  0.061  0.904-  12 1.54   6 2.39   4 2.45   3 2.45
  17  0.399  0.546  0.762-   9 1.53   1 2.37   5 2.48
  18  0.874  0.291  0.997-  14 1.52   2 2.33   4 2.44
  19  0.773  0.417  0.631-  11 1.54   5 1.88   1 2.36
  20  0.076  0.924  0.243-  10 1.56   6 2.13   3 2.36   2 2.37
  21  0.903  0.077  0.773-  11 1.54   7 1.93   2 2.41
  22  0.623  0.499  0.205-  14 1.52   1 2.32   3 2.44
  23  0.723  0.866  0.079-  13 1.54   7 1.88   2 2.35
  24  0.191  0.591  0.435-  10 1.54   8 2.39   4 2.45   3 2.46
  25  0.094  0.733  0.948-   9 1.53   2 2.38   7 2.44
  26  0.421  0.252  0.571-  12 1.56   8 2.14   4 2.37   1 2.38
  27  0.184  0.385  0.002-   9 1.55   6 2.02   4 2.37
  28  0.866  0.755  0.463-  10 1.51   5 2.16
  29  0.961  0.227  0.418-  11 1.52   6 2.06
  30  0.490  0.905  0.661-  12 1.53   5 1.85
  31  0.395  0.918  0.229-  13 1.52   6 2.08   3 2.44
  32  0.625  0.588  0.892-  14 1.55   5 1.91   3 2.36
  33  0.311  0.498  0.109-   9 1.55   8 2.02   3 2.36
  34  0.006  0.836  0.590-  10 1.53   7 1.85
  35  0.101  0.268  0.577-  11 1.52   8 2.08   4 2.45
  36  0.630  0.034  0.741-  12 1.51   7 2.17
  37  0.534  0.078  0.269-  13 1.52   8 2.06
  38  0.871  0.604  0.906-  14 1.54   7 1.91   4 2.36
 

IMPORTANT INFORMATION: All symmetrisations will be switched off!
NOSYMM: (Re-)initialisation of all symmetry stuff for point group C_1.


----------------------------------------------------------------------------------------

                                     Primitive cell                                     

  volume of cell :     494.1644

  direct lattice vectors                    reciprocal lattice vectors
     2.653429869  7.814994932  4.513174181    -0.002781983  0.131599497 -0.004668024
     0.023342141  0.307001645  8.640985432    -0.063723922 -0.046244905  0.117542695
     7.537335003  0.308589124  4.207656003     0.133849596 -0.046184836  0.001279308

  length of vectors
     9.406570950  8.646468880  8.637766797     0.131711645  0.141476552  0.141599400

  position of ions in fractional coordinates (direct lattice)
     0.597795468  0.406938473  0.517033842
     0.897363614  0.978960306  0.089599390
     0.367477904  0.732697666  0.111797753
     0.129895398  0.383600819  0.764173637
     0.638269166  0.666941114  0.638391313
     0.162411653  0.134177500  0.193451309
     0.859106407  0.857194720  0.828933480
     0.332101622  0.304271611  0.359490114
     0.247241429  0.543600363  0.952358835
     0.027692516  0.773059258  0.439921201
     0.942378562  0.245017783  0.594943009
     0.468787423  0.056074261  0.722204434
     0.553384845  0.901317476  0.251246243
     0.748453224  0.488634537  0.007066519
     0.593352383  0.723242442  0.418560433
     0.305007362  0.061283519  0.904347123
     0.399176153  0.546387671  0.762277660
     0.873941047  0.290695553  0.997435856
     0.772663435  0.416816926  0.630717392
     0.075693285  0.923710520  0.243186445
     0.903265858  0.077466775  0.773169020
     0.622938472  0.498770640  0.204987698
     0.722811071  0.865954688  0.078924639
     0.191460416  0.591178504  0.435107546
     0.094407209  0.733200462  0.948284032
     0.420778026  0.252188840  0.570966390
     0.184221654  0.385049611  0.002352792
     0.865825171  0.754798397  0.462534324
     0.961331036  0.226567926  0.418426506
     0.489737247  0.905083137  0.660636581
     0.394729374  0.918440003  0.229485040
     0.625039113  0.588448669  0.892320275
     0.310786429  0.497694162  0.109159041
     0.006446378  0.836191605  0.589955368
     0.100762779  0.267932913  0.576962712
     0.630439254  0.033563327  0.740741817
     0.534120468  0.078013556  0.269383596
     0.871467464  0.603755697  0.906474915

  ion indices of the primitive-cell ions
   primitive index   ion index
                 1           1
                 2           2
                 3           3
                 4           4
                 5           5
                 6           6
                 7           7
                 8           8
                 9           9
                10          10
                11          11
                12          12
                13          13
                14          14
                15          15
                16          16
                17          17
                18          18
                19          19
                20          20
                21          21
                22          22
                23          23
                24          24
                25          25
                26          26
                27          27
                28          28
                29          29
                30          30
                31          31
                32          32
                33          33
                34          34
                35          35
                36          36
                37          37
                38          38

----------------------------------------------------------------------------------------

 
 
 KPOINTS: Fully automatic kpoint scheme           

Automatic generation of k-mesh.
 generate k-points for:    4    5    5
Space group operators:
 irot       det(A)        alpha          n_x          n_y          n_z        tau_x        tau_y        tau_z
    1     1.000000     0.000000     1.000000     0.000000     0.000000     0.000000     0.000000     0.000000
 
 Subroutine IBZKPT returns following result:
 ===========================================
 
 Found     51 irreducible k-points:
 
 Following reciprocal coordinates:
            Coordinates               Weight
  0.000000  0.000000  0.000000      1.000000
  0.250000 -0.000000  0.000000      2.000000
  0.500000 -0.000000  0.000000      1.000000
 -0.000000  0.200000 -0.000000      2.000000
  0.250000  0.200000  0.000000      2.000000
  0.500000  0.200000 -0.000000      2.000000
 -0.250000  0.200000  0.000000      2.000000
 -0.000000  0.400000  0.000000      2.000000
  0.250000  0.400000  0.000000      2.000000
  0.500000  0.400000  0.000000      2.000000
 -0.250000  0.400000  0.000000      2.000000
  0.000000 -0.000000  0.200000      2.000000
  0.250000 -0.000000  0.200000      2.000000
  0.500000 -0.000000  0.200000      2.000000
 -0.250000  0.000000  0.200000      2.000000
 -0.000000  0.200000  0.200000      2.000000
  0.250000  0.200000  0.200000      2.000000
  0.500000  0.200000  0.200000      2.000000
 -0.250000  0.200000  0.200000      2.000000
 -0.000000  0.400000  0.200000      2.000000
  0.250000  0.400000  0.200000      2.000000
  0.500000  0.400000  0.200000      2.000000
 -0.250000  0.400000  0.200000      2.000000
  0.000000 -0.400000  0.200000      2.000000
  0.250000 -0.400000  0.200000      2.000000
  0.500000 -0.400000  0.200000      2.000000
 -0.250000 -0.400000  0.200000      2.000000
  0.000000 -0.200000  0.200000      2.000000
  0.250000 -0.200000  0.200000      2.000000
  0.500000 -0.200000  0.200000      2.000000
 -0.250000 -0.200000  0.200000      2.000000
  0.000000 -0.000000  0.400000      2.000000
  0.250000 -0.000000  0.400000      2.000000
  0.500000 -0.000000  0.400000      2.000000
 -0.250000  0.000000  0.400000      2.000000
 -0.000000  0.200000  0.400000      2.000000
  0.250000  0.200000  0.400000      2.000000
  0.500000  0.200000  0.400000      2.000000
 -0.250000  0.200000  0.400000      2.000000
 -0.000000  0.400000  0.400000      2.000000
  0.250000  0.400000  0.400000      2.000000
  0.500000  0.400000  0.400000      2.000000
 -0.250000  0.400000  0.400000      2.000000
  0.000000 -0.400000  0.400000      2.000000
  0.250000 -0.400000  0.400000      2.000000
  0.500000 -0.400000  0.400000      2.000000
 -0.250000 -0.400000  0.400000      2.000000
  0.000000 -0.200000  0.400000      2.000000
  0.250000 -0.200000  0.400000      2.000000
  0.500000 -0.200000  0.400000      2.000000
 -0.250000 -0.200000  0.400000      2.000000
 
 Following cartesian coordinates:
            Coordinates               Weight
  0.000000  0.000000  0.000000      1.000000
 -0.000695  0.032900 -0.001167      2.000000
 -0.001391  0.065800 -0.002334      1.000000
 -0.012745 -0.009249  0.023509      2.000000
 -0.013440  0.023651  0.022342      2.000000
 -0.014136  0.056551  0.021175      2.000000
 -0.012049 -0.042149  0.024676      2.000000
 -0.025490 -0.018498  0.047017      2.000000
 -0.026185  0.014402  0.045850      2.000000
 -0.026881  0.047302  0.044683      2.000000
 -0.024794 -0.051398  0.048184      2.000000
  0.026770 -0.009237  0.000256      2.000000
  0.026074  0.023663 -0.000911      2.000000
  0.025379  0.056563 -0.002078      2.000000
  0.027465 -0.042137  0.001423      2.000000
  0.014025 -0.018486  0.023764      2.000000
  0.013330  0.014414  0.022597      2.000000
  0.012634  0.047314  0.021430      2.000000
  0.014721 -0.051386  0.024931      2.000000
  0.001280 -0.027735  0.047273      2.000000
  0.000585  0.005165  0.046106      2.000000
 -0.000111  0.038065  0.044939      2.000000
  0.001976 -0.060635  0.048440      2.000000
  0.052259  0.009261 -0.046761      2.000000
  0.051564  0.042161 -0.047928      2.000000
  0.050868  0.075061 -0.049095      2.000000
  0.052955 -0.023639 -0.045594      2.000000
  0.039515  0.000012 -0.023253      2.000000
  0.038819  0.032912 -0.024420      2.000000
  0.038124  0.065812 -0.025587      2.000000
  0.040210 -0.032888 -0.022086      2.000000
  0.053540 -0.018474  0.000512      2.000000
  0.052844  0.014426 -0.000655      2.000000
  0.052149  0.047326 -0.001822      2.000000
  0.054235 -0.051374  0.001679      2.000000
  0.040795 -0.027723  0.024020      2.000000
  0.040100  0.005177  0.022853      2.000000
  0.039404  0.038077  0.021686      2.000000
  0.041491 -0.060623  0.025187      2.000000
  0.028050 -0.036972  0.047529      2.000000
  0.027355 -0.004072  0.046362      2.000000
  0.026659  0.028828  0.045195      2.000000
  0.028746 -0.069872  0.048696      2.000000
  0.079029  0.000024 -0.046505      2.000000
  0.078334  0.032924 -0.047672      2.000000
  0.077638  0.065824 -0.048839      2.000000
  0.079725 -0.032876 -0.045338      2.000000
  0.066285 -0.009225 -0.022997      2.000000
  0.065589  0.023675 -0.024164      2.000000
  0.064894  0.056575 -0.025331      2.000000
  0.066980 -0.042125 -0.021830      2.000000
 


--------------------------------------------------------------------------------------------------------




 Dimension of arrays:
   k-points           NKPTS =     51   k-points in BZ     NKDIM =     51   number of bands    NBANDS=    176
   number of dos      NEDOS =    301   number of ions     NIONS =     38
   non local maximal  LDIM  =      6   non local SUM 2l+1 LMDIM =     18
   total plane-waves  NPLWV = 286720
   max r-space proj   IRMAX =   9633   max aug-charges    IRDMAX=  27879
   dimension x,y,z NGX =    70 NGY =   64 NGZ =   64
   dimension x,y,z NGXF=   140 NGYF=  128 NGZF=  128
   support grid    NGXF=   140 NGYF=  128 NGZF=  128
   ions per type =               4   4   6  24
   NGX,Y,Z   is equivalent  to a cutoff of  12.37, 12.31, 12.32 a.u.
   NGXF,Y,Z  is equivalent  to a cutoff of  24.74, 24.61, 24.64 a.u.

 SYSTEM =  unknown system                          
 POSCAR =  Ca5 Mn4 P6 O24                          

 Startparameter for this run:
   NWRITE =      2    write-flag & timer
   PREC   = accura    normal or accurate (medium, high low for compatibility)
   ISTART =      0    job   : 0-new  1-cont  2-samecut
   ICHARG =      1    charge: 1-file 2-atom 10-const
   ISPIN  =      2    spin polarized calculation?
   LNONCOLLINEAR =      F non collinear calculations
   LSORBIT =      F    spin-orbit coupling
   INIWAV =      1    electr: 0-lowe 1-rand  2-diag
   LASPH  =      T    aspherical Exc in radial PAW
   METAGGA=      F    non-selfconsistent MetaGGA calc.

 Electronic Relaxation 1
   ENCUT  =  520.0 eV  38.22 Ry    6.18 a.u.  17.49 16.08 16.06*2*pi/ulx,y,z
   ENINI  =  520.0     initial cutoff
   ENAUG  =  605.4 eV  augmentation charge cutoff
   NELM   =    150;   NELMIN=  6; NELMDL= -5     # of ELM steps 
   EDIFF  = 0.1E-04   stopping-criterion for ELM
   LREAL  =      T    real-space projection
   NLSPLINE    = F    spline interpolate recip. space projectors
   LCOMPAT=      F    compatible to vasp.4.4
   GGA_COMPAT  = T    GGA compatible to vasp.4.4-vasp.4.6
   LMAXPAW     = -100 max onsite density
   LMAXMIX     =    2 max onsite mixed and CHGCAR
   VOSKOWN=      0    Vosko Wilk Nusair interpolation
   ROPT   =   -0.00025  -0.00025  -0.00025  -0.00025
 Ionic relaxation
   EDIFFG = -.3E-01   stopping-criterion for IOM
   NSW    =    199    number of steps for IOM
   NBLOCK =      1;   KBLOCK =    199    inner block; outer block 
   IBRION =      2    ionic relax: 0-MD 1-quasi-New 2-CG
   NFREE  =      1    steps in history (QN), initial steepest desc. (CG)
   ISIF   =      3    stress and relaxation
   IWAVPR =     11    prediction:  0-non 1-charg 2-wave 3-comb
   ISYM   =      0    0-nonsym 1-usesym 2-fastsym
   LCORR  =      T    Harris-Foulkes like correction to forces

   POTIM  = 0.5000    time-step for ionic-motion
   TEIN   =    0.0    initial temperature
   TEBEG  =    0.0;   TEEND  =   0.0 temperature during run
   SMASS  =  -3.00    Nose mass-parameter (am)
   estimated Nose-frequenzy (Omega)   =  0.10E-29 period in steps = 0.13E+47 mass=  -0.202E-26a.u.
   SCALEE = 1.0000    scale energy and forces
   NPACO  =    256;   APACO  = 16.0  distance and # of slots for P.C.
   PSTRESS=    0.0 pullay stress

  Mass of Ions in am
   POMASS =  40.08 54.94 30.97 16.00
  Ionic Valenz
   ZVAL   =  10.00 13.00  5.00  6.00
  Atomic Wigner-Seitz radii
   RWIGS  =  -1.00 -1.00 -1.00 -1.00
  virtual crystal weights 
   VCA    =   1.00  1.00  1.00  1.00
   NELECT =     266.0000    total number of electrons
   NUPDOWN=      -1.0000    fix difference up-down

 DOS related values:
   EMIN   =  10.00;   EMAX   =-10.00  energy-range for DOS
   EFERMI =   0.00
   ISMEAR =     0;   SIGMA  =   0.05  broadening in eV -4-tet -1-fermi 0-gaus

 Electronic relaxation 2 (details)
   IALGO  =     58    algorithm
   LDIAG  =      T    sub-space diagonalisation (order eigenvalues)
   LSUBROT=      F    optimize rotation matrix (better conditioning)
   TURBO    =      0    0=normal 1=particle mesh
   IRESTART =      0    0=no restart 2=restart with 2 vectors
   NREBOOT  =      0    no. of reboots
   NMIN     =      0    reboot dimension
   EREF     =   0.00    reference energy to select bands
   IMIX   =      4    mixing-type and parameters
     AMIX     =   0.40;   BMIX     =  1.00
     AMIX_MAG =   1.60;   BMIX_MAG =  1.00
     AMIN     =   0.10
     WC   =   100.;   INIMIX=   1;  MIXPRE=   1;  MAXMIX= -45

 Intra band minimization:
   WEIMIN = 0.0010     energy-eigenvalue tresh-hold
   EBREAK =  0.14E-07  absolut break condition
   DEPER  =   0.30     relativ break condition  

   TIME   =   0.40     timestep for ELM

  volume/ion in A,a.u.               =      13.00        87.76
  Fermi-wavevector in a.u.,A,eV,Ry     =   1.331716  2.516578 24.129484  1.773467
  Thomas-Fermi vector in A             =   2.460706
 
 Write flags
   LWAVE        =      F    write WAVECAR
   LDOWNSAMPLE  =      F    k-point downsampling of WAVECAR
   LCHARG       =      T    write CHGCAR
   LVTOT        =      F    write LOCPOT, total local potential
   LVHAR        =      F    write LOCPOT, Hartree potential only
   LELF         =      F    write electronic localiz. function (ELF)
   LORBIT       =     11    0 simple, 1 ext, 2 COOP (PROOUT), +10 PAW based schemes


 Dipole corrections
   LMONO  =      F    monopole corrections only (constant potential shift)
   LDIPOL =      F    correct potential (dipole corrections)
   IDIPOL =      0    1-x, 2-y, 3-z, 4-all directions 
   EPSILON=  1.0000000 bulk dielectric constant

 Exchange correlation treatment:
   GGA     =    --    GGA type
   LEXCH   =     8    internal setting for exchange type
   VOSKOWN=      0    Vosko Wilk Nusair interpolation
   LHFCALC =     F    Hartree Fock is set to
   LHFONE  =     F    Hartree Fock one center treatment
   AEXX    =    0.0000 exact exchange contribution

 Linear response parameters
   LEPSILON=     F    determine dielectric tensor
   LRPA    =     F    only Hartree local field effects (RPA)
   LNABLA  =     F    use nabla operator in PAW spheres
   LVEL    =     F    velocity operator in full k-point grid
   LINTERFAST=   F  fast interpolation
   KINTER  =     0    interpolate to denser k-point grid
   CSHIFT  =0.1000    complex shift for real part using Kramers Kronig
   OMEGAMAX=  -1.0    maximum frequency
   DEG_THRESHOLD= 0.2000000E-02 threshold for treating states as degnerate
   RTIME   =   -0.100 relaxation time in fs
  (WPLASMAI=    0.000 imaginary part of plasma frequency in eV, 0.658/RTIME)
   DFIELD  = 0.0000000 0.0000000 0.0000000 field for delta impulse in time
 
 Orbital magnetization related:
   ORBITALMAG=     F  switch on orbital magnetization
   LCHIMAG   =     F  perturbation theory with respect to B field
   DQ        =  0.001000  dq finite difference perturbation B field
   LLRAUG    =     F  two centre corrections for induced B field



--------------------------------------------------------------------------------------------------------


 conjugate gradient relaxation of ions
 charge density and potential will be updated during run
 spin polarized calculation
 Conjugate gradient for all bands (Freysoldt, et al. PRB 79, 241103 (2009))
 preconditioned conjugated gradient                                        
 perform sub-space diagonalisation
    before iterative eigenvector-optimisation
 modified Broyden-mixing scheme, WC =      100.0
 initial mixing is a Kerker type mixing with AMIX =  0.4000 and BMIX =      1.0000
 Hartree-type preconditioning will be used
 using additional bands           43
 real space projection scheme for non local part
 use partial core corrections
 no Harris-corrections to forces 
 use gradient corrections 
 use of overlap-Matrix (Vanderbilt PP)
 Gauss-broadening in eV      SIGMA  =   0.05


--------------------------------------------------------------------------------------------------------


  energy-cutoff  :      520.00
  volume of cell :      494.16
      direct lattice vectors                 reciprocal lattice vectors
     2.653429869  7.814994932  4.513174181    -0.002781983  0.131599497 -0.004668024
     0.023342141  0.307001645  8.640985432    -0.063723922 -0.046244905  0.117542695
     7.537335003  0.308589124  4.207656003     0.133849596 -0.046184836  0.001279308

  length of vectors
     9.406570950  8.646468880  8.637766797     0.131711645  0.141476552  0.141599400


 
 k-points in units of 2pi/SCALE and weight: Fully automatic kpoint scheme           
   0.00000000  0.00000000  0.00000000       0.010
  -0.00069550  0.03289987 -0.00116701       0.020
  -0.00139099  0.06579975 -0.00233401       0.010
  -0.01274478 -0.00924898  0.02350854       0.020
  -0.01344028  0.02365089  0.02234153       0.020
  -0.01413578  0.05655077  0.02117453       0.020
  -0.01204929 -0.04214886  0.02467554       0.020
  -0.02548957 -0.01849796  0.04701708       0.020
  -0.02618506  0.01440191  0.04585007       0.020
  -0.02688056  0.04730179  0.04468307       0.020
  -0.02479407 -0.05139784  0.04818408       0.020
   0.02676992 -0.00923697  0.00025586       0.020
   0.02607442  0.02366291 -0.00091114       0.020
   0.02537893  0.05656278 -0.00207815       0.020
   0.02746541 -0.04213684  0.00142287       0.020
   0.01402513 -0.01848595  0.02376440       0.020
   0.01332964  0.01441393  0.02259739       0.020
   0.01263414  0.04731380  0.02143039       0.020
   0.01472063 -0.05138582  0.02493141       0.020
   0.00128035 -0.02773493  0.04727294       0.020
   0.00058485  0.00516495  0.04610593       0.020
  -0.00011064  0.03806482  0.04493893       0.020
   0.00197585 -0.06063480  0.04843995       0.020
   0.05225949  0.00926099 -0.04676122       0.020
   0.05156399  0.04216087 -0.04792822       0.020
   0.05086850  0.07506074 -0.04909523       0.020
   0.05295498 -0.02363888 -0.04559421       0.020
   0.03951470  0.00001201 -0.02325268       0.020
   0.03881921  0.03291189 -0.02441968       0.020
   0.03812371  0.06581176 -0.02558669       0.020
   0.04021020 -0.03288786 -0.02208567       0.020
   0.05353984 -0.01847393  0.00051172       0.020
   0.05284434  0.01442594 -0.00065528       0.020
   0.05214885  0.04732581 -0.00182229       0.020
   0.05423533 -0.05137381  0.00167873       0.020
   0.04079505 -0.02772292  0.02402026       0.020
   0.04009956  0.00517696  0.02285326       0.020
   0.03940406  0.03807683  0.02168625       0.020
   0.04149055 -0.06062279  0.02518727       0.020
   0.02805027 -0.03697190  0.04752880       0.020
   0.02735477 -0.00407202  0.04636180       0.020
   0.02665928  0.02882785  0.04519479       0.020
   0.02874577 -0.06987177  0.04869581       0.020
   0.07902941  0.00002403 -0.04650535       0.020
   0.07833391  0.03292390 -0.04767236       0.020
   0.07763842  0.06582378 -0.04883937       0.020
   0.07972490 -0.03287585 -0.04533835       0.020
   0.06628462 -0.00922495 -0.02299682       0.020
   0.06558913  0.02367492 -0.02416382       0.020
   0.06489363  0.05657479 -0.02533083       0.020
   0.06698012 -0.04212483 -0.02182981       0.020
 
 k-points in reciprocal lattice and weights: Fully automatic kpoint scheme           
   0.00000000  0.00000000  0.00000000       0.010
   0.25000000 -0.00000000  0.00000000       0.020
   0.50000000 -0.00000000  0.00000000       0.010
  -0.00000000  0.20000000 -0.00000000       0.020
   0.25000000  0.20000000  0.00000000       0.020
   0.50000000  0.20000000 -0.00000000       0.020
  -0.25000000  0.20000000  0.00000000       0.020
  -0.00000000  0.40000000  0.00000000       0.020
   0.25000000  0.40000000  0.00000000       0.020
   0.50000000  0.40000000  0.00000000       0.020
  -0.25000000  0.40000000  0.00000000       0.020
   0.00000000 -0.00000000  0.20000000       0.020
   0.25000000 -0.00000000  0.20000000       0.020
   0.50000000 -0.00000000  0.20000000       0.020
  -0.25000000  0.00000000  0.20000000       0.020
  -0.00000000  0.20000000  0.20000000       0.020
   0.25000000  0.20000000  0.20000000       0.020
   0.50000000  0.20000000  0.20000000       0.020
  -0.25000000  0.20000000  0.20000000       0.020
  -0.00000000  0.40000000  0.20000000       0.020
   0.25000000  0.40000000  0.20000000       0.020
   0.50000000  0.40000000  0.20000000       0.020
  -0.25000000  0.40000000  0.20000000       0.020
   0.00000000 -0.40000000  0.20000000       0.020
   0.25000000 -0.40000000  0.20000000       0.020
   0.50000000 -0.40000000  0.20000000       0.020
  -0.25000000 -0.40000000  0.20000000       0.020
   0.00000000 -0.20000000  0.20000000       0.020
   0.25000000 -0.20000000  0.20000000       0.020
   0.50000000 -0.20000000  0.20000000       0.020
  -0.25000000 -0.20000000  0.20000000       0.020
   0.00000000 -0.00000000  0.40000000       0.020
   0.25000000 -0.00000000  0.40000000       0.020
   0.50000000 -0.00000000  0.40000000       0.020
  -0.25000000  0.00000000  0.40000000       0.020
  -0.00000000  0.20000000  0.40000000       0.020
   0.25000000  0.20000000  0.40000000       0.020
   0.50000000  0.20000000  0.40000000       0.020
  -0.25000000  0.20000000  0.40000000       0.020
  -0.00000000  0.40000000  0.40000000       0.020
   0.25000000  0.40000000  0.40000000       0.020
   0.50000000  0.40000000  0.40000000       0.020
  -0.25000000  0.40000000  0.40000000       0.020
   0.00000000 -0.40000000  0.40000000       0.020
   0.25000000 -0.40000000  0.40000000       0.020
   0.50000000 -0.40000000  0.40000000       0.020
  -0.25000000 -0.40000000  0.40000000       0.020
   0.00000000 -0.20000000  0.40000000       0.020
   0.25000000 -0.20000000  0.40000000       0.020
   0.50000000 -0.20000000  0.40000000       0.020
  -0.25000000 -0.20000000  0.40000000       0.020
 
 position of ions in fractional coordinates (direct lattice) 
   0.59779547  0.40693847  0.51703384
   0.89736361  0.97896031  0.08959939
   0.36747790  0.73269767  0.11179775
   0.12989540  0.38360082  0.76417364
   0.63826917  0.66694111  0.63839131
   0.16241165  0.13417750  0.19345131
   0.85910641  0.85719472  0.82893348
   0.33210162  0.30427161  0.35949011
   0.24724143  0.54360036  0.95235883
   0.02769252  0.77305926  0.43992120
   0.94237856  0.24501778  0.59494301
   0.46878742  0.05607426  0.72220443
   0.55338485  0.90131748  0.25124624
   0.74845322  0.48863454  0.00706652
   0.59335238  0.72324244  0.41856043
   0.30500736  0.06128352  0.90434712
   0.39917615  0.54638767  0.76227766
   0.87394105  0.29069555  0.99743586
   0.77266344  0.41681693  0.63071739
   0.07569329  0.92371052  0.24318645
   0.90326586  0.07746678  0.77316902
   0.62293847  0.49877064  0.20498770
   0.72281107  0.86595469  0.07892464
   0.19146042  0.59117850  0.43510755
   0.09440721  0.73320046  0.94828403
   0.42077803  0.25218884  0.57096639
   0.18422165  0.38504961  0.00235279
   0.86582517  0.75479840  0.46253432
   0.96133104  0.22656793  0.41842651
   0.48973725  0.90508314  0.66063658
   0.39472937  0.91844000  0.22948504
   0.62503911  0.58844867  0.89232027
   0.31078643  0.49769416  0.10915904
   0.00644638  0.83619160  0.58995537
   0.10076278  0.26793291  0.57696271
   0.63043925  0.03356333  0.74074182
   0.53412047  0.07801356  0.26938360
   0.87146746  0.60375570  0.90647491
 
 position of ions in cartesian coordinates  (Angst):
   5.49276445  4.95625036  8.38980504
   3.07928307  7.34108392 12.88614345
   1.83483670  3.13127691  8.46012813
   6.11345510  1.36871363  7.11630943
   6.52093949  5.38982293 11.32977941
   1.89218724  1.37013593  2.70639446
   8.54753670  7.23287226 14.77217088
   3.59790813  2.79971912  5.64064975
   7.84697417  2.39296430  9.82028482
   3.40735847  0.58950224  8.65601202
   6.99053943  7.62349749  8.87362921
   6.68870020  3.90365066  5.63904399
   3.38313366  4.67893757 11.34295114
   2.05063664  6.00135041  7.62991716
   4.74613117  4.98824568 10.68858838
   7.62711336  2.68151682  5.71128294
   6.81748188  3.52253212  9.73028159
   9.84373493  7.22688672 10.65301117
   6.81386591  6.36095684  9.74271547
   2.05538591  0.95016798  9.34663103
   8.22619476  7.32139208  7.99921469
   3.20962688  5.08464139  7.98381739
   2.53302316  5.93896966 11.07696183
   3.80137749  1.81202441  7.80324192
   7.41515180  1.25551574 10.75170369
   5.42595657  3.54199455  6.48063477
   0.51554090  1.55862820  4.16853223
   5.80130113  7.14087673 12.37600708
   5.70993381  7.71147577  8.05701936
   6.30004924  4.30902138 12.81081118
   2.79853069  3.43758723 10.68330321
   8.39794994  5.34069254 11.66026352
   1.65903550  2.61527258  6.16250498
   4.48331476  0.48914442  9.73694235
   4.62238234  1.04776087  5.19762499
   7.25682901  5.16576844  6.25208914
   3.44950662  4.28122789  4.21816621
   9.15887586  7.27559611 12.96426326
 


--------------------------------------------------------------------------------------------------------


 k-point   1 :   0.0000 0.0000 0.0000  plane waves:   13323
 k-point   2 :   0.2500-0.0000 0.0000  plane waves:   13297
 k-point   3 :   0.5000-0.0000 0.0000  plane waves:   13250
 k-point   4 :  -0.0000 0.2000-0.0000  plane waves:   13313
 k-point   5 :   0.2500 0.2000 0.0000  plane waves:   13299
 k-point   6 :   0.5000 0.2000-0.0000  plane waves:   13283
 k-point   7 :  -0.2500 0.2000 0.0000  plane waves:   13293
 k-point   8 :  -0.0000 0.4000 0.0000  plane waves:   13307
 k-point   9 :   0.2500 0.4000 0.0000  plane waves:   13301
 k-point  10 :   0.5000 0.4000 0.0000  plane waves:   13301
 k-point  11 :  -0.2500 0.4000 0.0000  plane waves:   13304
 k-point  12 :   0.0000-0.0000 0.2000  plane waves:   13313
 k-point  13 :   0.2500-0.0000 0.2000  plane waves:   13300
 k-point  14 :   0.5000-0.0000 0.2000  plane waves:   13288
 k-point  15 :  -0.2500 0.0000 0.2000  plane waves:   13296
 k-point  16 :  -0.0000 0.2000 0.2000  plane waves:   13287
 k-point  17 :   0.2500 0.2000 0.2000  plane waves:   13311
 k-point  18 :   0.5000 0.2000 0.2000  plane waves:   13313
 k-point  19 :  -0.2500 0.2000 0.2000  plane waves:   13272
 k-point  20 :  -0.0000 0.4000 0.2000  plane waves:   13311
 k-point  21 :   0.2500 0.4000 0.2000  plane waves:   13321
 k-point  22 :   0.5000 0.4000 0.2000  plane waves:   13299
 k-point  23 :  -0.2500 0.4000 0.2000  plane waves:   13294
 k-point  24 :   0.0000-0.4000 0.2000  plane waves:   13311
 k-point  25 :   0.2500-0.4000 0.2000  plane waves:   13303
 k-point  26 :   0.5000-0.4000 0.2000  plane waves:   13292
 k-point  27 :  -0.2500-0.4000 0.2000  plane waves:   13325
 k-point  28 :   0.0000-0.2000 0.2000  plane waves:   13313
 k-point  29 :   0.2500-0.2000 0.2000  plane waves:   13318
 k-point  30 :   0.5000-0.2000 0.2000  plane waves:   13277
 k-point  31 :  -0.2500-0.2000 0.2000  plane waves:   13311
 k-point  32 :   0.0000-0.0000 0.4000  plane waves:   13309
 k-point  33 :   0.2500-0.0000 0.4000  plane waves:   13297
 k-point  34 :   0.5000-0.0000 0.4000  plane waves:   13302
 k-point  35 :  -0.2500 0.0000 0.4000  plane waves:   13308
 k-point  36 :  -0.0000 0.2000 0.4000  plane waves:   13314
 k-point  37 :   0.2500 0.2000 0.4000  plane waves:   13317
 k-point  38 :   0.5000 0.2000 0.4000  plane waves:   13301
 k-point  39 :  -0.2500 0.2000 0.4000  plane waves:   13296
 k-point  40 :  -0.0000 0.4000 0.4000  plane waves:   13323
 k-point  41 :   0.2500 0.4000 0.4000  plane waves:   13317
 k-point  42 :   0.5000 0.4000 0.4000  plane waves:   13333
 k-point  43 :  -0.2500 0.4000 0.4000  plane waves:   13316
 k-point  44 :   0.0000-0.4000 0.4000  plane waves:   13301
 k-point  45 :   0.2500-0.4000 0.4000  plane waves:   13307
 k-point  46 :   0.5000-0.4000 0.4000  plane waves:   13309
 k-point  47 :  -0.2500-0.4000 0.4000  plane waves:   13304
 k-point  48 :   0.0000-0.2000 0.4000  plane waves:   13316
 k-point  49 :   0.2500-0.2000 0.4000  plane waves:   13331
 k-point  50 :   0.5000-0.2000 0.4000  plane waves:   13290
 k-point  51 :  -0.2500-0.2000 0.4000  plane waves:   13302

 maximum and minimum number of plane-waves per node :       876      799

 maximum number of plane-waves:     13333
 maximum index in each direction: 
   IXMAX=   17   IYMAX=   16   IZMAX=   16
   IXMIN=  -17   IYMIN=  -16   IZMIN=  -16


 real space projection operators:
  total allocation   :      16063.97 KBytes
  max/ min on nodes  :       1185.08        870.83


 parallel 3D FFT for wavefunctions:
    minimum data exchange during FFTs selected (reduces bandwidth)
 parallel 3D FFT for charge:
    minimum data exchange during FFTs selected (reduces bandwidth)


 total amount of memory used by VASP MPI-rank0   141703. kBytes
=======================================================================

   base      :      30000. kBytes
   nonlr-proj:       7656. kBytes
   fftplans  :       1630. kBytes
   grid      :       6678. kBytes
   one-center:         93. kBytes
   wavefun   :      95646. kBytes
 
     INWAV:  cpu time    0.0000: real time    0.0000
 Broyden mixing: mesh for mixing (old mesh)
   NGX = 35   NGY = 33   NGZ = 33
  (NGX  =140   NGY  =128   NGZ  =128)
  gives a total of  38115 points

 initial charge density was supplied:
 number of electron     266.0000015 magnetization      18.0000006
 keeping initial charge density in first step


--------------------------------------------------------------------------------------------------------


 Maximum index for non-local projection operator          839
 Maximum index for augmentation-charges         1470 (set IRDMAX)


--------------------------------------------------------------------------------------------------------


 First call to EWALD:  gamma=   0.224
 Maximum number of real-space cells 3x 3x 3
 Maximum number of reciprocal cells 3x 3x 3

    FEWALD:  cpu time    0.0056: real time    0.0068


--------------------------------------- Iteration      1(   1)  ---------------------------------------


    POTLOK:  cpu time    0.1000: real time    0.1096
    SETDIJ:  cpu time    0.9020: real time    0.9033
    TRIAL :  cpu time   31.9444: real time   31.9878
    CORREC:  cpu time    0.0065: real time    0.0065
    --------------------------------------------
      LOOP:  cpu time   33.0539: real time   33.1160

 eigenvalue-minimisations  : 37880
 total energy-change (2. order) : 0.2702220E+04  (-0.1505493E+05)
 number of electron     266.0000015 magnetization      18.0000006
 augmentation part      266.0000015 magnetization      18.0000006

 Free energy of the ion-electron system (eV)
  ---------------------------------------------------
  alpha Z        PSCENC =       837.00980788
  Ewald energy   TEWEN  =    -14740.11827832
  -Hartree energ DENC   =     -8146.49267032
  -exchange      EXHF   =         0.00000000
  -V(xc)+E(xc)   XCENC  =      1380.87929993
  PAW double counting   =     40576.99511913   -40922.85169313
  entropy T*S    EENTRO =        -0.00978208
  eigenvalues    EBANDS =       158.56779831
  atomic energy  EATOM  =     23558.24055478
  ---------------------------------------------------
  free energy    TOTEN  =      2702.22015617 eV

  energy without entropy =     2702.22993825  energy(sigma->0) =     2702.22504721


--------------------------------------------------------------------------------------------------------




--------------------------------------- Iteration      1(   2)  ---------------------------------------


    TRIAL :  cpu time   32.3452: real time   32.3802
    CORREC:  cpu time    0.0066: real time    0.0067
    --------------------------------------------
      LOOP:  cpu time   32.3602: real time   32.4796

 eigenvalue-minimisations  : 38824
 total energy-change (2. order) :-0.2866755E+04  (-0.2669662E+04)
 number of electron     266.0000015 magnetization      18.0000006
 augmentation part      266.0000015 magnetization      18.0000006

 Free energy of the ion-electron system (eV)
  ---------------------------------------------------
  alpha Z        PSCENC =       837.00980788
  Ewald energy   TEWEN  =    -14740.11827832
  -Hartree energ DENC   =     -8146.49267032
  -exchange      EXHF   =         0.00000000
  -V(xc)+E(xc)   XCENC  =      1380.87929993
  PAW double counting   =     40576.99511913   -40922.85169313
  entropy T*S    EENTRO =        -0.00560857
  eigenvalues    EBANDS =     -2708.19158033
  atomic energy  EATOM  =     23558.24055478
  ---------------------------------------------------
  free energy    TOTEN  =      -164.53504896 eV

  energy without entropy =     -164.52944039  energy(sigma->0) =     -164.53224467


--------------------------------------------------------------------------------------------------------




--------------------------------------- Iteration      1(   3)  ---------------------------------------


    TRIAL :  cpu time   33.8190: real time   33.8387
    CORREC:  cpu time    0.0038: real time    0.0038
    --------------------------------------------
      LOOP:  cpu time   33.8337: real time   33.8812

 eigenvalue-minimisations  : 41840
 total energy-change (2. order) :-0.3294901E+03  (-0.3219552E+03)
 number of electron     266.0000015 magnetization      18.0000006
 augmentation part      266.0000015 magnetization      18.0000006

 Free energy of the ion-electron system (eV)
  ---------------------------------------------------
  alpha Z        PSCENC =       837.00980788
  Ewald energy   TEWEN  =    -14740.11827832
  -Hartree energ DENC   =     -8146.49267032
  -exchange      EXHF   =         0.00000000
  -V(xc)+E(xc)   XCENC  =      1380.87929993
  PAW double counting   =     40576.99511913   -40922.85169313
  entropy T*S    EENTRO =        -0.00000000
  eigenvalues    EBANDS =     -3037.68731471
  atomic energy  EATOM  =     23558.24055478
  ---------------------------------------------------
  free energy    TOTEN  =      -494.02517477 eV

  energy without entropy =     -494.02517477  energy(sigma->0) =     -494.02517477


--------------------------------------------------------------------------------------------------------




--------------------------------------- Iteration      1(   4)  ---------------------------------------


    TRIAL :  cpu time   36.3269: real time   36.3608
    CORREC:  cpu time    0.0038: real time    0.0038
    --------------------------------------------
      LOOP:  cpu time   36.3402: real time   36.4742

 eigenvalue-minimisations  : 46600
 total energy-change (2. order) :-0.1255867E+02  (-0.1246884E+02)
 number of electron     266.0000015 magnetization      18.0000006
 augmentation part      266.0000015 magnetization      18.0000006

 Free energy of the ion-electron system (eV)
  ---------------------------------------------------
  alpha Z        PSCENC =       837.00980788
  Ewald energy   TEWEN  =    -14740.11827832
  -Hartree energ DENC   =     -8146.49267032
  -exchange      EXHF   =         0.00000000
  -V(xc)+E(xc)   XCENC  =      1380.87929993
  PAW double counting   =     40576.99511913   -40922.85169313
  entropy T*S    EENTRO =        -0.00000000
  eigenvalues    EBANDS =     -3050.24598365
  atomic energy  EATOM  =     23558.24055478
  ---------------------------------------------------
  free energy    TOTEN  =      -506.58384371 eV

  energy without entropy =     -506.58384371  energy(sigma->0) =     -506.58384371


--------------------------------------------------------------------------------------------------------




--------------------------------------- Iteration      1(   5)  ---------------------------------------


    TRIAL :  cpu time   46.3975: real time   46.4230
    CORREC:  cpu time    0.0037: real time    0.0038
    CHARGE:  cpu time    3.8628: real time    3.8806
    --------------------------------------------
      LOOP:  cpu time   50.2690: real time   50.3359

 eigenvalue-minimisations  : 66280
 total energy-change (2. order) :-0.1072453E+01  (-0.1070961E+01)
 number of electron     266.0000015 magnetization      18.0000006
 augmentation part       51.6280771 magnetization      11.7208499

 Free energy of the ion-electron system (eV)
  ---------------------------------------------------
  alpha Z        PSCENC =       837.00980788
  Ewald energy   TEWEN  =    -14740.11827832
  -Hartree energ DENC   =     -8146.49267032
  -exchange      EXHF   =         0.00000000
  -V(xc)+E(xc)   XCENC  =      1380.87929993
  PAW double counting   =     40576.99511913   -40922.85169313
  entropy T*S    EENTRO =        -0.00000000
  eigenvalues    EBANDS =     -3051.31843685
  atomic energy  EATOM  =     23558.24055478
  ---------------------------------------------------
  free energy    TOTEN  =      -507.65629691 eV

  energy without entropy =     -507.65629691  energy(sigma->0) =     -507.65629691


--------------------------------------------------------------------------------------------------------




--------------------------------------- Iteration      1(   6)  ---------------------------------------


    POTLOK:  cpu time    0.0926: real time    0.1005
    SETDIJ:  cpu time    0.8985: real time    0.8990
    TRIAL :  cpu time   25.0504: real time   25.0847
    CORREC:  cpu time   13.1908: real time   13.2078
    CHARGE:  cpu time    3.8262: real time    3.8280
    --------------------------------------------
      LOOP:  cpu time   43.0754: real time   43.2271

 eigenvalue-minimisations  :     0
 total energy-change (2. order) : 0.8517062E+02  (-0.2800856E+01)
 number of electron     266.0000015 magnetization      18.0000006
 augmentation part       52.7880525 magnetization      11.9002315

 Free energy of the ion-electron system (eV)
  ---------------------------------------------------
  alpha Z        PSCENC =       837.00980788
  Ewald energy   TEWEN  =    -14740.11827832
  -Hartree energ DENC   =     -7968.04652882
  -exchange      EXHF   =         0.00000000
  -V(xc)+E(xc)   XCENC  =      1400.93698414
  PAW double counting   =     40533.16086058   -40867.45284838
  entropy T*S    EENTRO =        -0.00000000
  eigenvalues    EBANDS =     -3176.21623178
  atomic energy  EATOM  =     23558.24055478
  ---------------------------------------------------
  free energy    TOTEN  =      -422.48567991 eV

  energy without entropy =     -422.48567991  energy(sigma->0) =     -422.48567991


--------------------------------------------------------------------------------------------------------




--------------------------------------- Iteration      1(   7)  ---------------------------------------


    POTLOK:  cpu time    0.0914: real time    0.0915
    SETDIJ:  cpu time    0.9020: real time    0.9026
    TRIAL :  cpu time   25.0297: real time   25.0501
    CORREC:  cpu time   13.1406: real time   13.1481
    CHARGE:  cpu time    3.8314: real time    3.8332
    --------------------------------------------
      LOOP:  cpu time   43.0003: real time   43.0645

 eigenvalue-minimisations  :     0
 total energy-change (2. order) :-0.2785382E+01  (-0.4351140E+00)
 number of electron     266.0000015 magnetization      18.0000006
 augmentation part       52.9850240 magnetization      11.9557072

 Free energy of the ion-electron system (eV)
  ---------------------------------------------------
  alpha Z        PSCENC =       837.00980788
  Ewald energy   TEWEN  =    -14740.11827832
  -Hartree energ DENC   =     -8139.09229656
  -exchange      EXHF   =         0.00000000
  -V(xc)+E(xc)   XCENC  =      1413.95691713
  PAW double counting   =     40310.39336061   -40652.86755423
  entropy T*S    EENTRO =        -0.00000000
  eigenvalues    EBANDS =     -3012.79357325
  atomic energy  EATOM  =     23558.24055478
  ---------------------------------------------------
  free energy    TOTEN  =      -425.27106195 eV

  energy without entropy =     -425.27106195  energy(sigma->0) =     -425.27106195


--------------------------------------------------------------------------------------------------------




--------------------------------------- Iteration      1(   8)  ---------------------------------------


    POTLOK:  cpu time    0.0928: real time    0.0928
    SETDIJ:  cpu time    0.9003: real time    0.9008
    TRIAL :  cpu time   25.0115: real time   25.0316
    CORREC:  cpu time   13.2086: real time   13.2523
    CHARGE:  cpu time    3.8357: real time    3.8390
    --------------------------------------------
      LOOP:  cpu time   43.0531: real time   43.2272

 eigenvalue-minimisations  :     0
 total energy-change (2. order) :-0.4344811E+00  (-0.1940366E+00)
 number of electron     266.0000015 magnetization      18.0000006
 augmentation part       53.1496805 magnetization      12.0152579

 Free energy of the ion-electron system (eV)
  ---------------------------------------------------
  alpha Z        PSCENC =       837.00980788
  Ewald energy   TEWEN  =    -14740.11827832
  -Hartree energ DENC   =     -8153.25928566
  -exchange      EXHF   =         0.00000000
  -V(xc)+E(xc)   XCENC  =      1415.48010654
  PAW double counting   =     40400.45519563   -40742.50089612
  entropy T*S    EENTRO =        -0.00000000
  eigenvalues    EBANDS =     -3001.01274781
  atomic energy  EATOM  =     23558.24055478
  ---------------------------------------------------
  free energy    TOTEN  =      -425.70554307 eV

  energy without entropy =     -425.70554307  energy(sigma->0) =     -425.70554307


--------------------------------------------------------------------------------------------------------




--------------------------------------- Iteration      1(   9)  ---------------------------------------


    POTLOK:  cpu time    0.0924: real time    0.0997
    SETDIJ:  cpu time    0.9057: real time    0.9062
    TRIAL :  cpu time   25.0519: real time   25.0688
    CORREC:  cpu time   13.1456: real time   13.1598
    CHARGE:  cpu time    3.8445: real time    3.8487
    --------------------------------------------
      LOOP:  cpu time   43.0452: real time   43.1284

 eigenvalue-minimisations  :     0
 total energy-change (2. order) :-0.1947732E+00  (-0.7139429E-01)
 number of electron     266.0000015 magnetization      18.0000006
 augmentation part       53.2178097 magnetization      12.0189232

 Free energy of the ion-electron system (eV)
  ---------------------------------------------------
  alpha Z        PSCENC =       837.00980788
  Ewald energy   TEWEN  =    -14740.11827832
  -Hartree energ DENC   =     -8147.84729725
  -exchange      EXHF   =         0.00000000
  -V(xc)+E(xc)   XCENC  =      1414.99028604
  PAW double counting   =     40623.11875770   -40967.23522208
  entropy T*S    EENTRO =        -0.00000000
  eigenvalues    EBANDS =     -3004.05892504
  atomic energy  EATOM  =     23558.24055478
  ---------------------------------------------------
  free energy    TOTEN  =      -425.90031629 eV

  energy without entropy =     -425.90031629  energy(sigma->0) =     -425.90031629


--------------------------------------------------------------------------------------------------------




--------------------------------------- Iteration      1(  10)  ---------------------------------------


    POTLOK:  cpu time    0.0915: real time    0.0915
    SETDIJ:  cpu time    0.8983: real time    0.8988
    TRIAL :  cpu time   25.1458: real time   25.1707
    CORREC:  cpu time   13.0948: real time   13.1107
    CHARGE:  cpu time    3.8431: real time    3.8450
    --------------------------------------------
      LOOP:  cpu time   43.0821: real time   43.2526

 eigenvalue-minimisations  :     0
 total energy-change (2. order) :-0.7134699E-01  (-0.4026102E-01)
 number of electron     266.0000015 magnetization      18.0000006
 augmentation part       53.2436546 magnetization      12.0025269

 Free energy of the ion-electron system (eV)
  ---------------------------------------------------
  alpha Z        PSCENC =       837.00980788
  Ewald energy   TEWEN  =    -14740.11827832
  -Hartree energ DENC   =     -8144.21955012
  -exchange      EXHF   =         0.00000000
  -V(xc)+E(xc)   XCENC  =      1414.70010734
  PAW double counting   =     40709.23130287   -41054.36811336
  entropy T*S    EENTRO =        -0.00000000
  eigenvalues    EBANDS =     -3006.44749435
  atomic energy  EATOM  =     23558.24055478
  ---------------------------------------------------
  free energy    TOTEN  =      -425.97166328 eV

  energy without entropy =     -425.97166328  energy(sigma->0) =     -425.97166328


--------------------------------------------------------------------------------------------------------




--------------------------------------- Iteration      1(  11)  ---------------------------------------


    POTLOK:  cpu time    0.0910: real time    0.0913
    SETDIJ:  cpu time    0.9022: real time    0.9028
    TRIAL :  cpu time   25.0563: real time   25.0768
    CORREC:  cpu time   13.1204: real time   13.1429
    CHARGE:  cpu time    3.8204: real time    3.8550
    --------------------------------------------
      LOOP:  cpu time   42.9974: real time   43.1102

 eigenvalue-minimisations  :     0
 total energy-change (2. order) :-0.3980056E-01  (-0.1840865E-01)
 number of electron     266.0000015 magnetization      18.0000006
 augmentation part       53.2722804 magnetization      11.9966361

 Free energy of the ion-electron system (eV)
  ---------------------------------------------------
  alpha Z        PSCENC =       837.00980788
  Ewald energy   TEWEN  =    -14740.11827832
  -Hartree energ DENC   =     -8144.36389528
  -exchange      EXHF   =         0.00000000
  -V(xc)+E(xc)   XCENC  =      1414.79614985
  PAW double counting   =     40712.11252130   -41057.49062870
  entropy T*S    EENTRO =        -0.00000000
  eigenvalues    EBANDS =     -3006.19769536
  atomic energy  EATOM  =     23558.24055478
  ---------------------------------------------------
  free energy    TOTEN  =      -426.01146384 eV

  energy without entropy =     -426.01146384  energy(sigma->0) =     -426.01146384


--------------------------------------------------------------------------------------------------------




--------------------------------------- Iteration      1(  12)  ---------------------------------------


    POTLOK:  cpu time    0.0917: real time    0.0923
    SETDIJ:  cpu time    0.8976: real time    0.9043
    TRIAL :  cpu time   24.9674: real time   24.9836
    CORREC:  cpu time   13.2087: real time   13.2189
    CHARGE:  cpu time    3.8422: real time    3.8444
    --------------------------------------------
      LOOP:  cpu time   43.0159: real time   43.1663

 eigenvalue-minimisations  :     0
 total energy-change (2. order) :-0.1858683E-01  (-0.6398436E-02)
 number of electron     266.0000015 magnetization      18.0000006
 augmentation part       53.2927552 magnetization      11.9971528

 Free energy of the ion-electron system (eV)
  ---------------------------------------------------
  alpha Z        PSCENC =       837.00980788
  Ewald energy   TEWEN  =    -14740.11827832
  -Hartree energ DENC   =     -8146.82937436
  -exchange      EXHF   =         0.00000000
  -V(xc)+E(xc)   XCENC  =      1414.94674453
  PAW double counting   =     40696.36815323   -41042.21048227
  entropy T*S    EENTRO =        -0.00000000
  eigenvalues    EBANDS =     -3003.43717614
  atomic energy  EATOM  =     23558.24055478
  ---------------------------------------------------
  free energy    TOTEN  =      -426.03005067 eV

  energy without entropy =     -426.03005067  energy(sigma->0) =     -426.03005067


--------------------------------------------------------------------------------------------------------




--------------------------------------- Iteration      1(  13)  ---------------------------------------


    POTLOK:  cpu time    0.0914: real time    0.0914
    SETDIJ:  cpu time    0.9058: real time    0.9062
    TRIAL :  cpu time   25.0565: real time   25.0807
    CORREC:  cpu time   13.1581: real time   13.1654
    CHARGE:  cpu time    3.8292: real time    3.8311
    --------------------------------------------
      LOOP:  cpu time   43.0465: real time   43.1167

 eigenvalue-minimisations  :     0
 total energy-change (2. order) :-0.6461032E-02  (-0.2604792E-02)
 number of electron     266.0000015 magnetization      18.0000006
 augmentation part       53.3026102 magnetization      11.9944481

 Free energy of the ion-electron system (eV)
  ---------------------------------------------------
  alpha Z        PSCENC =       837.00980788
  Ewald energy   TEWEN  =    -14740.11827832
  -Hartree energ DENC   =     -8147.27778884
  -exchange      EXHF   =         0.00000000
  -V(xc)+E(xc)   XCENC  =      1414.93612507
  PAW double counting   =     40674.93147262   -41021.05017134
  entropy T*S    EENTRO =        -0.00000000
  eigenvalues    EBANDS =     -3002.70823355
  atomic energy  EATOM  =     23558.24055478
  ---------------------------------------------------
  free energy    TOTEN  =      -426.03651170 eV

  energy without entropy =     -426.03651170  energy(sigma->0) =     -426.03651170


--------------------------------------------------------------------------------------------------------




--------------------------------------- Iteration      1(  14)  ---------------------------------------


    POTLOK:  cpu time    0.0914: real time    0.0914
    SETDIJ:  cpu time    0.9011: real time    0.9016
    TRIAL :  cpu time   25.1535: real time   25.1723
    CORREC:  cpu time   13.1286: real time   13.1464
    CHARGE:  cpu time    3.8243: real time    3.8259
    --------------------------------------------
      LOOP:  cpu time   43.1019: real time   43.2105

 eigenvalue-minimisations  :     0
 total energy-change (2. order) :-0.2700732E-02  (-0.1341444E-02)
 number of electron     266.0000015 magnetization      18.0000006
 augmentation part       53.3089253 magnetization      11.9912433

 Free energy of the ion-electron system (eV)
  ---------------------------------------------------
  alpha Z        PSCENC =       837.00980788
  Ewald energy   TEWEN  =    -14740.11827832
  -Hartree energ DENC   =     -8146.98733027
  -exchange      EXHF   =         0.00000000
  -V(xc)+E(xc)   XCENC  =      1414.91585920
  PAW double counting   =     40637.87494341   -40984.01542882
  entropy T*S    EENTRO =        -0.00000000
  eigenvalues    EBANDS =     -3002.95934029
  atomic energy  EATOM  =     23558.24055478
  ---------------------------------------------------
  free energy    TOTEN  =      -426.03921243 eV

  energy without entropy =     -426.03921243  energy(sigma->0) =     -426.03921243


--------------------------------------------------------------------------------------------------------




--------------------------------------- Iteration      1(  15)  ---------------------------------------


    POTLOK:  cpu time    0.0905: real time    0.0977
    SETDIJ:  cpu time    0.9033: real time    0.9035
    TRIAL :  cpu time   25.0578: real time   25.0812
    CORREC:  cpu time   13.1922: real time   13.2081
    CHARGE:  cpu time    3.8254: real time    3.8384
    --------------------------------------------
      LOOP:  cpu time   43.0743: real time   43.1569

 eigenvalue-minimisations  :     0
 total energy-change (2. order) :-0.1410779E-02  (-0.6172957E-03)
 number of electron     266.0000015 magnetization      18.0000006
 augmentation part       53.3128433 magnetization      11.9900014

 Free energy of the ion-electron system (eV)
  ---------------------------------------------------
  alpha Z        PSCENC =       837.00980788
  Ewald energy   TEWEN  =    -14740.11827832
  -Hartree energ DENC   =     -8147.12063565
  -exchange      EXHF   =         0.00000000
  -V(xc)+E(xc)   XCENC  =      1414.92348815
  PAW double counting   =     40595.90654773   -40942.07589900
  entropy T*S    EENTRO =        -0.00000000
  eigenvalues    EBANDS =     -3002.80620878
  atomic energy  EATOM  =     23558.24055478
[...]
  0.000  -0.001   0.000   0.000  -0.000  -0.000  -0.000   0.000   0.000  -0.000   0.000   0.000   0.000  -0.000  -0.000  -0.000
  0.000  -0.001  -0.000  -0.000   0.000  -0.000  -0.000  -0.000  -0.000  -0.000   0.001   0.000  -0.000   0.000   0.000  -0.000
 -0.000  -0.000   0.000   0.000  -0.000  -0.000  -0.000  -0.000  -0.000  -0.001   0.000   0.000  -0.000   0.000   0.000  -0.000
 -0.000   0.001  -0.000  -0.000  -0.000   0.000   0.000   0.000   0.001   0.000  -0.000   0.000  -0.000  -0.000  -0.000   0.000
 -0.000   0.001  -0.000   0.000  -0.000   0.000   0.000   0.000   0.000   0.000   0.000  -0.000   0.000  -0.000   0.000  -0.000
 -0.000   0.000  -0.000  -0.000   0.000   0.000   0.000  -0.000  -0.000  -0.000  -0.000   0.000  -0.000  -0.000   0.000   0.000


------------------------ aborting loop because EDIFF is reached ----------------------------------------


 


 total charge     
 
# of ion       s       p       d       tot
------------------------------------------
    1        2.017   5.864   0.197   8.078
    2        2.017   5.864   0.196   8.077
    3        2.022   5.873   0.229   8.124
    4        2.022   5.872   0.228   8.123
    5        0.301   6.328   4.797  11.425
    6        0.203   6.174   4.927  11.304
    7        0.299   6.326   4.794  11.420
    8        0.202   6.173   4.926  11.302
    9        0.898   1.507   0.000   2.405
   10        0.905   1.530   0.000   2.435
   11        0.899   1.522   0.000   2.421
   12        0.905   1.529   0.000   2.434
   13        0.899   1.522   0.000   2.421
   14        0.904   1.533   0.000   2.437
   15        1.572   3.653   0.000   5.225
   16        1.575   3.622   0.000   5.196
   17        1.573   3.609   0.000   5.182
   18        1.575   3.631   0.000   5.206
   19        1.569   3.679   0.000   5.248
   20        1.573   3.645   0.000   5.218
   21        1.572   3.653   0.000   5.224
   22        1.575   3.631   0.000   5.207
   23        1.569   3.679   0.000   5.248
   24        1.575   3.621   0.000   5.196
   25        1.573   3.609   0.000   5.182
   26        1.573   3.643   0.000   5.216
   27        1.567   3.648   0.000   5.215
   28        1.575   3.614   0.000   5.189
   29        1.572   3.625   0.000   5.198
   30        1.576   3.650   0.000   5.227
   31        1.571   3.642   0.000   5.213
   32        1.574   3.661   0.000   5.234
   33        1.567   3.648   0.000   5.215
   34        1.576   3.651   0.000   5.227
   35        1.571   3.642   0.000   5.213
   36        1.575   3.613   0.000   5.188
   37        1.572   3.625   0.000   5.197
   38        1.573   3.661   0.000   5.234
--------------------------------------------------
tot         52.240 144.971  20.294 217.505
 


 magnetization (x)
 
# of ion       s       p       d       tot
------------------------------------------
    1        0.000   0.000   0.002   0.002
    2        0.000   0.000   0.002   0.002
    3        0.000   0.000   0.002   0.002
    4        0.000   0.000   0.002   0.002
    5        0.022   0.024   3.630   3.675
    6        0.024   0.031   4.471   4.526
    7        0.021   0.023   3.631   3.675
    8        0.024   0.031   4.472   4.527
    9        0.003   0.008   0.000   0.012
   10        0.005   0.009   0.000   0.014
   11        0.005   0.010   0.000   0.015
   12        0.005   0.009   0.000   0.014
   13        0.005   0.010   0.000   0.015
   14        0.002   0.004   0.000   0.007
   15        0.002   0.010   0.000   0.012
   16        0.005   0.014   0.000   0.019
   17        0.005   0.032   0.000   0.037
   18        0.001   0.002   0.000   0.002
   19        0.000   0.024   0.000   0.025
   20        0.004   0.022   0.000   0.026
   21        0.002   0.010   0.000   0.012
   22        0.001   0.001   0.000   0.002
   23        0.000   0.024   0.000   0.025
   24        0.005   0.015   0.000   0.019
   25        0.005   0.034   0.000   0.039
   26        0.004   0.022   0.000   0.026
   27        0.004   0.032   0.000   0.036
   28        0.010   0.043   0.000   0.052
   29        0.005   0.026   0.000   0.031
   30        0.001   0.022   0.000   0.023
   31        0.005   0.025   0.000   0.030
   32        0.001   0.008   0.000   0.009
   33        0.004   0.032   0.000   0.036
   34        0.001   0.023   0.000   0.023
   35        0.005   0.025   0.000   0.030
   36        0.009   0.042   0.000   0.051
   37        0.005   0.026   0.000   0.031
   38        0.001   0.008   0.000   0.009
--------------------------------------------------
tot          0.199   0.681  16.210  17.090
 
    FORLOC:  cpu time    0.0046: real time    0.0046
    FORNL :  cpu time    2.2987: real time    2.3008
    STRESS:  cpu time   70.8356: real time   70.8890
    FORCOR:  cpu time    0.0816: real time    0.0900
    OFIELD:  cpu time    0.0001: real time    0.0001

  FORCE on cell =-STRESS in cart. coord.  units (eV):
  Direction    XX          YY          ZZ          XY          YZ          ZX
  --------------------------------------------------------------------------------------
  Alpha Z   837.00981   837.00981   837.00981
  Ewald   -4711.63987 -5673.54505 -4355.00200  -253.91944  -436.40396   320.90909
  Hartree  2883.10450  2150.55185  3112.79199  -163.92675  -281.97053   208.18588
  E(xc)   -1411.51895 -1411.96818 -1411.71349    -0.11904    -0.20388    -0.16354
  Local   -2252.17368  -562.68244 -2830.76600   414.76159   713.37775  -522.42809
  n-local  -579.66229  -577.22609  -577.77752    -1.33752    -2.29769     1.61967
  augment   655.10156   661.85348   653.11950     2.00479     3.28908    -1.86683
  Kinetic  4579.87616  4576.01857  4572.41702     2.51224     4.22577    -6.28225
  Fock        0.00000     0.00000     0.00000     0.00000     0.00000     0.00000
  -------------------------------------------------------------------------------------
  Total       0.09724     0.01195     0.07930    -0.02412     0.01654    -0.02606
  in kB       0.31526     0.03873     0.25711    -0.07822     0.05363    -0.08450
  external pressure =        0.20 kB  Pullay stress =        0.00 kB


 VOLUME and BASIS-vectors are now :
 -----------------------------------------------------------------------------
  energy-cutoff  :      520.00
  volume of cell :      494.16
      direct lattice vectors                 reciprocal lattice vectors
     2.653429869  7.814994932  4.513174181    -0.002781983  0.131599497 -0.004668024
     0.023342141  0.307001645  8.640985432    -0.063723922 -0.046244905  0.117542695
     7.537335003  0.308589124  4.207656003     0.133849596 -0.046184836  0.001279308

  length of vectors
     9.406570950  8.646468880  8.637766797     0.131711645  0.141476552  0.141599400


 FORCES acting on ions:
    Electron-Ion                     Ewald-Force                    Non-Local-Force
 -----------------------------------------------------------------------------------------------
   0.509E+02 -.852E+01 0.988E+02   -.512E+02 0.752E+01 -.969E+02   0.325E+00 0.101E+01 -.194E+01
   -.615E+02 0.828E+01 -.944E+02   0.596E+02 -.729E+01 0.937E+02   0.190E+01 -.101E+01 0.630E+00
   0.123E+02 0.565E+01 0.169E+02   -.112E+02 -.597E+01 -.175E+02   -.107E+01 0.319E+00 0.613E+00
   -.719E+01 -.752E+01 -.177E+02   0.823E+01 0.782E+01 0.170E+02   -.104E+01 -.298E+00 0.717E+00
   0.487E+02 0.190E+02 0.313E+02   -.490E+02 -.194E+02 -.300E+02   0.341E+00 0.404E+00 -.131E+01
   -.494E+02 0.724E+02 -.102E+03   0.500E+02 -.722E+02 0.104E+03   -.618E+00 -.263E+00 -.201E+01
   -.112E+01 -.146E+02 -.576E+02   -.128E+00 0.151E+02 0.573E+02   0.125E+01 -.487E+00 0.342E+00
   0.642E+02 -.738E+02 0.943E+02   -.656E+02 0.735E+02 -.957E+02   0.133E+01 0.297E+00 0.139E+01
   0.131E+02 -.131E+01 -.884E+01   -.149E+02 0.133E+01 0.981E+01   0.189E+01 -.445E-01 -.990E+00
   0.185E+02 0.173E+02 0.297E+01   -.180E+02 -.185E+02 -.486E+01   -.592E+00 0.119E+01 0.193E+01
   0.288E+01 -.327E+02 0.404E+01   -.484E+01 0.341E+02 -.499E+01   0.203E+01 -.140E+01 0.949E+00
   0.815E+01 -.172E+02 -.173E+02   -.621E+01 0.185E+02 0.178E+02   -.199E+01 -.128E+01 -.520E+00
   -.176E+01 0.331E+02 -.542E+01   0.166E+01 -.345E+02 0.758E+01   0.111E+00 0.140E+01 -.222E+01
   -.912E+02 0.132E+00 0.539E+02   0.924E+02 -.149E+00 -.546E+02   -.120E+01 0.864E-02 0.694E+00
   0.886E+02 0.332E+02 0.100E+03   -.675E+02 -.286E+02 -.119E+03   -.211E+02 -.459E+01 0.189E+02
   -.508E+01 0.772E+02 0.417E+02   0.257E+02 -.105E+03 -.415E+02   -.206E+02 0.277E+02 -.168E+00
   0.728E+02 0.163E+02 0.419E+02   -.969E+02 0.819E+01 -.427E+02   0.242E+02 -.245E+02 0.817E+00
   -.863E+02 -.749E+01 0.129E+03   0.931E+02 0.286E+02 -.158E+03   -.684E+01 -.211E+02 0.290E+02
   -.382E+02 -.280E+02 0.981E+02   0.394E+02 0.541E+01 -.876E+02   -.121E+01 0.226E+02 -.105E+02
   0.983E+02 0.856E+02 0.124E+02   -.127E+03 -.811E+02 0.718E+00   0.283E+02 -.448E+01 -.131E+02
   -.444E+02 -.328E+02 -.127E+03   0.711E+02 0.284E+02 0.117E+03   -.267E+02 0.444E+01 0.944E+01
   -.154E+03 0.812E+01 0.138E+02   0.183E+03 -.292E+02 -.567E+01   -.286E+02 0.211E+02 -.811E+01
   -.102E+03 0.315E+02 -.143E+02   0.930E+02 -.905E+01 0.816E+01   0.885E+01 -.225E+02 0.612E+01
   -.397E+02 -.788E+02 -.153E+02   0.496E+02 0.107E+03 -.278E+01   -.990E+01 -.278E+02 0.181E+02
   -.611E+01 -.228E+02 -.859E+02   -.487E+01 -.157E+01 0.107E+03   0.110E+02 0.244E+02 -.213E+02
   0.396E+02 -.860E+02 -.881E+02   -.651E+02 0.815E+02 0.106E+03   0.255E+02 0.452E+01 -.181E+02
   0.134E+02 0.145E+02 -.350E+02   -.121E+02 -.256E+02 0.977E+01   -.127E+01 0.111E+02 0.252E+02
   0.114E+03 0.939E+01 0.210E+02   -.123E+03 -.389E+02 -.401E+02   0.868E+01 0.295E+02 0.191E+02
   0.966E+02 0.829E+02 0.113E+02   -.126E+03 -.862E+02 -.297E+02   0.296E+02 0.330E+01 0.185E+02
   0.942E+02 0.163E+03 -.243E+02   -.110E+03 -.173E+03 -.189E+01   0.153E+02 0.971E+01 0.262E+02
   -.719E+02 0.332E+01 0.356E+02   0.614E+02 -.290E+02 -.533E+02   0.104E+02 0.257E+02 0.177E+02
   -.963E+02 0.600E+02 0.622E+02   0.798E+02 -.833E+02 -.670E+02   0.165E+02 0.233E+02 0.478E+01
   0.389E+02 -.153E+02 0.129E+01   -.166E+02 0.265E+02 0.107E+02   -.223E+02 -.112E+02 -.120E+02
   0.677E+02 -.160E+03 -.710E+02   -.526E+02 0.170E+03 0.973E+02   -.152E+02 -.951E+01 -.264E+02
   -.672E+02 -.417E+01 0.440E+02   0.776E+02 0.298E+02 -.260E+02   -.103E+02 -.256E+02 -.180E+02
   0.361E+02 -.101E+02 -.110E+03   -.235E+02 0.397E+02 0.127E+03   -.126E+02 -.296E+02 -.169E+02
   0.362E+02 -.816E+02 -.914E+02   -.344E+02 0.848E+02 0.126E+03   -.184E+01 -.322E+01 -.349E+02
   -.982E+02 -.579E+02 0.545E+02   0.940E+02 0.811E+02 -.377E+02   0.418E+01 -.231E+02 -.168E+02
 -----------------------------------------------------------------------------------------------
   -.671E+01 0.542E-02 0.440E+01   0.128E-12 0.995E-13 -.142E-12   0.674E+01 -.559E-01 -.445E+01
 
 
 POSITION                                       TOTAL-FORCE (eV/Angst)
 -----------------------------------------------------------------------------------
      5.49276      4.95625      8.38981         0.009618      0.009779     -0.010266
      3.07928      7.34108     12.88614         0.005783     -0.014209      0.000311
      1.83484      3.13128      8.46013         0.001399      0.003132      0.006046
      6.11346      1.36871      7.11631        -0.003906      0.003009     -0.010886
      6.52094      5.38982     11.32978        -0.002331      0.003575      0.011729
      1.89219      1.37014      2.70639         0.007199      0.000304      0.006452
      8.54754      7.23287     14.77217         0.002727     -0.001868     -0.004921
      3.59791      2.79972      5.64065        -0.001926     -0.003679      0.010259
      7.84697      2.39296      9.82028         0.003207     -0.021132      0.007052
      3.40736      0.58950      8.65601         0.005507     -0.017669     -0.002763
      6.99054      7.62350      8.87363         0.006042      0.002329     -0.016076
      6.68870      3.90365      5.63904        -0.005848      0.014052     -0.011810
      3.38313      4.67894     11.34295        -0.002262      0.001828      0.005707
      2.05064      6.00135      7.62992        -0.024209     -0.007142      0.005696
      4.74613      4.98825     10.68859         0.005151     -0.001667     -0.007350
      7.62711      2.68152      5.71128         0.007472     -0.004442      0.000285
      6.81748      3.52253      9.73028        -0.007651      0.014060     -0.001249
      9.84373      7.22689     10.65301         0.006238      0.014289     -0.002357
      6.81387      6.36096      9.74272         0.002841     -0.005747     -0.000498
      2.05539      0.95017      9.34663        -0.011030      0.002292     -0.003053
      8.22619      7.32139      7.99921        -0.006107      0.004155      0.003155
      3.20963      5.08464      7.98382         0.009416     -0.011446      0.006553
      2.53302      5.93897     11.07696         0.003312     -0.012727     -0.012894
      3.80138      1.81202      7.80324         0.005906      0.002451      0.001091
      7.41515      1.25552     10.75170         0.011536     -0.002519     -0.002022
      5.42596      3.54199      6.48063        -0.008532     -0.003294      0.005254
      0.51554      1.55863      4.16853        -0.009665     -0.006042     -0.008719
      5.80130      7.14088     12.37601        -0.009341      0.008421      0.007004
      5.70993      7.71148      8.05702        -0.000511     -0.006143     -0.000124
      6.30005      4.30902     12.81081        -0.003929      0.004527      0.007161
      2.79853      3.43759     10.68330        -0.006961     -0.003768     -0.001969
      8.39795      5.34069     11.66026         0.014186      0.003271      0.002242
      1.65904      2.61527      6.16250         0.003789      0.000487     -0.001662
      4.48331      0.48914      9.73694        -0.007066      0.004572      0.011925
      4.62238      1.04776      5.19762         0.006443      0.006758     -0.002717
      7.25683      5.16577      6.25209        -0.007653      0.013379      0.005699
      3.44951      4.28123      4.21817         0.001066     -0.000410      0.006273
      9.15888      7.27560     12.96426         0.000090      0.007235     -0.008557
 -----------------------------------------------------------------------------------
    total drift:                                0.029005     -0.050434     -0.051709


--------------------------------------------------------------------------------------------------------



  FREE ENERGIE OF THE ION-ELECTRON SYSTEM (eV)
  ---------------------------------------------------
  free  energy   TOTEN  =      -426.04205043 eV

  energy  without entropy=     -426.04205043  energy(sigma->0) =     -426.04205043
 


--------------------------------------------------------------------------------------------------------


    POTLOK:  cpu time    0.9792: real time    0.9917


--------------------------------------------------------------------------------------------------------




--------------------------------------------------------------------------------------------------------


  
 reached required accuracy - stopping structural energy minimisation
     LOOP+:  cpu time  960.7755: real time  963.1675
    4ORBIT:  cpu time    0.0000: real time    0.0000
 


 total charge     
 
# of ion       s       p       d       tot
------------------------------------------
    1        2.017   5.864   0.197   8.078
    2        2.017   5.864   0.196   8.077
    3        2.022   5.873   0.229   8.124
    4        2.022   5.872   0.228   8.123
    5        0.301   6.328   4.797  11.425
    6        0.203   6.174   4.927  11.304
    7        0.299   6.326   4.794  11.420
    8        0.202   6.173   4.926  11.302
    9        0.898   1.507   0.000   2.405
   10        0.905   1.530   0.000   2.435
   11        0.899   1.522   0.000   2.421
   12        0.905   1.529   0.000   2.434
   13        0.899   1.522   0.000   2.421
   14        0.904   1.533   0.000   2.437
   15        1.572   3.653   0.000   5.225
   16        1.575   3.622   0.000   5.196
   17        1.573   3.609   0.000   5.182
   18        1.575   3.631   0.000   5.206
   19        1.569   3.679   0.000   5.248
   20        1.573   3.645   0.000   5.218
   21        1.572   3.653   0.000   5.224
   22        1.575   3.631   0.000   5.207
   23        1.569   3.679   0.000   5.248
   24        1.575   3.621   0.000   5.196
   25        1.573   3.609   0.000   5.182
   26        1.573   3.643   0.000   5.216
   27        1.567   3.648   0.000   5.215
   28        1.575   3.614   0.000   5.189
   29        1.572   3.625   0.000   5.198
   30        1.576   3.650   0.000   5.227
   31        1.571   3.642   0.000   5.213
   32        1.574   3.661   0.000   5.234
   33        1.567   3.648   0.000   5.215
   34        1.576   3.651   0.000   5.227
   35        1.571   3.642   0.000   5.213
   36        1.575   3.613   0.000   5.188
   37        1.572   3.625   0.000   5.197
   38        1.573   3.661   0.000   5.234
--------------------------------------------------
tot         52.240 144.971  20.294 217.505
 


 magnetization (x)
 
# of ion       s       p       d       tot
------------------------------------------
    1        0.000   0.000   0.002   0.002
    2        0.000   0.000   0.002   0.002
    3        0.000   0.000   0.002   0.002
    4        0.000   0.000   0.002   0.002
    5        0.022   0.024   3.630   3.675
    6        0.024   0.031   4.471   4.526
    7        0.021   0.023   3.631   3.675
    8        0.024   0.031   4.472   4.527
    9        0.003   0.008   0.000   0.012
   10        0.005   0.009   0.000   0.014
   11        0.005   0.010   0.000   0.015
   12        0.005   0.009   0.000   0.014
   13        0.005   0.010   0.000   0.015
   14        0.002   0.004   0.000   0.007
   15        0.002   0.010   0.000   0.012
   16        0.005   0.014   0.000   0.019
   17        0.005   0.032   0.000   0.037
   18        0.001   0.002   0.000   0.002
   19        0.000   0.024   0.000   0.025
   20        0.004   0.022   0.000   0.026
   21        0.002   0.010   0.000   0.012
   22        0.001   0.001   0.000   0.002
   23        0.000   0.024   0.000   0.025
   24        0.005   0.015   0.000   0.019
   25        0.005   0.034   0.000   0.039
   26        0.004   0.022   0.000   0.026
   27        0.004   0.032   0.000   0.036
   28        0.010   0.043   0.000   0.052
   29        0.005   0.026   0.000   0.031
   30        0.001   0.022   0.000   0.023
   31        0.005   0.025   0.000   0.030
   32        0.001   0.008   0.000   0.009
   33        0.004   0.032   0.000   0.036
   34        0.001   0.023   0.000   0.023
   35        0.005   0.025   0.000   0.030
   36        0.009   0.042   0.000   0.051
   37        0.005   0.026   0.000   0.031
   38        0.001   0.008   0.000   0.009
--------------------------------------------------
tot          0.199   0.681  16.210  17.090
 

 total amount of memory used by VASP MPI-rank0   141703. kBytes
=======================================================================

   base      :      30000. kBytes
   nonlr-proj:       7656. kBytes
   fftplans  :       1630. kBytes
   grid      :       6678. kBytes
   one-center:         93. kBytes
   wavefun   :      95646. kBytes
 
  
  
 General timing and accounting informations for this job:
 ========================================================
  
                  Total CPU time used (sec):      995.711
                            User time (sec):      972.711
                          System time (sec):       22.999
                         Elapsed time (sec):      999.119
  
                   Maximum memory used (kb):      383772.
                   Average memory used (kb):           0.
  
                          Minor page faults:       128795
                          Major page faults:            0
                 Voluntary context switches:         2423
