       N       E                     dE             d eps       ncg     rms          rms(c)
DAV:   1     0.256653416367E+04    0.25665E+04   -0.12892E+05 29224   0.148E+03
DAV:   2     0.497779261285E+01   -0.25616E+04   -0.23931E+04 30644   0.406E+02
DAV:   3    -0.263053929320E+03   -0.26803E+03   -0.26446E+03 32492   0.147E+02
DAV:   4    -0.270780586822E+03   -0.77267E+01   -0.76282E+01 37208   0.247E+01
DAV:   5    -0.271120946924E+03   -0.34036E+00   -0.33954E+00 42864   0.405E+00    0.117E+02
DAV:   6    -0.229951865709E+03    0.41169E+02   -0.17992E+02 35488   0.432E+01    0.707E+01
DAV:   7    -0.287382519497E+03   -0.57431E+02   -0.12318E+02 33760   0.776E+01    0.108E+02
DAV:   8    -0.241501710013E+03    0.45881E+02   -0.11171E+02 32332   0.690E+01    0.579E+01
DAV:   9    -0.249710438099E+03   -0.82087E+01   -0.18985E+02 34280   0.447E+01    0.667E+01
DAV:  10    -0.237468049916E+03    0.12242E+02   -0.10667E+02 31560   0.334E+01    0.603E+01
DAV:  11    -0.236472624810E+03    0.99543E+00   -0.69131E+01 33400   0.237E+01    0.596E+01
DAV:  12    -0.230195875862E+03    0.62767E+01   -0.53603E+01 31856   0.192E+01    0.263E+01
DAV:  13    -0.230514415830E+03   -0.31854E+00   -0.16306E+00 33744   0.514E+00    0.284E+01
DAV:  14    -0.231031446765E+03   -0.51703E+00   -0.25321E-01 31904   0.174E+00    0.286E+01
DAV:  15    -0.231410301643E+03   -0.37885E+00   -0.85827E-02 38056   0.178E+00    0.264E+01
DAV:  16    -0.233766750677E+03   -0.23564E+01   -0.13799E+00 37360   0.676E+00    0.239E+01
DAV:  17    -0.232156888556E+03    0.16099E+01   -0.84539E-01 33168   0.697E+00    0.211E+01
DAV:  18    -0.233873604336E+03   -0.17167E+01   -0.87996E-01 37200   0.456E+00    0.162E+01
DAV:  19    -0.234223976657E+03   -0.35037E+00   -0.10154E+00 36032   0.424E+00    0.169E+01
DAV:  20    -0.234369614417E+03   -0.14564E+00   -0.16941E-01 31344   0.156E+00    0.167E+01
DAV:  21    -0.234354146934E+03    0.15467E-01   -0.35293E-01 38560   0.157E+00    0.112E+01
DAV:  22    -0.234351536435E+03    0.26105E-02   -0.12342E-01 38440   0.200E+00    0.916E+00
DAV:  23    -0.234575840463E+03   -0.22430E+00   -0.77162E-02 38944   0.166E+00    0.528E+00
DAV:  24    -0.234653369559E+03   -0.77529E-01   -0.45188E-02 38384   0.116E+00    0.353E+00
DAV:  25    -0.234656228099E+03   -0.28585E-02   -0.31477E-02 37448   0.977E-01    0.371E+00
DAV:  26    -0.234661913068E+03   -0.56850E-02   -0.66032E-03 31408   0.297E-01    0.362E+00
DAV:  27    -0.234667808435E+03   -0.58954E-02   -0.11668E-03 41624   0.203E-01    0.319E+00
DAV:  28    -0.234681305887E+03   -0.13497E-01   -0.52546E-03 37488   0.533E-01    0.221E+00
DAV:  29    -0.234686298456E+03   -0.49926E-02   -0.44855E-03 39768   0.390E-01    0.158E+00
DAV:  30    -0.234687532044E+03   -0.12336E-02   -0.15669E-03 37392   0.168E-01    0.126E+00
DAV:  31    -0.234688928268E+03   -0.13962E-02   -0.48226E-04 39800   0.157E-01    0.843E-01
DAV:  32    -0.234690107943E+03   -0.11797E-02   -0.81961E-04 39936   0.184E-01    0.368E-01
DAV:  33    -0.234690323230E+03   -0.21529E-03   -0.43634E-04 35120   0.774E-02    0.208E-01
DAV:  34    -0.234690363025E+03   -0.39794E-04   -0.31749E-05 25552   0.309E-02    0.136E-01
DAV:  35    -0.234690332453E+03    0.30572E-04   -0.46664E-05 27832   0.420E-02    0.991E-02
DAV:  36    -0.234690313840E+03    0.18613E-04   -0.27375E-05 23256   0.227E-02    0.880E-02
DAV:  37    -0.234690296145E+03    0.17695E-04   -0.81504E-06 17248   0.144E-02    0.778E-02
DAV:  38    -0.234690291545E+03    0.45999E-05   -0.18918E-05 23624   0.277E-02
   1 F= -.23469029E+03 E0= -.23469022E+03  d E =-.234690E+03  mag=    17.9969
       N       E                     dE             d eps       ncg     rms          rms(c)
DAV:   1    -0.234691908952E+03   -0.16128E-02   -0.56750E-04 29568   0.101E-01    0.395E-02
DAV:   2    -0.234691936935E+03   -0.27983E-04   -0.26844E-04 31384   0.949E-02    0.149E-01
DAV:   3    -0.234691902451E+03    0.34484E-04   -0.56598E-05 23264   0.463E-02    0.523E-02
DAV:   4    -0.234691899785E+03    0.26668E-05   -0.11641E-05 16432   0.173E-02
   2 F= -.23469190E+03 E0= -.23469180E+03  d E =-.160824E-02  mag=    17.9997
       N       E                     dE             d eps       ncg     rms          rms(c)
DAV:   1    -0.234739903613E+03   -0.48001E-01   -0.73861E-01 28920   0.362E+00    0.699E-01
DAV:   2    -0.234745038698E+03   -0.51351E-02   -0.59453E-02 30740   0.751E-01    0.421E-01
DAV:   3    -0.234745086728E+03   -0.48030E-04   -0.38356E-03 36920   0.318E-01    0.473E-01
DAV:   4    -0.234744796633E+03    0.29009E-03   -0.13792E-03 36848   0.215E-01    0.194E-01
DAV:   5    -0.234744749979E+03    0.46655E-04   -0.26166E-04 33128   0.821E-02    0.960E-02
DAV:   6    -0.234744748154E+03    0.18249E-05   -0.82423E-05 33712   0.424E-02
   3 F= -.23474475E+03 E0= -.23474471E+03  d E =-.528484E-01  mag=    18.0000
       N       E                     dE             d eps       ncg     rms          rms(c)
DAV:   1    -0.234808238288E+03   -0.63488E-01   -0.40282E+00 28896   0.864E+00    0.129E+00
DAV:   2    -0.234837352385E+03   -0.29114E-01   -0.32524E-01 29620   0.171E+00    0.872E-01
DAV:   3    -0.234838022215E+03   -0.66983E-03   -0.20187E-02 38840   0.677E-01    0.965E-01
DAV:   4    -0.234836780371E+03    0.12418E-02   -0.55170E-03 37256   0.409E-01    0.347E-01
DAV:   5    -0.234836589958E+03    0.19041E-03   -0.11468E-03 34544   0.151E-01    0.188E-01
DAV:   6    -0.234836584244E+03    0.57139E-05   -0.37326E-04 37216   0.101E-01    0.139E-01
DAV:   7    -0.234836577016E+03    0.72283E-05   -0.21232E-04 34184   0.858E-02    0.870E-02
DAV:   8    -0.234836571963E+03    0.50526E-05   -0.38793E-05 24640   0.358E-02
   4 F= -.23483657E+03 E0= -.23483656E+03  d E =-.918238E-01  mag=    18.0000
       N       E                     dE             d eps       ncg     rms          rms(c)
DAV:   1    -0.234875339771E+03   -0.38763E-01   -0.55859E+00 28896   0.102E+01    0.113E+00
DAV:   2    -0.234915934488E+03   -0.40595E-01   -0.44117E-01 28384   0.194E+00    0.836E-01
DAV:   3    -0.234916763204E+03   -0.82872E-03   -0.22722E-02 39560   0.681E-01    0.857E-01
DAV:   4    -0.234915705655E+03    0.10575E-02   -0.41535E-03 37436   0.344E-01    0.286E-01
DAV:   5    -0.234915393800E+03    0.31185E-03   -0.11600E-03 35528   0.147E-01    0.183E-01
DAV:   6    -0.234915407632E+03   -0.13832E-04   -0.58473E-04 37308   0.126E-01    0.171E-01
DAV:   7    -0.234915382163E+03    0.25469E-04   -0.17458E-04 33200   0.830E-02    0.475E-02
DAV:   8    -0.234915382830E+03   -0.66627E-06   -0.26272E-05 24536   0.249E-02
   5 F= -.23491538E+03 E0= -.23491537E+03  d E =-.788109E-01  mag=    18.0000
       N       E                     dE             d eps       ncg     rms          rms(c)
DAV:   1    -0.234891694353E+03    0.23688E-01   -0.12504E+01 28896   0.158E+01    0.172E+00
DAV:   2    -0.234996163420E+03   -0.10447E+00   -0.11227E+00 27764   0.306E+00    0.128E+00
DAV:   3    -0.234998392787E+03   -0.22294E-02   -0.54318E-02 38800   0.106E+00    0.133E+00
DAV:   4    -0.234995838666E+03    0.25541E-02   -0.97775E-03 37960   0.528E-01    0.390E-01
DAV:   5    -0.234995152321E+03    0.68634E-03   -0.29685E-03 35032   0.257E-01    0.343E-01
DAV:   6    -0.234995088939E+03    0.63383E-04   -0.17310E-03 37268   0.229E-01    0.241E-01
DAV:   7    -0.234995047227E+03    0.41711E-04   -0.31456E-04 37312   0.106E-01    0.539E-02
DAV:   8    -0.234995049860E+03   -0.26323E-05   -0.81432E-05 35096   0.359E-02
   6 F= -.23499505E+03 E0= -.23499504E+03  d E =-.796670E-01  mag=    18.0000
       N       E                     dE             d eps       ncg     rms          rms(c)
DAV:   1    -0.234788173224E+03    0.20687E+00   -0.28473E+01 29544   0.246E+01    0.279E+00
DAV:   2    -0.235041035967E+03   -0.25286E+00   -0.26956E+00 27808   0.474E+00    0.205E+00
DAV:   3    -0.235047365392E+03   -0.63294E-02   -0.13547E-01 37896   0.170E+00    0.232E+00
DAV:   4    -0.235040225806E+03    0.71396E-02   -0.32630E-02 36912   0.933E-01    0.684E-01
DAV:   5    -0.235039364525E+03    0.86128E-03   -0.72659E-03 36024   0.436E-01    0.638E-01
DAV:   6    -0.235038825232E+03    0.53929E-03   -0.53114E-03 39056   0.390E-01    0.381E-01
DAV:   7    -0.235038760898E+03    0.64333E-04   -0.90461E-04 35320   0.162E-01    0.821E-02
DAV:   8    -0.235038767463E+03   -0.65650E-05   -0.18873E-04 35960   0.484E-02    0.474E-02
DAV:   9    -0.235038761341E+03    0.61224E-05   -0.42130E-05 28896   0.344E-02
   7 F= -.23503876E+03 E0= -.23503873E+03  d E =-.437115E-01  mag=    18.0000
       N       E                     dE             d eps       ncg     rms          rms(c)
DAV:   1    -0.235042208220E+03   -0.34408E-02   -0.94840E-01 29588   0.466E+00    0.858E-01
DAV:   2    -0.235050216155E+03   -0.80079E-02   -0.84629E-02 31136   0.877E-01    0.398E-01
DAV:   3    -0.235050466835E+03   -0.25068E-03   -0.55905E-03 35464   0.347E-01    0.556E-01
DAV:   4    -0.235050056049E+03    0.41079E-03   -0.21226E-03 36256   0.248E-01    0.200E-01
DAV:   5    -0.235050014488E+03    0.41561E-04   -0.31026E-04 32672   0.828E-02    0.859E-02
DAV:   6    -0.235050006657E+03    0.78309E-05   -0.12252E-04 32968   0.517E-02    0.758E-02
DAV:   7    -0.235050002381E+03    0.42756E-05   -0.50188E-05 24576   0.384E-02
   8 F= -.23505000E+03 E0= -.23504998E+03  d E =-.112410E-01  mag=    18.0000
       N       E                     dE             d eps       ncg     rms          rms(c)
DAV:   1    -0.235049766928E+03    0.23973E-03   -0.25597E-01 28888   0.233E+00    0.294E-01
DAV:   2    -0.235052080495E+03   -0.23136E-02   -0.24109E-02 29200   0.435E-01    0.165E-01
DAV:   3    -0.235052148758E+03   -0.68263E-04   -0.10519E-03 38852   0.135E-01    0.173E-01
DAV:   4    -0.235052108191E+03    0.40567E-04   -0.22159E-04 34480   0.766E-02    0.701E-02
DAV:   5    -0.235052093925E+03    0.14267E-04   -0.52950E-05 30616   0.371E-02    0.499E-02
DAV:   6    -0.235052091170E+03    0.27550E-05   -0.35776E-05 24424   0.337E-02
   9 F= -.23505209E+03 E0= -.23505207E+03  d E =-.208879E-02  mag=    18.0000
       N       E                     dE             d eps       ncg     rms          rms(c)
DAV:   1    -0.235030742634E+03    0.21351E-01   -0.22000E+00 29252   0.802E+00    0.847E-01
DAV:   2    -0.235057557720E+03   -0.26815E-01   -0.26193E-01 29752   0.148E+00    0.535E-01
DAV:   3    -0.235058723363E+03   -0.11656E-02   -0.11165E-02 36736   0.456E-01    0.572E-01
DAV:   4    -0.235058330960E+03    0.39240E-03   -0.19463E-03 36592   0.235E-01    0.171E-01
DAV:   5    -0.235058200523E+03    0.13044E-03   -0.33577E-04 33624   0.858E-02    0.968E-02
DAV:   6    -0.235058170191E+03    0.30332E-04   -0.19538E-04 34384   0.685E-02    0.804E-02
DAV:   7    -0.235058167039E+03    0.31520E-05   -0.85397E-05 29984   0.464E-02
  10 F= -.23505817E+03 E0= -.23505814E+03  d E =-.607587E-02  mag=    18.0000
       N       E                     dE             d eps       ncg     rms          rms(c)
DAV:   1    -0.235015403983E+03    0.42766E-01   -0.44016E+00 30336   0.112E+01    0.107E+00
DAV:   2    -0.235061377698E+03   -0.45974E-01   -0.45524E-01 28700   0.205E+00    0.865E-01
DAV:   3    -0.235063099962E+03   -0.17223E-02   -0.22658E-02 36072   0.702E-01    0.882E-01
DAV:   4    -0.235062202435E+03    0.89753E-03   -0.43075E-03 35728   0.351E-01    0.225E-01
DAV:   5    -0.235061994720E+03    0.20772E-03   -0.87255E-04 32936   0.128E-01    0.165E-01
DAV:   6    -0.235061964988E+03    0.29731E-04   -0.56920E-04 38048   0.120E-01    0.166E-01
DAV:   7    -0.235061937695E+03    0.27293E-04   -0.16636E-04 32800   0.728E-02    0.324E-02
DAV:   8    -0.235061939264E+03   -0.15686E-05   -0.31306E-05 24768   0.265E-02
  11 F= -.23506194E+03 E0= -.23506192E+03  d E =-.377222E-02  mag=    18.0000
       N       E                     dE             d eps       ncg     rms          rms(c)
DAV:   1    -0.234949820856E+03    0.11212E+00   -0.10105E+01 30000   0.168E+01    0.165E+00
DAV:   2    -0.235058074526E+03   -0.10825E+00   -0.10653E+00 28600   0.312E+00    0.136E+00
DAV:   3    -0.235062012907E+03   -0.39384E-02   -0.50286E-02 35760   0.107E+00    0.137E+00
DAV:   4    -0.235059969457E+03    0.20435E-02   -0.98661E-03 35640   0.534E-01    0.337E-01
DAV:   5    -0.235059604735E+03    0.36472E-03   -0.18874E-03 33912   0.201E-01    0.269E-01
DAV:   6    -0.235059516759E+03    0.87976E-04   -0.14064E-03 37520   0.192E-01    0.255E-01
DAV:   7    -0.235059458872E+03    0.57887E-04   -0.38115E-04 36680   0.109E-01    0.428E-02
DAV:   8    -0.235059466289E+03   -0.74178E-05   -0.76576E-05 32736   0.369E-02
  12 F= -.23505947E+03 E0= -.23505944E+03  d E =0.247297E-02  mag=    18.0000
       N       E                     dE             d eps       ncg     rms          rms(c)
DAV:   1    -0.235046097633E+03    0.13361E-01   -0.21032E+00 29672   0.652E+00    0.716E-01
DAV:   2    -0.235060960441E+03   -0.14863E-01   -0.14666E-01 29800   0.118E+00    0.542E-01
DAV:   3    -0.235061516953E+03   -0.55651E-03   -0.74052E-03 35072   0.428E-01    0.592E-01
DAV:   4    -0.235061062033E+03    0.45492E-03   -0.17708E-03 35496   0.233E-01    0.138E-01
DAV:   5    -0.235061013385E+03    0.48648E-04   -0.33663E-04 32944   0.812E-02    0.922E-02
DAV:   6    -0.235061008573E+03    0.48119E-05   -0.17700E-04 34496   0.645E-02    0.930E-02
DAV:   7    -0.235061002227E+03    0.63461E-05   -0.71829E-05 26752   0.457E-02
  13 F= -.23506100E+03 E0= -.23506096E+03  d E =-.153594E-02  mag=    18.0000
       N       E                     dE             d eps       ncg     rms          rms(c)
DAV:   1    -0.235056516476E+03    0.44921E-02   -0.69564E-01 30804   0.452E+00    0.551E-01
DAV:   2    -0.235064193920E+03   -0.76774E-02   -0.75499E-02 29196   0.841E-01    0.449E-01
DAV:   3    -0.235064540330E+03   -0.34641E-03   -0.46958E-03 34584   0.345E-01    0.453E-01
DAV:   4    -0.235064270659E+03    0.26967E-03   -0.98769E-04 35856   0.179E-01    0.959E-02
DAV:   5    -0.235064255733E+03    0.14926E-04   -0.19397E-04 33672   0.565E-02    0.742E-02
DAV:   6    -0.235064251841E+03    0.38925E-05   -0.10028E-04 30952   0.510E-02    0.701E-02
DAV:   7    -0.235064247552E+03    0.42885E-05   -0.29915E-05 22824   0.311E-02
  14 F= -.23506425E+03 E0= -.23506422E+03  d E =-.324533E-02  mag=    18.0000
       N       E                     dE             d eps       ncg     rms          rms(c)
DAV:   1    -0.235062593238E+03    0.16586E-02   -0.39372E-01 29448   0.273E+00    0.242E-01
DAV:   2    -0.235065175851E+03   -0.25826E-02   -0.25414E-02 29448   0.478E-01    0.160E-01
DAV:   3    -0.235065260719E+03   -0.84867E-04   -0.97740E-04 36392   0.137E-01    0.180E-01
DAV:   4    -0.235065219304E+03    0.41415E-04   -0.19095E-04 31252   0.738E-02    0.533E-02
DAV:   5    -0.235065203811E+03    0.15493E-04   -0.41718E-05 29448   0.290E-02    0.292E-02
DAV:   6    -0.235065201502E+03    0.23090E-05   -0.17764E-05 18668   0.206E-02
  15 F= -.23506520E+03 E0= -.23506517E+03  d E =-.953950E-03  mag=    18.0000
       N       E                     dE             d eps       ncg     rms          rms(c)
DAV:   1    -0.234833384430E+03    0.23182E+00   -0.41015E+01 29632   0.265E+01    0.223E+00
DAV:   2    -0.235064373499E+03   -0.23099E+00   -0.22934E+00 29316   0.465E+00    0.191E+00
DAV:   3    -0.235070461646E+03   -0.60881E-02   -0.92831E-02 35368   0.146E+00    0.191E+00
DAV:   4    -0.235065964186E+03    0.44975E-02   -0.19740E-02 36408   0.752E-01    0.573E-01
DAV:   5    -0.235064648805E+03    0.13154E-02   -0.44879E-03 32480   0.308E-01    0.325E-01
DAV:   6    -0.235064446572E+03    0.20223E-03   -0.24295E-03 33320   0.213E-01    0.258E-01
DAV:   7    -0.235064445824E+03    0.74810E-06   -0.10716E-03 35280   0.160E-01    0.155E-01
DAV:   8    -0.235064442502E+03    0.33218E-05   -0.16909E-04 34720   0.712E-02    0.751E-02
DAV:   9    -0.235064439044E+03    0.34583E-05   -0.41572E-05 24952   0.325E-02
  16 F= -.23506444E+03 E0= -.23506439E+03  d E =0.762458E-03  mag=    18.0000
       N       E                     dE             d eps       ncg     rms          rms(c)
DAV:   1    -0.234905423885E+03    0.15902E+00   -0.39567E+01 28552   0.226E+01    0.208E+00
DAV:   2    -0.235057352189E+03   -0.15193E+00   -0.15958E+00 29508   0.393E+00    0.114E+00
DAV:   3    -0.235059037698E+03   -0.16855E-02   -0.49831E-02 37200   0.991E-01    0.137E+00
DAV:   4    -0.235056481962E+03    0.25557E-02   -0.12857E-02 36912   0.627E-01    0.642E-01
DAV:   5    -0.235055284944E+03    0.11970E-02   -0.39730E-03 32568   0.317E-01    0.309E-01
DAV:   6    -0.235055292722E+03   -0.77773E-05   -0.22378E-03 35048   0.215E-01    0.305E-01
DAV:   7    -0.235055229255E+03    0.63466E-04   -0.93141E-04 36392   0.157E-01    0.113E-01
DAV:   8    -0.235055244086E+03   -0.14831E-04   -0.15519E-04 36112   0.592E-02    0.519E-02
DAV:   9    -0.235055244575E+03   -0.48880E-06   -0.26245E-05 24784   0.242E-02
  17 F= -.23505524E+03 E0= -.23505518E+03  d E =0.919447E-02  mag=    18.0000
       N       E                     dE             d eps       ncg     rms          rms(c)
DAV:   1    -0.234878122683E+03    0.17712E+00   -0.29651E+01 30184   0.236E+01    0.222E+00
DAV:   2    -0.235064831213E+03   -0.18671E+00   -0.18512E+00 29356   0.418E+00    0.184E+00
DAV:   3    -0.235071194946E+03   -0.63637E-02   -0.86393E-02 35192   0.143E+00    0.180E+00
DAV:   4    -0.235066490304E+03    0.47046E-02   -0.17042E-02 37552   0.736E-01    0.440E-01
DAV:   5    -0.235065803137E+03    0.68717E-03   -0.41240E-03 33472   0.241E-01    0.351E-01
DAV:   6    -0.235065632095E+03    0.17104E-03   -0.18251E-03 37456   0.229E-01    0.270E-01
DAV:   7    -0.235065604858E+03    0.27237E-04   -0.79668E-04 36416   0.143E-01    0.135E-01
DAV:   8    -0.235065601783E+03    0.30750E-05   -0.18725E-04 34336   0.725E-02    0.587E-02
DAV:   9    -0.235065605033E+03   -0.32500E-05   -0.34826E-05 24320   0.289E-02
  18 F= -.23506561E+03 E0= -.23506557E+03  d E =-.103605E-01  mag=    18.0000
       N       E                     dE             d eps       ncg     rms          rms(c)
DAV:   1    -0.234969495454E+03    0.96106E-01   -0.17965E+01 28600   0.169E+01    0.216E+00
DAV:   2    -0.235064314581E+03   -0.94819E-01   -0.97339E-01 30232   0.302E+00    0.894E-01
DAV:   3    -0.235065023608E+03   -0.70903E-03   -0.32249E-02 35952   0.721E-01    0.856E-01
DAV:   4    -0.235064154742E+03    0.86887E-03   -0.90412E-03 37656   0.475E-01    0.565E-01
DAV:   5    -0.235063369094E+03    0.78565E-03   -0.27352E-03 35832   0.290E-01    0.203E-01
DAV:   6    -0.235063431218E+03   -0.62124E-04   -0.10355E-03 35024   0.148E-01    0.239E-01
DAV:   7    -0.235063381046E+03    0.50172E-04   -0.45891E-04 36176   0.114E-01    0.828E-02
DAV:   8    -0.235063383419E+03   -0.23729E-05   -0.60978E-05 29168   0.383E-02
  19 F= -.23506338E+03 E0= -.23506334E+03  d E =0.222161E-02  mag=    18.0000
       N       E                     dE             d eps       ncg     rms          rms(c)
DAV:   1    -0.234986226695E+03    0.77154E-01   -0.17297E+01 29240   0.164E+01    0.161E+00
DAV:   2    -0.235070142549E+03   -0.83916E-01   -0.85551E-01 29684   0.286E+00    0.983E-01
DAV:   3    -0.235072106980E+03   -0.19644E-02   -0.32094E-02 35944   0.851E-01    0.126E+00
DAV:   4    -0.235069912183E+03    0.21948E-02   -0.91345E-03 36960   0.522E-01    0.386E-01
DAV:   5    -0.235069401759E+03    0.51042E-03   -0.20810E-03 31816   0.210E-01    0.189E-01
DAV:   6    -0.235069384943E+03    0.16816E-04   -0.85150E-04 34824   0.125E-01    0.148E-01
DAV:   7    -0.235069381091E+03    0.38523E-05   -0.34410E-04 34816   0.922E-02    0.872E-02
DAV:   8    -0.235069379822E+03    0.12689E-05   -0.76955E-05 30616   0.440E-02
  20 F= -.23506938E+03 E0= -.23506934E+03  d E =-.599640E-02  mag=    18.0000
       N       E                     dE             d eps       ncg     rms          rms(c)
DAV:   1    -0.235057609680E+03    0.11771E-01   -0.30105E+00 28224   0.584E+00    0.834E-01
DAV:   2    -0.235067547053E+03   -0.99374E-02   -0.10871E-01 30056   0.103E+00    0.463E-01
DAV:   3    -0.235067688120E+03   -0.14107E-03   -0.66080E-03 36328   0.412E-01    0.663E-01
DAV:   4    -0.235067058543E+03    0.62958E-03   -0.20821E-03 38568   0.261E-01    0.157E-01
DAV:   5    -0.235067049146E+03    0.93973E-05   -0.55105E-04 36192   0.107E-01    0.165E-01
DAV:   6    -0.235067025658E+03    0.23488E-04   -0.31742E-04 36560   0.975E-02    0.102E-01
DAV:   7    -0.235067020656E+03    0.50015E-05   -0.57218E-05 27584   0.452E-02
  21 F= -.23506702E+03 E0= -.23506698E+03  d E =0.235917E-02  mag=    18.0000
       N       E                     dE             d eps       ncg     rms          rms(c)
DAV:   1    -0.235061621594E+03    0.54041E-02   -0.22943E+00 28560   0.541E+00    0.683E-01
DAV:   2    -0.235070320607E+03   -0.86990E-02   -0.92921E-02 29940   0.946E-01    0.315E-01
DAV:   3    -0.235070298048E+03    0.22559E-04   -0.37159E-03 36344   0.269E-01    0.377E-01
DAV:   4    -0.235070115824E+03    0.18222E-03   -0.11648E-03 37496   0.170E-01    0.154E-01
DAV:   5    -0.235070052938E+03    0.62886E-04   -0.33150E-04 36872   0.946E-02    0.114E-01
DAV:   6    -0.235070052533E+03    0.40527E-06   -0.18669E-04 34232   0.726E-02    0.103E-01
DAV:   7    -0.235070042176E+03    0.10357E-04   -0.50695E-05 25312   0.458E-02    0.242E-02
DAV:   8    -0.235070043774E+03   -0.15980E-05   -0.11857E-05 18152   0.138E-02
  22 F= -.23507004E+03 E0= -.23507000E+03  d E =-.302312E-02  mag=    18.0000
       N       E                     dE             d eps       ncg     rms          rms(c)
DAV:   1    -0.235069833699E+03    0.20848E-03   -0.42764E-02 30576   0.945E-01    0.917E-02
DAV:   2    -0.235070173893E+03   -0.34019E-03   -0.32728E-03 29888   0.168E-01    0.746E-02
DAV:   3    -0.235070187079E+03   -0.13186E-04   -0.14958E-04 29208   0.579E-02    0.754E-02
DAV:   4    -0.235070179867E+03    0.72123E-05   -0.28795E-05 23248   0.310E-02
  23 F= -.23507018E+03 E0= -.23507014E+03  d E =-.136093E-03  mag=    18.0000
       N       E                     dE             d eps       ncg     rms          rms(c)
DAV:   1    -0.235021283848E+03    0.48903E-01   -0.77587E+00 29496   0.115E+01    0.100E+00
DAV:   2    -0.235069376634E+03   -0.48093E-01   -0.47309E-01 29416   0.204E+00    0.714E-01
DAV:   3    -0.235070910147E+03   -0.15335E-02   -0.17892E-02 35424   0.587E-01    0.736E-01
DAV:   4    -0.235070191006E+03    0.71914E-03   -0.32903E-03 35624   0.304E-01    0.233E-01
DAV:   5    -0.235069919815E+03    0.27119E-03   -0.80942E-04 33088   0.124E-01    0.138E-01
DAV:   6    -0.235069887127E+03    0.32688E-04   -0.36834E-04 34728   0.855E-02    0.636E-02
DAV:   7    -0.235069896126E+03   -0.89993E-05   -0.12895E-04 32968   0.514E-02    0.490E-02
DAV:   8    -0.235069897465E+03   -0.13381E-05   -0.27013E-05 21776   0.264E-02
  24 F= -.23506990E+03 E0= -.23506985E+03  d E =0.282402E-03  mag=    18.0000
       N       E                     dE             d eps       ncg     rms          rms(c)
DAV:   1    -0.234912253817E+03    0.15764E+00   -0.39988E+01 28224   0.215E+01    0.228E+00
DAV:   2    -0.235051031177E+03   -0.13878E+00   -0.14677E+00 29840   0.373E+00    0.136E+00
DAV:   3    -0.235052438973E+03   -0.14078E-02   -0.58604E-02 35536   0.115E+00    0.159E+00
DAV:   4    -0.235048619729E+03    0.38192E-02   -0.17351E-02 37784   0.713E-01    0.541E-01
DAV:   5    -0.235048022874E+03    0.59685E-03   -0.46466E-03 33240   0.316E-01    0.446E-01
DAV:   6    -0.235047958113E+03    0.64761E-04   -0.25807E-03 36224   0.268E-01    0.323E-01
DAV:   7    -0.235047886886E+03    0.71227E-04   -0.93550E-04 35216   0.169E-01    0.106E-01
DAV:   8    -0.235047922839E+03   -0.35953E-04   -0.18277E-04 32360   0.512E-02    0.442E-02
DAV:   9    -0.235047920588E+03    0.22511E-05   -0.24917E-05 23248   0.265E-02
  25 F= -.23504792E+03 E0= -.23504789E+03  d E =0.219769E-01  mag=    18.0000
       N       E                     dE             d eps       ncg     rms          rms(c)
DAV:   1    -0.234991489680E+03    0.56433E-01   -0.13865E+01 29832   0.149E+01    0.190E+00
DAV:   2    -0.235069035856E+03   -0.77546E-01   -0.79079E-01 30496   0.275E+00    0.122E+00
DAV:   3    -0.235071307186E+03   -0.22713E-02   -0.42992E-02 34736   0.100E+00    0.148E+00
DAV:   4    -0.235068500837E+03    0.28063E-02   -0.13487E-02 36864   0.616E-01    0.444E-01
DAV:   5    -0.235068322122E+03    0.17871E-03   -0.26139E-03 34224   0.251E-01    0.341E-01
DAV:   6    -0.235068239648E+03    0.82474E-04   -0.15298E-03 36400   0.210E-01    0.261E-01
DAV:   7    -0.235068180676E+03    0.58973E-04   -0.55959E-04 35912   0.131E-01    0.796E-02
DAV:   8    -0.235068196546E+03   -0.15871E-04   -0.93070E-05 31952   0.376E-02    0.413E-02
DAV:   9    -0.235068194312E+03    0.22338E-05   -0.22118E-05 22344   0.238E-02
  26 F= -.23506819E+03 E0= -.23506815E+03  d E =-.202737E-01  mag=    18.0000
       N       E                     dE             d eps       ncg     rms          rms(c)
DAV:   1    -0.235066077834E+03    0.21187E-02   -0.93511E-01 28112   0.304E+00    0.419E-01
DAV:   2    -0.235068713798E+03   -0.26360E-02   -0.29325E-02 30224   0.516E-01    0.179E-01
DAV:   3    -0.235068615754E+03    0.98044E-04   -0.82527E-04 33584   0.129E-01    0.143E-01
DAV:   4    -0.235068594944E+03    0.20811E-04   -0.26156E-04 37616   0.794E-02    0.115E-01
DAV:   5    -0.235068578910E+03    0.16034E-04   -0.15297E-04 30240   0.656E-02    0.837E-02
DAV:   6    -0.235068571534E+03    0.73755E-05   -0.36121E-05 24576   0.345E-02
  27 F= -.23506857E+03 E0= -.23506854E+03  d E =-.377222E-03  mag=    18.0000
       N       E                     dE             d eps       ncg     rms          rms(c)
DAV:   1    -0.235067696619E+03    0.88229E-03   -0.35479E-01 28896   0.187E+00    0.296E-01
DAV:   2    -0.235068700701E+03   -0.10041E-02   -0.11126E-02 31468   0.326E-01    0.182E-01
DAV:   3    -0.235068712422E+03   -0.11721E-04   -0.72677E-04 34480   0.154E-01    0.232E-01
DAV:   4    -0.235068627725E+03    0.84697E-04   -0.25944E-04 33488   0.982E-02    0.513E-02
DAV:   5    -0.235068627164E+03    0.56035E-06   -0.61303E-05 31168   0.377E-02
  28 F= -.23506863E+03 E0= -.23506859E+03  d E =-.556302E-04  mag=    18.0000
       N       E                     dE             d eps       ncg     rms          rms(c)
DAV:   1    -0.235067882984E+03    0.74474E-03   -0.15828E-01 28560   0.138E+00    0.126E-01
DAV:   2    -0.235068427357E+03   -0.54437E-03   -0.56939E-03 30184   0.235E-01    0.767E-02
DAV:   3    -0.235068430705E+03   -0.33478E-05   -0.20304E-04 34040   0.632E-02    0.790E-02
DAV:   4    -0.235068420966E+03    0.97388E-05   -0.46898E-05 24048   0.353E-02
  29 F= -.23506842E+03 E0= -.23506838E+03  d E =0.206198E-03  mag=    18.0000
       N       E                     dE             d eps       ncg     rms          rms(c)
DAV:   1    -0.235016809747E+03    0.51621E-01   -0.12874E+01 29488   0.128E+01    0.101E+00
DAV:   2    -0.235066038999E+03   -0.49229E-01   -0.50130E-01 29956   0.218E+00    0.603E-01
DAV:   3    -0.235066494413E+03   -0.45541E-03   -0.14145E-02 35088   0.476E-01    0.522E-01
DAV:   4    -0.235066000712E+03    0.49370E-03   -0.28023E-03 36320   0.271E-01    0.335E-01
DAV:   5    -0.235065585384E+03    0.41533E-03   -0.12553E-03 33912   0.183E-01    0.155E-01
DAV:   6    -0.235065578862E+03    0.65222E-05   -0.56112E-04 32728   0.106E-01    0.108E-01
DAV:   7    -0.235065585648E+03   -0.67859E-05   -0.21907E-04 34448   0.751E-02    0.831E-02
DAV:   8    -0.235065583206E+03    0.24414E-05   -0.54446E-05 24792   0.367E-02
  30 F= -.23506558E+03 E0= -.23506556E+03  d E =0.283776E-02  mag=    18.0000
       N       E                     dE             d eps       ncg     rms          rms(c)
DAV:   1    -0.234612470831E+03    0.45311E+00   -0.25064E+01 29344   0.177E+01    0.671E+00
DAV:   2    -0.234743207485E+03   -0.13074E+00   -0.16523E+00 32928   0.392E+00    0.285E+00
DAV:   3    -0.234731228663E+03    0.11979E-01   -0.20951E-01 35760   0.228E+00    0.319E+00
DAV:   4    -0.234718642014E+03    0.12587E-01   -0.56873E-02 36192   0.139E+00    0.120E+00
DAV:   5    -0.234715921700E+03    0.27203E-02   -0.11368E-02 38168   0.745E-01    0.918E-01
DAV:   6    -0.234715174302E+03    0.74740E-03   -0.11058E-02 35280   0.426E-01    0.603E-01
DAV:   7    -0.234714899407E+03    0.27489E-03   -0.10737E-02 34952   0.366E-01    0.495E-01
DAV:   8    -0.234714728436E+03    0.17097E-03   -0.10764E-03 34832   0.170E-01    0.241E-01
DAV:   9    -0.234714641795E+03    0.86640E-04   -0.71572E-04 35824   0.109E-01    0.758E-02
DAV:  10    -0.234714655986E+03   -0.14191E-04   -0.98640E-05 31952   0.453E-02    0.308E-02
DAV:  11    -0.234714658366E+03   -0.23794E-05   -0.22204E-05 23712   0.191E-02
  31 F= -.23471466E+03 E0= -.23471374E+03  d E =0.350925E+00  mag=    18.0000
       N       E                     dE             d eps       ncg     rms          rms(c)
DAV:   1    -0.234952963227E+03   -0.23831E+00   -0.47106E+00 29480   0.642E+00    0.299E+00
DAV:   2    -0.234974248191E+03   -0.21285E-01   -0.27491E-01 33440   0.149E+00    0.157E+00
DAV:   3    -0.234975007791E+03   -0.75960E-03   -0.52805E-02 35616   0.114E+00    0.220E+00
DAV:   4    -0.234968088277E+03    0.69195E-02   -0.22161E-02 36672   0.841E-01    0.700E-01
DAV:   5    -0.234968157042E+03   -0.68766E-04   -0.67062E-03 36496   0.357E-01    0.693E-01
DAV:   6    -0.234967624176E+03    0.53287E-03   -0.47017E-03 34808   0.322E-01    0.312E-01
DAV:   7    -0.234967562453E+03    0.61724E-04   -0.83278E-04 34744   0.166E-01    0.135E-01
DAV:   8    -0.234967566614E+03   -0.41610E-05   -0.11566E-04 32000   0.482E-02    0.657E-02
DAV:   9    -0.234967556666E+03    0.99475E-05   -0.53017E-05 26728   0.367E-02
  32 F= -.23496756E+03 E0= -.23496721E+03  d E =-.252898E+00  mag=    18.0000
       N       E                     dE             d eps       ncg     rms          rms(c)
DAV:   1    -0.235038060619E+03   -0.70494E-01   -0.15268E+00 29320   0.369E+00    0.163E+00
DAV:   2    -0.235044628643E+03   -0.65680E-02   -0.87497E-02 33632   0.859E-01    0.711E-01
DAV:   3    -0.235043708183E+03    0.92046E-03   -0.85545E-03 34456   0.478E-01    0.800E-01
DAV:   4    -0.235042922060E+03    0.78612E-03   -0.46396E-03 36456   0.359E-01    0.359E-01
DAV:   5    -0.235042761871E+03    0.16019E-03   -0.11852E-03 35120   0.185E-01    0.222E-01
DAV:   6    -0.235042725425E+03    0.36446E-04   -0.30953E-04 37760   0.986E-02    0.120E-01
DAV:   7    -0.235042714795E+03    0.10630E-04   -0.21460E-04 31936   0.778E-02    0.826E-02
DAV:   8    -0.235042710359E+03    0.44366E-05   -0.29629E-05 23912   0.318E-02
  33 F= -.23504271E+03 E0= -.23504257E+03  d E =-.751537E-01  mag=    18.0000
       N       E                     dE             d eps       ncg     rms          rms(c)
DAV:   1    -0.235065305710E+03   -0.22591E-01   -0.15461E+00 29560   0.383E+00    0.158E+00
DAV:   2    -0.235072116905E+03   -0.68112E-02   -0.91371E-02 33888   0.908E-01    0.691E-01
DAV:   3    -0.235071109101E+03    0.10078E-02   -0.82692E-03 34856   0.471E-01    0.735E-01
DAV:   4    -0.235070484102E+03    0.62500E-03   -0.41383E-03 36000   0.336E-01    0.331E-01
DAV:   5    -0.235070330510E+03    0.15359E-03   -0.92734E-04 35848   0.161E-01    0.175E-01
DAV:   6    -0.235070296775E+03    0.33734E-04   -0.23561E-04 36480   0.763E-02    0.962E-02
DAV:   7    -0.235070296123E+03    0.65265E-06   -0.17234E-04 32072   0.693E-02    0.960E-02
DAV:   8    -0.235070286596E+03    0.95264E-05   -0.29133E-05 23888   0.331E-02
  34 F= -.23507029E+03 E0= -.23507025E+03  d E =-.275762E-01  mag=    18.0000
       N       E                     dE             d eps       ncg     rms          rms(c)
DAV:   1    -0.235070938435E+03   -0.64231E-03   -0.40133E-02 29392   0.737E-01    0.225E-01
DAV:   2    -0.235071165617E+03   -0.22718E-03   -0.28243E-03 33008   0.160E-01    0.984E-02
DAV:   3    -0.235071144206E+03    0.21411E-04   -0.16198E-04 33584   0.583E-02    0.743E-02
DAV:   4    -0.235071141200E+03    0.30057E-05   -0.89593E-05 27928   0.483E-02
  35 F= -.23507114E+03 E0= -.23507111E+03  d E =-.854604E-03  mag=    18.0000
       N       E                     dE             d eps       ncg     rms          rms(c)
DAV:   1    -0.235071247326E+03   -0.10312E-03   -0.50324E-02 30088   0.927E-01    0.236E-01
DAV:   2    -0.235071542880E+03   -0.29555E-03   -0.35157E-03 32664   0.192E-01    0.138E-01
DAV:   3    -0.235071553816E+03   -0.10937E-04   -0.33240E-04 34536   0.105E-01    0.172E-01
DAV:   4    -0.235071515486E+03    0.38330E-04   -0.16706E-04 31952   0.776E-02    0.637E-02
DAV:   5    -0.235071513035E+03    0.24515E-05   -0.28224E-05 24196   0.307E-02
  36 F= -.23507151E+03 E0= -.23507148E+03  d E =-.371834E-03  mag=    18.0000
       N       E                     dE             d eps       ncg     rms          rms(c)
DAV:   1    -0.235071526305E+03   -0.10819E-04   -0.46559E-03 30008   0.289E-01    0.704E-02
DAV:   2    -0.235071559205E+03   -0.32900E-04   -0.34644E-04 33120   0.638E-02    0.630E-02
DAV:   3    -0.235071557953E+03    0.12520E-05   -0.64909E-05 24872   0.414E-02    0.476E-02
DAV:   4    -0.235071555172E+03    0.27810E-05   -0.96424E-06 17840   0.183E-02
  37 F= -.23507156E+03 E0= -.23507152E+03  d E =-.421378E-04  mag=    18.0000
       N       E                     dE             d eps       ncg     rms          rms(c)
DAV:   1    -0.235071176737E+03    0.38122E-03   -0.41128E-02 29600   0.922E-01    0.158E-01
DAV:   2    -0.235071476005E+03   -0.29927E-03   -0.30140E-03 31568   0.172E-01    0.993E-02
DAV:   3    -0.235071492052E+03   -0.16047E-04   -0.27042E-04 33440   0.851E-02    0.125E-01
DAV:   4    -0.235071468935E+03    0.23117E-04   -0.75146E-05 25328   0.503E-02    0.248E-02
DAV:   5    -0.235071469886E+03   -0.95125E-06   -0.16933E-05 19496   0.190E-02
  38 F= -.23507147E+03 E0= -.23507144E+03  d E =0.852860E-04  mag=    18.0000
       N       E                     dE             d eps       ncg     rms          rms(c)
DAV:   1    -0.235071277119E+03    0.19182E-03   -0.15084E-02 29568   0.604E-01    0.659E-02
DAV:   2    -0.235071408519E+03   -0.13140E-03   -0.13072E-03 31316   0.109E-01    0.326E-02
DAV:   3    -0.235071412820E+03   -0.43012E-05   -0.50890E-05 26244   0.278E-02    0.290E-02
DAV:   4    -0.235071411844E+03    0.97621E-06   -0.10726E-05 18936   0.165E-02
  39 F= -.23507141E+03 E0= -.23507138E+03  d E =0.580429E-04  mag=    18.0000
       N       E                     dE             d eps       ncg     rms          rms(c)
DAV:   1    -0.235070290982E+03    0.11218E-02   -0.10050E-01 29672   0.153E+00    0.173E-01
DAV:   2    -0.235071203702E+03   -0.91272E-03   -0.89517E-03 31232   0.281E-01    0.991E-02
DAV:   3    -0.235071238998E+03   -0.35296E-04   -0.38213E-04 34528   0.840E-02    0.107E-01
DAV:   4    -0.235071223712E+03    0.15285E-04   -0.77432E-05 26248   0.486E-02    0.411E-02
DAV:   5    -0.235071218141E+03    0.55716E-05   -0.18338E-05 20800   0.220E-02
  40 F= -.23507122E+03 E0= -.23507119E+03  d E =0.193703E-03  mag=    18.0000
       N       E                     dE             d eps       ncg     rms          rms(c)
DAV:   1    -0.235068425289E+03    0.27984E-02   -0.28378E-01 29872   0.242E+00    0.396E-01
DAV:   2    -0.235070706031E+03   -0.22807E-02   -0.22677E-02 31696   0.452E-01    0.191E-01
DAV:   3    -0.235070766507E+03   -0.60476E-04   -0.10415E-03 33720   0.162E-01    0.227E-01
DAV:   4    -0.235070702477E+03    0.64030E-04   -0.36131E-04 33192   0.111E-01    0.954E-02
DAV:   5    -0.235070689115E+03    0.13363E-04   -0.69526E-05 30232   0.474E-02    0.426E-02
DAV:   6    -0.235070688223E+03    0.89127E-06   -0.37466E-05 23952   0.286E-02
  41 F= -.23507069E+03 E0= -.23507066E+03  d E =0.529917E-03  mag=    18.0000
       N       E                     dE             d eps       ncg     rms          rms(c)
DAV:   1    -0.235071232600E+03   -0.54349E-03   -0.51882E-02 28968   0.782E-01    0.221E-01
DAV:   2    -0.235071456192E+03   -0.22359E-03   -0.25910E-03 32840   0.159E-01    0.970E-02
DAV:   3    -0.235071459996E+03   -0.38034E-05   -0.28671E-04 32736   0.886E-02    0.162E-01
DAV:   4    -0.235071423238E+03    0.36758E-04   -0.12158E-04 29560   0.634E-02    0.407E-02
DAV:   5    -0.235071423502E+03   -0.26437E-06   -0.14559E-05 20464   0.205E-02
  42 F= -.23507142E+03 E0= -.23507140E+03  d E =-.735279E-03  mag=    18.0000
       N       E                     dE             d eps       ncg     rms          rms(c)
DAV:   1    -0.235071562020E+03   -0.13878E-03   -0.53024E-02 28560   0.784E-01    0.156E-01
DAV:   2    -0.235071753937E+03   -0.19192E-03   -0.21795E-03 31904   0.146E-01    0.789E-02
DAV:   3    -0.235071757803E+03   -0.38656E-05   -0.21592E-04 32716   0.715E-02    0.122E-01
DAV:   4    -0.235071736414E+03    0.21389E-04   -0.77067E-05 25424   0.468E-02    0.263E-02
DAV:   5    -0.235071736895E+03   -0.48094E-06   -0.16058E-05 19344   0.177E-02
  43 F= -.23507174E+03 E0= -.23507171E+03  d E =-.313393E-03  mag=    18.0000
       N       E                     dE             d eps       ncg     rms          rms(c)
DAV:   1    -0.235070803226E+03    0.93319E-03   -0.59937E-01 28880   0.261E+00    0.244E-01
DAV:   2    -0.235072719223E+03   -0.19160E-02   -0.20526E-02 29684   0.441E-01    0.146E-01
DAV:   3    -0.235072722453E+03   -0.32306E-05   -0.69745E-04 35696   0.124E-01    0.161E-01
DAV:   4    -0.235072680749E+03    0.41705E-04   -0.19234E-04 32992   0.774E-02    0.669E-02
DAV:   5    -0.235072667515E+03    0.13234E-04   -0.63214E-05 29928   0.366E-02    0.388E-02
DAV:   6    -0.235072668165E+03   -0.64992E-06   -0.32728E-05 22488   0.271E-02
  44 F= -.23507267E+03 E0= -.23507264E+03  d E =-.931270E-03  mag=    18.0000
       N       E                     dE             d eps       ncg     rms          rms(c)
DAV:   1    -0.235000715824E+03    0.71952E-01   -0.21744E+01 28112   0.151E+01    0.193E+00
DAV:   2    -0.235065561422E+03   -0.64846E-01   -0.69960E-01 30416   0.257E+00    0.108E+00
DAV:   3    -0.235066072227E+03   -0.51081E-03   -0.38896E-02 35544   0.962E-01    0.149E+00
DAV:   4    -0.235062536050E+03    0.35362E-02   -0.11086E-02 36760   0.607E-01    0.346E-01
DAV:   5    -0.235062229333E+03    0.30672E-03   -0.25898E-03 33064   0.220E-01    0.264E-01
DAV:   6    -0.235062223409E+03    0.59237E-05   -0.10849E-03 34304   0.145E-01    0.177E-01
DAV:   7    -0.235062219445E+03    0.39642E-05   -0.46600E-04 34832   0.108E-01    0.120E-01
DAV:   8    -0.235062214165E+03    0.52799E-05   -0.10174E-04 31672   0.504E-02    0.345E-02
DAV:   9    -0.235062214592E+03   -0.42703E-06   -0.15811E-05 21128   0.188E-02
  45 F= -.23506221E+03 E0= -.23506218E+03  d E =0.104536E-01  mag=    18.0000
       N       E                     dE             d eps       ncg     rms          rms(c)
DAV:   1    -0.235033820459E+03    0.28394E-01   -0.42859E+00 29448   0.799E+00    0.251E+00
DAV:   2    -0.235061589108E+03   -0.27769E-01   -0.31696E-01 32552   0.171E+00    0.106E+00
DAV:   3    -0.235058878144E+03    0.27110E-02   -0.17024E-02 33224   0.612E-01    0.764E-01
DAV:   4    -0.235058373240E+03    0.50490E-03   -0.37340E-03 36984   0.313E-01    0.423E-01
DAV:   5    -0.235058276123E+03    0.97117E-04   -0.26430E-03 37232   0.272E-01    0.474E-01
DAV:   6    -0.235058003489E+03    0.27263E-03   -0.12323E-03 36888   0.193E-01    0.100E-01
DAV:   7    -0.235058027372E+03   -0.23883E-04   -0.17545E-04 33424   0.610E-02    0.623E-02
DAV:   8    -0.235058022880E+03    0.44913E-05   -0.52839E-05 25760   0.385E-02
  46 F= -.23505802E+03 E0= -.23505798E+03  d E =0.419171E-02  mag=    18.0000
       N       E                     dE             d eps       ncg     rms          rms(c)
DAV:   1    -0.235056908374E+03    0.11190E-02   -0.58415E+00 28896   0.787E+00    0.157E+00
DAV:   2    -0.235076666489E+03   -0.19758E-01   -0.22307E-01 31736   0.146E+00    0.853E-01
DAV:   3    -0.235077090679E+03   -0.42419E-03   -0.16560E-02 34568   0.713E-01    0.128E+00
DAV:   4    -0.235074890756E+03    0.21999E-02   -0.77099E-03 36160   0.517E-01    0.324E-01
DAV:   5    -0.235074886210E+03    0.45454E-05   -0.11632E-03 33192   0.169E-01    0.196E-01
DAV:   6    -0.235074887012E+03   -0.80222E-06   -0.45433E-04 35768   0.100E-01    0.131E-01
DAV:   7    -0.235074878648E+03    0.83645E-05   -0.24747E-04 32488   0.743E-02    0.771E-02
DAV:   8    -0.235074876009E+03    0.26390E-05   -0.36481E-05 24040   0.313E-02
  47 F= -.23507488E+03 E0= -.23507486E+03  d E =-.168531E-01  mag=    18.0000
       N       E                     dE             d eps       ncg     rms          rms(c)
DAV:   1    -0.235074018276E+03    0.86037E-03   -0.80281E-02 29300   0.130E+00    0.237E-01
DAV:   2    -0.235074687253E+03   -0.66898E-03   -0.68281E-03 31552   0.250E-01    0.107E-01
DAV:   3    -0.235074695712E+03   -0.84598E-05   -0.33834E-04 33648   0.813E-02    0.110E-01
DAV:   4    -0.235074684981E+03    0.10731E-04   -0.12204E-04 29480   0.571E-02    0.663E-02
DAV:   5    -0.235074679254E+03    0.57275E-05   -0.28218E-05 23448   0.320E-02
  48 F= -.23507468E+03 E0= -.23507466E+03  d E =0.196755E-03  mag=    18.0000
       N       E                     dE             d eps       ncg     rms          rms(c)
DAV:   1    -0.235074813525E+03   -0.12854E-03   -0.25056E-02 28224   0.542E-01    0.129E-01
DAV:   2    -0.235074921648E+03   -0.10812E-03   -0.12046E-03 33008   0.109E-01    0.699E-02
DAV:   3    -0.235074924002E+03   -0.23536E-05   -0.11805E-04 29416   0.613E-02    0.994E-02
DAV:   4    -0.235074910248E+03    0.13753E-04   -0.48838E-05 23992   0.419E-02    0.201E-02
DAV:   5    -0.235074910473E+03   -0.22422E-06   -0.10659E-05 17832   0.153E-02
  49 F= -.23507491E+03 E0= -.23507489E+03  d E =-.231219E-03  mag=    18.0000
       N       E                     dE             d eps       ncg     rms          rms(c)
DAV:   1    -0.235074798865E+03    0.11138E-03   -0.70939E-02 28400   0.948E-01    0.130E-01
DAV:   2    -0.235075079822E+03   -0.28096E-03   -0.29184E-03 31168   0.167E-01    0.673E-02
DAV:   3    -0.235075084643E+03   -0.48219E-05   -0.14927E-04 32712   0.593E-02    0.922E-02
DAV:   4    -0.235075072478E+03    0.12165E-04   -0.48714E-05 24760   0.387E-02    0.255E-02
DAV:   5    -0.235075071459E+03    0.10187E-05   -0.11954E-05 17800   0.165E-02
  50 F= -.23507507E+03 E0= -.23507505E+03  d E =-.160987E-03  mag=    18.0000
