       N       E                     dE             d eps       ncg     rms          ort
DAV:   1     0.249499899697E+04    0.24950E+04   -0.13739E+05 10080   0.169E+03
DAV:   2    -0.162764742783E+03   -0.26578E+04   -0.24360E+04 10080   0.437E+02
DAV:   3    -0.481406495708E+03   -0.31864E+03   -0.31306E+03 10080   0.172E+02
DAV:   4    -0.492433518581E+03   -0.11027E+02   -0.10913E+02 10080   0.319E+01
DAV:   5    -0.492838889148E+03   -0.40537E+00   -0.40411E+00 10080   0.486E+00
SDA:   6    -0.183952454345E+03    0.30889E+03   -0.40411E+00 10080   0.119E+04 0.000E+00
CGA:   7    -0.268850680833E+03   -0.84898E+02   -0.10092E+03 10080   0.178E+04-0.185E+03
CGA:   8    -0.294323136898E+03   -0.25472E+02   -0.76003E+02 10080   0.632E+03-0.161E+03
CGA:   9    -0.317064873522E+03   -0.22742E+02   -0.23477E+02 10080   0.309E+03-0.118E+03
CGA:  10    -0.323801589160E+03   -0.67367E+01   -0.59253E+01 10080   0.381E+03 0.723E+02
CGA:  11    -0.325835899303E+03   -0.20343E+01   -0.15359E+02 10080   0.110E+04-0.729E+03
CGA:  12    -0.326740258263E+03   -0.90436E+00   -0.56642E+02 10080   0.792E+03-0.240E+03
CGA:  13    -0.346591559951E+03   -0.19851E+02   -0.23763E+02 10080   0.260E+03-0.876E+02
CGA:  14    -0.354585653541E+03   -0.79941E+01   -0.56952E+01 10080   0.108E+03 0.118E+03
CGA:  15    -0.358161740597E+03   -0.35761E+01   -0.46406E+01 10080   0.360E+02-0.322E+02
CGA:  16    -0.361046303847E+03   -0.28846E+01   -0.29521E+01 10080   0.405E+02 0.200E+01
CGA:  17    -0.363049995342E+03   -0.20037E+01   -0.28578E+01 10080   0.375E+02-0.134E+01
CGA:  18    -0.364522639532E+03   -0.14726E+01   -0.25205E+01 10080   0.852E+01-0.279E+01
CGA:  19    -0.365082456856E+03   -0.55982E+00   -0.58607E+00 10080   0.217E+01 0.332E+00
CGA:  20    -0.365535651721E+03   -0.45319E+00   -0.41075E+00 10080   0.105E+01 0.550E+00
CGA:  21    -0.365721848791E+03   -0.18620E+00   -0.18827E+00 10080   0.264E+01-0.122E+00
CGA:  22    -0.365756545243E+03   -0.34696E-01   -0.59198E-01 10080   0.628E+01-0.519E+01
CGA:  23    -0.366006899587E+03   -0.25035E+00   -0.28091E+00 10080   0.103E+01-0.890E+00
CGA:  24    -0.365919006840E+03    0.87893E-01   -0.17713E+00 10080   0.141E+02-0.268E+01
CGA:  25    -0.366221356949E+03   -0.30235E+00   -0.62555E+00 10080   0.453E+01-0.601E+01
CGA:  26    -0.366425298447E+03   -0.20394E+00   -0.21710E+00 10080   0.927E+00-0.200E-01
CGA:  27    -0.366538299553E+03   -0.11300E+00   -0.11312E+00 10080   0.149E+01-0.408E-01
CGA:  28    -0.366793720303E+03   -0.25542E+00   -0.23207E+00 10080   0.930E+00 0.373E+00
CGA:  29    -0.366927312905E+03   -0.13359E+00   -0.13587E+00 10080   0.512E+00 0.170E+00
CGA:  30    -0.367004741426E+03   -0.77429E-01   -0.76783E-01 10080   0.126E+00 0.846E-01
CGA:  31    -0.367034156579E+03   -0.29415E-01   -0.27668E-01 10080   0.786E-01 0.234E-01
CGA:  32    -0.367058113952E+03   -0.23957E-01   -0.22104E-01 10080   0.416E-01 0.157E-01
CGA:  33    -0.367081895311E+03   -0.23781E-01   -0.22488E-01 10080   0.505E-01 0.400E-02
CGA:  34    -0.367092729946E+03   -0.10835E-01   -0.10278E-01 10080   0.319E-01 0.151E-01
CGA:  35    -0.367102847486E+03   -0.10118E-01   -0.90769E-02 10080   0.186E-01 0.147E-01
CGA:  36    -0.367109199683E+03   -0.63522E-02   -0.58249E-02 10080   0.181E-01 0.853E-02
CGA:  37    -0.367114653789E+03   -0.54541E-02   -0.50416E-02 10080   0.795E-02 0.117E-01
CGA:  38    -0.367116090396E+03   -0.14366E-02   -0.13912E-02 10080   0.552E-02 0.267E-02
CGA:  39    -0.367117316102E+03   -0.12257E-02   -0.12051E-02 10080   0.315E-02 0.458E-02
CGA:  40    -0.367117936071E+03   -0.61997E-03   -0.57155E-03 10080   0.225E-02 0.214E-02
CGA:  41    -0.367118268443E+03   -0.33237E-03   -0.34542E-03 10080   0.197E-02 0.187E-02
CGA:  42    -0.367118563775E+03   -0.29533E-03   -0.30429E-03 10080   0.174E-02 0.168E-02
CGA:  43    -0.367118801474E+03   -0.23770E-03   -0.25650E-03 10080   0.155E-02 0.152E-02
CGA:  44    -0.367118995252E+03   -0.19378E-03   -0.21859E-03 10080   0.139E-02 0.139E-02
CGA:  45    -0.367119173411E+03   -0.17816E-03   -0.19800E-03 10080   0.126E-02 0.128E-02
CGA:  46    -0.367119309036E+03   -0.13563E-03   -0.16568E-03 10080   0.115E-02 0.118E-02
CGA:  47    -0.367119440471E+03   -0.13143E-03   -0.15474E-03 10080   0.106E-02 0.109E-02
CGA:  48    -0.367119541999E+03   -0.10153E-03   -0.13193E-03 10080   0.978E-03 0.101E-02
CGA:  49    -0.367119638472E+03   -0.96473E-04   -0.12286E-03 10080   0.910E-03 0.943E-03
CGA:  50    -0.367119717553E+03   -0.79082E-04   -0.10827E-03 10080   0.851E-03 0.880E-03
CGA:  51    -0.367119789981E+03   -0.72428E-04   -0.99803E-04 10080   0.798E-03 0.824E-03
CGA:  52    -0.367119852343E+03   -0.62362E-04   -0.90134E-04 10080   0.751E-03 0.774E-03
CGA:  53    -0.367119908339E+03   -0.55997E-04   -0.82806E-04 10080   0.708E-03 0.730E-03
CGA:  54    -0.367119957795E+03   -0.49456E-04   -0.75782E-04 10080   0.670E-03 0.689E-03
CGA:  55    -0.367120002044E+03   -0.44249E-04   -0.69781E-04 10080   0.635E-03 0.652E-03
CGA:  56    -0.367120041577E+03   -0.39533E-04   -0.64336E-04 10080   0.603E-03 0.619E-03
CGA:  57    -0.367120077070E+03   -0.35492E-04   -0.59503E-04 10080   0.575E-03 0.589E-03
CGA:  58    -0.367120108992E+03   -0.31922E-04   -0.55148E-04 10080   0.548E-03 0.561E-03
CGA:  59    -0.367120137776E+03   -0.28784E-04   -0.51222E-04 10080   0.524E-03 0.536E-03
CGA:  60    -0.367120163779E+03   -0.26003E-04   -0.47664E-04 10080   0.502E-03 0.513E-03
CGA:  61    -0.367120187311E+03   -0.23532E-04   -0.44431E-04 10080   0.481E-03 0.491E-03
CGA:  62    -0.367120208638E+03   -0.21327E-04   -0.41481E-04 10080   0.462E-03 0.471E-03
CGA:  63    -0.367120227990E+03   -0.19352E-04   -0.38784E-04 10080   0.444E-03 0.453E-03
CGA:  64    -0.367120245572E+03   -0.17582E-04   -0.36312E-04 10080   0.428E-03 0.436E-03
CGA:  65    -0.367120261561E+03   -0.15989E-04   -0.34040E-04 10080   0.413E-03 0.420E-03
CGA:  66    -0.367120276112E+03   -0.14551E-04   -0.31947E-04 10080   0.398E-03 0.405E-03
CGA:  67    -0.367120289364E+03   -0.13251E-04   -0.30015E-04 10080   0.385E-03 0.391E-03
CGA:  68    -0.367120301436E+03   -0.12073E-04   -0.28227E-04 10080   0.372E-03 0.378E-03
CGA:  69    -0.367120312439E+03   -0.11003E-04   -0.26570E-04 10080   0.360E-03 0.366E-03
CGA:  70    -0.367120322469E+03   -0.10030E-04   -0.25033E-04 10080   0.349E-03 0.354E-03
CGA:  71    -0.367120331613E+03   -0.91440E-05   -0.23603E-04 10080   0.338E-03 0.344E-03
CGA:  72    -0.367120339949E+03   -0.83356E-05   -0.22273E-04 10080   0.329E-03 0.333E-03
CGA:  73    -0.367120347546E+03   -0.75970E-05   -0.21032E-04 10080   0.319E-03 0.324E-03
CGA:  74    -0.367120354467E+03   -0.69214E-05   -0.19874E-04 10080   0.310E-03 0.315E-03
CGA:  75    -0.367120360771E+03   -0.63033E-05   -0.18792E-04 10080   0.302E-03 0.306E-03
CGA:  76    -0.367120366507E+03   -0.57370E-05   -0.17780E-04 10080   0.294E-03 0.298E-03
CGA:  77    -0.367120371725E+03   -0.52180E-05   -0.16832E-04 10080   0.286E-03 0.290E-03
CGA:  78    -0.367120376468E+03   -0.47420E-05   -0.15945E-04 10080   0.279E-03 0.283E-03
CGA:  79    -0.367120380773E+03   -0.43057E-05   -0.15113E-04 10080   0.272E-03 0.276E-03
CGA:  80    -0.367120384679E+03   -0.39059E-05   -0.14333E-04 10080   0.266E-03 0.269E-03
CGA:  81    -0.367120388218E+03   -0.35389E-05   -0.13600E-04 10080   0.260E-03 0.263E-03
CGA:  82    -0.367120391421E+03   -0.32027E-05   -0.12912E-04 10080   0.254E-03 0.257E-03
CGA:  83    -0.367120394315E+03   -0.28946E-05   -0.12266E-04 10080   0.248E-03 0.251E-03
CGA:  84    -0.367120396927E+03   -0.26120E-05   -0.11658E-04 10080   0.243E-03 0.246E-03
CGA:  85    -0.367120399280E+03   -0.23530E-05   -0.11086E-04 10080   0.238E-03 0.240E-03
CGA:  86    -0.367120401394E+03   -0.21133E-05   -0.10547E-04 10080   0.233E-03 0.236E-03
CGA:  87    -0.367120403291E+03   -0.18975E-05   -0.10041E-04 10080   0.229E-03 0.231E-03
   1 F= -.36712040E+03 E0= -.36712040E+03  d E =-.367120E+03  mag=    16.0000
       N       E                     dE             d eps       ncg     rms          ort
SDA:   1    -0.367035827385E+03    0.84574E-01    0.00000E+00 10080   0.225E+00 0.000E+00
CGA:   2    -0.367085341468E+03   -0.49514E-01   -0.46792E-01 10080   0.142E+00 0.203E-01
CGA:   3    -0.367109485691E+03   -0.24144E-01   -0.25106E-01 10080   0.451E-01-0.119E-01
CGA:   4    -0.367116334819E+03   -0.68491E-02   -0.66659E-02 10080   0.806E-02 0.241E-02
CGA:   5    -0.367118060372E+03   -0.17256E-02   -0.22050E-02 10080   0.561E-02-0.282E-02
CGA:   6    -0.367118370705E+03   -0.31033E-03   -0.31775E-03 10080   0.173E-02 0.684E-03
CGA:   7    -0.367118495612E+03   -0.12491E-03   -0.14126E-03 10080   0.841E-03 0.663E-03
CGA:   8    -0.367118597037E+03   -0.10142E-03   -0.10431E-03 10080   0.473E-03 0.459E-03
CGA:   9    -0.367118665532E+03   -0.68494E-04   -0.12972E-03 10080   0.102E-02-0.344E-03
CGA:  10    -0.367118697537E+03   -0.32005E-04   -0.53702E-04 10080   0.196E-03 0.416E-03
CGA:  11    -0.367118695951E+03    0.15856E-05   -0.92407E-05 10080   0.875E-04 0.158E-03
   2 F= -.36711870E+03 E0= -.36711870E+03  d E =0.170734E-02  mag=    16.0000
       N       E                     dE             d eps       ncg     rms          ort
SDA:   1    -0.367073981126E+03    0.44716E-01    0.00000E+00 10080   0.127E+00 0.000E+00
CGA:   2    -0.367102711252E+03   -0.28730E-01   -0.30777E-01 10080   0.120E+00-0.139E-01
CGA:   3    -0.367115576578E+03   -0.12865E-01   -0.12759E-01 10080   0.206E-01 0.678E-02
CGA:   4    -0.367118671168E+03   -0.30946E-02   -0.29594E-02 10080   0.811E-02 0.421E-02
CGA:   5    -0.367120005722E+03   -0.13346E-02   -0.13555E-02 10080   0.231E-02-0.640E-03
CGA:   6    -0.367120309426E+03   -0.30370E-03   -0.28640E-03 10080   0.643E-03 0.633E-03
CGA:   7    -0.367120408180E+03   -0.98754E-04   -0.96148E-04 10080   0.267E-03 0.299E-03
CGA:   8    -0.367120490492E+03   -0.82312E-04   -0.11478E-03 10080   0.383E-03-0.177E-03
CGA:   9    -0.367120500000E+03   -0.95081E-05   -0.23069E-04 10080   0.157E-03 0.233E-03
   3 F= -.36712050E+03 E0= -.36712050E+03  d E =-.967089E-04  mag=    16.0000
       N       E                     dE             d eps       ncg     rms          ort
SDA:   1    -0.367120304505E+03    0.18599E-03    0.00000E+00 10080   0.537E-03 0.000E+00
CGA:   2    -0.367120039323E+03    0.26518E-03   -0.21942E-03 10080   0.723E-02-0.163E-02
CGA:   3    -0.367120410845E+03   -0.37152E-03   -0.44848E-03 10080   0.250E-03 0.119E-02
CGA:   4    -0.367120409683E+03    0.11620E-05   -0.11356E-04 10080   0.754E-04 0.147E-03
CGA:   5    -0.367120408581E+03    0.11013E-05   -0.31437E-05 10080   0.396E-04 0.542E-04
CGA:   6    -0.367120407763E+03    0.81859E-06   -0.16106E-05 10080   0.262E-04 0.322E-04
   4 F= -.36712041E+03 E0= -.36712041E+03  d E =-.447145E-05  mag=    16.0000
       N       E                     dE             d eps       ncg     rms          ort
SDA:   1    -0.367120335803E+03    0.72779E-04    0.00000E+00 10080   0.867E-04 0.000E+00
CGA:   2    -0.367120348605E+03   -0.12802E-04   -0.23056E-04 10080   0.193E-03-0.652E-04
CGA:   3    -0.367120349892E+03   -0.12865E-05   -0.80642E-05 10080   0.452E-04 0.907E-04
CGA:   4    -0.367120348265E+03    0.16267E-05   -0.17091E-05 10080   0.176E-04 0.383E-04
CGA:   5    -0.367120347654E+03    0.61063E-06   -0.51325E-06 10080   0.118E-04 0.142E-04
CGA:   6    -0.367120347228E+03    0.42600E-06   -0.34162E-06 10080   0.904E-05 0.102E-04
   5 F= -.36712035E+03 E0= -.36712035E+03  d E =0.560630E-04  mag=    16.0000
       N       E                     dE             d eps       ncg     rms          ort
SDA:   1    -0.367120297729E+03    0.49925E-04    0.00000E+00 10080   0.380E-04 0.000E+00
CGA:   2    -0.367120312464E+03   -0.14734E-04    0.18485E-05 10080   0.865E-05-0.254E-05
CGA:   3    -0.367120312174E+03    0.28918E-06   -0.22027E-06 10080   0.693E-05 0.729E-05
CGA:   4    -0.367120311740E+03    0.43417E-06   -0.86378E-07 10080   0.594E-05 0.641E-05
CGA:   5    -0.367120311376E+03    0.36452E-06   -0.70187E-07 10080   0.528E-05 0.559E-05
CGA:   6    -0.367120311062E+03    0.31343E-06   -0.60108E-07 10080   0.481E-05 0.503E-05
   6 F= -.36712031E+03 E0= -.36712031E+03  d E =0.922290E-04  mag=    16.0000
       N       E                     dE             d eps       ncg     rms          ort
SDA:   1    -0.367120268980E+03    0.42395E-04    0.00000E+00 10080   0.264E-04 0.000E+00
CGA:   2    -0.367120281028E+03   -0.12047E-04    0.54072E-06 10080   0.366E-05 0.265E-05
CGA:   3    -0.367120283450E+03   -0.24220E-05    0.55699E-07 10080   0.266E-05 0.297E-05
CGA:   4    -0.367120283350E+03    0.99582E-07   -0.49795E-07 10080   0.238E-05 0.250E-05
CGA:   5    -0.367120283274E+03    0.75437E-07   -0.49009E-07 10080   0.219E-05 0.227E-05
CGA:   6    -0.367120283219E+03    0.55159E-07   -0.49588E-07 10080   0.203E-05 0.209E-05
   7 F= -.36712028E+03 E0= -.36712028E+03  d E =0.120072E-03  mag=    16.0000
       N       E                     dE             d eps       ncg     rms          ort
SDA:   1    -0.367091317308E+03    0.28966E-01    0.00000E+00 10080   0.721E-01 0.000E+00
CGA:   2    -0.367113160240E+03   -0.21843E-01   -0.22920E-01 10080   0.362E-01-0.433E-02
CGA:   3    -0.367118226410E+03   -0.50662E-02   -0.49040E-02 10080   0.924E-02 0.254E-02
CGA:   4    -0.367119875699E+03   -0.16493E-02   -0.17021E-02 10080   0.264E-02-0.598E-03
CGA:   5    -0.367120201463E+03   -0.32576E-03   -0.30602E-03 10080   0.663E-03 0.549E-03
CGA:   6    -0.367120336307E+03   -0.13484E-03   -0.12595E-03 10080   0.216E-03 0.132E-03
CGA:   7    -0.367120195980E+03    0.14033E-03   -0.83960E-04 10080   0.185E-02-0.569E-03
CGA:   8    -0.367120326672E+03   -0.13069E-03   -0.16599E-03 10080   0.265E-03 0.439E-03
CGA:   9    -0.367120378822E+03   -0.52151E-04   -0.52283E-04 10080   0.902E-04 0.205E-04
CGA:  10    -0.367119947532E+03    0.43129E-03   -0.23266E-03 10080   0.351E-02-0.588E-03
CGA:  11    -0.367120207312E+03   -0.25978E-03   -0.35591E-03 10080   0.542E-03 0.485E-03
CGA:  12    -0.367120361223E+03   -0.15391E-03   -0.14612E-03 10080   0.209E-03-0.141E-03
CGA:  13    -0.367120377834E+03   -0.16612E-04   -0.20992E-04 10080   0.522E-04 0.284E-04
CGA:  14    -0.367120377889E+03   -0.55006E-07   -0.48842E-05 10080   0.169E-04 0.242E-04
   8 F= -.36712038E+03 E0= -.36712038E+03  d E =-.946701E-04  mag=    16.0000
       N       E                     dE             d eps       ncg     rms          ort
SDA:   1    -0.367112023515E+03    0.83543E-02    0.00000E+00 10080   0.214E-01 0.000E+00
CGA:   2    -0.367118024913E+03   -0.60014E-02   -0.59869E-02 10080   0.933E-02 0.796E-03
CGA:   3    -0.367119793926E+03   -0.17690E-02   -0.17102E-02 10080   0.384E-02-0.684E-03
CGA:   4    -0.367120204517E+03   -0.41059E-03   -0.44992E-03 10080   0.675E-03 0.298E-03
CGA:   5    -0.367120335766E+03   -0.13125E-03   -0.12984E-03 10080   0.246E-03-0.193E-04
CGA:   6    -0.367120396016E+03   -0.60250E-04   -0.79062E-04 10080   0.439E-03-0.229E-03
CGA:   7    -0.367120403306E+03   -0.72895E-05   -0.31730E-04 10080   0.681E-04 0.136E-03
   9 F= -.36712040E+03 E0= -.36712040E+03  d E =-.120087E-03  mag=    16.0000
       N       E                     dE             d eps       ncg     rms          ort
SDA:   1    -0.367117105487E+03    0.32905E-02    0.00000E+00 10080   0.846E-02 0.000E+00
CGA:   2    -0.367119295493E+03   -0.21900E-02   -0.21781E-02 10080   0.473E-02 0.540E-03
CGA:   3    -0.367120209605E+03   -0.91411E-03   -0.86681E-03 10080   0.203E-02-0.742E-03
CGA:   4    -0.367120361077E+03   -0.15147E-03   -0.19113E-03 10080   0.302E-03 0.327E-03
CGA:   5    -0.367120382095E+03   -0.21017E-04   -0.35095E-04 10080   0.121E-03 0.111E-03
CGA:   6    -0.367120420707E+03   -0.38612E-04   -0.40222E-04 10080   0.869E-04-0.721E-04
CGA:   7    -0.367120424345E+03   -0.36378E-05   -0.80521E-05 10080   0.183E-04 0.342E-04
  10 F= -.36712042E+03 E0= -.36712042E+03  d E =-.141126E-03  mag=    16.0000
       N       E                     dE             d eps       ncg     rms          ort
SDA:   1    -0.367107569649E+03    0.12851E-01    0.00000E+00 10080   0.328E-01 0.000E+00
CGA:   2    -0.367117753983E+03   -0.10184E-01   -0.10258E-01 10080   0.147E-01-0.735E-03
CGA:   3    -0.367119894678E+03   -0.21407E-02   -0.21844E-02 10080   0.401E-02 0.681E-03
CGA:   4    -0.367120626378E+03   -0.73170E-03   -0.72224E-03 10080   0.111E-02-0.235E-03
CGA:   5    -0.367120758931E+03   -0.13255E-03   -0.14278E-03 10080   0.262E-03 0.138E-03
CGA:   6    -0.367120833727E+03   -0.74797E-04   -0.86584E-04 10080   0.214E-03-0.136E-03
CGA:   7    -0.367120865088E+03   -0.31360E-04   -0.31196E-04 10080   0.375E-04-0.252E-05
CGA:   8    -0.367120866785E+03   -0.16976E-05   -0.36766E-05 10080   0.136E-04 0.182E-04
  11 F= -.36712087E+03 E0= -.36712087E+03  d E =-.442440E-03  mag=    16.0000
       N       E                     dE             d eps       ncg     rms          ort
SDA:   1    -0.367101966694E+03    0.18898E-01    0.00000E+00 10080   0.469E-01 0.000E+00
CGA:   2    -0.367116531573E+03   -0.14565E-01   -0.14690E-01 10080   0.209E-01-0.110E-02
CGA:   3    -0.367119575538E+03   -0.30440E-02   -0.30975E-02 10080   0.569E-02 0.104E-02
CGA:   4    -0.367120621802E+03   -0.10463E-02   -0.10349E-02 10080   0.162E-02-0.415E-03
CGA:   5    -0.367120805695E+03   -0.18389E-03   -0.20029E-03 10080   0.373E-03 0.247E-03
CGA:   6    -0.367120913265E+03   -0.10757E-03   -0.12721E-03 10080   0.315E-03-0.197E-03
CGA:   7    -0.367120959767E+03   -0.46502E-04   -0.46634E-04 10080   0.528E-04 0.247E-05
CGA:   8    -0.367120963365E+03   -0.35981E-05   -0.57741E-05 10080   0.202E-04 0.241E-04
  12 F= -.36712096E+03 E0= -.36712096E+03  d E =-.539020E-03  mag=    16.0000
       N       E                     dE             d eps       ncg     rms          ort
SDA:   1    -0.367115786569E+03    0.51732E-02    0.00000E+00 10080   0.135E-01 0.000E+00
CGA:   2    -0.367119736157E+03   -0.39496E-02   -0.40675E-02 10080   0.947E-02-0.108E-02
CGA:   3    -0.367120694140E+03   -0.95798E-03   -0.10032E-02 10080   0.210E-02 0.564E-03
CGA:   4    -0.367121063780E+03   -0.36964E-03   -0.37161E-03 10080   0.463E-03 0.779E-04
CGA:   5    -0.367121149340E+03   -0.85560E-04   -0.84998E-04 10080   0.204E-03-0.389E-04
CGA:   6    -0.367121163856E+03   -0.14516E-04   -0.19071E-04 10080   0.602E-04 0.515E-04
CGA:   7    -0.367121177124E+03   -0.13268E-04   -0.13197E-04 10080   0.439E-04-0.634E-05
CGA:   8    -0.367121194553E+03   -0.17428E-04    0.18772E-04 10080   0.385E-04-0.200E-04
CGA:   9    -0.367121195141E+03   -0.58771E-06   -0.16216E-05 10080   0.284E-04 0.955E-05
  13 F= -.36712120E+03 E0= -.36712120E+03  d E =-.231776E-03  mag=    16.0000
       N       E                     dE             d eps       ncg     rms          ort
SDA:   1    -0.367073863029E+03    0.47332E-01    0.00000E+00 10080   0.119E+00 0.000E+00
CGA:   2    -0.367108948963E+03   -0.35086E-01   -0.35664E-01 10080   0.736E-01-0.464E-02
CGA:   3    -0.367117456240E+03   -0.85073E-02   -0.86711E-02 10080   0.172E-01 0.304E-02
CGA:   4    -0.367120609255E+03   -0.31530E-02   -0.31526E-02 10080   0.376E-02-0.321E-03
CGA:   5    -0.367121250294E+03   -0.64104E-03   -0.64131E-03 10080   0.988E-03 0.993E-04
CGA:   6    -0.367121428406E+03   -0.17811E-03   -0.17818E-03 10080   0.311E-03 0.652E-04
CGA:   7    -0.367121309517E+03    0.11889E-03   -0.20753E-03 10080   0.252E-02-0.728E-03
CGA:   8    -0.367121480371E+03   -0.17085E-03   -0.22763E-03 10080   0.330E-03 0.523E-03
CGA:   9    -0.367121537516E+03   -0.57146E-04   -0.59412E-04 10080   0.932E-04 0.508E-04
CGA:  10    -0.367121458768E+03    0.78748E-04   -0.70936E-04 10080   0.119E-02-0.320E-03
CGA:  11    -0.367121513242E+03   -0.54475E-04   -0.96789E-04 10080   0.175E-03 0.318E-03
CGA:  12    -0.367121537510E+03   -0.24268E-04   -0.27872E-04 10080   0.667E-04 0.434E-04
CGA:  13    -0.367121584439E+03   -0.46929E-04    0.22233E-04 10080   0.439E-04-0.374E-04
CGA:  14    -0.367121580475E+03    0.39647E-05   -0.14308E-05 10080   0.224E-04 0.315E-04
  14 F= -.36712158E+03 E0= -.36712158E+03  d E =-.617110E-03  mag=    16.0000
       N       E                     dE             d eps       ncg     rms          ort
SDA:   1    -0.366930674150E+03    0.19091E+00    0.00000E+00 10080   0.479E+00 0.000E+00
CGA:   2    -0.367068754362E+03   -0.13808E+00   -0.13896E+00 10080   0.288E+00-0.879E-02
CGA:   3    -0.367104633486E+03   -0.35879E-01   -0.36206E-01 10080   0.707E-01 0.650E-02
CGA:   4    -0.367117343517E+03   -0.12710E-01   -0.12695E-01 10080   0.146E-01-0.119E-02
CGA:   5    -0.367119795790E+03   -0.24523E-02   -0.24616E-02 10080   0.374E-02 0.570E-03
CGA:   6    -0.367120568003E+03   -0.77221E-03   -0.77475E-03 10080   0.146E-02-0.216E-03
CGA:   7    -0.367120830521E+03   -0.26252E-03   -0.26285E-03 10080   0.635E-03-0.129E-03
CGA:   8    -0.367120942220E+03   -0.11170E-03   -0.11159E-03 10080   0.240E-03 0.241E-04
CGA:   9    -0.367120991582E+03   -0.49363E-04   -0.48929E-04 10080   0.933E-04 0.524E-04
CGA:  10    -0.367121024419E+03   -0.32836E-04   -0.60492E-04 10080   0.195E-03-0.806E-04
CGA:  11    -0.367121035106E+03   -0.10688E-04   -0.19237E-04 10080   0.480E-04 0.797E-04
CGA:  12    -0.367121047139E+03   -0.12032E-04   -0.11985E-04 10080   0.180E-04-0.201E-05
CGA:  13    -0.367121059640E+03   -0.12501E-04    0.21144E-05 10080   0.122E-04 0.495E-06
CGA:  14    -0.367121058917E+03    0.72270E-06   -0.65298E-06 10080   0.859E-05 0.934E-05
  15 F= -.36712106E+03 E0= -.36712106E+03  d E =-.955519E-04  mag=    16.0000
       N       E                     dE             d eps       ncg     rms          ort
SDA:   1    -0.367009879375E+03    0.11118E+00    0.00000E+00 10080   0.279E+00 0.000E+00
CGA:   2    -0.367092741424E+03   -0.82862E-01   -0.82244E-01 10080   0.130E+00 0.554E-02
CGA:   3    -0.367113361953E+03   -0.20621E-01   -0.20481E-01 10080   0.444E-01-0.423E-02
CGA:   4    -0.367119365346E+03   -0.60034E-02   -0.60796E-02 10080   0.792E-02 0.169E-02
CGA:   5    -0.367120961226E+03   -0.15959E-02   -0.16014E-02 10080   0.263E-02-0.603E-03
CGA:   6    -0.367121362139E+03   -0.40091E-03   -0.40390E-03 10080   0.676E-03 0.150E-03
CGA:   7    -0.367121474045E+03   -0.11191E-03   -0.11502E-03 10080   0.218E-03 0.130E-03
CGA:   8    -0.367121547544E+03   -0.73499E-04   -0.86622E-04 10080   0.213E-03-0.880E-04
CGA:   9    -0.367121554222E+03   -0.66785E-05   -0.11792E-04 10080   0.134E-03 0.519E-04
CGA:  10    -0.367121566279E+03   -0.12057E-04   -0.16550E-04 10080   0.604E-04 0.517E-04
CGA:  11    -0.367121560062E+03    0.62175E-05   -0.39982E-04 10080   0.284E-03-0.157E-03
CGA:  12    -0.367121585105E+03   -0.25044E-04   -0.33314E-04 10080   0.556E-04 0.104E-03
CGA:  13    -0.367121602066E+03   -0.16960E-04   -0.21900E-04 10080   0.434E-04-0.518E-04
CGA:  14    -0.367121601984E+03    0.81385E-07   -0.32055E-05 10080   0.164E-04 0.266E-04
  16 F= -.36712160E+03 E0= -.36712160E+03  d E =-.638619E-03  mag=    16.0000
       N       E                     dE             d eps       ncg     rms          ort
SDA:   1    -0.367111817734E+03    0.97843E-02    0.00000E+00 10080   0.250E-01 0.000E+00
CGA:   2    -0.367119644014E+03   -0.78263E-02   -0.80478E-02 10080   0.153E-01-0.168E-02
CGA:   3    -0.367121246016E+03   -0.16020E-02   -0.16655E-02 10080   0.373E-02 0.825E-03
CGA:   4    -0.367121940617E+03   -0.69460E-03   -0.69427E-03 10080   0.732E-03-0.234E-04
CGA:   5    -0.367122062706E+03   -0.12209E-03   -0.12300E-03 10080   0.216E-03 0.417E-04
CGA:   6    -0.367122080140E+03   -0.17435E-04   -0.24515E-04 10080   0.678E-04 0.861E-04
CGA:   7    -0.367122093760E+03   -0.13620E-04   -0.14250E-04 10080   0.280E-04 0.178E-04
CGA:   8    -0.367121962279E+03    0.13148E-03   -0.70832E-04 10080   0.112E-02-0.177E-03
CGA:   9    -0.367122029879E+03   -0.67600E-04   -0.10452E-03 10080   0.194E-03 0.154E-03
CGA:  10    -0.367122084574E+03   -0.54695E-04   -0.52695E-04 10080   0.744E-04-0.236E-04
CGA:  11    -0.367122103187E+03   -0.18613E-04   -0.16329E-04 10080   0.577E-04-0.330E-04
CGA:  12    -0.367122102554E+03    0.63273E-06   -0.22872E-05 10080   0.300E-04 0.120E-04
  17 F= -.36712210E+03 E0= -.36712210E+03  d E =-.500570E-03  mag=    16.0000
       N       E                     dE             d eps       ncg     rms          ort
SDA:   1    -0.367096641264E+03    0.25462E-01    0.00000E+00 10080   0.622E-01 0.000E+00
CGA:   2    -0.367116566539E+03   -0.19925E-01   -0.19967E-01 10080   0.286E-01-0.145E-02
CGA:   3    -0.367120414484E+03   -0.38479E-02   -0.39704E-02 10080   0.919E-02 0.847E-03
CGA:   4    -0.367121929652E+03   -0.15152E-02   -0.14756E-02 10080   0.196E-02-0.315E-03
CGA:   5    -0.367122185423E+03   -0.25577E-03   -0.28368E-03 10080   0.461E-03 0.216E-03
CGA:   6    -0.367122277286E+03   -0.91864E-04   -0.95969E-04 10080   0.132E-03 0.481E-04
CGA:   7    -0.367122317844E+03   -0.40557E-04   -0.40981E-04 10080   0.105E-03-0.324E-04
CGA:   8    -0.367122318089E+03   -0.24493E-06   -0.68304E-05 10080   0.504E-04 0.361E-04
  18 F= -.36712232E+03 E0= -.36712232E+03  d E =-.716104E-03  mag=    16.0000
       N       E                     dE             d eps       ncg     rms          ort
SDA:   1    -0.367111044774E+03    0.11273E-01    0.00000E+00 10080   0.311E-01 0.000E+00
CGA:   2    -0.367118653987E+03   -0.76092E-02   -0.76204E-02 10080   0.196E-01 0.173E-02
CGA:   3    -0.367121857292E+03   -0.32033E-02   -0.30446E-02 10080   0.585E-02-0.159E-02
CGA:   4    -0.367122613276E+03   -0.75598E-03   -0.79875E-03 10080   0.885E-03 0.443E-03
CGA:   5    -0.367122827077E+03   -0.21380E-03   -0.21232E-03 10080   0.347E-03-0.822E-04
CGA:   6    -0.367122878086E+03   -0.51009E-04   -0.50081E-04 10080   0.114E-03-0.115E-04
CGA:   7    -0.367122892516E+03   -0.14430E-04   -0.16825E-04 10080   0.361E-04 0.286E-04
CGA:   8    -0.367122905923E+03   -0.13408E-04   -0.17501E-04 10080   0.658E-04-0.262E-04
CGA:   9    -0.367122912519E+03   -0.65950E-05   -0.79544E-05 10080   0.115E-04 0.114E-04
  19 F= -.36712291E+03 E0= -.36712291E+03  d E =-.594430E-03  mag=    16.0000
       N       E                     dE             d eps       ncg     rms          ort
SDA:   1    -0.367058487155E+03    0.64419E-01    0.00000E+00 10080   0.163E+00 0.000E+00
CGA:   2    -0.367106441048E+03   -0.47954E-01   -0.47796E-01 10080   0.767E-01 0.257E-02
CGA:   3    -0.367118805650E+03   -0.12365E-01   -0.12133E-01 10080   0.266E-01-0.302E-02
CGA:   4    -0.367122329516E+03   -0.35239E-02   -0.36322E-02 10080   0.436E-02 0.122E-02
CGA:   5    -0.367123234781E+03   -0.90527E-03   -0.89784E-03 10080   0.149E-02-0.239E-03
CGA:   6    -0.367123473847E+03   -0.23907E-03   -0.24226E-03 10080   0.427E-03 0.582E-04
CGA:   7    -0.367123554702E+03   -0.80855E-04   -0.82120E-04 10080   0.176E-03 0.326E-04
CGA:   8    -0.367123587214E+03   -0.32512E-04   -0.97394E-04 10080   0.630E-03-0.222E-03
CGA:   9    -0.367123630176E+03   -0.42961E-04   -0.60626E-04 10080   0.107E-03 0.126E-03
CGA:  10    -0.367123653374E+03   -0.23198E-04   -0.23386E-04 10080   0.310E-04 0.395E-05
CGA:  11    -0.367123672616E+03   -0.19242E-04    0.11519E-04 10080   0.272E-04-0.384E-05
CGA:  12    -0.367123673969E+03   -0.13526E-05   -0.24502E-05 10080   0.124E-04 0.882E-05
  20 F= -.36712367E+03 E0= -.36712367E+03  d E =-.135588E-02  mag=    16.0000
       N       E                     dE             d eps       ncg     rms          ort
SDA:   1    -0.367116098233E+03    0.75744E-02    0.00000E+00 10080   0.211E-01 0.000E+00
CGA:   2    -0.367121104028E+03   -0.50058E-02   -0.49632E-02 10080   0.130E-01 0.203E-02
CGA:   3    -0.367123417746E+03   -0.23137E-02   -0.22255E-02 10080   0.446E-02-0.153E-02
CGA:   4    -0.367123922244E+03   -0.50450E-03   -0.54163E-03 10080   0.597E-03 0.502E-03
CGA:   5    -0.367124073486E+03   -0.15124E-03   -0.15162E-03 10080   0.235E-03-0.189E-04
CGA:   6    -0.367123718771E+03    0.35472E-03   -0.16910E-03 10080   0.561E-02-0.981E-03
CGA:   7    -0.367124048160E+03   -0.32939E-03   -0.44164E-03 10080   0.394E-03 0.727E-03
CGA:   8    -0.367124104691E+03   -0.56532E-04   -0.64689E-04 10080   0.178E-03 0.984E-04
CGA:   9    -0.367124150042E+03   -0.45351E-04   -0.76840E-04 10080   0.425E-03-0.261E-03
CGA:  10    -0.367124148508E+03    0.15343E-05   -0.26710E-04 10080   0.912E-04 0.169E-03
  21 F= -.36712415E+03 E0= -.36712415E+03  d E =-.474539E-03  mag=    16.0000
       N       E                     dE             d eps       ncg     rms          ort
SDA:   1    -0.367050698195E+03    0.73452E-01    0.00000E+00 10080   0.187E+00 0.000E+00
CGA:   2    -0.367097619507E+03   -0.46921E-01   -0.46710E-01 10080   0.134E+00 0.598E-02
CGA:   3    -0.367116630445E+03   -0.19011E-01   -0.18745E-01 10080   0.300E-01-0.416E-02
CGA:   4    -0.367121786341E+03   -0.51559E-02   -0.51798E-02 10080   0.532E-02 0.756E-03
CGA:   5    -0.367122849928E+03   -0.10636E-02   -0.10560E-02 10080   0.240E-02-0.487E-03
CGA:   6    -0.367123137648E+03   -0.28772E-03   -0.29907E-03 10080   0.511E-03 0.159E-03
CGA:   7    -0.367123273188E+03   -0.13554E-03   -0.13701E-03 10080   0.249E-03-0.320E-04
CGA:   8    -0.367123331187E+03   -0.57998E-04   -0.59303E-04 10080   0.138E-03-0.280E-04
CGA:   9    -0.367123340156E+03   -0.89690E-05   -0.14410E-04 10080   0.627E-04 0.592E-04
CGA:  10    -0.367123352353E+03   -0.12197E-04   -0.13448E-04 10080   0.285E-04 0.227E-04
CGA:  11    -0.367123216007E+03    0.13635E-03   -0.73613E-04 10080   0.101E-02-0.174E-03
CGA:  12    -0.367123259670E+03   -0.43663E-04   -0.10089E-03 10080   0.229E-03 0.213E-03
CGA:  13    -0.367123324821E+03   -0.65151E-04   -0.62731E-04 10080   0.618E-04-0.187E-04
CGA:  14    -0.367123377869E+03   -0.53048E-04    0.29275E-04 10080   0.187E-03-0.634E-04
CGA:  15    -0.367123364334E+03    0.13535E-04   -0.96950E-05 10080   0.371E-04 0.783E-04
CGA:  16    -0.367123357172E+03    0.71613E-05   -0.17527E-05 10080   0.150E-04 0.296E-04
  22 F= -.36712336E+03 E0= -.36712336E+03  d E =0.316796E-03  mag=    16.0000
       N       E                     dE             d eps       ncg     rms          ort
SDA:   1    -0.367101185328E+03    0.22179E-01    0.00000E+00 10080   0.590E-01 0.000E+00
CGA:   2    -0.367116697003E+03   -0.15512E-01   -0.15400E-01 10080   0.492E-01-0.262E-02
CGA:   3    -0.367122016634E+03   -0.53196E-02   -0.55694E-02 10080   0.827E-02 0.164E-02
CGA:   4    -0.367123633115E+03   -0.16165E-02   -0.16492E-02 10080   0.192E-02 0.321E-03
CGA:   5    -0.367124039122E+03   -0.40601E-03   -0.35807E-03 10080   0.118E-02-0.439E-03
CGA:   6    -0.367124096039E+03   -0.56916E-04   -0.93714E-04 10080   0.326E-03 0.204E-03
CGA:   7    -0.367124102380E+03   -0.63418E-05   -0.30341E-04 10080   0.135E-03 0.123E-03
CGA:   8    -0.367124131334E+03   -0.28954E-04   -0.29169E-04 10080   0.842E-04 0.196E-05
CGA:   9    -0.367124181987E+03   -0.50653E-04    0.77883E-04 10080   0.195E-03-0.911E-04
CGA:  10    -0.367124174155E+03    0.78323E-05   -0.11074E-04 10080   0.535E-04 0.933E-04
  23 F= -.36712417E+03 E0= -.36712417E+03  d E =-.500186E-03  mag=    16.0000
       N       E                     dE             d eps       ncg     rms          ort
SDA:   1    -0.367122672568E+03    0.15094E-02    0.00000E+00 10080   0.367E-02 0.000E+00
CGA:   2    -0.367123908251E+03   -0.12357E-02   -0.13269E-02 10080   0.340E-02-0.748E-03
CGA:   3    -0.367124096824E+03   -0.18857E-03   -0.24672E-03 10080   0.758E-03 0.379E-03
CGA:   4    -0.367124156688E+03   -0.59864E-04   -0.84233E-04 10080   0.297E-03 0.177E-03
CGA:   5    -0.367124219435E+03   -0.62748E-04   -0.56562E-04 10080   0.126E-03-0.814E-04
CGA:   6    -0.367124230053E+03   -0.10618E-04   -0.11868E-04 10080   0.575E-04 0.129E-04
CGA:   7    -0.367124232193E+03   -0.21399E-05   -0.53756E-05 10080   0.240E-04 0.236E-04
  24 F= -.36712423E+03 E0= -.36712423E+03  d E =-.558225E-03  mag=    16.0000
       N       E                     dE             d eps       ncg     rms          ort
SDA:   1    -0.367114118306E+03    0.10112E-01    0.00000E+00 10080   0.260E-01 0.000E+00
CGA:   2    -0.367121904169E+03   -0.77859E-02   -0.77637E-02 10080   0.109E-01 0.246E-03
CGA:   3    -0.367123834962E+03   -0.19308E-02   -0.18949E-02 10080   0.473E-02-0.808E-03
CGA:   4    -0.367124258103E+03   -0.42314E-03   -0.48830E-03 10080   0.687E-03 0.638E-03
CGA:   5    -0.367124354929E+03   -0.96826E-04   -0.10800E-03 10080   0.262E-03 0.158E-03
CGA:   6    -0.367124426082E+03   -0.71152E-04   -0.89688E-04 10080   0.474E-03-0.256E-03
CGA:   7    -0.367124429952E+03   -0.38702E-05   -0.29020E-04 10080   0.853E-04 0.170E-03
  25 F= -.36712443E+03 E0= -.36712443E+03  d E =-.197758E-03  mag=    16.0000
       N       E                     dE             d eps       ncg     rms          ort
SDA:   1    -0.367123525021E+03    0.90106E-03    0.00000E+00 10080   0.261E-02 0.000E+00
CGA:   2    -0.367124073159E+03   -0.54814E-03   -0.54285E-03 10080   0.135E-02 0.379E-03
CGA:   3    -0.367124376189E+03   -0.30303E-03   -0.30327E-03 10080   0.103E-02-0.519E-03
CGA:   4    -0.367124413438E+03   -0.37249E-04   -0.55807E-04 10080   0.339E-03 0.174E-03
CGA:   5    -0.367124415103E+03   -0.16655E-05   -0.20777E-04 10080   0.110E-03 0.139E-03
CGA:   6    -0.367124416359E+03   -0.12560E-05   -0.98549E-05 10080   0.738E-04 0.719E-04
CGA:   7    -0.367124448239E+03   -0.31880E-04    0.29576E-04 10080   0.509E-04-0.314E-05
CGA:   8    -0.367124446620E+03    0.16189E-05   -0.24834E-05 10080   0.242E-04 0.326E-04
  26 F= -.36712445E+03 E0= -.36712445E+03  d E =-.214427E-03  mag=    16.0000
       N       E                     dE             d eps       ncg     rms          ort
SDA:   1    -0.367120736639E+03    0.37116E-02    0.00000E+00 10080   0.953E-02 0.000E+00
CGA:   2    -0.367123248147E+03   -0.25115E-02   -0.27668E-02 10080   0.106E-01-0.202E-02
CGA:   3    -0.367123983649E+03   -0.73550E-03   -0.79835E-03 10080   0.231E-02 0.865E-03
CGA:   4    -0.367124167090E+03   -0.18344E-03   -0.22687E-03 10080   0.100E-02 0.578E-03
CGA:   5    -0.367124317839E+03   -0.15075E-03   -0.15336E-03 10080   0.216E-03 0.653E-04
CGA:   6    -0.367124298973E+03    0.18866E-04   -0.89589E-04 10080   0.150E-02-0.472E-03
CGA:   7    -0.367124350315E+03   -0.51342E-04   -0.94235E-04 10080   0.158E-03 0.396E-03
CGA:   8    -0.367124351297E+03   -0.98215E-06   -0.11169E-04 10080   0.634E-04 0.921E-04
CGA:   9    -0.367124374444E+03   -0.23146E-04    0.37646E-04 10080   0.151E-04 0.240E-04
CGA:  10    -0.367124375694E+03   -0.12502E-05   -0.20017E-05 10080   0.632E-05 0.117E-04
  27 F= -.36712438E+03 E0= -.36712438E+03  d E =-.143500E-03  mag=    16.0000
       N       E                     dE             d eps       ncg     rms          ort
SDA:   1    -0.367109736873E+03    0.14638E-01    0.00000E+00 10080   0.369E-01 0.000E+00
CGA:   2    -0.367121345978E+03   -0.11609E-01   -0.12227E-01 10080   0.226E-01-0.359E-02
CGA:   3    -0.367123459051E+03   -0.21131E-02   -0.22340E-02 10080   0.559E-02 0.211E-02
CGA:   4    -0.367124447897E+03   -0.98885E-03   -0.99018E-03 10080   0.110E-02 0.459E-03
CGA:   5    -0.367124675758E+03   -0.22786E-03   -0.27309E-03 10080   0.154E-02-0.700E-03
CGA:   6    -0.367124721577E+03   -0.45819E-04   -0.94218E-04 10080   0.198E-03 0.455E-03
CGA:   7    -0.367124721806E+03   -0.22860E-06   -0.13729E-04 10080   0.899E-04 0.124E-03
CGA:   8    -0.367124753241E+03   -0.31435E-04    0.62310E-04 10080   0.355E-04 0.455E-04
CGA:   9    -0.367124754680E+03   -0.14397E-05   -0.32795E-05 10080   0.263E-04 0.284E-04
  28 F= -.36712475E+03 E0= -.36712475E+03  d E =-.378987E-03  mag=    16.0000
       N       E                     dE             d eps       ncg     rms          ort
SDA:   1    -0.367118680458E+03    0.60728E-02    0.00000E+00 10080   0.172E-01 0.000E+00
CGA:   2    -0.367122497809E+03   -0.38174E-02   -0.36967E-02 10080   0.172E-01-0.190E-02
CGA:   3    -0.367124412245E+03   -0.19144E-02   -0.20049E-02 10080   0.238E-02 0.650E-03
CGA:   4    -0.367124645598E+03   -0.23335E-03   -0.30591E-03 10080   0.933E-03 0.496E-03
CGA:   5    -0.367124814806E+03   -0.16921E-03   -0.16213E-03 10080   0.207E-03-0.602E-04
CGA:   6    -0.367124846833E+03   -0.32027E-04   -0.34548E-04 10080   0.616E-04 0.322E-04
CGA:   7    -0.367124857013E+03   -0.10180E-04   -0.11617E-04 10080   0.211E-04 0.160E-04
CGA:   8    -0.367124875750E+03   -0.18738E-04    0.79382E-05 10080   0.171E-04-0.476E-06
CGA:   9    -0.367124874168E+03    0.15822E-05   -0.89070E-06 10080   0.121E-04 0.127E-04
  29 F= -.36712487E+03 E0= -.36712487E+03  d E =-.498474E-03  mag=    16.0000
       N       E                     dE             d eps       ncg     rms          ort
SDA:   1    -0.367101919241E+03    0.22957E-01    0.00000E+00 10080   0.564E-01 0.000E+00
CGA:   2    -0.367119113430E+03   -0.17194E-01   -0.17465E-01 10080   0.368E-01-0.336E-02
CGA:   3    -0.367122755238E+03   -0.36418E-02   -0.38776E-02 10080   0.817E-02 0.209E-02
CGA:   4    -0.367124292753E+03   -0.15375E-02   -0.15538E-02 10080   0.150E-02 0.345E-03
CGA:   5    -0.367124630443E+03   -0.33769E-03   -0.33153E-03 10080   0.128E-02-0.492E-03
CGA:   6    -0.367124666277E+03   -0.35834E-04   -0.69874E-04 10080   0.490E-03 0.239E-03
CGA:   7    -0.367124669206E+03   -0.29287E-05   -0.33426E-04 10080   0.176E-03 0.192E-03
CGA:   8    -0.367124680330E+03   -0.11125E-04   -0.20587E-04 10080   0.117E-03 0.761E-04
CGA:   9    -0.367124704977E+03   -0.24647E-04   -0.51283E-04 10080   0.379E-03-0.258E-03
CGA:  10    -0.367124728088E+03   -0.23111E-04   -0.38075E-04 10080   0.799E-04 0.140E-03
CGA:  11    -0.367124743076E+03   -0.14988E-04   -0.15694E-04 10080   0.148E-04 0.120E-04
CGA:  12    -0.367124750199E+03   -0.71232E-05    0.34025E-04 10080   0.104E-04 0.218E-05
  30 F= -.36712475E+03 E0= -.36712475E+03  d E =-.374505E-03  mag=    16.0000
       N       E                     dE             d eps       ncg     rms          ort
SDA:   1    -0.367114886172E+03    0.98569E-02    0.00000E+00 10080   0.245E-01 0.000E+00
CGA:   2    -0.367122562020E+03   -0.76758E-02   -0.75239E-02 10080   0.788E-02 0.130E-02
CGA:   3    -0.367124379641E+03   -0.18176E-02   -0.18510E-02 10080   0.419E-02-0.127E-02
CGA:   4    -0.367124674634E+03   -0.29499E-03   -0.34205E-03 10080   0.743E-03 0.468E-03
CGA:   5    -0.367124752652E+03   -0.78018E-04   -0.91383E-04 10080   0.290E-03 0.162E-03
CGA:   6    -0.367124820644E+03   -0.67992E-04   -0.96596E-04 10080   0.517E-03-0.337E-03
CGA:   7    -0.367124838139E+03   -0.17495E-04   -0.38558E-04 10080   0.945E-04 0.178E-03
CGA:   8    -0.367124846370E+03   -0.82314E-05   -0.11751E-04 10080   0.287E-04 0.371E-04
  31 F= -.36712485E+03 E0= -.36712485E+03  d E =-.470676E-03  mag=    16.0000
       N       E                     dE             d eps       ncg     rms          ort
SDA:   1    -0.367115890981E+03    0.89472E-02    0.00000E+00 10080   0.241E-01 0.000E+00
CGA:   2    -0.367122784139E+03   -0.68932E-02   -0.71043E-02 10080   0.162E-01-0.189E-02
CGA:   3    -0.367124325676E+03   -0.15415E-02   -0.16370E-02 10080   0.375E-02 0.126E-02
CGA:   4    -0.367125053081E+03   -0.72740E-03   -0.72788E-03 10080   0.801E-03 0.119E-03
CGA:   5    -0.367125215485E+03   -0.16240E-03   -0.18279E-03 10080   0.116E-02-0.551E-03
CGA:   6    -0.367125248892E+03   -0.33407E-04   -0.71567E-04 10080   0.125E-03 0.308E-03
CGA:   7    -0.367125248254E+03    0.63881E-06   -0.85963E-05 10080   0.545E-04 0.738E-04
CGA:   8    -0.367125270828E+03   -0.22574E-04    0.24374E-04 10080   0.189E-04 0.242E-04
CGA:   9    -0.367125277078E+03   -0.62500E-05   -0.59381E-05 10080   0.108E-04 0.709E-05
  32 F= -.36712528E+03 E0= -.36712528E+03  d E =-.430708E-03  mag=    16.0000
       N       E                     dE             d eps       ncg     rms          ort
SDA:   1    -0.367098242093E+03    0.27029E-01    0.00000E+00 10080   0.689E-01 0.000E+00
CGA:   2    -0.367119295905E+03   -0.21054E-01   -0.21189E-01 10080   0.265E-01-0.106E-02
CGA:   3    -0.367123734967E+03   -0.44391E-02   -0.44494E-02 10080   0.936E-02 0.913E-03
CGA:   4    -0.367125141141E+03   -0.14062E-02   -0.13847E-02 10080   0.208E-02-0.567E-03
CGA:   5    -0.367125427508E+03   -0.28637E-03   -0.29472E-03 10080   0.443E-03 0.288E-03
CGA:   6    -0.367125557048E+03   -0.12954E-03   -0.16606E-03 10080   0.420E-03-0.241E-03
CGA:   7    -0.367125590832E+03   -0.33785E-04   -0.43421E-04 10080   0.820E-04 0.117E-03
CGA:   8    -0.367125614146E+03   -0.23313E-04   -0.35453E-04 10080   0.143E-03-0.776E-04
CGA:   9    -0.367125629379E+03   -0.15234E-04   -0.17895E-04 10080   0.247E-04 0.413E-04
CGA:  10    -0.367125643064E+03   -0.13684E-04    0.19572E-04 10080   0.151E-04 0.423E-05
CGA:  11    -0.367125646992E+03   -0.39284E-05   -0.14926E-04 10080   0.833E-04-0.167E-04
CGA:  12    -0.367125101985E+03    0.54501E-03   -0.29460E-03 10080   0.458E-02-0.546E-03
CGA:  13    -0.367125480010E+03   -0.37802E-03   -0.48514E-03 10080   0.792E-03 0.385E-03
CGA:  14    -0.367125671725E+03   -0.19172E-03   -0.16705E-03 10080   0.682E-04-0.130E-03
CGA:  15    -0.367125674954E+03   -0.32288E-05   -0.74019E-05 10080   0.128E-04 0.170E-04
  33 F= -.36712567E+03 E0= -.36712567E+03  d E =-.828584E-03  mag=    16.0000
       N       E                     dE             d eps       ncg     rms          ort
SDA:   1    -0.367114870992E+03    0.10801E-01    0.00000E+00 10080   0.285E-01 0.000E+00
CGA:   2    -0.367123000063E+03   -0.81291E-02   -0.81731E-02 10080   0.121E-01 0.611E-03
CGA:   3    -0.367125281661E+03   -0.22816E-02   -0.21237E-02 10080   0.528E-02-0.886E-03
CGA:   4    -0.367125822140E+03   -0.54048E-03   -0.61845E-03 10080   0.730E-03 0.362E-03
CGA:   5    -0.367125951027E+03   -0.12889E-03   -0.13776E-03 10080   0.261E-03 0.561E-04
CGA:   6    -0.367126032614E+03   -0.81586E-04   -0.68674E-04 10080   0.299E-03-0.157E-03
CGA:   7    -0.367126028753E+03    0.38606E-05   -0.20105E-04 10080   0.484E-04 0.943E-04
  34 F= -.36712603E+03 E0= -.36712603E+03  d E =-.353800E-03  mag=    16.0000
       N       E                     dE             d eps       ncg     rms          ort
SDA:   1    -0.367111129710E+03    0.14903E-01    0.00000E+00 10080   0.397E-01 0.000E+00
CGA:   2    -0.367121410554E+03   -0.10281E-01   -0.10334E-01 10080   0.208E-01 0.144E-02
CGA:   3    -0.367124894733E+03   -0.34842E-02   -0.32704E-02 10080   0.764E-02-0.157E-02
CGA:   4    -0.367125884271E+03   -0.98954E-03   -0.10588E-02 10080   0.100E-02 0.506E-03
CGA:   5    -0.367126108888E+03   -0.22462E-03   -0.22447E-03 10080   0.378E-03-0.255E-05
CGA:   6    -0.367126184458E+03   -0.75571E-04   -0.69084E-04 10080   0.191E-03-0.689E-04
CGA:   7    -0.367126198055E+03   -0.13597E-04   -0.19970E-04 10080   0.628E-04 0.439E-04
CGA:   8    -0.367126208161E+03   -0.10106E-04   -0.11906E-04 10080   0.425E-04 0.161E-04
CGA:   9    -0.367126199110E+03    0.90509E-05   -0.33928E-04 10080   0.388E-03-0.115E-03
CGA:  10    -0.367126221236E+03   -0.22126E-04   -0.36902E-04 10080   0.713E-04 0.804E-04
CGA:  11    -0.367126234279E+03   -0.13042E-04   -0.14275E-04 10080   0.154E-04 0.118E-04
CGA:  12    -0.367126246977E+03   -0.12698E-04    0.70960E-05 10080   0.339E-04-0.157E-04
CGA:  13    -0.367126244686E+03    0.22903E-05   -0.15029E-05 10080   0.933E-05 0.172E-04
  35 F= -.36712624E+03 E0= -.36712624E+03  d E =-.569733E-03  mag=    16.0000
       N       E                     dE             d eps       ncg     rms          ort
SDA:   1    -0.367118961378E+03    0.72856E-02    0.00000E+00 10080   0.183E-01 0.000E+00
CGA:   2    -0.367124705803E+03   -0.57444E-02   -0.57309E-02 10080   0.761E-02 0.188E-03
CGA:   3    -0.367125918881E+03   -0.12131E-02   -0.11738E-02 10080   0.324E-02-0.433E-03
CGA:   4    -0.367126316148E+03   -0.39727E-03   -0.41547E-03 10080   0.392E-03 0.174E-03
CGA:   5    -0.367126403868E+03   -0.87721E-04   -0.87876E-04 10080   0.141E-03 0.659E-05
CGA:   6    -0.367126417759E+03   -0.13890E-04   -0.17381E-04 10080   0.420E-04 0.307E-04
CGA:   7    -0.367126421655E+03   -0.38961E-05   -0.62211E-05 10080   0.175E-04 0.216E-04
CGA:   8    -0.367126360601E+03    0.61054E-04   -0.33058E-04 10080   0.782E-03-0.728E-04
CGA:   9    -0.367126411510E+03   -0.50910E-04   -0.72431E-04 10080   0.675E-04 0.687E-04
CGA:  10    -0.367126423309E+03   -0.11798E-04   -0.11931E-04 10080   0.128E-04 0.568E-06
CGA:  11    -0.367126427598E+03   -0.42891E-05   -0.63783E-05 10080   0.365E-04-0.184E-04
  36 F= -.36712643E+03 E0= -.36712643E+03  d E =-.182911E-03  mag=    16.0000
       N       E                     dE             d eps       ncg     rms          ort
SDA:   1    -0.367124603852E+03    0.18195E-02    0.00000E+00 10080   0.449E-02 0.000E+00
CGA:   2    -0.367126013184E+03   -0.14093E-02   -0.14151E-02 10080   0.156E-02 0.101E-03
CGA:   3    -0.367126344668E+03   -0.33148E-03   -0.28839E-03 10080   0.100E-02-0.230E-03
CGA:   4    -0.367126415134E+03   -0.70466E-04   -0.92027E-04 10080   0.144E-03 0.860E-04
CGA:   5    -0.367126415889E+03   -0.75528E-06   -0.13800E-04 10080   0.562E-04 0.506E-04
CGA:   6    -0.367126424553E+03   -0.86641E-05   -0.10505E-04 10080   0.208E-04 0.943E-05
CGA:   7    -0.367126412475E+03    0.12078E-04   -0.16154E-04 10080   0.357E-03-0.829E-04
CGA:   8    -0.367126410790E+03    0.16850E-05   -0.24932E-04 10080   0.516E-04 0.985E-04
  37 F= -.36712641E+03 E0= -.36712641E+03  d E =-.166104E-03  mag=    16.0000
       N       E                     dE             d eps       ncg     rms          ort
SDA:   1    -0.367126168537E+03    0.24394E-03    0.00000E+00 10080   0.143E-02 0.000E+00
CGA:   2    -0.367126240875E+03   -0.72337E-04   -0.13351E-03 10080   0.451E-03 0.279E-03
CGA:   3    -0.367126354800E+03   -0.11393E-03   -0.12054E-03 10080   0.196E-03 0.822E-04
CGA:   4    -0.367126424913E+03   -0.70112E-04   -0.61763E-04 10080   0.556E-03-0.246E-03
CGA:   5    -0.367126423164E+03    0.17487E-05   -0.32001E-04 10080   0.452E-04 0.141E-03
CGA:   6    -0.367126418395E+03    0.47688E-05   -0.22416E-05 10080   0.163E-04 0.284E-04
  38 F= -.36712642E+03 E0= -.36712642E+03  d E =-.173709E-03  mag=    16.0000
       N       E                     dE             d eps       ncg     rms          ort
SDA:   1    -0.367126217829E+03    0.20533E-03    0.00000E+00 10080   0.537E-03 0.000E+00
CGA:   2    -0.367126324276E+03   -0.10645E-03   -0.11304E-03 10080   0.258E-03 0.121E-03
CGA:   3    -0.367126409494E+03   -0.85218E-04   -0.93109E-04 10080   0.590E-03-0.244E-03
CGA:   4    -0.367126414741E+03   -0.52470E-05   -0.34549E-04 10080   0.502E-04 0.143E-03
CGA:   5    -0.367126411063E+03    0.36776E-05   -0.28196E-05 10080   0.199E-04 0.312E-04
CGA:   6    -0.367126414118E+03   -0.30552E-05   -0.35037E-05 10080   0.355E-05 0.668E-05
  39 F= -.36712641E+03 E0= -.36712641E+03  d E =-.169432E-03  mag=    16.0000
       N       E                     dE             d eps       ncg     rms          ort
SDA:   1    -0.367126327108E+03    0.83955E-04    0.00000E+00 10080   0.237E-03 0.000E+00
CGA:   2    -0.367126146884E+03    0.18022E-03   -0.14799E-03 10080   0.587E-02-0.851E-03
CGA:   3    -0.367126426883E+03   -0.28000E-03   -0.38773E-03 10080   0.132E-03 0.590E-03
CGA:   4    -0.367126422286E+03    0.45974E-05   -0.83994E-05 10080   0.443E-04 0.678E-04
CGA:   5    -0.367126425255E+03   -0.29688E-05   -0.53642E-05 10080   0.106E-04 0.201E-04
CGA:   6    -0.367126425325E+03   -0.70464E-07   -0.13098E-05 10080   0.376E-05 0.831E-05
  40 F= -.36712643E+03 E0= -.36712643E+03  d E =-.180639E-03  mag=    16.0000
       N       E                     dE             d eps       ncg     rms          ort
SDA:   1    -0.367126410511E+03    0.14744E-04    0.00000E+00 10080   0.376E-04 0.000E+00
CGA:   2    -0.367126423068E+03   -0.12557E-04   -0.13064E-04 10080   0.207E-04-0.399E-05
CGA:   3    -0.367126422966E+03    0.10225E-06   -0.13423E-05 10080   0.757E-05 0.936E-05
CGA:   4    -0.367126423560E+03   -0.59393E-06   -0.98581E-06 10080   0.257E-05 0.303E-05
CGA:   5    -0.367126427647E+03   -0.40872E-05    0.22977E-06 10080   0.254E-05-0.244E-05
CGA:   6    -0.367126427280E+03    0.36725E-06   -0.50220E-07 10080   0.177E-05 0.217E-05
  41 F= -.36712643E+03 E0= -.36712643E+03  d E =-.182593E-03  mag=    16.0000
       N       E                     dE             d eps       ncg     rms          ort
SDA:   1    -0.367126412980E+03    0.14667E-04    0.00000E+00 10080   0.254E-04 0.000E+00
CGA:   2    -0.367126432156E+03   -0.19177E-04    0.25830E-05 10080   0.585E-04-0.338E-04
CGA:   3    -0.367126429775E+03    0.23811E-05   -0.21541E-05 10080   0.143E-04 0.289E-04
CGA:   4    -0.367126428145E+03    0.16298E-05   -0.44515E-06 10080   0.505E-05 0.126E-04
CGA:   5    -0.367126427579E+03    0.56640E-06   -0.83416E-07 10080   0.322E-05 0.403E-05
CGA:   6    -0.367126427198E+03    0.38078E-06   -0.43862E-07 10080   0.230E-05 0.272E-05
  42 F= -.36712643E+03 E0= -.36712643E+03  d E =-.182512E-03  mag=    16.0000
       N       E                     dE             d eps       ncg     rms          ort
SDA:   1    -0.367121502193E+03    0.49254E-02    0.00000E+00 10080   0.127E-01 0.000E+00
CGA:   2    -0.367125440807E+03   -0.39386E-02   -0.39609E-02 10080   0.613E-02-0.144E-03
CGA:   3    -0.367126260257E+03   -0.81945E-03   -0.82337E-03 10080   0.184E-02 0.149E-03
CGA:   4    -0.367126570968E+03   -0.31071E-03   -0.31103E-03 10080   0.359E-03-0.695E-04
CGA:   5    -0.367126618623E+03   -0.47655E-04   -0.49049E-04 10080   0.828E-04 0.726E-04
CGA:   6    -0.367126378449E+03    0.24017E-03   -0.13006E-03 10080   0.187E-02-0.399E-03
CGA:   7    -0.367126556672E+03   -0.17822E-03   -0.22521E-03 10080   0.345E-03 0.273E-03
CGA:   8    -0.367126657839E+03   -0.10117E-03   -0.93482E-04 10080   0.189E-03-0.164E-03
CGA:   9    -0.367126652707E+03    0.51312E-05   -0.60977E-05 10080   0.107E-03 0.512E-04
  43 F= -.36712665E+03 E0= -.36712665E+03  d E =-.225509E-03  mag=    16.0000
       N       E                     dE             d eps       ncg     rms          ort
SDA:   1    -0.367081289607E+03    0.45368E-01    0.00000E+00 10080   0.113E+00 0.000E+00
CGA:   2    -0.367116112139E+03   -0.34823E-01   -0.34772E-01 10080   0.449E-01 0.983E-03
CGA:   3    -0.367124048743E+03   -0.79366E-02   -0.78093E-02 10080   0.160E-01-0.146E-02
CGA:   4    -0.367125895356E+03   -0.18466E-02   -0.19735E-02 10080   0.267E-02 0.991E-03
CGA:   5    -0.367126502928E+03   -0.60757E-03   -0.59890E-03 10080   0.942E-03-0.221E-03
CGA:   6    -0.367126669432E+03   -0.16650E-03   -0.16234E-03 10080   0.321E-03-0.683E-04
CGA:   7    -0.367126705978E+03   -0.36547E-04   -0.42794E-04 10080   0.109E-03 0.613E-04
CGA:   8    -0.367126742076E+03   -0.36097E-04   -0.38512E-04 10080   0.102E-03-0.433E-04
CGA:   9    -0.367126751609E+03   -0.95337E-05   -0.99223E-05 10080   0.664E-04 0.470E-05
CGA:  10    -0.367126762391E+03   -0.10782E-04   -0.11104E-04 10080   0.323E-04 0.406E-05
CGA:  11    -0.367126704663E+03    0.57728E-04   -0.31691E-04 10080   0.438E-03-0.130E-03
CGA:  12    -0.367126749588E+03   -0.44924E-04   -0.60157E-04 10080   0.829E-04 0.115E-03
CGA:  13    -0.367126544413E+03    0.20517E-03   -0.10002E-03 10080   0.193E-02-0.441E-03
CGA:  14    -0.367126662164E+03   -0.11775E-03   -0.19824E-03 10080   0.406E-03 0.415E-03
CGA:  15    -0.367126769262E+03   -0.10710E-03   -0.10471E-03 10080   0.526E-04-0.315E-04
CGA:  16    -0.367126816958E+03   -0.47696E-04    0.94394E-05 10080   0.156E-03-0.688E-04
CGA:  17    -0.367126806345E+03    0.10613E-04   -0.70972E-05 10080   0.366E-04 0.743E-04
CGA:  18    -0.367126800191E+03    0.61535E-05   -0.14335E-05 10080   0.128E-04 0.309E-04
  44 F= -.36712680E+03 E0= -.36712680E+03  d E =-.372993E-03  mag=    16.0000
       N       E                     dE             d eps       ncg     rms          ort
SDA:   1    -0.367118253477E+03    0.85529E-02    0.00000E+00 10080   0.216E-01 0.000E+00
CGA:   2    -0.367124590398E+03   -0.63369E-02   -0.64004E-02 10080   0.152E-01-0.131E-02
CGA:   3    -0.367126074746E+03   -0.14843E-02   -0.16200E-02 10080   0.299E-02 0.103E-02
CGA:   4    -0.367126671557E+03   -0.59681E-03   -0.59495E-03 10080   0.717E-03-0.335E-04
CGA:   5    -0.367126826595E+03   -0.15504E-03   -0.14345E-03 10080   0.617E-03-0.301E-03
CGA:   6    -0.367126836419E+03   -0.98242E-05   -0.27597E-04 10080   0.273E-03 0.110E-03
CGA:   7    -0.367126833361E+03    0.30582E-05   -0.16585E-04 10080   0.845E-04 0.110E-03
  45 F= -.36712683E+03 E0= -.36712683E+03  d E =-.406163E-03  mag=    16.0000
       N       E                     dE             d eps       ncg     rms          ort
SDA:   1    -0.367122317171E+03    0.45192E-02    0.00000E+00 10080   0.121E-01 0.000E+00
CGA:   2    -0.367125156887E+03   -0.28397E-02   -0.28174E-02 10080   0.666E-02 0.115E-02
CGA:   3    -0.367126412071E+03   -0.12552E-02   -0.12034E-02 10080   0.272E-02-0.105E-02
CGA:   4    -0.367126679710E+03   -0.26764E-03   -0.29820E-03 10080   0.368E-03 0.373E-03
CGA:   5    -0.367126731707E+03   -0.51998E-04   -0.58993E-04 10080   0.152E-03 0.104E-03
CGA:   6    -0.367126716583E+03    0.15125E-04   -0.93657E-04 10080   0.992E-03-0.396E-03
CGA:   7    -0.367126750474E+03   -0.33892E-04   -0.74042E-04 10080   0.171E-03 0.280E-03
CGA:   8    -0.367126762221E+03   -0.11747E-04   -0.21448E-04 10080   0.839E-04 0.851E-04
CGA:   9    -0.367126789187E+03   -0.26966E-04   -0.32500E-04 10080   0.728E-04-0.104E-03
CGA:  10    -0.367126787922E+03    0.12653E-05   -0.49297E-05 10080   0.297E-04 0.441E-04
  46 F= -.36712679E+03 E0= -.36712679E+03  d E =-.360724E-03  mag=    16.0000
