       N       E                     dE             d eps       ncg     rms          ort
DAV:   1     0.264835694548E+04    0.26484E+04   -0.14809E+05  6336   0.155E+03
DAV:   2    -0.264621264522E+03   -0.29130E+04   -0.28141E+04  6336   0.430E+02
DAV:   3    -0.512045855659E+03   -0.24742E+03   -0.24291E+03  6336   0.140E+02
DAV:   4    -0.522929129827E+03   -0.10883E+02   -0.10757E+02  6336   0.309E+01
DAV:   5    -0.523563988105E+03   -0.63486E+00   -0.63251E+00  6336   0.457E+00
SDA:   6    -0.350911542870E+03    0.17265E+03   -0.63251E+00  6336   0.619E+03 0.000E+00
CGA:   7    -0.397376945465E+03   -0.46465E+02   -0.69284E+02  6336   0.315E+03 0.169E+02
CGA:   8    -0.398788762159E+03   -0.14118E+01   -0.16524E+02  6336   0.224E+03 0.159E+02
CGA:   9    -0.402130756228E+03   -0.33420E+01   -0.93032E+01  6336   0.262E+03-0.919E+02
CGA:  10    -0.402115755026E+03    0.15001E-01   -0.54874E+01  6336   0.504E+03-0.104E+02
CGA:  11    -0.404846011079E+03   -0.27303E+01   -0.21944E+02  6336   0.297E+03-0.146E+03
CGA:  12    -0.407376088494E+03   -0.25301E+01   -0.73811E+01  6336   0.168E+03-0.147E+03
CGA:  13    -0.409163627842E+03   -0.17875E+01   -0.57579E+01  6336   0.140E+03-0.339E+02
CGA:  14    -0.416556193406E+03   -0.73926E+01   -0.99457E+01  6336   0.380E+02-0.709E+01
CGA:  15    -0.419941831277E+03   -0.33856E+01   -0.23515E+01  6336   0.269E+02 0.141E+02
CGA:  16    -0.419951980188E+03   -0.10149E-01   -0.18375E+01  6336   0.698E+02-0.243E+02
CGA:  17    -0.420293044509E+03   -0.34106E+00   -0.41603E+01  6336   0.584E+02-0.271E+02
CGA:  18    -0.421977541866E+03   -0.16845E+01   -0.20542E+01  6336   0.773E+02-0.199E+02
CGA:  19    -0.420662616046E+03    0.13149E+01   -0.27688E+01  6336   0.126E+03-0.187E+02
CGA:  20    -0.420539372454E+03    0.12324E+00   -0.41397E+01  6336   0.125E+03-0.856E+02
CGA:  21    -0.421921091043E+03   -0.13817E+01   -0.61662E+01  6336   0.848E+02-0.966E+02
CGA:  22    -0.424085851297E+03   -0.21648E+01   -0.30898E+01  6336   0.182E+02-0.393E+02
CGA:  23    -0.424444428113E+03   -0.35858E+00   -0.22330E+00  6336   0.648E+01 0.570E+01
CGA:  24    -0.424622868449E+03   -0.17844E+00   -0.15628E+00  6336   0.965E+00 0.104E+01
CGA:  25    -0.424675236729E+03   -0.52368E-01   -0.46218E-01  6336   0.134E+01 0.102E+00
CGA:  26    -0.424788906600E+03   -0.11367E+00   -0.11420E+00  6336   0.404E+01-0.179E-01
CGA:  27    -0.424876459069E+03   -0.87552E-01   -0.60151E-01  6336   0.263E+01 0.101E+01
CGA:  28    -0.424916791760E+03   -0.40333E-01   -0.35109E-01  6336   0.196E+01 0.263E+00
CGA:  29    -0.424933025088E+03   -0.16233E-01   -0.10898E-01  6336   0.144E+01 0.100E+01
CGA:  30    -0.424959218015E+03   -0.26193E-01   -0.31507E-01  6336   0.599E+00-0.208E+00
CGA:  31    -0.425042012879E+03   -0.82795E-01   -0.88374E-01  6336   0.209E+01-0.640E-01
CGA:  32    -0.425106247947E+03   -0.64235E-01   -0.58856E-01  6336   0.189E+00 0.156E+00
CGA:  33    -0.425141115705E+03   -0.34868E-01   -0.36850E-01  6336   0.128E+01-0.186E-01
CGA:  34    -0.425202811979E+03   -0.61696E-01   -0.49300E-01  6336   0.107E+01 0.572E-01
CGA:  35    -0.425226132324E+03   -0.23320E-01   -0.17521E-01  6336   0.323E+00 0.292E+00
CGA:  36    -0.425232625590E+03   -0.64933E-02   -0.69414E-02  6336   0.108E+00-0.237E-01
CGA:  37    -0.425238210969E+03   -0.55854E-02   -0.54519E-02  6336   0.315E+00-0.762E-02
CGA:  38    -0.425258135250E+03   -0.19924E-01   -0.19611E-01  6336   0.387E+00-0.288E-01
CGA:  39    -0.425266138427E+03   -0.80032E-02   -0.71277E-02  6336   0.114E+00-0.240E-02
CGA:  40    -0.425268878314E+03   -0.27399E-02   -0.26365E-02  6336   0.570E-01-0.370E-02
CGA:  41    -0.425271411094E+03   -0.25328E-02   -0.24668E-02  6336   0.114E+00-0.334E-02
CGA:  42    -0.425280818700E+03   -0.94076E-02   -0.95833E-02  6336   0.253E+00-0.124E-01
CGA:  43    -0.425285811563E+03   -0.49929E-02   -0.45551E-02  6336   0.338E-01-0.137E-01
CGA:  44    -0.425286689049E+03   -0.87749E-03   -0.77634E-03  6336   0.258E-01-0.276E-02
CGA:  45    -0.425289375201E+03   -0.26862E-02   -0.30864E-02  6336   0.156E+00-0.649E-02
CGA:  46    -0.425292707353E+03   -0.33322E-02   -0.30799E-02  6336   0.122E+00 0.404E-03
CGA:  47    -0.425294710021E+03   -0.20027E-02   -0.20519E-02  6336   0.408E-01 0.241E-03
CGA:  48    -0.425295452306E+03   -0.74229E-03   -0.73955E-03  6336   0.185E-01 0.751E-03
CGA:  49    -0.425295927728E+03   -0.47542E-03   -0.44191E-03  6336   0.175E-01-0.813E-03
CGA:  50    -0.425296821006E+03   -0.89328E-03   -0.86858E-03  6336   0.583E-01-0.225E-02
CGA:  51    -0.425298656595E+03   -0.18356E-02   -0.17933E-02  6336   0.762E-01-0.218E-02
CGA:  52    -0.425299615545E+03   -0.95895E-03   -0.91472E-03  6336   0.200E-01 0.799E-02
CGA:  53    -0.425299816746E+03   -0.20120E-03   -0.24491E-03  6336   0.634E-02 0.178E-02
CGA:  54    -0.425299910151E+03   -0.93405E-04   -0.13305E-03  6336   0.898E-02 0.116E-02
CGA:  55    -0.425300280110E+03   -0.36996E-03   -0.41035E-03  6336   0.271E-01 0.283E-02
CGA:  56    -0.425301264269E+03   -0.98416E-03   -0.10709E-02  6336   0.257E-01 0.601E-02
CGA:  57    -0.425301671905E+03   -0.40764E-03   -0.47932E-03  6336   0.448E-02 0.115E-02
CGA:  58    -0.425301781167E+03   -0.10926E-03   -0.10287E-03  6336   0.439E-02-0.261E-03
CGA:  59    -0.425302088370E+03   -0.30720E-03   -0.30629E-03  6336   0.210E-01 0.499E-04
SDA:  60    -0.425302703372E+03   -0.61500E-03   -0.64669E-03  6336   0.138E-01 0.337E-02
CGA:  61    -0.425302925861E+03   -0.22249E-03   -0.25977E-03  6336   0.152E-02 0.124E-02
CGA:  62    -0.425303150682E+03   -0.22482E-03   -0.22061E-03  6336   0.726E-02 0.403E-04
CGA:  63    -0.425303642958E+03   -0.49228E-03   -0.98753E-03  6336   0.238E-01-0.618E-02
CGA:  64    -0.425304128653E+03   -0.48570E-03   -0.51991E-03  6336   0.336E-02 0.109E-02
CGA:  65    -0.425304417783E+03   -0.28913E-03   -0.30489E-03  6336   0.650E-02-0.502E-03
CGA:  66    -0.425304677796E+03   -0.26001E-03   -0.26898E-03  6336   0.211E-02 0.121E-02
CGA:  67    -0.425304703883E+03   -0.26087E-04   -0.48340E-04  6336   0.375E-03 0.613E-03
CGA:  68    -0.425304711731E+03   -0.78474E-05   -0.13588E-04  6336   0.388E-03 0.222E-03
CGA:  69    -0.425304759157E+03   -0.47427E-04    0.63474E-04  6336   0.379E-03 0.177E-03
CGA:  70    -0.425304896446E+03   -0.13729E-03   -0.13024E-03  6336   0.211E-02 0.299E-04
CGA:  71    -0.425305015686E+03   -0.11924E-03   -0.11010E-03  6336   0.135E-02-0.677E-03
CGA:  72    -0.425305111721E+03   -0.96035E-04   -0.10337E-03  6336   0.203E-02-0.154E-03
CGA:  73    -0.425305173812E+03   -0.62091E-04   -0.54437E-04  6336   0.195E-02 0.310E-03
CGA:  74    -0.425305250874E+03   -0.77062E-04   -0.72926E-04  6336   0.160E-02 0.670E-04
CGA:  75    -0.425305291853E+03   -0.40980E-04   -0.45878E-04  6336   0.125E-02 0.127E-03
CGA:  76    -0.425305314962E+03   -0.23109E-04   -0.34898E-04  6336   0.104E-02 0.326E-03
CGA:  77    -0.425305339782E+03   -0.24820E-04   -0.37865E-04  6336   0.102E-02 0.440E-03
CGA:  78    -0.425305393096E+03   -0.53314E-04   -0.59220E-04  6336   0.116E-02 0.372E-03
CGA:  79    -0.425305482314E+03   -0.89219E-04   -0.89333E-04  6336   0.195E-02-0.124E-03
CGA:  80    -0.425305544224E+03   -0.61910E-04   -0.60821E-04  6336   0.296E-02-0.127E-03
CGA:  81    -0.425305633375E+03   -0.89151E-04   -0.90650E-04  6336   0.386E-02-0.137E-03
CGA:  82    -0.425305788321E+03   -0.15495E-03   -0.14930E-03  6336   0.541E-02-0.706E-03
CGA:  83    -0.425305989071E+03   -0.20075E-03   -0.15674E-03  6336   0.728E-02-0.218E-02
CGA:  84    -0.425306150399E+03   -0.16133E-03   -0.78465E-04  6336   0.855E-02-0.147E-02
CGA:  85    -0.425306408900E+03   -0.25850E-03   -0.14575E-03  6336   0.934E-02-0.276E-02
CGA:  86    -0.425306603757E+03   -0.19486E-03   -0.10058E-03  6336   0.879E-02-0.244E-02
CGA:  87    -0.425306788864E+03   -0.18511E-03   -0.11664E-03  6336   0.677E-02-0.300E-02
CGA:  88    -0.425306908920E+03   -0.12006E-03   -0.81879E-04  6336   0.499E-02-0.218E-02
CGA:  89    -0.425307009939E+03   -0.10102E-03   -0.79017E-04  6336   0.462E-02-0.153E-02
CGA:  90    -0.425307128590E+03   -0.11865E-03   -0.10186E-03  6336   0.491E-02-0.170E-02
CGA:  91    -0.425307224740E+03   -0.96150E-04   -0.67094E-04  6336   0.424E-02-0.129E-02
CGA:  92    -0.425307312729E+03   -0.87990E-04   -0.65802E-04  6336   0.405E-02-0.103E-02
CGA:  93    -0.425307384483E+03   -0.71754E-04   -0.59977E-04  6336   0.417E-02-0.612E-03
CGA:  94    -0.425307442757E+03   -0.58273E-04   -0.60440E-04  6336   0.357E-02-0.498E-04
CGA:  95    -0.425307478908E+03   -0.36152E-04   -0.52070E-04  6336   0.259E-02 0.542E-03
CGA:  96    -0.425307497927E+03   -0.19019E-04   -0.41213E-04  6336   0.205E-02 0.898E-03
CGA:  97    -0.425307513296E+03   -0.15369E-04   -0.39905E-04  6336   0.192E-02 0.112E-02
CGA:  98    -0.425307796298E+03   -0.28300E-03   -0.21263E-03  6336   0.244E-02 0.928E-03
CGA:  99    -0.425308020868E+03   -0.22457E-03   -0.19228E-03  6336   0.979E-03 0.225E-02
CGA: 100    -0.425308051470E+03   -0.30603E-04   -0.34014E-04  6336   0.883E-03 0.736E-03
CGA: 101    -0.425308170397E+03   -0.11893E-03   -0.89487E-04  6336   0.184E-02 0.472E-03
CGA: 102    -0.425308191354E+03   -0.20957E-04   -0.36419E-04  6336   0.692E-03 0.685E-03
CGA: 103    -0.425308211510E+03   -0.20156E-04   -0.28090E-04  6336   0.102E-02 0.685E-03
CGA: 104    -0.425308274412E+03   -0.62902E-04   -0.72647E-04  6336   0.310E-02-0.326E-03
CGA: 105    -0.425308390308E+03   -0.11590E-03   -0.10423E-03  6336   0.527E-02 0.160E-02
CGA: 106    -0.425308456228E+03   -0.65919E-04   -0.91278E-04  6336   0.516E-03 0.100E-02
CGA: 107    -0.425308460340E+03   -0.41127E-05   -0.12294E-04  6336   0.500E-03 0.385E-03
CGA: 108    -0.425308519298E+03   -0.58957E-04   -0.46939E-04  6336   0.118E-02 0.223E-03
CGA: 109    -0.425308591252E+03   -0.71954E-04   -0.72554E-04  6336   0.371E-03 0.135E-02
CGA: 110    -0.425308602861E+03   -0.11610E-04   -0.13621E-04  6336   0.360E-03 0.330E-03
CGA: 111    -0.425308644835E+03   -0.41974E-04   -0.30322E-04  6336   0.501E-03 0.278E-03
CGA: 112    -0.425308648170E+03   -0.33345E-05   -0.10473E-04  6336   0.319E-03 0.300E-03
CGA: 113    -0.425308675682E+03   -0.27513E-04   -0.20847E-04  6336   0.313E-03 0.304E-03
CGA: 114    -0.425308686178E+03   -0.10496E-04   -0.12127E-04  6336   0.306E-03 0.286E-03
CGA: 115    -0.425308722138E+03   -0.35959E-04   -0.26030E-04  6336   0.421E-03 0.243E-03
CGA: 116    -0.425308724382E+03   -0.22440E-05   -0.87736E-05  6336   0.274E-03 0.256E-03
CGA: 117    -0.425308749424E+03   -0.25042E-04   -0.18853E-04  6336   0.273E-03 0.260E-03
CGA: 118    -0.425308756917E+03   -0.74931E-05   -0.99030E-05  6336   0.267E-03 0.242E-03
CGA: 119    -0.425308791882E+03   -0.34965E-04   -0.25453E-04  6336   0.463E-03 0.191E-03
CGA: 120    -0.425308793377E+03   -0.14953E-05   -0.85279E-05  6336   0.234E-03 0.235E-03
CGA: 121    -0.425308810620E+03   -0.17243E-04   -0.14119E-04  6336   0.226E-03 0.230E-03
CGA: 122    -0.425308828047E+03   -0.17427E-04   -0.14091E-04  6336   0.218E-03 0.221E-03
CGA: 123    -0.425308844370E+03   -0.16322E-04   -0.13421E-04  6336   0.210E-03 0.213E-03
CGA: 124    -0.425308862972E+03   -0.18602E-04   -0.14472E-04  6336   0.203E-03 0.205E-03
CGA: 125    -0.425308875490E+03   -0.12518E-04   -0.11334E-04  6336   0.201E-03 0.197E-03
CGA: 126    -0.425308904430E+03   -0.28939E-04   -0.20256E-04  6336   0.280E-03 0.171E-03
CGA: 127    -0.425308905384E+03   -0.95380E-06   -0.60880E-05  6336   0.189E-03 0.166E-03
CGA: 128    -0.425308935180E+03   -0.29796E-04   -0.20566E-04  6336   0.279E-03 0.159E-03
CGA: 129    -0.425308935784E+03   -0.60427E-06   -0.58399E-05  6336   0.176E-03 0.158E-03
CGA: 130    -0.425308963855E+03   -0.28071E-04   -0.19222E-04  6336   0.234E-03 0.156E-03
CGA: 131    -0.425308964676E+03   -0.82047E-06   -0.54477E-05  6336   0.170E-03 0.145E-03
CGA: 132    -0.425309000053E+03   -0.35377E-04   -0.24611E-04  6336   0.445E-03 0.118E-03
CGA: 133    -0.425309000664E+03   -0.61174E-06   -0.76200E-05  6336   0.154E-03 0.170E-03
   1 F= -.42530900E+03 E0= -.42529900E+03  d E =-.425309E+03  mag=    10.0000
       N       E                     dE             d eps       ncg     rms          ort
SDA:   1    -0.425304792705E+03    0.42073E-02    0.00000E+00  6336   0.251E+00 0.000E+00
CGA:   2    -0.425309332689E+03   -0.45400E-02   -0.46304E-02  6336   0.120E-02 0.897E-02
CGA:   3    -0.425309380318E+03   -0.47629E-04   -0.51712E-04  6336   0.130E-02 0.362E-03
CGA:   4    -0.425309631247E+03   -0.25093E-03   -0.27508E-03  6336   0.892E-03-0.223E-03
CGA:   5    -0.425309638410E+03   -0.71638E-05   -0.18724E-04  6336   0.471E-03 0.354E-03
CGA:   6    -0.425309658381E+03   -0.19971E-04   -0.25999E-04  6336   0.524E-03 0.362E-03
CGA:   7    -0.425308731925E+03    0.92646E-03   -0.50126E-03  6336   0.577E-01-0.371E-02
CGA:   8    -0.425309732302E+03   -0.10004E-02   -0.11582E-02  6336   0.141E-02 0.206E-02
CGA:   9    -0.425309751057E+03   -0.18755E-04   -0.35615E-04  6336   0.198E-03 0.246E-03
CGA:  10    -0.425309766684E+03   -0.15627E-04   -0.16544E-04  6336   0.433E-03 0.416E-04
CGA:  11    -0.425309804769E+03   -0.38085E-04   -0.39008E-04  6336   0.182E-03 0.489E-04
CGA:  12    -0.425309822194E+03   -0.17425E-04   -0.28912E-04  6336   0.164E-02-0.225E-03
CGA:  13    -0.425309849370E+03   -0.27175E-04   -0.41869E-04  6336   0.177E-03 0.228E-03
CGA:  14    -0.425309851648E+03   -0.22784E-05   -0.81098E-05  6336   0.174E-03 0.116E-03
CGA:  15    -0.425309883381E+03   -0.31733E-04    0.18642E-03  6336   0.349E-03-0.120E-04
CGA:  16    -0.425309906780E+03   -0.23399E-04   -0.25130E-04  6336   0.199E-03 0.163E-03
CGA:  17    -0.425309909117E+03   -0.23373E-05   -0.87778E-05  6336   0.731E-04 0.112E-03
CGA:  18    -0.425309923334E+03   -0.14217E-04    0.20346E-04  6336   0.833E-04 0.547E-04
CGA:  19    -0.425309923909E+03   -0.57460E-06   -0.30903E-05  6336   0.636E-04 0.530E-04
CGA:  20    -0.425309934453E+03   -0.10544E-04    0.26610E-03  6336   0.746E-04 0.518E-04
CGA:  21    -0.425309938087E+03   -0.36340E-05   -0.43980E-05  6336   0.952E-04 0.329E-04
CGA:  22    -0.425309954127E+03   -0.16039E-04   -0.13782E-04  6336   0.104E-03 0.114E-03
CGA:  23    -0.425309977557E+03   -0.23430E-04    0.11245E-04  6336   0.414E-03-0.787E-04
CGA:  24    -0.425309974726E+03    0.28306E-05   -0.65691E-05  6336   0.787E-04 0.141E-03
   2 F= -.42530997E+03 E0= -.42529988E+03  d E =-.974062E-03  mag=    10.0000
       N       E                     dE             d eps       ncg     rms          ort
SDA:   1    -0.425306967939E+03    0.30096E-02    0.00000E+00  6336   0.228E-01 0.000E+00
CGA:   2    -0.425307936989E+03   -0.96905E-03   -0.95557E-03  6336   0.158E-01-0.635E-03
CGA:   3    -0.425309770273E+03   -0.18333E-02   -0.19423E-02  6336   0.315E-01-0.210E-02
CGA:   4    -0.425310501621E+03   -0.73135E-03   -0.79974E-03  6336   0.383E-02 0.155E-02
CGA:   5    -0.425310648214E+03   -0.14659E-03   -0.17106E-03  6336   0.458E-02 0.768E-03
CGA:   6    -0.425311093291E+03   -0.44508E-03   -0.44589E-03  6336   0.124E-02-0.966E-04
CGA:   7    -0.425311170816E+03   -0.77524E-04   -0.67789E-04  6336   0.129E-02-0.592E-03
CGA:   8    -0.425311216993E+03   -0.46178E-04   -0.46629E-04  6336   0.105E-02 0.158E-03
CGA:   9    -0.425311236953E+03   -0.19960E-04   -0.30663E-04  6336   0.183E-03 0.236E-03
CGA:  10    -0.425311251548E+03   -0.14594E-04   -0.14854E-04  6336   0.292E-03 0.812E-04
CGA:  11    -0.425311289412E+03   -0.37864E-04   -0.39544E-04  6336   0.171E-03-0.711E-04
CGA:  12    -0.425311259066E+03    0.30346E-04   -0.24455E-04  6336   0.364E-02-0.469E-03
CGA:  13    -0.425311303322E+03   -0.44257E-04   -0.66160E-04  6336   0.207E-03 0.375E-03
CGA:  14    -0.425311310235E+03   -0.69131E-05   -0.10143E-04  6336   0.258E-03 0.110E-03
CGA:  15    -0.425311326395E+03   -0.16160E-04   -0.23809E-04  6336   0.190E-02-0.384E-03
CGA:  16    -0.425311343572E+03   -0.17176E-04   -0.32323E-04  6336   0.842E-04 0.267E-03
CGA:  17    -0.425311342699E+03    0.87287E-06   -0.17846E-05  6336   0.593E-04 0.511E-04
CGA:  18    -0.425311351928E+03   -0.92287E-05    0.13447E-04  6336   0.629E-04 0.415E-04
   3 F= -.42531135E+03 E0= -.42530119E+03  d E =-.137720E-02  mag=    10.0000
       N       E                     dE             d eps       ncg     rms          ort
SDA:   1    -0.425279717281E+03    0.31625E-01    0.00000E+00  6336   0.116E+00 0.000E+00
CGA:   2    -0.425291253345E+03   -0.11536E-01   -0.11810E-01  6336   0.251E+00-0.813E-02
CGA:   3    -0.425302737695E+03   -0.11484E-01   -0.11569E-01  6336   0.782E-01 0.469E-02
CGA:   4    -0.425305726909E+03   -0.29892E-02   -0.30216E-02  6336   0.383E-01 0.317E-02
CGA:   5    -0.425311130069E+03   -0.54032E-02   -0.55427E-02  6336   0.283E-01-0.191E-02
CGA:   6    -0.425311697234E+03   -0.56716E-03   -0.59443E-03  6336   0.482E-02 0.805E-03
CGA:   7    -0.425312287644E+03   -0.59041E-03   -0.57115E-03  6336   0.108E-01 0.386E-03
CGA:   8    -0.425312688706E+03   -0.40106E-03   -0.38009E-03  6336   0.118E-02-0.637E-03
CGA:   9    -0.425312728424E+03   -0.39717E-04   -0.44661E-04  6336   0.660E-03 0.181E-03
CGA:  10    -0.425312852711E+03   -0.12429E-03   -0.11318E-03  6336   0.379E-03 0.133E-03
CGA:  11    -0.425312882373E+03   -0.29662E-04   -0.24899E-04  6336   0.887E-03-0.319E-03
CGA:  12    -0.425312888450E+03   -0.60765E-05   -0.15255E-04  6336   0.101E-03 0.175E-03
   4 F= -.42531289E+03 E0= -.42530270E+03  d E =-.153652E-02  mag=    10.0000
       N       E                     dE             d eps       ncg     rms          ort
SDA:   1    -0.425306748063E+03    0.61343E-02    0.00000E+00  6336   0.993E-01 0.000E+00
CGA:   2    -0.425308762694E+03   -0.20146E-02   -0.20787E-02  6336   0.132E-01 0.348E-02
CGA:   3    -0.425311677586E+03   -0.29149E-02   -0.28662E-02  6336   0.211E-01 0.321E-03
CGA:   4    -0.425312332854E+03   -0.65527E-03   -0.64787E-03  6336   0.528E-02-0.334E-03
CGA:   5    -0.425312644500E+03   -0.31165E-03   -0.31653E-03  6336   0.550E-02 0.710E-03
CGA:   6    -0.425313152125E+03   -0.50762E-03   -0.52198E-03  6336   0.195E-02-0.900E-03
CGA:   7    -0.425313210652E+03   -0.58527E-04   -0.63194E-04  6336   0.564E-03 0.159E-03
CGA:   8    -0.425313248863E+03   -0.38210E-04   -0.38789E-04  6336   0.625E-03 0.186E-03
CGA:   9    -0.425313313842E+03   -0.64979E-04   -0.78813E-04  6336   0.993E-03-0.491E-03
CGA:  10    -0.425313319320E+03   -0.54780E-05   -0.17918E-04  6336   0.127E-03 0.247E-03
   5 F= -.42531332E+03 E0= -.42530311E+03  d E =-.430870E-03  mag=    10.0000
       N       E                     dE             d eps       ncg     rms          ort
SDA:   1    -0.423708213604E+03    0.16051E+01    0.00000E+00  6336   0.461E+01 0.000E+00
CGA:   2    -0.424416254313E+03   -0.70804E+00   -0.70821E+00  6336   0.129E+02 0.191E-01
CGA:   3    -0.424934214923E+03   -0.51796E+00   -0.51126E+00  6336   0.227E+01-0.288E-01
CGA:   4    -0.425052439367E+03   -0.11822E+00   -0.11644E+00  6336   0.211E+01-0.286E-01
CGA:   5    -0.425257842649E+03   -0.20540E+00   -0.20518E+00  6336   0.217E+00 0.300E-02
CGA:   6    -0.425283005667E+03   -0.25163E-01   -0.24686E-01  6336   0.375E+00 0.973E-02
CGA:   7    -0.425300182665E+03   -0.17177E-01   -0.16960E-01  6336   0.790E-01-0.857E-02
CGA:   8    -0.425302870108E+03   -0.26874E-02   -0.26505E-02  6336   0.305E-01-0.127E-02
CGA:   9    -0.425307827041E+03   -0.49569E-02   -0.47258E-02  6336   0.160E-01 0.252E-02
CGA:  10    -0.425308692481E+03   -0.86544E-03   -0.83719E-03  6336   0.988E-02-0.146E-02
CGA:  11    -0.425309495953E+03   -0.80347E-03   -0.81088E-03  6336   0.145E-01-0.396E-03
CGA:  12    -0.425309961032E+03   -0.46508E-03   -0.51933E-03  6336   0.210E-02 0.154E-02
CGA:  13    -0.425310145493E+03   -0.18446E-03   -0.54027E-03  6336   0.232E-01-0.217E-02
CGA:  14    -0.425310631093E+03   -0.48560E-03   -0.54405E-03  6336   0.101E-02 0.161E-02
CGA:  15    -0.425310645038E+03   -0.13945E-04   -0.31066E-04  6336   0.605E-03 0.368E-03
CGA:  16    -0.425310767922E+03   -0.12288E-03   -0.10630E-03  6336   0.182E-02 0.292E-03
CGA:  17    -0.425310961224E+03   -0.19330E-03   -0.18712E-03  6336   0.188E-02-0.104E-02
CGA:  18    -0.425310982050E+03   -0.20826E-04   -0.38026E-04  6336   0.336E-03 0.305E-03
CGA:  19    -0.425310997347E+03   -0.15297E-04   -0.19900E-04  6336   0.438E-03 0.216E-03
CGA:  20    -0.425311025903E+03   -0.28556E-04   -0.38607E-04  6336   0.274E-02-0.598E-03
CGA:  21    -0.425311054536E+03   -0.28632E-04   -0.48945E-04  6336   0.172E-03 0.361E-03
CGA:  22    -0.425311053389E+03    0.11464E-05   -0.42186E-05  6336   0.138E-03 0.112E-03
CGA:  23    -0.425311017087E+03    0.36302E-04   -0.24589E-04  6336   0.705E-02-0.274E-03
CGA:  24    -0.425311125479E+03   -0.10839E-03   -0.12937E-03  6336   0.695E-04 0.240E-03
CGA:  25    -0.425311131008E+03   -0.55287E-05   -0.61595E-05  6336   0.176E-03 0.199E-04
CGA:  26    -0.425311157272E+03   -0.26265E-04   -0.49821E-04  6336   0.138E-02-0.226E-03
CGA:  27    -0.425311174385E+03   -0.17112E-04   -0.27844E-04  6336   0.166E-03 0.106E-03
CGA:  28    -0.425311187595E+03   -0.13211E-04   -0.15277E-04  6336   0.142E-03 0.692E-04
CGA:  29    -0.425311198762E+03   -0.11167E-04   -0.89737E-05  6336   0.116E-03-0.325E-04
CGA:  30    -0.425311199611E+03   -0.84823E-06   -0.30047E-05  6336   0.405E-04 0.278E-04
   6 F= -.42531120E+03 E0= -.42530108E+03  d E =0.211971E-02  mag=    10.0000
       N       E                     dE             d eps       ncg     rms          ort
SDA:   1    -0.425253656448E+03    0.57542E-01    0.00000E+00  6336   0.210E+00 0.000E+00
CGA:   2    -0.425268081556E+03   -0.14425E-01   -0.14305E-01  6336   0.285E+00 0.159E-02
CGA:   3    -0.425300021552E+03   -0.31940E-01   -0.31917E-01  6336   0.676E-01 0.160E-02
CGA:   4    -0.425303885218E+03   -0.38637E-02   -0.38806E-02  6336   0.938E-01-0.511E-03
CGA:   5    -0.425310126630E+03   -0.62414E-02   -0.62809E-02  6336   0.149E-01 0.121E-02
CGA:   6    -0.425310988199E+03   -0.86157E-03   -0.78446E-03  6336   0.111E-01-0.201E-02
CGA:   7    -0.425312086679E+03   -0.10985E-02   -0.10904E-02  6336   0.257E-02 0.439E-03
CGA:   8    -0.425312176523E+03   -0.89845E-04   -0.90333E-04  6336   0.157E-02-0.126E-04
CGA:   9    -0.425312398908E+03   -0.22238E-03   -0.21455E-03  6336   0.691E-03 0.174E-03
CGA:  10    -0.425312463803E+03   -0.64895E-04   -0.52421E-04  6336   0.141E-02-0.472E-03
CGA:  11    -0.425312472503E+03   -0.87005E-05   -0.28874E-04  6336   0.190E-03 0.269E-03
   7 F= -.42531247E+03 E0= -.42530232E+03  d E =-.127289E-02  mag=    10.0000
       N       E                     dE             d eps       ncg     rms          ort
SDA:   1    -0.425265824175E+03    0.46640E-01    0.00000E+00  6336   0.277E+00 0.000E+00
CGA:   2    -0.425274683880E+03   -0.88597E-02   -0.93085E-02  6336   0.175E+00 0.298E-03
CGA:   3    -0.425296715127E+03   -0.22031E-01   -0.21982E-01  6336   0.250E+00 0.101E-02
CGA:   4    -0.425306501921E+03   -0.97868E-02   -0.98723E-02  6336   0.341E-01-0.106E-01
CGA:   5    -0.425311665429E+03   -0.51635E-02   -0.49827E-02  6336   0.263E-01 0.261E-02
CGA:   6    -0.425312862240E+03   -0.11968E-02   -0.11652E-02  6336   0.658E-02-0.125E-02
CGA:   7    -0.425313257135E+03   -0.39489E-03   -0.40831E-03  6336   0.588E-02 0.658E-03
CGA:   8    -0.425313556251E+03   -0.29912E-03   -0.30293E-03  6336   0.268E-02 0.623E-04
CGA:   9    -0.425313707236E+03   -0.15098E-03   -0.15156E-03  6336   0.917E-03 0.133E-04
CGA:  10    -0.425313777938E+03   -0.70702E-04   -0.70401E-04  6336   0.903E-03-0.681E-04
CGA:  11    -0.425313819307E+03   -0.41369E-04   -0.43944E-04  6336   0.388E-03 0.894E-04
CGA:  12    -0.425313851980E+03   -0.32673E-04   -0.31004E-04  6336   0.878E-03-0.255E-03
CGA:  13    -0.425313862757E+03   -0.10777E-04   -0.17530E-04  6336   0.816E-04 0.112E-03
CGA:  14    -0.425313867120E+03   -0.43630E-05   -0.46796E-05  6336   0.110E-03 0.123E-04
CGA:  15    -0.425313887276E+03   -0.20156E-04    0.77122E-04  6336   0.134E-03 0.468E-04
CGA:  16    -0.425313898463E+03   -0.11187E-04   -0.10016E-04  6336   0.939E-04-0.527E-04
CGA:  17    -0.425313901415E+03   -0.29517E-05   -0.91200E-05  6336   0.127E-03-0.720E-04
   8 F= -.42531390E+03 E0= -.42530371E+03  d E =-.142891E-02  mag=    10.0000
       N       E                     dE             d eps       ncg     rms          ort
SDA:   1    -0.425290424630E+03    0.23474E-01    0.00000E+00  6336   0.611E+00 0.000E+00
CGA:   2    -0.425303245754E+03   -0.12821E-01   -0.12495E-01  6336   0.362E-01 0.142E-01
CGA:   3    -0.425306358262E+03   -0.31125E-02   -0.31310E-02  6336   0.723E-01-0.218E-02
CGA:   4    -0.425312061087E+03   -0.57028E-02   -0.57003E-02  6336   0.139E-01 0.294E-03
CGA:   5    -0.425312564793E+03   -0.50371E-03   -0.53805E-03  6336   0.107E-01 0.953E-03
CGA:   6    -0.425313734679E+03   -0.11699E-02   -0.11627E-02  6336   0.666E-02 0.239E-03
CGA:   7    -0.425313937496E+03   -0.20282E-03   -0.20137E-03  6336   0.922E-03-0.905E-04
CGA:   8    -0.425314092969E+03   -0.15547E-03   -0.14006E-03  6336   0.549E-03 0.189E-03
CGA:   9    -0.425314119543E+03   -0.26574E-04   -0.26868E-04  6336   0.197E-03 0.641E-05
CGA:  10    -0.425314001024E+03    0.11852E-03   -0.67760E-04  6336   0.582E-02-0.541E-03
CGA:  11    -0.425314093825E+03   -0.92802E-04   -0.12307E-03  6336   0.465E-03 0.262E-03
CGA:  12    -0.425314118669E+03   -0.24844E-04   -0.28947E-04  6336   0.521E-03 0.573E-04
CGA:  13    -0.425314181505E+03   -0.62836E-04   -0.60530E-04  6336   0.133E-03-0.987E-04
CGA:  14    -0.425314180089E+03    0.14159E-05   -0.18534E-05  6336   0.372E-04 0.297E-04
   9 F= -.42531418E+03 E0= -.42530395E+03  d E =-.278674E-03  mag=    10.0000
       N       E                     dE             d eps       ncg     rms          ort
SDA:   1    -0.424328390527E+03    0.98579E+00    0.00000E+00  6336   0.278E+01 0.000E+00
CGA:   2    -0.424692074681E+03   -0.36368E+00   -0.36862E+00  6336   0.803E+01-0.177E+00
CGA:   3    -0.425099159724E+03   -0.40709E+00   -0.41897E+00  6336   0.131E+01-0.169E+00
CGA:   4    -0.425161724645E+03   -0.62565E-01   -0.65022E-01  6336   0.137E+01-0.388E-01
CGA:   5    -0.425267241324E+03   -0.10552E+00   -0.10576E+00  6336   0.428E+00-0.110E-03
CGA:   6    -0.425280344413E+03   -0.13103E-01   -0.12822E-01  6336   0.102E+00 0.269E-01
CGA:   7    -0.425296309054E+03   -0.15965E-01   -0.15869E-01  6336   0.140E+00 0.229E-02
CGA:   8    -0.425301093806E+03   -0.47848E-02   -0.48856E-02  6336   0.151E-01-0.846E-02
CGA:   9    -0.425303137219E+03   -0.20434E-02   -0.21303E-02  6336   0.540E-01-0.191E-02
CGA:  10    -0.425304705427E+03   -0.15682E-02   -0.16311E-02  6336   0.463E-02 0.791E-03
CGA:  11    -0.425304828327E+03   -0.12290E-03   -0.16547E-03  6336   0.412E-02 0.612E-03
CGA:  12    -0.425305335496E+03   -0.50717E-03   -0.50551E-03  6336   0.742E-02 0.168E-03
CGA:  13    -0.425305751764E+03   -0.41627E-03   -0.34709E-03  6336   0.131E-02-0.136E-02
CGA:  14    -0.425305792145E+03   -0.40381E-04   -0.44336E-04  6336   0.140E-02 0.692E-04
CGA:  15    -0.425305996146E+03   -0.20400E-03   -0.19585E-03  6336   0.127E-02 0.209E-03
CGA:  16    -0.425306123376E+03   -0.12723E-03   -0.10543E-03  6336   0.221E-02-0.949E-03
CGA:  17    -0.425306138018E+03   -0.14643E-04   -0.45113E-04  6336   0.246E-03 0.401E-03
CGA:  18    -0.425306137079E+03    0.93922E-06   -0.77604E-05  6336   0.182E-03 0.136E-03
CGA:  19    -0.425306176457E+03   -0.39378E-04    0.33479E-04  6336   0.343E-03 0.429E-04
CGA:  20    -0.425306203423E+03   -0.26966E-04   -0.29381E-04  6336   0.159E-03 0.133E-03
CGA:  21    -0.425306211178E+03   -0.77553E-05   -0.92975E-05  6336   0.996E-04 0.341E-04
CGA:  22    -0.425306237015E+03   -0.25837E-04   -0.30757E-04  6336   0.428E-03-0.292E-04
CGA:  23    -0.425306253023E+03   -0.16008E-04   -0.99670E-05  6336   0.109E-03-0.101E-03
CGA:  24    -0.425306256117E+03   -0.30939E-05   -0.39916E-05  6336   0.142E-03 0.210E-04
CGA:  25    -0.425306272082E+03   -0.15964E-04   -0.15746E-04  6336   0.252E-03 0.395E-04
CGA:  26    -0.425305666252E+03    0.60583E-03   -0.13586E-03  6336   0.226E-01-0.227E-02
CGA:  27    -0.425306060620E+03   -0.39437E-03   -0.48589E-03  6336   0.133E-02 0.105E-02
CGA:  28    -0.425306102815E+03   -0.42195E-04   -0.55073E-04  6336   0.967E-03 0.213E-03
CGA:  29    -0.425306294866E+03   -0.19205E-03   -0.19280E-03  6336   0.690E-03-0.104E-04
CGA:  30    -0.425306305009E+03   -0.10144E-04   -0.14153E-04  6336   0.116E-03 0.485E-04
CGA:  31    -0.425306324263E+03   -0.19254E-04   -0.19022E-04  6336   0.653E-03 0.357E-05
CGA:  32    -0.425306357914E+03   -0.33651E-04   -0.32670E-04  6336   0.205E-03-0.192E-04
CGA:  33    -0.425306355780E+03    0.21338E-05   -0.41563E-05  6336   0.105E-03 0.823E-04
  10 F= -.42530636E+03 E0= -.42529590E+03  d E =0.782431E-02  mag=    10.0000
       N       E                     dE             d eps       ncg     rms          ort
SDA:   1    -0.424753291920E+03    0.55307E+00    0.00000E+00  6336   0.168E+01 0.000E+00
CGA:   2    -0.424940835032E+03   -0.18754E+00   -0.18490E+00  6336   0.403E+01 0.848E-01
CGA:   3    -0.425182101916E+03   -0.24127E+00   -0.23346E+00  6336   0.114E+01 0.262E-01
CGA:   4    -0.425225900877E+03   -0.43799E-01   -0.44502E-01  6336   0.479E+00-0.183E-01
CGA:   5    -0.425289531158E+03   -0.63630E-01   -0.63734E-01  6336   0.293E+00-0.213E-02
CGA:   6    -0.425299029479E+03   -0.94983E-02   -0.93323E-02  6336   0.763E-01-0.721E-02
CGA:   7    -0.425304337446E+03   -0.53080E-02   -0.53135E-02  6336   0.918E-01 0.374E-03
CGA:   8    -0.425309767208E+03   -0.54298E-02   -0.54296E-02  6336   0.146E-01-0.120E-03
CGA:   9    -0.425310494375E+03   -0.72717E-03   -0.71298E-03  6336   0.116E-01-0.476E-03
CGA:  10    -0.425311528418E+03   -0.10340E-02   -0.10398E-02  6336   0.149E-01-0.608E-03
CGA:  11    -0.425311981835E+03   -0.45342E-03   -0.51332E-03  6336   0.133E-02 0.123E-02
CGA:  12    -0.425311929190E+03    0.52645E-04   -0.13704E-03  6336   0.205E-01-0.177E-02
CGA:  13    -0.425312348292E+03   -0.41910E-03   -0.52636E-03  6336   0.104E-02 0.176E-02
CGA:  14    -0.425312430021E+03   -0.81729E-04   -0.95058E-04  6336   0.180E-02 0.234E-03
CGA:  15    -0.425312630697E+03   -0.20068E-03   -0.18513E-03  6336   0.527E-03-0.294E-03
CGA:  16    -0.425312647137E+03   -0.16440E-04   -0.12647E-04  6336   0.197E-03-0.390E-04
CGA:  17    -0.425312654035E+03   -0.68974E-05   -0.12928E-04  6336   0.192E-03 0.101E-03
CGA:  18    -0.425312679082E+03   -0.25047E-04   -0.20087E-04  6336   0.108E-02-0.222E-03
CGA:  19    -0.425312689167E+03   -0.10086E-04   -0.23098E-04  6336   0.902E-04 0.127E-03
CGA:  20    -0.425312685926E+03    0.32418E-05   -0.22773E-05  6336   0.620E-04 0.561E-04
CGA:  21    -0.425312665060E+03    0.20865E-04   -0.15809E-04  6336   0.379E-02-0.110E-03
CGA:  22    -0.425312732881E+03   -0.67821E-04   -0.78930E-04  6336   0.139E-03 0.242E-04
CGA:  23    -0.425312728297E+03    0.45834E-05   -0.33017E-05  6336   0.409E-04 0.439E-04
  11 F= -.42531273E+03 E0= -.42530237E+03  d E =-.637252E-02  mag=    10.0000
       N       E                     dE             d eps       ncg     rms          ort
SDA:   1    -0.425224023971E+03    0.88709E-01    0.00000E+00  6336   0.293E+00 0.000E+00
CGA:   2    -0.425243585345E+03   -0.19561E-01   -0.20580E-01  6336   0.527E+00-0.940E-03
CGA:   3    -0.425288374757E+03   -0.44789E-01   -0.45184E-01  6336   0.350E+00-0.246E-02
CGA:   4    -0.425298853944E+03   -0.10479E-01   -0.11824E-01  6336   0.676E-01-0.447E-01
CGA:   5    -0.425306632406E+03   -0.77785E-02   -0.77803E-02  6336   0.653E-01 0.374E-03
CGA:   6    -0.425309100159E+03   -0.24678E-02   -0.24483E-02  6336   0.147E-01-0.114E-02
CGA:   7    -0.425309853516E+03   -0.75336E-03   -0.67951E-03  6336   0.115E-01-0.730E-03
CGA:   8    -0.425310653420E+03   -0.79990E-03   -0.82815E-03  6336   0.371E-02 0.355E-03
CGA:   9    -0.425310857629E+03   -0.20421E-03   -0.18942E-03  6336   0.181E-02-0.182E-03
CGA:  10    -0.425310991072E+03   -0.13344E-03   -0.14088E-03  6336   0.181E-02 0.114E-03
CGA:  11    -0.425311074716E+03   -0.83644E-04   -0.81309E-04  6336   0.725E-03-0.384E-04
CGA:  12    -0.425311109424E+03   -0.34708E-04   -0.41685E-04  6336   0.307E-03 0.871E-04
CGA:  13    -0.425311148022E+03   -0.38597E-04   -0.37057E-04  6336   0.712E-03-0.621E-04
CGA:  14    -0.425311163789E+03   -0.15768E-04   -0.22878E-04  6336   0.215E-03 0.761E-04
CGA:  15    -0.425311166680E+03   -0.28909E-05   -0.67271E-05  6336   0.884E-04 0.384E-04
  12 F= -.42531117E+03 E0= -.42530081E+03  d E =0.156162E-02  mag=    10.0000
       N       E                     dE             d eps       ncg     rms          ort
SDA:   1    -0.424237369239E+03    0.10738E+01    0.00000E+00  6336   0.378E+01 0.000E+00
CGA:   2    -0.424447135796E+03   -0.20977E+00   -0.24235E+00  6336   0.678E+01-0.298E+00
CGA:   3    -0.425034135210E+03   -0.58700E+00   -0.58494E+00  6336   0.454E+01-0.227E-01
CGA:   4    -0.425165156433E+03   -0.13102E+00   -0.14961E+00  6336   0.728E+00-0.396E+00
CGA:   5    -0.425236712751E+03   -0.71556E-01   -0.71576E-01  6336   0.122E+01-0.504E-03
CGA:   6    -0.425278334847E+03   -0.41622E-01   -0.40756E-01  6336   0.197E+00 0.174E-01
CGA:   7    -0.425286859547E+03   -0.85247E-02   -0.86966E-02  6336   0.845E-01-0.717E-02
CGA:   8    -0.425296740142E+03   -0.98806E-02   -0.98796E-02  6336   0.521E-01 0.881E-05
CGA:   9    -0.425298865789E+03   -0.21256E-02   -0.21471E-02  6336   0.151E-01 0.547E-03
CGA:  10    -0.425299862474E+03   -0.99669E-03   -0.97406E-03  6336   0.239E-01-0.710E-03
CGA:  11    -0.425301413307E+03   -0.15508E-02   -0.15639E-02  6336   0.719E-02 0.367E-03
CGA:  12    -0.425301671250E+03   -0.25794E-03   -0.28690E-03  6336   0.218E-02 0.552E-03
CGA:  13    -0.425302025611E+03   -0.35436E-03   -0.41669E-03  6336   0.139E-01-0.770E-03
CGA:  14    -0.425302260344E+03   -0.23473E-03   -0.22621E-03  6336   0.714E-02-0.122E-03
CGA:  15    -0.425302333430E+03   -0.73086E-04   -0.95954E-04  6336   0.150E-02 0.237E-03
CGA:  16    -0.425302344557E+03   -0.11127E-04   -0.30903E-04  6336   0.132E-02 0.263E-03
CGA:  17    -0.425302384446E+03   -0.39889E-04   -0.58798E-04  6336   0.238E-02 0.376E-03
CGA:  18    -0.425302534226E+03   -0.14978E-03   -0.14954E-03  6336   0.408E-02-0.122E-04
CGA:  19    -0.425302679919E+03   -0.14569E-03   -0.11434E-03  6336   0.183E-02-0.577E-03
CGA:  20    -0.425302712588E+03   -0.32669E-04   -0.22602E-04  6336   0.444E-03-0.159E-03
CGA:  21    -0.425302720864E+03   -0.82764E-05   -0.86630E-05  6336   0.498E-03 0.501E-05
CGA:  22    -0.425302743823E+03   -0.22959E-04   -0.25890E-04  6336   0.142E-02 0.123E-03
CGA:  23    -0.425302803343E+03   -0.59520E-04   -0.65397E-04  6336   0.360E-03 0.160E-03
CGA:  24    -0.425302821241E+03   -0.17898E-04   -0.12281E-04  6336   0.249E-03-0.138E-03
CGA:  25    -0.425302828709E+03   -0.74682E-05   -0.18033E-04  6336   0.105E-02-0.223E-03
CGA:  26    -0.425302840250E+03   -0.11541E-04   -0.22648E-04  6336   0.923E-04 0.222E-03
CGA:  27    -0.425302839668E+03    0.58189E-06   -0.23558E-05  6336   0.604E-04 0.601E-04
CGA:  28    -0.425302848760E+03   -0.90923E-05    0.17252E-04  6336   0.462E-04 0.453E-04
  13 F= -.42530285E+03 E0= -.42529251E+03  d E =0.831792E-02  mag=    10.0000
       N       E                     dE             d eps       ncg     rms          ort
SDA:   1    -0.420954480696E+03    0.43484E+01    0.00000E+00  6336   0.104E+02 0.000E+00
CGA:   2    -0.423691725235E+03   -0.27372E+01   -0.27005E+01  6336   0.300E+02 0.406E+00
CGA:   3    -0.424599137344E+03   -0.90741E+00   -0.10367E+01  6336   0.648E+01-0.555E+01
CGA:   4    -0.424841923321E+03   -0.24279E+00   -0.23568E+00  6336   0.313E+01-0.453E-01
CGA:   5    -0.425129768998E+03   -0.28785E+00   -0.28534E+00  6336   0.162E+01 0.837E-01
CGA:   6    -0.425206889483E+03   -0.77120E-01   -0.75117E-01  6336   0.389E+00 0.153E-01
CGA:   7    -0.425234380138E+03   -0.27491E-01   -0.27498E-01  6336   0.501E+00 0.216E-04
CGA:   8    -0.425259939439E+03   -0.25559E-01   -0.25451E-01  6336   0.180E+00-0.890E-03
CGA:   9    -0.425267972941E+03   -0.80335E-02   -0.80541E-02  6336   0.593E-01-0.192E-02
CGA:  10    -0.425274184510E+03   -0.62116E-02   -0.61046E-02  6336   0.596E-01 0.306E-02
CGA:  11    -0.425277917623E+03   -0.37331E-02   -0.36975E-02  6336   0.321E-01-0.316E-02
CGA:  12    -0.425279114163E+03   -0.11965E-02   -0.12315E-02  6336   0.152E-01 0.111E-02
CGA:  13    -0.425280038957E+03   -0.92479E-03   -0.93414E-03  6336   0.109E-01 0.987E-03
CGA:  14    -0.425281388798E+03   -0.13498E-02   -0.15094E-02  6336   0.163E-01-0.266E-02
CGA:  15    -0.425281920607E+03   -0.53181E-03   -0.55973E-03  6336   0.262E-02 0.110E-02
CGA:  16    -0.425282168123E+03   -0.24752E-03   -0.23740E-03  6336   0.540E-02 0.699E-03
CGA:  17    -0.425283073425E+03   -0.90530E-03   -0.10448E-02  6336   0.327E-02-0.172E-02
CGA:  18    -0.425283123512E+03   -0.50087E-04   -0.55241E-04  6336   0.116E-02 0.966E-04
CGA:  19    -0.425283165590E+03   -0.42078E-04   -0.53136E-04  6336   0.157E-02 0.389E-03
CGA:  20    -0.425283345786E+03   -0.18020E-03   -0.17453E-03  6336   0.251E-02 0.476E-03
CGA:  21    -0.425283502262E+03   -0.15648E-03   -0.14307E-03  6336   0.581E-03-0.487E-03
CGA:  22    -0.425283515834E+03   -0.13572E-04   -0.19276E-04  6336   0.253E-03 0.194E-03
CGA:  23    -0.425283542199E+03   -0.26365E-04   -0.25201E-04  6336   0.368E-03 0.209E-03
CGA:  24    -0.425283408206E+03    0.13399E-03   -0.80831E-04  6336   0.127E-01-0.144E-02
CGA:  25    -0.425283622165E+03   -0.21396E-03   -0.27218E-03  6336   0.412E-03 0.107E-02
CGA:  26    -0.425283622689E+03   -0.52380E-06   -0.80122E-05  6336   0.851E-04 0.133E-03
  14 F= -.42528362E+03 E0= -.42527310E+03  d E =0.192261E-01  mag=    10.0000
       N       E                     dE             d eps       ncg     rms          ort
SDA:   1    -0.422674795270E+03    0.26088E+01    0.00000E+00  6336   0.634E+01 0.000E+00
CGA:   2    -0.424132837488E+03   -0.14580E+01   -0.14363E+01  6336   0.201E+02 0.198E+00
CGA:   3    -0.424870232914E+03   -0.73740E+00   -0.74118E+00  6336   0.302E+01-0.117E+01
CGA:   4    -0.424994277222E+03   -0.12404E+00   -0.12332E+00  6336   0.204E+01-0.156E-01
CGA:   5    -0.425202522044E+03   -0.20824E+00   -0.20800E+00  6336   0.826E+00 0.661E-02
CGA:   6    -0.425226865216E+03   -0.24343E-01   -0.23784E-01  6336   0.201E+00 0.155E-01
CGA:   7    -0.425247541178E+03   -0.20676E-01   -0.20835E-01  6336   0.336E+00-0.643E-02
CGA:   8    -0.425263082819E+03   -0.15542E-01   -0.15668E-01  6336   0.429E-01 0.640E-02
CGA:   9    -0.425264933921E+03   -0.18511E-02   -0.18760E-02  6336   0.391E-01 0.418E-03
CGA:  10    -0.425270396204E+03   -0.54623E-02   -0.54514E-02  6336   0.193E-01 0.122E-03
CGA:  11    -0.425271051324E+03   -0.65512E-03   -0.59845E-03  6336   0.668E-02-0.142E-02
CGA:  12    -0.425271907956E+03   -0.85663E-03   -0.84110E-03  6336   0.153E-01 0.228E-03
CGA:  13    -0.425272638061E+03   -0.73010E-03   -0.73150E-03  6336   0.348E-02-0.290E-04
CGA:  14    -0.425272825554E+03   -0.18749E-03   -0.18947E-03  6336   0.369E-02 0.929E-04
CGA:  15    -0.425273296354E+03   -0.47080E-03   -0.54136E-03  6336   0.107E-01-0.104E-02
CGA:  16    -0.425273524467E+03   -0.22811E-03   -0.24969E-03  6336   0.144E-02 0.451E-03
CGA:  17    -0.425273549102E+03   -0.24635E-04   -0.38312E-04  6336   0.103E-02 0.274E-03
CGA:  18    -0.425273688273E+03   -0.13917E-03   -0.12818E-03  6336   0.283E-02 0.334E-03
CGA:  19    -0.425273896669E+03   -0.20840E-03   -0.19673E-03  6336   0.162E-02-0.576E-03
CGA:  20    -0.425273924987E+03   -0.28318E-04   -0.29561E-04  6336   0.402E-03 0.186E-04
CGA:  21    -0.425273930259E+03   -0.52718E-05   -0.11513E-04  6336   0.446E-03 0.149E-03
CGA:  22    -0.425273966813E+03   -0.36554E-04   -0.38103E-04  6336   0.673E-03 0.283E-03
CGA:  23    -0.425274008874E+03   -0.42062E-04   -0.33706E-04  6336   0.103E-02-0.488E-03
CGA:  24    -0.425274015541E+03   -0.66672E-05   -0.18452E-04  6336   0.162E-03 0.237E-03
  15 F= -.42527402E+03 E0= -.42526319E+03  d E =0.960715E-02  mag=    10.0000
       N       E                     dE             d eps       ncg     rms          ort
SDA:   1    -0.424918003135E+03    0.35601E+00    0.00000E+00  6336   0.108E+01 0.000E+00
CGA:   2    -0.425126049941E+03   -0.20805E+00   -0.21079E+00  6336   0.204E+01-0.273E-01
CGA:   3    -0.425201138623E+03   -0.75089E-01   -0.79005E-01  6336   0.353E+00-0.609E-01
CGA:   4    -0.425265179038E+03   -0.64040E-01   -0.62838E-01  6336   0.931E-01 0.103E-01
CGA:   5    -0.425271235831E+03   -0.60568E-02   -0.60627E-02  6336   0.113E+00-0.151E-02
CGA:   6    -0.425279069964E+03   -0.78341E-02   -0.78383E-02  6336   0.530E-01 0.180E-02
CGA:   7    -0.425280274775E+03   -0.12048E-02   -0.13371E-02  6336   0.778E-02 0.225E-02
CGA:   8    -0.425281927034E+03   -0.16523E-02   -0.17007E-02  6336   0.137E-01-0.355E-03
CGA:   9    -0.425282418958E+03   -0.49192E-03   -0.44281E-03  6336   0.300E-02-0.129E-02
CGA:  10    -0.425282549701E+03   -0.13074E-03   -0.13059E-03  6336   0.352E-02-0.143E-04
CGA:  11    -0.425282977418E+03   -0.42772E-03   -0.43417E-03  6336   0.103E-02-0.132E-03
CGA:  12    -0.425283049919E+03   -0.72501E-04   -0.70850E-04  6336   0.153E-02-0.362E-03
CGA:  13    -0.425283168098E+03   -0.11818E-03   -0.11656E-03  6336   0.109E-02 0.381E-04
CGA:  14    -0.425283190854E+03   -0.22756E-04   -0.28841E-04  6336   0.277E-03 0.115E-03
CGA:  15    -0.425283208792E+03   -0.17938E-04   -0.19784E-04  6336   0.335E-03 0.169E-03
CGA:  16    -0.425283010788E+03    0.19800E-03   -0.88170E-04  6336   0.143E-01-0.152E-02
CGA:  17    -0.425283293792E+03   -0.28300E-03   -0.33669E-03  6336   0.289E-03 0.135E-02
CGA:  18    -0.425283290168E+03    0.36235E-05   -0.46768E-05  6336   0.633E-04 0.124E-03
  16 F= -.42528329E+03 E0= -.42527238E+03  d E =-.927463E-02  mag=    10.0000
       N       E                     dE             d eps       ncg     rms          ort
SDA:   1    -0.424377635527E+03    0.90566E+00    0.00000E+00  6336   0.232E+01 0.000E+00
CGA:   2    -0.424747041055E+03   -0.36941E+00   -0.36745E+00  6336   0.906E+01 0.231E-01
CGA:   3    -0.425102204709E+03   -0.35516E+00   -0.36834E+00  6336   0.183E+01-0.228E+00
CGA:   4    -0.425164861840E+03   -0.62657E-01   -0.57759E-01  6336   0.497E+00 0.129E+00
CGA:   5    -0.425250513969E+03   -0.85652E-01   -0.86063E-01  6336   0.409E+00-0.490E-02
CGA:   6    -0.425259980099E+03   -0.94661E-02   -0.95892E-02  6336   0.766E-01-0.177E-01
CGA:   7    -0.425267710769E+03   -0.77307E-02   -0.77352E-02  6336   0.126E+00-0.343E-03
CGA:   8    -0.425273487375E+03   -0.57766E-02   -0.58000E-02  6336   0.941E-02 0.114E-02
CGA:   9    -0.425274979445E+03   -0.14921E-02   -0.13576E-02  6336   0.166E-01 0.199E-02
CGA:  10    -0.425275902230E+03   -0.92278E-03   -0.87002E-03  6336   0.721E-02-0.154E-02
CGA:  11    -0.425276146284E+03   -0.24405E-03   -0.25187E-03  6336   0.263E-02 0.190E-03
CGA:  12    -0.425276301829E+03   -0.15554E-03   -0.16468E-03  6336   0.162E-02 0.619E-03
CGA:  13    -0.425276305190E+03   -0.33608E-05   -0.63510E-03  6336   0.203E-01-0.261E-02
CGA:  14    -0.425276698842E+03   -0.39365E-03   -0.48779E-03  6336   0.891E-03 0.192E-02
CGA:  15    -0.425276741549E+03   -0.42707E-04   -0.53532E-04  6336   0.101E-02 0.373E-03
CGA:  16    -0.425276930771E+03   -0.18922E-03   -0.20854E-03  6336   0.609E-03-0.306E-03
CGA:  17    -0.425276935836E+03   -0.50655E-05   -0.92767E-05  6336   0.212E-03 0.650E-04
  17 F= -.42527694E+03 E0= -.42526594E+03  d E =0.635433E-02  mag=    10.0000
       N       E                     dE             d eps       ncg     rms          ort
SDA:   1    -0.424300510358E+03    0.97642E+00    0.00000E+00  6336   0.371E+01 0.000E+00
CGA:   2    -0.424541785841E+03   -0.24128E+00   -0.24893E+00  6336   0.457E+01 0.177E+00
CGA:   3    -0.424974271367E+03   -0.43249E+00   -0.43196E+00  6336   0.413E+01 0.251E-01
CGA:   4    -0.425091931279E+03   -0.11766E+00   -0.11727E+00  6336   0.101E+01-0.135E-01
CGA:   5    -0.425206085627E+03   -0.11415E+00   -0.11332E+00  6336   0.113E+01 0.170E-01
CGA:   6    -0.425247620887E+03   -0.41535E-01   -0.42272E-01  6336   0.233E+00-0.139E-01
CGA:   7    -0.425254238651E+03   -0.66178E-02   -0.68120E-02  6336   0.986E-01 0.539E-02
CGA:   8    -0.425264567319E+03   -0.10329E-01   -0.10324E-01  6336   0.125E+00 0.671E-04
CGA:   9    -0.425269866154E+03   -0.52988E-02   -0.52667E-02  6336   0.264E-01-0.385E-02
CGA:  10    -0.425270597457E+03   -0.73130E-03   -0.79648E-03  6336   0.136E-01 0.149E-02
CGA:  11    -0.425271847491E+03   -0.12500E-02   -0.12325E-02  6336   0.179E-01 0.127E-02
CGA:  12    -0.425273101934E+03   -0.12544E-02   -0.12315E-02  6336   0.784E-02-0.248E-02
CGA:  13    -0.425273249852E+03   -0.14792E-03   -0.18530E-03  6336   0.257E-02 0.808E-03
CGA:  14    -0.425273332052E+03   -0.82200E-04   -0.10601E-03  6336   0.186E-02 0.729E-03
CGA:  15    -0.425273601251E+03   -0.26920E-03   -0.28929E-03  6336   0.923E-02-0.393E-03
CGA:  16    -0.425273774533E+03   -0.17328E-03   -0.17176E-03  6336   0.514E-02-0.449E-04
CGA:  17    -0.425273820785E+03   -0.46252E-04   -0.60145E-04  6336   0.105E-02 0.255E-03
CGA:  18    -0.425273826554E+03   -0.57697E-05   -0.16272E-04  6336   0.794E-03 0.203E-03
CGA:  19    -0.425273847885E+03   -0.21330E-04   -0.30951E-04  6336   0.178E-02 0.313E-03
CGA:  20    -0.425273974527E+03   -0.12664E-03   -0.12859E-03  6336   0.268E-02 0.192E-03
CGA:  21    -0.425274095841E+03   -0.12131E-03   -0.94537E-04  6336   0.160E-02-0.936E-03
CGA:  22    -0.425274131215E+03   -0.35374E-04   -0.19529E-04  6336   0.564E-03-0.397E-03
CGA:  23    -0.425274137417E+03   -0.62018E-05   -0.68709E-05  6336   0.432E-03 0.152E-04
CGA:  24    -0.425274143731E+03   -0.63137E-05   -0.11910E-04  6336   0.739E-03 0.194E-03
CGA:  25    -0.425274181770E+03   -0.38039E-04   -0.44212E-04  6336   0.522E-03 0.476E-03
CGA:  26    -0.425274203699E+03   -0.21929E-04   -0.36621E-04  6336   0.293E-02-0.887E-03
CGA:  27    -0.425274231239E+03   -0.27541E-04   -0.46228E-04  6336   0.172E-03 0.476E-03
CGA:  28    -0.425274229342E+03    0.18972E-05   -0.26839E-05  6336   0.107E-03 0.117E-03
  18 F= -.42527423E+03 E0= -.42526311E+03  d E =0.270649E-02  mag=    10.0000
       N       E                     dE             d eps       ncg     rms          ort
SDA:   1    -0.422160264924E+03    0.31140E+01    0.00000E+00  6336   0.749E+01 0.000E+00
CGA:   2    -0.424277473480E+03   -0.21172E+01   -0.52944E-01  6336   0.129E+02-0.591E+00
CGA:   3    -0.424760705989E+03   -0.48323E+00   -0.31627E+00  6336   0.393E+01 0.500E+01
CGA:   4    -0.424886640878E+03   -0.12593E+00   -0.11551E+00  6336   0.218E+01 0.172E+00
CGA:   5    -0.424989239080E+03   -0.10260E+00   -0.10443E+00  6336   0.495E+01-0.156E-02
CGA:   6    -0.425129048462E+03   -0.13981E+00   -0.14053E+00  6336   0.327E+01-0.168E-01
CGA:   7    -0.425178683763E+03   -0.49635E-01   -0.50308E-01  6336   0.585E+00-0.104E+00
CGA:   8    -0.425189680789E+03   -0.10997E-01   -0.10545E-01  6336   0.400E+00-0.769E-02
CGA:   9    -0.425213463682E+03   -0.23783E-01   -0.23632E-01  6336   0.117E+01-0.115E-01
CGA:  10    -0.425242823426E+03   -0.29360E-01   -0.29370E-01  6336   0.435E+00 0.559E-02
CGA:  11    -0.425248627166E+03   -0.58037E-02   -0.63232E-02  6336   0.897E-01-0.344E-02
CGA:  12    -0.425250448434E+03   -0.18213E-02   -0.19789E-02  6336   0.708E-01 0.498E-02
CGA:  13    -0.425253508026E+03   -0.30596E-02   -0.31001E-02  6336   0.140E+00 0.245E-02
CGA:  14    -0.425259530810E+03   -0.60228E-02   -0.59636E-02  6336   0.150E+00-0.282E-02
CGA:  15    -0.425262130112E+03   -0.25993E-02   -0.25652E-02  6336   0.255E-01-0.627E-02
CGA:  16    -0.425262534738E+03   -0.40463E-03   -0.39451E-03  6336   0.103E-01-0.364E-03
CGA:  17    -0.425263029557E+03   -0.49482E-03   -0.49564E-03  6336   0.279E-01 0.485E-04
CGA:  18    -0.425264456060E+03   -0.14265E-02   -0.14276E-02  6336   0.400E-01 0.106E-03
CGA:  19    -0.425265298282E+03   -0.84222E-03   -0.85943E-03  6336   0.120E-01 0.384E-03
CGA:  20    -0.425265478226E+03   -0.17994E-03   -0.20015E-03  6336   0.287E-02 0.486E-03
CGA:  21    -0.425265541486E+03   -0.63261E-04   -0.71852E-04  6336   0.299E-02 0.273E-03
CGA:  22    -0.425265835287E+03   -0.29380E-03   -0.30092E-03  6336   0.138E-01-0.190E-03
CGA:  23    -0.425266200133E+03   -0.36485E-03   -0.33179E-03  6336   0.544E-02-0.116E-02
CGA:  24    -0.425266280860E+03   -0.80727E-04   -0.64197E-04  6336   0.102E-02-0.459E-03
CGA:  25    -0.425266304822E+03   -0.23961E-04   -0.21999E-04  6336   0.124E-02-0.778E-04
CGA:  26    -0.425266354933E+03   -0.50111E-04   -0.51553E-04  6336   0.302E-02 0.293E-03
CGA:  27    -0.425266476987E+03   -0.12205E-03   -0.13341E-03  6336   0.178E-02 0.818E-03
CGA:  28    -0.425266543475E+03   -0.66488E-04   -0.65740E-04  6336   0.554E-03-0.573E-04
CGA:  29    -0.425266572027E+03   -0.28552E-04   -0.36616E-04  6336   0.215E-02-0.402E-03
CGA:  30    -0.425266597364E+03   -0.25337E-04   -0.37113E-04  6336   0.262E-03 0.365E-03
CGA:  31    -0.425266608361E+03   -0.10997E-04   -0.11985E-04  6336   0.374E-03 0.119E-03
CGA:  32    -0.425266545988E+03    0.62373E-04   -0.51536E-04  6336   0.630E-02-0.931E-03
CGA:  33    -0.425266669312E+03   -0.12332E-03   -0.13774E-03  6336   0.691E-03 0.176E-03
CGA:  34    -0.425266718806E+03   -0.49494E-04   -0.49759E-04  6336   0.115E-02 0.176E-04
CGA:  35    -0.425266763077E+03   -0.44271E-04   -0.57640E-04  6336   0.176E-03 0.404E-03
CGA:  36    -0.425266765783E+03   -0.27063E-05   -0.60060E-05  6336   0.665E-04 0.596E-04
CGA:  37    -0.425266740947E+03    0.24836E-04   -0.17080E-04  6336   0.338E-02-0.167E-03
CGA:  38    -0.425266797083E+03   -0.56136E-04   -0.77639E-04  6336   0.165E-03 0.194E-03
CGA:  39    -0.425266805288E+03   -0.82048E-05   -0.78344E-05  6336   0.201E-03-0.474E-05
CGA:  40    -0.425266841226E+03   -0.35938E-04   -0.43463E-04  6336   0.338E-03-0.820E-04
CGA:  41    -0.425266868928E+03   -0.27702E-04   -0.87457E-05  6336   0.216E-03-0.210E-03
CGA:  42    -0.425266865807E+03    0.31215E-05   -0.73438E-05  6336   0.123E-03 0.108E-03
CGA:  43    -0.425266872064E+03   -0.62570E-05   -0.12623E-04  6336   0.119E-03 0.110E-03
CGA:  44    -0.425266885377E+03   -0.13313E-04   -0.16024E-04  6336   0.120E-02-0.230E-03
CGA:  45    -0.425266892555E+03   -0.71775E-05   -0.26147E-04  6336   0.605E-04 0.201E-03
  19 F= -.42526689E+03 E0= -.42525558E+03  d E =0.733679E-02  mag=    10.0000
       N       E                     dE             d eps       ncg     rms          ort
SDA:   1    -0.418965838846E+03    0.63010E+01    0.00000E+00  6336   0.154E+02 0.000E+00
CGA:   2    -0.422344428410E+03   -0.33786E+01   -0.35455E+01  6336   0.544E+02-0.554E+00
CGA:   3    -0.424086050531E+03   -0.17416E+01   -0.24124E+01  6336   0.997E+01-0.131E+02
CGA:   4    -0.424445786191E+03   -0.35974E+00   -0.38398E+00  6336   0.848E+01-0.347E+00
CGA:   5    -0.424834809734E+03   -0.38902E+00   -0.38968E+00  6336   0.495E+01-0.206E+00
CGA:   6    -0.425051717054E+03   -0.21691E+00   -0.25053E+00  6336   0.135E+01-0.382E+00
CGA:   7    -0.425112637311E+03   -0.60920E-01   -0.57114E-01  6336   0.890E+00 0.598E-01
CGA:   8    -0.425156769734E+03   -0.44132E-01   -0.44240E-01  6336   0.877E+00 0.928E-02
CGA:   9    -0.425210118612E+03   -0.53349E-01   -0.54353E-01  6336   0.244E+00-0.148E-01
CGA:  10    -0.425219172774E+03   -0.90542E-02   -0.90069E-02  6336   0.160E+00 0.423E-02
CGA:  11    -0.425227521227E+03   -0.83485E-02   -0.85219E-02  6336   0.170E+00 0.462E-02
CGA:  12    -0.425239371471E+03   -0.11850E-01   -0.11822E-01  6336   0.693E-01-0.506E-02
CGA:  13    -0.425241349193E+03   -0.19777E-02   -0.19857E-02  6336   0.331E-01-0.108E-02
CGA:  14    -0.425242958051E+03   -0.16089E-02   -0.16966E-02  6336   0.295E-01 0.252E-02
CGA:  15    -0.425245549022E+03   -0.25910E-02   -0.25810E-02  6336   0.381E-01-0.198E-02
CGA:  16    -0.425246638965E+03   -0.10899E-02   -0.10214E-02  6336   0.118E-01-0.174E-02
CGA:  17    -0.425246999095E+03   -0.36013E-03   -0.41718E-03  6336   0.634E-02 0.130E-02
CGA:  18    -0.425247376803E+03   -0.37771E-03   -0.39407E-03  6336   0.119E-01 0.633E-03
CGA:  19    -0.425248461812E+03   -0.10850E-02   -0.10911E-02  6336   0.110E-01-0.227E-02
CGA:  20    -0.425248688495E+03   -0.22668E-03   -0.23691E-03  6336   0.296E-02 0.249E-03
CGA:  21    -0.425248728278E+03   -0.39783E-04   -0.71046E-04  6336   0.174E-02 0.566E-03
CGA:  22    -0.425248866895E+03   -0.13862E-03   -0.14247E-03  6336   0.500E-02 0.614E-03
CGA:  23    -0.425249402567E+03   -0.53567E-03   -0.54062E-03  6336   0.402E-02-0.102E-02
CGA:  24    -0.425249510299E+03   -0.10773E-03   -0.89224E-04  6336   0.947E-03-0.388E-03
CGA:  25    -0.425249539293E+03   -0.28994E-04   -0.33824E-04  6336   0.133E-02 0.146E-03
CGA:  26    -0.425249748187E+03   -0.20889E-03   -0.18788E-03  6336   0.233E-02 0.408E-03
CGA:  27    -0.425249898513E+03   -0.15033E-03   -0.13537E-03  6336   0.121E-02-0.584E-03
CGA:  28    -0.425249938479E+03   -0.39967E-04   -0.42556E-04  6336   0.780E-03 0.110E-03
CGA:  29    -0.425249971476E+03   -0.32997E-04   -0.37135E-04  6336   0.664E-03 0.149E-03
CGA:  30    -0.425250087423E+03   -0.11595E-03   -0.10457E-03  6336   0.110E-02 0.178E-03
CGA:  31    -0.425250144845E+03   -0.57423E-04   -0.56922E-04  6336   0.714E-03 0.403E-05
SDA:  32    -0.425250200188E+03   -0.55342E-04   -0.61370E-04  6336   0.198E-02-0.420E-03
CGA:  33    -0.425250220344E+03   -0.20157E-04   -0.38424E-04  6336   0.271E-03 0.348E-03
CGA:  34    -0.425250226322E+03   -0.59780E-05   -0.10577E-04  6336   0.265E-03 0.127E-03
CGA:  35    -0.425250280847E+03   -0.54525E-04   -0.53238E-04  6336   0.127E-02 0.177E-04
CGA:  36    -0.425250321990E+03   -0.41143E-04   -0.40036E-04  6336   0.400E-03-0.143E-04
CGA:  37    -0.425250331934E+03   -0.99442E-05   -0.76729E-05  6336   0.166E-03-0.452E-04
CGA:  38    -0.425250353257E+03   -0.21323E-04    0.50939E-04  6336   0.516E-03-0.923E-05
CGA:  39    -0.425250396247E+03   -0.42990E-04   -0.46872E-04  6336   0.169E-02-0.134E-03
CGA:  40    -0.425250398429E+03   -0.21824E-05   -0.20309E-04  6336   0.951E-03 0.360E-03
CGA:  41    -0.425250392914E+03    0.55151E-05   -0.13153E-04  6336   0.338E-03 0.360E-03
  20 F= -.42525039E+03 E0= -.42523885E+03  d E =0.164996E-01  mag=    10.0000
       N       E                     dE             d eps       ncg     rms          ort
SDA:   1    -0.414854938933E+03    0.10395E+02    0.00000E+00  6336   0.283E+02 0.000E+00
CGA:   2    -0.418867524190E+03   -0.40126E+01   -0.39599E+01  6336   0.725E+02 0.167E+01
CGA:   3    -0.422800328738E+03   -0.39328E+01   -0.40290E+01  6336   0.193E+02 0.999E+00
CGA:   4    -0.423504967564E+03   -0.70464E+00   -0.69826E+00  6336   0.144E+02-0.116E-01
CGA:   5    -0.424134856257E+03   -0.62989E+00   -0.62657E+00  6336   0.173E+02-0.262E+00
CGA:   6    -0.424759233569E+03   -0.62438E+00   -0.64295E+00  6336   0.621E+01-0.245E+00
CGA:   7    -0.424907231525E+03   -0.14800E+00   -0.14314E+00  6336   0.137E+01-0.996E-02
CGA:   8    -0.424961665704E+03   -0.54434E-01   -0.52091E-01  6336   0.129E+01 0.264E-01
CGA:   9    -0.425033543148E+03   -0.71877E-01   -0.71867E-01  6336   0.197E+01-0.492E-02
CGA:  10    -0.425095585487E+03   -0.62042E-01   -0.65331E-01  6336   0.542E+00-0.494E-01
CGA:  11    -0.425108165687E+03   -0.12580E-01   -0.13107E-01  6336   0.177E+00-0.138E-01
CGA:  12    -0.425114642491E+03   -0.64768E-02   -0.65011E-02  6336   0.175E+00 0.347E-02
CGA:  13    -0.425128712990E+03   -0.14070E-01   -0.13944E-01  6336   0.281E+00 0.484E-02
CGA:  14    -0.425137385225E+03   -0.86722E-02   -0.87714E-02  6336   0.810E-01-0.510E-02
CGA:  15    -0.425139975072E+03   -0.25898E-02   -0.25300E-02  6336   0.289E-01-0.622E-02
CGA:  16    -0.425141851427E+03   -0.18764E-02   -0.18315E-02  6336   0.480E-01 0.272E-02
CGA:  17    -0.425144639475E+03   -0.27880E-02   -0.27884E-02  6336   0.405E-01 0.367E-02
CGA:  18    -0.425147073776E+03   -0.24343E-02   -0.24560E-02  6336   0.252E-01-0.754E-02
CGA:  19    -0.425148091479E+03   -0.10177E-02   -0.10235E-02  6336   0.848E-02 0.172E-02
CGA:  20    -0.425148546980E+03   -0.45550E-03   -0.46027E-03  6336   0.714E-02 0.198E-02
CGA:  21    -0.425147750852E+03    0.79613E-03   -0.78958E-03  6336   0.125E+00-0.127E-01
CGA:  22    -0.425150426752E+03   -0.26759E-02   -0.27651E-02  6336   0.869E-02 0.113E-01
CGA:  23    -0.425150644905E+03   -0.21815E-03   -0.25416E-03  6336   0.359E-02 0.670E-03
CGA:  24    -0.425151359713E+03   -0.71481E-03   -0.65702E-03  6336   0.465E-02 0.717E-03
CGA:  25    -0.425151575853E+03   -0.21614E-03   -0.19014E-03  6336   0.153E-02-0.504E-03
CGA:  26    -0.425151683273E+03   -0.10742E-03   -0.96430E-04  6336   0.421E-02-0.558E-03
CGA:  27    -0.425151867497E+03   -0.18422E-03   -0.19300E-03  6336   0.313E-02 0.481E-03
CGA:  28    -0.425151909437E+03   -0.41941E-04   -0.66795E-04  6336   0.811E-03 0.339E-03
CGA:  29    -0.425152116885E+03   -0.20745E-03   -0.28090E-03  6336   0.118E-01-0.341E-03
CGA:  30    -0.425152262919E+03   -0.14603E-03   -0.10707E-03  6336   0.104E-01 0.133E-03
CGA:  31    -0.425152425089E+03   -0.16217E-03   -0.14111E-03  6336   0.380E-02-0.270E-03
CGA:  32    -0.425152472538E+03   -0.47449E-04   -0.55998E-04  6336   0.218E-02 0.703E-04
CGA:  33    -0.425152492163E+03   -0.19626E-04   -0.37325E-04  6336   0.185E-02 0.226E-03
CGA:  34    -0.425152531723E+03   -0.39560E-04   -0.56947E-04  6336   0.394E-02 0.280E-03
CGA:  35    -0.425152776089E+03   -0.24437E-03   -0.24938E-03  6336   0.132E-01 0.118E-03
CGA:  36    -0.425153052921E+03   -0.27683E-03   -0.20576E-03  6336   0.656E-02 0.167E-02
CGA:  37    -0.425153165808E+03   -0.11289E-03   -0.79902E-04  6336   0.150E-02-0.201E-03
CGA:  38    -0.425153207950E+03   -0.42142E-04   -0.28803E-04  6336   0.183E-02-0.271E-03
CGA:  39    -0.425153273057E+03   -0.65107E-04   -0.58946E-04  6336   0.567E-02-0.260E-03
CGA:  40    -0.425153422546E+03   -0.14949E-03   -0.16550E-03  6336   0.928E-02-0.358E-03
CGA:  41    -0.425153651274E+03   -0.22873E-03   -0.21570E-03  6336   0.660E-02-0.208E-04
CGA:  42    -0.425153789760E+03   -0.13849E-03   -0.10236E-03  6336   0.203E-02 0.262E-03
CGA:  43    -0.425153843244E+03   -0.53484E-04   -0.35085E-04  6336   0.108E-02-0.375E-03
CGA:  44    -0.425153755259E+03    0.87984E-04   -0.14068E-03  6336   0.282E-01-0.229E-02
CGA:  45    -0.425154183782E+03   -0.42852E-03   -0.46473E-03  6336   0.581E-03 0.950E-03
CGA:  46    -0.425154216608E+03   -0.32826E-04   -0.33930E-04  6336   0.779E-03 0.209E-03
CGA:  47    -0.425154298101E+03   -0.81493E-04   -0.26673E-03  6336   0.125E-01-0.980E-03
CGA:  48    -0.425154487679E+03   -0.18958E-03   -0.20707E-03  6336   0.302E-03 0.377E-03
CGA:  49    -0.425154523909E+03   -0.36229E-04   -0.40212E-04  6336   0.136E-02-0.669E-04
CGA:  50    -0.425154577949E+03   -0.54040E-04   -0.54308E-04  6336   0.133E-02 0.119E-04
CGA:  51    -0.425154598672E+03   -0.20723E-04   -0.29584E-04  6336   0.312E-03 0.183E-03
CGA:  52    -0.425154602230E+03   -0.35580E-05   -0.77376E-05  6336   0.226E-03 0.894E-04
CGA:  53    -0.425154637291E+03   -0.35061E-04   -0.33269E-04  6336   0.161E-02 0.349E-04
CGA:  54    -0.425154775447E+03   -0.13816E-03   -0.14470E-03  6336   0.262E-02-0.683E-03
CGA:  55    -0.425154806292E+03   -0.30845E-04   -0.16989E-04  6336   0.128E-02-0.181E-03
CGA:  56    -0.425154828502E+03   -0.22209E-04   -0.14786E-04  6336   0.585E-03-0.125E-03
CGA:  57    -0.425154839423E+03   -0.10922E-04   -0.95359E-05  6336   0.663E-03-0.309E-04
CGA:  58    -0.425154855857E+03   -0.16434E-04   -0.17908E-04  6336   0.148E-02 0.421E-04
CGA:  59    -0.425154916040E+03   -0.60183E-04   -0.62157E-04  6336   0.300E-02 0.721E-04
CGA:  60    -0.425154986601E+03   -0.70561E-04   -0.63814E-04  6336   0.897E-03-0.236E-03
CGA:  61    -0.425155010094E+03   -0.23493E-04   -0.12994E-04  6336   0.163E-03-0.269E-03
CGA:  62    -0.425155033419E+03   -0.23325E-04    0.34791E-05  6336   0.423E-03-0.148E-03
CGA:  63    -0.425155037603E+03   -0.41844E-05   -0.91131E-05  6336   0.113E-03 0.150E-03
  21 F= -.42515504E+03 E0= -.42514383E+03  d E =0.953553E-01  mag=    10.0000
       N       E                     dE             d eps       ncg     rms          ort
SDA:   1    -0.419240542588E+03    0.59145E+01    0.00000E+00  6336   0.463E+02 0.000E+00
CGA:   2    -0.420636150401E+03   -0.13956E+01   -0.17093E+01  6336   0.172E+02 0.162E+01
CGA:   3    -0.422468383971E+03   -0.18322E+01   -0.30466E+01  6336   0.765E+02-0.128E+02
CGA:   4    -0.423902790635E+03   -0.14344E+01   -0.21660E+01  6336   0.128E+02-0.198E+02
CGA:   5    -0.424361805372E+03   -0.45901E+00   -0.44082E+00  6336   0.544E+01-0.584E+00
CGA:   6    -0.424573293598E+03   -0.21149E+00   -0.20830E+00  6336   0.427E+01-0.521E-01
CGA:   7    -0.424918396189E+03   -0.34510E+00   -0.33246E+00  6336   0.267E+01 0.407E+00
CGA:   8    -0.425058209972E+03   -0.13981E+00   -0.13427E+00  6336   0.150E+01-0.145E+00
CGA:   9    -0.425133921568E+03   -0.75712E-01   -0.75668E-01  6336   0.172E+01-0.141E-01
CGA:  10    -0.425209318325E+03   -0.75397E-01   -0.75815E-01  6336   0.444E+00-0.105E-01
CGA:  11    -0.425226787542E+03   -0.17469E-01   -0.17283E-01  6336   0.895E-01 0.107E-01
CGA:  12    -0.425234288106E+03   -0.75006E-02   -0.75820E-02  6336   0.142E+00-0.351E-02
CGA:  13    -0.425241057222E+03   -0.67691E-02   -0.67632E-02  6336   0.875E-01-0.228E-02
CGA:  14    -0.425243584933E+03   -0.25277E-02   -0.25993E-02  6336   0.181E-01 0.350E-02
CGA:  15    -0.425246018348E+03   -0.24334E-02   -0.28711E-02  6336   0.805E-01-0.431E-02
CGA:  16    -0.425248981098E+03   -0.29628E-02   -0.29379E-02  6336   0.463E-01-0.246E-02
CGA:  17    -0.425249845543E+03   -0.86444E-03   -0.91820E-03  6336   0.623E-02 0.209E-02
CGA:  18    -0.425250071676E+03   -0.22613E-03   -0.24122E-03  6336   0.948E-02 0.779E-03
CGA:  19    -0.425251548274E+03   -0.14766E-02   -0.15526E-02  6336   0.136E-01-0.840E-03
CGA:  20    -0.425251831829E+03   -0.28356E-03   -0.24099E-03  6336   0.236E-02-0.119E-02
CGA:  21    -0.425251976826E+03   -0.14500E-03   -0.18527E-03  6336   0.961E-02-0.144E-02
CGA:  22    -0.425252175339E+03   -0.19851E-03   -0.22735E-03  6336   0.121E-02 0.827E-03
CGA:  23    -0.425252311712E+03   -0.13637E-03   -0.14843E-03  6336   0.543E-02-0.222E-03
CGA:  24    -0.425252544617E+03   -0.23291E-03   -0.22646E-03  6336   0.316E-02-0.715E-03
CGA:  25    -0.425252604388E+03   -0.59771E-04   -0.50648E-04  6336   0.842E-03-0.232E-03
CGA:  26    -0.425252642606E+03   -0.38217E-04   -0.35699E-04  6336   0.167E-02-0.216E-03
CGA:  27    -0.425252723555E+03   -0.80949E-04   -0.82161E-04  6336   0.464E-02-0.137E-03
CGA:  28    -0.425252830198E+03   -0.10664E-03   -0.11457E-03  6336   0.134E-02 0.253E-03
CGA:  29    -0.425252849747E+03   -0.19549E-04   -0.23243E-04  6336   0.329E-03 0.861E-04
CGA:  30    -0.425252870081E+03   -0.20334E-04   -0.34188E-04  6336   0.251E-02-0.321E-03
CGA:  31    -0.425252935563E+03   -0.65482E-04   -0.61777E-04  6336   0.289E-03-0.125E-03
CGA:  32    -0.425252944089E+03   -0.85261E-05   -0.97051E-05  6336   0.217E-03 0.603E-04
CGA:  33    -0.425252975622E+03   -0.31533E-04    0.57407E-04  6336   0.104E-03 0.178E-03
CGA:  34    -0.425252991083E+03   -0.15461E-04    0.70959E-05  6336   0.213E-03-0.523E-05
CGA:  35    -0.425253019862E+03   -0.28779E-04    0.16472E-04  6336   0.144E-03 0.146E-03
CGA:  36    -0.425253019039E+03    0.82362E-06   -0.18601E-05  6336   0.460E-04 0.655E-04
  22 F= -.42525302E+03 E0= -.42524173E+03  d E =-.979814E-01  mag=    10.0000
       N       E                     dE             d eps       ncg     rms          ort
SDA:   1    -0.424842933478E+03    0.41009E+00    0.00000E+00  6336   0.134E+01 0.000E+00
CGA:   2    -0.424934873020E+03   -0.91940E-01   -0.90552E-01  6336   0.252E+01 0.519E-01
CGA:   3    -0.425135503591E+03   -0.20063E+00   -0.19965E+00  6336   0.201E+01 0.279E-01
CGA:   4    -0.425194785361E+03   -0.59282E-01   -0.58854E-01  6336   0.290E+00 0.377E-01
CGA:   5    -0.425246636220E+03   -0.51851E-01   -0.52305E-01  6336   0.971E-01-0.341E-02
CGA:   6    -0.425249902060E+03   -0.32658E-02   -0.33420E-02  6336   0.410E-01 0.523E-02
CGA:   7    -0.425255175452E+03   -0.52734E-02   -0.53247E-02  6336   0.784E-01-0.836E-03
CGA:   8    -0.425257115032E+03   -0.19396E-02   -0.19237E-02  6336   0.499E-02-0.439E-03
CGA:   9    -0.425258046233E+03   -0.93120E-03   -0.13529E-02  6336   0.292E-01-0.197E-02
CGA:  10    -0.425258330771E+03   -0.28454E-03   -0.28331E-03  6336   0.973E-02-0.840E-04
CGA:  11    -0.425258433820E+03   -0.10305E-03   -0.12363E-03  6336   0.286E-02 0.453E-03
CGA:  12    -0.425258467373E+03   -0.33554E-04   -0.55264E-04  6336   0.247E-02 0.496E-03
CGA:  13    -0.425258539313E+03   -0.71940E-04   -0.88806E-04  6336   0.417E-02 0.551E-03
CGA:  14    -0.425258779047E+03   -0.23973E-03   -0.23582E-03  6336   0.715E-02-0.306E-03
CGA:  15    -0.425258944277E+03   -0.16523E-03   -0.12043E-03  6336   0.196E-02-0.113E-02
CGA:  16    -0.425258988457E+03   -0.44180E-04   -0.23742E-04  6336   0.651E-03-0.497E-03
CGA:  17    -0.425258992246E+03   -0.37889E-05   -0.53280E-04  6336   0.826E-02-0.904E-03
CGA:  18    -0.425259105898E+03   -0.11365E-03   -0.13883E-03  6336   0.438E-03 0.619E-03
CGA:  19    -0.425259117175E+03   -0.11277E-04   -0.15967E-04  6336   0.365E-03 0.218E-03
CGA:  20    -0.425259176606E+03   -0.59431E-04   -0.60008E-04  6336   0.119E-02-0.118E-04
CGA:  21    -0.425259213918E+03   -0.37312E-04   -0.33490E-04  6336   0.257E-03-0.140E-03
CGA:  22    -0.425259221544E+03   -0.76259E-05   -0.48237E-05  6336   0.116E-03-0.835E-04
  23 F= -.42525922E+03 E0= -.42524797E+03  d E =-.620250E-02  mag=    10.0000
       N       E                     dE             d eps       ncg     rms          ort
SDA:   1    -0.425123962536E+03    0.13525E+00    0.00000E+00  6336   0.775E+00 0.000E+00
CGA:   2    -0.425146109492E+03   -0.22147E-01   -0.22178E-01  6336   0.434E+00-0.227E-02
CGA:   3    -0.425207476382E+03   -0.61367E-01   -0.61704E-01  6336   0.993E+00-0.395E-02
CGA:   4    -0.425244708997E+03   -0.37233E-01   -0.36946E-01  6336   0.589E-01 0.118E-01
CGA:   5    -0.425250162104E+03   -0.54531E-02   -0.54649E-02  6336   0.147E+00-0.538E-03
CGA:   6    -0.425256674952E+03   -0.65128E-02   -0.65057E-02  6336   0.157E-01-0.535E-03
CGA:   7    -0.425257318025E+03   -0.64307E-03   -0.61470E-03  6336   0.954E-02-0.183E-02
CGA:   8    -0.425258400579E+03   -0.10826E-02   -0.10354E-02  6336   0.484E-02 0.701E-03
CGA:   9    -0.425258527065E+03   -0.12649E-03   -0.12920E-03  6336   0.124E-02 0.462E-04
CGA:  10    -0.425258669860E+03   -0.14280E-03   -0.12335E-03  6336   0.101E-02 0.473E-03
CGA:  11    -0.425258765320E+03   -0.95460E-04   -0.12233E-03  6336   0.452E-02-0.983E-03
CGA:  12    -0.425258813533E+03   -0.48213E-04   -0.73596E-04  6336   0.250E-03 0.551E-03
CGA:  13    -0.425258811780E+03    0.17537E-05   -0.46162E-05  6336   0.138E-03 0.149E-03
CGA:  14    -0.425258825073E+03   -0.13293E-04   -0.11855E-04  6336   0.298E-03 0.498E-04
CGA:  15    -0.425258856925E+03   -0.31853E-04   -0.30660E-04  6336   0.321E-03 0.675E-04
CGA:  16    -0.425258872203E+03   -0.15278E-04   -0.44326E-04  6336   0.256E-02-0.547E-03
CGA:  17    -0.425258897510E+03   -0.25307E-04   -0.39661E-04  6336   0.114E-03 0.305E-03
CGA:  18    -0.425258896274E+03    0.12362E-05   -0.20243E-05  6336   0.705E-04 0.743E-04
  24 F= -.42525890E+03 E0= -.42524767E+03  d E =0.325270E-03  mag=    10.0000
       N       E                     dE             d eps       ncg     rms          ort
SDA:   1    -0.424527052815E+03    0.73184E+00    0.00000E+00  6336   0.196E+01 0.000E+00
CGA:   2    -0.424715066776E+03   -0.18801E+00   -0.18978E+00  6336   0.629E+01-0.434E-01
CGA:   3    -0.425125886055E+03   -0.41082E+00   -0.41146E+00  6336   0.194E+01-0.656E-01
CGA:   4    -0.425178935766E+03   -0.53050E-01   -0.54264E-01  6336   0.330E+00-0.647E-01
CGA:   5    -0.425240654068E+03   -0.61718E-01   -0.61117E-01  6336   0.116E+00 0.451E-02
CGA:   6    -0.425244235937E+03   -0.35819E-02   -0.34720E-02  6336   0.533E-01-0.581E-02
CGA:   7    -0.425249011512E+03   -0.47756E-02   -0.48255E-02  6336   0.872E-01-0.177E-02
CGA:   8    -0.425252165737E+03   -0.31542E-02   -0.32080E-02  6336   0.619E-02 0.273E-02
CGA:   9    -0.425253036429E+03   -0.87069E-03   -0.81862E-03  6336   0.152E-01 0.804E-03
CGA:  10    -0.425253789388E+03   -0.75296E-03   -0.73663E-03  6336   0.463E-02-0.754E-03
CGA:  11    -0.425253910436E+03   -0.12105E-03   -0.13198E-03  6336   0.121E-02 0.287E-03
CGA:  12    -0.425254132952E+03   -0.22252E-03   -0.19638E-03  6336   0.186E-02 0.294E-03
CGA:  13    -0.425254274024E+03   -0.14107E-03   -0.13907E-03  6336   0.169E-02-0.236E-03
CGA:  14    -0.425254356048E+03   -0.82024E-04   -0.79559E-04  6336   0.147E-02-0.174E-03
CGA:  15    -0.425254388484E+03   -0.32435E-04   -0.42357E-04  6336   0.339E-03 0.271E-03
CGA:  16    -0.425254431223E+03   -0.42740E-04   -0.45248E-04  6336   0.200E-02-0.564E-04
CGA:  17    -0.425254524256E+03   -0.93033E-04   -0.84309E-04  6336   0.214E-02-0.486E-03
CGA:  18    -0.425254548675E+03   -0.24419E-04   -0.20189E-04  6336   0.609E-03-0.836E-04
CGA:  19    -0.425254552292E+03   -0.36175E-05   -0.70186E-05  6336   0.294E-03 0.627E-04
  25 F= -.42525455E+03 E0= -.42524338E+03  d E =0.434398E-02  mag=    10.0000
       N       E                     dE             d eps       ncg     rms          ort
SDA:   1    -0.424086958754E+03    0.11676E+01    0.00000E+00  6336   0.314E+01 0.000E+00
CGA:   2    -0.424542555563E+03   -0.45560E+00   -0.47661E+00  6336   0.124E+02-0.230E+00
CGA:   3    -0.425013515999E+03   -0.47096E+00   -0.47191E+00  6336   0.232E+01-0.301E-01
CGA:   4    -0.425087662258E+03   -0.74146E-01   -0.77223E-01  6336   0.105E+01-0.807E-01
CGA:   5    -0.425225809637E+03   -0.13815E+00   -0.13767E+00  6336   0.282E+00 0.635E-02
CGA:   6    -0.425235964877E+03   -0.10155E-01   -0.99820E-02  6336   0.141E+00 0.193E-03
CGA:   7    -0.425249909235E+03   -0.13944E-01   -0.13960E-01  6336   0.225E+00-0.569E-03
CGA:   8    -0.425256526662E+03   -0.66174E-02   -0.66322E-02  6336   0.156E-01-0.422E-02
CGA:   9    -0.425260202285E+03   -0.36756E-02   -0.36049E-02  6336   0.234E-01 0.400E-03
CGA:  10    -0.425260839480E+03   -0.63720E-03   -0.61283E-03  6336   0.448E-02-0.871E-03
CGA:  11    -0.425261168664E+03   -0.32918E-03   -0.32752E-03  6336   0.739E-02 0.275E-03
CGA:  12    -0.425261853111E+03   -0.68445E-03   -0.68958E-03  6336   0.337E-02-0.318E-03
CGA:  13    -0.425261962905E+03   -0.10979E-03   -0.11004E-03  6336   0.168E-02-0.177E-05
CGA:  14    -0.425262142136E+03   -0.17923E-03   -0.27394E-03  6336   0.110E-01-0.103E-02
CGA:  15    -0.425262332591E+03   -0.19046E-03   -0.21452E-03  6336   0.773E-03 0.460E-03
CGA:  16    -0.425262373136E+03   -0.40546E-04   -0.38998E-04  6336   0.936E-03-0.734E-04
CGA:  17    -0.425262492907E+03   -0.11977E-03    0.52794E-02  6336   0.768E-03 0.561E-03
CGA:  18    -0.425262513879E+03   -0.20972E-04   -0.22211E-04  6336   0.257E-03 0.272E-04
CGA:  19    -0.425262550474E+03   -0.36595E-04    0.11602E-02  6336   0.426E-03 0.146E-03
CGA:  20    -0.425262563889E+03   -0.13415E-04   -0.14198E-04  6336   0.263E-03 0.199E-04
CGA:  21    -0.425262605539E+03   -0.41650E-04    0.65923E-04  6336   0.369E-03 0.176E-03
CGA:  22    -0.425262617565E+03   -0.12026E-04   -0.13047E-04  6336   0.207E-03 0.311E-04
CGA:  23    -0.425262649996E+03   -0.32430E-04    0.63617E-04  6336   0.271E-03 0.177E-03
CGA:  24    -0.425262664402E+03   -0.14407E-04   -0.13825E-04  6336   0.351E-03-0.442E-04
CGA:  25    -0.425262709620E+03   -0.45218E-04    0.46926E-04  6336   0.444E-03 0.203E-03
CGA:  26    -0.425262719072E+03   -0.94522E-05   -0.11928E-04  6336   0.115E-03 0.647E-04
CGA:  27    -0.425262735694E+03   -0.16622E-04    0.36148E-03  6336   0.193E-03 0.943E-04
CGA:  28    -0.425262748832E+03   -0.13138E-04   -0.14932E-04  6336   0.598E-03-0.121E-03
CGA:  29    -0.425262764929E+03   -0.16097E-04   -0.15879E-04  6336   0.131E-03-0.858E-05
CGA:  30    -0.425262772845E+03   -0.79164E-05   -0.79231E-05  6336   0.224E-03 0.480E-04
CGA:  31    -0.425262816620E+03   -0.43774E-04    0.55882E-04  6336   0.736E-04 0.225E-03
CGA:  32    -0.425262830950E+03   -0.14331E-04    0.38211E-05  6336   0.112E-03 0.432E-04
CGA:  33    -0.425262831609E+03   -0.65898E-06   -0.24909E-05  6336   0.669E-04 0.466E-04
CGA:  34    -0.425262854334E+03   -0.22725E-04   -0.19777E-04  6336   0.785E-03 0.194E-04
CGA:  35    -0.425262313976E+03    0.54036E-03   -0.32768E-03  6336   0.675E-02-0.343E-02
CGA:  36    -0.425262492886E+03   -0.17891E-03   -0.16644E-03  6336   0.224E-02-0.249E-03
CGA:  37    -0.425262752966E+03   -0.26008E-03   -0.58309E-03  6336   0.296E-01-0.168E-02
CGA:  38    -0.425263222041E+03   -0.46908E-03   -0.56269E-03  6336   0.115E-02 0.206E-02
CGA:  39    -0.425263230075E+03   -0.80338E-05   -0.24981E-04  6336   0.260E-03 0.273E-03
CGA:  40    -0.425263243455E+03   -0.13380E-04   -0.17033E-04  6336   0.571E-03 0.134E-03
CGA:  41    -0.425263274546E+03   -0.31091E-04   -0.24200E-04  6336   0.680E-03-0.194E-03
CGA:  42    -0.425263196572E+03    0.77974E-04   -0.16227E-03  6336   0.149E-01-0.849E-03
CGA:  43    -0.425263414558E+03   -0.21799E-03   -0.28525E-03  6336   0.572E-03 0.117E-02
CGA:  44    -0.425263415659E+03   -0.11016E-05   -0.11269E-04  6336   0.784E-04 0.147E-03
  26 F= -.42526342E+03 E0= -.42525266E+03  d E =-.886337E-02  mag=    10.0000
       N       E                     dE             d eps       ncg     rms          ort
SDA:   1    -0.424717751280E+03    0.54566E+00    0.00000E+00  6336   0.152E+01 0.000E+00
CGA:   2    -0.424900958188E+03   -0.18321E+00   -0.18713E+00  6336   0.507E+01-0.783E-01
CGA:   3    -0.425134905263E+03   -0.23395E+00   -0.23399E+00  6336   0.122E+01-0.112E-01
CGA:   4    -0.425176742344E+03   -0.41837E-01   -0.42277E-01  6336   0.555E+00-0.417E-01
CGA:   5    -0.425242472724E+03   -0.65730E-01   -0.65743E-01  6336   0.279E+00 0.304E-04
CGA:   6    -0.425250620326E+03   -0.81476E-02   -0.80547E-02  6336   0.697E-01 0.622E-03
CGA:   7    -0.425255577288E+03   -0.49570E-02   -0.49544E-02  6336   0.115E+00-0.280E-03
CGA:   8    -0.425262372559E+03   -0.67953E-02   -0.67843E-02  6336   0.830E-02-0.136E-02
CGA:   9    -0.425263289503E+03   -0.91694E-03   -0.88202E-03  6336   0.209E-01 0.114E-02
CGA:  10    -0.425264473635E+03   -0.11841E-02   -0.11694E-02  6336   0.548E-02-0.632E-03
CGA:  11    -0.425264663343E+03   -0.18971E-03   -0.18645E-03  6336   0.238E-02-0.866E-04
CGA:  12    -0.425264978165E+03   -0.31482E-03   -0.33254E-03  6336   0.616E-02-0.271E-03
CGA:  13    -0.425265164163E+03   -0.18600E-03   -0.18794E-03  6336   0.750E-03 0.257E-04
CGA:  14    -0.425264356242E+03    0.80792E-03   -0.43956E-03  6336   0.560E-01-0.288E-02
CGA:  15    -0.425265410997E+03   -0.10548E-02   -0.11481E-02  6336   0.226E-02 0.369E-02
CGA:  16    -0.425265448292E+03   -0.37295E-04   -0.55221E-04  6336   0.401E-03 0.163E-03
CGA:  17    -0.425265542478E+03   -0.94186E-04   -0.99660E-04  6336   0.161E-02-0.537E-04
CGA:  18    -0.425265569063E+03   -0.26586E-04   -0.34794E-04  6336   0.351E-03 0.730E-04
CGA:  19    -0.425265570446E+03   -0.13821E-05   -0.76049E-05  6336   0.125E-03 0.587E-04
  27 F= -.42526557E+03 E0= -.42525500E+03  d E =-.215479E-02  mag=    10.0000
       N       E                     dE             d eps       ncg     rms          ort
SDA:   1    -0.424687917371E+03    0.57765E+00    0.00000E+00  6336   0.156E+01 0.000E+00
CGA:   2    -0.424892779151E+03   -0.20486E+00   -0.20321E+00  6336   0.521E+01 0.715E-01
CGA:   3    -0.425145622755E+03   -0.25284E+00   -0.23858E+00  6336   0.877E+00 0.188E+00
CGA:   4    -0.425184495156E+03   -0.38872E-01   -0.40544E-01  6336   0.553E+00-0.212E-01
CGA:   5    -0.425245315954E+03   -0.60821E-01   -0.60824E-01  6336   0.255E+00-0.192E-02
CGA:   6    -0.425251603558E+03   -0.62876E-02   -0.66075E-02  6336   0.638E-01-0.588E-02
CGA:   7    -0.425256451922E+03   -0.48484E-02   -0.49365E-02  6336   0.809E-01 0.344E-02
CGA:   8    -0.425261521149E+03   -0.50692E-02   -0.49620E-02  6336   0.174E-01-0.356E-02
CGA:   9    -0.425262055702E+03   -0.53455E-03   -0.63000E-03  6336   0.793E-02 0.145E-02
CGA:  10    -0.425262670907E+03   -0.61521E-03   -0.62605E-03  6336   0.133E-01 0.359E-03
CGA:  11    -0.425263630067E+03   -0.95916E-03   -0.92974E-03  6336   0.260E-02-0.987E-03
CGA:  12    -0.425263689145E+03   -0.59078E-04   -0.83476E-04  6336   0.110E-02 0.393E-03
CGA:  13    -0.425263798996E+03   -0.10985E-03   -0.11228E-03  6336   0.175E-02 0.447E-03
CGA:  14    -0.425264029523E+03   -0.23053E-03   -0.23025E-03  6336   0.353E-02-0.914E-03
CGA:  15    -0.425264054858E+03   -0.25335E-04   -0.63738E-04  6336   0.323E-03 0.507E-03
CGA:  16    -0.425264050377E+03    0.44816E-05   -0.81952E-05  6336   0.220E-03 0.187E-03
CGA:  17    -0.425264089198E+03   -0.38822E-04    0.46919E-03  6336   0.479E-03 0.723E-04
CGA:  18    -0.425264125062E+03   -0.35863E-04   -0.40185E-04  6336   0.262E-03 0.184E-03
CGA:  19    -0.425264136102E+03   -0.11040E-04   -0.15130E-04  6336   0.158E-03 0.926E-04
CGA:  20    -0.425264168247E+03   -0.32145E-04   -0.30076E-04  6336   0.384E-03 0.356E-04
CGA:  21    -0.425264188783E+03   -0.20537E-04   -0.21683E-04  6336   0.160E-03 0.268E-04
CGA:  22    -0.425264188447E+03    0.33661E-06   -0.47668E-05  6336   0.550E-04 0.904E-04
CGA:  23    -0.425264198676E+03   -0.10229E-04    0.15493E-04  6336   0.451E-04 0.393E-04
CGA:  24    -0.425264198422E+03    0.25451E-06   -0.12851E-05  6336   0.341E-04 0.291E-04
  28 F= -.42526420E+03 E0= -.42525359E+03  d E =0.137202E-02  mag=    10.0000
       N       E                     dE             d eps       ncg     rms          ort
SDA:   1    -0.425168081911E+03    0.96117E-01    0.00000E+00  6336   0.147E+01 0.000E+00
CGA:   2    -0.425197206511E+03   -0.29125E-01   -0.27543E-01  6336   0.183E+00 0.634E-01
CGA:   3    -0.425231671386E+03   -0.34465E-01   -0.34839E-01  6336   0.609E+00-0.381E-02
CGA:   4    -0.425251363048E+03   -0.19692E-01   -0.19788E-01  6336   0.127E+00 0.459E-02
CGA:   5    -0.425254848631E+03   -0.34856E-02   -0.35843E-02  6336   0.561E-01 0.503E-02
CGA:   6    -0.425262030205E+03   -0.71816E-02   -0.72662E-02  6336   0.779E-01-0.195E-02
CGA:   7    -0.425263605695E+03   -0.15755E-02   -0.15403E-02  6336   0.743E-02-0.297E-02
CGA:   8    -0.425264099334E+03   -0.49364E-03   -0.49784E-03  6336   0.126E-01 0.428E-03
CGA:   9    -0.425264806536E+03   -0.70720E-03   -0.71275E-03  6336   0.790E-02 0.207E-03
CGA:  10    -0.425265092840E+03   -0.28630E-03   -0.24763E-03  6336   0.108E-02-0.925E-03
CGA:  11    -0.425265230087E+03   -0.13725E-03   -0.12987E-03  6336   0.128E-02 0.119E-03
CGA:  12    -0.425265290235E+03   -0.60148E-04   -0.66715E-04  6336   0.360E-03 0.202E-03
CGA:  13    -0.425265303855E+03   -0.13620E-04   -0.66998E-04  6336   0.542E-02-0.641E-03
CGA:  14    -0.425265364001E+03   -0.60146E-04   -0.88944E-04  6336   0.146E-03 0.455E-03
CGA:  15    -0.425265360362E+03    0.36385E-05   -0.22823E-05  6336   0.780E-04 0.934E-04
  29 F= -.42526536E+03 E0= -.42525479E+03  d E =-.116194E-02  mag=    10.0000
       N       E                     dE             d eps       ncg     rms          ort
SDA:   1    -0.425056490144E+03    0.20887E+00    0.00000E+00  6336   0.565E+00 0.000E+00
CGA:   2    -0.425143632697E+03   -0.87143E-01   -0.87240E-01  6336   0.161E+01-0.294E-02
CGA:   3    -0.425229287102E+03   -0.85654E-01   -0.86158E-01  6336   0.199E+00-0.138E-01
CGA:   4    -0.425243358693E+03   -0.14072E-01   -0.14072E-01  6336   0.358E+00 0.409E-03
CGA:   5    -0.425260806712E+03   -0.17448E-01   -0.17457E-01  6336   0.588E-01-0.315E-02
CGA:   6    -0.425263008693E+03   -0.22020E-02   -0.21351E-02  6336   0.254E-01-0.212E-02
CGA:   7    -0.425266354449E+03   -0.33458E-02   -0.33716E-02  6336   0.193E-01-0.426E-03
[...]
CGA:   9    -0.425327905956E+03   -0.67483E-03   -0.69413E-03  6336   0.644E-02 0.411E-03
CGA:  10    -0.425328364445E+03   -0.45849E-03   -0.43289E-03  6336   0.466E-02-0.111E-02
CGA:  11    -0.425328518980E+03   -0.15453E-03   -0.17796E-03  6336   0.662E-03 0.562E-03
CGA:  12    -0.425328551418E+03   -0.32438E-04   -0.34550E-04  6336   0.698E-03 0.507E-04
CGA:  13    -0.425328298701E+03    0.25272E-03   -0.30981E-03  6336   0.144E-01-0.172E-02
CGA:  14    -0.425328518822E+03   -0.22012E-03   -0.28466E-03  6336   0.111E-02 0.844E-03
CGA:  15    -0.425328552366E+03   -0.33545E-04   -0.52857E-04  6336   0.950E-03 0.377E-03
CGA:  16    -0.425328714762E+03   -0.16240E-03   -0.18897E-03  6336   0.198E-02-0.489E-03
CGA:  17    -0.425328732757E+03   -0.17995E-04   -0.35004E-04  6336   0.130E-03 0.219E-03
CGA:  18    -0.425328730776E+03    0.19814E-05   -0.36539E-05  6336   0.102E-03 0.836E-04
CGA:  19    -0.425328507572E+03    0.22320E-03   -0.12063E-03  6336   0.152E-01-0.576E-03
CGA:  20    -0.425328738163E+03   -0.23059E-03   -0.26819E-03  6336   0.211E-03 0.700E-03
CGA:  21    -0.425328733884E+03    0.42782E-05   -0.53370E-05  6336   0.851E-04 0.734E-04
  89 F= -.42532873E+03 E0= -.42531887E+03  d E =-.222202E-02  mag=    10.0000
       N       E                     dE             d eps       ncg     rms          ort
SDA:   1    -0.423392275835E+03    0.19365E+01    0.00000E+00  6336   0.479E+01 0.000E+00
CGA:   2    -0.424259362588E+03   -0.86709E+00   -0.85975E+00  6336   0.175E+02 0.164E+00
CGA:   3    -0.425041630249E+03   -0.78227E+00   -0.86122E+00  6336   0.290E+01-0.222E+01
CGA:   4    -0.425130369164E+03   -0.88739E-01   -0.10128E+00  6336   0.169E+01-0.270E+00
CGA:   5    -0.425250552907E+03   -0.12018E+00   -0.11819E+00  6336   0.114E+01 0.150E-01
CGA:   6    -0.425295468517E+03   -0.44916E-01   -0.45867E-01  6336   0.230E+00-0.437E-01
CGA:   7    -0.425309130429E+03   -0.13662E-01   -0.13762E-01  6336   0.222E+00 0.365E-02
CGA:   8    -0.425321269656E+03   -0.12139E-01   -0.12366E-01  6336   0.127E+00-0.233E-02
CGA:   9    -0.425327067095E+03   -0.57974E-02   -0.57770E-02  6336   0.376E-01-0.442E-02
CGA:  10    -0.425329383721E+03   -0.23166E-02   -0.23627E-02  6336   0.310E-01 0.113E-02
CGA:  11    -0.425331320136E+03   -0.19364E-02   -0.19036E-02  6336   0.244E-01-0.436E-03
CGA:  12    -0.425332602462E+03   -0.12823E-02   -0.12078E-02  6336   0.977E-02-0.143E-02
CGA:  13    -0.425333000170E+03   -0.39771E-03   -0.44310E-03  6336   0.405E-02 0.745E-03
CGA:  14    -0.425333451162E+03   -0.45099E-03   -0.44795E-03  6336   0.105E-01-0.857E-03
CGA:  15    -0.425333895726E+03   -0.44456E-03   -0.42179E-03  6336   0.254E-02-0.406E-03
CGA:  16    -0.425333938881E+03   -0.43155E-04   -0.69365E-04  6336   0.105E-02 0.358E-03
CGA:  17    -0.425334056291E+03   -0.11741E-03   -0.11761E-03  6336   0.373E-02 0.117E-03
CGA:  18    -0.425334380554E+03   -0.32426E-03   -0.30435E-03  6336   0.486E-03-0.756E-03
CGA:  19    -0.425334395229E+03   -0.14674E-04   -0.14287E-04  6336   0.503E-03-0.745E-05
CGA:  20    -0.425334478819E+03   -0.83591E-04   -0.82638E-04  6336   0.723E-03 0.125E-04
CGA:  21    -0.425334518296E+03   -0.39477E-04   -0.30916E-04  6336   0.181E-03-0.158E-03
CGA:  22    -0.425334531027E+03   -0.12731E-04   -0.12023E-04  6336   0.501E-03-0.649E-04
CGA:  23    -0.425334558782E+03   -0.27756E-04   -0.24367E-04  6336   0.370E-03-0.175E-03
CGA:  24    -0.425334570061E+03   -0.11279E-04   -0.80945E-05  6336   0.124E-03-0.547E-04
CGA:  25    -0.425334575725E+03   -0.56639E-05   -0.46549E-05  6336   0.171E-03-0.220E-04
CGA:  26    -0.425334597156E+03   -0.21431E-04   -0.23940E-04  6336   0.307E-03-0.313E-04
CGA:  27    -0.425334595901E+03    0.12544E-05   -0.35842E-05  6336   0.781E-04 0.606E-04
  90 F= -.42533460E+03 E0= -.42532468E+03  d E =-.586202E-02  mag=    10.0000
       N       E                     dE             d eps       ncg     rms          ort
SDA:   1    -0.424728709563E+03    0.60589E+00    0.00000E+00  6336   0.148E+01 0.000E+00
CGA:   2    -0.425161401639E+03   -0.43269E+00   -0.43187E+00  6336   0.212E+01 0.499E-02
CGA:   3    -0.425220260542E+03   -0.58859E-01   -0.60900E-01  6336   0.642E+00-0.650E-01
CGA:   4    -0.425274121199E+03   -0.53861E-01   -0.53827E-01  6336   0.901E+00 0.111E-02
CGA:   5    -0.425310582627E+03   -0.36461E-01   -0.37376E-01  6336   0.813E-01-0.333E-01
CGA:   6    -0.425317407920E+03   -0.68253E-02   -0.68315E-02  6336   0.103E+00 0.373E-02
CGA:   7    -0.425324340263E+03   -0.69323E-02   -0.68543E-02  6336   0.262E-01-0.483E-02
CGA:   8    -0.425325184758E+03   -0.84450E-03   -0.89331E-03  6336   0.122E-01 0.918E-03
CGA:   9    -0.425326012831E+03   -0.82807E-03   -0.85164E-03  6336   0.146E-01 0.132E-02
CGA:  10    -0.425327187690E+03   -0.11749E-02   -0.11484E-02  6336   0.669E-02-0.209E-02
CGA:  11    -0.425327327184E+03   -0.13949E-03   -0.19406E-03  6336   0.103E-02 0.112E-02
CGA:  12    -0.425327436836E+03   -0.10965E-03   -0.10547E-03  6336   0.156E-02 0.610E-03
CGA:  13    -0.425327549106E+03   -0.11227E-03   -0.86566E-04  6336   0.276E-02-0.100E-02
CGA:  14    -0.425327569088E+03   -0.19981E-04   -0.54504E-04  6336   0.437E-03 0.575E-03
CGA:  15    -0.425327572495E+03   -0.34069E-05   -0.16581E-04  6336   0.488E-03 0.286E-03
CGA:  16    -0.425326614317E+03    0.95818E-03   -0.52248E-03  6336   0.649E-01-0.296E-02
CGA:  17    -0.425327766579E+03   -0.11523E-02   -0.12883E-02  6336   0.141E-02 0.502E-02
CGA:  18    -0.425327767494E+03   -0.91513E-06   -0.28027E-04  6336   0.139E-03 0.260E-03
  91 F= -.42532777E+03 E0= -.42531783E+03  d E =0.682841E-02  mag=    10.0000
       N       E                     dE             d eps       ncg     rms          ort
SDA:   1    -0.424117373624E+03    0.12104E+01    0.00000E+00  6336   0.379E+01 0.000E+00
CGA:   2    -0.424346787937E+03   -0.22941E+00   -0.23163E+00  6336   0.710E+01-0.875E-01
CGA:   3    -0.425090856377E+03   -0.74407E+00   -0.74286E+00  6336   0.387E+01-0.471E-01
CGA:   4    -0.425174745138E+03   -0.83889E-01   -0.13996E+00  6336   0.146E+01-0.128E+01
CGA:   5    -0.425256873520E+03   -0.82128E-01   -0.80864E-01  6336   0.497E+00 0.408E-02
CGA:   6    -0.425280376117E+03   -0.23503E-01   -0.24351E-01  6336   0.397E+00-0.239E-01
CGA:   7    -0.425302292071E+03   -0.21916E-01   -0.21686E-01  6336   0.216E+00 0.116E-02
CGA:   8    -0.425310085264E+03   -0.77932E-02   -0.78549E-02  6336   0.468E-01 0.666E-02
CGA:   9    -0.425315646164E+03   -0.55609E-02   -0.55950E-02  6336   0.742E-01-0.296E-02
CGA:  10    -0.425318642541E+03   -0.29964E-02   -0.31019E-02  6336   0.101E-01 0.284E-02
CGA:  11    -0.425319164170E+03   -0.52163E-03   -0.54540E-03  6336   0.143E-01 0.502E-03
CGA:  12    -0.425320747297E+03   -0.15831E-02   -0.15881E-02  6336   0.307E-02-0.632E-03
CGA:  13    -0.425320810494E+03   -0.63197E-04   -0.98485E-04  6336   0.152E-02 0.545E-03
CGA:  14    -0.425321149517E+03   -0.33902E-03   -0.31914E-03  6336   0.332E-02 0.237E-03
CGA:  15    -0.425321346714E+03   -0.19720E-03   -0.15589E-03  6336   0.101E-02-0.750E-03
CGA:  16    -0.425321382528E+03   -0.35814E-04   -0.39922E-04  6336   0.626E-03 0.884E-04
CGA:  17    -0.425321412502E+03   -0.29974E-04   -0.37886E-04  6336   0.543E-03 0.204E-03
CGA:  18    -0.425321265007E+03    0.14749E-03   -0.25362E-03  6336   0.145E-01-0.154E-02
CGA:  19    -0.425321478512E+03   -0.21351E-03   -0.29148E-03  6336   0.670E-03 0.118E-02
CGA:  20    -0.425321481674E+03   -0.31617E-05   -0.20248E-04  6336   0.392E-03 0.236E-03
CGA:  21    -0.425321541573E+03   -0.59900E-04   -0.58238E-04  6336   0.836E-03 0.129E-03
CGA:  22    -0.425321598146E+03   -0.56573E-04   -0.43714E-04  6336   0.160E-03-0.224E-03
CGA:  23    -0.425321598979E+03   -0.83235E-06   -0.30738E-05  6336   0.555E-04 0.322E-04
  92 F= -.42532160E+03 E0= -.42531174E+03  d E =0.616852E-02  mag=    10.0000
       N       E                     dE             d eps       ncg     rms          ort
SDA:   1    -0.424997854534E+03    0.32374E+00    0.00000E+00  6336   0.820E+00 0.000E+00
CGA:   2    -0.425165038708E+03   -0.16718E+00   -0.16173E+00  6336   0.237E+01 0.537E-01
CGA:   3    -0.425275759108E+03   -0.11072E+00   -0.10021E+00  6336   0.333E+00 0.182E+00
CGA:   4    -0.425288620945E+03   -0.12862E-01   -0.13009E-01  6336   0.245E+00 0.750E-02
CGA:   5    -0.425318443393E+03   -0.29822E-01   -0.29845E-01  6336   0.967E-01-0.147E-02
CGA:   6    -0.425321433518E+03   -0.29901E-02   -0.31333E-02  6336   0.224E-01 0.267E-02
CGA:   7    -0.425323894957E+03   -0.24614E-02   -0.24648E-02  6336   0.530E-01-0.189E-03
CGA:   8    -0.425325763619E+03   -0.18687E-02   -0.18278E-02  6336   0.366E-02-0.140E-02
CGA:   9    -0.425326064768E+03   -0.30115E-03   -0.30162E-03  6336   0.502E-02 0.878E-03
CGA:  10    -0.425326575517E+03   -0.51075E-03   -0.50689E-03  6336   0.519E-02-0.103E-02
CGA:  11    -0.425326685826E+03   -0.11031E-03   -0.11362E-03  6336   0.104E-02 0.309E-04
CGA:  12    -0.425326692591E+03   -0.67647E-05   -0.25161E-04  6336   0.527E-03 0.319E-03
CGA:  13    -0.425326716445E+03   -0.23854E-04   -0.31236E-04  6336   0.885E-03 0.217E-03
CGA:  14    -0.425326812802E+03   -0.96356E-04   -0.22304E-03  6336   0.269E-02-0.126E-02
CGA:  15    -0.425326853562E+03   -0.40761E-04   -0.57069E-04  6336   0.527E-03 0.255E-03
CGA:  16    -0.425326878989E+03   -0.25426E-04   -0.32740E-04  6336   0.476E-03 0.321E-03
CGA:  17    -0.425326905456E+03   -0.26467E-04   -0.52239E-04  6336   0.412E-02-0.828E-03
CGA:  18    -0.425326948379E+03   -0.42924E-04   -0.75716E-04  6336   0.196E-03 0.562E-03
CGA:  19    -0.425326943676E+03    0.47031E-05   -0.29771E-05  6336   0.838E-04 0.121E-03
  93 F= -.42532694E+03 E0= -.42531707E+03  d E =-.534470E-02  mag=    10.0000
       N       E                     dE             d eps       ncg     rms          ort
SDA:   1    -0.425300263000E+03    0.26685E-01    0.00000E+00  6336   0.747E-01 0.000E+00
CGA:   2    -0.425309867662E+03   -0.96047E-02   -0.92989E-02  6336   0.191E+00 0.559E-02
CGA:   3    -0.425321858571E+03   -0.11991E-01   -0.11971E-01  6336   0.501E-01-0.348E-02
CGA:   4    -0.425323504916E+03   -0.16463E-02   -0.16720E-02  6336   0.265E-01 0.101E-02
CGA:   5    -0.425325989358E+03   -0.24844E-02   -0.24586E-02  6336   0.184E-01 0.131E-02
CGA:   6    -0.425326908533E+03   -0.91918E-03   -0.84387E-03  6336   0.536E-02-0.301E-02
CGA:   7    -0.425327135447E+03   -0.22691E-03   -0.24363E-03  6336   0.160E-02 0.103E-02
CGA:   8    -0.425327346502E+03   -0.21106E-03   -0.22760E-03  6336   0.515E-02-0.339E-03
CGA:   9    -0.425327470415E+03   -0.12391E-03   -0.11653E-03  6336   0.112E-02-0.181E-03
CGA:  10    -0.425327479507E+03   -0.90929E-05   -0.16864E-04  6336   0.365E-03 0.139E-03
  94 F= -.42532748E+03 E0= -.42531759E+03  d E =-.535831E-03  mag=    10.0000
       N       E                     dE             d eps       ncg     rms          ort
SDA:   1    -0.425306335590E+03    0.21135E-01    0.00000E+00  6336   0.676E+00 0.000E+00
CGA:   2    -0.425318517761E+03   -0.12182E-01   -0.12914E-01  6336   0.299E-01-0.239E-01
CGA:   3    -0.425320846514E+03   -0.23288E-02   -0.22672E-02  6336   0.492E-01 0.384E-02
CGA:   4    -0.425326278812E+03   -0.54323E-02   -0.56102E-02  6336   0.310E-01-0.492E-02
CGA:   5    -0.425326985077E+03   -0.70627E-03   -0.75737E-03  6336   0.503E-02 0.150E-02
CGA:   6    -0.425327243015E+03   -0.25794E-03   -0.27267E-03  6336   0.465E-02 0.124E-02
CGA:   7    -0.425327824066E+03   -0.58105E-03   -0.69776E-03  6336   0.530E-02-0.204E-02
CGA:   8    -0.425327852030E+03   -0.27965E-04   -0.49440E-04  6336   0.192E-02 0.437E-03
CGA:   9    -0.425327856370E+03   -0.43396E-05   -0.28248E-04  6336   0.733E-03 0.486E-03
CGA:  10    -0.425327859055E+03   -0.26850E-05   -0.17188E-04  6336   0.718E-03 0.344E-03
CGA:  11    -0.425327893901E+03   -0.34846E-04   -0.40740E-04  6336   0.123E-02 0.291E-03
CGA:  12    -0.425327970345E+03   -0.76445E-04   -0.68678E-04  6336   0.399E-03-0.435E-03
CGA:  13    -0.425327982681E+03   -0.12336E-04   -0.54482E-05  6336   0.142E-03-0.194E-03
CGA:  14    -0.425327991401E+03   -0.87195E-05    0.23435E-04  6336   0.276E-03 0.140E-04
CGA:  15    -0.425328006640E+03   -0.15239E-04   -0.15450E-04  6336   0.663E-04 0.494E-04
CGA:  16    -0.425328016515E+03   -0.98752E-05    0.14341E-04  6336   0.468E-04 0.281E-04
CGA:  17    -0.425328023845E+03   -0.73294E-05    0.20256E-02  6336   0.254E-04 0.218E-04
  95 F= -.42532802E+03 E0= -.42531813E+03  d E =-.544337E-03  mag=    10.0000
       N       E                     dE             d eps       ncg     rms          ort
SDA:   1    -0.425260174467E+03    0.67842E-01    0.00000E+00  6336   0.163E+00 0.000E+00
CGA:   2    -0.425303468593E+03   -0.43294E-01   -0.91994E-04  6336   0.568E+00-0.401E-01
CGA:   3    -0.425314569644E+03   -0.11101E-01   -0.12196E-01  6336   0.883E-01-0.325E-01
CGA:   4    -0.425318540609E+03   -0.39710E-02   -0.40145E-02  6336   0.957E-01-0.286E-02
CGA:   5    -0.425325154223E+03   -0.66136E-02   -0.65961E-02  6336   0.318E-01-0.819E-03
CGA:   6    -0.425325995881E+03   -0.84166E-03   -0.87286E-03  6336   0.995E-02 0.145E-02
CGA:   7    -0.425327030568E+03   -0.10347E-02   -0.10265E-02  6336   0.210E-01 0.751E-03
CGA:   8    -0.425327993575E+03   -0.96301E-03   -0.94270E-03  6336   0.220E-02-0.651E-03
CGA:   9    -0.425328178928E+03   -0.18535E-03   -0.18616E-03  6336   0.559E-02-0.676E-03
CGA:  10    -0.425328394225E+03   -0.21530E-03   -0.21699E-03  6336   0.424E-02 0.564E-04
CGA:  11    -0.425328456691E+03   -0.62466E-04   -0.86526E-04  6336   0.638E-03 0.407E-03
CGA:  12    -0.425328467807E+03   -0.11115E-04   -0.18857E-04  6336   0.500E-03 0.142E-03
CGA:  13    -0.425328523787E+03   -0.55980E-04   -0.55455E-04  6336   0.136E-02 0.426E-04
CGA:  14    -0.425328588163E+03   -0.64376E-04   -0.55379E-04  6336   0.283E-03-0.219E-03
CGA:  15    -0.425328597196E+03   -0.90331E-05   -0.61861E-05  6336   0.114E-03-0.589E-04
CGA:  16    -0.425328607354E+03   -0.10157E-04   -0.11437E-04  6336   0.466E-03-0.250E-04
CGA:  17    -0.425328620879E+03   -0.13526E-04   -0.13793E-04  6336   0.177E-03 0.662E-05
CGA:  18    -0.425328623271E+03   -0.23923E-05   -0.33127E-05  6336   0.354E-04 0.157E-04
  96 F= -.42532862E+03 E0= -.42531873E+03  d E =-.599427E-03  mag=    10.0000
       N       E                     dE             d eps       ncg     rms          ort
SDA:   1    -0.425303747011E+03    0.24874E-01    0.00000E+00  6336   0.673E-01 0.000E+00
CGA:   2    -0.425312189202E+03   -0.84422E-02   -0.83948E-02  6336   0.179E+00 0.695E-03
CGA:   3    -0.425323528529E+03   -0.11339E-01   -0.11333E-01  6336   0.591E-01-0.165E-02
CGA:   4    -0.425325193729E+03   -0.16652E-02   -0.16551E-02  6336   0.186E-01-0.496E-03
CGA:   5    -0.425327796451E+03   -0.26027E-02   -0.25722E-02  6336   0.354E-02 0.431E-03
CGA:   6    -0.425327931471E+03   -0.13502E-03   -0.15003E-03  6336   0.283E-02 0.460E-03
CGA:   7    -0.425328259392E+03   -0.32792E-03   -0.33505E-03  6336   0.310E-02-0.224E-03
CGA:   8    -0.425328344327E+03   -0.84936E-04   -0.81659E-04  6336   0.319E-03-0.759E-04
CGA:   9    -0.425328359878E+03   -0.15551E-04   -0.17833E-04  6336   0.268E-03 0.164E-03
CGA:  10    -0.425328326075E+03    0.33804E-04   -0.57939E-04  6336   0.503E-02-0.634E-03
CGA:  11    -0.425328412468E+03   -0.86393E-04   -0.11442E-03  6336   0.140E-03 0.534E-03
CGA:  12    -0.425328413059E+03   -0.59047E-06   -0.29711E-05  6336   0.304E-04 0.420E-04
  97 F= -.42532841E+03 E0= -.42531851E+03  d E =0.210213E-03  mag=    10.0000
       N       E                     dE             d eps       ncg     rms          ort
SDA:   1    -0.424882523085E+03    0.44589E+00    0.00000E+00  6336   0.109E+01 0.000E+00
CGA:   2    -0.425074278407E+03   -0.19176E+00   -0.19301E+00  6336   0.474E+01-0.161E-01
CGA:   3    -0.425257007567E+03   -0.18273E+00   -0.18169E+00  6336   0.432E+00-0.483E-02
CGA:   4    -0.425278850964E+03   -0.21843E-01   -0.21704E-01  6336   0.398E+00-0.129E-01
CGA:   5    -0.425312875223E+03   -0.34024E-01   -0.33925E-01  6336   0.101E+00 0.676E-02
CGA:   6    -0.425316183295E+03   -0.33081E-02   -0.32883E-02  6336   0.379E-01 0.403E-05
CGA:   7    -0.425320045493E+03   -0.38622E-02   -0.39060E-02  6336   0.696E-01-0.144E-02
CGA:   8    -0.425322495501E+03   -0.24500E-02   -0.24736E-02  6336   0.444E-02-0.234E-04
CGA:   9    -0.425323150363E+03   -0.65486E-03   -0.57491E-03  6336   0.619E-02 0.137E-02
CGA:  10    -0.425323663762E+03   -0.51340E-03   -0.49211E-03  6336   0.484E-02-0.167E-02
CGA:  11    -0.425323775749E+03   -0.11199E-03   -0.13722E-03  6336   0.108E-02 0.726E-03
CGA:  12    -0.425323785968E+03   -0.10220E-04   -0.29549E-04  6336   0.510E-03 0.405E-03
CGA:  13    -0.425323838951E+03   -0.52983E-04   -0.51717E-04  6336   0.123E-02 0.285E-03
CGA:  14    -0.425323906835E+03   -0.67884E-04   -0.49734E-04  6336   0.104E-02-0.638E-03
CGA:  15    -0.425323915675E+03   -0.88403E-05   -0.20088E-04  6336   0.209E-03 0.229E-03
  98 F= -.42532392E+03 E0= -.42531400E+03  d E =0.449738E-02  mag=    10.0000
       N       E                     dE             d eps       ncg     rms          ort
SDA:   1    -0.425176309301E+03    0.14760E+00    0.00000E+00  6336   0.752E+00 0.000E+00
CGA:   2    -0.425201153534E+03   -0.24844E-01   -0.25052E-01  6336   0.496E+00 0.583E-02
CGA:   3    -0.425271178904E+03   -0.70025E-01   -0.69695E-01  6336   0.984E+00 0.320E-02
CGA:   4    -0.425303294214E+03   -0.32115E-01   -0.32885E-01  6336   0.907E-01-0.297E-01
CGA:   5    -0.425313592258E+03   -0.10298E-01   -0.99713E-02  6336   0.111E+00 0.664E-02
CGA:   6    -0.425319016569E+03   -0.54243E-02   -0.53812E-02  6336   0.204E-01-0.490E-02
CGA:   7    -0.425319818451E+03   -0.80188E-03   -0.82124E-03  6336   0.153E-01 0.698E-03
CGA:   8    -0.425320796474E+03   -0.97802E-03   -0.98216E-03  6336   0.983E-02 0.160E-02
CGA:   9    -0.425321521870E+03   -0.72540E-03   -0.73291E-03  6336   0.718E-02-0.278E-02
CGA:  10    -0.425321685007E+03   -0.16314E-03   -0.19528E-03  6336   0.134E-02 0.120E-02
CGA:  11    -0.425321716680E+03   -0.31672E-04   -0.48767E-04  6336   0.887E-03 0.528E-03
CGA:  12    -0.425321864237E+03   -0.14756E-03   -0.14263E-03  6336   0.211E-02 0.901E-04
CGA:  13    -0.425321957436E+03   -0.93199E-04   -0.87636E-04  6336   0.350E-03-0.219E-03
CGA:  14    -0.425321960468E+03   -0.30319E-05   -0.71474E-05  6336   0.202E-03 0.100E-03
  99 F= -.42532196E+03 E0= -.42531207E+03  d E =0.195521E-02  mag=    10.0000
       N       E                     dE             d eps       ncg     rms          ort
SDA:   1    -0.425162930927E+03    0.15903E+00    0.00000E+00  6336   0.586E+00 0.000E+00
CGA:   2    -0.425195346247E+03   -0.32415E-01   -0.32441E-01  6336   0.685E+00 0.803E-02
CGA:   3    -0.425296311910E+03   -0.10097E+00   -0.10190E+00  6336   0.394E+00-0.108E-01
CGA:   4    -0.425306586647E+03   -0.10275E-01   -0.10350E-01  6336   0.978E-01 0.732E-02
CGA:   5    -0.425314663032E+03   -0.80764E-02   -0.80155E-02  6336   0.143E+00 0.352E-02
CGA:   6    -0.425322262512E+03   -0.75995E-02   -0.75635E-02  6336   0.985E-02-0.478E-02
CGA:   7    -0.425323594845E+03   -0.13323E-02   -0.11965E-02  6336   0.100E-01 0.214E-02
CGA:   8    -0.425324286234E+03   -0.69139E-03   -0.66715E-03  6336   0.763E-02-0.228E-02
CGA:   9    -0.425324497518E+03   -0.21128E-03   -0.22349E-03  6336   0.269E-02 0.443E-03
CGA:  10    -0.425324548913E+03   -0.51395E-04   -0.78796E-04  6336   0.925E-03 0.764E-03
CGA:  11    -0.425324632046E+03   -0.83132E-04   -0.83325E-04  6336   0.262E-02-0.288E-04
CGA:  12    -0.425324780816E+03   -0.14877E-03   -0.14504E-03  6336   0.197E-02-0.721E-03
CGA:  13    -0.425324802079E+03   -0.21263E-04   -0.19592E-04  6336   0.572E-03-0.423E-04
CGA:  14    -0.425324807246E+03   -0.51671E-05   -0.79561E-05  6336   0.295E-03 0.573E-04
 100 F= -.42532481E+03 E0= -.42531494E+03  d E =-.284678E-02  mag=    10.0000
