       N       E                     dE             d eps       ncg     rms          ort
DAV:   1     0.256320980639E+04    0.25632E+04   -0.13839E+05  6846   0.155E+03
DAV:   2     0.421310202950E+01   -0.25590E+04   -0.23934E+04  6846   0.407E+02
DAV:   3    -0.263599948271E+03   -0.26781E+03   -0.26437E+03  6846   0.147E+02
DAV:   4    -0.271265363234E+03   -0.76654E+01   -0.75686E+01  6846   0.247E+01
DAV:   5    -0.271617219420E+03   -0.35186E+00   -0.35104E+00  6846   0.407E+00
SDA:   6    -0.153074383251E+03    0.11854E+03   -0.35104E+00  6846   0.462E+03 0.000E+00
CGA:   7    -0.202715360604E+03   -0.49641E+02   -0.57897E+02  6846   0.331E+03 0.950E+01
CGA:   8    -0.217974115639E+03   -0.15259E+02   -0.21435E+02  6846   0.637E+02-0.518E+02
CGA:   9    -0.224526503478E+03   -0.65524E+01   -0.35686E+01  6846   0.122E+03-0.903E+02
CGA:  10    -0.226946196490E+03   -0.24197E+01   -0.99163E+01  6846   0.232E+02 0.204E+01
CGA:  11    -0.228026006776E+03   -0.10798E+01   -0.53666E+00  6846   0.211E+02 0.252E+02
CGA:  12    -0.229163779397E+03   -0.11378E+01   -0.45312E+00  6846   0.275E+02 0.376E+02
CGA:  13    -0.227210168199E+03    0.19536E+01   -0.12132E+01  6846   0.256E+03-0.874E+02
CGA:  14    -0.228920449893E+03   -0.17103E+01   -0.17999E+02  6846   0.180E+02-0.839E+01
CGA:  15    -0.229500885669E+03   -0.58044E+00   -0.29464E+00  6846   0.159E+02 0.171E+02
CGA:  16    -0.229967483120E+03   -0.46660E+00   -0.22646E+00  6846   0.157E+02 0.170E+02
CGA:  17    -0.230408161845E+03   -0.44068E+00   -0.20688E+00  6846   0.164E+02 0.180E+02
CGA:  18    -0.230888200750E+03   -0.48004E+00   -0.21521E+00  6846   0.182E+02 0.208E+02
CGA:  19    -0.231501123333E+03   -0.61292E+00   -0.26609E+00  6846   0.167E+02 0.228E+02
CGA:  20    -0.231988831413E+03   -0.48771E+00   -0.26943E+00  6846   0.700E+01 0.117E+02
CGA:  21    -0.232217256249E+03   -0.22842E+00   -0.14720E+00  6846   0.374E+01 0.333E+01
CGA:  22    -0.232635176603E+03   -0.41792E+00   -0.41989E+00  6846   0.300E+02-0.108E+00
CGA:  23    -0.229504548673E+03    0.31306E+01   -0.68813E+00  6846   0.119E+03-0.415E+02
CGA:  24    -0.232856710210E+03   -0.33522E+01   -0.63330E+01  6846   0.196E+02-0.257E+02
CGA:  25    -0.233744183158E+03   -0.88747E+00   -0.52759E+00  6846   0.852E+01 0.103E+02
CGA:  26    -0.234018106854E+03   -0.27392E+00   -0.14253E+00  6846   0.628E+01 0.788E+01
CGA:  27    -0.234212425890E+03   -0.19432E+00   -0.98589E-01  6846   0.473E+01 0.607E+01
CGA:  28    -0.234371128054E+03   -0.15870E+00   -0.83206E-01  6846   0.287E+01 0.412E+01
CGA:  29    -0.234488028148E+03   -0.11690E+00   -0.73909E-01  6846   0.920E+00 0.140E+01
CGA:  30    -0.234542065555E+03   -0.54037E-01   -0.46703E-01  6846   0.142E+01 0.137E+00
CGA:  31    -0.234623078072E+03   -0.81013E-01   -0.79253E-01  6846   0.486E+01 0.245E-01
CGA:  32    -0.234699291532E+03   -0.76213E-01   -0.61572E-01  6846   0.547E+01 0.114E+01
CGA:  33    -0.234782499177E+03   -0.83208E-01   -0.11744E+00  6846   0.478E+01-0.154E+01
CGA:  34    -0.234827582625E+03   -0.45083E-01   -0.67673E-01  6846   0.382E+01-0.624E+00
CGA:  35    -0.234887325502E+03   -0.59743E-01   -0.81987E-01  6846   0.124E+01-0.618E+00
CGA:  36    -0.234912813406E+03   -0.25488E-01   -0.30753E-01  6846   0.466E+00-0.102E+00
CGA:  37    -0.234932078465E+03   -0.19265E-01   -0.20065E-01  6846   0.334E+00 0.395E-02
CGA:  38    -0.234952493667E+03   -0.20415E-01   -0.20398E-01  6846   0.268E+00-0.119E-02
CGA:  39    -0.234971610163E+03   -0.19116E-01   -0.19204E-01  6846   0.354E+00-0.821E-02
CGA:  40    -0.234987967105E+03   -0.16357E-01   -0.17143E-01  6846   0.243E+00 0.106E-01
CGA:  41    -0.235003784338E+03   -0.15817E-01   -0.15930E-01  6846   0.150E+00 0.341E-01
CGA:  42    -0.235027631762E+03   -0.23847E-01   -0.22039E-01  6846   0.574E-01 0.244E-01
CGA:  43    -0.235041039760E+03   -0.13408E-01   -0.13324E-01  6846   0.379E-01 0.680E-03
CGA:  44    -0.235045783380E+03   -0.47436E-02   -0.46980E-02  6846   0.174E-01 0.824E-03
CGA:  45    -0.235049022741E+03   -0.32394E-02   -0.32441E-02  6846   0.958E-02-0.540E-04
CGA:  46    -0.235050363030E+03   -0.13403E-02   -0.13380E-02  6846   0.589E-02 0.360E-04
CGA:  47    -0.235051406118E+03   -0.10431E-02   -0.10431E-02  6846   0.328E-02-0.952E-06
CGA:  48    -0.235052012110E+03   -0.60599E-03   -0.61251E-03  6846   0.284E-02-0.690E-04
CGA:  49    -0.235052393936E+03   -0.38183E-03   -0.38198E-03  6846   0.976E-03-0.455E-05
CGA:  50    -0.235052570799E+03   -0.17686E-03   -0.17664E-03  6846   0.801E-03 0.201E-05
CGA:  51    -0.235052678884E+03   -0.10809E-03   -0.10861E-03  6846   0.474E-03-0.115E-04
CGA:  52    -0.235052758229E+03   -0.79345E-04   -0.78789E-04  6846   0.277E-03 0.851E-05
CGA:  53    -0.235052790872E+03   -0.32643E-04   -0.32538E-04  6846   0.158E-03 0.109E-04
CGA:  54    -0.235052820517E+03   -0.29645E-04   -0.28802E-04  6846   0.857E-04 0.121E-04
CGA:  55    -0.235052833190E+03   -0.12673E-04   -0.12577E-04  6846   0.577E-04 0.366E-05
CGA:  56    -0.235052842391E+03   -0.92007E-05   -0.91669E-05  6846   0.254E-04 0.693E-06
   1 F= -.23505284E+03 E0= -.23505277E+03  d E =-.235053E+03  mag=    18.0000
