       N       E                     dE             d eps       ncg     rms          ort
DAV:   1     0.260588672677E+04    0.26059E+04   -0.14092E+05 10584   0.166E+03
DAV:   2    -0.121871945262E+03   -0.27278E+04   -0.25184E+04 10584   0.430E+02
DAV:   3    -0.444181707321E+03   -0.32231E+03   -0.31692E+03 10584   0.169E+02
DAV:   4    -0.456723913004E+03   -0.12542E+02   -0.12196E+02 10584   0.320E+01
DAV:   5    -0.457297287230E+03   -0.57337E+00   -0.56197E+00 10584   0.506E+00
SDA:   6    -0.250250694205E+03    0.20705E+03   -0.56197E+00 10584   0.531E+03 0.000E+00
CGA:   7    -0.326170904103E+03   -0.75920E+02   -0.70116E+02 10584   0.140E+03-0.558E+02
CGA:   8    -0.331196808415E+03   -0.50259E+01   -0.11764E+02 10584   0.211E+03-0.243E+02
CGA:   9    -0.336925163881E+03   -0.57284E+01   -0.11292E+02 10584   0.170E+03-0.282E+02
CGA:  10    -0.337212635973E+03   -0.28747E+00   -0.86852E+01 10584   0.706E+02-0.678E+02
CGA:  11    -0.342493675535E+03   -0.52810E+01   -0.54628E+01 10584   0.343E+02 0.493E+00
CGA:  12    -0.345125327703E+03   -0.26317E+01   -0.32772E+01 10584   0.292E+02-0.487E+01
CGA:  13    -0.346343409873E+03   -0.12181E+01   -0.15849E+01 10584   0.165E+02-0.852E+01
CGA:  14    -0.346981727838E+03   -0.63832E+00   -0.78284E+00 10584   0.126E+02-0.172E+01
CGA:  15    -0.347275107669E+03   -0.29338E+00   -0.46416E+00 10584   0.689E+01-0.490E+01
CGA:  16    -0.347677555250E+03   -0.40245E+00   -0.39899E+00 10584   0.543E+01-0.192E-01
CGA:  17    -0.347858843937E+03   -0.18129E+00   -0.23346E+00 10584   0.309E+01-0.126E+01
CGA:  18    -0.348017492791E+03   -0.15865E+00   -0.13894E+00 10584   0.133E+01 0.185E+00
CGA:  19    -0.348108594765E+03   -0.91102E-01   -0.91470E-01 10584   0.228E+01-0.178E-01
CGA:  20    -0.348231514230E+03   -0.12292E+00   -0.12156E+00 10584   0.146E+01 0.610E-01
CGA:  21    -0.348277867023E+03   -0.46353E-01   -0.48818E-01 10584   0.822E+00-0.388E-01
CGA:  22    -0.348323471244E+03   -0.45604E-01   -0.41034E-01 10584   0.953E+00 0.799E-01
CGA:  23    -0.348362746803E+03   -0.39276E-01   -0.43982E-01 10584   0.763E+00-0.600E-01
CGA:  24    -0.348414411222E+03   -0.51664E-01   -0.57844E-01 10584   0.854E+00 0.244E-01
CGA:  25    -0.348456092921E+03   -0.41682E-01   -0.45190E-01 10584   0.260E+00-0.144E-01
CGA:  26    -0.348489896638E+03   -0.33804E-01   -0.33251E-01 10584   0.375E+00 0.231E-01
CGA:  27    -0.348540927567E+03   -0.51031E-01   -0.50914E-01 10584   0.180E+00 0.617E-02
CGA:  28    -0.348552529452E+03   -0.11602E-01   -0.97072E-02 10584   0.105E+00 0.245E-01
CGA:  29    -0.348565515528E+03   -0.12986E-01   -0.12963E-01 10584   0.209E+00-0.705E-03
CGA:  30    -0.348581552042E+03   -0.16037E-01   -0.16888E-01 10584   0.144E+00 0.605E-02
CGA:  31    -0.348588705383E+03   -0.71533E-02   -0.64952E-02 10584   0.656E-01 0.125E-01
CGA:  32    -0.348593314016E+03   -0.46086E-02   -0.43653E-02 10584   0.754E-01 0.210E-02
CGA:  33    -0.348599228585E+03   -0.59146E-02   -0.57111E-02 10584   0.157E+00 0.148E-03
CGA:  34    -0.348607878290E+03   -0.86497E-02   -0.85184E-02 10584   0.140E+00 0.434E-02
CGA:  35    -0.348611958607E+03   -0.40803E-02   -0.38943E-02 10584   0.537E-01 0.826E-02
CGA:  36    -0.348614607756E+03   -0.26491E-02   -0.27064E-02 10584   0.611E-01 0.205E-02
SDA:  37    -0.348617393934E+03   -0.27862E-02   -0.27261E-02 10584   0.698E-01 0.576E-02
CGA:  38    -0.348622826657E+03   -0.54327E-02   -0.54329E-02 10584   0.566E-01 0.128E-03
CGA:  39    -0.348626069972E+03   -0.32433E-02   -0.32298E-02 10584   0.624E-01 0.146E-02
CGA:  40    -0.348635674266E+03   -0.96043E-02   -0.94085E-02 10584   0.765E-01 0.308E-02
CGA:  41    -0.348639123611E+03   -0.34493E-02   -0.36343E-02 10584   0.224E-01-0.271E-02
CGA:  42    -0.348642411352E+03   -0.32877E-02   -0.38254E-02 10584   0.145E+00-0.630E-02
CGA:  43    -0.348645517020E+03   -0.31057E-02   -0.22776E-02 10584   0.150E+00 0.289E-01
CGA:  44    -0.348649282171E+03   -0.37652E-02   -0.41419E-02 10584   0.529E-01-0.179E-01
CGA:  45    -0.348650904649E+03   -0.16225E-02   -0.17016E-02 10584   0.427E-01-0.236E-02
CGA:  46    -0.348652050467E+03   -0.11458E-02   -0.11552E-02 10584   0.218E-01 0.158E-02
CGA:  47    -0.348652948525E+03   -0.89806E-03   -0.94654E-03 10584   0.304E-01 0.218E-02
CGA:  48    -0.348654219706E+03   -0.12712E-02   -0.13502E-02 10584   0.294E-01 0.327E-02
CGA:  49    -0.348655337655E+03   -0.11179E-02   -0.12221E-02 10584   0.302E-01 0.187E-02
CGA:  50    -0.348656348128E+03   -0.10105E-02   -0.11126E-02 10584   0.154E-01 0.144E-02
CGA:  51    -0.348656768884E+03   -0.42076E-03   -0.44645E-03 10584   0.118E-01 0.786E-03
CGA:  52    -0.348657658157E+03   -0.88927E-03   -0.88930E-03 10584   0.313E-01 0.236E-03
CGA:  53    -0.348659103260E+03   -0.14451E-02   -0.13772E-02 10584   0.375E-01-0.337E-03
CGA:  54    -0.348660344173E+03   -0.12409E-02   -0.12689E-02 10584   0.248E-01-0.333E-02
CGA:  55    -0.348660870298E+03   -0.52613E-03   -0.50876E-03 10584   0.956E-02-0.992E-03
CGA:  56    -0.348661252428E+03   -0.38213E-03   -0.36817E-03 10584   0.158E-01-0.288E-03
CGA:  57    -0.348662017012E+03   -0.76458E-03   -0.74134E-03 10584   0.226E-01-0.101E-02
CGA:  58    -0.348662741163E+03   -0.72415E-03   -0.71787E-03 10584   0.237E-01-0.165E-02
CGA:  59    -0.348663618103E+03   -0.87694E-03   -0.84585E-03 10584   0.198E-01-0.964E-03
CGA:  60    -0.348664037626E+03   -0.41952E-03   -0.42146E-03 10584   0.877E-02 0.662E-03
CGA:  61    -0.348664258580E+03   -0.22095E-03   -0.24548E-03 10584   0.758E-02 0.874E-03
CGA:  62    -0.348664519556E+03   -0.26098E-03   -0.28672E-03 10584   0.925E-02 0.108E-02
CGA:  63    -0.348664965378E+03   -0.44582E-03   -0.46783E-03 10584   0.151E-01 0.158E-02
CGA:  64    -0.348665511328E+03   -0.54595E-03   -0.59141E-03 10584   0.801E-02 0.218E-02
CGA:  65    -0.348665681973E+03   -0.17064E-03   -0.19763E-03 10584   0.380E-02 0.953E-03
CGA:  66    -0.348665883031E+03   -0.20106E-03   -0.20311E-03 10584   0.789E-02 0.373E-03
CGA:  67    -0.348666398821E+03   -0.51579E-03   -0.51986E-03 10584   0.155E-01-0.729E-03
SDA:  68    -0.348666916623E+03   -0.51780E-03   -0.48023E-03 10584   0.101E-01-0.193E-02
CGA:  69    -0.348667207858E+03   -0.29124E-03   -0.29277E-03 10584   0.322E-02 0.195E-03
CGA:  70    -0.348667652662E+03   -0.44480E-03   -0.58403E-03 10584   0.134E-01-0.115E-02
CGA:  71    -0.348667984443E+03   -0.33178E-03   -0.32999E-03 10584   0.102E-01-0.568E-04
CGA:  72    -0.348668359564E+03   -0.37512E-03   -0.38068E-03 10584   0.804E-02 0.157E-03
CGA:  73    -0.348668651293E+03   -0.29173E-03   -0.28481E-03 10584   0.200E-02-0.470E-03
CGA:  74    -0.348668768091E+03   -0.11680E-03   -0.12157E-03 10584   0.549E-02-0.474E-03
CGA:  75    -0.348669099569E+03   -0.33148E-03   -0.42598E-03 10584   0.213E-01-0.216E-02
CGA:  76    -0.348669173615E+03   -0.74046E-04   -0.51203E-04 10584   0.181E-01 0.671E-02
CGA:  77    -0.348669327435E+03   -0.15382E-03   -0.11852E-03 10584   0.866E-02 0.906E-02
CGA:  78    -0.348669515327E+03   -0.18789E-03   -0.19449E-03 10584   0.732E-03 0.327E-03
CGA:  79    -0.348669668228E+03   -0.15290E-03   -0.11766E-03 10584   0.108E-02 0.339E-03
CGA:  80    -0.348669750598E+03   -0.82370E-04   -0.81681E-04 10584   0.115E-02-0.155E-03
CGA:  81    -0.348669821743E+03   -0.71145E-04   -0.68810E-04 10584   0.468E-03 0.167E-03
CGA:  82    -0.348669846532E+03   -0.24789E-04   -0.24270E-04 10584   0.640E-03-0.438E-04
CGA:  83    -0.348669913658E+03   -0.67125E-04    0.49180E-03 10584   0.668E-03 0.424E-03
CGA:  84    -0.348669933334E+03   -0.19677E-04   -0.18478E-04 10584   0.214E-03-0.401E-04
CGA:  85    -0.348669956190E+03   -0.22856E-04    0.14063E-03 10584   0.144E-03 0.148E-03
CGA:  86    -0.348669960956E+03   -0.47655E-05   -0.55747E-05 10584   0.128E-03 0.519E-04
CGA:  87    -0.348669980714E+03   -0.19758E-04    0.93988E-04 10584   0.983E-04 0.150E-03
CGA:  88    -0.348669964844E+03    0.15870E-04   -0.21393E-04 10584   0.282E-02-0.232E-03
CGA:  89    -0.348670013716E+03   -0.48872E-04   -0.54733E-04 10584   0.656E-04 0.165E-03
CGA:  90    -0.348670018928E+03   -0.52111E-05   -0.50063E-05 10584   0.136E-03 0.168E-04
CGA:  91    -0.348669965855E+03    0.53073E-04   -0.27366E-04 10584   0.514E-02-0.426E-03
CGA:  92    -0.348670098656E+03   -0.13280E-03   -0.13560E-03 10584   0.870E-03 0.163E-03
CGA:  93    -0.348670129546E+03   -0.30891E-04   -0.30510E-04 10584   0.370E-04-0.106E-04
CGA:  94    -0.348670118456E+03    0.11091E-04   -0.83491E-05 10584   0.223E-02-0.155E-03
CGA:  95    -0.348670143542E+03   -0.25087E-04   -0.34862E-04 10584   0.277E-04 0.122E-03
CGA:  96    -0.348670143444E+03    0.98618E-07   -0.74394E-06 10584   0.205E-04 0.108E-04
CGA:  97    -0.348670142945E+03    0.49831E-06   -0.11347E-04 10584   0.781E-03-0.402E-04
CGA:  98    -0.348670167050E+03   -0.24104E-04   -0.21788E-04 10584   0.161E-03-0.321E-04
CGA:  99    -0.348670171244E+03   -0.41941E-05   -0.46503E-05 10584   0.143E-04 0.693E-05
   1 F= -.34867017E+03 E0= -.34866420E+03  d E =-.348670E+03  mag=    18.0000
       N       E                     dE             d eps       ncg     rms          ort
SDA:   1    -0.348668178833E+03    0.19882E-02    0.00000E+00 10584   0.738E-01 0.000E+00
CGA:   2    -0.348669339054E+03   -0.11602E-02   -0.12119E-02 10584   0.297E-02 0.129E-02
CGA:   3    -0.348669565191E+03   -0.22614E-03   -0.22938E-03 10584   0.575E-02 0.137E-03
CGA:   4    -0.348669870633E+03   -0.30544E-03   -0.31073E-03 10584   0.347E-02 0.915E-04
CGA:   5    -0.348670063932E+03   -0.19330E-03   -0.20125E-03 10584   0.723E-03 0.219E-03
CGA:   6    -0.348670122769E+03   -0.58836E-04   -0.56701E-04 10584   0.205E-02-0.104E-03
CGA:   7    -0.348670185428E+03   -0.62660E-04   -0.65878E-04 10584   0.478E-03 0.570E-04
CGA:   8    -0.348670190471E+03   -0.50424E-05   -0.82884E-05 10584   0.172E-03 0.446E-04
CGA:   9    -0.348670204838E+03   -0.14368E-04   -0.14265E-04 10584   0.421E-03-0.954E-05
CGA:  10    -0.348670222883E+03   -0.18045E-04   -0.11793E-04 10584   0.229E-03-0.111E-03
CGA:  11    -0.348670233765E+03   -0.10881E-04   -0.78890E-05 10584   0.193E-03-0.815E-04
CGA:  12    -0.348670234645E+03   -0.88074E-06   -0.16509E-05 10584   0.816E-04 0.115E-04
   2 F= -.34867023E+03 E0= -.34866426E+03  d E =-.634016E-04  mag=    18.0000
       N       E                     dE             d eps       ncg     rms          ort
SDA:   1    -0.348668032945E+03    0.22008E-02    0.00000E+00 10584   0.105E+00 0.000E+00
CGA:   2    -0.348669658527E+03   -0.16256E-02   -0.16438E-02 10584   0.356E-02 0.312E-02
CGA:   3    -0.348669847040E+03   -0.18851E-03   -0.19130E-03 10584   0.193E-02 0.163E-03
CGA:   4    -0.348669964256E+03   -0.11722E-03   -0.11505E-03 10584   0.402E-02-0.156E-03
CGA:   5    -0.348670153505E+03   -0.18925E-03   -0.19554E-03 10584   0.127E-02 0.356E-03
CGA:   6    -0.348670172659E+03   -0.19154E-04   -0.27136E-04 10584   0.413E-03 0.161E-03
CGA:   7    -0.348670207421E+03   -0.34762E-04   -0.34416E-04 10584   0.855E-03 0.508E-04
CGA:   8    -0.348670245586E+03   -0.38166E-04   -0.36502E-04 10584   0.318E-03-0.584E-04
CGA:   9    -0.348670252996E+03   -0.74102E-05   -0.88597E-05 10584   0.131E-03 0.407E-04
   3 F= -.34867025E+03 E0= -.34866429E+03  d E =-.183510E-04  mag=    18.0000
