       N       E                     dE             d eps       ncg     rms          rms(c)
DAV:   1     0.282057793825E+04    0.28206E+04   -0.13328E+05 24192   0.152E+03
DAV:   2    -0.223896590637E+02   -0.28430E+04   -0.27558E+04 26976   0.437E+02
DAV:   3    -0.306589348017E+03   -0.28420E+03   -0.27830E+03 28136   0.150E+02
DAV:   4    -0.322176702056E+03   -0.15587E+02   -0.15103E+02 39544   0.362E+01
DAV:   5    -0.323168911220E+03   -0.99221E+00   -0.98022E+00 42560   0.623E+00    0.732E+01
DAV:   6    -0.303631672300E+03    0.19537E+02   -0.34269E+02 33096   0.543E+01    0.709E+01
DAV:   7    -0.308864916432E+03   -0.52332E+01   -0.17835E+02 34312   0.105E+02    0.535E+01
DAV:   8    -0.289698324053E+03    0.19167E+02   -0.94873E+01 34648   0.435E+01    0.373E+01
DAV:   9    -0.296715503761E+03   -0.70172E+01   -0.12481E+02 34400   0.166E+01    0.616E+01
DAV:  10    -0.284594038351E+03    0.12121E+02   -0.85663E+01 34584   0.184E+01    0.301E+01
DAV:  11    -0.282074624000E+03    0.25194E+01   -0.21448E+01 34200   0.965E+00    0.259E+01
DAV:  12    -0.281978883959E+03    0.95740E-01   -0.92536E+00 34136   0.476E+00    0.238E+01
DAV:  13    -0.280380448726E+03    0.15984E+01   -0.25353E+00 33576   0.468E+00    0.159E+01
DAV:  14    -0.280696342196E+03   -0.31589E+00   -0.19815E-01 30328   0.143E+00    0.156E+01
DAV:  15    -0.280646020743E+03    0.50321E-01   -0.19675E-02 32600   0.441E-01    0.155E+01
DAV:  16    -0.280649476324E+03   -0.34556E-02   -0.15718E-02 37128   0.150E-01    0.156E+01
DAV:  17    -0.280705664604E+03   -0.56188E-01   -0.26804E-01 30608   0.549E-01    0.150E+01
DAV:  18    -0.280793329573E+03   -0.87665E-01   -0.90858E-02 27128   0.428E-01    0.150E+01
DAV:  19    -0.280785440819E+03    0.78888E-02   -0.57604E-02 28656   0.492E-01    0.153E+01
DAV:  20    -0.280808905703E+03   -0.23465E-01   -0.34401E-01 31696   0.524E-01    0.160E+01
DAV:  21    -0.280856241099E+03   -0.47335E-01   -0.10096E-01 30728   0.863E-01    0.149E+01
DAV:  22    -0.281179235774E+03   -0.32299E+00   -0.11011E-01 32840   0.947E-01    0.136E+01
DAV:  23    -0.281673656978E+03   -0.49442E+00   -0.28390E-01 31976   0.136E+00    0.119E+01
DAV:  24    -0.281874900678E+03   -0.20124E+00   -0.29428E+00 33152   0.394E+00    0.130E+01
DAV:  25    -0.282140353100E+03   -0.26545E+00   -0.36542E-01 30968   0.163E+00    0.161E+01
DAV:  26    -0.282067262148E+03    0.73091E-01   -0.37600E-02 29336   0.778E-01    0.159E+01
DAV:  27    -0.282080582693E+03   -0.13321E-01   -0.61849E-02 32272   0.946E-01    0.151E+01
DAV:  28    -0.281801127103E+03    0.27946E+00   -0.31990E-01 32936   0.206E+00    0.116E+01
DAV:  29    -0.281947913893E+03   -0.14679E+00   -0.27605E-01 31424   0.160E+00    0.109E+01
DAV:  30    -0.282006536536E+03   -0.58623E-01   -0.16976E-01 29376   0.857E-01    0.102E+01
DAV:  31    -0.282003269191E+03    0.32673E-02   -0.18475E-02 25680   0.498E-01    0.104E+01
DAV:  32    -0.281989591891E+03    0.13677E-01   -0.27074E-02 33672   0.553E-01    0.960E+00
DAV:  33    -0.281930157984E+03    0.59434E-01   -0.11154E-01 31840   0.107E+00    0.941E+00
DAV:  34    -0.281514692094E+03    0.41547E+00   -0.41027E-01 30192   0.191E+00    0.990E+00
DAV:  35    -0.280737492173E+03    0.77720E+00   -0.34422E+00 27648   0.216E+00    0.131E+01
DAV:  36    -0.280884323242E+03   -0.14683E+00   -0.57971E-02 27368   0.913E-01    0.135E+01
DAV:  37    -0.281064377246E+03   -0.18005E+00   -0.37646E-02 29632   0.516E-01    0.138E+01
DAV:  38    -0.281041193343E+03    0.23184E-01   -0.21676E-03 26352   0.183E-01    0.138E+01
DAV:  39    -0.280689836241E+03    0.35136E+00   -0.59526E-02 28064   0.540E-01    0.141E+01
DAV:  40    -0.280686168511E+03    0.36677E-02   -0.17200E-03 26616   0.130E-01    0.142E+01
DAV:  41    -0.280703032347E+03   -0.16864E-01   -0.57875E-04 29200   0.719E-02    0.141E+01
DAV:  42    -0.280849551890E+03   -0.14652E+00   -0.28435E-02 29576   0.410E-01    0.133E+01
DAV:  43    -0.280936919576E+03   -0.87368E-01   -0.12345E-02 30280   0.290E-01    0.136E+01
DAV:  44    -0.281510651908E+03   -0.57373E+00   -0.56442E-01 29752   0.204E+00    0.119E+01
DAV:  45    -0.281659183609E+03   -0.14853E+00   -0.88946E-02 29880   0.873E-01    0.117E+01
DAV:  46    -0.281693493911E+03   -0.34310E-01   -0.10050E-02 30216   0.339E-01    0.113E+01
DAV:  47    -0.281556339466E+03    0.13715E+00   -0.14146E-01 31960   0.130E+00    0.103E+01
DAV:  48    -0.281594735527E+03   -0.38396E-01   -0.55341E-02 30256   0.828E-01    0.100E+01
DAV:  49    -0.281394416178E+03    0.20032E+00   -0.10156E-01 29744   0.951E-01    0.102E+01
DAV:  50    -0.281274417442E+03    0.12000E+00   -0.37373E-02 27568   0.597E-01    0.108E+01
DAV:  51    -0.281282169688E+03   -0.77522E-02   -0.53940E-02 32152   0.792E-01    0.106E+01
DAV:  52    -0.281354937866E+03   -0.72768E-01   -0.67923E-03 28872   0.270E-01    0.104E+01
DAV:  53    -0.281274028323E+03    0.80910E-01   -0.14113E-02 28320   0.307E-01    0.104E+01
DAV:  54    -0.281302566317E+03   -0.28538E-01   -0.11911E-02 32552   0.284E-01    0.103E+01
DAV:  55    -0.281396058377E+03   -0.93492E-01   -0.84818E-03 28416   0.258E-01    0.101E+01
DAV:  56    -0.281627064775E+03   -0.23101E+00   -0.19271E-01 31776   0.139E+00    0.992E+00
DAV:  57    -0.281456589006E+03    0.17048E+00   -0.63190E-02 25944   0.855E-01    0.107E+01
DAV:  58    -0.281406232555E+03    0.50356E-01   -0.10315E-02 28736   0.330E-01    0.111E+01
DAV:  59    -0.281381046380E+03    0.25186E-01   -0.37485E-03 29248   0.210E-01    0.110E+01
DAV:  60    -0.281431918142E+03   -0.50872E-01   -0.73584E-03 30504   0.279E-01    0.105E+01
DAV:  61    -0.281796842343E+03   -0.36492E+00   -0.60350E+00 31320   0.280E+00    0.113E+01
DAV:  62    -0.281966507150E+03   -0.16966E+00   -0.98603E-02 26264   0.131E+00    0.110E+01
DAV:  63    -0.281930881603E+03    0.35626E-01   -0.67560E-03 28520   0.340E-01    0.110E+01
DAV:  64    -0.281953845019E+03   -0.22963E-01   -0.33188E-02 32376   0.546E-01    0.109E+01
DAV:  65    -0.281990472396E+03   -0.36627E-01   -0.61202E-02 31952   0.718E-01    0.107E+01
DAV:  66    -0.281993964522E+03   -0.34921E-02   -0.45746E+00 31992   0.366E+00    0.939E+00
DAV:  67    -0.282326607169E+03   -0.33264E+00   -0.41936E-01 28552   0.173E+00    0.866E+00
DAV:  68    -0.282357834111E+03   -0.31227E-01   -0.11537E-01 33192   0.985E-01    0.935E+00
DAV:  69    -0.282373376813E+03   -0.15543E-01   -0.65260E-01 34144   0.157E+00    0.988E+00
DAV:  70    -0.282528784350E+03   -0.15541E+00   -0.49290E-01 31640   0.108E+00    0.113E+01
DAV:  71    -0.282622232265E+03   -0.93448E-01   -0.18609E-01 32704   0.151E+00    0.882E+00
DAV:  72    -0.282645260795E+03   -0.23029E-01   -0.11262E-01 30496   0.917E-01    0.870E+00
DAV:  73    -0.282634331937E+03    0.10929E-01   -0.31230E-02 33080   0.618E-01    0.802E+00
DAV:  74    -0.282587199173E+03    0.47133E-01   -0.41712E-02 34328   0.783E-01    0.691E+00
DAV:  75    -0.282596318674E+03   -0.91195E-02   -0.24944E-02 29504   0.450E-01    0.689E+00
DAV:  76    -0.282616693578E+03   -0.20375E-01   -0.19416E-02 31240   0.336E-01    0.687E+00
DAV:  77    -0.282618355828E+03   -0.16623E-02   -0.16415E-03 27032   0.133E-01    0.690E+00
DAV:  78    -0.282616521228E+03    0.18346E-02   -0.91534E-04 31440   0.845E-02    0.690E+00
DAV:  79    -0.282617603777E+03   -0.10825E-02   -0.49366E-03 32184   0.192E-01    0.713E+00
DAV:  80    -0.282616481684E+03    0.11221E-02   -0.40111E-04 25360   0.750E-02    0.715E+00
DAV:  81    -0.282622252426E+03   -0.57707E-02   -0.88672E-02 34432   0.632E-01    0.714E+00
DAV:  82    -0.282666897809E+03   -0.44645E-01   -0.26125E-01 33184   0.780E-01    0.804E+00
DAV:  83    -0.282691232878E+03   -0.24335E-01   -0.44137E-02 31224   0.455E-01    0.870E+00
DAV:  84    -0.282662446835E+03    0.28786E-01   -0.10286E-02 31400   0.280E-01    0.838E+00
DAV:  85    -0.282690284938E+03   -0.27838E-01   -0.68643E-02 34224   0.413E-01    0.881E+00
DAV:  86    -0.282686163738E+03    0.41212E-02   -0.17783E-02 31808   0.345E-01    0.893E+00
DAV:  87    -0.282684200295E+03    0.19634E-02   -0.13167E-03 27128   0.134E-01    0.889E+00
DAV:  88    -0.282689855340E+03   -0.56550E-02   -0.80921E-04 33944   0.947E-02    0.880E+00
DAV:  89    -0.282701684702E+03   -0.11829E-01   -0.64294E-04 33272   0.827E-02    0.890E+00
DAV:  90    -0.282714582010E+03   -0.12897E-01   -0.43101E-03 35840   0.252E-01    0.886E+00
DAV:  91    -0.282761287821E+03   -0.46706E-01   -0.47528E-02 34792   0.728E-01    0.881E+00
DAV:  92    -0.282777614339E+03   -0.16327E-01   -0.76478E-03 32824   0.289E-01    0.890E+00
DAV:  93    -0.282782679699E+03   -0.50654E-02   -0.95805E-04 30104   0.843E-02    0.903E+00
DAV:  94    -0.282781706335E+03    0.97336E-03   -0.96838E-05 23464   0.266E-02    0.907E+00
DAV:  95    -0.282782625448E+03   -0.91911E-03   -0.34755E-03 33664   0.129E-01    0.933E+00
DAV:  96    -0.282779687047E+03    0.29384E-02   -0.46410E-02 31888   0.530E-01    0.991E+00
DAV:  97    -0.282750397287E+03    0.29290E-01   -0.34034E-02 32368   0.306E-01    0.886E+00
DAV:  98    -0.282760509777E+03   -0.10112E-01   -0.12613E-02 30480   0.166E-01    0.844E+00
DAV:  99    -0.282755795944E+03    0.47138E-02   -0.49759E-03 30160   0.165E-01    0.829E+00
DAV: 100    -0.282751817960E+03    0.39780E-02   -0.18980E-03 30040   0.102E-01    0.821E+00
DAV: 101    -0.282706011902E+03    0.45806E-01   -0.12291E-01 34432   0.926E-01    0.863E+00
DAV: 102    -0.282648183433E+03    0.57828E-01   -0.69434E-02 33744   0.592E-01    0.783E+00
DAV: 103    -0.282610779198E+03    0.37404E-01   -0.35550E-02 33664   0.474E-01    0.781E+00
DAV: 104    -0.282589838221E+03    0.20941E-01   -0.15019E-02 32808   0.392E-01    0.803E+00
DAV: 105    -0.282559344753E+03    0.30493E-01   -0.12995E-02 35080   0.393E-01    0.760E+00
DAV: 106    -0.282573722304E+03   -0.14378E-01   -0.51803E-02 31904   0.668E-01    0.857E+00
DAV: 107    -0.282573733560E+03   -0.11256E-04   -0.42627E-02 29888   0.432E-01    0.807E+00
DAV: 108    -0.282574642924E+03   -0.90936E-03   -0.42828E-03 26528   0.178E-01    0.806E+00
DAV: 109    -0.282576582011E+03   -0.19391E-02   -0.59088E-04 25960   0.795E-02    0.806E+00
DAV: 110    -0.282587213063E+03   -0.10631E-01   -0.43009E-03 33648   0.174E-01    0.812E+00
DAV: 111    -0.283633908085E+03   -0.10467E+01   -0.85106E+00 33520   0.451E+00    0.187E+01
DAV: 112    -0.283440201031E+03    0.19371E+00   -0.18729E-01 29544   0.158E+00    0.177E+01
DAV: 113    -0.283274426491E+03    0.16577E+00   -0.59016E-02 34192   0.724E-01    0.172E+01
DAV: 114    -0.283275299896E+03   -0.87341E-03   -0.11118E-02 28840   0.293E-01    0.171E+01
DAV: 115    -0.283269710787E+03    0.55891E-02   -0.11130E-03 31176   0.146E-01    0.171E+01
DAV: 116    -0.283336069585E+03   -0.66359E-01   -0.26635E-02 33824   0.717E-01    0.169E+01
DAV: 117    -0.283403121578E+03   -0.67052E-01   -0.82881E-02 36480   0.150E+00    0.169E+01
DAV: 118    -0.283333715270E+03    0.69406E-01   -0.15006E-01 34560   0.126E+00    0.147E+01
DAV: 119    -0.283254151244E+03    0.79564E-01   -0.44241E-01 33600   0.127E+00    0.109E+01
DAV: 120    -0.283231102512E+03    0.23049E-01   -0.38397E-01 34616   0.142E+00    0.950E+00
DAV: 121    -0.283093578149E+03    0.13752E+00   -0.11692E+00 35968   0.267E+00    0.985E+00
DAV: 122    -0.283027883458E+03    0.65695E-01   -0.33085E-01 34040   0.143E+00    0.967E+00
DAV: 123    -0.282954077968E+03    0.73805E-01   -0.36914E-02 33192   0.634E-01    0.859E+00
DAV: 124    -0.283034020878E+03   -0.79943E-01   -0.17769E-01 34200   0.808E-01    0.936E+00
DAV: 125    -0.283057149628E+03   -0.23129E-01   -0.16475E-02 24568   0.572E-01    0.961E+00
DAV: 126    -0.282933885299E+03    0.12326E+00   -0.11028E-01 33000   0.714E-01    0.691E+00
DAV: 127    -0.282974217249E+03   -0.40332E-01   -0.49140E-02 33040   0.717E-01    0.878E+00
DAV: 128    -0.282937529102E+03    0.36688E-01   -0.12620E-01 32472   0.974E-01    0.759E+00
DAV: 129    -0.282966157573E+03   -0.28628E-01   -0.30560E-02 25800   0.596E-01    0.860E+00
DAV: 130    -0.282942941727E+03    0.23216E-01   -0.40661E-03 25800   0.254E-01    0.846E+00
DAV: 131    -0.282921245653E+03    0.21696E-01   -0.23095E-03 33904   0.164E-01    0.743E+00
DAV: 132    -0.282923178504E+03   -0.19329E-02   -0.36827E-03 27720   0.152E-01    0.698E+00
DAV: 133    -0.282901718685E+03    0.21460E-01   -0.35122E-02 33352   0.352E-01    0.577E+00
DAV: 134    -0.282885458172E+03    0.16261E-01   -0.16140E-01 32656   0.844E-01    0.605E+00
DAV: 135    -0.282875128971E+03    0.10329E-01   -0.45921E-02 30248   0.596E-01    0.655E+00
DAV: 136    -0.282885284662E+03   -0.10156E-01   -0.92464E-02 32032   0.487E-01    0.824E+00
DAV: 137    -0.282877770152E+03    0.75145E-02   -0.59461E-02 32032   0.623E-01    0.858E+00
DAV: 138    -0.282870007996E+03    0.77622E-02   -0.46561E-02 33144   0.690E-01    0.888E+00
DAV: 139    -0.282878999707E+03   -0.89917E-02   -0.12119E-02 29488   0.404E-01    0.101E+01
DAV: 140    -0.282870096926E+03    0.89028E-02   -0.17836E-02 31216   0.364E-01    0.916E+00
DAV: 141    -0.282878981992E+03   -0.88851E-02   -0.66282E-02 33248   0.706E-01    0.815E+00
DAV: 142    -0.282888345459E+03   -0.93635E-02   -0.94762E-03 27808   0.289E-01    0.791E+00
DAV: 143    -0.282901576821E+03   -0.13231E-01   -0.53640E-02 33480   0.398E-01    0.831E+00
DAV: 144    -0.282900192240E+03    0.13846E-02   -0.70464E-03 29696   0.245E-01    0.821E+00
DAV: 145    -0.282890268054E+03    0.99242E-02   -0.19049E-02 33320   0.333E-01    0.761E+00
DAV: 146    -0.282897476398E+03   -0.72083E-02   -0.36936E-02 34144   0.461E-01    0.658E+00
DAV: 147    -0.282905859039E+03   -0.83826E-02   -0.72418E-02 31440   0.679E-01    0.550E+00
DAV: 148    -0.282915170246E+03   -0.93112E-02   -0.42843E-02 33224   0.688E-01    0.677E+00
DAV: 149    -0.282902227306E+03    0.12943E-01   -0.13012E-02 29512   0.378E-01    0.643E+00
DAV: 150    -0.282941519118E+03   -0.39292E-01   -0.10913E-01 34304   0.116E+00    0.652E+00
DAV: 151    -0.282948678833E+03   -0.71597E-02   -0.14793E-01 27376   0.943E-01    0.570E+00
DAV: 152    -0.282945696357E+03    0.29825E-02   -0.36424E-02 33168   0.653E-01    0.604E+00
DAV: 153    -0.282957605184E+03   -0.11909E-01   -0.43228E-02 30040   0.688E-01    0.668E+00
DAV: 154    -0.282947039971E+03    0.10565E-01   -0.65235E-03 27336   0.324E-01    0.661E+00
DAV: 155    -0.282924742016E+03    0.22298E-01   -0.32272E-02 33624   0.608E-01    0.458E+00
DAV: 156    -0.282950046175E+03   -0.25304E-01   -0.75572E-03 29640   0.321E-01    0.538E+00
DAV: 157    -0.282935001644E+03    0.15045E-01   -0.52126E-03 33184   0.327E-01    0.418E+00
DAV: 158    -0.282940128882E+03   -0.51272E-02   -0.97054E-03 31408   0.322E-01    0.382E+00
DAV: 159    -0.282948279325E+03   -0.81504E-02   -0.63677E-03 26192   0.287E-01    0.419E+00
DAV: 160    -0.282945297603E+03    0.29817E-02   -0.17747E-03 26584   0.169E-01    0.410E+00
DAV: 161    -0.282938059360E+03    0.72382E-02   -0.96999E-03 31872   0.183E-01    0.348E+00
DAV: 162    -0.282941229964E+03   -0.31706E-02   -0.21686E-03 28232   0.188E-01    0.338E+00
DAV: 163    -0.282942777483E+03   -0.15475E-02   -0.50960E-04 30632   0.763E-02    0.332E+00
DAV: 164    -0.282941424441E+03    0.13530E-02   -0.50804E-04 30960   0.715E-02    0.334E+00
DAV: 165    -0.282944188489E+03   -0.27640E-02   -0.14829E-04 27448   0.462E-02    0.325E+00
DAV: 166    -0.282946308421E+03   -0.21199E-02   -0.15144E-03 31592   0.126E-01    0.334E+00
DAV: 167    -0.282947805328E+03   -0.14969E-02   -0.37276E-04 30712   0.538E-02    0.321E+00
DAV: 168    -0.282951619501E+03   -0.38142E-02   -0.86454E-04 30688   0.762E-02    0.314E+00
DAV: 169    -0.282956933419E+03   -0.53139E-02   -0.22057E-03 31088   0.118E-01    0.291E+00
DAV: 170    -0.282973187061E+03   -0.16254E-01   -0.19573E-02 30400   0.358E-01    0.218E+00
DAV: 171    -0.282977997058E+03   -0.48100E-02   -0.59661E-03 29256   0.203E-01    0.218E+00
DAV: 172    -0.282976412652E+03    0.15844E-02   -0.11022E-03 28216   0.867E-02    0.215E+00
DAV: 173    -0.282979179260E+03   -0.27666E-02   -0.20716E-03 30992   0.102E-01    0.199E+00
DAV: 174    -0.282984657086E+03   -0.54778E-02   -0.55931E-03 30288   0.178E-01    0.176E+00
DAV: 175    -0.282986789355E+03   -0.21323E-02   -0.28121E-03 32848   0.124E-01    0.161E+00
DAV: 176    -0.282989310544E+03   -0.25212E-02   -0.50982E-03 31704   0.207E-01    0.138E+00
DAV: 177    -0.282991542542E+03   -0.22320E-02   -0.10007E-02 32344   0.219E-01    0.851E-01
DAV: 178    -0.282991993765E+03   -0.45122E-03   -0.14501E-03 25224   0.156E-01    0.111E+00
DAV: 179    -0.282992083597E+03   -0.89831E-04   -0.50110E-04 27560   0.851E-02    0.991E-01
DAV: 180    -0.282992012475E+03    0.71122E-04   -0.11333E-04 22200   0.261E-02    0.908E-01
DAV: 181    -0.282994209468E+03   -0.21970E-02   -0.48759E-03 29768   0.155E-01    0.960E-01
DAV: 182    -0.282994322646E+03   -0.11318E-03   -0.11089E-03 26672   0.823E-02    0.124E+00
DAV: 183    -0.282993065807E+03    0.12568E-02   -0.18379E-04 24576   0.589E-02    0.124E+00
DAV: 184    -0.282992774954E+03    0.29085E-03   -0.10707E-05 19728   0.148E-02    0.123E+00
DAV: 185    -0.282992704564E+03    0.70390E-04   -0.20451E-06 14712   0.619E-03    0.123E+00
DAV: 186    -0.282994080157E+03   -0.13756E-02   -0.56040E-04 31696   0.847E-02    0.182E+00
DAV: 187    -0.282991944492E+03    0.21357E-02   -0.33047E-04 24728   0.825E-02    0.189E+00
DAV: 188    -0.282991027884E+03    0.91661E-03   -0.64679E-05 23728   0.330E-02    0.201E+00
DAV: 189    -0.282989420261E+03    0.16076E-02   -0.19215E-03 31184   0.928E-02    0.138E+00
DAV: 190    -0.282990896858E+03   -0.14766E-02   -0.40512E-03 31008   0.108E-01    0.658E-01
DAV: 191    -0.282994075311E+03   -0.31785E-02   -0.38611E-03 26872   0.197E-01    0.451E-01
DAV: 192    -0.282994564021E+03   -0.48871E-03   -0.15877E-03 28624   0.101E-01    0.327E-01
DAV: 193    -0.282994893434E+03   -0.32941E-03   -0.40857E-04 25096   0.659E-02    0.600E-01
DAV: 194    -0.282994622872E+03    0.27056E-03   -0.54064E-04 28192   0.729E-02    0.399E-01
DAV: 195    -0.282994666213E+03   -0.43341E-04   -0.29340E-04 29696   0.470E-02    0.178E-01
DAV: 196    -0.282994839934E+03   -0.17372E-03   -0.91800E-05 24792   0.375E-02    0.206E-01
DAV: 197    -0.282994851664E+03   -0.11730E-04   -0.57083E-05 19000   0.176E-02    0.183E-01
DAV: 198    -0.282994856880E+03   -0.52162E-05   -0.62221E-05 17512   0.158E-02
   1 F= -.28299486E+03 E0= -.28297790E+03  d E =-.282995E+03  mag=    -4.8183
       N       E                     dE             d eps       ncg     rms          rms(c)
DAV:   1    -0.283044832579E+03   -0.49981E-01   -0.25467E-02 24768   0.489E-01    0.179E-01
DAV:   2    -0.283047919709E+03   -0.30871E-02   -0.16231E-02 33448   0.216E-01    0.210E+00
DAV:   3    -0.283041694451E+03    0.62253E-02   -0.51907E-03 30624   0.218E-01    0.647E-01
DAV:   4    -0.283044235612E+03   -0.25412E-02   -0.69178E-04 25296   0.795E-02    0.413E-01
DAV:   5    -0.283044738743E+03   -0.50313E-03   -0.11326E-04 23880   0.446E-02    0.387E-01
DAV:   6    -0.283044744156E+03   -0.54130E-05   -0.18282E-03 26920   0.592E-02    0.513E-01
DAV:   7    -0.283044732243E+03    0.11914E-04   -0.15195E-04 22184   0.389E-02    0.564E-01
DAV:   8    -0.283044714818E+03    0.17425E-04   -0.23999E-05 17960   0.217E-02    0.600E-01
DAV:   9    -0.283044677141E+03    0.37676E-04   -0.54995E-05 20080   0.259E-02    0.581E-01
DAV:  10    -0.283044744090E+03   -0.66949E-04   -0.26180E-04 28488   0.513E-02    0.567E-01
DAV:  11    -0.283044653179E+03    0.90911E-04   -0.42454E-04 27112   0.476E-02    0.396E-01
DAV:  12    -0.283044769850E+03   -0.11667E-03   -0.48480E-04 27040   0.404E-02    0.155E-01
DAV:  13    -0.283044933168E+03   -0.16332E-03   -0.12066E-04 22200   0.304E-02    0.607E-02
DAV:  14    -0.283044976948E+03   -0.43780E-04   -0.34860E-05 17504   0.191E-02    0.872E-02
DAV:  15    -0.283044975466E+03    0.14821E-05   -0.17338E-05 15672   0.138E-02
   2 F= -.28304498E+03 E0= -.28302813E+03  d E =-.501186E-01  mag=    -4.8180
       N       E                     dE             d eps       ncg     rms          rms(c)
DAV:   1    -0.284892083867E+03   -0.18471E+01   -0.98528E+01 24768   0.304E+01    0.616E+00
DAV:   2    -0.286106771669E+03   -0.12147E+01   -0.16506E+01 32096   0.956E+00    0.150E+01
DAV:   3    -0.285822701409E+03    0.28407E+00   -0.81290E+00 34576   0.522E+00    0.147E+01
DAV:   4    -0.285593400637E+03    0.22930E+00   -0.22554E-01 36136   0.235E+00    0.153E+01
DAV:   5    -0.285240110255E+03    0.35329E+00   -0.30451E-01 33464   0.145E+00    0.745E+00
DAV:   6    -0.285256755961E+03   -0.16646E-01   -0.84982E-01 34864   0.102E+00    0.627E+00
DAV:   7    -0.285246077636E+03    0.10678E-01   -0.18822E-01 31544   0.911E-01    0.452E+00
DAV:   8    -0.285274924991E+03   -0.28847E-01   -0.48985E-01 35616   0.143E+00    0.657E+00
DAV:   9    -0.285383682078E+03   -0.10876E+00   -0.10220E+00 34432   0.123E+00    0.120E+01
DAV:  10    -0.285217135046E+03    0.16655E+00   -0.11668E+00 34304   0.174E+00    0.487E+00
DAV:  11    -0.285259286755E+03   -0.42152E-01   -0.78618E-02 31080   0.771E-01    0.491E+00
DAV:  12    -0.285252844635E+03    0.64421E-02   -0.52791E-02 32352   0.464E-01    0.363E+00
DAV:  13    -0.285253946766E+03   -0.11021E-02   -0.24105E-03 29120   0.176E-01    0.344E+00
DAV:  14    -0.285253845802E+03    0.10096E-03   -0.18652E-02 34000   0.209E-01    0.432E+00
DAV:  15    -0.285263396330E+03   -0.95505E-02   -0.24215E-02 33584   0.272E-01    0.595E+00
DAV:  16    -0.285245046628E+03    0.18350E-01   -0.33375E-03 26856   0.238E-01    0.562E+00
DAV:  17    -0.285241536294E+03    0.35103E-02   -0.18300E-02 32352   0.395E-01    0.427E+00
DAV:  18    -0.285249335782E+03   -0.77995E-02   -0.72016E-03 27352   0.234E-01    0.372E+00
DAV:  19    -0.285246440958E+03    0.28948E-02   -0.37042E-02 33520   0.328E-01    0.239E+00
DAV:  20    -0.285263956026E+03   -0.17515E-01   -0.16990E-01 33704   0.493E-01    0.347E+00
DAV:  21    -0.285258389292E+03    0.55667E-02   -0.95748E-03 28416   0.447E-01    0.309E+00
DAV:  22    -0.285258594033E+03   -0.20474E-03   -0.41996E-03 30576   0.208E-01    0.320E+00
DAV:  23    -0.285257472775E+03    0.11213E-02   -0.70680E-04 25984   0.103E-01    0.319E+00
DAV:  24    -0.285258346979E+03   -0.87420E-03   -0.19300E-04 28072   0.502E-02    0.341E+00
DAV:  25    -0.285257768571E+03    0.57841E-03   -0.40408E-04 29928   0.637E-02    0.352E+00
DAV:  26    -0.285255848130E+03    0.19204E-02   -0.26255E-04 25952   0.441E-02    0.338E+00
DAV:  27    -0.285249844667E+03    0.60035E-02   -0.10464E-02 33392   0.253E-01    0.195E+00
DAV:  28    -0.285254986373E+03   -0.51417E-02   -0.99634E-03 29976   0.248E-01    0.140E+00
DAV:  29    -0.285259365988E+03   -0.43796E-02   -0.11530E-02 29736   0.252E-01    0.179E+00
DAV:  30    -0.285259866418E+03   -0.50043E-03   -0.24591E-03 32912   0.142E-01    0.208E+00
DAV:  31    -0.285257500248E+03    0.23662E-02   -0.33410E-04 25016   0.883E-02    0.218E+00
DAV:  32    -0.285259499220E+03   -0.19990E-02   -0.71366E-04 31856   0.108E-01    0.271E+00
DAV:  33    -0.285256598448E+03    0.29008E-02   -0.44908E-04 25328   0.872E-02    0.283E+00
DAV:  34    -0.285254688388E+03    0.19101E-02   -0.80123E-05 24048   0.381E-02    0.291E+00
DAV:  35    -0.285256822259E+03   -0.21339E-02   -0.59096E-03 32736   0.164E-01    0.338E+00
DAV:  36    -0.285251371508E+03    0.54508E-02   -0.94818E-03 32144   0.245E-01    0.241E+00
DAV:  37    -0.285254160302E+03   -0.27888E-02   -0.17903E-03 29776   0.137E-01    0.167E+00
DAV:  38    -0.285257395570E+03   -0.32353E-02   -0.57651E-04 26656   0.936E-02    0.126E+00
DAV:  39    -0.285259108454E+03   -0.17129E-02   -0.38887E-04 30080   0.588E-02    0.117E+00
DAV:  40    -0.285259830725E+03   -0.72227E-03   -0.43253E-04 27512   0.501E-02    0.140E+00
DAV:  41    -0.285259326679E+03    0.50405E-03   -0.97892E-05 23544   0.320E-02    0.137E+00
DAV:  42    -0.285259210971E+03    0.11571E-03   -0.62489E-05 20776   0.243E-02    0.114E+00
DAV:  43    -0.285259896278E+03   -0.68531E-03   -0.12454E-04 23544   0.324E-02    0.979E-01
DAV:  44    -0.285260436914E+03   -0.54064E-03   -0.76322E-05 21448   0.253E-02    0.875E-01
DAV:  45    -0.285260819355E+03   -0.38244E-03   -0.62390E-05 19504   0.204E-02    0.806E-01
DAV:  46    -0.285260993265E+03   -0.17391E-03   -0.24722E-05 17176   0.122E-02    0.793E-01
DAV:  47    -0.285261003134E+03   -0.98692E-05   -0.25131E-05 18880   0.201E-02
   3 F= -.28526100E+03 E0= -.28524383E+03  d E =-.221603E+01  mag=    -4.7965
       N       E                     dE             d eps       ncg     rms          rms(c)
DAV:   1    -0.285826660993E+03   -0.56567E+00   -0.87674E+01 24768   0.325E+01    0.530E+00
DAV:   2    -0.287209062740E+03   -0.13824E+01   -0.16124E+01 31784   0.966E+00    0.163E+01
DAV:   3    -0.286895599224E+03    0.31346E+00   -0.86519E+00 34736   0.456E+00    0.168E+01
DAV:   4    -0.286558800036E+03    0.33680E+00   -0.50279E-01 35408   0.218E+00    0.173E+01
DAV:   5    -0.286245629124E+03    0.31317E+00   -0.91580E-02 32808   0.157E+00    0.655E+00
DAV:   6    -0.286343661294E+03   -0.98032E-01   -0.10694E+00 34064   0.155E+00    0.701E+00
DAV:   7    -0.286288416146E+03    0.55245E-01   -0.81047E-02 33968   0.115E+00    0.386E+00
DAV:   8    -0.286288601119E+03   -0.18497E-03   -0.22492E-01 35784   0.896E-01    0.345E+00
DAV:   9    -0.286296689084E+03   -0.80880E-02   -0.51148E-02 31720   0.606E-01    0.422E+00
DAV:  10    -0.286298313486E+03   -0.16244E-02   -0.32307E-02 30352   0.660E-01    0.772E+00
DAV:  11    -0.286293700125E+03    0.46134E-02   -0.12863E-02 29320   0.377E-01    0.917E+00
DAV:  12    -0.286270626316E+03    0.23074E-01   -0.54257E-02 33008   0.399E-01    0.888E+00
DAV:  13    -0.286304580287E+03   -0.33954E-01   -0.83354E-02 31344   0.396E-01    0.902E+00
DAV:  14    -0.286287426180E+03    0.17154E-01   -0.65536E-02 30896   0.638E-01    0.757E+00
DAV:  15    -0.286275370703E+03    0.12055E-01   -0.39768E-02 31648   0.649E-01    0.705E+00
DAV:  16    -0.286263652183E+03    0.11719E-01   -0.87190E-03 30880   0.329E-01    0.670E+00
DAV:  17    -0.286240504443E+03    0.23148E-01   -0.17476E-02 32312   0.400E-01    0.568E+00
DAV:  18    -0.286253227608E+03   -0.12723E-01   -0.77858E-03 30960   0.243E-01    0.552E+00
DAV:  19    -0.286258398345E+03   -0.51707E-02   -0.27263E-03 28272   0.168E-01    0.466E+00
DAV:  20    -0.286288759910E+03   -0.30362E-01   -0.39325E-02 30528   0.720E-01    0.284E+00
DAV:  21    -0.286300074605E+03   -0.11315E-01   -0.99100E-03 29768   0.370E-01    0.244E+00
DAV:  22    -0.286304678453E+03   -0.46038E-02   -0.68587E-03 31672   0.277E-01    0.203E+00
DAV:  23    -0.286307577985E+03   -0.28995E-02   -0.18249E-02 32680   0.486E-01    0.239E+00
DAV:  24    -0.286304009388E+03    0.35686E-02   -0.18552E-02 32592   0.478E-01    0.304E+00
DAV:  25    -0.286298375711E+03    0.56337E-02   -0.15527E-02 32200   0.297E-01    0.146E+00
DAV:  26    -0.286308895072E+03   -0.10519E-01   -0.12319E-02 30296   0.359E-01    0.230E+00
DAV:  27    -0.286303770795E+03    0.51243E-02   -0.34859E-03 25280   0.241E-01    0.222E+00
DAV:  28    -0.286301397680E+03    0.23731E-02   -0.70777E-04 32728   0.907E-02    0.189E+00
DAV:  29    -0.286301033436E+03    0.36424E-03   -0.57760E-04 32408   0.630E-02    0.140E+00
DAV:  30    -0.286303579761E+03   -0.25463E-02   -0.31597E-03 30496   0.167E-01    0.680E-01
DAV:  31    -0.286307798779E+03   -0.42190E-02   -0.41034E-03 28512   0.218E-01    0.577E-01
DAV:  32    -0.286308217714E+03   -0.41894E-03   -0.51458E-04 26664   0.956E-02    0.677E-01
DAV:  33    -0.286307886495E+03    0.33122E-03   -0.65513E-04 31680   0.794E-02    0.247E-01
DAV:  34    -0.286308189436E+03   -0.30294E-03   -0.21771E-04 26736   0.540E-02    0.254E-01
DAV:  35    -0.286308238435E+03   -0.48999E-04   -0.36691E-04 30064   0.620E-02    0.153E-01
DAV:  36    -0.286308261419E+03   -0.22985E-04   -0.87377E-05 24080   0.320E-02    0.987E-02
DAV:  37    -0.286308268790E+03   -0.73710E-05   -0.16456E-05 17968   0.152E-02
   4 F= -.28630827E+03 E0= -.28629110E+03  d E =-.104727E+01  mag=    -4.7626
       N       E                     dE             d eps       ncg     rms          rms(c)
DAV:   1    -0.286388119936E+03   -0.79859E-01   -0.42583E+01 24768   0.241E+01    0.313E+00
DAV:   2    -0.287001885445E+03   -0.61377E+00   -0.53077E+00 30904   0.593E+00    0.161E+01
DAV:   3    -0.286775550796E+03    0.22633E+00   -0.23947E-01 35200   0.251E+00    0.126E+01
DAV:   4    -0.286641779868E+03    0.13377E+00   -0.16730E+00 34096   0.168E+00    0.107E+01
DAV:   5    -0.286559675964E+03    0.82104E-01   -0.51723E-01 31968   0.990E-01    0.355E+00
DAV:   6    -0.286593301869E+03   -0.33626E-01   -0.46452E-02 33152   0.726E-01    0.367E+00
DAV:   7    -0.286600926888E+03   -0.76250E-02   -0.26509E-02 27040   0.478E-01    0.522E+00
DAV:   8    -0.286597691562E+03    0.32353E-02   -0.73142E-03 30256   0.224E-01    0.549E+00
DAV:   9    -0.286611809091E+03   -0.14118E-01   -0.19996E-01 33968   0.754E-01    0.896E+00
DAV:  10    -0.286565920863E+03    0.45888E-01   -0.88904E-02 29744   0.723E-01    0.589E+00
DAV:  11    -0.286573885296E+03   -0.79644E-02   -0.11257E-02 26280   0.372E-01    0.601E+00
DAV:  12    -0.286573006833E+03    0.87846E-03   -0.25703E-02 31440   0.336E-01    0.727E+00
DAV:  13    -0.286559018334E+03    0.13988E-01   -0.13577E-02 30960   0.235E-01    0.691E+00
DAV:  14    -0.286552198574E+03    0.68198E-02   -0.55881E-02 36720   0.669E-01    0.374E+00
DAV:  15    -0.286603830501E+03   -0.51632E-01   -0.27533E-02 25232   0.627E-01    0.423E+00
DAV:  16    -0.286600307544E+03    0.35230E-02   -0.41243E-03 26672   0.285E-01    0.422E+00
DAV:  17    -0.286597676942E+03    0.26306E-02   -0.44507E-04 31936   0.719E-02    0.426E+00
DAV:  18    -0.286595381562E+03    0.22954E-02   -0.95531E-04 33192   0.608E-02    0.417E+00
DAV:  19    -0.286596734187E+03   -0.13526E-02   -0.30199E-04 28456   0.565E-02    0.420E+00
DAV:  20    -0.286593820111E+03    0.29141E-02   -0.65737E-03 31520   0.232E-01    0.367E+00
DAV:  21    -0.286586192941E+03    0.76272E-02   -0.14643E-02 32216   0.314E-01    0.198E+00
DAV:  22    -0.286594687464E+03   -0.84945E-02   -0.16129E-02 29888   0.280E-01    0.133E+00
DAV:  23    -0.286599962321E+03   -0.52749E-02   -0.82236E-03 28624   0.275E-01    0.162E+00
DAV:  24    -0.286598168119E+03    0.17942E-02   -0.96646E-04 27984   0.128E-01    0.173E+00
DAV:  25    -0.286597613991E+03    0.55413E-03   -0.66962E-04 31912   0.830E-02    0.148E+00
DAV:  26    -0.286599602545E+03   -0.19886E-02   -0.76300E-03 32160   0.258E-01    0.973E-01
DAV:  27    -0.286599865310E+03   -0.26276E-03   -0.21227E-03 29360   0.138E-01    0.537E-01
DAV:  28    -0.286600582456E+03   -0.71715E-03   -0.12196E-03 32128   0.946E-02    0.370E-01
DAV:  29    -0.286600780884E+03   -0.19843E-03   -0.37889E-04 29648   0.754E-02    0.380E-01
DAV:  30    -0.286600800231E+03   -0.19347E-04   -0.42576E-04 31632   0.771E-02    0.318E-01
DAV:  31    -0.286600931340E+03   -0.13111E-03   -0.19640E-04 30000   0.506E-02    0.336E-01
DAV:  32    -0.286600891219E+03    0.40121E-04   -0.14185E-04 24144   0.409E-02    0.431E-01
DAV:  33    -0.286600711465E+03    0.17975E-03   -0.25122E-04 26288   0.488E-02    0.570E-01
DAV:  34    -0.286600537810E+03    0.17365E-03   -0.48312E-05 20432   0.236E-02    0.595E-01
DAV:  35    -0.286600600071E+03   -0.62261E-04   -0.15483E-05 18144   0.183E-02    0.621E-01
DAV:  36    -0.286600612899E+03   -0.12827E-04   -0.13836E-04 26464   0.431E-02    0.407E-01
DAV:  37    -0.286600878771E+03   -0.26587E-03   -0.21101E-04 27136   0.476E-02    0.210E-01
DAV:  38    -0.286601024183E+03   -0.14541E-03   -0.13645E-04 25200   0.392E-02    0.159E-01
DAV:  39    -0.286601044533E+03   -0.20350E-04   -0.59217E-05 22344   0.290E-02    0.742E-02
DAV:  40    -0.286601064298E+03   -0.19765E-04   -0.21709E-05 18456   0.188E-02    0.708E-02
DAV:  41    -0.286601066169E+03   -0.18714E-05   -0.14773E-05 15432   0.129E-02
   5 F= -.28660107E+03 E0= -.28658380E+03  d E =-.292797E+00  mag=    -4.7058
       N       E                     dE             d eps       ncg     rms          rms(c)
DAV:   1    -0.286581557380E+03    0.19507E-01   -0.34293E+01 25344   0.226E+01    0.226E+00
DAV:   2    -0.286864382182E+03   -0.28282E+00   -0.30141E+00 28576   0.474E+00    0.927E+00
DAV:   3    -0.286740338453E+03    0.12404E+00   -0.83189E-01 35016   0.191E+00    0.733E+00
DAV:   4    -0.286720206776E+03    0.20132E-01   -0.39465E-01 33952   0.963E-01    0.241E+00
DAV:   5    -0.286747983604E+03   -0.27777E-01   -0.62914E-02 33816   0.717E-01    0.487E+00
DAV:   6    -0.286722081684E+03    0.25902E-01   -0.23571E-02 30256   0.501E-01    0.263E+00
DAV:   7    -0.286725514943E+03   -0.34333E-02   -0.50624E-03 28232   0.173E-01    0.237E+00
DAV:   8    -0.286727047325E+03   -0.15324E-02   -0.90433E-03 31880   0.188E-01    0.228E+00
DAV:   9    -0.286729068597E+03   -0.20213E-02   -0.16477E-03 29800   0.756E-02    0.232E+00
DAV:  10    -0.286729787675E+03   -0.71908E-03   -0.94802E-03 32016   0.154E-01    0.211E+00
DAV:  11    -0.286731137182E+03   -0.13495E-02   -0.23915E-02 32912   0.473E-01    0.241E+00
DAV:  12    -0.286740463325E+03   -0.93261E-02   -0.15362E-02 29800   0.439E-01    0.406E+00
DAV:  13    -0.286721049679E+03    0.19414E-01   -0.24101E-02 29928   0.361E-01    0.287E+00
DAV:  14    -0.286722012009E+03   -0.96233E-03   -0.40742E-03 32920   0.211E-01    0.168E+00
DAV:  15    -0.286729054537E+03   -0.70425E-02   -0.44690E-03 29416   0.185E-01    0.164E+00
DAV:  16    -0.286729460291E+03   -0.40575E-03   -0.33484E-03 32640   0.189E-01    0.114E+00
DAV:  17    -0.286731911786E+03   -0.24515E-02   -0.79351E-03 31984   0.235E-01    0.180E+00
DAV:  18    -0.286732540786E+03   -0.62900E-03   -0.21647E-03 25648   0.191E-01    0.199E+00
DAV:  19    -0.286730917918E+03    0.16229E-02   -0.32660E-04 28608   0.731E-02    0.184E+00
DAV:  20    -0.286730593120E+03    0.32480E-03   -0.56116E-04 29104   0.533E-02    0.171E+00
DAV:  21    -0.286730630460E+03   -0.37339E-04   -0.26445E-04 29048   0.548E-02    0.165E+00
DAV:  22    -0.286730880400E+03   -0.24994E-03   -0.44725E-05 23896   0.262E-02    0.163E+00
DAV:  23    -0.286731448614E+03   -0.56821E-03   -0.35101E-04 30144   0.656E-02    0.139E+00
DAV:  24    -0.286733056399E+03   -0.16078E-02   -0.26327E-03 32120   0.190E-01    0.112E+00
DAV:  25    -0.286733058972E+03   -0.25726E-05   -0.11739E-03 33408   0.119E-01    0.871E-01
DAV:  26    -0.286733697552E+03   -0.63858E-03   -0.18714E-04 28928   0.458E-02    0.882E-01
DAV:  27    -0.286733843222E+03   -0.14567E-03   -0.20000E-04 30280   0.530E-02    0.867E-01
DAV:  28    -0.286733669403E+03    0.17382E-03   -0.69613E-04 31968   0.924E-02    0.356E-01
DAV:  29    -0.286734304524E+03   -0.63512E-03   -0.69772E-04 31008   0.921E-02    0.274E-01
DAV:  30    -0.286734505357E+03   -0.20083E-03   -0.18673E-04 28168   0.555E-02    0.212E-01
DAV:  31    -0.286734610201E+03   -0.10484E-03   -0.13887E-04 25232   0.448E-02    0.126E-01
DAV:  32    -0.286734645565E+03   -0.35364E-04   -0.13322E-04 25024   0.395E-02    0.653E-02
DAV:  33    -0.286734660051E+03   -0.14486E-04   -0.43605E-05 20352   0.236E-02    0.564E-02
DAV:  34    -0.286734659184E+03    0.86707E-06   -0.14077E-05 15120   0.149E-02
   6 F= -.28673466E+03 E0= -.28671721E+03  d E =-.133593E+00  mag=    -4.6967
       N       E                     dE             d eps       ncg     rms          rms(c)
DAV:   1    -0.286451037716E+03    0.28362E+00   -0.89682E+01 25056   0.350E+01    0.487E+00
DAV:   2    -0.287683990107E+03   -0.12330E+01   -0.75687E+00 29808   0.778E+00    0.197E+01
DAV:   3    -0.287031139969E+03    0.65285E+00   -0.47962E-01 33384   0.365E+00    0.126E+01
DAV:   4    -0.286932699335E+03    0.98441E-01   -0.32636E+00 33688   0.220E+00    0.122E+01
DAV:   5    -0.286768100376E+03    0.16460E+00   -0.83206E-01 33328   0.144E+00    0.348E+00
DAV:   6    -0.286825749365E+03   -0.57649E-01   -0.31192E-01 33584   0.104E+00    0.500E+00
DAV:   7    -0.286816422498E+03    0.93269E-02   -0.11791E-02 25904   0.466E-01    0.559E+00
DAV:   8    -0.286875468228E+03   -0.59046E-01   -0.56880E-02 34240   0.801E-01    0.129E+01
DAV:   9    -0.286743960559E+03    0.13151E+00   -0.17334E-01 33192   0.108E+00    0.533E+00
DAV:  10    -0.286800700656E+03   -0.56740E-01   -0.20498E-01 30304   0.841E-01    0.487E+00
DAV:  11    -0.286803240520E+03   -0.25399E-02   -0.90949E-03 25160   0.391E-01    0.590E+00
DAV:  12    -0.286784446935E+03    0.18794E-01   -0.67957E-03 29424   0.258E-01    0.600E+00
DAV:  13    -0.286793107923E+03   -0.86610E-02   -0.56346E-02 34488   0.359E-01    0.706E+00
DAV:  14    -0.286788734696E+03    0.43732E-02   -0.11642E-02 30352   0.224E-01    0.668E+00
DAV:  15    -0.286799268197E+03   -0.10534E-01   -0.14693E-03 27464   0.138E-01    0.697E+00
DAV:  16    -0.286789824382E+03    0.94438E-02   -0.87908E-03 33048   0.234E-01    0.653E+00
DAV:  17    -0.286793236578E+03   -0.34122E-02   -0.42183E-03 32472   0.149E-01    0.676E+00
DAV:  18    -0.286792992144E+03    0.24443E-03   -0.36931E-03 32400   0.151E-01    0.691E+00
DAV:  19    -0.286787935353E+03    0.50568E-02   -0.43474E-03 32000   0.174E-01    0.670E+00
DAV:  20    -0.286790060403E+03   -0.21251E-02   -0.13879E-03 31568   0.107E-01    0.672E+00
DAV:  21    -0.286783840985E+03    0.62194E-02   -0.10194E-03 32352   0.974E-02    0.619E+00
DAV:  22    -0.286787814046E+03   -0.39731E-02   -0.13282E-04 25080   0.442E-02    0.608E+00
DAV:  23    -0.286788965380E+03   -0.11513E-02   -0.56277E-04 32576   0.742E-02    0.592E+00
DAV:  24    -0.286790262087E+03   -0.12967E-02   -0.16717E-04 28672   0.394E-02    0.579E+00
DAV:  25    -0.286791566203E+03   -0.13041E-02   -0.16550E-05 17528   0.160E-02    0.577E+00
DAV:  26    -0.286792470985E+03   -0.90478E-03   -0.65192E-05 20504   0.238E-02    0.574E+00
DAV:  27    -0.286792823976E+03   -0.35299E-03   -0.12369E-05 15480   0.133E-02    0.574E+00
DAV:  28    -0.286791328528E+03    0.14954E-02   -0.12830E-04 21024   0.278E-02    0.563E+00
DAV:  29    -0.286788042026E+03    0.32865E-02   -0.15353E-03 32480   0.885E-02    0.533E+00
DAV:  30    -0.286783457855E+03    0.45842E-02   -0.51773E-03 33192   0.183E-01    0.446E+00
DAV:  31    -0.286782604566E+03    0.85329E-03   -0.90486E-03 33208   0.236E-01    0.283E+00
DAV:  32    -0.286790935435E+03   -0.83309E-02   -0.68311E-03 30760   0.242E-01    0.187E+00
DAV:  33    -0.286798596043E+03   -0.76606E-02   -0.18615E-03 27200   0.151E-01    0.146E+00
DAV:  34    -0.286802805607E+03   -0.42096E-02   -0.46689E-04 26704   0.787E-02    0.134E+00
DAV:  35    -0.286803915212E+03   -0.11096E-02   -0.26879E-04 29168   0.496E-02    0.126E+00
DAV:  36    -0.286803381863E+03    0.53335E-03   -0.38916E-03 32608   0.187E-01    0.121E+00
DAV:  37    -0.286802966109E+03    0.41575E-03   -0.14078E-03 33072   0.126E-01    0.115E+00
DAV:  38    -0.286803062737E+03   -0.96628E-04   -0.65829E-04 31080   0.878E-02    0.127E+00
DAV:  39    -0.286802305317E+03    0.75742E-03   -0.42565E-04 31720   0.765E-02    0.127E+00
DAV:  40    -0.286802876335E+03   -0.57102E-03   -0.87087E-05 26104   0.287E-02    0.125E+00
DAV:  41    -0.286802531727E+03    0.34461E-03   -0.59852E-05 22376   0.300E-02    0.124E+00
DAV:  42    -0.286802774083E+03   -0.24236E-03   -0.14685E-05 17568   0.136E-02    0.124E+00
DAV:  43    -0.286802864892E+03   -0.90809E-04   -0.24533E-06 13712   0.644E-03    0.124E+00
DAV:  44    -0.286802988462E+03   -0.12357E-03   -0.58326E-06 13696   0.867E-03    0.123E+00
DAV:  45    -0.286802750163E+03    0.23830E-03   -0.58219E-05 23184   0.278E-02    0.128E+00
DAV:  46    -0.286802050568E+03    0.69959E-03   -0.23421E-04 30968   0.507E-02    0.133E+00
DAV:  47    -0.286802213914E+03   -0.16335E-03   -0.22927E-04 31272   0.424E-02    0.131E+00
DAV:  48    -0.286801102791E+03    0.11111E-02   -0.23898E-04 28544   0.567E-02    0.134E+00
DAV:  49    -0.286802917949E+03   -0.18152E-02   -0.10074E-03 30856   0.115E-01    0.120E+00
DAV:  50    -0.286804804760E+03   -0.18868E-02   -0.32688E-03 31976   0.193E-01    0.917E-01
DAV:  51    -0.286805836366E+03   -0.10316E-02   -0.27338E-03 32296   0.178E-01    0.830E-01
DAV:  52    -0.286805408584E+03    0.42778E-03   -0.18745E-02 33640   0.298E-01    0.178E+00
DAV:  53    -0.286804029999E+03    0.13786E-02   -0.43356E-03 29280   0.200E-01    0.123E+00
DAV:  54    -0.286804096075E+03   -0.66076E-04   -0.89729E-04 30120   0.883E-02    0.117E+00
DAV:  55    -0.286804215720E+03   -0.11964E-03   -0.50601E-04 28712   0.866E-02    0.940E-01
DAV:  56    -0.286803961717E+03    0.25400E-03   -0.11220E-03 32992   0.842E-02    0.827E-01
DAV:  57    -0.286804211420E+03   -0.24970E-03   -0.66278E-04 28376   0.723E-02    0.801E-01
DAV:  58    -0.286804606598E+03   -0.39518E-03   -0.37020E-04 31184   0.620E-02    0.739E-01
DAV:  59    -0.286805081573E+03   -0.47498E-03   -0.26440E-04 29752   0.495E-02    0.711E-01
DAV:  60    -0.286805339315E+03   -0.25774E-03   -0.16709E-04 30480   0.379E-02    0.728E-01
DAV:  61    -0.286805417322E+03   -0.78007E-04   -0.61759E-05 20584   0.227E-02    0.745E-01
DAV:  62    -0.286805484671E+03   -0.67349E-04   -0.17672E-05 17664   0.145E-02    0.764E-01
DAV:  63    -0.286805471951E+03    0.12720E-04   -0.67441E-06 14832   0.110E-02    0.774E-01
DAV:  64    -0.286805469316E+03    0.26357E-05   -0.53304E-06 14856   0.720E-03
   7 F= -.28680547E+03 E0= -.28678601E+03  d E =-.708101E-01  mag=    -4.5864
       N       E                     dE             d eps       ncg     rms          rms(c)
DAV:   1    -0.286838878926E+03   -0.33407E-01   -0.21197E+01 25344   0.170E+01    0.318E+00
DAV:   2    -0.287340906438E+03   -0.50203E+00   -0.24523E+00 31512   0.450E+00    0.149E+01
DAV:   3    -0.287092091503E+03    0.24881E+00   -0.48025E+00 33152   0.251E+00    0.966E+00
DAV:   4    -0.287012985591E+03    0.79106E-01   -0.14000E+00 32968   0.177E+00    0.101E+01
DAV:   5    -0.286905048271E+03    0.10794E+00   -0.33566E-01 32240   0.927E-01    0.411E+00
DAV:   6    -0.286908792341E+03   -0.37441E-02   -0.69600E-02 34640   0.671E-01    0.354E+00
DAV:   7    -0.286914061194E+03   -0.52689E-02   -0.12801E-02 27368   0.489E-01    0.246E+00
DAV:   8    -0.286901338721E+03    0.12722E-01   -0.10388E-02 29792   0.322E-01    0.256E+00
DAV:   9    -0.286913197549E+03   -0.11859E-01   -0.85547E-03 28552   0.288E-01    0.279E+00
DAV:  10    -0.286915635003E+03   -0.24375E-02   -0.48335E-02 31672   0.548E-01    0.292E+00
DAV:  11    -0.286907816338E+03    0.78187E-02   -0.20375E-02 30912   0.367E-01    0.138E+00
DAV:  12    -0.286915058338E+03   -0.72420E-02   -0.42310E-03 25408   0.240E-01    0.176E+00
DAV:  13    -0.286912079649E+03    0.29787E-02   -0.16122E-02 29552   0.296E-01    0.375E+00
DAV:  14    -0.286917751013E+03   -0.56714E-02   -0.87899E-03 29760   0.273E-01    0.634E+00
DAV:  15    -0.286892491689E+03    0.25259E-01   -0.61543E-03 30544   0.316E-01    0.559E+00
DAV:  16    -0.286889185683E+03    0.33060E-02   -0.11567E-03 32440   0.110E-01    0.534E+00
DAV:  17    -0.286888487879E+03    0.69780E-03   -0.26518E-04 31048   0.633E-02    0.497E+00
DAV:  18    -0.286892105135E+03   -0.36173E-02   -0.50898E-04 30824   0.884E-02    0.481E+00
DAV:  19    -0.286891018936E+03    0.10862E-02   -0.34874E-04 28664   0.616E-02    0.472E+00
DAV:  20    -0.286888371087E+03    0.26478E-02   -0.66991E-04 31024   0.941E-02    0.454E+00
DAV:  21    -0.286890095640E+03   -0.17246E-02   -0.24146E-04 28600   0.516E-02    0.453E+00
DAV:  22    -0.286888414002E+03    0.16816E-02   -0.10018E-03 31552   0.114E-01    0.448E+00
DAV:  23    -0.286886356724E+03    0.20573E-02   -0.76776E-03 31656   0.289E-01    0.566E+00
DAV:  24    -0.286886633597E+03   -0.27687E-03   -0.50119E-03 28840   0.143E-01    0.559E+00
DAV:  25    -0.286887228082E+03   -0.59448E-03   -0.26787E-03 27856   0.128E-01    0.428E+00
DAV:  26    -0.286897542905E+03   -0.10315E-01   -0.20481E-03 27072   0.180E-01    0.330E+00
DAV:  27    -0.286902554123E+03   -0.50112E-02   -0.12739E-03 29680   0.128E-01    0.233E+00
DAV:  28    -0.286907217065E+03   -0.46629E-02   -0.46981E-04 28088   0.836E-02    0.226E+00
DAV:  29    -0.286905008091E+03    0.22090E-02   -0.43689E-03 33160   0.212E-01    0.737E-01
DAV:  30    -0.286911963326E+03   -0.69552E-02   -0.27387E-03 27864   0.207E-01    0.791E-01
DAV:  31    -0.286912491425E+03   -0.52810E-03   -0.90739E-04 29256   0.124E-01    0.485E-01
DAV:  32    -0.286912803711E+03   -0.31229E-03   -0.65312E-04 33112   0.818E-02    0.503E-01
DAV:  33    -0.286911987290E+03    0.81642E-03   -0.37224E-04 27840   0.708E-02    0.478E-01
DAV:  34    -0.286910961634E+03    0.10257E-02   -0.33006E-04 27160   0.580E-02    0.503E-01
DAV:  35    -0.286910824487E+03    0.13715E-03   -0.12513E-04 22960   0.279E-02    0.491E-01
DAV:  36    -0.286909461084E+03    0.13634E-02   -0.62715E-04 29520   0.739E-02    0.514E-01
DAV:  37    -0.286910525962E+03   -0.10649E-02   -0.12640E-04 24608   0.440E-02    0.481E-01
DAV:  38    -0.286910782382E+03   -0.25642E-03   -0.61867E-05 22544   0.292E-02    0.461E-01
DAV:  39    -0.286910391423E+03    0.39096E-03   -0.10199E-04 24160   0.281E-02    0.491E-01
DAV:  40    -0.286909618355E+03    0.77307E-03   -0.22662E-04 25792   0.412E-02    0.555E-01
DAV:  41    -0.286910599858E+03   -0.98150E-03   -0.60237E-05 20416   0.324E-02    0.520E-01
DAV:  42    -0.286911537962E+03   -0.93810E-03   -0.31632E-04 26096   0.594E-02    0.398E-01
DAV:  43    -0.286912197198E+03   -0.65924E-03   -0.63510E-04 28640   0.756E-02    0.306E-01
DAV:  44    -0.286912547674E+03   -0.35048E-03   -0.71460E-04 30520   0.701E-02    0.270E-01
DAV:  45    -0.286912731382E+03   -0.18371E-03   -0.21843E-03 29232   0.101E-01    0.284E-01
DAV:  46    -0.286913503055E+03   -0.77167E-03   -0.36559E-03 31248   0.802E-02    0.443E-01
DAV:  47    -0.286912301890E+03    0.12012E-02   -0.11771E-03 25992   0.140E-01    0.638E-01
DAV:  48    -0.286912615487E+03   -0.31360E-03   -0.46606E-05 20368   0.222E-02    0.598E-01
DAV:  49    -0.286913102695E+03   -0.48721E-03   -0.14551E-04 23992   0.275E-02    0.578E-01
DAV:  50    -0.286913926273E+03   -0.82358E-03   -0.51924E-04 27720   0.570E-02    0.522E-01
DAV:  51    -0.286914894006E+03   -0.96773E-03   -0.14368E-03 28648   0.103E-01    0.536E-01
DAV:  52    -0.286915037736E+03   -0.14373E-03   -0.24482E-04 26312   0.536E-02    0.696E-01
DAV:  53    -0.286914326679E+03    0.71106E-03   -0.80102E-05 21552   0.399E-02    0.824E-01
DAV:  54    -0.286913705827E+03    0.62085E-03   -0.22167E-05 19048   0.222E-02    0.869E-01
DAV:  55    -0.286913321073E+03    0.38475E-03   -0.63012E-06 16968   0.123E-02    0.893E-01
DAV:  56    -0.286913236423E+03    0.84650E-04   -0.79015E-07 13288   0.489E-03    0.893E-01
DAV:  57    -0.286913208831E+03    0.27593E-04   -0.25313E-07 12800   0.257E-03    0.894E-01
DAV:  58    -0.286913118296E+03    0.90535E-04   -0.56230E-07 12720   0.332E-03    0.881E-01
DAV:  59    -0.286913535173E+03   -0.41688E-03   -0.16028E-05 17352   0.146E-02    0.864E-01
DAV:  60    -0.286913314787E+03    0.22039E-03   -0.32632E-06 14976   0.797E-03    0.892E-01
DAV:  61    -0.286913146944E+03    0.16784E-03   -0.20235E-06 13344   0.583E-03    0.888E-01
DAV:  62    -0.286913494417E+03   -0.34747E-03   -0.12039E-05 16272   0.131E-02    0.843E-01
DAV:  63    -0.286914246496E+03   -0.75208E-03   -0.11800E-04 24056   0.356E-02    0.746E-01
DAV:  64    -0.286914263247E+03   -0.16752E-04   -0.15603E-05 18376   0.111E-02    0.715E-01
DAV:  65    -0.286914225947E+03    0.37301E-04   -0.23304E-06 13520   0.613E-03    0.709E-01
DAV:  66    -0.286914196719E+03    0.29227E-04   -0.62549E-07 12560   0.338E-03    0.713E-01
DAV:  67    -0.286913738773E+03    0.45795E-03   -0.22498E-05 17864   0.187E-02    0.616E-01
DAV:  68    -0.286913657651E+03    0.81122E-04   -0.35687E-05 18064   0.183E-02    0.583E-01
DAV:  69    -0.286914629539E+03   -0.97189E-03   -0.70655E-05 21752   0.359E-02    0.664E-01
DAV:  70    -0.286914580383E+03    0.49156E-04   -0.14264E-05 16808   0.124E-02    0.713E-01
DAV:  71    -0.286915077335E+03   -0.49695E-03   -0.13242E-04 24488   0.365E-02    0.693E-01
DAV:  72    -0.286914997652E+03    0.79683E-04   -0.38387E-05 19736   0.175E-02    0.611E-01
DAV:  73    -0.286914795398E+03    0.20225E-03   -0.98552E-06 16888   0.134E-02    0.562E-01
DAV:  74    -0.286915048447E+03   -0.25305E-03   -0.86644E-06 16272   0.122E-02    0.533E-01
DAV:  75    -0.286915561495E+03   -0.51305E-03   -0.12231E-04 24280   0.368E-02    0.507E-01
DAV:  76    -0.286915400702E+03    0.16079E-03   -0.12222E-05 18464   0.134E-02    0.396E-01
DAV:  77    -0.286915821259E+03   -0.42056E-03   -0.17789E-04 25336   0.452E-02    0.270E-01
DAV:  78    -0.286915647227E+03    0.17403E-03   -0.53130E-05 21208   0.274E-02    0.156E-01
DAV:  79    -0.286915904948E+03   -0.25772E-03   -0.66221E-05 21640   0.341E-02    0.564E-02
DAV:  80    -0.286915926198E+03   -0.21250E-04   -0.67414E-06 17320   0.110E-02    0.253E-02
DAV:  81    -0.286915931577E+03   -0.53799E-05   -0.13141E-06 13016   0.578E-03
   8 F= -.28691593E+03 E0= -.28689819E+03  d E =-.110462E+00  mag=    -4.6161
       N       E                     dE             d eps       ncg     rms          rms(c)
DAV:   1    -0.286918397960E+03   -0.24718E-02   -0.89752E+00 25344   0.114E+01    0.128E+00
DAV:   2    -0.286992525997E+03   -0.74128E-01   -0.52030E-01 27848   0.227E+00    0.516E+00
DAV:   3    -0.286941670009E+03    0.50856E-01   -0.17919E-01 34320   0.101E+00    0.159E+00
DAV:   4    -0.286966001452E+03   -0.24331E-01   -0.73929E-02 34304   0.513E-01    0.421E+00
DAV:   5    -0.286948976481E+03    0.17025E-01   -0.38781E-02 31512   0.529E-01    0.261E+00
DAV:   6    -0.286951775929E+03   -0.27994E-02   -0.21807E-02 26968   0.353E-01    0.148E+00
DAV:   7    -0.286952248593E+03   -0.47266E-03   -0.88898E-04 26488   0.117E-01    0.147E+00
DAV:   8    -0.286951985285E+03    0.26331E-03   -0.11053E-04 26664   0.380E-02    0.147E+00
DAV:   9    -0.286951889503E+03    0.95782E-04   -0.11425E-05 18248   0.147E-02    0.147E+00
DAV:  10    -0.286951746519E+03    0.14298E-03   -0.17619E-03 31928   0.878E-02    0.129E+00
DAV:  11    -0.286952216126E+03   -0.46961E-03   -0.13114E-02 32656   0.229E-01    0.163E+00
DAV:  12    -0.286949490074E+03    0.27261E-02   -0.10532E-02 29896   0.208E-01    0.942E-01
DAV:  13    -0.286953291759E+03   -0.38017E-02   -0.87420E-03 30032   0.168E-01    0.140E+00
DAV:  14    -0.286953362268E+03   -0.70509E-04   -0.24486E-03 26272   0.153E-01    0.160E+00
DAV:  15    -0.286951866894E+03    0.14954E-02   -0.48378E-04 30272   0.666E-02    0.145E+00
DAV:  16    -0.286951793531E+03    0.73363E-04   -0.23836E-04 29360   0.397E-02    0.135E+00
DAV:  17    -0.286951821847E+03   -0.28316E-04   -0.44500E-03 31752   0.135E-01    0.587E-01
DAV:  18    -0.286953344256E+03   -0.15224E-02   -0.15668E-03 29392   0.995E-02    0.249E-01
DAV:  19    -0.286954087259E+03   -0.74300E-03   -0.26433E-04 26344   0.554E-02    0.277E-01
DAV:  20    -0.286954144653E+03   -0.57394E-04   -0.12794E-04 26704   0.426E-02    0.427E-01
DAV:  21    -0.286954132153E+03    0.12500E-04   -0.40597E-05 20920   0.292E-02    0.494E-01
DAV:  22    -0.286954061045E+03    0.71108E-04   -0.12518E-05 17104   0.165E-02    0.546E-01
DAV:  23    -0.286953948243E+03    0.11280E-03   -0.63369E-06 15072   0.116E-02    0.500E-01
DAV:  24    -0.286953918735E+03    0.29509E-04   -0.35030E-05 19456   0.203E-02    0.411E-01
DAV:  25    -0.286954013280E+03   -0.94545E-04   -0.10903E-05 16456   0.132E-02    0.385E-01
DAV:  26    -0.286954051585E+03   -0.38306E-04   -0.13228E-05 13736   0.113E-02    0.384E-01
DAV:  27    -0.286954065149E+03   -0.13564E-04   -0.19936E-06 13232   0.722E-03    0.373E-01
DAV:  28    -0.286954106442E+03   -0.41292E-04   -0.27114E-04 31288   0.645E-02    0.238E-01
DAV:  29    -0.286954116716E+03   -0.10275E-04   -0.80370E-04 30296   0.985E-02    0.396E-01
DAV:  30    -0.286954008398E+03    0.10832E-03   -0.56123E-04 31384   0.723E-02    0.425E-01
DAV:  31    -0.286954071860E+03   -0.63462E-04   -0.17623E-04 28504   0.395E-02    0.480E-01
DAV:  32    -0.286954040475E+03    0.31385E-04   -0.37836E-05 20200   0.243E-02    0.490E-01
DAV:  33    -0.286953999529E+03    0.40946E-04   -0.11084E-04 22176   0.272E-02    0.419E-01
DAV:  34    -0.286954078384E+03   -0.78855E-04   -0.57128E-05 20768   0.272E-02    0.380E-01
DAV:  35    -0.286954100950E+03   -0.22566E-04   -0.11577E-04 19152   0.236E-02    0.300E-01
DAV:  36    -0.286954146365E+03   -0.45415E-04   -0.74073E-05 21392   0.216E-02    0.218E-01
DAV:  37    -0.286954186913E+03   -0.40548E-04   -0.15918E-05 15544   0.131E-02    0.166E-01
DAV:  38    -0.286954212161E+03   -0.25249E-04   -0.82620E-06 13384   0.101E-02    0.115E-01
DAV:  39    -0.286954234480E+03   -0.22319E-04   -0.17453E-05 15104   0.116E-02    0.655E-02
DAV:  40    -0.286954246216E+03   -0.11736E-04   -0.58295E-06 13904   0.941E-03    0.233E-02
DAV:  41    -0.286954252327E+03   -0.61106E-05   -0.21628E-06 12552   0.630E-03
   9 F= -.28695425E+03 E0= -.28693644E+03  d E =-.383207E-01  mag=    -4.6485
       N       E                     dE             d eps       ncg     rms          rms(c)
DAV:   1    -0.286925755536E+03    0.28491E-01   -0.13555E+01 25344   0.138E+01    0.128E+00
DAV:   2    -0.287040279393E+03   -0.11452E+00   -0.11109E+00 27904   0.278E+00    0.616E+00
DAV:   3    -0.286968829819E+03    0.71450E-01   -0.29156E-01 33704   0.119E+00    0.263E+00
DAV:   4    -0.286979210920E+03   -0.10381E-01   -0.95879E-02 35056   0.505E-01    0.176E+00
DAV:   5    -0.286981623678E+03   -0.24128E-02   -0.23623E-02 30536   0.347E-01    0.145E+00
DAV:   6    -0.286983499929E+03   -0.18763E-02   -0.45027E-03 31960   0.189E-01    0.323E+00
DAV:   7    -0.286976070364E+03    0.74296E-02   -0.21909E-03 25800   0.172E-01    0.345E+00
DAV:   8    -0.286973859651E+03    0.22107E-02   -0.10756E-03 28232   0.104E-01    0.379E+00
DAV:   9    -0.286967824262E+03    0.60354E-02   -0.28322E-03 30056   0.171E-01    0.358E+00
DAV:  10    -0.286973981855E+03   -0.61576E-02   -0.77498E-03 30616   0.311E-01    0.500E+00
DAV:  11    -0.286953197900E+03    0.20784E-01   -0.12762E-02 32640   0.251E-01    0.228E+00
DAV:  12    -0.286971402372E+03   -0.18204E-01   -0.58737E-03 25848   0.225E-01    0.192E+00
DAV:  13    -0.286974294653E+03   -0.28923E-02   -0.21935E-03 30832   0.112E-01    0.135E+00
DAV:  14    -0.286976103744E+03   -0.18091E-02   -0.78869E-04 29368   0.872E-02    0.111E+00
DAV:  15    -0.286977425259E+03   -0.13215E-02   -0.79839E-04 32176   0.983E-02    0.123E+00
DAV:  16    -0.286978760828E+03   -0.13356E-02   -0.37835E-03 30384   0.218E-01    0.134E+00
DAV:  17    -0.286977983633E+03    0.77720E-03   -0.16091E-03 32776   0.120E-01    0.864E-01
DAV:  18    -0.286978788835E+03   -0.80520E-03   -0.96908E-04 31600   0.986E-02    0.437E-01
DAV:  19    -0.286979483768E+03   -0.69493E-03   -0.41037E-04 30168   0.760E-02    0.312E-01
DAV:  20    -0.286979563387E+03   -0.79619E-04   -0.75969E-04 31568   0.104E-01    0.281E-01
DAV:  21    -0.286979581240E+03   -0.17852E-04   -0.40126E-04 32936   0.628E-02    0.337E-01
DAV:  22    -0.286979677308E+03   -0.96069E-04   -0.19796E-04 29544   0.537E-02    0.421E-01
DAV:  23    -0.286979538919E+03    0.13839E-03   -0.74746E-05 24648   0.312E-02    0.309E-01
DAV:  24    -0.286979594630E+03   -0.55711E-04   -0.10442E-05 15944   0.124E-02    0.299E-01
DAV:  25    -0.286979599912E+03   -0.52823E-05   -0.53345E-06 13608   0.108E-02
  10 F= -.28697960E+03 E0= -.28696188E+03  d E =-.253476E-01  mag=    -4.6466
       N       E                     dE             d eps       ncg     rms          rms(c)
DAV:   1    -0.286856854393E+03    0.12274E+00   -0.37331E+01 25344   0.231E+01    0.218E+00
DAV:   2    -0.287153426306E+03   -0.29657E+00   -0.25376E+00 28216   0.442E+00    0.948E+00
DAV:   3    -0.287034214438E+03    0.11921E+00   -0.16189E-01 33216   0.171E+00    0.717E+00
DAV:   4    -0.286988762384E+03    0.45452E-01   -0.26246E-01 33544   0.107E+00    0.343E+00
DAV:   5    -0.287008646836E+03   -0.19884E-01   -0.16005E-01 33144   0.763E-01    0.428E+00
DAV:   6    -0.286994611399E+03    0.14035E-01   -0.10231E-01 34152   0.619E-01    0.245E+00
DAV:   7    -0.286997272558E+03   -0.26612E-02   -0.74822E-03 25840   0.244E-01    0.285E+00
DAV:   8    -0.287005775223E+03   -0.85027E-02   -0.31346E-02 34520   0.318E-01    0.363E+00
DAV:   9    -0.286995718344E+03    0.10057E-01   -0.10123E-01 33112   0.481E-01    0.385E+00
DAV:  10    -0.286996832775E+03   -0.11144E-02   -0.60834E-03 25120   0.321E-01    0.388E+00
DAV:  11    -0.286991725024E+03    0.51078E-02   -0.17416E-03 28176   0.146E-01    0.417E+00
DAV:  12    -0.286989229934E+03    0.24951E-02   -0.15196E-04 27576   0.483E-02    0.423E+00
DAV:  13    -0.286988973913E+03    0.25602E-03   -0.30330E-03 33184   0.145E-01    0.449E+00
DAV:  14    -0.286989974228E+03   -0.10003E-02   -0.29044E-03 31824   0.136E-01    0.529E+00
DAV:  15    -0.286982392217E+03    0.75820E-02   -0.31857E-03 31208   0.181E-01    0.449E+00
DAV:  16    -0.286978365161E+03    0.40271E-02   -0.11522E-02 34368   0.374E-01    0.160E+00
DAV:  17    -0.286994899089E+03   -0.16534E-01   -0.20931E-02 31480   0.433E-01    0.147E+00
DAV:  18    -0.287003561549E+03   -0.86625E-02   -0.19481E-02 28160   0.287E-01    0.320E+00
DAV:  19    -0.286997726175E+03    0.58354E-02   -0.40649E-03 25504   0.213E-01    0.342E+00
DAV:  20    -0.286993484138E+03    0.42420E-02   -0.49895E-04 27480   0.878E-02    0.346E+00
DAV:  21    -0.286991824295E+03    0.16598E-02   -0.45360E-05 25088   0.291E-02    0.344E+00
DAV:  22    -0.286990275374E+03    0.15489E-02   -0.97922E-04 32576   0.106E-01    0.306E+00
DAV:  23    -0.286990543198E+03   -0.26782E-03   -0.62274E-03 32984   0.286E-01    0.115E+00
DAV:  24    -0.286997740183E+03   -0.71970E-02   -0.35320E-03 26152   0.190E-01    0.444E-01
DAV:  25    -0.286999916775E+03   -0.21766E-02   -0.11855E-03 31144   0.142E-01    0.542E-01
DAV:  26    -0.287000053871E+03   -0.13710E-03   -0.42039E-04 31992   0.692E-02    0.619E-01
DAV:  27    -0.286999938555E+03    0.11532E-03   -0.10441E-04 24336   0.335E-02    0.608E-01
DAV:  28    -0.286999837065E+03    0.10149E-03   -0.85037E-05 26664   0.336E-02    0.503E-01
DAV:  29    -0.287000052829E+03   -0.21576E-03   -0.27766E-04 31672   0.560E-02    0.679E-01
DAV:  30    -0.286999707833E+03    0.34500E-03   -0.89080E-05 27112   0.403E-02    0.331E-01
DAV:  31    -0.287000015100E+03   -0.30727E-03   -0.53217E-05 22000   0.295E-02    0.263E-01
DAV:  32    -0.287000125908E+03   -0.11081E-03   -0.20144E-05 18544   0.196E-02    0.316E-01
DAV:  33    -0.287000135352E+03   -0.94445E-05   -0.76081E-05 20144   0.219E-02
  11 F= -.28700014E+03 E0= -.28698269E+03  d E =-.205354E-01  mag=    -4.6031
       N       E                     dE             d eps       ncg     rms          rms(c)
DAV:   1    -0.286943647321E+03    0.56479E-01   -0.24562E+01 25344   0.180E+01    0.154E+00
DAV:   2    -0.287048567435E+03   -0.10492E+00   -0.11044E+00 25392   0.319E+00    0.377E+00
DAV:   3    -0.287039790779E+03    0.87767E-02   -0.23836E-01 35864   0.103E+00    0.412E+00
DAV:   4    -0.287048763147E+03   -0.89724E-02   -0.37176E-02 33968   0.678E-01    0.592E+00
DAV:   5    -0.287016710068E+03    0.32053E-01   -0.34628E-02 31968   0.605E-01    0.158E+00
DAV:   6    -0.287030916098E+03   -0.14206E-01   -0.67138E-03 26304   0.265E-01    0.123E+00
DAV:   7    -0.287032070247E+03   -0.11541E-02   -0.52049E-04 29432   0.103E-01    0.125E+00
DAV:   8    -0.287030262456E+03    0.18078E-02   -0.21325E-03 31640   0.128E-01    0.110E+00
DAV:   9    -0.287031107892E+03   -0.84544E-03   -0.19347E-04 25704   0.545E-02    0.109E+00
DAV:  10    -0.287030978303E+03    0.12959E-03   -0.37367E-04 31864   0.581E-02    0.107E+00
DAV:  11    -0.287031055725E+03   -0.77421E-04   -0.28877E-03 32064   0.177E-01    0.905E-01
DAV:  12    -0.287030726351E+03    0.32937E-03   -0.15714E-02 34072   0.343E-01    0.118E+00
DAV:  13    -0.287031324486E+03   -0.59813E-03   -0.97432E-03 29840   0.183E-01    0.118E+00
DAV:  14    -0.287030843192E+03    0.48129E-03   -0.10757E-03 29664   0.937E-02    0.121E+00
DAV:  15    -0.287030219916E+03    0.62328E-03   -0.29445E-04 26568   0.537E-02    0.128E+00
DAV:  16    -0.287029817654E+03    0.40226E-03   -0.21572E-04 25280   0.383E-02    0.122E+00
DAV:  17    -0.287029744712E+03    0.72942E-04   -0.16209E-03 30640   0.126E-01    0.100E+00
DAV:  18    -0.287030504813E+03   -0.76010E-03   -0.16735E-03 32560   0.154E-01    0.687E-01
DAV:  19    -0.287030990105E+03   -0.48529E-03   -0.86235E-04 34072   0.969E-02    0.473E-01
DAV:  20    -0.287031257329E+03   -0.26722E-03   -0.10481E-04 25248   0.417E-02    0.465E-01
DAV:  21    -0.287031284714E+03   -0.27385E-04   -0.24398E-04 30832   0.505E-02    0.390E-01
DAV:  22    -0.287031593932E+03   -0.30922E-03   -0.58977E-04 29400   0.708E-02    0.456E-01
DAV:  23    -0.287031644524E+03   -0.50593E-04   -0.15928E-04 27784   0.476E-02    0.513E-01
DAV:  24    -0.287031575061E+03    0.69463E-04   -0.63733E-05 21456   0.261E-02    0.542E-01
DAV:  25    -0.287031554739E+03    0.20322E-04   -0.20275E-04 26888   0.401E-02    0.701E-01
DAV:  26    -0.287031306295E+03    0.24844E-03   -0.69414E-05 23352   0.318E-02    0.821E-01
DAV:  27    -0.287031094832E+03    0.21146E-03   -0.29024E-05 18664   0.188E-02    0.939E-01
DAV:  28    -0.287030893663E+03    0.20117E-03   -0.13221E-05 16136   0.138E-02    0.994E-01
DAV:  29    -0.287030785880E+03    0.10778E-03   -0.34039E-06 13640   0.977E-03    0.100E+00
DAV:  30    -0.287030687594E+03    0.98285E-04   -0.22570E-05 18544   0.192E-02    0.111E+00
DAV:  31    -0.287030626660E+03    0.60934E-04   -0.70730E-05 20192   0.339E-02    0.981E-01
DAV:  32    -0.287030828695E+03   -0.20203E-03   -0.22775E-04 26384   0.429E-02    0.762E-01
DAV:  33    -0.287031195476E+03   -0.36678E-03   -0.22767E-04 25688   0.373E-02    0.534E-01
DAV:  34    -0.287031509766E+03   -0.31429E-03   -0.22895E-04 25144   0.376E-02    0.243E-01
DAV:  35    -0.287031754889E+03   -0.24512E-03   -0.47865E-05 19704   0.299E-02    0.187E-01
DAV:  36    -0.287031812105E+03   -0.57216E-04   -0.10375E-05 17384   0.165E-02    0.240E-01
DAV:  37    -0.287031822174E+03   -0.10069E-04   -0.10662E-05 14808   0.123E-02    0.230E-01
DAV:  38    -0.287031833866E+03   -0.11692E-04   -0.83846E-05 21880   0.293E-02    0.105E-01
DAV:  39    -0.287031867819E+03   -0.33953E-04   -0.26359E-05 18168   0.161E-02    0.451E-02
DAV:  40    -0.287031880788E+03   -0.12969E-04   -0.45465E-06 13792   0.984E-03    0.427E-02
DAV:  41    -0.287031881078E+03   -0.28964E-06   -0.19475E-06 12600   0.656E-03
  12 F= -.28703188E+03 E0= -.28701446E+03  d E =-.317457E-01  mag=    -4.6279
       N       E                     dE             d eps       ncg     rms          rms(c)
DAV:   1    -0.286996657586E+03    0.35223E-01   -0.11775E+01 25344   0.125E+01    0.152E+00
DAV:   2    -0.287100684914E+03   -0.10403E+00   -0.80556E-01 29168   0.240E+00    0.894E+00
DAV:   3    -0.286999168019E+03    0.10152E+00   -0.51350E-01 33088   0.109E+00    0.150E+00
DAV:   4    -0.287069672557E+03   -0.70505E-01   -0.61835E-02 32800   0.682E-01    0.713E+00
DAV:   5    -0.287012780987E+03    0.56892E-01   -0.22785E-02 31216   0.673E-01    0.146E+00
DAV:   6    -0.287035569672E+03   -0.22789E-01   -0.15492E-02 27200   0.325E-01    0.132E+00
DAV:   7    -0.287036788187E+03   -0.12185E-02   -0.13604E-03 26984   0.157E-01    0.153E+00
DAV:   8    -0.287034452213E+03    0.23360E-02   -0.13328E-03 31600   0.112E-01    0.120E+00
DAV:   9    -0.287034698088E+03   -0.24588E-03   -0.21157E-03 30976   0.141E-01    0.113E+00
DAV:  10    -0.287035456014E+03   -0.75793E-03   -0.56875E-03 31944   0.162E-01    0.164E+00
DAV:  11    -0.287035910228E+03   -0.45421E-03   -0.11762E-02 32560   0.221E-01    0.235E+00
DAV:  12    -0.287032600231E+03    0.33100E-02   -0.44225E-03 30280   0.179E-01    0.162E+00
DAV:  13    -0.287033969548E+03   -0.13693E-02   -0.77470E-04 31680   0.104E-01    0.110E+00
DAV:  14    -0.287035284923E+03   -0.13154E-02   -0.29894E-04 26568   0.632E-02    0.960E-01
DAV:  15    -0.287035532228E+03   -0.24731E-03   -0.14202E-03 31736   0.990E-02    0.542E-01
DAV:  16    -0.287036140345E+03   -0.60812E-03   -0.25697E-03 33120   0.129E-01    0.590E-01
DAV:  17    -0.287036378118E+03   -0.23777E-03   -0.15870E-03 26736   0.958E-02    0.504E-01
DAV:  18    -0.287036335290E+03    0.42829E-04   -0.15505E-04 24680   0.419E-02    0.517E-01
DAV:  19    -0.287035674862E+03    0.66043E-03   -0.63088E-04 29152   0.806E-02    0.457E-01
DAV:  20    -0.287035647692E+03    0.27170E-04   -0.35306E-04 32080   0.505E-02    0.408E-01
DAV:  21    -0.287035822317E+03   -0.17463E-03   -0.12929E-04 23344   0.340E-02    0.431E-01
DAV:  22    -0.287035856418E+03   -0.34101E-04   -0.19427E-05 17320   0.147E-02    0.435E-01
DAV:  23    -0.287035904193E+03   -0.47775E-04   -0.37083E-05 15224   0.127E-02    0.432E-01
DAV:  24    -0.287035935820E+03   -0.31628E-04   -0.22273E-05 17320   0.131E-02    0.420E-01
DAV:  25    -0.287035924194E+03    0.11626E-04   -0.40063E-06 13936   0.889E-03    0.422E-01
DAV:  26    -0.287035916707E+03    0.74867E-05   -0.30252E-06 13456   0.686E-03
  13 F= -.28703592E+03 E0= -.28701786E+03  d E =-.403563E-02  mag=    -4.6465
       N       E                     dE             d eps       ncg     rms          rms(c)
DAV:   1    -0.287047762738E+03   -0.11839E-01   -0.12673E+00 25344   0.360E+00    0.850E-01
DAV:   2    -0.287069150976E+03   -0.21388E-01   -0.12109E-01 30136   0.833E-01    0.463E+00
DAV:   3    -0.287042363737E+03    0.26787E-01   -0.72992E-02 32224   0.509E-01    0.119E+00
DAV:   4    -0.287052688255E+03   -0.10325E-01   -0.40420E-03 25152   0.231E-01    0.135E+00
DAV:   5    -0.287051585343E+03    0.11029E-02   -0.47692E-04 26872   0.101E-01    0.149E+00
DAV:   6    -0.287050431532E+03    0.11538E-02   -0.10414E-04 24808   0.375E-02    0.150E+00
DAV:   7    -0.287049962128E+03    0.46940E-03   -0.10165E-04 21296   0.258E-02    0.136E+00
DAV:   8    -0.287049882241E+03    0.79886E-04   -0.17473E-03 27328   0.726E-02    0.146E+00
DAV:   9    -0.287049271311E+03    0.61093E-03   -0.75422E-03 28792   0.128E-01    0.166E+00
DAV:  10    -0.287047250245E+03    0.20211E-02   -0.71669E-03 32544   0.178E-01    0.931E-01
DAV:  11    -0.287051427505E+03   -0.41773E-02   -0.34359E-03 31864   0.196E-01    0.218E+00
DAV:  12    -0.287046416327E+03    0.50112E-02   -0.96346E-03 29728   0.296E-01    0.166E+00
DAV:  13    -0.287049279312E+03   -0.28630E-02   -0.86248E-03 32368   0.225E-01    0.851E-01
DAV:  14    -0.287051627723E+03   -0.23484E-02   -0.39056E-03 29064   0.136E-01    0.107E+00
DAV:  15    -0.287051138778E+03    0.48895E-03   -0.37475E-04 26008   0.646E-02    0.133E+00
DAV:  16    -0.287050864359E+03    0.27442E-03   -0.11837E-03 31832   0.109E-01    0.134E+00
DAV:  17    -0.287050477386E+03    0.38697E-03   -0.13385E-03 31552   0.135E-01    0.736E-01
DAV:  18    -0.287051569735E+03   -0.10923E-02   -0.10751E-03 32208   0.110E-01    0.178E-01
DAV:  19    -0.287052383053E+03   -0.81332E-03   -0.27849E-04 26848   0.675E-02    0.458E-01
DAV:  20    -0.287052229536E+03    0.15352E-03   -0.22504E-04 25400   0.585E-02    0.338E-01
DAV:  21    -0.287052244909E+03   -0.15373E-04   -0.75690E-05 26272   0.302E-02    0.310E-01
DAV:  22    -0.287052235437E+03    0.94716E-05   -0.33129E-05 19712   0.231E-02
  14 F= -.28705224E+03 E0= -.28703430E+03  d E =-.163187E-01  mag=    -4.6328
       N       E                     dE             d eps       ncg     rms          rms(c)
DAV:   1    -0.287048027156E+03    0.42178E-02   -0.38045E+00 25344   0.670E+00    0.621E-01
DAV:   2    -0.287083066510E+03   -0.35039E-01   -0.14157E-01 29848   0.126E+00    0.423E+00
DAV:   3    -0.287050665364E+03    0.32401E-01   -0.52899E-02 32304   0.603E-01    0.153E+00
DAV:   4    -0.287057133321E+03   -0.64680E-02   -0.14452E-02 32176   0.250E-01    0.507E-01
DAV:   5    -0.287060845619E+03   -0.37123E-02   -0.14269E-02 32816   0.231E-01    0.135E+00
DAV:   6    -0.287058279366E+03    0.25663E-02   -0.71533E-03 32688   0.171E-01    0.466E-01
DAV:   7    -0.287058919307E+03   -0.63994E-03   -0.26560E-04 26168   0.508E-02    0.428E-01
DAV:   8    -0.287058800485E+03    0.11882E-03   -0.34879E-04 29720   0.476E-02    0.405E-01
DAV:   9    -0.287058620452E+03    0.18003E-03   -0.80831E-04 27952   0.565E-02    0.358E-01
DAV:  10    -0.287058980120E+03   -0.35967E-03   -0.70317E-04 29624   0.520E-02    0.659E-01
DAV:  11    -0.287058707279E+03    0.27284E-03   -0.54636E-04 29728   0.796E-02    0.420E-01
DAV:  12    -0.287058792046E+03   -0.84767E-04   -0.64572E-04 29328   0.790E-02    0.222E-01
DAV:  13    -0.287058958918E+03   -0.16687E-03   -0.57113E-04 32352   0.672E-02    0.520E-01
DAV:  14    -0.287058855228E+03    0.10369E-03   -0.20474E-03 30312   0.694E-02    0.340E-01
DAV:  15    -0.287059019266E+03   -0.16404E-03   -0.32672E-04 28360   0.532E-02    0.383E-01
DAV:  16    -0.287058971684E+03    0.47582E-04   -0.57842E-05 21768   0.331E-02    0.417E-01
DAV:  17    -0.287058890595E+03    0.81090E-04   -0.65133E-05 21008   0.259E-02    0.536E-01
DAV:  18    -0.287058801548E+03    0.89047E-04   -0.28523E-05 17608   0.190E-02    0.590E-01
DAV:  19    -0.287058740682E+03    0.60866E-04   -0.74034E-06 14160   0.112E-02    0.641E-01
DAV:  20    -0.287058732375E+03    0.83067E-05   -0.28628E-05 18576   0.206E-02
  15 F= -.28705873E+03 E0= -.28704064E+03  d E =-.649694E-02  mag=    -4.6317
       N       E                     dE             d eps       ncg     rms          rms(c)
DAV:   1    -0.286861488904E+03    0.19725E+00   -0.69939E+01 25344   0.294E+01    0.336E+00
DAV:   2    -0.287422178763E+03   -0.56069E+00   -0.31319E+00 32128   0.631E+00    0.103E+01
DAV:   3    -0.287313488247E+03    0.10869E+00   -0.19267E+00 33416   0.317E+00    0.111E+01
DAV:   4    -0.287134216129E+03    0.17927E+00   -0.13000E+00 33144   0.172E+00    0.869E+00
DAV:   5    -0.287087651538E+03    0.46565E-01   -0.15824E-01 31120   0.727E-01    0.483E+00
DAV:   6    -0.287056296758E+03    0.31355E-01   -0.74408E-02 37176   0.832E-01    0.200E+00
DAV:   7    -0.287095066536E+03   -0.38770E-01   -0.33845E-02 32112   0.668E-01    0.396E+00
DAV:   8    -0.287083079867E+03    0.11987E-01   -0.16325E-02 29192   0.349E-01    0.420E+00
DAV:   9    -0.287073673377E+03    0.94065E-02   -0.31113E-03 29376   0.138E-01    0.419E+00
DAV:  10    -0.287067279352E+03    0.63940E-02   -0.18532E-02 31672   0.231E-01    0.427E+00
DAV:  11    -0.287056008569E+03    0.11271E-01   -0.12088E-02 33896   0.259E-01    0.249E+00
DAV:  12    -0.287064749126E+03   -0.87406E-02   -0.52968E-03 29280   0.214E-01    0.137E+00
DAV:  13    -0.287071050491E+03   -0.63014E-02   -0.11803E-02 30112   0.232E-01    0.101E+00
DAV:  14    -0.287077365300E+03   -0.63148E-02   -0.21915E-02 32808   0.252E-01    0.228E+00
DAV:  15    -0.287076528542E+03    0.83676E-03   -0.25396E-03 24552   0.220E-01    0.288E+00
DAV:  16    -0.287065582807E+03    0.10946E-01   -0.13050E-02 32160   0.253E-01    0.169E+00
DAV:  17    -0.287073350684E+03   -0.77679E-02   -0.36864E-03 31184   0.142E-01    0.283E+00
DAV:  18    -0.287070947256E+03    0.24034E-02   -0.12911E-03 26856   0.104E-01    0.293E+00
DAV:  19    -0.287078034474E+03   -0.70872E-02   -0.16631E-03 33216   0.181E-01    0.521E+00
DAV:  20    -0.287065395508E+03    0.12639E-01   -0.14907E-03 25072   0.170E-01    0.545E+00
DAV:  21    -0.287057250548E+03    0.81450E-02   -0.21550E-03 31352   0.169E-01    0.441E+00
DAV:  22    -0.287057104211E+03    0.14634E-03   -0.71576E-03 32080   0.276E-01    0.242E+00
DAV:  23    -0.287067112401E+03   -0.10008E-01   -0.27345E-03 26712   0.185E-01    0.142E+00
DAV:  24    -0.287072079663E+03   -0.49673E-02   -0.62750E-04 27672   0.999E-02    0.107E+00
DAV:  25    -0.287074089551E+03   -0.20099E-02   -0.14159E-04 25176   0.599E-02    0.914E-01
DAV:  26    -0.287075091429E+03   -0.10019E-02   -0.36739E-04 29872   0.742E-02    0.836E-01
DAV:  27    -0.287075329961E+03   -0.23853E-03   -0.63039E-04 31928   0.790E-02    0.689E-01
DAV:  28    -0.287075879584E+03   -0.54962E-03   -0.10107E-03 31744   0.908E-02    0.133E+00
DAV:  29    -0.287074298040E+03    0.15815E-02   -0.13346E-03 32104   0.148E-01    0.406E-01
DAV:  30    -0.287075775581E+03   -0.14775E-02   -0.58933E-04 28456   0.947E-02    0.295E-01
DAV:  31    -0.287076023413E+03   -0.24783E-03   -0.12310E-04 27600   0.488E-02    0.543E-01
DAV:  32    -0.287075761516E+03    0.26190E-03   -0.47760E-05 21016   0.324E-02    0.637E-01
DAV:  33    -0.287075298139E+03    0.46338E-03   -0.11638E-04 24368   0.356E-02    0.609E-01
DAV:  34    -0.287075172094E+03    0.12604E-03   -0.98980E-05 21896   0.254E-02    0.669E-01
DAV:  35    -0.287075078964E+03    0.93130E-04   -0.45998E-05 17488   0.152E-02    0.678E-01
DAV:  36    -0.287075095668E+03   -0.16704E-04   -0.11354E-05 14448   0.846E-03    0.681E-01
DAV:  37    -0.287075325313E+03   -0.22964E-03   -0.37490E-05 19160   0.229E-02    0.683E-01
DAV:  38    -0.287075478211E+03   -0.15290E-03   -0.67374E-05 19624   0.217E-02    0.719E-01
DAV:  39    -0.287075482990E+03   -0.47799E-05   -0.55115E-05 17256   0.158E-02
  16 F= -.28707548E+03 E0= -.28705780E+03  d E =-.167506E-01  mag=    -4.6720
       N       E                     dE             d eps       ncg     rms          rms(c)
DAV:   1    -0.286063973211E+03    0.10115E+01   -0.95318E+01 25536   0.364E+01    0.904E+00
DAV:   2    -0.287625219442E+03   -0.15612E+01   -0.10576E+01 30552   0.915E+00    0.212E+01
DAV:   3    -0.286981540576E+03    0.64368E+00   -0.10195E+00 33112   0.508E+00    0.159E+01
DAV:   4    -0.286745341991E+03    0.23620E+00   -0.76231E+00 33080   0.342E+00    0.151E+01
DAV:   5    -0.286680715862E+03    0.64626E-01   -0.54865E+00 33424   0.241E+00    0.135E+01
DAV:   6    -0.286479125892E+03    0.20159E+00   -0.27459E+00 33712   0.234E+00    0.705E+00
DAV:   7    -0.286463026266E+03    0.16100E-01   -0.22715E-01 33616   0.144E+00    0.550E+00
DAV:   8    -0.286464093940E+03   -0.10677E-02   -0.15502E-01 32328   0.839E-01    0.379E+00
DAV:   9    -0.286485683329E+03   -0.21589E-01   -0.16496E-01 32368   0.783E-01    0.318E+00
DAV:  10    -0.286485864444E+03   -0.18111E-03   -0.52082E-02 32824   0.421E-01    0.384E+00
DAV:  11    -0.286478724743E+03    0.71397E-02   -0.50545E-03 27384   0.241E-01    0.385E+00
DAV:  12    -0.286468899316E+03    0.98254E-02   -0.69945E-02 33040   0.458E-01    0.212E+00
DAV:  13    -0.286492137766E+03   -0.23238E-01   -0.83683E-02 32408   0.515E-01    0.443E+00
DAV:  14    -0.286494205027E+03   -0.20673E-02   -0.12477E-02 26528   0.474E-01    0.585E+00
DAV:  15    -0.286486637613E+03    0.75674E-02   -0.51045E-03 27368   0.279E-01    0.700E+00
DAV:  16    -0.286473219206E+03    0.13418E-01   -0.10940E-03 26384   0.138E-01    0.709E+00
DAV:  17    -0.286470315218E+03    0.29040E-02   -0.10394E-04 28984   0.395E-02    0.719E+00
DAV:  18    -0.286466298096E+03    0.40171E-02   -0.86157E-03 33480   0.190E-01    0.682E+00
DAV:  19    -0.286467559296E+03   -0.12612E-02   -0.46288E-03 30336   0.184E-01    0.697E+00
DAV:  20    -0.286478495513E+03   -0.10936E-01   -0.21486E-02 31920   0.386E-01    0.752E+00
DAV:  21    -0.286450782974E+03    0.27713E-01   -0.44130E-02 32856   0.445E-01    0.429E+00
DAV:  22    -0.286469291908E+03   -0.18509E-01   -0.22384E-02 29336   0.474E-01    0.247E+00
DAV:  23    -0.286477589262E+03   -0.82974E-02   -0.12446E-02 30680   0.275E-01    0.110E+00
DAV:  24    -0.286484878170E+03   -0.72889E-02   -0.44189E-03 29456   0.190E-01    0.857E-01
DAV:  25    -0.286485716599E+03   -0.83843E-03   -0.55648E-04 25520   0.103E-01    0.980E-01
DAV:  26    -0.286485300281E+03    0.41632E-03   -0.13660E-03 32576   0.112E-01    0.902E-01
DAV:  27    -0.286485776057E+03   -0.47578E-03   -0.11049E-03 30280   0.104E-01    0.797E-01
DAV:  28    -0.286485721121E+03    0.54936E-04   -0.26896E-04 29872   0.465E-02    0.731E-01
DAV:  29    -0.286485772948E+03   -0.51827E-04   -0.20848E-04 27424   0.516E-02    0.691E-01
DAV:  30    -0.286485811930E+03   -0.38982E-04   -0.48393E-04 31824   0.856E-02    0.650E-01
DAV:  31    -0.286485949369E+03   -0.13744E-03   -0.28327E-04 29592   0.561E-02    0.785E-01
DAV:  32    -0.286486048482E+03   -0.99114E-04   -0.11220E-04 25440   0.400E-02    0.845E-01
DAV:  33    -0.286485962578E+03    0.85904E-04   -0.12953E-04 22680   0.301E-02    0.738E-01
DAV:  34    -0.286486055396E+03   -0.92818E-04   -0.18253E-04 26256   0.311E-02    0.610E-01
DAV:  35    -0.286486243644E+03   -0.18825E-03   -0.99450E-05 21072   0.243E-02    0.525E-01
DAV:  36    -0.286486341708E+03   -0.98064E-04   -0.28839E-05 18184   0.180E-02    0.524E-01
DAV:  37    -0.286486381446E+03   -0.39738E-04   -0.23076E-05 15768   0.119E-02    0.498E-01
DAV:  38    -0.286486460712E+03   -0.79266E-04   -0.55751E-05 19232   0.157E-02    0.490E-01
DAV:  39    -0.286486506096E+03   -0.45384E-04   -0.15930E-04 22512   0.298E-02    0.351E-01
DAV:  40    -0.286486616402E+03   -0.11031E-03   -0.70811E-05 21552   0.206E-02    0.293E-01
DAV:  41    -0.286486684840E+03   -0.68438E-04   -0.11919E-04 21816   0.240E-02    0.235E-01
DAV:  42    -0.286486696616E+03   -0.11776E-04   -0.24672E-04 26144   0.362E-02    0.917E-02
DAV:  43    -0.286486785675E+03   -0.89059E-04   -0.54224E-05 19968   0.211E-02    0.490E-02
DAV:  44    -0.286486805230E+03   -0.19556E-04   -0.39939E-05 17704   0.159E-02    0.317E-02
DAV:  45    -0.286486816488E+03   -0.11258E-04   -0.92632E-06 14624   0.122E-02    0.233E-02
DAV:  46    -0.286486817986E+03   -0.14972E-05   -0.32708E-06 13032   0.637E-03
  17 F= -.28648682E+03 E0= -.28646947E+03  d E =0.588665E+00  mag=    -4.4319
       N       E                     dE             d eps       ncg     rms          rms(c)
DAV:   1    -0.286768707411E+03   -0.28189E+00   -0.46512E+00 25344   0.692E+00    0.236E+00
DAV:   2    -0.286889999575E+03   -0.12129E+00   -0.54542E-01 32136   0.218E+00    0.705E+00
DAV:   3    -0.286832915778E+03    0.57084E-01   -0.82869E-01 33568   0.177E+00    0.715E+00
DAV:   4    -0.286764145958E+03    0.68770E-01   -0.16434E-01 33032   0.935E-01    0.247E+00
DAV:   5    -0.286789723367E+03   -0.25577E-01   -0.17993E-01 33264   0.509E-01    0.366E+00
DAV:   6    -0.286774916136E+03    0.14807E-01   -0.53245E-02 33056   0.545E-01    0.186E+00
DAV:   7    -0.286783224382E+03   -0.83082E-02   -0.31562E-02 33800   0.374E-01    0.263E+00
DAV:   8    -0.286778307003E+03    0.49174E-02   -0.10934E-02 28064   0.337E-01    0.162E+00
DAV:   9    -0.286778500413E+03   -0.19341E-03   -0.59405E-04 26400   0.869E-02    0.159E+00
DAV:  10    -0.286778466480E+03    0.33933E-04   -0.12272E-02 34144   0.237E-01    0.204E+00
DAV:  11    -0.286778660647E+03   -0.19417E-03   -0.60827E-03 26856   0.238E-01    0.160E+00
DAV:  12    -0.286779169262E+03   -0.50862E-03   -0.33067E-03 32792   0.121E-01    0.145E+00
DAV:  13    -0.286778930784E+03    0.23848E-03   -0.10148E-03 32648   0.799E-02    0.109E+00
DAV:  14    -0.286779912393E+03   -0.98161E-03   -0.48561E-03 32648   0.121E-01    0.113E+00
DAV:  15    -0.286780934252E+03   -0.10219E-02   -0.11006E-03 24912   0.146E-01    0.127E+00
DAV:  16    -0.286779996111E+03    0.93814E-03   -0.83542E-05 25192   0.435E-02    0.131E+00
DAV:  17    -0.286778881248E+03    0.11149E-02   -0.34438E-04 31304   0.485E-02    0.862E-01
DAV:  18    -0.286779471860E+03   -0.59061E-03   -0.28120E-04 25840   0.477E-02    0.306E-01
DAV:  19    -0.286780420173E+03   -0.94831E-03   -0.44543E-04 25832   0.666E-02    0.263E-01
DAV:  20    -0.286780562808E+03   -0.14263E-03   -0.83449E-05 23664   0.433E-02    0.325E-01
DAV:  21    -0.286780465332E+03    0.97476E-04   -0.10306E-05 17688   0.166E-02    0.345E-01
[...]
DAV:  19    -0.287079934539E+03    0.51455E-03   -0.75458E-05 26608   0.359E-02    0.166E+00
DAV:  20    -0.287078851717E+03    0.10828E-02   -0.31238E-04 30192   0.673E-02    0.194E+00
DAV:  21    -0.287076460509E+03    0.23912E-02   -0.10836E-03 28160   0.107E-01    0.204E+00
DAV:  22    -0.287076311814E+03    0.14870E-03   -0.14836E-04 27200   0.382E-02    0.204E+00
DAV:  23    -0.287076500908E+03   -0.18909E-03   -0.35098E-05 19584   0.216E-02    0.204E+00
DAV:  24    -0.287076523022E+03   -0.22114E-04   -0.49329E-04 31312   0.826E-02    0.193E+00
DAV:  25    -0.287079029303E+03   -0.25063E-02   -0.22179E-03 31424   0.190E-01    0.171E+00
DAV:  26    -0.287081138739E+03   -0.21094E-02   -0.18816E-03 31576   0.141E-01    0.154E+00
DAV:  27    -0.287081949602E+03   -0.81086E-03   -0.12180E-03 31728   0.868E-02    0.122E+00
DAV:  28    -0.287082704271E+03   -0.75467E-03   -0.37971E-04 29192   0.726E-02    0.877E-01
DAV:  29    -0.287083462692E+03   -0.75842E-03   -0.16668E-04 28744   0.556E-02    0.684E-01
DAV:  30    -0.287084079458E+03   -0.61677E-03   -0.15319E-04 25376   0.441E-02    0.634E-01
DAV:  31    -0.287084406581E+03   -0.32712E-03   -0.29426E-04 28792   0.583E-02    0.420E-01
DAV:  32    -0.287084501785E+03   -0.95204E-04   -0.77661E-05 25248   0.340E-02    0.290E-01
DAV:  33    -0.287084571010E+03   -0.69225E-04   -0.18502E-05 19064   0.196E-02    0.276E-01
DAV:  34    -0.287084617426E+03   -0.46416E-04   -0.10279E-05 14656   0.138E-02    0.277E-01
DAV:  35    -0.287084647548E+03   -0.30123E-04   -0.37974E-05 19280   0.169E-02    0.214E-01
DAV:  36    -0.287084666871E+03   -0.19323E-04   -0.20712E-05 15120   0.115E-02    0.141E-01
DAV:  37    -0.287084696186E+03   -0.29315E-04   -0.51129E-06 14176   0.885E-03    0.108E-01
DAV:  38    -0.287084710956E+03   -0.14769E-04   -0.29262E-06 12936   0.715E-03    0.926E-02
DAV:  39    -0.287084720277E+03   -0.93215E-05   -0.13523E-05 15304   0.118E-02
  78 F= -.28708472E+03 E0= -.28706716E+03  d E =0.186716E-01  mag=    -4.6674
       N       E                     dE             d eps       ncg     rms          rms(c)
DAV:   1    -0.287036252331E+03    0.48459E-01   -0.20218E+01 25056   0.157E+01    0.217E+00
DAV:   2    -0.287314911292E+03   -0.27866E+00   -0.13542E+00 31752   0.349E+00    0.113E+01
DAV:   3    -0.287194226580E+03    0.12068E+00   -0.25246E+00 32632   0.187E+00    0.807E+00
DAV:   4    -0.287108945188E+03    0.85281E-01   -0.26392E-01 32752   0.125E+00    0.522E+00
DAV:   5    -0.287093198501E+03    0.15747E-01   -0.11813E-01 32336   0.534E-01    0.372E+00
DAV:   6    -0.287152120458E+03   -0.58922E-01   -0.12995E-01 35872   0.792E-01    0.958E+00
DAV:   7    -0.287094046406E+03    0.58074E-01   -0.19530E-02 24776   0.680E-01    0.704E+00
DAV:   8    -0.287076739897E+03    0.17307E-01   -0.14618E-02 34104   0.275E-01    0.354E+00
DAV:   9    -0.287093503132E+03   -0.16763E-01   -0.33880E-03 24544   0.262E-01    0.250E+00
DAV:  10    -0.287098254216E+03   -0.47511E-02   -0.57344E-03 31632   0.198E-01    0.176E+00
DAV:  11    -0.287103232355E+03   -0.49781E-02   -0.22627E-03 25640   0.201E-01    0.149E+00
DAV:  12    -0.287103577152E+03   -0.34480E-03   -0.11981E-02 33528   0.205E-01    0.175E+00
DAV:  13    -0.287103016183E+03    0.56097E-03   -0.16951E-02 32312   0.269E-01    0.159E+00
DAV:  14    -0.287103400630E+03   -0.38445E-03   -0.53041E-03 27936   0.202E-01    0.132E+00
DAV:  15    -0.287104164107E+03   -0.76348E-03   -0.36938E-04 29264   0.628E-02    0.148E+00
DAV:  16    -0.287103797556E+03    0.36655E-03   -0.11909E-04 23792   0.350E-02    0.144E+00
DAV:  17    -0.287104013981E+03   -0.21643E-03   -0.31335E-05 20152   0.199E-02    0.147E+00
DAV:  18    -0.287102606925E+03    0.14071E-02   -0.14497E-03 31752   0.104E-01    0.108E+00
DAV:  19    -0.287102505320E+03    0.10161E-03   -0.20563E-03 32392   0.130E-01    0.149E+00
DAV:  20    -0.287101952299E+03    0.55302E-03   -0.57644E-04 26232   0.102E-01    0.161E+00
DAV:  21    -0.287101260539E+03    0.69176E-03   -0.26593E-04 31504   0.497E-02    0.184E+00
DAV:  22    -0.287100617577E+03    0.64296E-03   -0.45240E-05 21568   0.278E-02    0.198E+00
DAV:  23    -0.287100478630E+03    0.13895E-03   -0.20264E-04 27560   0.519E-02    0.200E+00
DAV:  24    -0.287102554157E+03   -0.20755E-02   -0.28215E-03 31752   0.201E-01    0.186E+00
DAV:  25    -0.287102730500E+03   -0.17634E-03   -0.10608E-03 32744   0.101E-01    0.143E+00
DAV:  26    -0.287103318885E+03   -0.58839E-03   -0.14181E-04 26736   0.446E-02    0.131E+00
DAV:  27    -0.287103605841E+03   -0.28696E-03   -0.63011E-05 21328   0.273E-02    0.125E+00
DAV:  28    -0.287103980941E+03   -0.37510E-03   -0.53396E-04 29200   0.796E-02    0.964E-01
DAV:  29    -0.287104591160E+03   -0.61022E-03   -0.24720E-04 31200   0.576E-02    0.680E-01
DAV:  30    -0.287105422438E+03   -0.83128E-03   -0.30734E-04 30232   0.699E-02    0.606E-01
DAV:  31    -0.287105736361E+03   -0.31392E-03   -0.35603E-04 31528   0.702E-02    0.392E-01
DAV:  32    -0.287105899233E+03   -0.16287E-03   -0.29814E-04 31632   0.488E-02    0.245E-01
DAV:  33    -0.287106014634E+03   -0.11540E-03   -0.67334E-05 22464   0.330E-02    0.234E-01
DAV:  34    -0.287106020624E+03   -0.59898E-05   -0.59661E-05 23168   0.291E-02
  79 F= -.28710602E+03 E0= -.28708847E+03  d E =-.213003E-01  mag=    -4.6803
       N       E                     dE             d eps       ncg     rms          rms(c)
DAV:   1    -0.286838100613E+03    0.26791E+00   -0.52252E+01 25440   0.263E+01    0.405E+00
DAV:   2    -0.287456364812E+03   -0.61826E+00   -0.31448E+00 33000   0.624E+00    0.127E+01
DAV:   3    -0.287388863872E+03    0.67501E-01   -0.56200E+00 33016   0.312E+00    0.101E+01
DAV:   4    -0.287139352943E+03    0.24951E+00   -0.74731E-01 33616   0.217E+00    0.892E+00
DAV:   5    -0.287071495348E+03    0.67858E-01   -0.53830E-01 32736   0.955E-01    0.595E+00
DAV:   6    -0.287077873624E+03   -0.63783E-02   -0.49922E-01 35968   0.135E+00    0.743E+00
DAV:   7    -0.287038706671E+03    0.39167E-01   -0.11243E-01 32376   0.105E+00    0.464E+00
DAV:   8    -0.287034660105E+03    0.40466E-02   -0.18864E-01 33296   0.695E-01    0.214E+00
DAV:   9    -0.287047544471E+03   -0.12884E-01   -0.30176E-02 30288   0.467E-01    0.231E+00
DAV:  10    -0.287046057428E+03    0.14870E-02   -0.11689E-02 32600   0.262E-01    0.260E+00
DAV:  11    -0.287049442739E+03   -0.33853E-02   -0.16298E-02 30768   0.258E-01    0.353E+00
DAV:  12    -0.287039927171E+03    0.95156E-02   -0.13301E-02 30632   0.272E-01    0.224E+00
DAV:  13    -0.287044502207E+03   -0.45750E-02   -0.29935E-02 33840   0.290E-01    0.188E+00
DAV:  14    -0.287048384903E+03   -0.38827E-02   -0.93662E-03 27504   0.343E-01    0.126E+00
DAV:  15    -0.287049039119E+03   -0.65422E-03   -0.69354E-03 32112   0.211E-01    0.143E+00
DAV:  16    -0.287047774576E+03    0.12645E-02   -0.28271E-03 30400   0.147E-01    0.131E+00
DAV:  17    -0.287047600715E+03    0.17386E-03   -0.62915E-03 32872   0.142E-01    0.906E-01
DAV:  18    -0.287049990179E+03   -0.23895E-02   -0.27810E-03 29288   0.153E-01    0.135E+00
DAV:  19    -0.287048818421E+03    0.11718E-02   -0.15449E-03 31144   0.108E-01    0.127E+00
DAV:  20    -0.287048443205E+03    0.37522E-03   -0.60699E-04 32360   0.558E-02    0.114E+00
DAV:  21    -0.287048729364E+03   -0.28616E-03   -0.89529E-04 29432   0.641E-02    0.119E+00
DAV:  22    -0.287048399520E+03    0.32984E-03   -0.86085E-04 31496   0.873E-02    0.923E-01
DAV:  23    -0.287048533725E+03   -0.13420E-03   -0.16768E-03 33440   0.164E-01    0.805E-01
DAV:  24    -0.287049823774E+03   -0.12900E-02   -0.45162E-03 30312   0.164E-01    0.124E+00
DAV:  25    -0.287048496332E+03    0.13274E-02   -0.67137E-04 31232   0.110E-01    0.547E-01
DAV:  26    -0.287049076611E+03   -0.58028E-03   -0.14050E-04 27192   0.472E-02    0.359E-01
DAV:  27    -0.287049302594E+03   -0.22598E-03   -0.84028E-05 22704   0.330E-02    0.329E-01
DAV:  28    -0.287049334092E+03   -0.31498E-04   -0.42126E-05 19888   0.221E-02    0.304E-01
DAV:  29    -0.287049557169E+03   -0.22308E-03   -0.38340E-04 30464   0.739E-02    0.803E-01
DAV:  30    -0.287049213141E+03    0.34403E-03   -0.32490E-04 27424   0.586E-02    0.922E-01
DAV:  31    -0.287048916954E+03    0.29619E-03   -0.12564E-04 25680   0.456E-02    0.841E-01
DAV:  32    -0.287048892110E+03    0.24844E-04   -0.15463E-04 27816   0.430E-02    0.653E-01
DAV:  33    -0.287049011182E+03   -0.11907E-03   -0.16084E-04 28848   0.567E-02    0.201E-01
DAV:  34    -0.287049402984E+03   -0.39180E-03   -0.88872E-05 24456   0.438E-02    0.852E-02
DAV:  35    -0.287049491161E+03   -0.88177E-04   -0.70178E-05 23200   0.352E-02    0.443E-02
DAV:  36    -0.287049499506E+03   -0.83455E-05   -0.17963E-05 18376   0.164E-02
  80 F= -.28704950E+03 E0= -.28703190E+03  d E =0.565211E-01  mag=    -4.6817
       N       E                     dE             d eps       ncg     rms          rms(c)
DAV:   1    -0.286988297262E+03    0.61194E-01   -0.29300E+01 25488   0.195E+01    0.256E+00
DAV:   2    -0.287475331822E+03   -0.48703E+00   -0.16595E+00 31128   0.394E+00    0.183E+01
DAV:   3    -0.287009506020E+03    0.46583E+00   -0.13341E-01 32040   0.190E+00    0.582E+00
DAV:   4    -0.287101605063E+03   -0.92099E-01   -0.45145E-01 30840   0.122E+00    0.412E+00
DAV:   5    -0.287113606143E+03   -0.12001E-01   -0.13078E-01 32696   0.845E-01    0.353E+00
DAV:   6    -0.287105030799E+03    0.85753E-02   -0.93316E-02 33696   0.564E-01    0.298E+00
DAV:   7    -0.287098532362E+03    0.64984E-02   -0.29964E-02 26992   0.469E-01    0.456E+00
DAV:   8    -0.287095556685E+03    0.29757E-02   -0.73595E-03 26496   0.260E-01    0.482E+00
DAV:   9    -0.287079238453E+03    0.16318E-01   -0.11146E-01 33528   0.478E-01    0.229E+00
DAV:  10    -0.287103651272E+03   -0.24413E-01   -0.75341E-03 25632   0.331E-01    0.264E+00
DAV:  11    -0.287103121867E+03    0.52941E-03   -0.11819E-03 26528   0.162E-01    0.299E+00
DAV:  12    -0.287100816271E+03    0.23056E-02   -0.21884E-02 29824   0.369E-01    0.287E+00
DAV:  13    -0.287095902106E+03    0.49142E-02   -0.18957E-02 31952   0.373E-01    0.244E+00
DAV:  14    -0.287094270401E+03    0.16317E-02   -0.90541E-03 33104   0.229E-01    0.172E+00
DAV:  15    -0.287100717568E+03   -0.64472E-02   -0.10336E-02 31456   0.357E-01    0.176E+00
DAV:  16    -0.287104621147E+03   -0.39036E-02   -0.98149E-03 31704   0.339E-01    0.165E+00
DAV:  17    -0.287105336186E+03   -0.71504E-03   -0.23924E-03 30584   0.140E-01    0.181E+00
DAV:  18    -0.287105020302E+03    0.31588E-03   -0.11628E-03 30664   0.106E-01    0.160E+00
DAV:  19    -0.287104847792E+03    0.17251E-03   -0.46487E-04 32336   0.661E-02    0.131E+00
DAV:  20    -0.287105565792E+03   -0.71800E-03   -0.52129E-04 30704   0.827E-02    0.116E+00
DAV:  21    -0.287106162168E+03   -0.59638E-03   -0.13413E-03 31872   0.143E-01    0.455E-01
DAV:  22    -0.287107258274E+03   -0.10961E-02   -0.14379E-03 30568   0.127E-01    0.510E-01
DAV:  23    -0.287106843778E+03    0.41450E-03   -0.96227E-04 32320   0.892E-02    0.486E-01
DAV:  24    -0.287106793014E+03    0.50764E-04   -0.21155E-04 27312   0.497E-02    0.583E-01
DAV:  25    -0.287106907339E+03   -0.11432E-03   -0.23096E-04 28376   0.571E-02    0.363E-01
DAV:  26    -0.287107219200E+03   -0.31186E-03   -0.26781E-04 30840   0.602E-02    0.294E-01
DAV:  27    -0.287107409071E+03   -0.18987E-03   -0.15701E-04 26776   0.513E-02    0.206E-01
DAV:  28    -0.287107536166E+03   -0.12709E-03   -0.29558E-04 29768   0.594E-02    0.129E-01
DAV:  29    -0.287107582158E+03   -0.45992E-04   -0.87583E-05 23696   0.343E-02    0.964E-02
DAV:  30    -0.287107584576E+03   -0.24179E-05   -0.18337E-05 17760   0.151E-02
  81 F= -.28710758E+03 E0= -.28708997E+03  d E =-.580851E-01  mag=    -4.6785
       N       E                     dE             d eps       ncg     rms          rms(c)
DAV:   1    -0.287056950689E+03    0.50631E-01   -0.90752E+00 25448   0.107E+01    0.154E+00
DAV:   2    -0.287128792708E+03   -0.71842E-01   -0.41369E-01 28536   0.204E+00    0.735E+00
DAV:   3    -0.287067558295E+03    0.61234E-01   -0.32207E-02 32248   0.771E-01    0.111E+00
DAV:   4    -0.287111092127E+03   -0.43534E-01   -0.15637E-01 32944   0.630E-01    0.540E+00
DAV:   5    -0.287078975940E+03    0.32116E-01   -0.16760E-01 32096   0.560E-01    0.177E+00
DAV:   6    -0.287090349490E+03   -0.11374E-01   -0.90642E-03 27312   0.257E-01    0.153E+00
DAV:   7    -0.287090760469E+03   -0.41098E-03   -0.80169E-04 26472   0.105E-01    0.161E+00
DAV:   8    -0.287090255151E+03    0.50532E-03   -0.19771E-04 27680   0.472E-02    0.149E+00
DAV:   9    -0.287088881993E+03    0.13732E-02   -0.15167E-02 32144   0.217E-01    0.124E+00
DAV:  10    -0.287089587068E+03   -0.70507E-03   -0.49855E-03 29296   0.183E-01    0.755E-01
DAV:  11    -0.287091021404E+03   -0.14343E-02   -0.42016E-03 32368   0.135E-01    0.984E-01
DAV:  12    -0.287091354937E+03   -0.33353E-03   -0.16029E-03 26032   0.998E-02    0.124E+00
DAV:  13    -0.287090400371E+03    0.95457E-03   -0.18534E-04 25016   0.478E-02    0.135E+00
DAV:  14    -0.287089864452E+03    0.53592E-03   -0.58635E-04 31456   0.790E-02    0.103E+00
DAV:  15    -0.287090219511E+03   -0.35506E-03   -0.86462E-04 32536   0.844E-02    0.524E-01
DAV:  16    -0.287090923700E+03   -0.70419E-03   -0.51487E-04 28800   0.616E-02    0.523E-01
DAV:  17    -0.287091075483E+03   -0.15178E-03   -0.19899E-04 25888   0.460E-02    0.777E-01
DAV:  18    -0.287090995192E+03    0.80291E-04   -0.21906E-04 23152   0.322E-02    0.900E-01
DAV:  19    -0.287090624501E+03    0.37069E-03   -0.19934E-04 22864   0.342E-02    0.649E-01
DAV:  20    -0.287090868662E+03   -0.24416E-03   -0.38241E-05 17368   0.208E-02    0.615E-01
DAV:  21    -0.287090906594E+03   -0.37932E-04   -0.21915E-05 18688   0.251E-02    0.521E-01
DAV:  22    -0.287090990295E+03   -0.83701E-04   -0.20311E-05 18504   0.240E-02    0.528E-01
DAV:  23    -0.287090944028E+03    0.46267E-04   -0.53271E-05 21704   0.291E-02    0.592E-01
DAV:  24    -0.287090857573E+03    0.86455E-04   -0.48503E-05 22592   0.237E-02    0.653E-01
DAV:  25    -0.287090806884E+03    0.50689E-04   -0.26524E-05 17952   0.158E-02    0.720E-01
DAV:  26    -0.287090737517E+03    0.69367E-04   -0.23200E-05 19312   0.180E-02    0.817E-01
DAV:  27    -0.287090575229E+03    0.16229E-03   -0.23832E-05 19512   0.193E-02    0.905E-01
DAV:  28    -0.287090461154E+03    0.11407E-03   -0.65293E-06 14464   0.107E-02    0.932E-01
DAV:  29    -0.287090434453E+03    0.26702E-04   -0.19678E-06 12880   0.625E-03    0.934E-01
DAV:  30    -0.287090426878E+03    0.75749E-05   -0.10893E-06 13432   0.489E-03
  82 F= -.28709043E+03 E0= -.28707262E+03  d E =0.171577E-01  mag=    -4.6925
       N       E                     dE             d eps       ncg     rms          rms(c)
DAV:   1    -0.287088386529E+03    0.20479E-02   -0.51114E+00 25152   0.810E+00    0.165E+00
DAV:   2    -0.287226299644E+03   -0.13791E+00   -0.40449E-01 33120   0.218E+00    0.700E+00
DAV:   3    -0.287148335920E+03    0.77964E-01   -0.63764E-01 33136   0.140E+00    0.640E+00
DAV:   4    -0.287092842028E+03    0.55494E-01   -0.10667E-01 32984   0.828E-01    0.263E+00
DAV:   5    -0.287105190055E+03   -0.12348E-01   -0.39952E-02 33128   0.373E-01    0.208E+00
DAV:   6    -0.287116452830E+03   -0.11263E-01   -0.28614E-02 32536   0.358E-01    0.413E+00
DAV:   7    -0.287131946433E+03   -0.15494E-01   -0.99760E-03 25816   0.376E-01    0.722E+00
DAV:   8    -0.287106770403E+03    0.25176E-01   -0.81260E-03 26176   0.288E-01    0.753E+00
DAV:   9    -0.287075646522E+03    0.31124E-01   -0.43016E-03 33400   0.197E-01    0.545E+00
DAV:  10    -0.287087557962E+03   -0.11911E-01   -0.27081E-03 27208   0.137E-01    0.483E+00
DAV:  11    -0.287093315881E+03   -0.57579E-02   -0.34939E-03 29272   0.102E-01    0.446E+00
DAV:  12    -0.287086777399E+03    0.65385E-02   -0.10709E-02 33016   0.238E-01    0.193E+00
DAV:  13    -0.287097625032E+03   -0.10848E-01   -0.48699E-03 27992   0.242E-01    0.162E+00
DAV:  14    -0.287102640791E+03   -0.50158E-02   -0.12430E-03 28064   0.147E-01    0.143E+00
DAV:  15    -0.287107516209E+03   -0.48754E-02   -0.50344E-03 30656   0.286E-01    0.106E+00
DAV:  16    -0.287108461172E+03   -0.94496E-03   -0.27921E-03 30928   0.165E-01    0.949E-01
DAV:  17    -0.287108105832E+03    0.35534E-03   -0.11417E-03 32624   0.991E-02    0.586E-01
DAV:  18    -0.287109156748E+03   -0.10509E-02   -0.28846E-03 32416   0.147E-01    0.113E+00
DAV:  19    -0.287108161929E+03    0.99482E-03   -0.27923E-03 30880   0.163E-01    0.478E-01
DAV:  20    -0.287108921598E+03   -0.75967E-03   -0.76880E-04 29272   0.786E-02    0.550E-01
DAV:  21    -0.287108816960E+03    0.10464E-03   -0.18582E-04 26112   0.415E-02    0.575E-01
DAV:  22    -0.287108748014E+03    0.68947E-04   -0.17185E-04 21952   0.327E-02    0.520E-01
DAV:  23    -0.287108921370E+03   -0.17336E-03   -0.13755E-04 23656   0.304E-02    0.665E-01
DAV:  24    -0.287108388795E+03    0.53258E-03   -0.22832E-04 27824   0.597E-02    0.348E-01
DAV:  25    -0.287108872881E+03   -0.48409E-03   -0.19059E-04 26656   0.644E-02    0.310E-01
DAV:  26    -0.287108871773E+03    0.11081E-05   -0.14006E-04 26696   0.380E-02    0.219E-01
DAV:  27    -0.287108895594E+03   -0.23821E-04   -0.40593E-05 19616   0.254E-02    0.202E-01
DAV:  28    -0.287108890397E+03    0.51973E-05   -0.20006E-05 16880   0.171E-02
  83 F= -.28710889E+03 E0= -.28709130E+03  d E =-.184635E-01  mag=    -4.6830
       N       E                     dE             d eps       ncg     rms          rms(c)
DAV:   1    -0.287108630645E+03    0.26495E-03   -0.25877E-02 25344   0.570E-01    0.175E-01
DAV:   2    -0.287109580441E+03   -0.94980E-03   -0.45759E-03 31408   0.158E-01    0.999E-01
DAV:   3    -0.287108381409E+03    0.11990E-02   -0.43002E-04 26896   0.894E-02    0.675E-01
DAV:   4    -0.287108530104E+03   -0.14870E-03   -0.97664E-04 22944   0.469E-02    0.784E-01
DAV:   5    -0.287108541325E+03   -0.11221E-04   -0.26716E-04 22872   0.411E-02    0.108E+00
DAV:   6    -0.287108336217E+03    0.20511E-03   -0.89212E-04 24584   0.482E-02    0.138E+00
DAV:   7    -0.287107805225E+03    0.53099E-03   -0.16833E-04 23488   0.439E-02    0.152E+00
DAV:   8    -0.287107395524E+03    0.40970E-03   -0.43169E-05 20104   0.271E-02    0.164E+00
DAV:   9    -0.287106862201E+03    0.53332E-03   -0.33035E-04 27296   0.566E-02    0.148E+00
DAV:  10    -0.287106445060E+03    0.41714E-03   -0.85896E-04 32416   0.699E-02    0.708E-01
DAV:  11    -0.287107953782E+03   -0.15087E-02   -0.25803E-04 23904   0.657E-02    0.348E-01
DAV:  12    -0.287108590197E+03   -0.63641E-03   -0.20458E-04 27712   0.594E-02    0.194E-01
DAV:  13    -0.287108772272E+03   -0.18208E-03   -0.15694E-04 27712   0.420E-02    0.866E-02
DAV:  14    -0.287108826783E+03   -0.54510E-04   -0.48129E-05 19056   0.237E-02    0.129E-01
DAV:  15    -0.287108817699E+03    0.90831E-05   -0.12790E-05 15872   0.142E-02
  84 F= -.28710882E+03 E0= -.28709130E+03  d E =0.726972E-04  mag=    -4.6858
       N       E                     dE             d eps       ncg     rms          rms(c)
DAV:   1    -0.287108699230E+03    0.12755E-03   -0.18705E-02 25056   0.454E-01    0.177E-01
DAV:   2    -0.287114304247E+03   -0.56050E-02   -0.50540E-03 34016   0.211E-01    0.310E+00
DAV:   3    -0.287102914535E+03    0.11390E-01   -0.30352E-03 29872   0.257E-01    0.630E-01
DAV:   4    -0.287107637386E+03   -0.47229E-02   -0.15094E-03 25136   0.980E-02    0.126E-01
DAV:   5    -0.287108710680E+03   -0.10733E-02   -0.24506E-04 24736   0.677E-02    0.131E-01
DAV:   6    -0.287108758537E+03   -0.47857E-04   -0.43920E-05 20680   0.240E-02    0.128E-01
DAV:   7    -0.287108741658E+03    0.16879E-04   -0.22363E-05 15536   0.145E-02    0.131E-01
DAV:   8    -0.287108746241E+03   -0.45835E-05   -0.95504E-06 13808   0.993E-03
  85 F= -.28710875E+03 E0= -.28709131E+03  d E =0.714584E-04  mag=    -4.6855
