       N       E                     dE             d eps       ncg     rms          ort
DAV:   1     0.284056149257E+04    0.28406E+04   -0.13307E+05 10584   0.174E+03
DAV:   2    -0.614036514111E+02   -0.29020E+04   -0.26086E+04 10584   0.450E+02
DAV:   3    -0.478361079613E+03   -0.41696E+03   -0.40759E+03 10584   0.194E+02
DAV:   4    -0.496458440300E+03   -0.18097E+02   -0.17898E+02 10584   0.404E+01
DAV:   5    -0.497033063058E+03   -0.57462E+00   -0.57137E+00 10584   0.590E+00
SDA:   6    -0.175507172801E+03    0.32153E+03   -0.57137E+00 10584   0.991E+03 0.000E+00
CGA:   7    -0.302596285853E+03   -0.12709E+03   -0.13273E+03 10584   0.155E+03 0.105E+02
CGA:   8    -0.330019724750E+03   -0.27423E+02   -0.27002E+02 10584   0.699E+02-0.501E+01
CGA:   9    -0.340520112097E+03   -0.10500E+02   -0.10108E+02 10584   0.465E+02-0.159E+01
CGA:  10    -0.348080485924E+03   -0.75604E+01   -0.75749E+01 10584   0.286E+02 0.212E+00
CGA:  11    -0.351539584764E+03   -0.34591E+01   -0.34576E+01 10584   0.121E+02 0.100E-02
CGA:  12    -0.353365108726E+03   -0.18255E+01   -0.18233E+01 10584   0.601E+01-0.897E-01
CGA:  13    -0.354149091953E+03   -0.78398E+00   -0.77776E+00 10584   0.247E+01-0.499E-01
CGA:  14    -0.354578749770E+03   -0.42966E+00   -0.42957E+00 10584   0.166E+01-0.680E-02
CGA:  15    -0.354837386387E+03   -0.25864E+00   -0.25890E+00 10584   0.860E+00 0.157E-01
CGA:  16    -0.354996260867E+03   -0.15887E+00   -0.15886E+00 10584   0.580E+00 0.926E-02
CGA:  17    -0.355091612564E+03   -0.95352E-01   -0.94865E-01 10584   0.314E+00-0.129E-01
CGA:  18    -0.355151104010E+03   -0.59491E-01   -0.59635E-01 10584   0.250E+00-0.984E-02
CGA:  19    -0.355188147720E+03   -0.37044E-01   -0.37005E-01 10584   0.123E+00-0.414E-02
CGA:  20    -0.355215299618E+03   -0.27152E-01   -0.27916E-01 10584   0.113E+00-0.159E-01
CGA:  21    -0.355229474134E+03   -0.14175E-01   -0.13370E-01 10584   0.577E-01-0.143E-01
CGA:  22    -0.355240159828E+03   -0.10686E-01   -0.11227E-01 10584   0.606E-01-0.136E-01
CGA:  23    -0.355245345149E+03   -0.51853E-02   -0.45969E-02 10584   0.273E-01-0.532E-02
CGA:  24    -0.355249025880E+03   -0.36807E-02   -0.36186E-02 10584   0.306E-01-0.191E-02
CGA:  25    -0.355252626412E+03   -0.36005E-02   -0.35595E-02 10584   0.160E-01-0.970E-03
CGA:  26    -0.355254185651E+03   -0.15592E-02   -0.15367E-02 10584   0.997E-02-0.172E-03
CGA:  27    -0.355255490552E+03   -0.13049E-02   -0.13531E-02 10584   0.101E-01 0.147E-02
CGA:  28    -0.355256336320E+03   -0.84577E-03   -0.10513E-02 10584   0.430E-02 0.267E-02
CGA:  29    -0.355256669041E+03   -0.33272E-03   -0.46723E-03 10584   0.323E-02 0.173E-02
CGA:  30    -0.355257171770E+03   -0.50273E-03   -0.55865E-03 10584   0.264E-02 0.150E-02
CGA:  31    -0.355257556157E+03   -0.38439E-03   -0.40215E-03 10584   0.111E-02 0.335E-03
CGA:  32    -0.355257711382E+03   -0.15523E-03   -0.16736E-03 10584   0.961E-03 0.556E-03
CGA:  33    -0.355257769662E+03   -0.58279E-04   -0.88311E-04 10584   0.483E-03 0.485E-03
CGA:  34    -0.355257954488E+03   -0.18483E-03   -0.17470E-03 10584   0.799E-03 0.533E-04
CGA:  35    -0.355257973320E+03   -0.18832E-04   -0.59058E-04 10584   0.186E-03 0.424E-03
CGA:  36    -0.355257966636E+03    0.66845E-05   -0.82099E-05 10584   0.113E-03 0.133E-03
   1 F= -.35525797E+03 E0= -.35525770E+03  d E =-.355258E+03  mag=    20.0000
       N       E                     dE             d eps       ncg     rms          ort
SDA:   1    -0.355266780959E+03   -0.88076E-02    0.00000E+00 10584   0.162E-02 0.000E+00
CGA:   2    -0.355267094585E+03   -0.31363E-03   -0.34932E-03 10584   0.238E-02-0.520E-03
CGA:   3    -0.355267141708E+03   -0.47123E-04   -0.93509E-04 10584   0.948E-03 0.499E-03
CGA:   4    -0.355267143533E+03   -0.18249E-05   -0.43448E-04 10584   0.289E-03 0.382E-03
CGA:   5    -0.355267142936E+03    0.59715E-06   -0.17536E-04 10584   0.184E-03 0.186E-03
CGA:   6    -0.355267198849E+03   -0.55913E-04    0.10208E-03 10584   0.116E-03 0.136E-04
CGA:   7    -0.355267199703E+03   -0.85368E-06   -0.66923E-05 10584   0.402E-04 0.714E-04
   2 F= -.35526720E+03 E0= -.35526692E+03  d E =-.923307E-02  mag=    20.0000
       N       E                     dE             d eps       ncg     rms          ort
SDA:   1    -0.354655274557E+03    0.61192E+00    0.00000E+00 10584   0.295E+01 0.000E+00
CGA:   2    -0.355320101795E+03   -0.66483E+00   -0.67050E+00 10584   0.207E+01-0.580E-01
CGA:   3    -0.355502438224E+03   -0.18234E+00   -0.18845E+00 10584   0.586E+00 0.352E-01
CGA:   4    -0.355624909533E+03   -0.12247E+00   -0.12302E+00 10584   0.130E+00-0.700E-02
CGA:   5    -0.355646728669E+03   -0.21819E-01   -0.21899E-01 10584   0.362E-01-0.212E-02
CGA:   6    -0.355652950781E+03   -0.62221E-02   -0.61774E-02 10584   0.135E-01 0.113E-02
CGA:   7    -0.355655280293E+03   -0.23295E-02   -0.23564E-02 10584   0.865E-02-0.852E-03
CGA:   8    -0.355656555770E+03   -0.12755E-02   -0.12710E-02 10584   0.385E-02 0.240E-03
CGA:   9    -0.355657090079E+03   -0.53431E-03   -0.53774E-03 10584   0.166E-02 0.100E-02
CGA:  10    -0.355657546048E+03   -0.45597E-03   -0.52019E-03 10584   0.181E-02-0.587E-03
CGA:  11    -0.355657601616E+03   -0.55568E-04   -0.84800E-04 10584   0.981E-03 0.404E-03
CGA:  12    -0.355657640379E+03   -0.38763E-04   -0.72887E-04 10584   0.460E-03 0.423E-03
CGA:  13    -0.355657700724E+03   -0.60345E-04   -0.66435E-04 10584   0.306E-03 0.168E-03
CGA:  14    -0.355657703072E+03   -0.23487E-05   -0.11844E-03 10584   0.128E-02-0.787E-03
CGA:  15    -0.355657747090E+03   -0.44018E-04   -0.81857E-04 10584   0.294E-03 0.480E-03
CGA:  16    -0.355657764145E+03   -0.17055E-04   -0.29328E-04 10584   0.145E-03 0.185E-03
CGA:  17    -0.355657816640E+03   -0.52495E-04    0.29232E-04 10584   0.650E-04 0.239E-04
CGA:  18    -0.355657815668E+03    0.97202E-06   -0.37234E-05 10584   0.325E-04 0.544E-04
   3 F= -.35565782E+03 E0= -.35565765E+03  d E =-.390616E+00  mag=    20.0000
       N       E                     dE             d eps       ncg     rms          ort
SDA:   1    -0.353019170993E+03    0.26386E+01    0.00000E+00 10584   0.951E+01 0.000E+00
CGA:   2    -0.355175867834E+03   -0.21567E+01   -0.21694E+01 10584   0.514E+01-0.133E+00
CGA:   3    -0.355696543207E+03   -0.52068E+00   -0.53306E+00 10584   0.187E+01 0.146E+00
CGA:   4    -0.356057444926E+03   -0.36090E+00   -0.36316E+00 10584   0.431E+00-0.367E-01
CGA:   5    -0.356124385858E+03   -0.66941E-01   -0.66825E-01 10584   0.138E+00 0.401E-02
CGA:   6    -0.356144983174E+03   -0.20597E-01   -0.20672E-01 10584   0.651E-01-0.471E-02
CGA:   7    -0.356153728665E+03   -0.87455E-02   -0.87301E-02 10584   0.215E-01 0.326E-02
CGA:   8    -0.356159258755E+03   -0.55301E-02   -0.54962E-02 10584   0.127E-01 0.301E-03
CGA:   9    -0.356161498138E+03   -0.22394E-02   -0.22435E-02 10584   0.843E-02-0.138E-03
CGA:  10    -0.356162868526E+03   -0.13704E-02   -0.13646E-02 10584   0.285E-02 0.256E-03
CGA:  11    -0.356163501675E+03   -0.63315E-03   -0.60910E-03 10584   0.113E-02 0.370E-03
CGA:  12    -0.356163714123E+03   -0.21245E-03   -0.38175E-03 10584   0.370E-02-0.111E-02
CGA:  13    -0.356163864487E+03   -0.15036E-03   -0.21400E-03 10584   0.311E-03 0.635E-03
CGA:  14    -0.356163876616E+03   -0.12129E-04   -0.26063E-04 10584   0.189E-03 0.180E-03
CGA:  15    -0.356163932211E+03   -0.55595E-04    0.10729E-02 10584   0.128E-03 0.577E-04
CGA:  16    -0.356163946804E+03   -0.14593E-04   -0.17927E-04 10584   0.440E-04 0.883E-04
CGA:  17    -0.356163947619E+03   -0.81451E-06   -0.33645E-05 10584   0.362E-04 0.381E-04
CGA:  18    -0.356163969626E+03   -0.22007E-04   -0.15387E-04 10584   0.211E-04 0.229E-04
CGA:  19    -0.356163969311E+03    0.31571E-06   -0.13164E-05 10584   0.172E-04 0.177E-04
   4 F= -.35616397E+03 E0= -.35616389E+03  d E =-.506154E+00  mag=    20.0000
       N       E                     dE             d eps       ncg     rms          ort
SDA:   1    -0.353263809603E+03    0.29002E+01    0.00000E+00 10584   0.999E+01 0.000E+00
CGA:   2    -0.355497719192E+03   -0.22339E+01   -0.22353E+01 10584   0.434E+01-0.198E-01
CGA:   3    -0.356031113264E+03   -0.53339E+00   -0.54065E+00 10584   0.195E+01 0.562E-01
CGA:   4    -0.356365272948E+03   -0.33416E+00   -0.33470E+00 10584   0.452E+00-0.287E-01
CGA:   5    -0.356432427584E+03   -0.67155E-01   -0.67188E-01 10584   0.154E+00 0.407E-02
CGA:   6    -0.356454644607E+03   -0.22217E-01   -0.22158E-01 10584   0.568E-01-0.407E-02
CGA:   7    -0.356463489623E+03   -0.88450E-02   -0.88342E-02 10584   0.201E-01 0.238E-02
CGA:   8    -0.356468528589E+03   -0.50390E-02   -0.50533E-02 10584   0.140E-01-0.177E-03
CGA:   9    -0.356470599869E+03   -0.20713E-02   -0.20762E-02 10584   0.715E-02 0.421E-03
CGA:  10    -0.356472153718E+03   -0.15538E-02   -0.15534E-02 10584   0.299E-02 0.489E-05
CGA:  11    -0.356472752654E+03   -0.59894E-03   -0.59791E-03 10584   0.171E-02 0.218E-04
CGA:  12    -0.356473023824E+03   -0.27117E-03   -0.27023E-03 10584   0.713E-03-0.129E-03
CGA:  13    -0.356473124910E+03   -0.10109E-03   -0.10215E-03 10584   0.214E-03 0.121E-03
CGA:  14    -0.356473187975E+03   -0.63065E-04   -0.10828E-03 10584   0.471E-03-0.168E-03
CGA:  15    -0.356473198829E+03   -0.10854E-04   -0.29079E-04 10584   0.103E-03 0.157E-03
CGA:  16    -0.356473202921E+03   -0.40915E-05   -0.10275E-04 10584   0.623E-04 0.644E-04
CGA:  17    -0.356473230715E+03   -0.27794E-04    0.15086E-04 10584   0.585E-04-0.232E-05
CGA:  18    -0.356473233305E+03   -0.25900E-05   -0.48542E-05 10584   0.191E-04 0.282E-04
   5 F= -.35647323E+03 E0= -.35647319E+03  d E =-.309264E+00  mag=    20.0000
       N       E                     dE             d eps       ncg     rms          ort
SDA:   1    -0.353643198884E+03    0.28300E+01    0.00000E+00 10584   0.900E+01 0.000E+00
CGA:   2    -0.355757905404E+03   -0.21147E+01   -0.21107E+01 10584   0.344E+01 0.400E-01
CGA:   3    -0.356256216104E+03   -0.49831E+00   -0.49758E+00 10584   0.184E+01-0.257E-01
CGA:   4    -0.356531504935E+03   -0.27529E+00   -0.27529E+00 10584   0.368E+00 0.785E-03
CGA:   5    -0.356589429648E+03   -0.57925E-01   -0.57930E-01 10584   0.127E+00 0.364E-02
CGA:   6    -0.356607925511E+03   -0.18496E-01   -0.18420E-01 10584   0.495E-01-0.466E-02
CGA:   7    -0.356615368266E+03   -0.74428E-02   -0.74458E-02 10584   0.169E-01 0.185E-02
CGA:   8    -0.356620086917E+03   -0.47187E-02   -0.48497E-02 10584   0.109E-01-0.111E-02
CGA:   9    -0.356621814786E+03   -0.17279E-02   -0.17256E-02 10584   0.661E-02 0.347E-03
CGA:  10    -0.356623027059E+03   -0.12123E-02   -0.12137E-02 10584   0.279E-02-0.105E-03
CGA:  11    -0.356623590290E+03   -0.56323E-03   -0.56446E-03 10584   0.126E-02-0.331E-04
CGA:  12    -0.356623771878E+03   -0.18159E-03   -0.18240E-03 10584   0.515E-03 0.407E-04
CGA:  13    -0.356623880455E+03   -0.10858E-03   -0.10910E-03 10584   0.190E-03-0.139E-04
CGA:  14    -0.356623918114E+03   -0.37659E-04   -0.57941E-04 10584   0.472E-03-0.139E-03
CGA:  15    -0.356623937438E+03   -0.19325E-04   -0.28756E-04 10584   0.488E-04 0.811E-04
CGA:  16    -0.356623941873E+03   -0.44348E-05   -0.59338E-05 10584   0.372E-04 0.229E-04
CGA:  17    -0.356623952956E+03   -0.11083E-04   -0.15680E-04 10584   0.442E-04-0.381E-04
CGA:  18    -0.356623956492E+03   -0.35363E-05   -0.44993E-05 10584   0.154E-04 0.136E-04
CGA:  19    -0.356623934758E+03    0.21734E-04   -0.15394E-04 10584   0.190E-03-0.627E-04
CGA:  20    -0.356623954122E+03   -0.19364E-04   -0.22393E-04 10584   0.627E-04 0.375E-04
CGA:  21    -0.356623968674E+03   -0.14552E-04   -0.14549E-04 10584   0.227E-04-0.252E-04
CGA:  22    -0.356623968637E+03    0.37267E-07   -0.75113E-06 10584   0.935E-05 0.566E-05
   6 F= -.35662397E+03 E0= -.35662393E+03  d E =-.150735E+00  mag=    20.0000
       N       E                     dE             d eps       ncg     rms          ort
SDA:   1    -0.352721238374E+03    0.39027E+01    0.00000E+00 10584   0.109E+02 0.000E+00
CGA:   2    -0.355556428637E+03   -0.28352E+01   -0.28290E+01 10584   0.497E+01 0.624E-01
CGA:   3    -0.356245944553E+03   -0.68952E+00   -0.67745E+00 10584   0.217E+01-0.489E-01
CGA:   4    -0.356579111939E+03   -0.33317E+00   -0.33407E+00 10584   0.410E+00 0.186E-01
CGA:   5    -0.356644265315E+03   -0.65153E-01   -0.65207E-01 10584   0.135E+00 0.195E-02
CGA:   6    -0.356663992367E+03   -0.19727E-01   -0.19591E-01 10584   0.565E-01-0.314E-02
CGA:   7    -0.356672163007E+03   -0.81706E-02   -0.82197E-02 10584   0.182E-01 0.149E-02
CGA:   8    -0.356677150535E+03   -0.49875E-02   -0.51689E-02 10584   0.113E-01-0.181E-02
CGA:   9    -0.356678947142E+03   -0.17966E-02   -0.18004E-02 10584   0.640E-02 0.748E-03
CGA:  10    -0.356680309423E+03   -0.13623E-02   -0.13759E-02 10584   0.362E-02-0.658E-03
CGA:  11    -0.356680791667E+03   -0.48224E-03   -0.49182E-03 10584   0.132E-02 0.308E-03
CGA:  12    -0.356681051542E+03   -0.25987E-03   -0.25970E-03 10584   0.436E-03 0.113E-03
CGA:  13    -0.356681162270E+03   -0.11073E-03   -0.15160E-03 10584   0.803E-03-0.293E-03
CGA:  14    -0.356681192430E+03   -0.30160E-04   -0.52394E-04 10584   0.115E-03 0.180E-03
CGA:  15    -0.356681200483E+03   -0.80529E-05   -0.13349E-04 10584   0.766E-04 0.609E-04
CGA:  16    -0.356681233850E+03   -0.33367E-04    0.29309E-04 10584   0.901E-04-0.147E-04
CGA:  17    -0.356681245321E+03   -0.11471E-04   -0.11674E-04 10584   0.258E-04 0.120E-04
CGA:  18    -0.356681243436E+03    0.18850E-05   -0.10290E-05 10584   0.151E-04 0.207E-04
   7 F= -.35668124E+03 E0= -.35668122E+03  d E =-.572748E-01  mag=    20.0000
       N       E                     dE             d eps       ncg     rms          ort
SDA:   1    -0.348643862286E+03    0.80374E+01    0.00000E+00 10584   0.210E+02 0.000E+00
CGA:   2    -0.354107905891E+03   -0.54640E+01   -0.54120E+01 10584   0.136E+02 0.468E+00
CGA:   3    -0.355848037612E+03   -0.17401E+01   -0.16945E+01 10584   0.371E+01-0.132E+00
CGA:   4    -0.356501421237E+03   -0.65338E+00   -0.65265E+00 10584   0.714E+00 0.423E-01
CGA:   5    -0.356621596249E+03   -0.12018E+00   -0.12018E+00 10584   0.225E+00-0.277E-02
CGA:   6    -0.356654205638E+03   -0.32609E-01   -0.32640E-01 10584   0.962E-01 0.116E-02
CGA:   7    -0.356668618763E+03   -0.14413E-01   -0.14424E-01 10584   0.358E-01 0.410E-03
CGA:   8    -0.356675904472E+03   -0.72857E-02   -0.74271E-02 10584   0.230E-01-0.332E-02
CGA:   9    -0.356678957988E+03   -0.30535E-02   -0.30842E-02 10584   0.941E-02 0.155E-02
CGA:  10    -0.356681454887E+03   -0.24969E-02   -0.26257E-02 10584   0.554E-02-0.135E-02
CGA:  11    -0.356682254003E+03   -0.79912E-03   -0.80010E-03 10584   0.218E-02 0.624E-03
CGA:  12    -0.356682722361E+03   -0.46836E-03   -0.47463E-03 10584   0.110E-02-0.245E-03
CGA:  13    -0.356682866061E+03   -0.14370E-03   -0.14578E-03 10584   0.435E-03 0.931E-04
CGA:  14    -0.356682963044E+03   -0.96983E-04   -0.99549E-04 10584   0.212E-03-0.640E-04
CGA:  15    -0.356683003407E+03   -0.40363E-04   -0.50449E-04 10584   0.330E-03-0.951E-04
CGA:  16    -0.356683027900E+03   -0.24492E-04   -0.20864E-04 10584   0.125E-03-0.582E-04
CGA:  17    -0.356683040846E+03   -0.12946E-04   -0.13029E-04 10584   0.123E-03 0.149E-05
CGA:  18    -0.356683061672E+03   -0.20826E-04   -0.20755E-04 10584   0.423E-04-0.147E-04
CGA:  19    -0.356683081675E+03   -0.20003E-04    0.57033E-05 10584   0.471E-04-0.959E-05
CGA:  20    -0.356683088309E+03   -0.66335E-05   -0.70952E-05 10584   0.247E-04-0.202E-04
   8 F= -.35668309E+03 E0= -.35668306E+03  d E =-.184487E-02  mag=    20.0000
       N       E                     dE             d eps       ncg     rms          ort
SDA:   1    -0.355087140085E+03    0.15959E+01    0.00000E+00 10584   0.394E+01 0.000E+00
CGA:   2    -0.356324250145E+03   -0.12371E+01   -0.12343E+01 10584   0.204E+01 0.182E-01
CGA:   3    -0.356591489088E+03   -0.26724E+00   -0.26476E+00 10584   0.697E+00-0.187E-01
CGA:   4    -0.356684933578E+03   -0.93444E-01   -0.94168E-01 10584   0.170E+00 0.106E-01
CGA:   5    -0.356711572870E+03   -0.26639E-01   -0.26620E-01 10584   0.477E-01-0.102E-02
CGA:   6    -0.356718888677E+03   -0.73158E-02   -0.73141E-02 10584   0.177E-01-0.150E-03
CGA:   7    -0.356721647209E+03   -0.27585E-02   -0.27587E-02 10584   0.739E-02-0.135E-04
CGA:   8    -0.356723015133E+03   -0.13679E-02   -0.13741E-02 10584   0.319E-02-0.333E-03
CGA:   9    -0.356723645256E+03   -0.63012E-03   -0.64430E-03 10584   0.226E-02-0.330E-03
CGA:  10    -0.356723915203E+03   -0.26995E-03   -0.27530E-03 10584   0.749E-03 0.150E-03
CGA:  11    -0.356724127985E+03   -0.21278E-03   -0.23830E-03 10584   0.461E-03-0.198E-03
CGA:  12    -0.356724143706E+03   -0.15721E-04   -0.28319E-04 10584   0.209E-03 0.137E-03
CGA:  13    -0.356724163325E+03   -0.19618E-04   -0.26379E-04 10584   0.104E-03 0.920E-04
CGA:  14    -0.356724185046E+03   -0.21721E-04   -0.42655E-04 10584   0.256E-03-0.176E-03
CGA:  15    -0.356724194347E+03   -0.93017E-05   -0.18731E-04 10584   0.629E-04 0.944E-04
   9 F= -.35672419E+03 E0= -.35672416E+03  d E =-.411060E-01  mag=    20.0000
       N       E                     dE             d eps       ncg     rms          ort
SDA:   1    -0.355853236979E+03    0.87095E+00    0.00000E+00 10584   0.226E+01 0.000E+00
CGA:   2    -0.356522169126E+03   -0.66893E+00   -0.66584E+00 10584   0.127E+01 0.218E-01
CGA:   3    -0.356667048886E+03   -0.14488E+00   -0.14092E+00 10584   0.425E+00-0.785E-02
CGA:   4    -0.356738414735E+03   -0.71366E-01   -0.71362E-01 10584   0.791E-01 0.604E-02
CGA:   5    -0.356750752017E+03   -0.12337E-01   -0.12364E-01 10584   0.275E-01 0.180E-02
CGA:   6    -0.356755037061E+03   -0.42850E-02   -0.42579E-02 10584   0.113E-01-0.163E-02
CGA:   7    -0.356756674929E+03   -0.16379E-02   -0.16447E-02 10584   0.333E-02 0.531E-03
CGA:   8    -0.356757459218E+03   -0.78429E-03   -0.78029E-03 10584   0.183E-02 0.673E-04
CGA:   9    -0.356757849013E+03   -0.38979E-03   -0.43109E-03 10584   0.251E-02-0.673E-03
CGA:  10    -0.356757981425E+03   -0.13241E-03   -0.14876E-03 10584   0.980E-03 0.204E-03
CGA:  11    -0.356758028939E+03   -0.47513E-04   -0.71858E-04 10584   0.492E-03 0.240E-03
CGA:  12    -0.356758102750E+03   -0.73812E-04   -0.78245E-04 10584   0.373E-03 0.125E-03
CGA:  13    -0.356758166038E+03   -0.63287E-04   -0.56003E-04 10584   0.184E-03-0.175E-03
CGA:  14    -0.356758173101E+03   -0.70629E-05   -0.90606E-05 10584   0.116E-03 0.298E-04
  10 F= -.35675817E+03 E0= -.35675814E+03  d E =-.339788E-01  mag=    20.0000
       N       E                     dE             d eps       ncg     rms          ort
SDA:   1    -0.355000886068E+03    0.17573E+01    0.00000E+00 10584   0.422E+01 0.000E+00
CGA:   2    -0.356321651536E+03   -0.13208E+01   -0.13108E+01 10584   0.283E+01 0.617E-01
CGA:   3    -0.356634236852E+03   -0.31259E+00   -0.30349E+00 10584   0.650E+00-0.210E-01
CGA:   4    -0.356742026788E+03   -0.10779E+00   -0.10764E+00 10584   0.155E+00 0.125E-01
CGA:   5    -0.356764455709E+03   -0.22429E-01   -0.22443E-01 10584   0.546E-01 0.943E-03
CGA:   6    -0.356772009812E+03   -0.75541E-02   -0.75393E-02 10584   0.178E-01-0.767E-03
CGA:   7    -0.356775097236E+03   -0.30874E-02   -0.30863E-02 10584   0.553E-02 0.376E-04
CGA:   8    -0.356776171838E+03   -0.10746E-02   -0.10780E-02 10584   0.319E-02-0.931E-04
CGA:   9    -0.356776694704E+03   -0.52287E-03   -0.52631E-03 10584   0.193E-02-0.351E-03
CGA:  10    -0.356776947868E+03   -0.25316E-03   -0.25606E-03 10584   0.552E-03 0.298E-03
CGA:  11    -0.356777130700E+03   -0.18283E-03   -0.23562E-03 10584   0.639E-03-0.250E-03
CGA:  12    -0.356777131164E+03   -0.46400E-06   -0.17577E-04 10584   0.373E-03 0.144E-03
CGA:  13    -0.356777133401E+03   -0.22374E-05   -0.22774E-04 10584   0.185E-03 0.181E-03
CGA:  14    -0.356777144407E+03   -0.11006E-04   -0.19537E-04 10584   0.123E-03 0.991E-04
CGA:  15    -0.356777200405E+03   -0.55998E-04    0.19380E-04 10584   0.996E-04-0.329E-04
CGA:  16    -0.356777204191E+03   -0.37864E-05   -0.63175E-05 10584   0.414E-04 0.381E-04
  11 F= -.35677720E+03 E0= -.35677716E+03  d E =-.190311E-01  mag=    20.0000
       N       E                     dE             d eps       ncg     rms          ort
SDA:   1    -0.340460563361E+03    0.16317E+02    0.00000E+00 10584   0.459E+02 0.000E+00
CGA:   2    -0.350072905244E+03   -0.96123E+01   -0.92605E+01 10584   0.289E+02 0.454E+01
CGA:   3    -0.354542756623E+03   -0.44699E+01   -0.44406E+01 10584   0.104E+02-0.199E+01
CGA:   4    -0.356045043642E+03   -0.15023E+01   -0.14974E+01 10584   0.193E+01 0.317E+00
CGA:   5    -0.356387204516E+03   -0.34216E+00   -0.34367E+00 10584   0.944E+00-0.423E-01
CGA:   6    -0.356488384939E+03   -0.10118E+00   -0.10217E+00 10584   0.212E+00 0.109E-01
CGA:   7    -0.356528931397E+03   -0.40546E-01   -0.40630E-01 10584   0.113E+00-0.185E-02
CGA:   8    -0.356546068566E+03   -0.17137E-01   -0.17141E-01 10584   0.589E-01-0.110E-02
CGA:   9    -0.356555563696E+03   -0.94951E-02   -0.95019E-02 10584   0.227E-01-0.576E-03
CGA:  10    -0.356560517766E+03   -0.49541E-02   -0.48739E-02 10584   0.121E-01 0.113E-02
CGA:  11    -0.356562800024E+03   -0.22823E-02   -0.23091E-02 10584   0.705E-02-0.922E-03
CGA:  12    -0.356563664877E+03   -0.86485E-03   -0.87946E-03 10584   0.176E-02 0.755E-03
CGA:  13    -0.356564141533E+03   -0.47666E-03   -0.47131E-03 10584   0.992E-03 0.554E-04
CGA:  14    -0.356564278809E+03   -0.13728E-03   -0.13591E-03 10584   0.488E-03-0.582E-04
CGA:  15    -0.356564372826E+03   -0.94017E-04   -0.93682E-04 10584   0.188E-03 0.457E-05
CGA:  16    -0.356564383538E+03   -0.10712E-04   -0.17462E-04 10584   0.958E-04 0.101E-03
CGA:  17    -0.356564418370E+03   -0.34833E-04    0.43190E-04 10584   0.487E-04 0.540E-04
CGA:  18    -0.356564428433E+03   -0.10063E-04   -0.91614E-05 10584   0.405E-04 0.270E-04
CGA:  19    -0.356564450196E+03   -0.21763E-04    0.44466E-05 10584   0.399E-04 0.113E-04
CGA:  20    -0.356564468636E+03   -0.18440E-04    0.26450E-04 10584   0.216E-04 0.387E-04
CGA:  21    -0.356564468104E+03    0.53211E-06   -0.11743E-05 10584   0.153E-04 0.166E-04
  12 F= -.35656447E+03 E0= -.35656438E+03  d E =0.212736E+00  mag=    20.0000
       N       E                     dE             d eps       ncg     rms          ort
SDA:   1    -0.353922034782E+03    0.26424E+01    0.00000E+00 10584   0.700E+01 0.000E+00
CGA:   2    -0.355969524522E+03   -0.20475E+01   -0.20218E+01 10584   0.405E+01 0.188E+00
CGA:   3    -0.356478794086E+03   -0.50927E+00   -0.49881E+00 10584   0.134E+01-0.398E-01
CGA:   4    -0.356708305262E+03   -0.22951E+00   -0.22936E+00 10584   0.344E+00 0.220E-01
CGA:   5    -0.356765979219E+03   -0.57674E-01   -0.57660E-01 10584   0.124E+00-0.378E-02
CGA:   6    -0.356780763304E+03   -0.14784E-01   -0.14862E-01 10584   0.439E-01 0.979E-03
CGA:   7    -0.356789587483E+03   -0.88242E-02   -0.88327E-02 10584   0.197E-01-0.269E-03
CGA:   8    -0.356793458195E+03   -0.38707E-02   -0.38653E-02 10584   0.102E-01 0.169E-03
CGA:   9    -0.356795222951E+03   -0.17648E-02   -0.17657E-02 10584   0.592E-02-0.409E-03
CGA:  10    -0.356796210285E+03   -0.98733E-03   -0.98614E-03 10584   0.189E-02 0.253E-03
CGA:  11    -0.356796671054E+03   -0.46077E-03   -0.52373E-03 10584   0.204E-02-0.651E-03
CGA:  12    -0.356796746731E+03   -0.75677E-04   -0.99577E-04 10584   0.708E-03 0.234E-03
CGA:  13    -0.356796777422E+03   -0.30691E-04   -0.52658E-04 10584   0.383E-03 0.213E-03
CGA:  14    -0.356796828973E+03   -0.51552E-04   -0.55797E-04 10584   0.214E-03 0.813E-04
CGA:  15    -0.356796870625E+03   -0.41651E-04   -0.45151E-04 10584   0.427E-03-0.287E-03
CGA:  16    -0.356796881890E+03   -0.11265E-04   -0.24842E-04 10584   0.742E-04 0.129E-03
CGA:  17    -0.356796885294E+03   -0.34039E-05   -0.69678E-05 10584   0.425E-04 0.419E-04
  13 F= -.35679689E+03 E0= -.35679681E+03  d E =-.232417E+00  mag=    20.0000
       N       E                     dE             d eps       ncg     rms          ort
SDA:   1    -0.356774711233E+03    0.22171E-01    0.00000E+00 10584   0.875E-01 0.000E+00
CGA:   2    -0.356795789255E+03   -0.21078E-01   -0.21560E-01 10584   0.909E-01-0.512E-02
CGA:   3    -0.356804319026E+03   -0.85298E-02   -0.86762E-02 10584   0.170E-01 0.156E-02
CGA:   4    -0.356807406478E+03   -0.30875E-02   -0.30692E-02 10584   0.547E-02 0.801E-03
CGA:   5    -0.356808190216E+03   -0.78374E-03   -0.77601E-03 10584   0.246E-02-0.383E-03
CGA:   6    -0.356808408756E+03   -0.21854E-03   -0.23597E-03 10584   0.537E-03 0.335E-03
CGA:   7    -0.356808488323E+03   -0.79566E-04   -0.81609E-04 10584   0.315E-03 0.111E-03
CGA:   8    -0.356808535352E+03   -0.47029E-04   -0.11768E-03 10584   0.106E-02-0.446E-03
CGA:   9    -0.356808588200E+03   -0.52848E-04   -0.72400E-04 10584   0.155E-03 0.212E-03
CGA:  10    -0.356808604044E+03   -0.15844E-04   -0.19152E-04 10584   0.623E-04 0.642E-04
CGA:  11    -0.356808618927E+03   -0.14883E-04   -0.16720E-04 10584   0.820E-04-0.484E-04
CGA:  12    -0.356808620342E+03   -0.14154E-05   -0.45110E-05 10584   0.186E-04 0.312E-04
  14 F= -.35680862E+03 E0= -.35680855E+03  d E =-.117350E-01  mag=    20.0000
       N       E                     dE             d eps       ncg     rms          ort
SDA:   1    -0.356500478749E+03    0.30814E+00    0.00000E+00 10584   0.817E+00 0.000E+00
CGA:   2    -0.356743220979E+03   -0.24274E+00   -0.24348E+00 10584   0.390E+00-0.494E-02
CGA:   3    -0.356802140054E+03   -0.58919E-01   -0.58918E-01 10584   0.148E+00-0.276E-02
CGA:   4    -0.356822240181E+03   -0.20100E-01   -0.20170E-01 10584   0.408E-01 0.396E-02
CGA:   5    -0.356828465192E+03   -0.62250E-02   -0.62247E-02 10584   0.118E-01-0.615E-04
CGA:   6    -0.356830285131E+03   -0.18199E-02   -0.18193E-02 10584   0.419E-02 0.187E-03
CGA:   7    -0.356831067361E+03   -0.78223E-03   -0.79392E-03 10584   0.246E-02-0.338E-03
CGA:   8    -0.356831431053E+03   -0.36369E-03   -0.36409E-03 10584   0.104E-02-0.558E-04
CGA:   9    -0.356831655658E+03   -0.22460E-03   -0.23713E-03 10584   0.618E-03-0.159E-03
CGA:  10    -0.356831712597E+03   -0.56939E-04   -0.62029E-04 10584   0.234E-03 0.129E-03
CGA:  11    -0.356831775586E+03   -0.62989E-04   -0.67415E-04 10584   0.134E-03-0.536E-04
CGA:  12    -0.356831787860E+03   -0.12274E-04   -0.12662E-04 10584   0.758E-04 0.103E-04
CGA:  13    -0.356831795434E+03   -0.75739E-05   -0.89317E-05 10584   0.262E-04 0.278E-04
  15 F= -.35683180E+03 E0= -.35683174E+03  d E =-.231751E-01  mag=    20.0000
       N       E                     dE             d eps       ncg     rms          ort
SDA:   1    -0.356809556899E+03    0.22231E-01    0.00000E+00 10584   0.744E-01 0.000E+00
CGA:   2    -0.356827727037E+03   -0.18170E-01   -0.18283E-01 10584   0.549E-01-0.128E-02
CGA:   3    -0.356834264751E+03   -0.65377E-02   -0.64909E-02 10584   0.171E-01-0.113E-02
CGA:   4    -0.356836716811E+03   -0.24521E-02   -0.24614E-02 10584   0.345E-02 0.814E-03
CGA:   5    -0.356837274738E+03   -0.55793E-03   -0.55897E-03 10584   0.782E-03 0.359E-03
CGA:   6    -0.356837427828E+03   -0.15309E-03   -0.15297E-03 10584   0.329E-03 0.559E-05
CGA:   7    -0.356837477130E+03   -0.49302E-04   -0.49369E-04 10584   0.144E-03 0.683E-05
CGA:   8    -0.356837507706E+03   -0.30576E-04   -0.45078E-04 10584   0.208E-03-0.975E-04
CGA:   9    -0.356837530122E+03   -0.22416E-04   -0.21757E-04 10584   0.583E-04-0.111E-04
CGA:  10    -0.356837534947E+03   -0.48252E-05   -0.57479E-05 10584   0.127E-04 0.159E-04
  16 F= -.35683753E+03 E0= -.35683747E+03  d E =-.573951E-02  mag=    20.0000
       N       E                     dE             d eps       ncg     rms          ort
SDA:   1    -0.356033011634E+03    0.80452E+00    0.00000E+00 10584   0.218E+01 0.000E+00
CGA:   2    -0.356586380225E+03   -0.55337E+00   -0.55346E+00 10584   0.137E+01-0.241E-02
CGA:   3    -0.356766815053E+03   -0.18043E+00   -0.17948E+00 10584   0.464E+00-0.693E-02
CGA:   4    -0.356832215669E+03   -0.65401E-01   -0.65612E-01 10584   0.107E+00 0.473E-02
CGA:   5    -0.356848648232E+03   -0.16433E-01   -0.16454E-01 10584   0.302E-01 0.123E-02
CGA:   6    -0.356853027262E+03   -0.43790E-02   -0.43827E-02 10584   0.112E-01 0.111E-03
CGA:   7    -0.356854748670E+03   -0.17214E-02   -0.17189E-02 10584   0.416E-02-0.166E-03
CGA:   8    -0.356855546197E+03   -0.79753E-03   -0.80359E-03 10584   0.186E-02-0.223E-03
CGA:   9    -0.356855905422E+03   -0.35923E-03   -0.37428E-03 10584   0.156E-02-0.359E-03
CGA:  10    -0.356856059086E+03   -0.15366E-03   -0.15830E-03 10584   0.454E-03 0.979E-04
CGA:  11    -0.356856178314E+03   -0.11923E-03   -0.12491E-03 10584   0.383E-03-0.640E-04
CGA:  12    -0.356856209235E+03   -0.30922E-04   -0.31651E-04 10584   0.133E-03 0.887E-05
CGA:  13    -0.356856227800E+03   -0.18565E-04   -0.19402E-04 10584   0.814E-04 0.298E-04
CGA:  14    -0.356856243202E+03   -0.15402E-04   -0.14753E-04 10584   0.505E-04-0.313E-04
CGA:  15    -0.356856086029E+03    0.15717E-03   -0.84853E-04 10584   0.128E-02-0.212E-03
CGA:  16    -0.356856183782E+03   -0.97753E-04   -0.11072E-03 10584   0.315E-03 0.556E-04
CGA:  17    -0.356856259684E+03   -0.75902E-04   -0.76039E-04 10584   0.488E-04 0.204E-05
CGA:  18    -0.356856273981E+03   -0.14298E-04   -0.14274E-04 10584   0.681E-04-0.187E-04
CGA:  19    -0.356856279892E+03   -0.59103E-05   -0.46047E-05 10584   0.264E-04-0.723E-05
  17 F= -.35685628E+03 E0= -.35685621E+03  d E =-.187449E-01  mag=    20.0000
       N       E                     dE             d eps       ncg     rms          ort
SDA:   1    -0.356664399971E+03    0.19187E+00    0.00000E+00 10584   0.461E+00 0.000E+00
CGA:   2    -0.356814016309E+03   -0.14962E+00   -0.14961E+00 10584   0.229E+00 0.805E-04
CGA:   3    -0.356845019031E+03   -0.31003E-01   -0.30645E-01 10584   0.729E-01-0.170E-02
CGA:   4    -0.356854662974E+03   -0.96439E-02   -0.98838E-02 10584   0.185E-01 0.152E-02
CGA:   5    -0.356857503721E+03   -0.28407E-02   -0.28383E-02 10584   0.559E-02-0.209E-04
CGA:   6    -0.356858373232E+03   -0.86951E-03   -0.85080E-03 10584   0.217E-02-0.178E-03
CGA:   7    -0.356858638593E+03   -0.26536E-03   -0.28667E-03 10584   0.692E-03 0.180E-03
CGA:   8    -0.356858837633E+03   -0.19904E-03   -0.20779E-03 10584   0.653E-03-0.283E-03
CGA:   9    -0.356858854476E+03   -0.16844E-04   -0.33857E-04 10584   0.328E-03 0.105E-03
CGA:  10    -0.356858873588E+03   -0.19111E-04   -0.34843E-04 10584   0.171E-03 0.106E-03
CGA:  11    -0.356858912577E+03   -0.38989E-04   -0.35764E-04 10584   0.101E-03-0.434E-04
CGA:  12    -0.356858922352E+03   -0.97756E-05   -0.10179E-04 10584   0.638E-04 0.422E-05
  18 F= -.35685892E+03 E0= -.35685885E+03  d E =-.264246E-02  mag=    20.0000
       N       E                     dE             d eps       ncg     rms          ort
SDA:   1    -0.356204301055E+03    0.65461E+00    0.00000E+00 10584   0.155E+01 0.000E+00
CGA:   2    -0.356697127794E+03   -0.49283E+00   -0.49213E+00 10584   0.909E+00 0.667E-02
CGA:   3    -0.356810264718E+03   -0.11314E+00   -0.11146E+00 10584   0.254E+00-0.515E-02
CGA:   4    -0.356845147117E+03   -0.34882E-01   -0.35364E-01 10584   0.614E-01 0.452E-02
CGA:   5    -0.356854967227E+03   -0.98201E-02   -0.97432E-02 10584   0.203E-01-0.126E-02
CGA:   6    -0.356857539675E+03   -0.25724E-02   -0.26225E-02 10584   0.701E-02 0.585E-03
CGA:   7    -0.356858670515E+03   -0.11308E-02   -0.11250E-02 10584   0.258E-02-0.121E-03
CGA:   8    -0.356859134780E+03   -0.46426E-03   -0.46255E-03 10584   0.119E-02-0.838E-04
CGA:   9    -0.356859323586E+03   -0.18881E-03   -0.18949E-03 10584   0.571E-03 0.167E-04
CGA:  10    -0.356859419408E+03   -0.95822E-04   -0.98665E-04 10584   0.205E-03 0.938E-04
CGA:  11    -0.356859484605E+03   -0.65197E-04   -0.69874E-04 10584   0.217E-03-0.503E-04
CGA:  12    -0.356859482128E+03    0.24778E-05   -0.88480E-05 10584   0.988E-04 0.754E-04
  19 F= -.35685948E+03 E0= -.35685940E+03  d E =-.559775E-03  mag=    20.0000
       N       E                     dE             d eps       ncg     rms          ort
SDA:   1    -0.347528485588E+03    0.93310E+01    0.00000E+00 10584   0.252E+02 0.000E+00
CGA:   2    -0.352855029916E+03   -0.53265E+01   -0.53252E+01 10584   0.217E+02 0.423E-01
CGA:   3    -0.355411551444E+03   -0.25565E+01   -0.26167E+01 10584   0.578E+01 0.116E+00
CGA:   4    -0.356309931425E+03   -0.89838E+00   -0.89282E+00 10584   0.169E+01-0.522E-01
CGA:   5    -0.356531840938E+03   -0.22191E+00   -0.22426E+00 10584   0.546E+00 0.171E-01
CGA:   6    -0.356605621159E+03   -0.73780E-01   -0.72819E-01 10584   0.163E+00-0.115E-01
CGA:   7    -0.356631736677E+03   -0.26116E-01   -0.26196E-01 10584   0.580E-01 0.388E-02
CGA:   8    -0.356641866889E+03   -0.10130E-01   -0.10126E-01 10584   0.328E-01-0.518E-03
CGA:   9    -0.356646903260E+03   -0.50364E-02   -0.50349E-02 10584   0.135E-01-0.171E-03
CGA:  10    -0.356649872647E+03   -0.29694E-02   -0.29708E-02 10584   0.659E-02-0.646E-04
CGA:  11    -0.356651161805E+03   -0.12892E-02   -0.13010E-02 10584   0.490E-02-0.635E-03
CGA:  12    -0.356651860382E+03   -0.69858E-03   -0.69244E-03 10584   0.162E-02-0.277E-03
CGA:  13    -0.356652176346E+03   -0.31596E-03   -0.31215E-03 10584   0.711E-03 0.147E-03
CGA:  14    -0.356652232930E+03   -0.56585E-04   -0.31106E-03 10584   0.456E-02-0.116E-02
CGA:  15    -0.356652422242E+03   -0.18931E-03   -0.27418E-03 10584   0.343E-03 0.602E-03
CGA:  16    -0.356652455160E+03   -0.32918E-04   -0.43199E-04 10584   0.230E-03 0.139E-03
CGA:  17    -0.356652250478E+03    0.20468E-03   -0.19840E-03 10584   0.306E-02-0.938E-03
CGA:  18    -0.356652447863E+03   -0.19738E-03   -0.25138E-03 10584   0.778E-03 0.429E-03
CGA:  19    -0.356652623843E+03   -0.17598E-03   -0.17597E-03 10584   0.969E-04 0.537E-05
CGA:  20    -0.356652673754E+03   -0.49911E-04    0.31953E-04 10584   0.170E-03-0.591E-04
CGA:  21    -0.356652668556E+03    0.51981E-05   -0.66840E-05 10584   0.372E-04 0.750E-04
  20 F= -.35665267E+03 E0= -.35665261E+03  d E =0.206814E+00  mag=    20.0000
       N       E                     dE             d eps       ncg     rms          ort
SDA:   1    -0.356553880502E+03    0.98793E-01    0.00000E+00 10584   0.430E+00 0.000E+00
CGA:   2    -0.356671085580E+03   -0.11721E+00   -0.11787E+00 10584   0.298E+00-0.708E-02
CGA:   3    -0.356707694154E+03   -0.36609E-01   -0.37004E-01 10584   0.895E-01 0.524E-02
CGA:   4    -0.356721556404E+03   -0.13862E-01   -0.13775E-01 10584   0.284E-01-0.259E-02
CGA:   5    -0.356725316920E+03   -0.37605E-02   -0.38079E-02 10584   0.786E-02 0.106E-02
CGA:   6    -0.356726517098E+03   -0.12002E-02   -0.12004E-02 10584   0.294E-02 0.240E-05
CGA:   7    -0.356727006871E+03   -0.48977E-03   -0.48818E-03 10584   0.138E-02-0.142E-03
CGA:   8    -0.356727250423E+03   -0.24355E-03   -0.24427E-03 10584   0.705E-03-0.812E-04
CGA:   9    -0.356727332595E+03   -0.82171E-04   -0.87425E-04 10584   0.258E-03 0.115E-03
CGA:  10    -0.356727407523E+03   -0.74928E-04   -0.96384E-04 10584   0.339E-03-0.147E-03
CGA:  11    -0.356727409782E+03   -0.22588E-05   -0.19907E-04 10584   0.868E-04 0.143E-03
  21 F= -.35672741E+03 E0= -.35672734E+03  d E =-.747412E-01  mag=    20.0000
       N       E                     dE             d eps       ncg     rms          ort
SDA:   1    -0.356721164533E+03    0.62430E-02    0.00000E+00 10584   0.844E-01 0.000E+00
CGA:   2    -0.356742466228E+03   -0.21302E-01   -0.21364E-01 10584   0.600E-01-0.764E-03
CGA:   3    -0.356750096295E+03   -0.76301E-02   -0.75824E-02 10584   0.212E-01-0.954E-03
CGA:   4    -0.356752886832E+03   -0.27905E-02   -0.28195E-02 10584   0.494E-02 0.760E-03
CGA:   5    -0.356753713232E+03   -0.82640E-03   -0.82716E-03 10584   0.136E-02 0.917E-04
CGA:   6    -0.356753895867E+03   -0.18264E-03   -0.18951E-03 10584   0.441E-03 0.210E-03
CGA:   7    -0.356754002488E+03   -0.10662E-03   -0.13631E-03 10584   0.811E-03-0.298E-03
CGA:   8    -0.356754036253E+03   -0.33765E-04   -0.51607E-04 10584   0.121E-03 0.161E-03
CGA:   9    -0.356754052759E+03   -0.16506E-04   -0.17901E-04 10584   0.666E-04 0.317E-04
CGA:  10    -0.356754050480E+03    0.22787E-05   -0.30928E-04 10584   0.599E-03-0.164E-03
CGA:  11    -0.356754067946E+03   -0.17466E-04   -0.33926E-04 10584   0.738E-04 0.137E-03
CGA:  12    -0.356754070715E+03   -0.27684E-05   -0.65233E-05 10584   0.375E-04 0.385E-04
CGA:  13    -0.356754084437E+03   -0.13722E-04    0.27380E-04 10584   0.366E-04-0.675E-05
CGA:  14    -0.356754083533E+03    0.90418E-06   -0.13698E-05 10584   0.186E-04 0.191E-04
  22 F= -.35675408E+03 E0= -.35675401E+03  d E =-.266738E-01  mag=    20.0000
       N       E                     dE             d eps       ncg     rms          ort
SDA:   1    -0.356162294725E+03    0.59179E+00    0.00000E+00 10584   0.174E+01 0.000E+00
CGA:   2    -0.356597364740E+03   -0.43507E+00   -0.43645E+00 10584   0.109E+01-0.138E-01
CGA:   3    -0.356750823608E+03   -0.15346E+00   -0.15367E+00 10584   0.396E+00 0.961E-02
CGA:   4    -0.356804620666E+03   -0.53797E-01   -0.53587E-01 10584   0.123E+00-0.605E-02
CGA:   5    -0.356821111607E+03   -0.16491E-01   -0.16563E-01 10584   0.306E-01 0.368E-02
CGA:   6    -0.356826289899E+03   -0.51783E-02   -0.51823E-02 10584   0.109E-01-0.393E-03
CGA:   7    -0.356827956436E+03   -0.16665E-02   -0.16665E-02 10584   0.514E-02 0.200E-04
CGA:   8    -0.356828904665E+03   -0.94823E-03   -0.96973E-03 10584   0.284E-02-0.642E-03
CGA:   9    -0.356829275329E+03   -0.37066E-03   -0.37211E-03 10584   0.110E-02 0.209E-03
CGA:  10    -0.356829545140E+03   -0.26981E-03   -0.29191E-03 10584   0.804E-03-0.241E-03
CGA:  11    -0.356829575027E+03   -0.29887E-04   -0.49869E-04 10584   0.335E-03 0.245E-03
CGA:  12    -0.356829598711E+03   -0.23683E-04   -0.36537E-04 10584   0.192E-03 0.175E-03
CGA:  13    -0.356828882059E+03    0.71665E-03   -0.38410E-03 10584   0.136E-01-0.112E-02
CGA:  14    -0.356829566074E+03   -0.68401E-03   -0.86651E-03 10584   0.419E-03 0.427E-03
CGA:  15    -0.356829621845E+03   -0.55770E-04   -0.67004E-04 10584   0.129E-03 0.990E-04
CGA:  16    -0.356829653641E+03   -0.31796E-04   -0.54337E-04 10584   0.786E-03-0.289E-03
CGA:  17    -0.356829659810E+03   -0.61689E-05   -0.45149E-04 10584   0.754E-04 0.182E-03
  23 F= -.35682966E+03 E0= -.35682957E+03  d E =-.755763E-01  mag=    20.0000
       N       E                     dE             d eps       ncg     rms          ort
SDA:   1    -0.356779929763E+03    0.49724E-01    0.00000E+00 10584   0.169E+00 0.000E+00
CGA:   2    -0.356820734750E+03   -0.40805E-01   -0.40800E-01 10584   0.938E-01-0.112E-02
CGA:   3    -0.356835816621E+03   -0.15082E-01   -0.15029E-01 10584   0.325E-01-0.659E-03
CGA:   4    -0.356840373395E+03   -0.45568E-02   -0.46343E-02 10584   0.841E-02 0.785E-03
CGA:   5    -0.356841654448E+03   -0.12811E-02   -0.12769E-02 10584   0.280E-02-0.438E-04
CGA:   6    -0.356841991758E+03   -0.33731E-03   -0.35954E-03 10584   0.790E-03 0.211E-03
CGA:   7    -0.356842169053E+03   -0.17729E-03   -0.17407E-03 10584   0.512E-03-0.147E-03
CGA:   8    -0.356842222107E+03   -0.53055E-04   -0.54653E-04 10584   0.212E-03 0.163E-04
CGA:   9    -0.356842267821E+03   -0.45714E-04   -0.45284E-04 10584   0.106E-03-0.315E-04
CGA:  10    -0.356842279172E+03   -0.11351E-04   -0.13142E-04 10584   0.507E-04 0.240E-04
CGA:  11    -0.356842282990E+03   -0.38177E-05   -0.64869E-05 10584   0.173E-04 0.237E-04
  24 F= -.35684228E+03 E0= -.35684219E+03  d E =-.126232E-01  mag=    20.0000
       N       E                     dE             d eps       ncg     rms          ort
SDA:   1    -0.355961706186E+03    0.88057E+00    0.00000E+00 10584   0.259E+01 0.000E+00
CGA:   2    -0.356524779844E+03   -0.56307E+00   -0.56322E+00 10584   0.153E+01-0.114E-01
CGA:   3    -0.356747710341E+03   -0.22293E+00   -0.22400E+00 10584   0.619E+00 0.558E-02
CGA:   4    -0.356830054228E+03   -0.82344E-01   -0.81373E-01 10584   0.174E+00-0.208E-02
CGA:   5    -0.356854785145E+03   -0.24731E-01   -0.24931E-01 10584   0.437E-01 0.301E-02
CGA:   6    -0.356862006572E+03   -0.72214E-02   -0.72054E-02 10584   0.143E-01-0.421E-03
CGA:   7    -0.356863988572E+03   -0.19820E-02   -0.20041E-02 10584   0.606E-02 0.375E-03
CGA:   8    -0.356865141128E+03   -0.11526E-02   -0.11463E-02 10584   0.314E-02-0.766E-03
CGA:   9    -0.356865545416E+03   -0.40429E-03   -0.41289E-03 10584   0.122E-02 0.198E-03
CGA:  10    -0.356865847156E+03   -0.30174E-03   -0.31254E-03 10584   0.801E-03-0.212E-03
CGA:  11    -0.356865896261E+03   -0.49105E-04   -0.68476E-04 10584   0.324E-03 0.215E-03
CGA:  12    -0.356865944792E+03   -0.48531E-04   -0.55080E-04 10584   0.157E-03 0.120E-03
CGA:  13    -0.356865987977E+03   -0.43185E-04   -0.46301E-04 10584   0.295E-03-0.105E-03
CGA:  14    -0.356865990356E+03   -0.23789E-05   -0.15888E-04 10584   0.596E-04 0.101E-03
  25 F= -.35686599E+03 E0= -.35686590E+03  d E =-.237074E-01  mag=    20.0000
       N       E                     dE             d eps       ncg     rms          ort
SDA:   1    -0.356828482667E+03    0.37505E-01    0.00000E+00 10584   0.110E+00 0.000E+00
CGA:   2    -0.356851580121E+03   -0.23097E-01   -0.23034E-01 10584   0.616E-01 0.179E-02
CGA:   3    -0.356861966363E+03   -0.10386E-01   -0.10378E-01 10584   0.260E-01-0.811E-03
CGA:   4    -0.356865209602E+03   -0.32432E-02   -0.32883E-02 10584   0.706E-02 0.879E-03
CGA:   5    -0.356866355873E+03   -0.11463E-02   -0.11342E-02 10584   0.262E-02-0.682E-03
CGA:   6    -0.356866634179E+03   -0.27831E-03   -0.28878E-03 10584   0.620E-03 0.206E-03
CGA:   7    -0.356866751304E+03   -0.11712E-03   -0.11728E-03 10584   0.253E-03-0.281E-04
CGA:   8    -0.356866779999E+03   -0.28695E-04   -0.31340E-04 10584   0.909E-04 0.660E-04
CGA:   9    -0.356866796164E+03   -0.16165E-04   -0.16703E-04 10584   0.329E-04 0.241E-04
CGA:  10    -0.356866806699E+03   -0.10535E-04   -0.10604E-04 10584   0.258E-04-0.805E-06
CGA:  11    -0.356866808304E+03   -0.16054E-05   -0.23128E-05 10584   0.116E-04 0.888E-05
  26 F= -.35686681E+03 E0= -.35686672E+03  d E =-.817948E-03  mag=    20.0000
       N       E                     dE             d eps       ncg     rms          ort
SDA:   1    -0.356855392282E+03    0.11414E-01    0.00000E+00 10584   0.354E-01 0.000E+00
CGA:   2    -0.356863217780E+03   -0.78255E-02   -0.78012E-02 10584   0.310E-01 0.481E-03
CGA:   3    -0.356867090049E+03   -0.38723E-02   -0.38056E-02 10584   0.780E-02-0.123E-02
CGA:   4    -0.356868155279E+03   -0.10652E-02   -0.10846E-02 10584   0.164E-02 0.692E-03
CGA:   5    -0.356868437925E+03   -0.28265E-03   -0.28234E-03 10584   0.628E-03-0.235E-04
CGA:   6    -0.356868487649E+03   -0.49724E-04   -0.59570E-04 10584   0.144E-03 0.132E-03
CGA:   7    -0.356868522525E+03   -0.34876E-04   -0.34787E-04 10584   0.865E-04 0.265E-05
CGA:   8    -0.356868526568E+03   -0.40423E-05   -0.29610E-04 10584   0.489E-03-0.153E-03
CGA:   9    -0.356868543033E+03   -0.16465E-04   -0.27880E-04 10584   0.452E-04 0.941E-04
CGA:  10    -0.356868544854E+03   -0.18214E-05   -0.39941E-05 10584   0.256E-04 0.225E-04
  27 F= -.35686854E+03 E0= -.35686846E+03  d E =-.173655E-02  mag=    20.0000
       N       E                     dE             d eps       ncg     rms          ort
SDA:   1    -0.356539759713E+03    0.32878E+00    0.00000E+00 10584   0.790E+00 0.000E+00
CGA:   2    -0.356790121531E+03   -0.25036E+00   -0.24990E+00 10584   0.422E+00 0.300E-02
CGA:   3    -0.356846802411E+03   -0.56681E-01   -0.56332E-01 10584   0.135E+00-0.727E-02
CGA:   4    -0.356863991493E+03   -0.17189E-01   -0.17430E-01 10584   0.293E-01 0.544E-02
CGA:   5    -0.356868890258E+03   -0.48988E-02   -0.48908E-02 10584   0.104E-01-0.945E-03
CGA:   6    -0.356870187190E+03   -0.12969E-02   -0.13128E-02 10584   0.347E-02 0.405E-03
CGA:   7    -0.356870759471E+03   -0.57228E-03   -0.57206E-03 10584   0.132E-02-0.299E-04
CGA:   8    -0.356871026962E+03   -0.26749E-03   -0.27674E-03 10584   0.737E-03-0.209E-03
CGA:   9    -0.356871110257E+03   -0.83294E-04   -0.84832E-04 10584   0.309E-03 0.475E-04
CGA:  10    -0.356871165744E+03   -0.55487E-04   -0.55376E-04 10584   0.104E-03 0.700E-04
CGA:  11    -0.356871208480E+03   -0.42736E-04    0.11918E-01 10584   0.566E-04 0.299E-04
CGA:  12    -0.356871210550E+03   -0.20696E-05   -0.57728E-05 10584   0.228E-04 0.422E-04
  28 F= -.35687121E+03 E0= -.35687113E+03  d E =-.266570E-02  mag=    20.0000
       N       E                     dE             d eps       ncg     rms          ort
SDA:   1    -0.356255225169E+03    0.61598E+00    0.00000E+00 10584   0.140E+01 0.000E+00
CGA:   2    -0.356745131633E+03   -0.48991E+00   -0.48753E+00 10584   0.655E+00 0.126E-01
CGA:   3    -0.356823207531E+03   -0.78076E-01   -0.76957E-01 10584   0.207E+00-0.134E-01
CGA:   4    -0.356853573735E+03   -0.30366E-01   -0.30454E-01 10584   0.400E-01 0.565E-02
CGA:   5    -0.356860481652E+03   -0.69079E-02   -0.69136E-02 10584   0.154E-01-0.114E-02
CGA:   6    -0.356862395156E+03   -0.19135E-02   -0.19233E-02 10584   0.557E-02 0.251E-03
CGA:   7    -0.356863291407E+03   -0.89625E-03   -0.89643E-03 10584   0.166E-02 0.488E-04
CGA:   8    -0.356863656983E+03   -0.36558E-03   -0.37114E-03 10584   0.924E-03-0.935E-04
CGA:   9    -0.356863790419E+03   -0.13344E-03   -0.13364E-03 10584   0.523E-03 0.163E-04
CGA:  10    -0.356863872216E+03   -0.81797E-04   -0.82540E-04 10584   0.168E-03 0.810E-04
CGA:  11    -0.356863475004E+03    0.39721E-03   -0.21688E-03 10584   0.483E-02-0.700E-03
CGA:  12    -0.356863722144E+03   -0.24714E-03   -0.36444E-03 10584   0.681E-03 0.473E-03
CGA:  13    -0.356863858295E+03   -0.13615E-03   -0.14003E-03 10584   0.226E-03 0.388E-04
CGA:  14    -0.356863921567E+03   -0.63271E-04   -0.74134E-04 10584   0.118E-02-0.389E-03
CGA:  15    -0.356863939794E+03   -0.18228E-04   -0.71496E-04 10584   0.819E-04 0.233E-03
CGA:  16    -0.356863934634E+03    0.51601E-05   -0.53335E-05 10584   0.377E-04 0.480E-04
CGA:  17    -0.356863865453E+03    0.69181E-04   -0.49230E-04 10584   0.532E-03-0.114E-03
CGA:  18    -0.356863904971E+03   -0.39518E-04   -0.62493E-04 10584   0.190E-03 0.116E-03
CGA:  19    -0.356863956550E+03   -0.51579E-04   -0.46795E-04 10584   0.297E-04-0.472E-04
CGA:  20    -0.356863958844E+03   -0.22939E-05   -0.21500E-05 10584   0.873E-05-0.748E-06
  29 F= -.35686396E+03 E0= -.35686386E+03  d E =0.725171E-02  mag=    20.0000
       N       E                     dE             d eps       ncg     rms          ort
SDA:   1    -0.350722187490E+03    0.61418E+01    0.00000E+00 10584   0.153E+02 0.000E+00
CGA:   2    -0.354697906161E+03   -0.39757E+01   -0.39940E+01 10584   0.138E+02 0.486E+00
CGA:   3    -0.356274861897E+03   -0.15770E+01   -0.12859E+01 10584   0.172E+01 0.281E+01
CGA:   4    -0.356623909242E+03   -0.34905E+00   -0.34448E+00 10584   0.138E+01-0.948E-02
CGA:   5    -0.356757803670E+03   -0.13389E+00   -0.13934E+00 10584   0.320E+00-0.156E-01
CGA:   6    -0.356800858073E+03   -0.43054E-01   -0.43737E-01 10584   0.162E+00 0.267E-02
CGA:   7    -0.356818477864E+03   -0.17620E-01   -0.17000E-01 10584   0.433E-01-0.207E-02
CGA:   8    -0.356826106764E+03   -0.76289E-02   -0.76239E-02 10584   0.257E-01-0.962E-04
CGA:   9    -0.356828612557E+03   -0.25058E-02   -0.27122E-02 10584   0.101E-01 0.130E-02
CGA:  10    -0.356830961020E+03   -0.23485E-02   -0.23517E-02 10584   0.679E-02 0.286E-03
CGA:  11    -0.356831986155E+03   -0.10251E-02   -0.95462E-03 10584   0.431E-02-0.730E-03
CGA:  12    -0.356832582564E+03   -0.59641E-03   -0.60856E-03 10584   0.142E-02 0.163E-03
CGA:  13    -0.356832706732E+03   -0.12417E-03   -0.16752E-03 10584   0.786E-03 0.388E-03
CGA:  14    -0.356832875865E+03   -0.16913E-03   -0.17184E-03 10584   0.272E-03 0.567E-04
CGA:  15    -0.356832926902E+03   -0.51038E-04   -0.11134E-03 10584   0.127E-02-0.367E-03
CGA:  16    -0.356832944319E+03   -0.17417E-04   -0.74528E-04 10584   0.152E-03 0.338E-03
CGA:  17    -0.356832939555E+03    0.47643E-05   -0.10569E-04 10584   0.769E-04 0.948E-04
CGA:  18    -0.356832976017E+03   -0.36462E-04    0.56974E-04 10584   0.366E-04 0.248E-04
CGA:  19    -0.356832974616E+03    0.14010E-05   -0.31347E-05 10584   0.165E-04 0.316E-04
  30 F= -.35683297E+03 E0= -.35683290E+03  d E =0.309842E-01  mag=    20.0000
       N       E                     dE             d eps       ncg     rms          ort
SDA:   1    -0.329218505463E+03    0.27614E+02    0.00000E+00 10584   0.242E+03 0.000E+00
CGA:   2    -0.337078938185E+03   -0.78604E+01   -0.24267E+02 10584   0.861E+02-0.113E+02
CGA:   3    -0.342967988270E+03   -0.58891E+01   -0.31792E+01 10584   0.505E+02 0.698E+02
CGA:   4    -0.345576740470E+03   -0.26088E+01   -0.13965E+01 10584   0.298E+02 0.423E+02
CGA:   5    -0.347157129969E+03   -0.15804E+01   -0.90764E+00 10584   0.168E+02 0.199E+02
CGA:   6    -0.351649173268E+03   -0.44920E+01   -0.48336E+01 10584   0.852E+02-0.249E+01
CGA:   7    -0.353650095255E+03   -0.20009E+01   -0.30902E+01 10584   0.131E+02-0.184E+02
CGA:   8    -0.354268744014E+03   -0.61865E+00   -0.67209E+00 10584   0.268E+01-0.272E+00
CGA:   9    -0.354646337484E+03   -0.37759E+00   -0.37741E+00 10584   0.265E+01-0.288E-02
CGA:  10    -0.354820497181E+03   -0.17416E+00   -0.19536E+00 10584   0.195E+01-0.139E+00
CGA:  11    -0.354935303983E+03   -0.11481E+00   -0.10541E+00 10584   0.587E+00 0.612E-01
CGA:  12    -0.355010327653E+03   -0.75024E-01   -0.74613E-01 10584   0.402E+00-0.102E-01
CGA:  13    -0.355036733566E+03   -0.26406E-01   -0.28208E-01 10584   0.337E+00-0.117E-02
CGA:  14    -0.355064959657E+03   -0.28226E-01   -0.27861E-01 10584   0.150E+00-0.485E-02
CGA:  15    -0.355083869731E+03   -0.18910E-01   -0.18852E-01 10584   0.607E-01-0.536E-02
CGA:  16    -0.355088612779E+03   -0.47430E-02   -0.48857E-02 10584   0.568E-01-0.453E-03
CGA:  17    -0.355095174773E+03   -0.65620E-02   -0.62760E-02 10584   0.444E-01-0.102E-01
CGA:  18    -0.355099320950E+03   -0.41462E-02   -0.40572E-02 10584   0.218E-01-0.433E-02
CGA:  19    -0.355102523534E+03   -0.32026E-02   -0.43388E-02 10584   0.518E-01-0.137E-01
CGA:  20    -0.355105373179E+03   -0.28496E-02   -0.30304E-02 10584   0.212E-01 0.118E-02
CGA:  21    -0.355108092880E+03   -0.27197E-02   -0.25941E-02 10584   0.220E-01-0.752E-02
CGA:  22    -0.355110877083E+03   -0.27842E-02   -0.40776E-02 10584   0.359E-01-0.882E-02
CGA:  23    -0.355113197390E+03   -0.23203E-02   -0.17876E-02 10584   0.241E-01-0.894E-02
CGA:  24    -0.355116208607E+03   -0.30112E-02   -0.34975E-02 10584   0.364E-01-0.998E-02
CGA:  25    -0.355030364496E+03    0.85844E-01   -0.47073E-01 10584   0.720E+00-0.136E+00
CGA:  26    -0.355111905348E+03   -0.81541E-01   -0.85996E-01 10584   0.151E+00 0.202E-02
CGA:  27    -0.355131962487E+03   -0.20057E-01   -0.19520E-01 10584   0.571E-01-0.348E-02
CGA:  28    -0.355138872126E+03   -0.69096E-02   -0.73590E-02 10584   0.276E-01 0.505E-02
CGA:  29    -0.355143332793E+03   -0.44607E-02   -0.47599E-02 10584   0.111E-01 0.328E-02
CGA:  30    -0.355145195794E+03   -0.18630E-02   -0.20919E-02 10584   0.903E-02 0.323E-02
CGA:  31    -0.355146539538E+03   -0.13437E-02   -0.17204E-02 10584   0.270E-02 0.424E-02
CGA:  32    -0.355146996391E+03   -0.45685E-03   -0.58239E-03 10584   0.223E-02 0.148E-02
CGA:  33    -0.355147051897E+03   -0.55506E-04   -0.17420E-03 10584   0.113E-02 0.812E-03
CGA:  34    -0.355147133800E+03   -0.81903E-04   -0.18811E-03 10584   0.127E-02 0.109E-02
CGA:  35    -0.355147250727E+03   -0.11693E-03   -0.15102E-03 10584   0.111E-02 0.355E-03
CGA:  36    -0.355147287016E+03   -0.36289E-04   -0.15705E-03 10584   0.946E-03 0.122E-02
CGA:  37    -0.355147304127E+03   -0.17110E-04   -0.80240E-04 10584   0.617E-03 0.528E-03
CGA:  38    -0.355147332861E+03   -0.28735E-04   -0.72367E-04 10584   0.579E-03 0.538E-03
CGA:  39    -0.355147336102E+03   -0.32407E-05   -0.54518E-04 10584   0.538E-03 0.513E-03
CGA:  40    -0.355147368530E+03   -0.32428E-04   -0.65149E-04 10584   0.517E-03 0.481E-03
CGA:  41    -0.355147361844E+03    0.66859E-05   -0.41626E-04 10584   0.479E-03 0.459E-03
CGA:  42    -0.355147394094E+03   -0.32250E-04   -0.58077E-04 10584   0.463E-03 0.436E-03
CGA:  43    -0.355147385203E+03    0.88914E-05   -0.34319E-04 10584   0.431E-03 0.418E-03
CGA:  44    -0.355147412875E+03   -0.27672E-04   -0.50127E-04 10584   0.415E-03 0.401E-03
CGA:  45    -0.355147406222E+03    0.66532E-05   -0.30400E-04 10584   0.392E-03 0.385E-03
CGA:  46    -0.355147429786E+03   -0.23564E-04   -0.43466E-04 10584   0.377E-03 0.370E-03
CGA:  47    -0.355147425727E+03    0.40591E-05   -0.27575E-04 10584   0.359E-03 0.356E-03
CGA:  48    -0.355147446610E+03   -0.20883E-04   -0.38343E-04 10584   0.346E-03 0.342E-03
CGA:  49    -0.355147444618E+03    0.19923E-05   -0.25206E-04 10584   0.332E-03 0.330E-03
CGA:  50    -0.355147464069E+03   -0.19451E-04   -0.34501E-04 10584   0.321E-03 0.319E-03
CGA:  51    -0.355147463622E+03    0.44602E-06   -0.23155E-04 10584   0.310E-03 0.308E-03
CGA:  52    -0.355147482672E+03   -0.19050E-04   -0.31703E-04 10584   0.300E-03 0.298E-03
CGA:  53    -0.355147483308E+03   -0.63504E-06   -0.21338E-04 10584   0.290E-03 0.289E-03
CGA:  54    -0.355147502829E+03   -0.19521E-04   -0.29767E-04 10584   0.283E-03 0.280E-03
CGA:  55    -0.355147504112E+03   -0.12832E-05   -0.19681E-04 10584   0.274E-03 0.272E-03
CGA:  56    -0.355147524870E+03   -0.20758E-04   -0.28558E-04 10584   0.268E-03 0.263E-03
CGA:  57    -0.355147526401E+03   -0.15312E-05   -0.18133E-04 10584   0.259E-03 0.256E-03
CGA:  58    -0.355147549069E+03   -0.22668E-04   -0.27969E-04 10584   0.255E-03 0.249E-03
CGA:  59    -0.355147550522E+03   -0.14523E-05   -0.16679E-04 10584   0.246E-03 0.242E-03
CGA:  60    -0.355147575649E+03   -0.25127E-04   -0.27888E-04 10584   0.244E-03 0.235E-03
CGA:  61    -0.355147576837E+03   -0.11885E-05   -0.15348E-04 10584   0.235E-03 0.230E-03
CGA:  62    -0.355147604844E+03   -0.28006E-04   -0.28213E-04 10584   0.235E-03 0.223E-03
CGA:  63    -0.355147605752E+03   -0.90792E-06   -0.14191E-04 10584   0.224E-03 0.218E-03
CGA:  64    -0.355147637092E+03   -0.31340E-04   -0.28931E-04 10584   0.226E-03 0.212E-03
CGA:  65    -0.355147637748E+03   -0.65628E-06   -0.13206E-04 10584   0.214E-03 0.207E-03
CGA:  66    -0.355147673233E+03   -0.35485E-04   -0.30206E-04 10584   0.219E-03 0.202E-03
CGA:  67    -0.355147673534E+03   -0.30094E-06   -0.12316E-04 10584   0.204E-03 0.197E-03
CGA:  68    -0.355147714442E+03   -0.40908E-04   -0.32266E-04 10584   0.213E-03 0.192E-03
CGA:  69    -0.355147714220E+03    0.22261E-06   -0.11488E-04 10584   0.194E-03 0.188E-03
CGA:  70    -0.355147762383E+03   -0.48163E-04   -0.35382E-04 10584   0.208E-03 0.182E-03
CGA:  71    -0.355147761531E+03    0.85165E-06   -0.10756E-04 10584   0.185E-03 0.178E-03
CGA:  72    -0.355147820271E+03   -0.58739E-04   -0.40317E-04 10584   0.206E-03 0.172E-03
CGA:  73    -0.355147818588E+03    0.16822E-05   -0.10105E-04 10584   0.176E-03 0.169E-03
CGA:  74    -0.355147893329E+03   -0.74741E-04   -0.48119E-04 10584   0.206E-03 0.163E-03
CGA:  75    -0.355147890842E+03    0.24867E-05   -0.96590E-05 10584   0.165E-03 0.159E-03
CGA:  76    -0.355148004043E+03   -0.11320E-03   -0.67783E-04 10584   0.232E-03 0.150E-03
CGA:  77    -0.355147999170E+03    0.48731E-05   -0.94087E-05 10584   0.153E-03 0.153E-03
CGA:  78    -0.355148089131E+03   -0.89961E-04   -0.54742E-04 10584   0.145E-03 0.149E-03
CGA:  79    -0.355148272919E+03   -0.18379E-03   -0.10148E-03 10584   0.131E-03 0.137E-03
CGA:  80    -0.355148527031E+03   -0.25411E-03   -0.24747E-02 10584   0.416E-03 0.111E-03
CGA:  81    -0.355148622581E+03   -0.95550E-04   -0.36916E-04 10584   0.593E-03-0.269E-03
CGA:  82    -0.355148610025E+03    0.12556E-04   -0.22248E-04 10584   0.113E-03 0.137E-03
CGA:  83    -0.355148610426E+03   -0.40088E-06   -0.13427E-04 10584   0.247E-03 0.682E-04
CGA:  84    -0.355148680068E+03   -0.69642E-04   -0.66683E-04 10584   0.445E-02-0.673E-03
CGA:  85    -0.355148737684E+03   -0.57616E-04   -0.16539E-03 10584   0.146E-03 0.525E-03
CGA:  86    -0.355148730212E+03    0.74723E-05   -0.83523E-05 10584   0.121E-03 0.746E-04
CGA:  87    -0.355148842349E+03   -0.11214E-03    0.18251E-04 10584   0.507E-03 0.203E-04
CGA:  88    -0.355149196489E+03   -0.35414E-03    0.39613E-03 10584   0.113E-03 0.497E-03
CGA:  89    -0.355149192861E+03    0.36284E-05   -0.88034E-05 10584   0.998E-04 0.711E-04
CGA:  90    -0.355149290411E+03   -0.97550E-04    0.11956E-04 10584   0.365E-03 0.221E-04
CGA:  91    -0.355149529083E+03   -0.23867E-03    0.52400E-03 10584   0.107E-03 0.345E-03
CGA:  92    -0.355149608343E+03   -0.79260E-04    0.25091E-04 10584   0.225E-03 0.177E-04
CGA:  93    -0.355149784098E+03   -0.17575E-03    0.84026E-04 10584   0.433E-03 0.314E-04
CGA:  94    -0.355150236122E+03   -0.45202E-03    0.67768E-04 10584   0.675E-03 0.251E-03
CGA:  95    -0.355150212220E+03    0.23902E-04   -0.29106E-04 10584   0.196E-03 0.270E-03
CGA:  96    -0.355150196830E+03    0.15390E-04   -0.13175E-04 10584   0.146E-03 0.155E-03
CGA:  97    -0.355150266892E+03   -0.70062E-04    0.22366E-03 10584   0.498E-03-0.682E-04
CGA:  98    -0.355150261245E+03    0.56466E-05   -0.12526E-04 10584   0.440E-03 0.100E-03
CGA:  99    -0.355150238587E+03    0.22658E-04   -0.15693E-04 10584   0.141E-03 0.207E-03
CGA: 100    -0.355150226950E+03    0.11637E-04   -0.64575E-05 10584   0.105E-03 0.103E-03
CGA: 101    -0.355150316832E+03   -0.89882E-04    0.87434E-05 10584   0.123E-03 0.305E-04
CGA: 102    -0.355150340909E+03   -0.24077E-04   -0.24257E-04 10584   0.142E-03 0.161E-05
CGA: 103    -0.355150479702E+03   -0.13879E-03    0.94946E-05 10584   0.135E-03 0.697E-04
CGA: 104    -0.355150598149E+03   -0.11845E-03    0.38480E-04 10584   0.119E-03 0.173E-03
CGA: 105    -0.355150593516E+03    0.46332E-05   -0.64466E-05 10584   0.723E-04 0.789E-04
CGA: 106    -0.355150619592E+03   -0.26075E-04   -0.22107E-04 10584   0.447E-04 0.328E-04
CGA: 107    -0.355150615822E+03    0.37699E-05   -0.36288E-05 10584   0.349E-04 0.534E-04
  31 F= -.35515062E+03 E0= -.35514511E+03  d E =0.168236E+01  mag=    19.9910
       N       E                     dE             d eps       ncg     rms          ort
SDA:   1    -0.345570547059E+03    0.95801E+01    0.00000E+00 10584   0.397E+02 0.000E+00
CGA:   2    -0.352305703491E+03   -0.67352E+01   -0.69077E+01 10584   0.119E+02 0.614E+01
CGA:   3    -0.355253582609E+03   -0.29479E+01   -0.29713E+01 10584   0.963E+01-0.526E+00
CGA:   4    -0.356095034972E+03   -0.84145E+00   -0.92788E+00 10584   0.192E+01-0.239E+00
CGA:   5    -0.356426428610E+03   -0.33139E+00   -0.33177E+00 10584   0.536E+00 0.339E-01
CGA:   6    -0.356514562794E+03   -0.88134E-01   -0.87998E-01 10584   0.298E+00-0.244E-02
CGA:   7    -0.356551023745E+03   -0.36461E-01   -0.37354E-01 10584   0.102E+00 0.107E-01
CGA:   8    -0.356569190534E+03   -0.18167E-01   -0.18167E-01 10584   0.101E+00 0.457E-03
CGA:   9    -0.356581361310E+03   -0.12171E-01   -0.12566E-01 10584   0.368E-01 0.535E-02
CGA:  10    -0.356587931217E+03   -0.65699E-02   -0.65785E-02 10584   0.262E-01 0.130E-02
CGA:  11    -0.356591749150E+03   -0.38179E-02   -0.39379E-02 10584   0.109E-01 0.372E-02
CGA:  12    -0.356593798229E+03   -0.20491E-02   -0.20799E-02 10584   0.776E-02 0.415E-02
CGA:  13    -0.356595301631E+03   -0.15034E-02   -0.15402E-02 10584   0.491E-02 0.122E-02
CGA:  14    -0.356596033133E+03   -0.73150E-03   -0.81281E-03 10584   0.339E-02 0.253E-02
CGA:  15    -0.356596428907E+03   -0.39577E-03   -0.43272E-03 10584   0.209E-02 0.847E-03
CGA:  16    -0.356596822796E+03   -0.39389E-03   -0.40954E-03 10584   0.141E-02 0.125E-02
CGA:  17    -0.356597169160E+03   -0.34636E-03   -0.35845E-03 10584   0.342E-02-0.155E-03
CGA:  18    -0.356597413696E+03   -0.24454E-03   -0.34760E-03 10584   0.251E-02 0.162E-02
CGA:  19    -0.356597570075E+03   -0.15638E-03   -0.31345E-03 10584   0.150E-02 0.169E-02
CGA:  20    -0.356597808020E+03   -0.23794E-03   -0.23513E-03 10584   0.203E-02-0.316E-03
CGA:  21    -0.356597912966E+03   -0.10495E-03   -0.15402E-03 10584   0.111E-02 0.678E-03
CGA:  22    -0.356597939533E+03   -0.26567E-04   -0.93223E-04 10584   0.720E-03 0.634E-03
CGA:  23    -0.356598085011E+03   -0.14548E-03   -0.14147E-03 10584   0.900E-03 0.943E-04
CGA:  24    -0.356598131924E+03   -0.46913E-04   -0.90052E-04 10584   0.457E-03 0.591E-03
CGA:  25    -0.356598174499E+03   -0.42575E-04   -0.53938E-04 10584   0.323E-03 0.303E-03
CGA:  26    -0.356598271282E+03   -0.96783E-04   -0.80795E-04 10584   0.612E-03 0.158E-03
CGA:  27    -0.356598346971E+03   -0.75689E-04   -0.10585E-03 10584   0.237E-03 0.687E-03
CGA:  28    -0.356598370252E+03   -0.23280E-04   -0.29693E-04 10584   0.206E-03 0.207E-03
CGA:  29    -0.356598420843E+03   -0.50592E-04   -0.41833E-04 10584   0.217E-03 0.177E-03
CGA:  30    -0.356598423464E+03   -0.26202E-05   -0.16355E-04 10584   0.180E-03 0.167E-03
CGA:  31    -0.356598471366E+03   -0.47902E-04   -0.38313E-04 10584   0.193E-03 0.155E-03
CGA:  32    -0.356598471709E+03   -0.34293E-06   -0.13355E-04 10584   0.156E-03 0.148E-03
CGA:  33    -0.356598507746E+03   -0.36037E-04   -0.30069E-04 10584   0.154E-03 0.142E-03
CGA:  34    -0.356598510570E+03   -0.28245E-05   -0.12499E-04 10584   0.139E-03 0.133E-03
CGA:  35    -0.356598546016E+03   -0.35446E-04   -0.28538E-04 10584   0.146E-03 0.122E-03
CGA:  36    -0.356598545470E+03    0.54622E-06   -0.96626E-05 10584   0.121E-03 0.117E-03
CGA:  37    -0.356598569550E+03   -0.24080E-04   -0.21093E-04 10584   0.116E-03 0.113E-03
CGA:  38    -0.356598572644E+03   -0.30937E-05   -0.99193E-05 10584   0.108E-03 0.106E-03
CGA:  39    -0.356598597048E+03   -0.24404E-04   -0.20314E-04 10584   0.109E-03 0.977E-04
CGA:  40    -0.356598596769E+03    0.27952E-06   -0.73412E-05 10584   0.956E-04 0.934E-04
CGA:  41    -0.356598614019E+03   -0.17250E-04   -0.15570E-04 10584   0.913E-04 0.897E-04
CGA:  42    -0.356598615863E+03   -0.18444E-05   -0.73676E-05 10584   0.859E-04 0.847E-04
CGA:  43    -0.356598631725E+03   -0.15862E-04   -0.14083E-04 10584   0.830E-04 0.797E-04
CGA:  44    -0.356598632201E+03   -0.47655E-06   -0.59488E-05 10584   0.769E-04 0.759E-04
CGA:  45    -0.356598644507E+03   -0.12306E-04   -0.11537E-04 10584   0.734E-04 0.725E-04
CGA:  46    -0.356598645600E+03   -0.10934E-05   -0.55646E-05 10584   0.693E-04 0.690E-04
  32 F= -.35659865E+03 E0= -.35659797E+03  d E =-.144803E+01  mag=    20.0000
       N       E                     dE             d eps       ncg     rms          ort
SDA:   1    -0.356015420481E+03    0.58322E+00    0.00000E+00 10584   0.181E+01 0.000E+00
CGA:   2    -0.356563341437E+03   -0.54792E+00   -0.55294E+00 10584   0.115E+01-0.310E-01
CGA:   3    -0.356683130140E+03   -0.11979E+00   -0.12092E+00 10584   0.319E+00 0.134E-01
CGA:   4    -0.356744263787E+03   -0.61134E-01   -0.61115E-01 10584   0.800E-01 0.434E-03
CGA:   5    -0.356755287600E+03   -0.11024E-01   -0.11030E-01 10584   0.343E-01 0.669E-03
CGA:   6    -0.356759878350E+03   -0.45908E-02   -0.45917E-02 10584   0.980E-02 0.270E-04
CGA:   7    -0.356761785177E+03   -0.19068E-02   -0.18738E-02 10584   0.471E-02 0.694E-03
CGA:   8    -0.356762765692E+03   -0.98051E-03   -0.10978E-02 10584   0.627E-02-0.167E-02
CGA:   9    -0.356763129905E+03   -0.36421E-03   -0.39715E-03 10584   0.258E-02 0.608E-03
CGA:  10    -0.356763261713E+03   -0.13181E-03   -0.18968E-03 10584   0.121E-02 0.700E-03
CGA:  11    -0.356763427254E+03   -0.16554E-03   -0.17709E-03 10584   0.906E-03 0.398E-03
CGA:  12    -0.356763590887E+03   -0.16363E-03   -0.16055E-03 10584   0.660E-03-0.336E-03
CGA:  13    -0.356763616426E+03   -0.25540E-04   -0.32849E-04 10584   0.480E-03 0.113E-03
CGA:  14    -0.356763626670E+03   -0.10244E-04   -0.30219E-04 10584   0.227E-03 0.230E-03
CGA:  15    -0.356763633254E+03   -0.65835E-05   -0.19406E-04 10584   0.158E-03 0.165E-03
CGA:  16    -0.356763678577E+03   -0.45323E-04    0.10463E-03 10584   0.954E-04 0.512E-04
CGA:  17    -0.356763689512E+03   -0.10935E-04   -0.12957E-04 10584   0.352E-04 0.706E-04
CGA:  18    -0.356763688772E+03    0.74020E-06   -0.17592E-05 10584   0.296E-04 0.313E-04
  33 F= -.35676369E+03 E0= -.35676350E+03  d E =-.165043E+00  mag=    20.0000
       N       E                     dE             d eps       ncg     rms          ort
SDA:   1    -0.356169911505E+03    0.59378E+00    0.00000E+00 10584   0.163E+01 0.000E+00
CGA:   2    -0.356638592514E+03   -0.46868E+00   -0.47198E+00 10584   0.113E+01-0.205E-01
CGA:   3    -0.356761688840E+03   -0.12310E+00   -0.12334E+00 10584   0.306E+00 0.523E-02
CGA:   4    -0.356818535311E+03   -0.56846E-01   -0.56769E-01 10584   0.679E-01 0.144E-02
CGA:   5    -0.356830932768E+03   -0.12397E-01   -0.12336E-01 10584   0.175E-01 0.128E-02
CGA:   6    -0.356834217680E+03   -0.32849E-02   -0.32931E-02 10584   0.810E-02-0.172E-03
CGA:   7    -0.356835637571E+03   -0.14199E-02   -0.14441E-02 10584   0.509E-02-0.585E-03
CGA:   8    -0.356836422719E+03   -0.78515E-03   -0.79232E-03 10584   0.211E-02-0.266E-03
CGA:   9    -0.356836805901E+03   -0.38318E-03   -0.37232E-03 10584   0.828E-03 0.240E-03
CGA:  10    -0.356836994517E+03   -0.18862E-03   -0.19429E-03 10584   0.659E-03-0.861E-04
CGA:  11    -0.356837037765E+03   -0.43248E-04   -0.53911E-04 10584   0.199E-03 0.189E-03
CGA:  12    -0.356837053992E+03   -0.16227E-04   -0.22142E-04 10584   0.123E-03 0.102E-03
CGA:  13    -0.356836994303E+03    0.59689E-04   -0.70127E-04 10584   0.207E-02-0.304E-03
CGA:  14    -0.356837091207E+03   -0.96904E-04   -0.12469E-03 10584   0.780E-04 0.256E-03
CGA:  15    -0.356837091979E+03   -0.77115E-06   -0.51686E-05 10584   0.359E-04 0.443E-04
  34 F= -.35683709E+03 E0= -.35683702E+03  d E =-.734032E-01  mag=    20.0000
       N       E                     dE             d eps       ncg     rms          ort
SDA:   1    -0.356690512834E+03    0.14658E+00    0.00000E+00 10584   0.426E+00 0.000E+00
CGA:   2    -0.356806180613E+03   -0.11567E+00   -0.11667E+00 10584   0.287E+00-0.849E-02
CGA:   3    -0.356839769337E+03   -0.33589E-01   -0.33688E-01 10584   0.966E-01 0.189E-02
CGA:   4    -0.356854693759E+03   -0.14924E-01   -0.14921E-01 10584   0.261E-01-0.648E-03
CGA:   5    -0.356858627818E+03   -0.39341E-02   -0.39421E-02 10584   0.644E-02 0.127E-02
CGA:   6    -0.356859766342E+03   -0.11385E-02   -0.11422E-02 10584   0.304E-02-0.325E-03
CGA:   7    -0.356860168644E+03   -0.40230E-03   -0.40409E-03 10584   0.129E-02 0.903E-04
CGA:   8    -0.356860474187E+03   -0.30554E-03   -0.36852E-03 10584   0.114E-02-0.527E-03
CGA:   9    -0.356860546265E+03   -0.72078E-04   -0.75526E-04 10584   0.539E-03 0.660E-04
CGA:  10    -0.356860622617E+03   -0.76352E-04   -0.78037E-04 10584   0.249E-03 0.698E-04
CGA:  11    -0.356860662697E+03   -0.40080E-04   -0.39418E-04 10584   0.171E-03-0.338E-04
CGA:  12    -0.356860669560E+03   -0.68629E-05   -0.11999E-04 10584   0.836E-04 0.658E-04
  35 F= -.35686067E+03 E0= -.35686060E+03  d E =-.235776E-01  mag=    20.0000
       N       E                     dE             d eps       ncg     rms          ort
SDA:   1    -0.356686513425E+03    0.17415E+00    0.00000E+00 10584   0.486E+00 0.000E+00
CGA:   2    -0.356807307211E+03   -0.12079E+00   -0.12134E+00 10584   0.312E+00-0.545E-02
CGA:   3    -0.356849524318E+03   -0.42217E-01   -0.42249E-01 10584   0.116E+00 0.822E-03
CGA:   4    -0.356865559715E+03   -0.16035E-01   -0.16012E-01 10584   0.333E-01-0.103E-02
CGA:   5    -0.356870183989E+03   -0.46243E-02   -0.46413E-02 10584   0.799E-02 0.131E-02
CGA:   6    -0.356871612001E+03   -0.14280E-02   -0.14376E-02 10584   0.317E-02-0.470E-03
CGA:   7    -0.356871984264E+03   -0.37226E-03   -0.38090E-03 10584   0.122E-02 0.329E-03
CGA:   8    -0.356872284098E+03   -0.29983E-03   -0.37110E-03 10584   0.121E-02-0.582E-03
CGA:   9    -0.356872349781E+03   -0.65683E-04   -0.67180E-04 10584   0.631E-03 0.275E-04
CGA:  10    -0.356872423588E+03   -0.73808E-04   -0.76592E-04 10584   0.328E-03 0.745E-04
CGA:  11    -0.356872477838E+03   -0.54250E-04   -0.53575E-04 10584   0.218E-03-0.872E-04
CGA:  12    -0.356872489074E+03   -0.11236E-04   -0.14516E-04 10584   0.118E-03 0.522E-04
CGA:  13    -0.356872494356E+03   -0.52814E-05   -0.99221E-05 10584   0.545E-04 0.560E-04
  36 F= -.35687249E+03 E0= -.35687243E+03  d E =-.118248E-01  mag=    20.0000
       N       E                     dE             d eps       ncg     rms          ort
SDA:   1    -0.356755002564E+03    0.11749E+00    0.00000E+00 10584   0.330E+00 0.000E+00
CGA:   2    -0.356831491283E+03   -0.76489E-01   -0.76555E-01 10584   0.193E+00-0.756E-03
CGA:   3    -0.356862268436E+03   -0.30777E-01   -0.30779E-01 10584   0.699E-01-0.167E-03
CGA:   4    -0.356871661153E+03   -0.93927E-02   -0.93903E-02 10584   0.203E-01-0.193E-03
CGA:   5    -0.356874348262E+03   -0.26871E-02   -0.26895E-02 10584   0.537E-02 0.139E-03
CGA:   6    -0.356875191347E+03   -0.84308E-03   -0.84326E-03 10584   0.157E-02-0.233E-04
CGA:   7    -0.356875446281E+03   -0.25493E-03   -0.25453E-03 10584   0.660E-03 0.264E-04
CGA:   8    -0.356875563653E+03   -0.11737E-03   -0.12007E-03 10584   0.387E-03-0.904E-04
CGA:   9    -0.356875608064E+03   -0.44410E-04   -0.44787E-04 10584   0.119E-03 0.224E-04
CGA:  10    -0.356875632036E+03   -0.23973E-04   -0.55411E-04 10584   0.235E-03-0.109E-03
CGA:  11    -0.356875645792E+03   -0.13756E-04   -0.19867E-04 10584   0.566E-04 0.766E-04
CGA:  12    -0.356875658261E+03   -0.12468E-04   -0.12547E-04 10584   0.164E-04-0.111E-04
CGA:  13    -0.356875662783E+03   -0.45225E-05    0.15312E-04 10584   0.797E-05 0.439E-05
  37 F= -.35687566E+03 E0= -.35687559E+03  d E =-.316843E-02  mag=    20.0000
       N       E                     dE             d eps       ncg     rms          ort
SDA:   1    -0.356677173418E+03    0.19848E+00    0.00000E+00 10584   0.483E+00 0.000E+00
CGA:   2    -0.356817091251E+03   -0.13992E+00   -0.13921E+00 10584   0.246E+00 0.529E-02
CGA:   3    -0.356854893166E+03   -0.37802E-01   -0.37791E-01 10584   0.811E-01-0.113E-02
CGA:   4    -0.356866050535E+03   -0.11157E-01   -0.11148E-01 10584   0.229E-01-0.458E-03
CGA:   5    -0.356869099561E+03   -0.30490E-02   -0.30392E-02 10584   0.699E-02-0.371E-03
CGA:   6    -0.356870154428E+03   -0.10549E-02   -0.10520E-02 10584   0.253E-02-0.467E-03
CGA:   7    -0.356870417189E+03   -0.26276E-03   -0.28187E-03 10584   0.738E-03 0.482E-03
CGA:   8    -0.356870600642E+03   -0.18345E-03   -0.18584E-03 10584   0.375E-03-0.443E-04
CGA:   9    -0.356870644202E+03   -0.43560E-04   -0.46639E-04 10584   0.173E-03 0.112E-03
CGA:  10    -0.356870686774E+03   -0.42572E-04   -0.42347E-04 10584   0.988E-04 0.721E-05
CGA:  11    -0.356870726658E+03   -0.39884E-04    0.38880E-04 10584   0.563E-04 0.211E-04
CGA:  12    -0.356870734835E+03   -0.81774E-05   -0.87962E-05 10584   0.192E-04 0.197E-04
  38 F= -.35687073E+03 E0= -.35687066E+03  d E =0.492795E-02  mag=    20.0000
       N       E                     dE             d eps       ncg     rms          ort
SDA:   1    -0.356612589339E+03    0.25814E+00    0.00000E+00 10584   0.600E+00 0.000E+00
CGA:   2    -0.356800369865E+03   -0.18778E+00   -0.18614E+00 10584   0.262E+00 0.108E-01
CGA:   3    -0.356840346316E+03   -0.39976E-01   -0.39856E-01 10584   0.113E+00-0.591E-02
CGA:   4    -0.356853549610E+03   -0.13203E-01   -0.13314E-01 10584   0.229E-01 0.139E-02
CGA:   5    -0.356857164713E+03   -0.36151E-02   -0.36024E-02 10584   0.777E-02-0.137E-02
CGA:   6    -0.356858231469E+03   -0.10668E-02   -0.10675E-02 10584   0.283E-02 0.362E-04
CGA:   7    -0.356858601286E+03   -0.36982E-03   -0.37580E-03 10584   0.891E-03 0.191E-03
CGA:   8    -0.356858771494E+03   -0.17021E-03   -0.16808E-03 10584   0.330E-03 0.139E-03
CGA:   9    -0.356858864103E+03   -0.92609E-04   -0.91711E-04 10584   0.245E-03 0.111E-04
CGA:  10    -0.356858887716E+03   -0.23613E-04   -0.28104E-04 10584   0.102E-03 0.807E-04
CGA:  11    -0.356858923917E+03   -0.36201E-04   -0.38444E-04 10584   0.930E-04-0.186E-04
CGA:  12    -0.356858936959E+03   -0.13042E-04   -0.13423E-04 10584   0.115E-03-0.525E-04
CGA:  13    -0.356858941076E+03   -0.41167E-05   -0.76507E-05 10584   0.255E-04 0.341E-04
  39 F= -.35685894E+03 E0= -.35685886E+03  d E =0.117938E-01  mag=    20.0000
       N       E                     dE             d eps       ncg     rms          ort
SDA:   1    -0.356372954014E+03    0.48598E+00    0.00000E+00 10584   0.115E+01 0.000E+00
CGA:   2    -0.356730277543E+03   -0.35732E+00   -0.35467E+00 10584   0.478E+00 0.178E-01
CGA:   3    -0.356803399111E+03   -0.73122E-01   -0.72846E-01 10584   0.235E+00-0.111E-01
CGA:   4    -0.356829801758E+03   -0.26403E-01   -0.26663E-01 10584   0.410E-01 0.208E-02
CGA:   5    -0.356836284578E+03   -0.64828E-02   -0.64695E-02 10584   0.137E-01-0.144E-02
CGA:   6    -0.356838414203E+03   -0.21296E-02   -0.21283E-02 10584   0.513E-02-0.348E-03
CGA:   7    -0.356839020500E+03   -0.60630E-03   -0.62477E-03 10584   0.158E-02 0.456E-03
CGA:   8    -0.356839356186E+03   -0.33569E-03   -0.32954E-03 10584   0.612E-03 0.218E-03
CGA:   9    -0.356839551377E+03   -0.19519E-03   -0.21225E-03 10584   0.698E-03-0.122E-03
CGA:  10    -0.356839574326E+03   -0.22949E-04   -0.42232E-04 10584   0.315E-03 0.200E-03
CGA:  11    -0.356839595295E+03   -0.20969E-04   -0.33601E-04 10584   0.210E-03 0.151E-03
CGA:  12    -0.356839650736E+03   -0.55440E-04   -0.56776E-04 10584   0.113E-03-0.655E-04
CGA:  13    -0.356839685209E+03   -0.34473E-04    0.18049E-04 10584   0.114E-03-0.273E-04
CGA:  14    -0.356839689127E+03   -0.39178E-05   -0.64059E-05 10584   0.583E-04 0.276E-04
  40 F= -.35683969E+03 E0= -.35683962E+03  d E =0.192519E-01  mag=    20.0000
       N       E                     dE             d eps       ncg     rms          ort
SDA:   1    -0.354642027458E+03    0.21977E+01    0.00000E+00 10584   0.533E+01 0.000E+00
CGA:   2    -0.356237786574E+03   -0.15958E+01   -0.15809E+01 10584   0.304E+01 0.101E+00
CGA:   3    -0.356593502906E+03   -0.35572E+00   -0.34813E+00 10584   0.972E+00-0.410E-01
CGA:   4    -0.356757309511E+03   -0.16381E+00   -0.16364E+00 10584   0.143E+00 0.854E-02
CGA:   5    -0.356777924728E+03   -0.20615E-01   -0.20571E-01 10584   0.802E-01-0.254E-02
CGA:   6    -0.356788547521E+03   -0.10623E-01   -0.10631E-01 10584   0.164E-01 0.281E-03
CGA:   7    -0.356791670059E+03   -0.31225E-02   -0.30918E-02 10584   0.596E-02 0.967E-03
CGA:   8    -0.356793067715E+03   -0.13977E-02   -0.13910E-02 10584   0.396E-02 0.103E-03
CGA:   9    -0.356793611621E+03   -0.54391E-03   -0.55596E-03 10584   0.174E-02 0.508E-03
CGA:  10    -0.356794083261E+03   -0.47164E-03   -0.45794E-03 10584   0.815E-03 0.185E-03
CGA:  11    -0.356794291584E+03   -0.20832E-03   -0.34359E-03 10584   0.214E-02-0.625E-03
CGA:  12    -0.356794370555E+03   -0.78971E-04   -0.13022E-03 10584   0.245E-03 0.440E-03
CGA:  13    -0.356794381665E+03   -0.11110E-04   -0.23131E-04 10584   0.142E-03 0.133E-03
CGA:  14    -0.356794433187E+03   -0.51522E-04    0.11445E-03 10584   0.119E-03 0.379E-05
CGA:  15    -0.356794438221E+03   -0.50347E-05   -0.10057E-04 10584   0.352E-04 0.612E-04
  41 F= -.35679444E+03 E0= -.35679436E+03  d E =0.452509E-01  mag=    20.0000
       N       E                     dE             d eps       ncg     rms          ort
SDA:   1    -0.348306572632E+03    0.84879E+01    0.00000E+00 10584   0.221E+02 0.000E+00
CGA:   2    -0.353614243867E+03   -0.53077E+01   -0.51851E+01 10584   0.174E+02 0.125E+01
CGA:   3    -0.355886341595E+03   -0.22721E+01   -0.22048E+01 10584   0.355E+01-0.288E+00
CGA:   4    -0.356542738830E+03   -0.65640E+00   -0.65399E+00 10584   0.832E+00 0.530E-01
CGA:   5    -0.356642867936E+03   -0.10013E+00   -0.98875E-01 10584   0.311E+00-0.138E-01
CGA:   6    -0.356690994706E+03   -0.48127E-01   -0.48119E-01 10584   0.906E-01 0.342E-02
CGA:   7    -0.356705586807E+03   -0.14592E-01   -0.14582E-01 10584   0.362E-01 0.268E-02
CGA:   8    -0.356712457948E+03   -0.68711E-02   -0.69063E-02 10584   0.214E-01-0.118E-02
CGA:   9    -0.356716077882E+03   -0.36199E-02   -0.35875E-02 10584   0.816E-02 0.195E-02
CGA:  10    -0.356718316139E+03   -0.22383E-02   -0.22153E-02 10584   0.563E-02 0.228E-03
CGA:  11    -0.356719229670E+03   -0.91353E-03   -0.91298E-03 10584   0.322E-02-0.129E-03
CGA:  12    -0.356719635107E+03   -0.40544E-03   -0.42213E-03 10584   0.715E-03 0.581E-03
CGA:  13    -0.356719869842E+03   -0.23474E-03   -0.24392E-03 10584   0.593E-03-0.743E-04
CGA:  14    -0.356719891575E+03   -0.21733E-04   -0.38771E-04 10584   0.217E-03 0.179E-03
CGA:  15    -0.356719900377E+03   -0.88017E-05   -0.20786E-04 10584   0.152E-03 0.134E-03
CGA:  16    -0.356719486308E+03    0.41407E-03   -0.22337E-03 10584   0.758E-02-0.672E-03
CGA:  17    -0.356719928118E+03   -0.44181E-03   -0.52462E-03 10584   0.338E-03 0.277E-03
CGA:  18    -0.356719956551E+03   -0.28433E-04   -0.45883E-04 10584   0.114E-03 0.119E-03
CGA:  19    -0.356719998151E+03   -0.41599E-04   -0.41961E-04 10584   0.208E-03-0.126E-03
CGA:  20    -0.356719992686E+03    0.54644E-05   -0.11426E-04 10584   0.400E-04 0.779E-04
  42 F= -.35671999E+03 E0= -.35671994E+03  d E =0.744455E-01  mag=    20.0000
       N       E                     dE             d eps       ncg     rms          ort
SDA:   1    -0.341301420991E+03    0.15419E+02    0.00000E+00 10584   0.464E+02 0.000E+00
CGA:   2    -0.348631341191E+03   -0.73299E+01   -0.81159E+01 10584   0.371E+02 0.187E+01
CGA:   3    -0.352713195248E+03   -0.40819E+01   -0.26495E+01 10584   0.109E+02 0.201E+02
CGA:   4    -0.353897670709E+03   -0.11845E+01   -0.93676E+00 10584   0.525E+01 0.197E+01
CGA:   5    -0.355324166908E+03   -0.14265E+01   -0.14265E+01 10584   0.425E+01 0.108E-01
CGA:   6    -0.355789339922E+03   -0.46517E+00   -0.48554E+00 10584   0.122E+01-0.612E-01
CGA:   7    -0.355915223667E+03   -0.12588E+00   -0.12234E+00 10584   0.390E+00 0.280E-02
CGA:   8    -0.355958400688E+03   -0.43177E-01   -0.43156E-01 10584   0.159E+00-0.186E-02
CGA:   9    -0.355985861010E+03   -0.27460E-01   -0.27261E-01 10584   0.126E+00-0.437E-02
CGA:  10    -0.356000880069E+03   -0.15019E-01   -0.14955E-01 10584   0.573E-01-0.722E-03
CGA:  11    -0.356012462152E+03   -0.11582E-01   -0.11582E-01 10584   0.213E-01-0.227E-04
CGA:  12    -0.356015379506E+03   -0.29174E-02   -0.27704E-02 10584   0.181E-01-0.184E-02
CGA:  13    -0.356017492133E+03   -0.21126E-02   -0.21434E-02 10584   0.595E-02 0.335E-03
CGA:  14    -0.356018445524E+03   -0.95339E-03   -0.95367E-03 10584   0.462E-02-0.118E-04
CGA:  15    -0.356019243190E+03   -0.79767E-03   -0.75435E-03 10584   0.350E-02-0.134E-02
CGA:  16    -0.356019536178E+03   -0.29299E-03   -0.24682E-03 10584   0.143E-02-0.503E-03
CGA:  17    -0.356019547128E+03   -0.10950E-04   -0.54063E-03 10584   0.100E-01-0.211E-02
CGA:  18    -0.356020166245E+03   -0.61912E-03   -0.64609E-03 10584   0.974E-03 0.229E-03
CGA:  19    -0.356020351537E+03   -0.18529E-03   -0.18627E-03 10584   0.454E-03 0.113E-03
CGA:  20    -0.356019718379E+03    0.63316E-03   -0.35092E-03 10584   0.168E-01-0.200E-02
CGA:  21    -0.356020457838E+03   -0.73946E-03   -0.95199E-03 10584   0.672E-03 0.771E-03
CGA:  22    -0.356020557838E+03   -0.10000E-03   -0.10658E-03 10584   0.493E-03 0.109E-03
CGA:  23    -0.356020661429E+03   -0.10359E-03   -0.18068E-03 10584   0.167E-02-0.726E-03
CGA:  24    -0.356020729168E+03   -0.67740E-04   -0.10034E-03 10584   0.166E-03 0.200E-03
CGA:  25    -0.356020768536E+03   -0.39368E-04   -0.39422E-04 10584   0.157E-03-0.955E-05
CGA:  26    -0.356020776263E+03   -0.77273E-05   -0.43673E-04 10584   0.114E-02-0.407E-03
CGA:  27    -0.356020816685E+03   -0.40422E-04   -0.66561E-04 10584   0.107E-03 0.163E-03
CGA:  28    -0.356020833817E+03   -0.17132E-04   -0.18028E-04 10584   0.840E-04 0.158E-04
CGA:  29    -0.356020874355E+03   -0.40539E-04    0.20805E-03 10584   0.145E-03-0.997E-04
CGA:  30    -0.356020877440E+03   -0.30849E-05   -0.87365E-05 10584   0.278E-04 0.398E-04
CGA:  31    -0.356020871049E+03    0.63918E-05   -0.17325E-04 10584   0.329E-03-0.810E-04
CGA:  32    -0.356020929207E+03   -0.58158E-04   -0.42261E-04 10584   0.279E-03-0.200E-03
CGA:  33    -0.356020930879E+03   -0.16726E-05   -0.13127E-04 10584   0.236E-04 0.716E-04
[...]
CGA:   4    -0.356542460783E+03   -0.48682E-01   -0.49116E-01 10584   0.875E-01 0.536E-02
CGA:   5    -0.356555698539E+03   -0.13238E-01   -0.13200E-01 10584   0.282E-01-0.227E-02
CGA:   6    -0.356559744062E+03   -0.40455E-02   -0.40423E-02 10584   0.111E-01-0.225E-03
CGA:   7    -0.356561188388E+03   -0.14443E-02   -0.14641E-02 10584   0.311E-02 0.633E-03
CGA:   8    -0.356561824714E+03   -0.63633E-03   -0.62663E-03 10584   0.125E-02 0.335E-03
CGA:   9    -0.356562122741E+03   -0.29803E-03   -0.29657E-03 10584   0.100E-02 0.268E-04
CGA:  10    -0.356562229707E+03   -0.10697E-03   -0.11910E-03 10584   0.337E-03 0.241E-03
CGA:  11    -0.356562339816E+03   -0.11011E-03   -0.10664E-03 10584   0.224E-03 0.372E-04
CGA:  12    -0.356562378275E+03   -0.38458E-04   -0.37505E-04 10584   0.200E-03-0.563E-04
CGA:  13    -0.356562390611E+03   -0.12336E-04   -0.15328E-04 10584   0.838E-04 0.457E-04
CGA:  14    -0.356562392700E+03   -0.20893E-05   -0.58582E-05 10584   0.298E-04 0.351E-04
  94 F= -.35656239E+03 E0= -.35656234E+03  d E =0.268618E-01  mag=    20.0000
       N       E                     dE             d eps       ncg     rms          ort
SDA:   1    -0.351870825960E+03    0.46916E+01    0.00000E+00 10584   0.125E+02 0.000E+00
CGA:   2    -0.354718166856E+03   -0.28473E+01   -0.27703E+01 10584   0.936E+01 0.895E+00
CGA:   3    -0.355947180203E+03   -0.12290E+01   -0.11711E+01 10584   0.241E+01-0.139E+00
CGA:   4    -0.356363344400E+03   -0.41616E+00   -0.41478E+00 10584   0.577E+00 0.446E-01
CGA:   5    -0.356432040176E+03   -0.68696E-01   -0.68675E-01 10584   0.201E+00-0.173E-02
CGA:   6    -0.356463332336E+03   -0.31292E-01   -0.31294E-01 10584   0.534E-01-0.155E-02
CGA:   7    -0.356472956946E+03   -0.96246E-02   -0.95841E-02 10584   0.223E-01 0.144E-02
CGA:   8    -0.356476417591E+03   -0.34606E-02   -0.34650E-02 10584   0.114E-01 0.816E-03
CGA:   9    -0.356478846536E+03   -0.24289E-02   -0.24172E-02 10584   0.611E-02 0.220E-03
CGA:  10    -0.356479802829E+03   -0.95629E-03   -0.96077E-03 10584   0.274E-02 0.114E-02
CGA:  11    -0.356480647638E+03   -0.84481E-03   -0.93806E-03 10584   0.308E-02-0.725E-03
CGA:  12    -0.356480794587E+03   -0.14695E-03   -0.19032E-03 10584   0.106E-02 0.521E-03
CGA:  13    -0.356480860094E+03   -0.65507E-04   -0.97437E-04 10584   0.612E-03 0.385E-03
CGA:  14    -0.356480965092E+03   -0.10500E-03   -0.10756E-03 10584   0.258E-03 0.918E-04
CGA:  15    -0.356480933764E+03    0.31329E-04   -0.10868E-03 10584   0.245E-02-0.666E-03
CGA:  16    -0.356481012729E+03   -0.78965E-04   -0.13943E-03 10584   0.239E-03 0.541E-03
CGA:  17    -0.356481014445E+03   -0.17163E-05   -0.16638E-04 10584   0.124E-03 0.144E-03
CGA:  18    -0.356481054469E+03   -0.40024E-04    0.23790E-03 10584   0.536E-04 0.474E-04
CGA:  19    -0.356481057170E+03   -0.27006E-05   -0.58946E-05 10584   0.190E-04 0.422E-04
  95 F= -.35648106E+03 E0= -.35648100E+03  d E =0.813355E-01  mag=    20.0000
       N       E                     dE             d eps       ncg     rms          ort
SDA:   1    -0.356035207791E+03    0.44585E+00    0.00000E+00 10584   0.112E+01 0.000E+00
CGA:   2    -0.356367453573E+03   -0.33225E+00   -0.33063E+00 10584   0.573E+00 0.108E-01
CGA:   3    -0.356443788006E+03   -0.76334E-01   -0.76154E-01 10584   0.220E+00-0.700E-02
CGA:   4    -0.356473713816E+03   -0.29926E-01   -0.29936E-01 10584   0.549E-01 0.398E-03
CGA:   5    -0.356481755765E+03   -0.80419E-02   -0.80459E-02 10584   0.163E-01 0.517E-03
CGA:   6    -0.356484385965E+03   -0.26302E-02   -0.26440E-02 10584   0.800E-02-0.170E-02
CGA:   7    -0.356485168763E+03   -0.78280E-03   -0.82776E-03 10584   0.207E-02 0.118E-02
CGA:   8    -0.356485643500E+03   -0.47474E-03   -0.46364E-03 10584   0.106E-02 0.251E-03
CGA:   9    -0.356485861630E+03   -0.21813E-03   -0.29440E-03 10584   0.260E-02-0.806E-03
CGA:  10    -0.356485969573E+03   -0.10794E-03   -0.15800E-03 10584   0.294E-03 0.502E-03
CGA:  11    -0.356485990561E+03   -0.20988E-04   -0.30890E-04 10584   0.187E-03 0.152E-03
CGA:  12    -0.356486054665E+03   -0.64104E-04    0.95682E-04 10584   0.164E-03 0.116E-04
CGA:  13    -0.356486080063E+03   -0.25398E-04   -0.25595E-04 10584   0.464E-04 0.684E-04
CGA:  14    -0.356486078999E+03    0.10640E-05   -0.36063E-05 10584   0.319E-04 0.492E-04
  96 F= -.35648608E+03 E0= -.35648600E+03  d E =-.502183E-02  mag=    20.0000
       N       E                     dE             d eps       ncg     rms          ort
SDA:   1    -0.356147061198E+03    0.33902E+00    0.00000E+00 10584   0.871E+00 0.000E+00
CGA:   2    -0.356429971894E+03   -0.28291E+00   -0.28376E+00 10584   0.389E+00-0.487E-02
CGA:   3    -0.356484324063E+03   -0.54352E-01   -0.54188E-01 10584   0.163E+00-0.830E-02
CGA:   4    -0.356504306972E+03   -0.19983E-01   -0.20216E-01 10584   0.231E-01 0.743E-02
CGA:   5    -0.356508527698E+03   -0.42207E-02   -0.42048E-02 10584   0.852E-02 0.777E-03
CGA:   6    -0.356509996115E+03   -0.14684E-02   -0.14843E-02 10584   0.506E-02-0.119E-02
CGA:   7    -0.356510427412E+03   -0.43130E-03   -0.45518E-03 10584   0.127E-02 0.452E-03
CGA:   8    -0.356510690730E+03   -0.26332E-03   -0.26104E-03 10584   0.999E-03 0.637E-04
CGA:   9    -0.356510865181E+03   -0.17445E-03   -0.21406E-03 10584   0.168E-02-0.812E-03
CGA:  10    -0.356510943043E+03   -0.77862E-04   -0.10984E-03 10584   0.263E-03 0.340E-03
CGA:  11    -0.356510973277E+03   -0.30234E-04   -0.35033E-04 10584   0.143E-03 0.114E-03
CGA:  12    -0.356511008687E+03   -0.35410E-04   -0.45025E-04 10584   0.265E-03-0.140E-03
CGA:  13    -0.356511014986E+03   -0.62991E-05   -0.15202E-04 10584   0.582E-04 0.913E-04
  97 F= -.35651101E+03 E0= -.35651095E+03  d E =-.249360E-01  mag=    20.0000
       N       E                     dE             d eps       ncg     rms          ort
SDA:   1    -0.356356331216E+03    0.15468E+00    0.00000E+00 10584   0.433E+00 0.000E+00
CGA:   2    -0.356458428150E+03   -0.10210E+00   -0.10207E+00 10584   0.265E+00 0.340E-03
CGA:   3    -0.356498373715E+03   -0.39946E-01   -0.39947E-01 10584   0.943E-01-0.268E-02
CGA:   4    -0.356510334916E+03   -0.11961E-01   -0.12003E-01 10584   0.256E-01 0.172E-02
CGA:   5    -0.356514038783E+03   -0.37039E-02   -0.37010E-02 10584   0.732E-02-0.399E-03
CGA:   6    -0.356515102732E+03   -0.10639E-02   -0.10641E-02 10584   0.221E-02 0.156E-03
CGA:   7    -0.356515480432E+03   -0.37770E-03   -0.38257E-03 10584   0.120E-02-0.231E-03
CGA:   8    -0.356515623358E+03   -0.14293E-03   -0.14326E-03 10584   0.402E-03 0.187E-04
CGA:   9    -0.356515655492E+03   -0.32134E-04   -0.18254E-03 10584   0.130E-02-0.504E-03
CGA:  10    -0.356515732306E+03   -0.76814E-04   -0.10117E-03 10584   0.255E-03 0.281E-03
CGA:  11    -0.356515777145E+03   -0.44839E-04   -0.44931E-04 10584   0.530E-04 0.623E-05
CGA:  12    -0.356515799721E+03   -0.22576E-04    0.13880E-04 10584   0.401E-04 0.567E-05
CGA:  13    -0.356515800392E+03   -0.67131E-06   -0.29165E-05 10584   0.148E-04 0.241E-04
  98 F= -.35651580E+03 E0= -.35651574E+03  d E =-.478541E-02  mag=    20.0000
       N       E                     dE             d eps       ncg     rms          ort
SDA:   1    -0.356383360937E+03    0.13244E+00    0.00000E+00 10584   0.313E+00 0.000E+00
CGA:   2    -0.356473762105E+03   -0.90401E-01   -0.89547E-01 10584   0.119E+00 0.612E-02
CGA:   3    -0.356495285644E+03   -0.21524E-01   -0.21506E-01 10584   0.498E-01 0.726E-03
CGA:   4    -0.356502294403E+03   -0.70088E-02   -0.69491E-02 10584   0.120E-01-0.339E-02
CGA:   5    -0.356503772129E+03   -0.14777E-02   -0.14883E-02 10584   0.311E-02 0.455E-03
CGA:   6    -0.356504371714E+03   -0.59959E-03   -0.60255E-03 10584   0.106E-02-0.919E-04
CGA:   7    -0.356504551182E+03   -0.17947E-03   -0.17863E-03 10584   0.434E-03 0.480E-04
CGA:   8    -0.356504615954E+03   -0.64771E-04   -0.65924E-04 10584   0.183E-03 0.103E-03
CGA:   9    -0.356504570138E+03    0.45815E-04   -0.14613E-03 10584   0.142E-02-0.392E-03
CGA:  10    -0.356504649061E+03   -0.78923E-04   -0.11184E-03 10584   0.291E-03 0.319E-03
CGA:  11    -0.356504699248E+03   -0.50187E-04   -0.51028E-04 10584   0.659E-04 0.263E-04
CGA:  12    -0.356504732162E+03   -0.32914E-04    0.19702E-04 10584   0.582E-04-0.163E-04
CGA:  13    -0.356504731829E+03    0.33297E-06   -0.22433E-05 10584   0.277E-04 0.210E-04
  99 F= -.35650473E+03 E0= -.35650468E+03  d E =0.110686E-01  mag=    20.0000
       N       E                     dE             d eps       ncg     rms          ort
SDA:   1    -0.356036070209E+03    0.46866E+00    0.00000E+00 10584   0.117E+01 0.000E+00
CGA:   2    -0.356371567891E+03   -0.33550E+00   -0.33318E+00 10584   0.382E+00 0.184E-01
CGA:   3    -0.356453009888E+03   -0.81442E-01   -0.81912E-01 10584   0.181E+00-0.105E-01
CGA:   4    -0.356471368211E+03   -0.18358E-01   -0.18619E-01 10584   0.308E-01 0.284E-02
CGA:   5    -0.356477110665E+03   -0.57425E-02   -0.57724E-02 10584   0.112E-01-0.160E-02
CGA:   6    -0.356478801303E+03   -0.16906E-02   -0.16913E-02 10584   0.363E-02 0.811E-04
CGA:   7    -0.356479292408E+03   -0.49111E-03   -0.50400E-03 10584   0.165E-02 0.448E-03
CGA:   8    -0.356479693508E+03   -0.40110E-03   -0.41405E-03 10584   0.104E-02-0.222E-03
CGA:   9    -0.356479800334E+03   -0.10683E-03   -0.11799E-03 10584   0.463E-03 0.300E-03
CGA:  10    -0.356479921569E+03   -0.12124E-03   -0.11954E-03 10584   0.247E-03 0.487E-04
CGA:  11    -0.356479893378E+03    0.28192E-04   -0.13424E-03 10584   0.201E-02-0.503E-03
CGA:  12    -0.356479981549E+03   -0.88171E-04   -0.12886E-03 10584   0.210E-03 0.328E-03
CGA:  13    -0.356479999241E+03   -0.17692E-04   -0.24955E-04 10584   0.111E-03 0.956E-04
CGA:  14    -0.356480029556E+03   -0.30315E-04   -0.33061E-04 10584   0.810E-04-0.905E-04
CGA:  15    -0.356480030639E+03   -0.10831E-05   -0.48245E-05 10584   0.208E-04 0.321E-04
 100 F= -.35648003E+03 E0= -.35647997E+03  d E =0.247012E-01  mag=    20.0000
       N       E                     dE             d eps       ncg     rms          ort
SDA:   1    -0.349151869683E+03    0.73282E+01    0.00000E+00 10584   0.208E+02 0.000E+00
CGA:   2    -0.353734769010E+03   -0.45829E+01   -0.45155E+01 10584   0.132E+02 0.942E+00
CGA:   3    -0.355430817734E+03   -0.16960E+01   -0.16160E+01 10584   0.389E+01-0.483E-01
CGA:   4    -0.356183995560E+03   -0.75318E+00   -0.75059E+00 10584   0.801E+00 0.569E-01
CGA:   5    -0.356278415573E+03   -0.94420E-01   -0.93901E-01 10584   0.324E+00-0.300E-02
CGA:   6    -0.356329898753E+03   -0.51483E-01   -0.51478E-01 10584   0.841E-01-0.175E-02
CGA:   7    -0.356345540576E+03   -0.15642E-01   -0.15593E-01 10584   0.361E-01 0.200E-02
CGA:   8    -0.356352537923E+03   -0.69973E-02   -0.70059E-02 10584   0.261E-01-0.331E-03
CGA:   9    -0.356356757175E+03   -0.42193E-02   -0.42224E-02 10584   0.110E-01 0.108E-02
CGA:  10    -0.356359379817E+03   -0.26226E-02   -0.25656E-02 10584   0.574E-02 0.945E-03
CGA:  11    -0.356360610506E+03   -0.12307E-02   -0.12612E-02 10584   0.522E-02-0.911E-03
CGA:  12    -0.356361040969E+03   -0.43046E-03   -0.47545E-03 10584   0.114E-02 0.701E-03
CGA:  13    -0.356361154189E+03   -0.11322E-03   -0.13810E-03 10584   0.753E-03 0.411E-03
CGA:  14    -0.356361327079E+03   -0.17289E-03   -0.17286E-03 10584   0.265E-03 0.505E-05
CGA:  15    -0.356361370983E+03   -0.43904E-04   -0.10595E-03 10584   0.976E-03-0.268E-03
CGA:  16    -0.356361396889E+03   -0.25905E-04   -0.59137E-04 10584   0.151E-03 0.285E-03
CGA:  17    -0.356361399165E+03   -0.22768E-05   -0.12518E-04 10584   0.901E-04 0.962E-04
CGA:  18    -0.356361435361E+03   -0.36196E-04    0.34061E-04 10584   0.508E-04 0.313E-04
CGA:  19    -0.356361437353E+03   -0.19917E-05   -0.56067E-05 10584   0.205E-04 0.434E-04
 101 F= -.35636144E+03 E0= -.35636139E+03  d E =0.118593E+00  mag=    20.0000
       N       E                     dE             d eps       ncg     rms          ort
SDA:   1    -0.355064604603E+03    0.12968E+01    0.00000E+00 10584   0.361E+01 0.000E+00
CGA:   2    -0.356038366012E+03   -0.97376E+00   -0.97250E+00 10584   0.172E+01 0.871E-02
CGA:   3    -0.356279377639E+03   -0.24101E+00   -0.23989E+00 10584   0.778E+00-0.326E-01
CGA:   4    -0.356385723837E+03   -0.10635E+00   -0.10684E+00 10584   0.119E+00 0.211E-01
CGA:   5    -0.356405798937E+03   -0.20075E-01   -0.20078E-01 10584   0.462E-01-0.347E-03
CGA:   6    -0.356411779374E+03   -0.59804E-02   -0.60096E-02 10584   0.185E-01 0.836E-03
CGA:   7    -0.356414671647E+03   -0.28923E-02   -0.28910E-02 10584   0.605E-02-0.285E-03
CGA:   8    -0.356416104975E+03   -0.14333E-02   -0.14790E-02 10584   0.375E-02-0.508E-03
CGA:   9    -0.356416689266E+03   -0.58429E-03   -0.58528E-03 10584   0.252E-02-0.121E-03
CGA:  10    -0.356417074837E+03   -0.38557E-03   -0.38620E-03 10584   0.867E-03 0.158E-03
CGA:  11    -0.356417320068E+03   -0.24523E-03   -0.31973E-03 10584   0.116E-02-0.405E-03
CGA:  12    -0.356417326403E+03   -0.63353E-05   -0.30414E-04 10584   0.598E-03 0.195E-03
CGA:  13    -0.356417331730E+03   -0.53264E-05   -0.32238E-04 10584   0.290E-03 0.224E-03
CGA:  14    -0.356417349587E+03   -0.17857E-04   -0.29102E-04 10584   0.256E-03 0.130E-03
CGA:  15    -0.356417402659E+03   -0.53072E-04   -0.49641E-04 10584   0.125E-03-0.163E-03
CGA:  16    -0.356417445046E+03   -0.42387E-04    0.93882E-04 10584   0.372E-04 0.212E-04
CGA:  17    -0.356417443267E+03    0.17795E-05   -0.18092E-05 10584   0.203E-04 0.319E-04
 102 F= -.35641744E+03 E0= -.35641737E+03  d E =-.560059E-01  mag=    20.0000
       N       E                     dE             d eps       ncg     rms          ort
SDA:   1    -0.355123323352E+03    0.12941E+01    0.00000E+00 10584   0.354E+01 0.000E+00
CGA:   2    -0.356091429932E+03   -0.96811E+00   -0.96550E+00 10584   0.175E+01 0.178E-01
CGA:   3    -0.356316007224E+03   -0.22458E+00   -0.22260E+00 10584   0.818E+00-0.464E-01
CGA:   4    -0.356431714791E+03   -0.11571E+00   -0.11578E+00 10584   0.114E+00 0.239E-01
CGA:   5    -0.356447405458E+03   -0.15691E-01   -0.15738E-01 10584   0.545E-01 0.326E-02
CGA:   6    -0.356455672879E+03   -0.82674E-02   -0.82681E-02 10584   0.138E-01-0.113E-02
CGA:   7    -0.356458277705E+03   -0.26048E-02   -0.25899E-02 10584   0.522E-02 0.324E-03
CGA:   8    -0.356459495851E+03   -0.12181E-02   -0.12612E-02 10584   0.463E-02-0.502E-03
CGA:   9    -0.356460099026E+03   -0.60317E-03   -0.59957E-03 10584   0.223E-02-0.356E-03
CGA:  10    -0.356460482022E+03   -0.38300E-03   -0.37236E-03 10584   0.829E-03 0.382E-03
CGA:  11    -0.356460664101E+03   -0.18208E-03   -0.36801E-03 10584   0.266E-02-0.830E-03
CGA:  12    -0.356460761368E+03   -0.97267E-04   -0.16233E-03 10584   0.291E-03 0.613E-03
CGA:  13    -0.356460772368E+03   -0.11000E-04   -0.25101E-04 10584   0.151E-03 0.156E-03
CGA:  14    -0.356460831675E+03   -0.59307E-04    0.45080E-04 10584   0.783E-04 0.311E-04
CGA:  15    -0.356460833584E+03   -0.19091E-05   -0.66811E-05 10584   0.283E-04 0.560E-04
 103 F= -.35646083E+03 E0= -.35646076E+03  d E =-.433903E-01  mag=    20.0000
       N       E                     dE             d eps       ncg     rms          ort
SDA:   1    -0.355927013952E+03    0.53382E+00    0.00000E+00 10584   0.151E+01 0.000E+00
CGA:   2    -0.356330317200E+03   -0.40330E+00   -0.40449E+00 10584   0.660E+00-0.102E-01
CGA:   3    -0.356435441766E+03   -0.10512E+00   -0.10521E+00 10584   0.309E+00-0.823E-02
CGA:   4    -0.356472486873E+03   -0.37045E-01   -0.37398E-01 10584   0.653E-01 0.938E-02
CGA:   5    -0.356481934276E+03   -0.94474E-02   -0.94481E-02 10584   0.188E-01 0.110E-03
CGA:   6    -0.356484982374E+03   -0.30481E-02   -0.30449E-02 10584   0.705E-02 0.279E-03
CGA:   7    -0.356486087740E+03   -0.11054E-02   -0.11060E-02 10584   0.335E-02-0.183E-03
CGA:   8    -0.356486659216E+03   -0.57148E-03   -0.57793E-03 10584   0.177E-02-0.253E-03
CGA:   9    -0.356487005835E+03   -0.34662E-03   -0.38359E-03 10584   0.168E-02-0.456E-03
CGA:  10    -0.356487121709E+03   -0.11587E-03   -0.12775E-03 10584   0.556E-03 0.215E-03
CGA:  11    -0.356487209873E+03   -0.88163E-04   -0.89510E-04 10584   0.424E-03 0.119E-03
CGA:  12    -0.356487281782E+03   -0.71910E-04   -0.70551E-04 10584   0.167E-03-0.839E-04
CGA:  13    -0.356487289583E+03   -0.78005E-05   -0.12174E-04 10584   0.812E-04 0.711E-04
 104 F= -.35648729E+03 E0= -.35648723E+03  d E =-.264560E-01  mag=    20.0000
       N       E                     dE             d eps       ncg     rms          ort
SDA:   1    -0.356106303008E+03    0.38098E+00    0.00000E+00 10584   0.951E+00 0.000E+00
CGA:   2    -0.356365724813E+03   -0.25942E+00   -0.25699E+00 10584   0.444E+00 0.193E-01
CGA:   3    -0.356429889943E+03   -0.64165E-01   -0.63983E-01 10584   0.235E+00-0.121E-01
CGA:   4    -0.356458377135E+03   -0.28487E-01   -0.28617E-01 10584   0.419E-01 0.247E-02
CGA:   5    -0.356464874799E+03   -0.64977E-02   -0.65011E-02 10584   0.128E-01-0.108E-02
CGA:   6    -0.356466948895E+03   -0.20741E-02   -0.20872E-02 10584   0.545E-02-0.749E-03
CGA:   7    -0.356467555141E+03   -0.60625E-03   -0.62318E-03 10584   0.161E-02 0.559E-03
CGA:   8    -0.356467888968E+03   -0.33383E-03   -0.32459E-03 10584   0.621E-03 0.283E-03
CGA:   9    -0.356468058311E+03   -0.16934E-03   -0.29776E-03 10584   0.180E-02-0.502E-03
CGA:  10    -0.356468120032E+03   -0.61721E-04   -0.11422E-03 10584   0.299E-03 0.516E-03
CGA:  11    -0.356468139837E+03   -0.19805E-04   -0.31711E-04 10584   0.167E-03 0.155E-03
CGA:  12    -0.356468213370E+03   -0.73533E-04    0.31045E-04 10584   0.126E-03 0.446E-05
CGA:  13    -0.356468219935E+03   -0.65648E-05   -0.11476E-04 10584   0.456E-04 0.739E-04
 105 F= -.35646822E+03 E0= -.35646815E+03  d E =0.190696E-01  mag=    20.0000
       N       E                     dE             d eps       ncg     rms          ort
SDA:   1    -0.356372888537E+03    0.95325E-01    0.00000E+00 10584   0.237E+00 0.000E+00
CGA:   2    -0.356431510647E+03   -0.58622E-01   -0.58205E-01 10584   0.112E+00 0.418E-02
CGA:   3    -0.356449397722E+03   -0.17887E-01   -0.17871E-01 10584   0.428E-01 0.307E-02
CGA:   4    -0.356456173101E+03   -0.67754E-02   -0.67878E-02 10584   0.153E-01-0.371E-02
CGA:   5    -0.356457718297E+03   -0.15452E-02   -0.15732E-02 10584   0.360E-02 0.680E-03
CGA:   6    -0.356458337849E+03   -0.61955E-03   -0.62050E-03 10584   0.132E-02-0.621E-04
CGA:   7    -0.356458546190E+03   -0.20834E-03   -0.20844E-03 10584   0.626E-03-0.945E-05
CGA:   8    -0.356458602758E+03   -0.56569E-04   -0.65818E-04 10584   0.202E-03 0.206E-03
CGA:   9    -0.356458636762E+03   -0.34004E-04   -0.35610E-04 10584   0.122E-03 0.100E-03
CGA:  10    -0.356458673869E+03   -0.37107E-04   -0.40675E-04 10584   0.164E-03-0.476E-04
CGA:  11    -0.356458679371E+03   -0.55017E-05   -0.72023E-05 10584   0.121E-03 0.213E-04
 106 F= -.35645868E+03 E0= -.35645861E+03  d E =0.954056E-02  mag=    20.0000
       N       E                     dE             d eps       ncg     rms          ort
SDA:   1    -0.356444974893E+03    0.13699E-01    0.00000E+00 10584   0.449E-01 0.000E+00
CGA:   2    -0.356456887136E+03   -0.11912E-01   -0.12341E-01 10584   0.316E-01-0.326E-02
CGA:   3    -0.356460421260E+03   -0.35341E-02   -0.35555E-02 10584   0.956E-02 0.741E-03
CGA:   4    -0.356461795713E+03   -0.13745E-02   -0.13748E-02 10584   0.265E-02 0.387E-04
CGA:   5    -0.356462111093E+03   -0.31538E-03   -0.32545E-03 10584   0.588E-03 0.397E-03
CGA:   6    -0.356462220906E+03   -0.10981E-03   -0.10961E-03 10584   0.226E-03 0.130E-04
CGA:   7    -0.356462265549E+03   -0.44642E-04   -0.51962E-04 10584   0.218E-03-0.950E-04
CGA:   8    -0.356462285171E+03   -0.19622E-04   -0.21442E-04 10584   0.134E-03-0.993E-04
CGA:   9    -0.356462295101E+03   -0.99307E-05   -0.10038E-04 10584   0.692E-04 0.734E-05
CGA:  10    -0.356462307593E+03   -0.12492E-04   -0.12924E-04 10584   0.587E-04-0.168E-04
CGA:  11    -0.356462313467E+03   -0.58740E-05   -0.56146E-05 10584   0.258E-04-0.100E-04
 107 F= -.35646231E+03 E0= -.35646225E+03  d E =-.363410E-02  mag=    20.0000
