       N       E                     dE             d eps       ncg     rms          ort
DAV:   1     0.248700283898E+04    0.24870E+04   -0.13785E+05 10206   0.168E+03
DAV:   2    -0.173146936525E+03   -0.26601E+04   -0.24527E+04 10206   0.433E+02
DAV:   3    -0.485632707561E+03   -0.31249E+03   -0.30754E+03 10206   0.169E+02
DAV:   4    -0.495621475858E+03   -0.99888E+01   -0.98939E+01 10206   0.309E+01
DAV:   5    -0.495962174816E+03   -0.34070E+00   -0.33998E+00 10206   0.455E+00
SDA:   6    -0.193356327803E+03    0.30261E+03   -0.33998E+00 10206   0.103E+04 0.000E+00
CGA:   7    -0.265117413938E+03   -0.71761E+02   -0.10632E+03 10206   0.100E+04-0.102E+03
CGA:   8    -0.328101277159E+03   -0.62984E+02   -0.46008E+02 10206   0.141E+03-0.120E+03
CGA:   9    -0.343520746786E+03   -0.15419E+02   -0.97968E+01 10206   0.823E+02 0.354E+02
CGA:  10    -0.350904090983E+03   -0.73833E+01   -0.10351E+02 10206   0.955E+02 0.476E+01
CGA:  11    -0.357526942491E+03   -0.66229E+01   -0.70974E+01 10206   0.328E+02-0.186E+02
CGA:  12    -0.361049562861E+03   -0.35226E+01   -0.35022E+01 10206   0.265E+02 0.170E+00
CGA:  13    -0.363507468184E+03   -0.24579E+01   -0.27181E+01 10206   0.929E+01-0.422E+00
CGA:  14    -0.364977745297E+03   -0.14703E+01   -0.14728E+01 10206   0.358E+01 0.130E+00
CGA:  15    -0.365581170597E+03   -0.60343E+00   -0.60334E+00 10206   0.185E+01-0.826E-01
CGA:  16    -0.365944718320E+03   -0.36355E+00   -0.36404E+00 10206   0.931E+00-0.130E-01
CGA:  17    -0.366116248286E+03   -0.17153E+00   -0.17116E+00 10206   0.528E+00 0.218E-01
CGA:  18    -0.366215806596E+03   -0.99558E-01   -0.99292E-01 10206   0.257E+00 0.172E-01
CGA:  19    -0.366268486855E+03   -0.52680E-01   -0.52377E-01 10206   0.116E+00 0.122E-01
CGA:  20    -0.366291711522E+03   -0.23225E-01   -0.23093E-01 10206   0.636E-01 0.784E-02
CGA:  21    -0.366304797703E+03   -0.13086E-01   -0.12991E-01 10206   0.264E-01 0.499E-02
CGA:  22    -0.366311048961E+03   -0.62513E-02   -0.61358E-02 10206   0.144E-01 0.307E-02
CGA:  23    -0.366314665406E+03   -0.36164E-02   -0.36282E-02 10206   0.788E-02-0.136E-03
CGA:  24    -0.366316620731E+03   -0.19553E-02   -0.21874E-02 10206   0.622E-02-0.223E-02
CGA:  25    -0.366317260783E+03   -0.64005E-03   -0.66489E-03 10206   0.368E-02 0.778E-03
CGA:  26    -0.366317882132E+03   -0.62135E-03   -0.64773E-03 10206   0.260E-02 0.106E-02
CGA:  27    -0.366318501016E+03   -0.61888E-03   -0.61813E-03 10206   0.153E-02 0.174E-03
CGA:  28    -0.366318881365E+03   -0.38035E-03   -0.37740E-03 10206   0.115E-02 0.544E-04
CGA:  29    -0.366319050051E+03   -0.16869E-03   -0.17455E-03 10206   0.698E-03 0.156E-03
CGA:  30    -0.366319268271E+03   -0.21822E-03   -0.23330E-03 10206   0.646E-03-0.146E-03
CGA:  31    -0.366319343532E+03   -0.75262E-04   -0.74958E-04 10206   0.442E-03-0.114E-04
CGA:  32    -0.366319413046E+03   -0.69513E-04   -0.71240E-04 10206   0.307E-03 0.794E-04
CGA:  33    -0.366319443326E+03   -0.30280E-04   -0.15815E-03 10206   0.116E-02-0.515E-03
CGA:  34    -0.366319675046E+03   -0.23172E-03   -0.24005E-03 10206   0.148E-02-0.850E-03
CGA:  35    -0.366319760368E+03   -0.85322E-04   -0.11157E-03 10206   0.795E-04 0.221E-03
CGA:  36    -0.366319767510E+03   -0.71427E-05   -0.97073E-05 10206   0.542E-04 0.305E-04
CGA:  37    -0.366319795554E+03   -0.28043E-04    0.61147E-02 10206   0.335E-04 0.255E-04
CGA:  38    -0.366319820524E+03   -0.24970E-04    0.12877E-04 10206   0.342E-04-0.211E-04
CGA:  39    -0.366319819371E+03    0.11526E-05   -0.15520E-05 10206   0.116E-04 0.192E-04
   1 F= -.36631982E+03 E0= -.36631982E+03  d E =-.366320E+03  mag=    16.0000
       N       E                     dE             d eps       ncg     rms          ort
SDA:   1    -0.366322469481E+03   -0.26490E-02    0.00000E+00 10206   0.525E-03 0.000E+00
CGA:   2    -0.366322547988E+03   -0.78507E-04   -0.76125E-04 10206   0.306E-03-0.875E-04
CGA:   3    -0.366322565403E+03   -0.17415E-04   -0.24831E-04 10206   0.811E-04 0.101E-03
CGA:   4    -0.366322567530E+03   -0.21271E-05   -0.65223E-05 10206   0.256E-04 0.411E-04
   2 F= -.36632257E+03 E0= -.36632257E+03  d E =-.274816E-02  mag=    16.0000
       N       E                     dE             d eps       ncg     rms          ort
SDA:   1    -0.366270556856E+03    0.52009E-01    0.00000E+00 10206   0.455E+00 0.000E+00
CGA:   2    -0.366386617162E+03   -0.11606E+00   -0.11566E+00 10206   0.124E+00 0.405E-02
CGA:   3    -0.366413112897E+03   -0.26496E-01   -0.26447E-01 10206   0.561E-01 0.108E-02
CGA:   4    -0.366421733815E+03   -0.86209E-02   -0.85689E-02 10206   0.142E-01-0.303E-02
CGA:   5    -0.366423841251E+03   -0.21074E-02   -0.21173E-02 10206   0.333E-02 0.904E-03
CGA:   6    -0.366424589435E+03   -0.74818E-03   -0.74590E-03 10206   0.128E-02 0.510E-04
CGA:   7    -0.366424899841E+03   -0.31041E-03   -0.29723E-03 10206   0.552E-03 0.226E-03
CGA:   8    -0.366425115553E+03   -0.21571E-03   -0.22667E-03 10206   0.451E-03-0.622E-04
CGA:   9    -0.366425198926E+03   -0.83373E-04   -0.81083E-04 10206   0.194E-03 0.108E-03
CGA:  10    -0.366425241613E+03   -0.42687E-04   -0.42954E-04 10206   0.787E-04 0.686E-04
CGA:  11    -0.366425258460E+03   -0.16847E-04   -0.17591E-04 10206   0.350E-04 0.433E-04
CGA:  12    -0.366425270447E+03   -0.11986E-04   -0.11285E-04 10206   0.164E-04 0.496E-05
CGA:  13    -0.366425272804E+03   -0.23572E-05   -0.28519E-05 10206   0.991E-05 0.136E-04
   3 F= -.36642527E+03 E0= -.36642527E+03  d E =-.102705E+00  mag=    16.0000
       N       E                     dE             d eps       ncg     rms          ort
SDA:   1    -0.365619809026E+03    0.80546E+00    0.00000E+00 10206   0.301E+01 0.000E+00
CGA:   2    -0.366383145559E+03   -0.76334E+00   -0.76245E+00 10206   0.823E+00 0.102E-01
CGA:   3    -0.366554292617E+03   -0.17115E+00   -0.17112E+00 10206   0.385E+00 0.149E-02
CGA:   4    -0.366611057997E+03   -0.56765E-01   -0.56467E-01 10206   0.895E-01-0.951E-02
CGA:   5    -0.366625991012E+03   -0.14933E-01   -0.14965E-01 10206   0.229E-01 0.289E-02
CGA:   6    -0.366630958434E+03   -0.49674E-02   -0.49694E-02 10206   0.946E-02-0.852E-04
CGA:   7    -0.366633204876E+03   -0.22464E-02   -0.21892E-02 10206   0.458E-02 0.118E-02
CGA:   8    -0.366634799917E+03   -0.15950E-02   -0.18381E-02 10206   0.588E-02-0.143E-02
CGA:   9    -0.366635269390E+03   -0.46947E-03   -0.51547E-03 10206   0.294E-02 0.684E-03
CGA:  10    -0.366635682723E+03   -0.41333E-03   -0.44652E-03 10206   0.161E-02 0.601E-03
CGA:  11    -0.366636036303E+03   -0.35358E-03   -0.35010E-03 10206   0.990E-03-0.410E-03
CGA:  12    -0.366636139964E+03   -0.10366E-03   -0.10936E-03 10206   0.542E-03 0.142E-03
CGA:  13    -0.366636190650E+03   -0.50686E-04   -0.66009E-04 10206   0.257E-03 0.192E-03
CGA:  14    -0.366636264032E+03   -0.73382E-04   -0.75067E-04 10206   0.149E-03-0.503E-04
CGA:  15    -0.366635651000E+03    0.61303E-03   -0.33096E-03 10206   0.446E-02-0.746E-03
CGA:  16    -0.366635918394E+03   -0.26739E-03   -0.42173E-03 10206   0.825E-03 0.658E-03
CGA:  17    -0.366636141785E+03   -0.22339E-03   -0.22679E-03 10206   0.259E-03 0.403E-04
CGA:  18    -0.366636185776E+03   -0.43991E-04   -0.11783E-03 10206   0.248E-02-0.643E-03
CGA:  19    -0.366636247682E+03   -0.61906E-04   -0.17336E-03 10206   0.140E-03 0.447E-03
CGA:  20    -0.366636239439E+03    0.82427E-05   -0.10481E-04 10206   0.600E-04 0.753E-04
CGA:  21    -0.366636276083E+03   -0.36644E-04    0.47734E-03 10206   0.107E-04 0.115E-04
CGA:  22    -0.366636273840E+03    0.22432E-05   -0.48649E-06 10206   0.758E-05 0.104E-04
   4 F= -.36663627E+03 E0= -.36663627E+03  d E =-.211001E+00  mag=    16.0000
       N       E                     dE             d eps       ncg     rms          ort
SDA:   1    -0.365317989877E+03    0.13183E+01    0.00000E+00 10206   0.450E+01 0.000E+00
CGA:   2    -0.366437175613E+03   -0.11192E+01   -0.11195E+01 10206   0.121E+01 0.551E-02
CGA:   3    -0.366681738642E+03   -0.24456E+00   -0.24460E+00 10206   0.611E+00 0.432E-02
CGA:   4    -0.366770097522E+03   -0.88359E-01   -0.87652E-01 10206   0.133E+00-0.117E-01
CGA:   5    -0.366793663166E+03   -0.23566E-01   -0.23768E-01 10206   0.347E-01 0.270E-02
CGA:   6    -0.366801038884E+03   -0.73757E-02   -0.73651E-02 10206   0.157E-01-0.221E-03
CGA:   7    -0.366804516549E+03   -0.34777E-02   -0.35126E-02 10206   0.919E-02 0.113E-02
CGA:   8    -0.366807075161E+03   -0.25586E-02   -0.25631E-02 10206   0.736E-02-0.831E-03
CGA:   9    -0.366808414461E+03   -0.13393E-02   -0.13552E-02 10206   0.342E-02 0.307E-03
CGA:  10    -0.366809330621E+03   -0.91616E-03   -0.91653E-03 10206   0.133E-02-0.749E-04
CGA:  11    -0.366809656635E+03   -0.32601E-03   -0.32643E-03 10206   0.497E-03 0.158E-03
CGA:  12    -0.366809812736E+03   -0.15610E-03   -0.15930E-03 10206   0.484E-03-0.943E-04
CGA:  13    -0.366809842381E+03   -0.29644E-04   -0.43703E-04 10206   0.184E-03 0.985E-04
CGA:  14    -0.366809860340E+03   -0.17959E-04   -0.26620E-04 10206   0.128E-03 0.681E-04
CGA:  15    -0.366809893621E+03   -0.33282E-04   -0.32701E-04 10206   0.421E-04-0.109E-04
CGA:  16    -0.366809903198E+03   -0.95761E-05   -0.95959E-05 10206   0.408E-04-0.177E-05
   5 F= -.36680990E+03 E0= -.36680990E+03  d E =-.173629E+00  mag=    16.0000
       N       E                     dE             d eps       ncg     rms          ort
SDA:   1    -0.365312002987E+03    0.14979E+01    0.00000E+00 10206   0.481E+01 0.000E+00
CGA:   2    -0.366500332468E+03   -0.11883E+01   -0.11882E+01 10206   0.135E+01-0.667E-03
CGA:   3    -0.366757002023E+03   -0.25667E+00   -0.25654E+00 10206   0.733E+00 0.600E-02
CGA:   4    -0.366862933954E+03   -0.10593E+00   -0.10577E+00 10206   0.141E+00-0.104E-01
CGA:   5    -0.366890066992E+03   -0.27133E-01   -0.27197E-01 10206   0.365E-01 0.229E-02
CGA:   6    -0.366897920457E+03   -0.78535E-02   -0.78471E-02 10206   0.183E-01-0.493E-03
CGA:   7    -0.366901883213E+03   -0.39628E-02   -0.39665E-02 10206   0.108E-01 0.108E-02
CGA:   8    -0.366904887806E+03   -0.30046E-02   -0.30379E-02 10206   0.825E-02-0.803E-03
CGA:   9    -0.366906460568E+03   -0.15728E-02   -0.15823E-02 10206   0.391E-02 0.520E-03
CGA:  10    -0.366907534486E+03   -0.10739E-02   -0.10848E-02 10206   0.179E-02-0.300E-03
CGA:  11    -0.366907826458E+03   -0.29197E-03   -0.30606E-03 10206   0.680E-03 0.347E-03
CGA:  12    -0.366908050495E+03   -0.22404E-03   -0.24122E-03 10206   0.564E-03-0.236E-03
CGA:  13    -0.366908067630E+03   -0.17134E-04   -0.36069E-04 10206   0.315E-03 0.146E-03
CGA:  14    -0.366908091077E+03   -0.23448E-04   -0.40111E-04 10206   0.168E-03 0.138E-03
CGA:  15    -0.366908143169E+03   -0.52092E-04   -0.52144E-04 10206   0.945E-04-0.814E-04
CGA:  16    -0.366908154700E+03   -0.11531E-04   -0.12713E-04 10206   0.921E-04-0.256E-04
CGA:  17    -0.366908154649E+03    0.50917E-07   -0.46775E-05 10206   0.548E-04 0.319E-04
   6 F= -.36690815E+03 E0= -.36690815E+03  d E =-.982515E-01  mag=    16.0000
       N       E                     dE             d eps       ncg     rms          ort
SDA:   1    -0.365566946565E+03    0.13412E+01    0.00000E+00 10206   0.395E+01 0.000E+00
CGA:   2    -0.366575071572E+03   -0.10081E+01   -0.10083E+01 10206   0.135E+01-0.748E-02
CGA:   3    -0.366803606261E+03   -0.22853E+00   -0.22821E+00 10206   0.664E+00 0.440E-02
CGA:   4    -0.366905713348E+03   -0.10211E+00   -0.10205E+00 10206   0.121E+00-0.580E-02
CGA:   5    -0.366927967415E+03   -0.22254E-01   -0.22294E-01 10206   0.323E-01 0.261E-02
CGA:   6    -0.366934856112E+03   -0.68887E-02   -0.68958E-02 10206   0.143E-01-0.853E-03
CGA:   7    -0.366937786304E+03   -0.29302E-02   -0.29197E-02 10206   0.790E-02 0.117E-02
CGA:   8    -0.366940112660E+03   -0.23264E-02   -0.23913E-02 10206   0.674E-02-0.840E-03
CGA:   9    -0.366941221297E+03   -0.11086E-02   -0.11235E-02 10206   0.320E-02 0.780E-03
CGA:  10    -0.366942184162E+03   -0.96287E-03   -0.97921E-03 10206   0.144E-02-0.236E-03
CGA:  11    -0.366942543914E+03   -0.35975E-03   -0.35333E-03 10206   0.490E-03 0.112E-03
CGA:  12    -0.366942642487E+03   -0.98573E-04   -0.10147E-03 10206   0.199E-03 0.154E-03
CGA:  13    -0.366942719863E+03   -0.77376E-04   -0.91839E-04 10206   0.291E-03-0.103E-03
CGA:  14    -0.366942723593E+03   -0.37292E-05   -0.20881E-04 10206   0.770E-04 0.118E-03
   7 F= -.36694272E+03 E0= -.36694272E+03  d E =-.345689E-01  mag=    16.0000
       N       E                     dE             d eps       ncg     rms          ort
SDA:   1    -0.365196868941E+03    0.17459E+01    0.00000E+00 10206   0.452E+01 0.000E+00
CGA:   2    -0.366478569254E+03   -0.12817E+01   -0.12817E+01 10206   0.207E+01-0.449E-02
CGA:   3    -0.366780357704E+03   -0.30179E+00   -0.29973E+00 10206   0.771E+00 0.938E-02
CGA:   4    -0.366907240647E+03   -0.12688E+00   -0.12685E+00 10206   0.136E+00-0.457E-02
CGA:   5    -0.366931607157E+03   -0.24367E-01   -0.24421E-01 10206   0.361E-01 0.260E-02
CGA:   6    -0.366939077321E+03   -0.74702E-02   -0.74717E-02 10206   0.142E-01-0.903E-03
CGA:   7    -0.366941751833E+03   -0.26745E-02   -0.26807E-02 10206   0.642E-02 0.817E-03
CGA:   8    -0.366943577012E+03   -0.18252E-02   -0.18835E-02 10206   0.506E-02-0.766E-03
CGA:   9    -0.366944359178E+03   -0.78217E-03   -0.79726E-03 10206   0.247E-02 0.591E-03
CGA:  10    -0.366945137972E+03   -0.77879E-03   -0.80909E-03 10206   0.136E-02-0.337E-03
CGA:  11    -0.366945471988E+03   -0.33402E-03   -0.33422E-03 10206   0.585E-03-0.325E-05
CGA:  12    -0.366945583113E+03   -0.11113E-03   -0.11356E-03 10206   0.261E-03 0.142E-03
CGA:  13    -0.366945673991E+03   -0.90878E-04   -0.11415E-03 10206   0.415E-03-0.166E-03
CGA:  14    -0.366945690561E+03   -0.16570E-04   -0.34450E-04 10206   0.966E-04 0.133E-03
CGA:  15    -0.366945705626E+03   -0.15065E-04   -0.17625E-04 10206   0.526E-04 0.350E-04
CGA:  16    -0.366945145764E+03    0.55986E-03   -0.30384E-03 10206   0.509E-02-0.580E-03
CGA:  17    -0.366945504198E+03   -0.35843E-03   -0.46761E-03 10206   0.727E-03 0.421E-03
CGA:  18    -0.366945694202E+03   -0.19000E-03   -0.18846E-03 10206   0.891E-04-0.124E-04
CGA:  19    -0.366945725199E+03   -0.30997E-04   -0.31917E-04 10206   0.497E-03-0.143E-03
CGA:  20    -0.366945730720E+03   -0.55205E-05   -0.32991E-04 10206   0.255E-04 0.954E-04
   8 F= -.36694573E+03 E0= -.36694573E+03  d E =-.300713E-02  mag=    16.0000
       N       E                     dE             d eps       ncg     rms          ort
SDA:   1    -0.366742419668E+03    0.20331E+00    0.00000E+00 10206   0.542E+00 0.000E+00
CGA:   2    -0.366910355856E+03   -0.16794E+00   -0.16789E+00 10206   0.180E+00-0.242E-02
CGA:   3    -0.366943391137E+03   -0.33035E-01   -0.33272E-01 10206   0.677E-01 0.214E-02
CGA:   4    -0.366953194440E+03   -0.98033E-02   -0.95913E-02 10206   0.152E-01-0.146E-02
CGA:   5    -0.366955560210E+03   -0.23658E-02   -0.24845E-02 10206   0.366E-02 0.833E-03
CGA:   6    -0.366956374488E+03   -0.81428E-03   -0.80272E-03 10206   0.137E-02-0.120E-03
CGA:   7    -0.366956610094E+03   -0.23561E-03   -0.25472E-03 10206   0.558E-03 0.179E-03
CGA:   8    -0.366956776628E+03   -0.16653E-03   -0.16517E-03 10206   0.424E-03-0.423E-04
CGA:   9    -0.366956827143E+03   -0.50515E-04   -0.63471E-04 10206   0.187E-03 0.990E-04
CGA:  10    -0.366956875294E+03   -0.48151E-04   -0.50925E-04 10206   0.904E-04 0.421E-04
CGA:  11    -0.366956899565E+03   -0.24271E-04   -0.24559E-04 10206   0.812E-04 0.465E-05
CGA:  12    -0.366956900320E+03   -0.75460E-06   -0.82259E-05 10206   0.343E-04 0.407E-04
   9 F= -.36695690E+03 E0= -.36695690E+03  d E =-.111696E-01  mag=    16.0000
       N       E                     dE             d eps       ncg     rms          ort
SDA:   1    -0.366760619179E+03    0.19628E+00    0.00000E+00 10206   0.518E+00 0.000E+00
CGA:   2    -0.366918234671E+03   -0.15762E+00   -0.15772E+00 10206   0.170E+00-0.275E-02
CGA:   3    -0.366950562184E+03   -0.32328E-01   -0.32443E-01 10206   0.593E-01 0.170E-02
CGA:   4    -0.366959109616E+03   -0.85474E-02   -0.84696E-02 10206   0.139E-01-0.781E-03
CGA:   5    -0.366961222889E+03   -0.21133E-02   -0.21876E-02 10206   0.355E-02 0.787E-03
CGA:   6    -0.366962029137E+03   -0.80625E-03   -0.79653E-03 10206   0.143E-02-0.254E-03
CGA:   7    -0.366962271603E+03   -0.24247E-03   -0.25422E-03 10206   0.574E-03 0.206E-03
CGA:   8    -0.366962464708E+03   -0.19311E-03   -0.19865E-03 10206   0.536E-03-0.975E-04
CGA:   9    -0.366962514048E+03   -0.49340E-04   -0.64256E-04 10206   0.275E-03 0.143E-03
CGA:  10    -0.366962571027E+03   -0.56979E-04   -0.61562E-04 10206   0.141E-03 0.689E-04
CGA:  11    -0.366962616156E+03   -0.45129E-04   -0.58972E-04 10206   0.401E-03-0.145E-03
CGA:  12    -0.366962620284E+03   -0.41272E-05   -0.27111E-04 10206   0.698E-04 0.130E-03
  10 F= -.36696262E+03 E0= -.36696262E+03  d E =-.571996E-02  mag=    16.0000
       N       E                     dE             d eps       ncg     rms          ort
SDA:   1    -0.366288277398E+03    0.67434E+00    0.00000E+00 10206   0.161E+01 0.000E+00
CGA:   2    -0.366841054048E+03   -0.55278E+00   -0.55354E+00 10206   0.554E+00-0.665E-02
CGA:   3    -0.366929999201E+03   -0.88945E-01   -0.89249E-01 10206   0.184E+00 0.570E-02
CGA:   4    -0.366957574478E+03   -0.27575E-01   -0.27365E-01 10206   0.398E-01-0.305E-02
CGA:   5    -0.366963885160E+03   -0.63107E-02   -0.64139E-02 10206   0.104E-01 0.170E-02
CGA:   6    -0.366966105818E+03   -0.22207E-02   -0.22105E-02 10206   0.348E-02-0.580E-03
CGA:   7    -0.366966688086E+03   -0.58227E-03   -0.59189E-03 10206   0.130E-02 0.234E-03
CGA:   8    -0.366967011226E+03   -0.32314E-03   -0.32400E-03 10206   0.744E-03-0.625E-04
CGA:   9    -0.366967138120E+03   -0.12689E-03   -0.13088E-03 10206   0.322E-03 0.112E-03
CGA:  10    -0.366967243709E+03   -0.10559E-03   -0.10663E-03 10206   0.165E-03-0.149E-04
CGA:  11    -0.366967266373E+03   -0.22664E-04   -0.26271E-04 10206   0.655E-04 0.657E-04
CGA:  12    -0.366967283398E+03   -0.17025E-04   -0.17596E-04 10206   0.293E-04 0.210E-04
CGA:  13    -0.366967289536E+03   -0.61377E-05   -0.68494E-05 10206   0.184E-04 0.175E-04
  11 F= -.36696729E+03 E0= -.36696729E+03  d E =-.466925E-02  mag=    16.0000
       N       E                     dE             d eps       ncg     rms          ort
SDA:   1    -0.363205745097E+03    0.37615E+01    0.00000E+00 10206   0.884E+01 0.000E+00
CGA:   2    -0.366249298845E+03   -0.30436E+01   -0.30438E+01 10206   0.374E+01-0.175E-02
CGA:   3    -0.366727775009E+03   -0.47848E+00   -0.47173E+00 10206   0.110E+01 0.487E-01
CGA:   4    -0.366920436690E+03   -0.19266E+00   -0.19261E+00 10206   0.180E+00-0.562E-02
CGA:   5    -0.366955346183E+03   -0.34909E-01   -0.34933E-01 10206   0.581E-01 0.162E-02
CGA:   6    -0.366965181077E+03   -0.98349E-02   -0.98255E-02 10206   0.189E-01-0.239E-03
CGA:   7    -0.366968881981E+03   -0.37009E-02   -0.36971E-02 10206   0.706E-02-0.318E-03
CGA:   8    -0.366970488951E+03   -0.16070E-02   -0.16084E-02 10206   0.353E-02-0.595E-04
CGA:   9    -0.366971281233E+03   -0.79228E-03   -0.79484E-03 10206   0.189E-02-0.136E-03
CGA:  10    -0.366971696171E+03   -0.41494E-03   -0.41701E-03 10206   0.861E-03-0.102E-03
CGA:  11    -0.366971840371E+03   -0.14420E-03   -0.14665E-03 10206   0.283E-03 0.807E-04
CGA:  12    -0.366971887185E+03   -0.46814E-04   -0.16400E-03 10206   0.942E-03-0.367E-03
CGA:  13    -0.366971931250E+03   -0.44065E-04   -0.79480E-04 10206   0.178E-03 0.253E-03
CGA:  14    -0.366971958368E+03   -0.27118E-04   -0.31318E-04 10206   0.734E-04 0.531E-04
CGA:  15    -0.366971999217E+03   -0.40849E-04    0.71956E-02 10206   0.940E-04-0.526E-04
CGA:  16    -0.366971994923E+03    0.42936E-05   -0.45893E-05 10206   0.348E-04 0.538E-04
  12 F= -.36697199E+03 E0= -.36697199E+03  d E =-.470539E-02  mag=    16.0000
       N       E                     dE             d eps       ncg     rms          ort
SDA:   1    -0.366808107107E+03    0.16389E+00    0.00000E+00 10206   0.440E+00 0.000E+00
CGA:   2    -0.366933124140E+03   -0.12502E+00   -0.12462E+00 10206   0.201E+00 0.451E-02
CGA:   3    -0.366964839928E+03   -0.31716E-01   -0.31631E-01 10206   0.674E-01-0.224E-02
CGA:   4    -0.366975006068E+03   -0.10166E-01   -0.10219E-01 10206   0.152E-01 0.119E-02
CGA:   5    -0.366977774630E+03   -0.27686E-02   -0.27498E-02 10206   0.435E-02-0.967E-03
CGA:   6    -0.366978432845E+03   -0.65822E-03   -0.67112E-03 10206   0.109E-02 0.406E-03
CGA:   7    -0.366978720893E+03   -0.28805E-03   -0.29765E-03 10206   0.622E-03-0.174E-03
CGA:   8    -0.366978788281E+03   -0.67388E-04   -0.75104E-04 10206   0.239E-03 0.142E-03
CGA:   9    -0.366978859238E+03   -0.70957E-04   -0.74208E-04 10206   0.174E-03-0.564E-04
CGA:  10    -0.366978818436E+03    0.40802E-04   -0.83555E-04 10206   0.909E-03-0.289E-03
CGA:  11    -0.366978865586E+03   -0.47150E-04   -0.79245E-04 10206   0.184E-03 0.243E-03
CGA:  12    -0.366978898515E+03   -0.32929E-04   -0.35686E-04 10206   0.735E-04 0.457E-04
CGA:  13    -0.366978097754E+03    0.80076E-03   -0.43531E-03 10206   0.818E-02-0.814E-03
CGA:  14    -0.366978641347E+03   -0.54359E-03   -0.69488E-03 10206   0.826E-03 0.599E-03
CGA:  15    -0.366978873223E+03   -0.23188E-03   -0.23206E-03 10206   0.189E-03 0.157E-05
CGA:  16    -0.366978944737E+03   -0.71514E-04   -0.40748E-04 10206   0.383E-03-0.208E-03
CGA:  17    -0.366978938392E+03    0.63445E-05   -0.23537E-04 10206   0.365E-04 0.102E-03
  13 F= -.36697894E+03 E0= -.36697894E+03  d E =-.694347E-02  mag=    16.0000
       N       E                     dE             d eps       ncg     rms          ort
SDA:   1    -0.366953510848E+03    0.25434E-01    0.00000E+00 10206   0.667E-01 0.000E+00
CGA:   2    -0.366974940222E+03   -0.21429E-01   -0.21431E-01 10206   0.223E-01 0.431E-03
CGA:   3    -0.366978979216E+03   -0.40390E-02   -0.40334E-02 10206   0.787E-02-0.432E-04
CGA:   4    -0.366980182780E+03   -0.12036E-02   -0.11886E-02 10206   0.184E-02-0.899E-04
CGA:   5    -0.366980524664E+03   -0.34188E-03   -0.32580E-03 10206   0.610E-03-0.124E-03
CGA:   6    -0.366980612148E+03   -0.87483E-04   -0.92838E-04 10206   0.156E-03 0.383E-04
CGA:   7    -0.366980662507E+03   -0.50360E-04   -0.50928E-04 10206   0.141E-03-0.565E-04
CGA:   8    -0.366980664796E+03   -0.22885E-05   -0.89817E-05 10206   0.713E-04 0.339E-04
  14 F= -.36698066E+03 E0= -.36698066E+03  d E =-.172640E-02  mag=    16.0000
       N       E                     dE             d eps       ncg     rms          ort
SDA:   1    -0.366937620084E+03    0.43042E-01    0.00000E+00 10206   0.108E+00 0.000E+00
CGA:   2    -0.366972535908E+03   -0.34916E-01   -0.34843E-01 10206   0.472E-01 0.163E-02
CGA:   3    -0.366979180823E+03   -0.66449E-02   -0.64468E-02 10206   0.164E-01-0.170E-02
CGA:   4    -0.366981625457E+03   -0.24446E-02   -0.25041E-02 10206   0.221E-02 0.541E-03
CGA:   5    -0.366982134125E+03   -0.50867E-03   -0.50097E-03 10206   0.742E-03-0.162E-03
CGA:   6    -0.366982263121E+03   -0.12900E-03   -0.12828E-03 10206   0.215E-03-0.919E-05
CGA:   7    -0.366982317739E+03   -0.54617E-04   -0.54360E-04 10206   0.136E-03-0.547E-04
CGA:   8    -0.366982337789E+03   -0.20050E-04   -0.20150E-04 10206   0.504E-04 0.159E-05
CGA:   9    -0.366982205207E+03    0.13258E-03   -0.60283E-04 10206   0.114E-02-0.209E-03
CGA:  10    -0.366982324793E+03   -0.11959E-03   -0.14621E-03 10206   0.166E-03 0.152E-03
CGA:  11    -0.366982379520E+03   -0.54727E-04   -0.50946E-04 10206   0.244E-03-0.154E-03
CGA:  12    -0.366982377807E+03    0.17131E-05   -0.16265E-04 10206   0.384E-04 0.793E-04
  15 F= -.36698238E+03 E0= -.36698238E+03  d E =-.171301E-02  mag=    16.0000
       N       E                     dE             d eps       ncg     rms          ort
SDA:   1    -0.366610115455E+03    0.37226E+00    0.00000E+00 10206   0.870E+00 0.000E+00
CGA:   2    -0.366930513607E+03   -0.32040E+00   -0.32050E+00 10206   0.209E+00-0.111E-02
CGA:   3    -0.366974630458E+03   -0.44117E-01   -0.44202E-01 10206   0.560E-01 0.139E-02
CGA:   4    -0.366982634560E+03   -0.80041E-02   -0.78597E-02 10206   0.154E-01-0.121E-02
CGA:   5    -0.366985158193E+03   -0.25236E-02   -0.25739E-02 10206   0.357E-02 0.536E-03
CGA:   6    -0.366985950006E+03   -0.79181E-03   -0.78027E-03 10206   0.126E-02-0.229E-03
CGA:   7    -0.366986211459E+03   -0.26145E-03   -0.26027E-03 10206   0.462E-03-0.312E-04
CGA:   8    -0.366986321511E+03   -0.11005E-03   -0.11003E-03 10206   0.227E-03-0.122E-05
CGA:   9    -0.366986390260E+03   -0.68750E-04   -0.81701E-04 10206   0.326E-03-0.125E-03
CGA:  10    -0.366986403288E+03   -0.13028E-04   -0.26584E-04 10206   0.524E-04 0.753E-04
CGA:  11    -0.366986412392E+03   -0.91040E-05   -0.10072E-04 10206   0.275E-04 0.100E-04
CGA:  12    -0.366985989674E+03    0.42272E-03   -0.23084E-03 10206   0.412E-02-0.354E-03
CGA:  13    -0.366986285235E+03   -0.29556E-03   -0.36773E-03 10206   0.471E-03 0.233E-03
CGA:  14    -0.366986421043E+03   -0.13581E-03   -0.13032E-03 10206   0.683E-04-0.319E-04
CGA:  15    -0.366986432777E+03   -0.11734E-04   -0.10838E-04 10206   0.433E-04-0.355E-05
CGA:  16    -0.366986436241E+03   -0.34633E-05   -0.57528E-05 10206   0.610E-05 0.841E-05
  16 F= -.36698644E+03 E0= -.36698644E+03  d E =-.405843E-02  mag=    16.0000
       N       E                     dE             d eps       ncg     rms          ort
SDA:   1    -0.358526181538E+03    0.84603E+01    0.00000E+00 10206   0.200E+02 0.000E+00
CGA:   2    -0.365236177620E+03   -0.67100E+01   -0.67170E+01 10206   0.932E+01 0.289E-01
CGA:   3    -0.366405584702E+03   -0.11694E+01   -0.10810E+01 10206   0.221E+01 0.726E+00
CGA:   4    -0.366857086943E+03   -0.45150E+00   -0.45293E+00 10206   0.435E+00-0.860E-02
CGA:   5    -0.366940791615E+03   -0.83705E-01   -0.83569E-01 10206   0.139E+00-0.718E-03
CGA:   6    -0.366964483276E+03   -0.23692E-01   -0.23854E-01 10206   0.464E-01 0.114E-02
CGA:   7    -0.366973756991E+03   -0.92737E-02   -0.90648E-02 10206   0.175E-01-0.144E-02
CGA:   8    -0.366977512894E+03   -0.37559E-02   -0.37898E-02 10206   0.798E-02 0.312E-03
CGA:   9    -0.366979742978E+03   -0.22301E-02   -0.21417E-02 10206   0.504E-02-0.117E-02
CGA:  10    -0.366980448497E+03   -0.70552E-03   -0.76156E-03 10206   0.175E-02 0.361E-03
CGA:  11    -0.366980966219E+03   -0.51772E-03   -0.49465E-03 10206   0.827E-03-0.363E-03
CGA:  12    -0.366981132954E+03   -0.16674E-03   -0.15617E-03 10206   0.396E-03-0.122E-03
CGA:  13    -0.366981241004E+03   -0.10805E-03   -0.10711E-03 10206   0.622E-03-0.278E-03
CGA:  14    -0.366981295874E+03   -0.54870E-04   -0.64248E-04 10206   0.114E-03 0.440E-04
CGA:  15    -0.366981338593E+03   -0.42719E-04   -0.47641E-04 10206   0.126E-03-0.622E-04
CGA:  16    -0.366981369658E+03   -0.31066E-04   -0.29229E-04 10206   0.441E-04-0.223E-04
CGA:  17    -0.366981421930E+03   -0.52271E-04    0.42373E-05 10206   0.120E-03-0.325E-04
CGA:  18    -0.366981416020E+03    0.59095E-05   -0.66645E-05 10206   0.254E-04 0.497E-04
  17 F= -.36698142E+03 E0= -.36698142E+03  d E =0.502022E-02  mag=    16.0000
       N       E                     dE             d eps       ncg     rms          ort
SDA:   1    -0.366765307795E+03    0.21611E+00    0.00000E+00 10206   0.541E+00 0.000E+00
CGA:   2    -0.366944205396E+03   -0.17890E+00   -0.17885E+00 10206   0.244E+00 0.119E-02
CGA:   3    -0.366976310321E+03   -0.32105E-01   -0.32146E-01 10206   0.769E-01-0.212E-02
CGA:   4    -0.366989091188E+03   -0.12781E-01   -0.12876E-01 10206   0.140E-01 0.107E-02
CGA:   5    -0.366991952145E+03   -0.28610E-02   -0.28137E-02 10206   0.435E-02-0.637E-03
CGA:   6    -0.366992627461E+03   -0.67532E-03   -0.70559E-03 10206   0.131E-02 0.304E-03
CGA:   7    -0.366992987207E+03   -0.35975E-03   -0.35640E-03 10206   0.922E-03-0.334E-03
CGA:   8    -0.366993050785E+03   -0.63578E-04   -0.88782E-04 10206   0.348E-03 0.187E-03
CGA:   9    -0.366993101555E+03   -0.50769E-04   -0.59250E-04 10206   0.160E-03 0.731E-04
CGA:  10    -0.366993103368E+03   -0.18134E-05   -0.10092E-03 10206   0.111E-02-0.369E-03
CGA:  11    -0.366993128571E+03   -0.25203E-04   -0.85557E-04 10206   0.184E-03 0.322E-03
CGA:  12    -0.366993135734E+03   -0.71623E-05   -0.21890E-04 10206   0.734E-04 0.902E-04
CGA:  13    -0.366993162756E+03   -0.27022E-04   -0.29659E-04 10206   0.102E-03-0.109E-03
CGA:  14    -0.366993161706E+03    0.10501E-05   -0.78484E-05 10206   0.316E-04 0.518E-04
  18 F= -.36699316E+03 E0= -.36699316E+03  d E =-.117457E-01  mag=    16.0000
       N       E                     dE             d eps       ncg     rms          ort
SDA:   1    -0.366415871580E+03    0.57729E+00    0.00000E+00 10206   0.134E+01 0.000E+00
CGA:   2    -0.366903797015E+03   -0.48793E+00   -0.48827E+00 10206   0.375E+00-0.274E-02
CGA:   3    -0.366969759342E+03   -0.65962E-01   -0.66119E-01 10206   0.133E+00 0.328E-02
CGA:   4    -0.366988218345E+03   -0.18459E-01   -0.18240E-01 10206   0.279E-01-0.278E-02
CGA:   5    -0.366992887717E+03   -0.46694E-02   -0.47347E-02 10206   0.694E-02 0.106E-02
CGA:   6    -0.366994416509E+03   -0.15288E-02   -0.15198E-02 10206   0.235E-02-0.401E-03
CGA:   7    -0.366994769492E+03   -0.35298E-03   -0.37235E-03 10206   0.748E-03 0.303E-03
CGA:   8    -0.366994997055E+03   -0.22756E-03   -0.23327E-03 10206   0.553E-03-0.122E-03
CGA:   9    -0.366995046582E+03   -0.49526E-04   -0.62524E-04 10206   0.227E-03 0.135E-03
CGA:  10    -0.366995090777E+03   -0.44195E-04   -0.47115E-04 10206   0.108E-03 0.491E-04
CGA:  11    -0.366995103209E+03   -0.12432E-04   -0.57680E-04 10206   0.601E-03-0.210E-03
CGA:  12    -0.366995119446E+03   -0.16237E-04   -0.42665E-04 10206   0.834E-04 0.162E-03
CGA:  13    -0.366995120505E+03   -0.10598E-05   -0.81718E-05 10206   0.388E-04 0.477E-04
CGA:  14    -0.366995139296E+03   -0.18791E-04    0.39486E-04 10206   0.274E-04-0.389E-05
CGA:  15    -0.366995137079E+03    0.22177E-05   -0.94096E-06 10206   0.153E-04 0.175E-04
  19 F= -.36699514E+03 E0= -.36699514E+03  d E =-.197537E-02  mag=    16.0000
       N       E                     dE             d eps       ncg     rms          ort
SDA:   1    -0.364811169500E+03    0.21840E+01    0.00000E+00 10206   0.532E+01 0.000E+00
CGA:   2    -0.366398867719E+03   -0.15877E+01   -0.15867E+01 10206   0.277E+01 0.773E-02
CGA:   3    -0.366826340053E+03   -0.42747E+00   -0.42733E+00 10206   0.714E+00-0.248E-04
CGA:   4    -0.366937735772E+03   -0.11140E+00   -0.11140E+00 10206   0.193E+00-0.730E-04
CGA:   5    -0.366970001318E+03   -0.32266E-01   -0.32308E-01 10206   0.530E-01 0.129E-02
CGA:   6    -0.366980110935E+03   -0.10110E-01   -0.10096E-01 10206   0.173E-01-0.146E-02
CGA:   7    -0.366983286761E+03   -0.31758E-02   -0.31818E-02 10206   0.608E-02 0.671E-03
CGA:   8    -0.366984730415E+03   -0.14437E-02   -0.14723E-02 10206   0.393E-02-0.819E-03
CGA:   9    -0.366985134782E+03   -0.40437E-03   -0.45442E-03 10206   0.131E-02 0.759E-03
CGA:  10    -0.366985406340E+03   -0.27156E-03   -0.27770E-03 10206   0.655E-03 0.320E-03
CGA:  11    -0.366985593526E+03   -0.18719E-03   -0.21618E-03 10206   0.115E-02-0.414E-03
CGA:  12    -0.366985623892E+03   -0.30366E-04   -0.78078E-04 10206   0.208E-03 0.364E-03
CGA:  13    -0.366985624609E+03   -0.71759E-06   -0.18478E-04 10206   0.124E-03 0.142E-03
CGA:  14    -0.366985565604E+03    0.59005E-04   -0.10415E-03 10206   0.187E-02-0.250E-03
CGA:  15    -0.366985625635E+03   -0.60031E-04   -0.12484E-03 10206   0.183E-03 0.429E-03
CGA:  16    -0.366985623244E+03    0.23911E-05   -0.14176E-04 10206   0.892E-04 0.112E-03
CGA:  17    -0.366985652870E+03   -0.29626E-04   -0.36307E-04 10206   0.119E-03-0.330E-04
CGA:  18    -0.366985645967E+03    0.69030E-05   -0.24604E-05 10206   0.812E-04 0.517E-04
  20 F= -.36698565E+03 E0= -.36698565E+03  d E =0.949111E-02  mag=    16.0000
       N       E                     dE             d eps       ncg     rms          ort
SDA:   1    -0.366618796654E+03    0.36686E+00    0.00000E+00 10206   0.926E+00 0.000E+00
CGA:   2    -0.366905626128E+03   -0.28683E+00   -0.28682E+00 10206   0.432E+00-0.188E-03
CGA:   3    -0.366972302632E+03   -0.66677E-01   -0.66771E-01 10206   0.123E+00 0.190E-02
CGA:   4    -0.366992287517E+03   -0.19985E-01   -0.19878E-01 10206   0.352E-01-0.286E-02
CGA:   5    -0.366997704507E+03   -0.54170E-02   -0.54571E-02 10206   0.840E-02 0.104E-02
CGA:   6    -0.366999377526E+03   -0.16730E-02   -0.16730E-02 10206   0.270E-02 0.119E-04
CGA:   7    -0.366999896649E+03   -0.51912E-03   -0.51997E-03 10206   0.881E-03 0.286E-03
CGA:   8    -0.367000173197E+03   -0.27655E-03   -0.34312E-03 10206   0.104E-02-0.425E-03
CGA:   9    -0.367000229215E+03   -0.56018E-04   -0.59545E-04 10206   0.562E-03 0.384E-04
CGA:  10    -0.367000296317E+03   -0.67102E-04   -0.70404E-04 10206   0.290E-03 0.424E-04
CGA:  11    -0.367000358134E+03   -0.61817E-04   -0.82826E-04 10206   0.421E-03-0.297E-03
CGA:  12    -0.367000399217E+03   -0.41083E-04   -0.48218E-04 10206   0.848E-04 0.855E-04
CGA:  13    -0.367000443748E+03   -0.44531E-04    0.79357E-04 10206   0.300E-04-0.859E-05
CGA:  14    -0.367000455967E+03   -0.12219E-04    0.15623E-04 10206   0.139E-04 0.113E-04
CGA:  15    -0.367000470151E+03   -0.14185E-04    0.20376E-05 10206   0.619E-05 0.629E-05
CGA:  16    -0.367000486165E+03   -0.16014E-04    0.24306E-06 10206   0.388E-05 0.386E-05
CGA:  17    -0.367000490044E+03   -0.38786E-05    0.23942E-06 10206   0.268E-05 0.147E-05
  21 F= -.36700049E+03 E0= -.36700049E+03  d E =-.148441E-01  mag=    16.0000
       N       E                     dE             d eps       ncg     rms          ort
SDA:   1    -0.366961717186E+03    0.38769E-01    0.00000E+00 10206   0.971E-01 0.000E+00
CGA:   2    -0.366993061206E+03   -0.31344E-01   -0.31313E-01 10206   0.408E-01 0.232E-03
CGA:   3    -0.366999609333E+03   -0.65481E-02   -0.65367E-02 10206   0.118E-01-0.285E-03
CGA:   4    -0.367001418136E+03   -0.18088E-02   -0.18070E-02 10206   0.302E-02-0.421E-04
CGA:   5    -0.367001942519E+03   -0.52438E-03   -0.52189E-03 10206   0.848E-03-0.111E-03
CGA:   6    -0.367002064537E+03   -0.12202E-03   -0.12671E-03 10206   0.208E-03 0.117E-03
CGA:   7    -0.367002121603E+03   -0.57066E-04   -0.57869E-04 10206   0.101E-03-0.155E-04
CGA:   8    -0.367002143967E+03   -0.22364E-04   -0.22715E-04 10206   0.493E-04-0.750E-05
CGA:   9    -0.367002174979E+03   -0.31012E-04    0.63054E-05 10206   0.196E-04 0.707E-05
CGA:  10    -0.367002180941E+03   -0.59616E-05   -0.62144E-05 10206   0.132E-04-0.323E-05
  22 F= -.36700218E+03 E0= -.36700218E+03  d E =-.169090E-02  mag=    16.0000
       N       E                     dE             d eps       ncg     rms          ort
SDA:   1    -0.366220247719E+03    0.78193E+00    0.00000E+00 10206   0.179E+01 0.000E+00
CGA:   2    -0.366885080918E+03   -0.66483E+00   -0.66576E+00 10206   0.529E+00-0.536E-02
CGA:   3    -0.366970240971E+03   -0.85160E-01   -0.85459E-01 10206   0.170E+00 0.645E-02
CGA:   4    -0.366995712172E+03   -0.25471E-01   -0.25222E-01 10206   0.389E-01-0.449E-02
CGA:   5    -0.367002038500E+03   -0.63263E-02   -0.63819E-02 10206   0.961E-02 0.155E-02
CGA:   6    -0.367004091397E+03   -0.20529E-02   -0.20545E-02 10206   0.322E-02-0.640E-03
CGA:   7    -0.367004598257E+03   -0.50686E-03   -0.51533E-03 10206   0.109E-02 0.266E-03
CGA:   8    -0.367004902628E+03   -0.30437E-03   -0.32487E-03 10206   0.874E-03-0.278E-03
CGA:   9    -0.367005009754E+03   -0.10713E-03   -0.10697E-03 10206   0.374E-03-0.349E-05
CGA:  10    -0.367005101806E+03   -0.92053E-04   -0.95864E-04 10206   0.191E-03-0.700E-04
CGA:  11    -0.367005131273E+03   -0.29467E-04   -0.54530E-04 10206   0.405E-03-0.174E-03
CGA:  12    -0.367005155395E+03   -0.24122E-04   -0.33023E-04 10206   0.506E-04 0.678E-04
CGA:  13    -0.367005171115E+03   -0.15721E-04   -0.19266E-04 10206   0.746E-04-0.297E-04
CGA:  14    -0.367005185757E+03   -0.14642E-04   -0.12241E-04 10206   0.626E-04-0.497E-04
CGA:  15    -0.367005187309E+03   -0.15519E-05   -0.39282E-05 10206   0.609E-05 0.161E-04
  23 F= -.36700519E+03 E0= -.36700519E+03  d E =-.300637E-02  mag=    16.0000
       N       E                     dE             d eps       ncg     rms          ort
SDA:   1    -0.359812707823E+03    0.71925E+01    0.00000E+00 10206   0.166E+02 0.000E+00
CGA:   2    -0.365613489446E+03   -0.58008E+01   -0.57956E+01 10206   0.792E+01 0.393E-01
CGA:   3    -0.366554826509E+03   -0.94134E+00   -0.91883E+00 10206   0.184E+01 0.130E+00
CGA:   4    -0.366907591661E+03   -0.35277E+00   -0.35279E+00 10206   0.315E+00-0.402E-02
CGA:   5    -0.366971363872E+03   -0.63772E-01   -0.63773E-01 10206   0.105E+00-0.409E-03
CGA:   6    -0.366988635795E+03   -0.17272E-01   -0.17268E-01 10206   0.330E-01-0.981E-04
CGA:   7    -0.366995334507E+03   -0.66987E-02   -0.67012E-02 10206   0.127E-01-0.540E-03
CGA:   8    -0.366998256083E+03   -0.29216E-02   -0.29347E-02 10206   0.653E-02-0.357E-03
CGA:   9    -0.366999738798E+03   -0.14827E-02   -0.15127E-02 10206   0.396E-02-0.788E-03
CGA:  10    -0.367000429313E+03   -0.69052E-03   -0.69035E-03 10206   0.132E-02-0.416E-04
CGA:  11    -0.367000735562E+03   -0.30625E-03   -0.31009E-03 10206   0.499E-03-0.111E-03
CGA:  12    -0.367000437674E+03    0.29789E-03   -0.33450E-03 10206   0.494E-02-0.120E-02
CGA:  13    -0.367000803239E+03   -0.36557E-03   -0.44187E-03 10206   0.633E-03 0.557E-03
CGA:  14    -0.367000927897E+03   -0.12466E-03   -0.12940E-03 10206   0.179E-03 0.120E-03
CGA:  15    -0.367000975584E+03   -0.47686E-04   -0.70331E-04 10206   0.600E-03-0.208E-03
CGA:  16    -0.367000998785E+03   -0.23201E-04   -0.41914E-04 10206   0.490E-04 0.120E-03
CGA:  17    -0.367001000038E+03   -0.12533E-05   -0.46713E-05 10206   0.265E-04 0.245E-04
  24 F= -.36700100E+03 E0= -.36700100E+03  d E =0.418727E-02  mag=    16.0000
       N       E                     dE             d eps       ncg     rms          ort
SDA:   1    -0.366502277834E+03    0.49872E+00    0.00000E+00 10206   0.117E+01 0.000E+00
CGA:   2    -0.366925403922E+03   -0.42313E+00   -0.42348E+00 10206   0.368E+00-0.234E-02
CGA:   3    -0.366984140634E+03   -0.58737E-01   -0.58836E-01 10206   0.127E+00 0.313E-02
CGA:   4    -0.367003987476E+03   -0.19847E-01   -0.19718E-01 10206   0.270E-01-0.239E-02
CGA:   5    -0.367008510968E+03   -0.45235E-02   -0.45738E-02 10206   0.686E-02 0.127E-02
CGA:   6    -0.367009934994E+03   -0.14240E-02   -0.14262E-02 10206   0.211E-02 0.175E-03
CGA:   7    -0.367010417150E+03   -0.48216E-03   -0.48161E-03 10206   0.906E-03 0.469E-04
CGA:   8    -0.367010630621E+03   -0.21347E-03   -0.21339E-03 10206   0.443E-03 0.411E-05
CGA:   9    -0.367010747830E+03   -0.11721E-03   -0.12944E-03 10206   0.463E-03-0.155E-03
CGA:  10    -0.367010764269E+03   -0.16439E-04   -0.26822E-04 10206   0.182E-03 0.819E-04
CGA:  11    -0.367010771964E+03   -0.76949E-05   -0.16009E-04 10206   0.830E-04 0.615E-04
CGA:  12    -0.367010786886E+03   -0.14922E-04   -0.15624E-04 10206   0.548E-04 0.113E-04
CGA:  13    -0.367010798866E+03   -0.11980E-04   -0.10726E-04 10206   0.540E-04-0.460E-04
CGA:  14    -0.367010797341E+03    0.15245E-05   -0.29631E-05 10206   0.202E-04 0.313E-04
  25 F= -.36701080E+03 E0= -.36701080E+03  d E =-.979730E-02  mag=    16.0000
       N       E                     dE             d eps       ncg     rms          ort
SDA:   1    -0.366831066154E+03    0.17973E+00    0.00000E+00 10206   0.416E+00 0.000E+00
CGA:   2    -0.366984606468E+03   -0.15354E+00   -0.15391E+00 10206   0.125E+00-0.198E-02
CGA:   3    -0.367004699704E+03   -0.20093E-01   -0.20204E-01 10206   0.384E-01 0.362E-02
CGA:   4    -0.367010950438E+03   -0.62507E-02   -0.61905E-02 10206   0.981E-02-0.171E-02
CGA:   5    -0.367012393082E+03   -0.14426E-02   -0.14658E-02 10206   0.231E-02 0.679E-03
CGA:   6    -0.367012974215E+03   -0.58113E-03   -0.60927E-03 10206   0.105E-02-0.488E-03
CGA:   7    -0.367013097578E+03   -0.12336E-03   -0.12841E-03 10206   0.348E-03 0.136E-03
CGA:   8    -0.367013165006E+03   -0.67428E-04   -0.68573E-04 10206   0.134E-03 0.742E-04
CGA:   9    -0.367013198918E+03   -0.33912E-04   -0.33603E-04 10206   0.669E-04 0.172E-04
CGA:  10    -0.367013203528E+03   -0.46099E-05   -0.81957E-05 10206   0.361E-04 0.439E-04
  26 F= -.36701320E+03 E0= -.36701320E+03  d E =-.240619E-02  mag=    16.0000
       N       E                     dE             d eps       ncg     rms          ort
SDA:   1    -0.366995736593E+03    0.17462E-01    0.00000E+00 10206   0.448E-01 0.000E+00
CGA:   2    -0.367010108356E+03   -0.14372E-01   -0.14245E-01 10206   0.178E-01 0.974E-03
CGA:   3    -0.367013025526E+03   -0.29172E-02   -0.29081E-02 10206   0.643E-02-0.263E-03
CGA:   4    -0.367013865268E+03   -0.83974E-03   -0.86629E-03 10206   0.121E-02 0.466E-03
CGA:   5    -0.367014130805E+03   -0.26554E-03   -0.26814E-03 10206   0.517E-03-0.162E-03
CGA:   6    -0.367014226934E+03   -0.96129E-04   -0.13003E-03 10206   0.606E-03-0.345E-03
CGA:   7    -0.367014253700E+03   -0.26766E-04   -0.47290E-04 10206   0.941E-04 0.173E-03
CGA:   8    -0.367014255890E+03   -0.21899E-05   -0.92202E-05 10206   0.465E-04 0.613E-04
CGA:   9    -0.367014266948E+03   -0.11058E-04   -0.10693E-04 10206   0.246E-04 0.818E-05
CGA:  10    -0.367014264599E+03    0.23487E-05   -0.11181E-05 10206   0.161E-04 0.233E-04
  27 F= -.36701426E+03 E0= -.36701426E+03  d E =-.106107E-02  mag=    16.0000
       N       E                     dE             d eps       ncg     rms          ort
SDA:   1    -0.366891565401E+03    0.12270E+00    0.00000E+00 10206   0.290E+00 0.000E+00
CGA:   2    -0.366994495566E+03   -0.10293E+00   -0.10274E+00 10206   0.908E-01 0.102E-02
CGA:   3    -0.367010990720E+03   -0.16495E-01   -0.16495E-01 10206   0.251E-01 0.519E-03
CGA:   4    -0.367014814904E+03   -0.38242E-02   -0.38139E-02 10206   0.604E-02-0.343E-03
CGA:   5    -0.367015871356E+03   -0.10565E-02   -0.10565E-02 10206   0.179E-02 0.146E-04
CGA:   6    -0.367016207855E+03   -0.33650E-03   -0.33714E-03 10206   0.564E-03-0.758E-04
CGA:   7    -0.367016283246E+03   -0.75391E-04   -0.80263E-04 10206   0.174E-03 0.154E-03
CGA:   8    -0.367016326291E+03   -0.43045E-04   -0.42417E-04 10206   0.845E-04 0.476E-04
CGA:   9    -0.367016340501E+03   -0.14210E-04   -0.15890E-04 10206   0.434E-04 0.529E-04
CGA:  10    -0.367016346727E+03   -0.62259E-05   -0.67488E-05 10206   0.215E-04 0.236E-04
  28 F= -.36701635E+03 E0= -.36701635E+03  d E =-.208213E-02  mag=    16.0000
       N       E                     dE             d eps       ncg     rms          ort
SDA:   1    -0.365091287017E+03    0.19251E+01    0.00000E+00 10206   0.450E+01 0.000E+00
CGA:   2    -0.366659717309E+03   -0.15684E+01   -0.15695E+01 10206   0.175E+01-0.643E-02
CGA:   3    -0.366903819506E+03   -0.24410E+00   -0.24332E+00 10206   0.584E+00 0.118E-01
CGA:   4    -0.366993552278E+03   -0.89733E-01   -0.89516E-01 10206   0.996E-01-0.803E-02
CGA:   5    -0.367012482473E+03   -0.18930E-01   -0.18931E-01 10206   0.283E-01 0.172E-02
CGA:   6    -0.367017706668E+03   -0.52242E-02   -0.52230E-02 10206   0.942E-02-0.118E-03
CGA:   7    -0.367019328355E+03   -0.16217E-02   -0.16320E-02 10206   0.340E-02 0.556E-03
CGA:   8    -0.367020219322E+03   -0.89097E-03   -0.90718E-03 10206   0.200E-02-0.269E-03
CGA:   9    -0.367020556936E+03   -0.33761E-03   -0.33992E-03 10206   0.867E-03 0.228E-03
CGA:  10    -0.367020833025E+03   -0.27609E-03   -0.29397E-03 10206   0.540E-03-0.162E-03
CGA:  11    -0.367020887636E+03   -0.54611E-04   -0.62525E-04 10206   0.222E-03 0.138E-03
CGA:  12    -0.367020955357E+03   -0.67721E-04   -0.71121E-04 10206   0.144E-03-0.589E-04
CGA:  13    -0.367020964089E+03   -0.87326E-05   -0.47562E-04 10206   0.487E-03-0.155E-03
CGA:  14    -0.367020978077E+03   -0.13988E-04   -0.35684E-04 10206   0.988E-04 0.156E-03
CGA:  15    -0.367020982766E+03   -0.46890E-05   -0.11632E-04 10206   0.593E-04 0.596E-04
CGA:  16    -0.367021011212E+03   -0.28446E-04    0.29361E-04 10206   0.545E-04-0.390E-05
CGA:  17    -0.367021010398E+03    0.81399E-06   -0.35080E-05 10206   0.264E-04 0.331E-04
  29 F= -.36702101E+03 E0= -.36702101E+03  d E =-.466367E-02  mag=    16.0000
       N       E                     dE             d eps       ncg     rms          ort
SDA:   1    -0.366708537600E+03    0.31247E+00    0.00000E+00 10206   0.758E+00 0.000E+00
CGA:   2    -0.366957088066E+03   -0.24855E+00   -0.24890E+00 10206   0.305E+00-0.253E-02
CGA:   3    -0.367001743604E+03   -0.44656E-01   -0.44849E-01 10206   0.103E+00 0.516E-02
CGA:   4    -0.367018391421E+03   -0.16648E-01   -0.16586E-01 10206   0.223E-01-0.216E-02
CGA:   5    -0.367021994916E+03   -0.36035E-02   -0.36202E-02 10206   0.545E-02 0.736E-03
CGA:   6    -0.367023263674E+03   -0.12688E-02   -0.13003E-02 10206   0.240E-02-0.720E-03
CGA:   7    -0.367023628840E+03   -0.36517E-03   -0.36616E-03 10206   0.813E-03 0.734E-04
CGA:   8    -0.367023846763E+03   -0.21792E-03   -0.24321E-03 10206   0.616E-03-0.250E-03
CGA:   9    -0.367023904463E+03   -0.57700E-04   -0.61394E-04 10206   0.269E-03 0.742E-04
CGA:  10    -0.367023965962E+03   -0.61499E-04   -0.61962E-04 10206   0.136E-03-0.320E-04
CGA:  11    -0.367023205477E+03    0.76048E-03   -0.41175E-03 10206   0.737E-02-0.865E-03
CGA:  12    -0.367023782193E+03   -0.57672E-03   -0.66682E-03 10206   0.816E-03 0.409E-03
CGA:  13    -0.367024011899E+03   -0.22971E-03   -0.22478E-03 10206   0.164E-03-0.645E-04
CGA:  14    -0.367024053190E+03   -0.41291E-04   -0.38182E-04 10206   0.158E-03-0.388E-04
CGA:  15    -0.367024069507E+03   -0.16317E-04   -0.16686E-04 10206   0.499E-04 0.197E-05
CGA:  16    -0.367024082762E+03   -0.13255E-04   -0.12317E-04 10206   0.555E-04-0.123E-04
CGA:  17    -0.367024088843E+03   -0.60812E-05   -0.47250E-05 10206   0.163E-04-0.669E-05
  30 F= -.36702409E+03 E0= -.36702409E+03  d E =-.307845E-02  mag=    16.0000
       N       E                     dE             d eps       ncg     rms          ort
SDA:   1    -0.366532158174E+03    0.49192E+00    0.00000E+00 10206   0.113E+01 0.000E+00
CGA:   2    -0.366940696205E+03   -0.40854E+00   -0.40869E+00 10206   0.344E+00-0.244E-02
CGA:   3    -0.367002281458E+03   -0.61585E-01   -0.61837E-01 10206   0.102E+00 0.215E-02
CGA:   4    -0.367016909503E+03   -0.14628E-01   -0.14480E-01 10206   0.246E-01-0.113E-02
CGA:   5    -0.367020932632E+03   -0.40231E-02   -0.41181E-02 10206   0.671E-02 0.828E-03
CGA:   6    -0.367022318053E+03   -0.13854E-02   -0.13569E-02 10206   0.219E-02-0.341E-03
CGA:   7    -0.367022708534E+03   -0.39048E-03   -0.40200E-03 10206   0.762E-03 0.141E-03
CGA:   8    -0.367022933503E+03   -0.22497E-03   -0.22630E-03 10206   0.641E-03-0.178E-03
CGA:   9    -0.367022983571E+03   -0.50069E-04   -0.64604E-04 10206   0.263E-03 0.104E-03
CGA:  10    -0.367023026165E+03   -0.42593E-04   -0.48622E-04 10206   0.139E-03 0.571E-04
CGA:  11    -0.367023065802E+03   -0.39638E-04   -0.36710E-04 10206   0.145E-03-0.695E-04
CGA:  12    -0.367023065243E+03    0.55904E-06   -0.10195E-04 10206   0.350E-04 0.574E-04
  31 F= -.36702307E+03 E0= -.36702307E+03  d E =0.102360E-02  mag=    16.0000
       N       E                     dE             d eps       ncg     rms          ort
SDA:   1    -0.366994677435E+03    0.28388E-01    0.00000E+00 10206   0.713E-01 0.000E+00
CGA:   2    -0.367015138816E+03   -0.20461E-01   -0.20419E-01 10206   0.407E-01 0.909E-03
CGA:   3    -0.367020784057E+03   -0.56452E-02   -0.55713E-02 10206   0.114E-01-0.826E-03
CGA:   4    -0.367022623481E+03   -0.18394E-02   -0.18547E-02 10206   0.233E-02 0.224E-03
CGA:   5    -0.367023127035E+03   -0.50355E-03   -0.49646E-03 10206   0.861E-03-0.304E-03
CGA:   6    -0.367023202631E+03   -0.75595E-04   -0.93160E-04 10206   0.215E-03 0.164E-03
CGA:   7    -0.367023258499E+03   -0.55868E-04   -0.55643E-04 10206   0.121E-03-0.259E-04
CGA:   8    -0.367023285388E+03   -0.26890E-04   -0.30256E-04 10206   0.130E-03-0.578E-04
CGA:   9    -0.367023282937E+03    0.24516E-05   -0.35340E-05 10206   0.837E-04 0.339E-04
  32 F= -.36702328E+03 E0= -.36702328E+03  d E =-.217693E-03  mag=    16.0000
       N       E                     dE             d eps       ncg     rms          ort
SDA:   1    -0.367012624970E+03    0.10660E-01    0.00000E+00 10206   0.268E-01 0.000E+00
CGA:   2    -0.367021949350E+03   -0.93244E-02   -0.92778E-02 10206   0.898E-02 0.346E-03
CGA:   3    -0.367023623718E+03   -0.16744E-02   -0.16596E-02 10206   0.321E-02-0.413E-03
CGA:   4    -0.367024001408E+03   -0.37769E-03   -0.40265E-03 10206   0.592E-03 0.294E-03
CGA:   5    -0.367024134903E+03   -0.13350E-03   -0.13301E-03 10206   0.259E-03-0.788E-04
CGA:   6    -0.367024160393E+03   -0.25490E-04   -0.29713E-04 10206   0.725E-04 0.532E-04
CGA:   7    -0.367024167201E+03   -0.68083E-05   -0.97405E-05 10206   0.269E-04 0.304E-04
  33 F= -.36702417E+03 E0= -.36702417E+03  d E =-.884265E-03  mag=    16.0000
       N       E                     dE             d eps       ncg     rms          ort
SDA:   1    -0.366968635602E+03    0.55525E-01    0.00000E+00 10206   0.131E+00 0.000E+00
CGA:   2    -0.367016433093E+03   -0.47797E-01   -0.47793E-01 10206   0.349E-01 0.201E-04
CGA:   3    -0.367023241787E+03   -0.68087E-02   -0.68149E-02 10206   0.969E-02 0.417E-03
CGA:   4    -0.367024719522E+03   -0.14777E-02   -0.14366E-02 10206   0.290E-02-0.659E-03
CGA:   5    -0.367025082142E+03   -0.36262E-03   -0.38336E-03 10206   0.633E-03 0.321E-03
CGA:   6    -0.367025225664E+03   -0.14352E-03   -0.14354E-03 10206   0.213E-03-0.153E-04
CGA:   7    -0.367025277717E+03   -0.52053E-04   -0.54892E-04 10206   0.131E-03-0.467E-04
CGA:   8    -0.367025284376E+03   -0.66590E-05   -0.10797E-04 10206   0.556E-04 0.412E-04
CGA:   9    -0.367025293662E+03   -0.92863E-05   -0.10103E-04 10206   0.274E-04 0.130E-04
CGA:  10    -0.367025309825E+03   -0.16163E-04    0.16128E-04 10206   0.215E-04-0.202E-05
CGA:  11    -0.367025310348E+03   -0.52304E-06   -0.16588E-05 10206   0.121E-04 0.990E-05
  34 F= -.36702531E+03 E0= -.36702531E+03  d E =-.114315E-02  mag=    16.0000
       N       E                     dE             d eps       ncg     rms          ort
SDA:   1    -0.365518105899E+03    0.15072E+01    0.00000E+00 10206   0.359E+01 0.000E+00
CGA:   2    -0.366738642151E+03   -0.12205E+01   -0.12210E+01 10206   0.126E+01-0.293E-02
CGA:   3    -0.366947885880E+03   -0.20924E+00   -0.20940E+00 10206   0.407E+00 0.786E-02
CGA:   4    -0.367007612522E+03   -0.59727E-01   -0.59464E-01 10206   0.858E-01-0.678E-02
CGA:   5    -0.367022065234E+03   -0.14453E-01   -0.14493E-01 10206   0.230E-01 0.235E-02
CGA:   6    -0.367026808682E+03   -0.47434E-02   -0.47598E-02 10206   0.771E-02-0.122E-02
CGA:   7    -0.367028108912E+03   -0.13002E-02   -0.13062E-02 10206   0.273E-02 0.619E-03
CGA:   8    -0.367028838751E+03   -0.72984E-03   -0.75790E-03 10206   0.200E-02-0.410E-03
CGA:   9    -0.367029108798E+03   -0.27005E-03   -0.27626E-03 10206   0.850E-03 0.217E-03
CGA:  10    -0.367029338565E+03   -0.22977E-03   -0.22869E-03 10206   0.389E-03 0.205E-04
CGA:  11    -0.367029437769E+03   -0.99205E-04   -0.14085E-03 10206   0.805E-03-0.259E-03
CGA:  12    -0.367029475354E+03   -0.37585E-04   -0.60533E-04 10206   0.113E-03 0.183E-03
CGA:  13    -0.367029487904E+03   -0.12550E-04   -0.16309E-04 10206   0.727E-04 0.489E-04
CGA:  14    -0.367029510586E+03   -0.22682E-04   -0.32098E-04 10206   0.125E-03-0.804E-04
CGA:  15    -0.367029513236E+03   -0.26508E-05   -0.10142E-04 10206   0.444E-04 0.650E-04
  35 F= -.36702951E+03 E0= -.36702951E+03  d E =-.420289E-02  mag=    16.0000
       N       E                     dE             d eps       ncg     rms          ort
SDA:   1    -0.366902294221E+03    0.12722E+00    0.00000E+00 10206   0.304E+00 0.000E+00
CGA:   2    -0.367006569703E+03   -0.10428E+00   -0.10419E+00 10206   0.108E+00 0.557E-03
CGA:   3    -0.367023450856E+03   -0.16881E-01   -0.16888E-01 10206   0.385E-01 0.220E-03
CGA:   4    -0.367029466279E+03   -0.60154E-02   -0.59567E-02 10206   0.933E-02-0.145E-02
CGA:   5    -0.367030900486E+03   -0.14342E-02   -0.14543E-02 10206   0.212E-02 0.617E-03
CGA:   6    -0.367031402478E+03   -0.50199E-03   -0.50597E-03 10206   0.840E-03-0.128E-03
CGA:   7    -0.367031528347E+03   -0.12587E-03   -0.13051E-03 10206   0.280E-03 0.160E-03
CGA:   8    -0.367030501540E+03    0.10268E-02   -0.55479E-03 10206   0.771E-02-0.137E-02
CGA:   9    -0.367031365363E+03   -0.86382E-03   -0.10166E-02 10206   0.136E-02 0.704E-03
CGA:  10    -0.367031690101E+03   -0.32474E-03   -0.27181E-03 10206   0.558E-03-0.335E-03
CGA:  11    -0.367031713250E+03   -0.23149E-04   -0.51090E-04 10206   0.164E-03 0.132E-03
CGA:  12    -0.367031725863E+03   -0.12612E-04   -0.24553E-04 10206   0.807E-04 0.593E-04
CGA:  13    -0.367030927371E+03    0.79849E-03   -0.16542E-03 10206   0.574E-02-0.808E-03
CGA:  14    -0.367031428575E+03   -0.50120E-03   -0.67462E-03 10206   0.126E-02 0.702E-03
CGA:  15    -0.367031722698E+03   -0.29412E-03   -0.27189E-03 10206   0.208E-03-0.133E-03
CGA:  16    -0.367031760694E+03   -0.37996E-04   -0.42409E-04 10206   0.705E-04 0.358E-04
CGA:  17    -0.367031776983E+03   -0.16289E-04   -0.47965E-04 10206   0.529E-03-0.134E-03
CGA:  18    -0.367031796634E+03   -0.19651E-04   -0.42731E-04 10206   0.483E-04 0.847E-04
CGA:  19    -0.367031799381E+03   -0.27470E-05   -0.66676E-05 10206   0.173E-04 0.175E-04
  36 F= -.36703180E+03 E0= -.36703180E+03  d E =-.228614E-02  mag=    16.0000
       N       E                     dE             d eps       ncg     rms          ort
SDA:   1    -0.366588307104E+03    0.44349E+00    0.00000E+00 10206   0.104E+01 0.000E+00
CGA:   2    -0.366945930870E+03   -0.35762E+00   -0.35768E+00 10206   0.365E+00-0.336E-02
CGA:   3    -0.367006110356E+03   -0.60179E-01   -0.60577E-01 10206   0.119E+00 0.298E-02
CGA:   4    -0.367023326311E+03   -0.17216E-01   -0.16960E-01 10206   0.255E-01-0.187E-02
CGA:   5    -0.367027446025E+03   -0.41197E-02   -0.42386E-02 10206   0.668E-02 0.865E-03
CGA:   6    -0.367028869772E+03   -0.14237E-02   -0.13966E-02 10206   0.213E-02-0.274E-03
CGA:   7    -0.367029238536E+03   -0.36876E-03   -0.38580E-03 10206   0.767E-03 0.158E-03
CGA:   8    -0.367029469754E+03   -0.23122E-03   -0.22858E-03 10206   0.665E-03-0.182E-03
CGA:   9    -0.367029527004E+03   -0.57250E-04   -0.70524E-04 10206   0.277E-03 0.876E-04
CGA:  10    -0.367029579487E+03   -0.52483E-04   -0.56888E-04 10206   0.160E-03 0.430E-04
CGA:  11    -0.367029626784E+03   -0.47297E-04   -0.42565E-04 10206   0.206E-03-0.973E-04
CGA:  12    -0.367029629690E+03   -0.29065E-05   -0.15510E-04 10206   0.397E-04 0.629E-04
  37 F= -.36702963E+03 E0= -.36702963E+03  d E =0.216969E-02  mag=    16.0000
       N       E                     dE             d eps       ncg     rms          ort
SDA:   1    -0.366995754755E+03    0.33872E-01    0.00000E+00 10206   0.875E-01 0.000E+00
CGA:   2    -0.367020264768E+03   -0.24510E-01   -0.24466E-01 10206   0.471E-01 0.201E-02
CGA:   3    -0.367027579486E+03   -0.73147E-02   -0.71820E-02 10206   0.142E-01-0.133E-02
CGA:   4    -0.367029528421E+03   -0.19489E-02   -0.20102E-02 10206   0.283E-02 0.576E-03
CGA:   5    -0.367030168772E+03   -0.64035E-03   -0.62568E-03 10206   0.107E-02-0.415E-03
CGA:   6    -0.367030309459E+03   -0.14069E-03   -0.14538E-03 10206   0.254E-03 0.534E-04
CGA:   7    -0.367030369214E+03   -0.59755E-04   -0.59225E-04 10206   0.111E-03-0.266E-04
CGA:   8    -0.367030389219E+03   -0.20005E-04   -0.20229E-04 10206   0.372E-04 0.602E-05
CGA:   9    -0.367030393840E+03   -0.46216E-05   -0.21917E-04 10206   0.141E-03-0.541E-04
CGA:  10    -0.367030407946E+03   -0.14105E-04   -0.16821E-04 10206   0.232E-04 0.200E-04
CGA:  11    -0.367030378412E+03    0.29534E-04   -0.19226E-04 10206   0.441E-03-0.102E-03
CGA:  12    -0.367030407250E+03   -0.28838E-04   -0.40821E-04 10206   0.636E-04 0.670E-04
CGA:  13    -0.367030424632E+03   -0.17382E-04   -0.16573E-04 10206   0.112E-04-0.219E-04
CGA:  14    -0.367030425821E+03   -0.11897E-05   -0.11956E-05 10206   0.564E-05 0.563E-07
  38 F= -.36703043E+03 E0= -.36703043E+03  d E =-.796131E-03  mag=    16.0000
       N       E                     dE             d eps       ncg     rms          ort
SDA:   1    -0.367008790844E+03    0.21634E-01    0.00000E+00 10206   0.535E-01 0.000E+00
CGA:   2    -0.367027250633E+03   -0.18460E-01   -0.18358E-01 10206   0.178E-01 0.112E-02
CGA:   3    -0.367030408904E+03   -0.31583E-02   -0.30734E-02 10206   0.793E-02-0.999E-03
CGA:   4    -0.367031281817E+03   -0.87291E-03   -0.91543E-03 10206   0.104E-02 0.338E-03
CGA:   5    -0.367031512755E+03   -0.23094E-03   -0.23074E-03 10206   0.366E-03-0.578E-05
CGA:   6    -0.367031588508E+03   -0.75753E-04   -0.71545E-04 10206   0.224E-03-0.879E-04
CGA:   7    -0.367031596216E+03   -0.77090E-05   -0.15732E-04 10206   0.768E-04 0.536E-04
  39 F= -.36703160E+03 E0= -.36703160E+03  d E =-.117040E-02  mag=    16.0000
       N       E                     dE             d eps       ncg     rms          ort
SDA:   1    -0.366979738097E+03    0.51850E-01    0.00000E+00 10206   0.126E+00 0.000E+00
CGA:   2    -0.367021580341E+03   -0.41842E-01   -0.41637E-01 10206   0.557E-01 0.200E-02
CGA:   3    -0.367029466051E+03   -0.78857E-02   -0.77445E-02 10206   0.186E-01-0.172E-02
CGA:   4    -0.367032151164E+03   -0.26851E-02   -0.27164E-02 10206   0.273E-02 0.430E-03
CGA:   5    -0.367032776042E+03   -0.62488E-03   -0.62494E-03 10206   0.971E-03-0.235E-03
CGA:   6    -0.367032894887E+03   -0.11884E-03   -0.12906E-03 10206   0.234E-03 0.131E-03
CGA:   7    -0.367032964293E+03   -0.69406E-04   -0.74643E-04 10206   0.191E-03-0.844E-04
CGA:   8    -0.367032977942E+03   -0.13648E-04   -0.16464E-04 10206   0.999E-04 0.322E-04
CGA:   9    -0.367032992423E+03   -0.14481E-04   -0.15843E-04 10206   0.395E-04 0.165E-04
CGA:  10    -0.367033016029E+03   -0.23606E-04    0.25047E-04 10206   0.274E-04-0.175E-05
CGA:  11    -0.367033020964E+03   -0.49356E-05   -0.49500E-05 10206   0.147E-04 0.572E-06
  40 F= -.36703302E+03 E0= -.36703302E+03  d E =-.142475E-02  mag=    16.0000
       N       E                     dE             d eps       ncg     rms          ort
SDA:   1    -0.366747595643E+03    0.28542E+00    0.00000E+00 10206   0.673E+00 0.000E+00
CGA:   2    -0.366984425757E+03   -0.23683E+00   -0.23644E+00 10206   0.208E+00 0.273E-02
CGA:   3    -0.367023616886E+03   -0.39191E-01   -0.39123E-01 10206   0.631E-01-0.202E-02
CGA:   4    -0.367031877326E+03   -0.82604E-02   -0.83069E-02 10206   0.142E-01 0.537E-03
CGA:   5    -0.367034580248E+03   -0.27029E-02   -0.26867E-02 10206   0.453E-02-0.598E-03
CGA:   6    -0.367035278113E+03   -0.69787E-03   -0.71131E-03 10206   0.111E-02 0.274E-03
CGA:   7    -0.367035586507E+03   -0.30839E-03   -0.32290E-03 10206   0.690E-03-0.229E-03
CGA:   8    -0.367035660705E+03   -0.74197E-04   -0.82465E-04 10206   0.280E-03 0.131E-03
CGA:   9    -0.367035745882E+03   -0.85178E-04   -0.90621E-04 10206   0.237E-03-0.890E-04
CGA:  10    -0.367035765937E+03   -0.20055E-04   -0.72041E-04 10206   0.459E-03-0.225E-03
CGA:  11    -0.367035800509E+03   -0.34572E-04   -0.51096E-04 10206   0.114E-03 0.145E-03
CGA:  12    -0.367035838239E+03   -0.37730E-04   -0.41225E-04 10206   0.680E-04-0.641E-04
CGA:  13    -0.367035845521E+03   -0.72817E-05   -0.90898E-05 10206   0.122E-04 0.204E-04
  41 F= -.36703585E+03 E0= -.36703585E+03  d E =-.282456E-02  mag=    16.0000
       N       E                     dE             d eps       ncg     rms          ort
SDA:   1    -0.366816134914E+03    0.21970E+00    0.00000E+00 10206   0.530E+00 0.000E+00
CGA:   2    -0.366996558715E+03   -0.18042E+00   -0.18026E+00 10206   0.178E+00 0.125E-02
CGA:   3    -0.367027565194E+03   -0.31006E-01   -0.31078E-01 10206   0.618E-01 0.157E-02
CGA:   4    -0.367036059923E+03   -0.84947E-02   -0.83446E-02 10206   0.127E-01-0.191E-02
CGA:   5    -0.367038224378E+03   -0.21645E-02   -0.21830E-02 10206   0.322E-02 0.469E-03
CGA:   6    -0.367038937481E+03   -0.71310E-03   -0.71266E-03 10206   0.125E-02-0.317E-03
CGA:   7    -0.367039108999E+03   -0.17152E-03   -0.18207E-03 10206   0.400E-03 0.198E-03
CGA:   8    -0.367039245703E+03   -0.13670E-03   -0.17925E-03 10206   0.609E-03-0.244E-03
CGA:   9    -0.367039290803E+03   -0.45100E-04   -0.64945E-04 10206   0.122E-03 0.173E-03
CGA:  10    -0.367039329513E+03   -0.38710E-04   -0.42581E-04 10206   0.128E-03-0.691E-04
CGA:  11    -0.367039344322E+03   -0.14809E-04   -0.17640E-04 10206   0.285E-04 0.350E-04
CGA:  12    -0.367039364644E+03   -0.20322E-04    0.12571E-04 10206   0.275E-04 0.744E-05
CGA:  13    -0.367039379053E+03   -0.14409E-04   -0.12950E-04 10206   0.324E-04 0.911E-05
CGA:  14    -0.367039392822E+03   -0.13769E-04   -0.14589E-04 10206   0.112E-04-0.712E-05
CGA:  15    -0.367039402811E+03   -0.99898E-05    0.66375E-06 10206   0.593E-05-0.352E-07
  42 F= -.36703940E+03 E0= -.36703940E+03  d E =-.355729E-02  mag=    16.0000
       N       E                     dE             d eps       ncg     rms          ort
SDA:   1    -0.366973305443E+03    0.66087E-01    0.00000E+00 10206   0.152E+00 0.000E+00
CGA:   2    -0.367026519446E+03   -0.53214E-01   -0.53591E-01 10206   0.657E-01-0.282E-02
CGA:   3    -0.367034595730E+03   -0.80763E-02   -0.82820E-02 10206   0.187E-01 0.233E-02
CGA:   4    -0.367037957485E+03   -0.33618E-02   -0.33172E-02 10206   0.406E-02-0.918E-03
CGA:   5    -0.367038568200E+03   -0.61071E-03   -0.63313E-03 10206   0.959E-03 0.415E-03
CGA:   6    -0.367038776831E+03   -0.20863E-03   -0.20886E-03 10206   0.319E-03 0.132E-04
CGA:   7    -0.367038835101E+03   -0.58270E-04   -0.59623E-04 10206   0.111E-03 0.447E-04
CGA:   8    -0.367038861529E+03   -0.26428E-04   -0.26493E-04 10206   0.453E-04 0.184E-04
CGA:   9    -0.367038871932E+03   -0.10403E-04   -0.10587E-04 10206   0.200E-04 0.149E-04
CGA:  10    -0.367038874843E+03   -0.29112E-05   -0.38296E-05 10206   0.833E-05 0.134E-04
  43 F= -.36703887E+03 E0= -.36703887E+03  d E =0.527968E-03  mag=    16.0000
       N       E                     dE             d eps       ncg     rms          ort
SDA:   1    -0.367033153369E+03    0.57186E-02    0.00000E+00 10206   0.141E-01 0.000E+00
CGA:   2    -0.367037615314E+03   -0.44619E-02   -0.45025E-02 10206   0.665E-02-0.350E-03
CGA:   3    -0.367038574463E+03   -0.95915E-03   -0.96371E-03 10206   0.210E-02 0.762E-04
CGA:   4    -0.367038918280E+03   -0.34382E-03   -0.34178E-03 10206   0.501E-03-0.458E-04
CGA:   5    -0.367039008072E+03   -0.89791E-04   -0.89699E-04 10206   0.138E-03-0.454E-05
CGA:   6    -0.367039022018E+03   -0.13946E-04   -0.17257E-04 10206   0.380E-04 0.433E-04
CGA:   7    -0.367039029056E+03   -0.70379E-05   -0.25039E-04 10206   0.145E-03-0.594E-04
CGA:   8    -0.367039038682E+03   -0.96260E-05   -0.14495E-04 10206   0.227E-04 0.427E-04
  44 F= -.36703904E+03 E0= -.36703904E+03  d E =-.163838E-03  mag=    16.0000
       N       E                     dE             d eps       ncg     rms          ort
SDA:   1    -0.367018209071E+03    0.20820E-01    0.00000E+00 10206   0.517E-01 0.000E+00
CGA:   2    -0.367035882738E+03   -0.17674E-01   -0.17530E-01 10206   0.159E-01 0.106E-02
CGA:   3    -0.367039132244E+03   -0.32495E-02   -0.32406E-02 10206   0.539E-02-0.753E-03
CGA:   4    -0.367039723190E+03   -0.59095E-03   -0.61944E-03 10206   0.104E-02 0.316E-03
CGA:   5    -0.367039950892E+03   -0.22770E-03   -0.22773E-03 10206   0.403E-03-0.130E-03
CGA:   6    -0.367040013075E+03   -0.62183E-04   -0.61865E-04 10206   0.115E-03-0.104E-04
CGA:   7    -0.367040026540E+03   -0.13465E-04   -0.15555E-04 10206   0.371E-04 0.319E-04
CGA:   8    -0.367040038784E+03   -0.12244E-04   -0.14186E-04 10206   0.422E-04-0.199E-04
CGA:   9    -0.367040041529E+03   -0.27452E-05   -0.43868E-05 10206   0.903E-05 0.161E-04
  45 F= -.36704004E+03 E0= -.36704004E+03  d E =-.100285E-02  mag=    16.0000
