       N       E                     dE             d eps       ncg     rms          ort
DAV:   1     0.247625297038E+04    0.24763E+04   -0.15678E+05 11088   0.157E+03
DAV:   2    -0.186885159762E+03   -0.26631E+04   -0.25184E+04 11088   0.421E+02
DAV:   3    -0.430626350323E+03   -0.24374E+03   -0.23859E+03 11088   0.145E+02
DAV:   4    -0.438339502501E+03   -0.77132E+01   -0.74676E+01 11088   0.264E+01
DAV:   5    -0.438768103575E+03   -0.42860E+00   -0.42173E+00 11088   0.453E+00
SDA:   6    -0.120260729884E+03    0.31851E+03   -0.42173E+00 11088   0.566E+04 0.000E+00
CGA:   7    -0.213895806903E+03   -0.93635E+02   -0.50699E+03 11088   0.101E+05-0.286E+04
CGA:   8    -0.117161640613E+03    0.96734E+02   -0.89719E+03 11088   0.677E+04-0.372E+04
CGA:   9    -0.599082202693E+02    0.57253E+02   -0.33186E+03 11088   0.155E+04-0.885E+03
CGA:  10    -0.138061057995E+03   -0.78153E+02   -0.64303E+02 11088   0.105E+05-0.183E+05
CGA:  11     0.695519000867E+00    0.13876E+03   -0.84080E+03 11088   0.140E+04-0.105E+04
CGA:  12    -0.222104368910E+03   -0.22280E+03   -0.62480E+02 11088   0.892E+03-0.725E+03
CGA:  13    -0.197979094893E+03    0.24125E+02   -0.46161E+02 11088   0.212E+04-0.195E+04
CGA:  14    -0.210371702154E+03   -0.12393E+02   -0.98001E+02 11088   0.479E+04-0.436E+04
CGA:  15    -0.161593344089E+03    0.48778E+02   -0.32533E+03 11088   0.723E+03-0.591E+03
CGA:  16    -0.298008497824E+03   -0.13642E+03   -0.15034E+02 11088   0.415E+04 0.854E+04
CGA:  17    -0.289766075724E+03    0.82424E+01   -0.26538E+03 11088   0.204E+04-0.178E+04
CGA:  18    -0.305600314752E+03   -0.15834E+02   -0.68089E+02 11088   0.142E+03-0.107E+03
CGA:  19    -0.322725009941E+03   -0.17125E+02   -0.18662E+01 11088   0.419E+03 0.977E+03
CGA:  20    -0.321839212854E+03    0.88580E+00   -0.13295E+02 11088   0.322E+03-0.280E+01
CGA:  21    -0.323945257566E+03   -0.21060E+01   -0.94418E+01 11088   0.829E+02-0.682E+02
CGA:  22    -0.327094673058E+03   -0.31494E+01   -0.79297E+00 11088   0.230E+03 0.255E+03
CGA:  23    -0.319037521841E+03    0.80572E+01   -0.91097E+01 11088   0.217E+03-0.819E+02
CGA:  24    -0.329680958037E+03   -0.10643E+02   -0.22019E+01 11088   0.800E+02 0.609E+02
CGA:  25    -0.325120783187E+03    0.45602E+01   -0.25167E+01 11088   0.161E+03-0.636E+02
CGA:  26    -0.328298057442E+03   -0.31773E+01   -0.30151E+01 11088   0.287E+03-0.330E+03
CGA:  27    -0.312877156177E+03    0.15421E+02   -0.95670E+01 11088   0.794E+03-0.283E+03
CGA:  28    -0.323946391772E+03   -0.11069E+02   -0.21810E+02 11088   0.185E+03-0.136E+03
CGA:  29    -0.326625859522E+03   -0.26795E+01   -0.42285E+01 11088   0.781E+03 0.120E+03
CGA:  30    -0.325026784435E+03    0.15991E+01   -0.30732E+02 11088   0.608E+03-0.158E+03
CGA:  31    -0.322718392041E+03    0.23084E+01   -0.20423E+02 11088   0.159E+03-0.155E+02
CGA:  32    -0.322641743779E+03    0.76648E-01   -0.53254E+01 11088   0.284E+03-0.270E+02
CGA:  33    -0.308026630016E+03    0.14615E+02   -0.58610E+01 11088   0.678E+03-0.261E+03
CGA:  34    -0.327418311792E+03   -0.19392E+02   -0.15890E+02 11088   0.157E+03-0.338E+02
CGA:  35    -0.328715525749E+03   -0.12972E+01   -0.36411E+01 11088   0.225E+03 0.714E+02
CGA:  36    -0.318505713885E+03    0.10210E+02   -0.74692E+01 11088   0.561E+03-0.334E+03
CGA:  37    -0.330459477241E+03   -0.11954E+02   -0.12802E+02 11088   0.187E+03-0.434E+03
CGA:  38    -0.331079050441E+03   -0.61957E+00   -0.36321E+01 11088   0.117E+03-0.130E+03
CGA:  39    -0.330221240190E+03    0.85781E+00   -0.28503E+01 11088   0.170E+03-0.130E+03
CGA:  40    -0.331777253579E+03   -0.15560E+01   -0.30098E+01 11088   0.864E+02-0.125E+03
CGA:  41    -0.331518502892E+03    0.25875E+00   -0.18994E+01 11088   0.135E+03-0.113E+03
CGA:  42    -0.332036022128E+03   -0.51752E+00   -0.25426E+01 11088   0.756E+02-0.874E+02
CGA:  43    -0.332392352939E+03   -0.35633E+00   -0.14492E+01 11088   0.766E+02-0.859E+02
CGA:  44    -0.332686433090E+03   -0.29408E+00   -0.13867E+01 11088   0.427E+02-0.492E+02
CGA:  45    -0.333108613554E+03   -0.42218E+00   -0.63990E+00 11088   0.119E+02-0.225E+02
CGA:  46    -0.333218880345E+03   -0.11027E+00   -0.17402E+00 11088   0.351E+01-0.394E+01
CGA:  47    -0.333339370489E+03   -0.12049E+00   -0.12024E+00 11088   0.395E+01 0.102E+00
CGA:  48    -0.333517420435E+03   -0.17805E+00   -0.18365E+00 11088   0.393E+01 0.485E+00
CGA:  49    -0.333680243492E+03   -0.16282E+00   -0.11926E+00 11088   0.631E+00 0.146E+01
CGA:  50    -0.333953970312E+03   -0.27373E+00   -0.80080E-02 11088   0.260E+01-0.132E+00
CGA:  51    -0.333982271330E+03   -0.28301E-01   -0.15702E-01 11088   0.200E+01 0.142E+01
CGA:  52    -0.334041218369E+03   -0.58947E-01   -0.49419E-01 11088   0.325E+00 0.288E+00
CGA:  53    -0.334081962788E+03   -0.40744E-01   -0.42357E-01 11088   0.105E+01-0.461E-01
CGA:  54    -0.334115691633E+03   -0.33729E-01   -0.34550E-01 11088   0.600E+00-0.799E-01
CGA:  55    -0.334135038127E+03   -0.19346E-01   -0.21039E-01 11088   0.510E+00-0.675E-01
CGA:  56    -0.334188697385E+03   -0.53659E-01   -0.58263E-01 11088   0.760E+00-0.907E-01
CGA:  57    -0.334209497110E+03   -0.20800E-01   -0.16418E-01 11088   0.284E+00 0.593E-01
CGA:  58    -0.334221272777E+03   -0.11776E-01   -0.10635E-01 11088   0.238E+00-0.353E-01
CGA:  59    -0.334239544688E+03   -0.18272E-01   -0.19955E-01 11088   0.455E+00-0.970E-01
CGA:  60    -0.334250117430E+03   -0.10573E-01   -0.77278E-02 11088   0.249E+00-0.791E-01
CGA:  61    -0.334257340093E+03   -0.72227E-02   -0.61178E-02 11088   0.125E+00-0.398E-01
CGA:  62    -0.334262518368E+03   -0.51783E-02   -0.49151E-02 11088   0.141E+00-0.120E-01
CGA:  63    -0.334269021841E+03   -0.65035E-02   -0.63607E-02 11088   0.119E+00-0.377E-02
CGA:  64    -0.334272816580E+03   -0.37947E-02   -0.38605E-02 11088   0.519E-01 0.790E-03
CGA:  65    -0.334274668589E+03   -0.18520E-02   -0.19501E-02 11088   0.365E-01 0.155E-02
CGA:  66    -0.334276719064E+03   -0.20505E-02   -0.20996E-02 11088   0.457E-01 0.383E-02
CGA:  67    -0.334279173998E+03   -0.24549E-02   -0.25615E-02 11088   0.330E-01 0.600E-02
CGA:  68    -0.334280588617E+03   -0.14146E-02   -0.15563E-02 11088   0.212E-01 0.528E-02
CGA:  69    -0.334281816476E+03   -0.12279E-02   -0.13060E-02 11088   0.217E-01 0.658E-02
CGA:  70    -0.334283134852E+03   -0.13184E-02   -0.14345E-02 11088   0.117E-01 0.836E-02
CGA:  71    -0.334283592006E+03   -0.45715E-03   -0.60381E-03 11088   0.498E-02 0.548E-02
CGA:  72    -0.334283711102E+03   -0.11910E-03   -0.24337E-03 11088   0.408E-02 0.434E-02
CGA:  73    -0.334283870684E+03   -0.15958E-03   -0.19601E-03 11088   0.240E-02 0.296E-02
CGA:  74    -0.334283935257E+03   -0.64573E-04   -0.10142E-03 11088   0.186E-02 0.210E-02
CGA:  75    -0.334283968343E+03   -0.33087E-04   -0.69581E-04 11088   0.157E-02 0.170E-02
CGA:  76    -0.334283987733E+03   -0.19390E-04   -0.53954E-04 11088   0.139E-02 0.147E-02
CGA:  77    -0.334283999718E+03   -0.11985E-04   -0.44478E-04 11088   0.126E-02 0.132E-02
CGA:  78    -0.334284007231E+03   -0.75133E-05   -0.38030E-04 11088   0.117E-02 0.121E-02
CGA:  79    -0.334284011826E+03   -0.45946E-05   -0.33283E-04 11088   0.109E-02 0.112E-02
CGA:  80    -0.334284014400E+03   -0.25744E-05   -0.29588E-04 11088   0.103E-02 0.105E-02
CGA:  81    -0.334284015505E+03   -0.11050E-05   -0.26589E-04 11088   0.972E-03 0.994E-03
CGA:  82    -0.334284015501E+03    0.45839E-08   -0.24080E-04 11088   0.926E-03 0.944E-03
CGA:  83    -0.334284014635E+03    0.86612E-06   -0.21936E-04 11088   0.886E-03 0.901E-03
CGA:  84    -0.334284013086E+03    0.15482E-05   -0.20075E-04 11088   0.850E-03 0.863E-03
CGA:  85    -0.334284010996E+03    0.20902E-05   -0.18448E-04 11088   0.819E-03 0.829E-03
CGA:  86    -0.334284008490E+03    0.25061E-05   -0.17033E-04 11088   0.791E-03 0.800E-03
CGA:  87    -0.334284005677E+03    0.28130E-05   -0.15803E-04 11088   0.767E-03 0.774E-03
CGA:  88    -0.334284002622E+03    0.30552E-05   -0.14703E-04 11088   0.745E-03 0.751E-03
CGA:  89    -0.334283999370E+03    0.32520E-05   -0.13707E-04 11088   0.724E-03 0.730E-03
CGA:  90    -0.334283995960E+03    0.34100E-05   -0.12800E-04 11088   0.706E-03 0.711E-03
CGA:  91    -0.334283992427E+03    0.35330E-05   -0.11971E-04 11088   0.688E-03 0.693E-03
CGA:  92    -0.334283988803E+03    0.36239E-05   -0.11214E-04 11088   0.672E-03 0.677E-03
CGA:  93    -0.334283985118E+03    0.36853E-05   -0.10521E-04 11088   0.658E-03 0.661E-03
   1 F= -.33428399E+03 E0= -.33427581E+03  d E =-.334284E+03  mag=    10.0000
       N       E                     dE             d eps       ncg     rms          ort
SDA:   1    -0.334293193487E+03   -0.92047E-02    0.00000E+00 11088   0.545E-02 0.000E+00
CGA:   2    -0.334293595852E+03   -0.40236E-03    0.16951E-02 11088   0.263E-02 0.349E-02
CGA:   3    -0.334293814533E+03   -0.21868E-03    0.24150E-03 11088   0.183E-02 0.217E-02
CGA:   4    -0.334293967552E+03   -0.15302E-03    0.16304E-03 11088   0.141E-02 0.159E-02
CGA:   5    -0.334294083666E+03   -0.11611E-03    0.13890E-03 11088   0.115E-02 0.126E-02
CGA:   6    -0.334294176069E+03   -0.92403E-04    0.13621E-03 11088   0.974E-03 0.105E-02
CGA:   7    -0.334294252007E+03   -0.75938E-04    0.14953E-03 11088   0.844E-03 0.898E-03
CGA:   8    -0.334294315848E+03   -0.63840E-04    0.18323E-03 11088   0.743E-03 0.784E-03
CGA:   9    -0.334294370408E+03   -0.54560E-04    0.25926E-03 11088   0.659E-03 0.692E-03
CGA:  10    -0.334294417612E+03   -0.47204E-04    0.49029E-03 11088   0.589E-03 0.617E-03
CGA:  11    -0.334294458839E+03   -0.41227E-04    0.94181E-02 11088   0.528E-03 0.552E-03
CGA:  12    -0.334294654841E+03   -0.19600E-03   -0.15493E-03 11088   0.229E-03 0.320E-03
CGA:  13    -0.334294702773E+03   -0.47933E-04   -0.32838E-04 11088   0.164E-03 0.190E-03
CGA:  14    -0.334294820086E+03   -0.11731E-03   -0.84793E-04 11088   0.818E-04 0.949E-04
CGA:  15    -0.334294831539E+03   -0.11454E-04   -0.10856E-04 11088   0.894E-04 0.650E-04
CGA:  16    -0.334294857797E+03   -0.26257E-04    0.30164E-04 11088   0.147E-03 0.294E-04
CGA:  17    -0.334294909627E+03   -0.51830E-04    0.17574E-03 11088   0.665E-04 0.164E-03
CGA:  18    -0.334294919162E+03   -0.95348E-05   -0.91419E-05 11088   0.101E-03 0.289E-04
CGA:  19    -0.334294959916E+03   -0.40754E-04    0.70111E-04 11088   0.580E-04 0.118E-03
CGA:  20    -0.334294978272E+03   -0.18356E-04    0.13435E-04 11088   0.674E-04 0.251E-04
CGA:  21    -0.334295020076E+03   -0.41805E-04    0.81987E-05 11088   0.506E-04 0.842E-04
CGA:  22    -0.334295022038E+03   -0.19617E-05   -0.37055E-05 11088   0.382E-04 0.338E-04
CGA:  23    -0.334295031407E+03   -0.93687E-05    0.52714E-03 11088   0.393E-04 0.321E-04
CGA:  24    -0.334295042042E+03   -0.10635E-04    0.22390E-04 11088   0.490E-04 0.246E-04
CGA:  25    -0.334295056084E+03   -0.14042E-04    0.17351E-04 11088   0.924E-04 0.545E-06
CGA:  26    -0.334295086404E+03   -0.30320E-04    0.17391E-04 11088   0.803E-04 0.835E-04
CGA:  27    -0.334295091384E+03   -0.49798E-05   -0.51717E-05 11088   0.388E-04 0.322E-05
   2 F= -.33429509E+03 E0= -.33428609E+03  d E =-.111063E-01  mag=     9.9356
       N       E                     dE             d eps       ncg     rms          ort
SDA:   1    -0.334111535704E+03    0.18355E+00    0.00000E+00 11088   0.954E+00 0.000E+00
CGA:   2    -0.334294625474E+03   -0.18309E+00   -0.18496E+00 11088   0.163E+01-0.225E-01
CGA:   3    -0.334419271062E+03   -0.12465E+00   -0.12538E+00 11088   0.262E+00 0.449E-02
CGA:   4    -0.334464054625E+03   -0.44784E-01   -0.44808E-01 11088   0.112E+00-0.595E-03
CGA:   5    -0.334474691433E+03   -0.10637E-01   -0.10608E-01 11088   0.559E-01-0.105E-02
CGA:   6    -0.334479915044E+03   -0.52236E-02   -0.52619E-02 11088   0.156E-01 0.183E-02
CGA:   7    -0.334481941675E+03   -0.20266E-02   -0.20243E-02 11088   0.106E-01 0.434E-03
CGA:   8    -0.334483312215E+03   -0.13705E-02   -0.13728E-02 11088   0.483E-02-0.449E-03
CGA:   9    -0.334483927737E+03   -0.61552E-03   -0.62701E-03 11088   0.524E-02-0.788E-03
CGA:  10    -0.334484435762E+03   -0.50802E-03   -0.50603E-03 11088   0.156E-02-0.306E-03
CGA:  11    -0.334484622090E+03   -0.18633E-03   -0.18446E-03 11088   0.866E-03 0.463E-03
CGA:  12    -0.334484732143E+03   -0.11005E-03   -0.11279E-03 11088   0.593E-03 0.130E-03
CGA:  13    -0.334484838214E+03   -0.10607E-03   -0.10734E-03 11088   0.282E-03-0.362E-04
CGA:  14    -0.334484362681E+03    0.47553E-03   -0.25649E-03 11088   0.838E-02-0.105E-02
CGA:  15    -0.334484737350E+03   -0.37467E-03   -0.43439E-03 11088   0.123E-02 0.438E-03
CGA:  16    -0.334484854259E+03   -0.11691E-03   -0.14535E-03 11088   0.498E-03 0.277E-03
CGA:  17    -0.334484953745E+03   -0.99486E-04   -0.94628E-04 11088   0.565E-03-0.886E-04
CGA:  18    -0.334485023937E+03   -0.70192E-04   -0.56042E-04 11088   0.322E-03-0.164E-03
CGA:  19    -0.334485048201E+03   -0.24264E-04   -0.19644E-04 11088   0.193E-03-0.397E-04
CGA:  20    -0.334485065221E+03   -0.17021E-04   -0.19813E-04 11088   0.149E-03 0.349E-04
CGA:  21    -0.334485073532E+03   -0.83109E-05   -0.12667E-04 11088   0.649E-04 0.356E-04
CGA:  22    -0.334485083896E+03   -0.10363E-04   -0.11666E-04 11088   0.700E-04 0.310E-04
CGA:  23    -0.334485095189E+03   -0.11294E-04   -0.11831E-04 11088   0.568E-04 0.735E-05
CGA:  24    -0.334484779366E+03    0.31582E-03   -0.17345E-03 11088   0.276E-02-0.397E-03
CGA:  25    -0.334484949020E+03   -0.16965E-03   -0.18751E-03 11088   0.109E-02 0.731E-04
CGA:  26    -0.334485085104E+03   -0.13608E-03   -0.16488E-03 11088   0.285E-03 0.169E-03
CGA:  27    -0.334485183999E+03   -0.98895E-04   -0.89347E-04 11088   0.929E-03-0.256E-03
CGA:  28    -0.334485211597E+03   -0.27598E-04   -0.46929E-04 11088   0.601E-04 0.693E-04
CGA:  29    -0.334485209630E+03    0.19670E-05   -0.42280E-05 11088   0.245E-04 0.270E-04
   3 F= -.33448521E+03 E0= -.33447621E+03  d E =-.190118E+00  mag=     9.9614
       N       E                     dE             d eps       ncg     rms          ort
SDA:   1    -0.333682940673E+03    0.80227E+00    0.00000E+00 11088   0.250E+01 0.000E+00
CGA:   2    -0.334106114345E+03   -0.42317E+00   -0.40925E+00 11088   0.366E+01 0.156E-01
CGA:   3    -0.334440374786E+03   -0.33426E+00   -0.35302E+00 11088   0.803E+00-0.130E+00
CGA:   4    -0.334563468635E+03   -0.12309E+00   -0.12341E+00 11088   0.249E+00-0.700E-03
CGA:   5    -0.334591837518E+03   -0.28369E-01   -0.28186E-01 11088   0.133E+00 0.372E-02
CGA:   6    -0.334604608435E+03   -0.12771E-01   -0.12597E-01 11088   0.366E-01 0.926E-03
CGA:   7    -0.334610394468E+03   -0.57860E-02   -0.58237E-02 11088   0.221E-01 0.308E-03
CGA:   8    -0.334612807697E+03   -0.24132E-02   -0.23460E-02 11088   0.118E-01-0.615E-03
CGA:   9    -0.334614531062E+03   -0.17234E-02   -0.16914E-02 11088   0.725E-02-0.347E-03
CGA:  10    -0.334615325175E+03   -0.79411E-03   -0.76529E-03 11088   0.443E-02-0.288E-03
CGA:  11    -0.334615856497E+03   -0.53132E-03   -0.55663E-03 11088   0.156E-02 0.287E-03
CGA:  12    -0.334616126742E+03   -0.27025E-03   -0.26550E-03 11088   0.174E-02-0.912E-04
CGA:  13    -0.334616303309E+03   -0.17657E-03   -0.16243E-03 11088   0.419E-03-0.123E-03
CGA:  14    -0.334616407319E+03   -0.10401E-03   -0.11394E-03 11088   0.468E-03-0.116E-03
CGA:  15    -0.334616439338E+03   -0.32019E-04   -0.26957E-04 11088   0.205E-03-0.382E-04
CGA:  16    -0.334616485607E+03   -0.46269E-04   -0.64090E-04 11088   0.393E-03-0.132E-03
CGA:  17    -0.334616528922E+03   -0.43315E-04   -0.40734E-04 11088   0.134E-03-0.251E-04
CGA:  18    -0.334616554430E+03   -0.25508E-04   -0.25125E-04 11088   0.249E-03-0.711E-04
CGA:  19    -0.334616561969E+03   -0.75387E-05   -0.13819E-04 11088   0.388E-04 0.422E-04
   4 F= -.33461656E+03 E0= -.33460787E+03  d E =-.131352E+00  mag=     9.9881
       N       E                     dE             d eps       ncg     rms          ort
SDA:   1    -0.334511390587E+03    0.10516E+00    0.00000E+00 11088   0.346E+00 0.000E+00
CGA:   2    -0.334572148746E+03   -0.60758E-01   -0.60756E-01 11088   0.314E+00 0.268E-03
CGA:   3    -0.334601192958E+03   -0.29044E-01   -0.29231E-01 11088   0.154E+00-0.191E-02
CGA:   4    -0.334621126366E+03   -0.19933E-01   -0.19930E-01 11088   0.407E-01 0.342E-03
CGA:   5    -0.334625994045E+03   -0.48677E-02   -0.48741E-02 11088   0.190E-01-0.141E-03
CGA:   6    -0.334627533555E+03   -0.15395E-02   -0.15636E-02 11088   0.593E-02 0.479E-03
CGA:   7    -0.334628411477E+03   -0.87792E-03   -0.87465E-03 11088   0.315E-02-0.108E-03
CGA:   8    -0.334628715067E+03   -0.30359E-03   -0.30840E-03 11088   0.138E-02 0.711E-04
CGA:   9    -0.334628998504E+03   -0.28344E-03   -0.30172E-03 11088   0.126E-02-0.417E-03
CGA:  10    -0.334629056966E+03   -0.58462E-04   -0.62728E-04 11088   0.540E-03 0.409E-04
CGA:  11    -0.334629119467E+03   -0.62501E-04   -0.68019E-04 11088   0.363E-03 0.120E-03
CGA:  12    -0.334629159713E+03   -0.40246E-04   -0.38496E-04 11088   0.214E-03-0.222E-04
CGA:  13    -0.334629192620E+03   -0.32907E-04   -0.33044E-04 11088   0.123E-03-0.393E-04
CGA:  14    -0.334629202696E+03   -0.10076E-04   -0.26725E-04 11088   0.519E-03-0.158E-03
CGA:  15    -0.334629228987E+03   -0.26291E-04   -0.28206E-04 11088   0.704E-04 0.160E-04
CGA:  16    -0.334629242905E+03   -0.13918E-04   -0.14262E-04 11088   0.986E-04-0.974E-05
CGA:  17    -0.334629249414E+03   -0.65085E-05   -0.65497E-05 11088   0.195E-04 0.406E-06
   5 F= -.33462925E+03 E0= -.33462058E+03  d E =-.126874E-01  mag=     9.9899
       N       E                     dE             d eps       ncg     rms          ort
SDA:   1    -0.334572299401E+03    0.56944E-01    0.00000E+00 11088   0.242E+00 0.000E+00
CGA:   2    -0.334599884753E+03   -0.27585E-01   -0.27536E-01 11088   0.186E+00 0.153E-02
CGA:   3    -0.334618057318E+03   -0.18173E-01   -0.18311E-01 11088   0.783E-01-0.802E-03
CGA:   4    -0.334631102634E+03   -0.13045E-01   -0.13044E-01 11088   0.288E-01 0.191E-03
CGA:   5    -0.334634230548E+03   -0.31279E-02   -0.31201E-02 11088   0.122E-01-0.317E-03
CGA:   6    -0.334635268250E+03   -0.10377E-02   -0.10514E-02 11088   0.330E-02 0.267E-03
CGA:   7    -0.334635722771E+03   -0.45452E-03   -0.45251E-03 11088   0.203E-02-0.143E-03
CGA:   8    -0.334635889743E+03   -0.16697E-03   -0.17337E-03 11088   0.581E-03 0.111E-03
CGA:   9    -0.334636026346E+03   -0.13660E-03   -0.16802E-03 11088   0.559E-03-0.244E-03
CGA:  10    -0.334636043008E+03   -0.16662E-04   -0.19825E-04 11088   0.290E-03 0.356E-04
CGA:  11    -0.334636067090E+03   -0.24082E-04   -0.28313E-04 11088   0.204E-03 0.768E-04
CGA:  12    -0.334636085629E+03   -0.18539E-04   -0.19374E-04 11088   0.773E-04 0.118E-04
CGA:  13    -0.334636099992E+03   -0.14362E-04   -0.14302E-04 11088   0.350E-04 0.172E-05
CGA:  14    -0.334636110479E+03   -0.10488E-04    0.85424E-04 11088   0.312E-04-0.238E-05
CGA:  15    -0.334636122337E+03   -0.11857E-04    0.47961E-05 11088   0.333E-04-0.168E-04
CGA:  16    -0.334636122225E+03    0.11155E-06   -0.13442E-05 11088   0.110E-04 0.143E-04
   6 F= -.33463612E+03 E0= -.33462743E+03  d E =-.687281E-02  mag=     9.9886
       N       E                     dE             d eps       ncg     rms          ort
SDA:   1    -0.334531377517E+03    0.10474E+00    0.00000E+00 11088   0.403E+00 0.000E+00
CGA:   2    -0.334587347090E+03   -0.55970E-01   -0.55970E-01 11088   0.253E+00 0.118E-02
CGA:   3    -0.334611778175E+03   -0.24431E-01   -0.24653E-01 11088   0.156E+00-0.346E-03
CGA:   4    -0.334633524126E+03   -0.21746E-01   -0.21748E-01 11088   0.480E-01 0.219E-03
CGA:   5    -0.334639573579E+03   -0.60495E-02   -0.60467E-02 11088   0.175E-01-0.568E-03
CGA:   6    -0.334640924115E+03   -0.13505E-02   -0.13725E-02 11088   0.565E-02 0.465E-03
CGA:   7    -0.334641722003E+03   -0.79789E-03   -0.79865E-03 11088   0.217E-02-0.938E-04
CGA:   8    -0.334641964793E+03   -0.24279E-03   -0.24272E-03 11088   0.127E-02-0.298E-05
CGA:   9    -0.334642135080E+03   -0.17029E-03   -0.17123E-03 11088   0.543E-03-0.149E-03
CGA:  10    -0.334642175247E+03   -0.40167E-04   -0.43181E-04 11088   0.240E-03 0.781E-04
CGA:  11    -0.334642215318E+03   -0.40071E-04   -0.39547E-04 11088   0.960E-04 0.305E-04
CGA:  12    -0.334642223851E+03   -0.85333E-05   -0.10047E-04 11088   0.421E-04 0.432E-04
CGA:  13    -0.334642237217E+03   -0.13365E-04   -0.13203E-04 11088   0.268E-04 0.176E-05
CGA:  14    -0.334642241157E+03   -0.39405E-05   -0.56097E-05 11088   0.921E-04-0.236E-04
   7 F= -.33464224E+03 E0= -.33463347E+03  d E =-.611893E-02  mag=     9.9864
       N       E                     dE             d eps       ncg     rms          ort
SDA:   1    -0.334484874842E+03    0.15736E+00    0.00000E+00 11088   0.594E+00 0.000E+00
CGA:   2    -0.334574786152E+03   -0.89911E-01   -0.89851E-01 11088   0.251E+00 0.259E-02
CGA:   3    -0.334615041433E+03   -0.40255E-01   -0.40273E-01 11088   0.232E+00-0.978E-03
CGA:   4    -0.334635717416E+03   -0.20676E-01   -0.20701E-01 11088   0.760E-01 0.135E-02
CGA:   5    -0.334644814516E+03   -0.90971E-02   -0.90939E-02 11088   0.153E-01-0.453E-03
CGA:   6    -0.334646720654E+03   -0.19061E-02   -0.19082E-02 11088   0.728E-02 0.529E-03
CGA:   7    -0.334647403845E+03   -0.68319E-03   -0.67380E-03 11088   0.309E-02-0.273E-03
CGA:   8    -0.334647808297E+03   -0.40445E-03   -0.40398E-03 11088   0.998E-03 0.593E-04
CGA:   9    -0.334647952297E+03   -0.14400E-03   -0.14581E-03 11088   0.896E-03-0.119E-03
CGA:  10    -0.334648010973E+03   -0.58676E-04   -0.62285E-04 11088   0.189E-03 0.735E-04
CGA:  11    -0.334648040269E+03   -0.29295E-04   -0.28430E-04 11088   0.123E-03 0.668E-04
CGA:  12    -0.334648055922E+03   -0.15653E-04   -0.15938E-04 11088   0.785E-04 0.912E-05
CGA:  13    -0.334648061643E+03   -0.57216E-05   -0.71564E-05 11088   0.279E-04 0.355E-04
   8 F= -.33464806E+03 E0= -.33463920E+03  d E =-.582049E-02  mag=     9.9855
       N       E                     dE             d eps       ncg     rms          ort
SDA:   1    -0.332542151475E+03    0.21059E+01    0.00000E+00 11088   0.840E+01 0.000E+00
CGA:   2    -0.333619470595E+03   -0.10773E+01   -0.10750E+01 11088   0.422E+01 0.248E+00
CGA:   3    -0.334057585484E+03   -0.43811E+00   -0.41523E+00 11088   0.310E+01-0.163E+00
CGA:   4    -0.334483348841E+03   -0.42576E+00   -0.42463E+00 11088   0.951E+00 0.300E-01
CGA:   5    -0.334609858379E+03   -0.12651E+00   -0.12649E+00 11088   0.310E+00 0.204E-02
CGA:   6    -0.334637191242E+03   -0.27333E-01   -0.27547E-01 11088   0.120E+00 0.215E-02
CGA:   7    -0.334650576691E+03   -0.13385E-01   -0.13405E-01 11088   0.488E-01 0.112E-02
CGA:   8    -0.334655159841E+03   -0.45832E-02   -0.46200E-02 11088   0.240E-01 0.118E-02
CGA:   9    -0.334658608662E+03   -0.34488E-02   -0.34575E-02 11088   0.661E-02-0.398E-03
CGA:  10    -0.334659624285E+03   -0.10156E-02   -0.10017E-02 11088   0.416E-02 0.420E-03
CGA:  11    -0.334660095339E+03   -0.47105E-03   -0.46900E-03 11088   0.213E-02-0.134E-03
CGA:  12    -0.334660352111E+03   -0.25677E-03   -0.25631E-03 11088   0.111E-02 0.157E-03
CGA:  13    -0.334660498806E+03   -0.14669E-03   -0.14664E-03 11088   0.565E-03 0.534E-04
CGA:  14    -0.334660586766E+03   -0.87961E-04   -0.87687E-04 11088   0.272E-03 0.107E-04
CGA:  15    -0.334660622102E+03   -0.35336E-04   -0.35147E-04 11088   0.127E-03 0.498E-04
CGA:  16    -0.334660648606E+03   -0.26504E-04   -0.41123E-04 11088   0.470E-03-0.973E-04
CGA:  17    -0.334660661148E+03   -0.12541E-04   -0.18743E-04 11088   0.426E-04 0.699E-04
CGA:  18    -0.334660662898E+03   -0.17504E-05   -0.32303E-05 11088   0.361E-04 0.246E-04
CGA:  19    -0.334660537312E+03    0.12559E-03   -0.68063E-04 11088   0.379E-02-0.231E-03
CGA:  20    -0.334660677204E+03   -0.13989E-03   -0.15581E-03 11088   0.561E-04 0.167E-03
CGA:  21    -0.334660682676E+03   -0.54713E-05   -0.65111E-05 11088   0.415E-04 0.998E-05
   9 F= -.33466068E+03 E0= -.33465156E+03  d E =-.126210E-01  mag=     9.9858
       N       E                     dE             d eps       ncg     rms          ort
SDA:   1    -0.333894383556E+03    0.76629E+00    0.00000E+00 11088   0.267E+01 0.000E+00
CGA:   2    -0.334300902029E+03   -0.40652E+00   -0.40810E+00 11088   0.144E+01 0.695E-02
CGA:   3    -0.334468647590E+03   -0.16775E+00   -0.16025E+00 11088   0.119E+01 0.297E-01
CGA:   4    -0.334604784441E+03   -0.13614E+00   -0.13877E+00 11088   0.341E+00-0.107E-01
CGA:   5    -0.334644511892E+03   -0.39727E-01   -0.39729E-01 11088   0.101E+00 0.147E-02
CGA:   6    -0.334653594030E+03   -0.90821E-02   -0.90878E-02 11088   0.407E-01-0.111E-02
CGA:   7    -0.334658101781E+03   -0.45078E-02   -0.45630E-02 11088   0.140E-01 0.998E-03
CGA:   8    -0.334659852392E+03   -0.17506E-02   -0.17372E-02 11088   0.899E-02-0.254E-03
CGA:   9    -0.334660784911E+03   -0.93252E-03   -0.93955E-03 11088   0.239E-02 0.123E-03
CGA:  10    -0.334661214809E+03   -0.42990E-03   -0.43029E-03 11088   0.219E-02-0.165E-03
CGA:  11    -0.334661344508E+03   -0.12970E-03   -0.14451E-03 11088   0.609E-03 0.154E-03
CGA:  12    -0.334661484417E+03   -0.13991E-03   -0.13710E-03 11088   0.366E-03 0.697E-04
CGA:  13    -0.334661526788E+03   -0.42371E-04   -0.39351E-04 11088   0.318E-03-0.410E-04
CGA:  14    -0.334661552121E+03   -0.25333E-04   -0.29865E-04 11088   0.119E-03 0.725E-04
CGA:  15    -0.334661562014E+03   -0.98931E-05   -0.11503E-04 11088   0.804E-04 0.187E-04
CGA:  16    -0.334661576608E+03   -0.14594E-04   -0.28986E-04 11088   0.367E-03-0.957E-04
CGA:  17    -0.334661583064E+03   -0.64564E-05   -0.15558E-04 11088   0.481E-04 0.725E-04
  10 F= -.33466158E+03 E0= -.33465231E+03  d E =-.900389E-03  mag=     9.9879
       N       E                     dE             d eps       ncg     rms          ort
SDA:   1    -0.334565195915E+03    0.96381E-01    0.00000E+00 11088   0.372E+00 0.000E+00
CGA:   2    -0.334617847370E+03   -0.52651E-01   -0.52674E-01 11088   0.180E+00 0.452E-03
CGA:   3    -0.334638015589E+03   -0.20168E-01   -0.20054E-01 11088   0.147E+00 0.133E-02
CGA:   4    -0.334655455426E+03   -0.17440E-01   -0.17463E-01 11088   0.499E-01-0.818E-03
CGA:   5    -0.334661077077E+03   -0.56217E-02   -0.56458E-02 11088   0.157E-01 0.624E-03
CGA:   6    -0.334662606814E+03   -0.15297E-02   -0.15020E-02 11088   0.562E-02-0.424E-03
CGA:   7    -0.334663234326E+03   -0.62751E-03   -0.63113E-03 11088   0.218E-02 0.115E-03
CGA:   8    -0.334663472984E+03   -0.23866E-03   -0.23551E-03 11088   0.125E-02-0.820E-04
CGA:   9    -0.334663603313E+03   -0.13033E-03   -0.13298E-03 11088   0.299E-03 0.791E-04
CGA:  10    -0.334663661303E+03   -0.57991E-04   -0.57858E-04 11088   0.205E-03 0.326E-05
CGA:  11    -0.334663670561E+03   -0.92573E-05   -0.13267E-04 11088   0.654E-04 0.502E-04
CGA:  12    -0.334663689596E+03   -0.19035E-04   -0.21014E-04 11088   0.988E-04-0.168E-04
CGA:  13    -0.334663696084E+03   -0.64881E-05   -0.48153E-05 11088   0.434E-04-0.208E-04
  11 F= -.33466370E+03 E0= -.33465451E+03  d E =-.211302E-02  mag=     9.9877
       N       E                     dE             d eps       ncg     rms          ort
SDA:   1    -0.334651831000E+03    0.11859E-01    0.00000E+00 11088   0.427E-01 0.000E+00
CGA:   2    -0.334657567257E+03   -0.57363E-02   -0.57353E-02 11088   0.412E-01-0.490E-03
CGA:   3    -0.334661387971E+03   -0.38207E-02   -0.38326E-02 11088   0.148E-01 0.700E-03
CGA:   4    -0.334663552339E+03   -0.21644E-02   -0.21667E-02 11088   0.672E-02-0.282E-03
CGA:   5    -0.334664105119E+03   -0.55278E-03   -0.56454E-03 11088   0.167E-02 0.224E-03
CGA:   6    -0.334664350477E+03   -0.24536E-03   -0.24641E-03 11088   0.513E-03-0.113E-03
CGA:   7    -0.334664415996E+03   -0.65520E-04   -0.65492E-04 11088   0.285E-03 0.959E-05
CGA:   8    -0.334664441972E+03   -0.25976E-04   -0.25450E-04 11088   0.117E-03-0.112E-04
CGA:   9    -0.334664452951E+03   -0.10979E-04   -0.11831E-04 11088   0.335E-04 0.321E-04
CGA:  10    -0.334664459483E+03   -0.65317E-05   -0.64059E-05 11088   0.216E-04 0.649E-05
  12 F= -.33466446E+03 E0= -.33465530E+03  d E =-.763399E-03  mag=     9.9878
       N       E                     dE             d eps       ncg     rms          ort
SDA:   1    -0.334503532043E+03    0.16092E+00    0.00000E+00 11088   0.403E+00 0.000E+00
CGA:   2    -0.334612275812E+03   -0.10874E+00   -0.10856E+00 11088   0.385E+00 0.116E-02
CGA:   3    -0.334642448808E+03   -0.30173E-01   -0.31019E-01 11088   0.165E+00-0.552E-02
CGA:   4    -0.334659561379E+03   -0.17113E-01   -0.17102E-01 11088   0.316E-01 0.955E-03
CGA:   5    -0.334664234649E+03   -0.46733E-02   -0.46840E-02 11088   0.117E-01-0.703E-03
CGA:   6    -0.334665188409E+03   -0.95376E-03   -0.97420E-03 11088   0.543E-02 0.510E-03
CGA:   7    -0.334665883058E+03   -0.69465E-03   -0.69379E-03 11088   0.164E-02-0.121E-03
CGA:   8    -0.334666104580E+03   -0.22152E-03   -0.22056E-03 11088   0.906E-03 0.128E-03
CGA:   9    -0.334666215942E+03   -0.11136E-03   -0.10845E-03 11088   0.642E-03-0.155E-03
CGA:  10    -0.334666259401E+03   -0.43459E-04   -0.48132E-04 11088   0.183E-03 0.121E-03
CGA:  11    -0.334666283912E+03   -0.24511E-04   -0.25428E-04 11088   0.128E-03 0.891E-04
CGA:  12    -0.334666308326E+03   -0.24415E-04   -0.24458E-04 11088   0.149E-03-0.209E-04
CGA:  13    -0.334666313752E+03   -0.54262E-05   -0.78328E-05 11088   0.744E-04 0.375E-04
  13 F= -.33466631E+03 E0= -.33465722E+03  d E =-.185427E-02  mag=     9.9886
       N       E                     dE             d eps       ncg     rms          ort
SDA:   1    -0.334168595526E+03    0.49771E+00    0.00000E+00 11088   0.127E+01 0.000E+00
CGA:   2    -0.334491500621E+03   -0.32291E+00   -0.32266E+00 11088   0.128E+01 0.108E-02
CGA:   3    -0.334591913923E+03   -0.10041E+00   -0.10250E+00 11088   0.505E+00-0.888E-02
CGA:   4    -0.334646642561E+03   -0.54729E-01   -0.54686E-01 11088   0.108E+00 0.831E-03
CGA:   5    -0.334660626254E+03   -0.13984E-01   -0.13996E-01 11088   0.553E-01-0.248E-02
CGA:   6    -0.334664803260E+03   -0.41770E-02   -0.41790E-02 11088   0.165E-01 0.450E-03
CGA:   7    -0.334667260783E+03   -0.24575E-02   -0.24420E-02 11088   0.472E-02 0.587E-03
CGA:   8    -0.334667990217E+03   -0.72943E-03   -0.72758E-03 11088   0.362E-02 0.708E-04
CGA:   9    -0.334668331586E+03   -0.34137E-03   -0.33980E-03 11088   0.122E-02-0.461E-04
CGA:  10    -0.334668511101E+03   -0.17952E-03   -0.17417E-03 11088   0.659E-03 0.234E-03
CGA:  11    -0.334668611020E+03   -0.99918E-04   -0.99782E-04 11088   0.514E-03 0.395E-04
CGA:  12    -0.334668657225E+03   -0.46206E-04   -0.51371E-04 11088   0.158E-03 0.176E-03
CGA:  13    -0.334668699899E+03   -0.42674E-04   -0.46270E-04 11088   0.333E-03-0.376E-04
CGA:  14    -0.334668715547E+03   -0.15648E-04   -0.15852E-04 11088   0.151E-03 0.331E-05
CGA:  15    -0.334668718736E+03   -0.31895E-05   -0.60635E-05 11088   0.739E-04 0.343E-04
  14 F= -.33466872E+03 E0= -.33465974E+03  d E =-.240498E-02  mag=     9.9903
       N       E                     dE             d eps       ncg     rms          ort
SDA:   1    -0.331885797296E+03    0.27829E+01    0.00000E+00 11088   0.719E+01 0.000E+00
CGA:   2    -0.333457661559E+03   -0.15719E+01   -0.16066E+01 11088   0.109E+02-0.238E+00
CGA:   3    -0.334174607685E+03   -0.71695E+00   -0.78530E+00 11088   0.313E+01-0.190E+00
CGA:   4    -0.334534363845E+03   -0.35976E+00   -0.35963E+00 11088   0.581E+00-0.363E-01
CGA:   5    -0.334631675536E+03   -0.97312E-01   -0.97973E-01 11088   0.173E+00-0.128E-01
CGA:   6    -0.334649850408E+03   -0.18175E-01   -0.18224E-01 11088   0.108E+00 0.310E-02
CGA:   7    -0.334660245498E+03   -0.10395E-01   -0.10515E-01 11088   0.269E-01 0.473E-02
CGA:   8    -0.334665393123E+03   -0.51476E-02   -0.51397E-02 11088   0.105E-01 0.114E-03
CGA:   9    -0.334666994975E+03   -0.16019E-02   -0.16323E-02 11088   0.113E-01-0.918E-03
CGA:  10    -0.334667849938E+03   -0.85496E-03   -0.88103E-03 11088   0.340E-02 0.667E-03
CGA:  11    -0.334668264030E+03   -0.41409E-03   -0.42081E-03 11088   0.217E-02 0.124E-02
CGA:  12    -0.334668525633E+03   -0.26160E-03   -0.28156E-03 11088   0.110E-02 0.743E-03
CGA:  13    -0.334668718540E+03   -0.19291E-03   -0.19025E-03 11088   0.720E-03 0.312E-03
CGA:  14    -0.334668845851E+03   -0.12731E-03   -0.13016E-03 11088   0.720E-03-0.146E-03
CGA:  15    -0.334668885857E+03   -0.40006E-04   -0.46712E-04 11088   0.333E-03 0.164E-03
CGA:  16    -0.334668892373E+03   -0.65153E-05   -0.19773E-04 11088   0.183E-03 0.185E-03
CGA:  17    -0.334668900147E+03   -0.77740E-05   -0.13173E-04 11088   0.108E-03 0.121E-03
  15 F= -.33466890E+03 E0= -.33466004E+03  d E =-.181410E-03  mag=     9.9893
       N       E                     dE             d eps       ncg     rms          ort
SDA:   1    -0.334092687731E+03    0.57620E+00    0.00000E+00 11088   0.185E+01 0.000E+00
CGA:   2    -0.334417307933E+03   -0.32462E+00   -0.32361E+00 11088   0.110E+01 0.132E-01
CGA:   3    -0.334553029520E+03   -0.13572E+00   -0.13613E+00 11088   0.879E+00-0.271E-01
CGA:   4    -0.334632066277E+03   -0.79037E-01   -0.79535E-01 11088   0.224E+00 0.255E-02
CGA:   5    -0.334656565327E+03   -0.24499E-01   -0.24518E-01 11088   0.868E-01 0.332E-02
CGA:   6    -0.334664876159E+03   -0.83108E-02   -0.83155E-02 11088   0.271E-01 0.381E-03
CGA:   7    -0.334668652171E+03   -0.37760E-02   -0.37454E-02 11088   0.892E-02 0.125E-02
CGA:   8    -0.334669870281E+03   -0.12181E-02   -0.12290E-02 11088   0.812E-02-0.623E-03
CGA:   9    -0.334670536888E+03   -0.66661E-03   -0.67143E-03 11088   0.183E-02 0.174E-03
CGA:  10    -0.334670902710E+03   -0.36582E-03   -0.36434E-03 11088   0.146E-02 0.182E-04
CGA:  11    -0.334671046273E+03   -0.14356E-03   -0.14007E-03 11088   0.818E-03-0.156E-03
CGA:  12    -0.334671153391E+03   -0.10712E-03   -0.10628E-03 11088   0.447E-03 0.288E-04
CGA:  13    -0.334671193561E+03   -0.40171E-04   -0.41208E-04 11088   0.188E-03 0.359E-04
CGA:  14    -0.334671212099E+03   -0.18538E-04   -0.20146E-04 11088   0.690E-04 0.934E-04
CGA:  15    -0.334671218636E+03   -0.65370E-05   -0.81429E-05 11088   0.401E-04 0.436E-04
  16 F= -.33467122E+03 E0= -.33466232E+03  d E =-.231849E-02  mag=     9.9917
       N       E                     dE             d eps       ncg     rms          ort
SDA:   1    -0.334505972007E+03    0.16524E+00    0.00000E+00 11088   0.516E+00 0.000E+00
CGA:   2    -0.334567764330E+03   -0.61792E-01   -0.61792E-01 11088   0.625E+00 0.238E-02
CGA:   3    -0.334647324032E+03   -0.79560E-01   -0.79527E-01 11088   0.147E+00 0.349E-02
CGA:   4    -0.334662783828E+03   -0.15460E-01   -0.15486E-01 11088   0.756E-01 0.125E-02
CGA:   5    -0.334670399984E+03   -0.76162E-02   -0.75805E-02 11088   0.182E-01-0.186E-02
CGA:   6    -0.334672669376E+03   -0.22694E-02   -0.22765E-02 11088   0.990E-02-0.765E-03
CGA:   7    -0.334673491999E+03   -0.82262E-03   -0.81124E-03 11088   0.335E-02-0.362E-03
CGA:   8    -0.334673898033E+03   -0.40603E-03   -0.40143E-03 11088   0.817E-03 0.669E-03
CGA:   9    -0.334674116234E+03   -0.21820E-03   -0.24703E-03 11088   0.127E-02-0.215E-03
CGA:  10    -0.334674207338E+03   -0.91104E-04   -0.77316E-04 11088   0.589E-03-0.329E-03
CGA:  11    -0.334674265527E+03   -0.58189E-04   -0.58186E-04 11088   0.529E-03 0.286E-06
CGA:  12    -0.334674303891E+03   -0.38364E-04   -0.41373E-04 11088   0.183E-03 0.673E-04
CGA:  13    -0.334674335021E+03   -0.31130E-04   -0.35036E-04 11088   0.345E-03-0.797E-04
CGA:  14    -0.334674346946E+03   -0.11925E-04   -0.10138E-04 11088   0.187E-03-0.251E-04
CGA:  15    -0.334674356338E+03   -0.93923E-05   -0.73866E-05 11088   0.793E-04-0.257E-04
  17 F= -.33467436E+03 E0= -.33466553E+03  d E =-.313770E-02  mag=     9.9903
       N       E                     dE             d eps       ncg     rms          ort
SDA:   1    -0.334570786176E+03    0.10356E+00    0.00000E+00 11088   0.303E+00 0.000E+00
CGA:   2    -0.334616467438E+03   -0.45681E-01   -0.45758E-01 11088   0.406E+00-0.261E-03
CGA:   3    -0.334658626689E+03   -0.42159E-01   -0.42193E-01 11088   0.983E-01 0.488E-04
CGA:   4    -0.334669391340E+03   -0.10765E-01   -0.10771E-01 11088   0.465E-01 0.987E-03
CGA:   5    -0.334673729767E+03   -0.43384E-02   -0.43153E-02 11088   0.104E-01-0.104E-02
CGA:   6    -0.334675266657E+03   -0.15369E-02   -0.15642E-02 11088   0.422E-02-0.696E-03
CGA:   7    -0.334675636868E+03   -0.37021E-03   -0.36825E-03 11088   0.224E-02-0.964E-04
CGA:   8    -0.334675836541E+03   -0.19967E-03   -0.20720E-03 11088   0.532E-03 0.352E-03
CGA:   9    -0.334675942715E+03   -0.10617E-03   -0.11116E-03 11088   0.613E-03-0.764E-04
CGA:  10    -0.334675983336E+03   -0.40621E-04   -0.41519E-04 11088   0.184E-03 0.235E-04
CGA:  11    -0.334675995522E+03   -0.12186E-04   -0.14848E-04 11088   0.145E-03 0.692E-04
CGA:  12    -0.334676016244E+03   -0.20721E-04   -0.21221E-04 11088   0.539E-04 0.625E-04
CGA:  13    -0.334676024276E+03   -0.80325E-05   -0.17571E-04 11088   0.343E-03-0.839E-04
CGA:  14    -0.334676037503E+03   -0.13227E-04   -0.15550E-04 11088   0.210E-04 0.308E-04
CGA:  15    -0.334676039106E+03   -0.16030E-05   -0.70210E-05 11088   0.146E-03-0.283E-04
  18 F= -.33467604E+03 E0= -.33466728E+03  d E =-.168277E-02  mag=     9.9904
       N       E                     dE             d eps       ncg     rms          ort
SDA:   1    -0.331605518032E+03    0.30705E+01    0.00000E+00 11088   0.784E+01 0.000E+00
CGA:   2    -0.333558028487E+03   -0.19525E+01   -0.19191E+01 11088   0.662E+01 0.342E+00
CGA:   3    -0.334247285273E+03   -0.68926E+00   -0.69080E+00 11088   0.330E+01 0.247E-02
CGA:   4    -0.334538288574E+03   -0.29100E+00   -0.28735E+00 11088   0.603E+00 0.546E-02
CGA:   5    -0.334631088221E+03   -0.92800E-01   -0.92972E-01 11088   0.265E+00-0.630E-02
CGA:   6    -0.334654351031E+03   -0.23263E-01   -0.23436E-01 11088   0.908E-01 0.235E-02
CGA:   7    -0.334667067488E+03   -0.12716E-01   -0.12639E-01 11088   0.257E-01 0.552E-02
CGA:   8    -0.334671840551E+03   -0.47731E-02   -0.47944E-02 11088   0.210E-01-0.398E-03
CGA:   9    -0.334673482453E+03   -0.16419E-02   -0.16135E-02 11088   0.785E-02-0.612E-03
CGA:  10    -0.334674847497E+03   -0.13650E-02   -0.13036E-02 11088   0.253E-02 0.131E-02
CGA:  11    -0.334675413387E+03   -0.56589E-03   -0.52705E-03 11088   0.229E-02 0.760E-03
CGA:  12    -0.334675659338E+03   -0.24595E-03   -0.26850E-03 11088   0.895E-03 0.568E-03
CGA:  13    -0.334675900319E+03   -0.24098E-03   -0.23426E-03 11088   0.650E-03 0.780E-04
CGA:  14    -0.334675939200E+03   -0.38881E-04   -0.53501E-04 11088   0.241E-03 0.260E-03
CGA:  15    -0.334675958671E+03   -0.19471E-04   -0.28353E-04 11088   0.133E-03 0.197E-03
CGA:  16    -0.334675981038E+03   -0.22367E-04   -0.22834E-04 11088   0.270E-03-0.107E-04
CGA:  17    -0.334675991944E+03   -0.10906E-04   -0.17388E-04 11088   0.922E-04 0.110E-03
CGA:  18    -0.334675991040E+03    0.90437E-06   -0.44978E-05 11088   0.335E-04 0.591E-04
  19 F= -.33467599E+03 E0= -.33466732E+03  d E =0.480662E-04  mag=     9.9924
       N       E                     dE             d eps       ncg     rms          ort
SDA:   1    -0.314329162446E+03    0.20347E+02    0.00000E+00 11088   0.560E+02 0.000E+00
CGA:   2    -0.325695457757E+03   -0.11366E+02   -0.11581E+02 11088   0.643E+02-0.694E+01
CGA:   3    -0.331098550009E+03   -0.54031E+01   -0.54264E+01 11088   0.234E+02-0.706E+00
CGA:   4    -0.333545433946E+03   -0.24469E+01   -0.24229E+01 11088   0.607E+01-0.659E+00
CGA:   5    -0.334116759351E+03   -0.57133E+00   -0.54884E+00 11088   0.315E+01-0.152E+00
CGA:   6    -0.334438351259E+03   -0.32159E+00   -0.32212E+00 11088   0.114E+01 0.788E-02
CGA:   7    -0.334529777360E+03   -0.91426E-01   -0.93681E-01 11088   0.588E+00 0.526E-02
CGA:   8    -0.334597409386E+03   -0.67632E-01   -0.67676E-01 11088   0.261E+00 0.193E-01
CGA:   9    -0.334622295058E+03   -0.24886E-01   -0.24642E-01 11088   0.160E+00 0.260E-02
CGA:  10    -0.334642899815E+03   -0.20605E-01   -0.20615E-01 11088   0.873E-01-0.119E-02
CGA:  11    -0.334650798212E+03   -0.78984E-02   -0.79111E-02 11088   0.655E-01 0.140E-02
CGA:  12    -0.334659266565E+03   -0.84684E-02   -0.84354E-02 11088   0.295E-01 0.247E-02
CGA:  13    -0.334662065987E+03   -0.27994E-02   -0.28118E-02 11088   0.260E-01 0.467E-03
CGA:  14    -0.334665508909E+03   -0.34429E-02   -0.34024E-02 11088   0.872E-02 0.276E-02
CGA:  15    -0.334666281499E+03   -0.77259E-03   -0.80117E-03 11088   0.651E-02 0.888E-03
CGA:  16    -0.334667277212E+03   -0.99571E-03   -0.98465E-03 11088   0.346E-02 0.388E-03
CGA:  17    -0.334667628879E+03   -0.35167E-03   -0.35449E-03 11088   0.246E-02 0.157E-03
CGA:  18    -0.334667941759E+03   -0.31288E-03   -0.31209E-03 11088   0.125E-02 0.103E-03
CGA:  19    -0.334668092815E+03   -0.15106E-03   -0.15113E-03 11088   0.138E-02-0.407E-04
CGA:  20    -0.334668236955E+03   -0.14414E-03   -0.14576E-03 11088   0.561E-03 0.303E-03
CGA:  21    -0.334668282204E+03   -0.45249E-04   -0.52504E-04 11088   0.427E-03 0.194E-03
CGA:  22    -0.334668373840E+03   -0.91636E-04   -0.83851E-04 11088   0.368E-03 0.230E-03
CGA:  23    -0.334668407450E+03   -0.33610E-04   -0.32095E-04 11088   0.283E-03-0.592E-04
CGA:  24    -0.334668461809E+03   -0.54359E-04    0.73828E-03 11088   0.159E-03 0.140E-03
CGA:  25    -0.334668489252E+03   -0.27443E-04   -0.27375E-04 11088   0.264E-03 0.254E-04
CGA:  26    -0.334668523152E+03   -0.33900E-04   -0.34072E-04 11088   0.265E-03 0.139E-03
CGA:  27    -0.334668544013E+03   -0.20861E-04   -0.18928E-04 11088   0.101E-03-0.484E-04
CGA:  28    -0.334668565216E+03   -0.21203E-04    0.28898E-04 11088   0.503E-04 0.498E-04
CGA:  29    -0.334668579202E+03   -0.13986E-04   -0.12846E-04 11088   0.130E-03 0.188E-04
CGA:  30    -0.334668618515E+03   -0.39314E-04   -0.33619E-04 11088   0.134E-03 0.742E-04
CGA:  31    -0.334668619393E+03   -0.87820E-06   -0.30244E-04 11088   0.104E-02-0.272E-03
CGA:  32    -0.334668662065E+03   -0.42671E-04   -0.47921E-04 11088   0.283E-04 0.666E-04
CGA:  33    -0.334668661717E+03    0.34762E-06   -0.12648E-05 11088   0.186E-04 0.210E-04
  20 F= -.33466866E+03 E0= -.33466000E+03  d E =0.732932E-02  mag=     9.9954
       N       E                     dE             d eps       ncg     rms          ort
SDA:   1    -0.298334828318E+03    0.36334E+02    0.00000E+00 11088   0.206E+03 0.000E+00
CGA:   2    -0.315332658808E+03   -0.16998E+02   -0.18918E+02 11088   0.477E+02 0.306E+02
CGA:   3    -0.327970550953E+03   -0.12638E+02   -0.12231E+02 11088   0.462E+02 0.511E+01
CGA:   4    -0.332392159166E+03   -0.44216E+01   -0.41227E+01 11088   0.105E+02-0.240E+01
CGA:   5    -0.333712720164E+03   -0.13206E+01   -0.13218E+01 11088   0.436E+01-0.675E-01
CGA:   6    -0.334146278062E+03   -0.43356E+00   -0.42599E+00 11088   0.159E+01-0.138E+00
CGA:   7    -0.334321835473E+03   -0.17556E+00   -0.17552E+00 11088   0.105E+01-0.921E-02
CGA:   8    -0.334411240694E+03   -0.89405E-01   -0.88105E-01 11088   0.345E+00 0.649E-02
CGA:   9    -0.334458748473E+03   -0.47508E-01   -0.47875E-01 11088   0.267E+00-0.117E-01
CGA:  10    -0.334486673421E+03   -0.27925E-01   -0.27888E-01 11088   0.148E+00-0.435E-02
CGA:  11    -0.334500438285E+03   -0.13765E-01   -0.13686E-01 11088   0.839E-01-0.714E-03
CGA:  12    -0.334511259316E+03   -0.10821E-01   -0.10859E-01 11088   0.578E-01-0.171E-02
CGA:  13    -0.334517155097E+03   -0.58958E-02   -0.59198E-02 11088   0.265E-01 0.257E-02
CGA:  14    -0.334519903117E+03   -0.27480E-02   -0.27611E-02 11088   0.169E-01 0.930E-03
CGA:  15    -0.334522211300E+03   -0.23082E-02   -0.23375E-02 11088   0.115E-01-0.152E-02
CGA:  16    -0.334523129496E+03   -0.91820E-03   -0.91443E-03 11088   0.359E-02-0.123E-03
CGA:  17    -0.334523717895E+03   -0.58840E-03   -0.69656E-03 11088   0.788E-02-0.131E-02
CGA:  18    -0.334524161322E+03   -0.44343E-03   -0.40836E-03 11088   0.314E-02-0.100E-02
CGA:  19    -0.334524274898E+03   -0.11358E-03   -0.12874E-03 11088   0.151E-02 0.217E-03
CGA:  20    -0.334524376033E+03   -0.10113E-03   -0.12126E-03 11088   0.176E-02 0.542E-03
CGA:  21    -0.334524574848E+03   -0.19882E-03   -0.20954E-03 11088   0.959E-03 0.462E-03
CGA:  22    -0.334524727551E+03   -0.15270E-03   -0.18090E-03 11088   0.255E-02-0.707E-03
CGA:  23    -0.334524847954E+03   -0.12040E-03   -0.13097E-03 11088   0.398E-03 0.198E-03
CGA:  24    -0.334524959726E+03   -0.11177E-03    0.11277E-03 11088   0.239E-03 0.221E-03
CGA:  25    -0.334524473892E+03    0.48583E-03   -0.26740E-03 11088   0.161E-01-0.111E-02
CGA:  26    -0.334525142755E+03   -0.66886E-03   -0.71185E-03 11088   0.191E-03 0.112E-02
CGA:  27    -0.334525151443E+03   -0.86882E-05   -0.14240E-04 11088   0.119E-03 0.462E-04
CGA:  28    -0.334525195030E+03   -0.43587E-04   -0.48950E-04 11088   0.235E-03-0.371E-04
CGA:  29    -0.334525225842E+03   -0.30812E-04   -0.29558E-04 11088   0.678E-03-0.146E-03
CGA:  30    -0.334525279152E+03   -0.53310E-04   -0.55021E-04 11088   0.291E-03 0.141E-04
CGA:  31    -0.334525340953E+03   -0.61801E-04   -0.71298E-04 11088   0.225E-03-0.174E-03
CGA:  32    -0.334525355593E+03   -0.14640E-04   -0.17038E-04 11088   0.101E-03 0.210E-04
CGA:  33    -0.334525369086E+03   -0.13494E-04   -0.14728E-04 11088   0.258E-04 0.254E-04
CGA:  34    -0.334525388011E+03   -0.18924E-04    0.46563E-05 11088   0.624E-04 0.744E-05
CGA:  35    -0.334525428236E+03   -0.40225E-04    0.18449E-04 11088   0.508E-04 0.519E-04
CGA:  36    -0.334525430096E+03   -0.18606E-05   -0.39310E-05 11088   0.273E-04 0.202E-04
CGA:  37    -0.334525445034E+03   -0.14937E-04    0.28217E-04 11088   0.163E-04 0.108E-04
CGA:  38    -0.334525459398E+03   -0.14364E-04    0.24705E-05 11088   0.355E-04 0.606E-05
CGA:  39    -0.334525486427E+03   -0.27029E-04    0.72347E-05 11088   0.381E-04 0.287E-04
CGA:  40    -0.334525491328E+03   -0.49013E-05   -0.50138E-05 11088   0.302E-04 0.256E-05
  21 F= -.33452549E+03 E0= -.33451765E+03  d E =0.143170E+00  mag=     9.9978
       N       E                     dE             d eps       ncg     rms          ort
SDA:   1    -0.307658397111E+03    0.26867E+02    0.00000E+00 11088   0.766E+02 0.000E+00
CGA:   2    -0.323169626019E+03   -0.15511E+02   -0.15593E+02 11088   0.637E+02-0.147E+01
CGA:   3    -0.330332516886E+03   -0.71629E+01   -0.73668E+01 11088   0.336E+02-0.978E-01
CGA:   4    -0.332930192680E+03   -0.25977E+01   -0.31960E+01 11088   0.105E+02-0.201E+01
CGA:   5    -0.333918499440E+03   -0.98831E+00   -0.92908E+00 11088   0.332E+01 0.232E+00
CGA:   6    -0.334255588494E+03   -0.33709E+00   -0.32622E+00 11088   0.219E+01 0.244E-01
CGA:   7    -0.334400472689E+03   -0.14488E+00   -0.14873E+00 11088   0.105E+01-0.382E-01
CGA:   8    -0.334508459370E+03   -0.10799E+00   -0.10942E+00 11088   0.582E+00 0.169E-01
CGA:   9    -0.334550343216E+03   -0.41884E-01   -0.38626E-01 11088   0.207E+00 0.517E-01
CGA:  10    -0.334578929506E+03   -0.28586E-01   -0.28472E-01 11088   0.259E+00 0.882E-05
CGA:  11    -0.334599345056E+03   -0.20416E-01   -0.20672E-01 11088   0.148E+00-0.810E-03
CGA:  12    -0.334608880354E+03   -0.95353E-02   -0.97204E-02 11088   0.752E-01 0.275E-02
CGA:  13    -0.334615444202E+03   -0.65638E-02   -0.67286E-02 11088   0.708E-01 0.375E-02
CGA:  14    -0.334621666942E+03   -0.62227E-02   -0.62841E-02 11088   0.359E-01 0.242E-02
CGA:  15    -0.334624345242E+03   -0.26783E-02   -0.27101E-02 11088   0.248E-01-0.844E-04
CGA:  16    -0.334626546559E+03   -0.22013E-02   -0.22217E-02 11088   0.146E-01 0.313E-03
CGA:  17    -0.334627430935E+03   -0.88438E-03   -0.92193E-03 11088   0.691E-02 0.691E-03
CGA:  18    -0.334627991789E+03   -0.56085E-03   -0.59728E-03 11088   0.484E-02 0.795E-03
CGA:  19    -0.334628324022E+03   -0.33223E-03   -0.37911E-03 11088   0.252E-02 0.795E-03
CGA:  20    -0.334628481895E+03   -0.15787E-03   -0.19356E-03 11088   0.141E-02 0.616E-03
CGA:  21    -0.334628614215E+03   -0.13232E-03   -0.14725E-03 11088   0.127E-02 0.407E-03
CGA:  22    -0.334628751728E+03   -0.13751E-03   -0.14281E-03 11088   0.706E-03 0.167E-03
CGA:  23    -0.334628810168E+03   -0.58440E-04   -0.63147E-04 11088   0.600E-03 0.123E-03
CGA:  24    -0.334628855232E+03   -0.45064E-04   -0.55461E-04 11088   0.441E-03 0.289E-03
CGA:  25    -0.334628883173E+03   -0.27941E-04   -0.40730E-04 11088   0.255E-03 0.252E-03
CGA:  26    -0.334628911598E+03   -0.28425E-04   -0.28446E-04 11088   0.278E-03-0.141E-04
CGA:  27    -0.334628944786E+03   -0.33188E-04   -0.31648E-04 11088   0.142E-03 0.150E-03
CGA:  28    -0.334628948444E+03   -0.36576E-05   -0.75174E-05 11088   0.656E-04 0.667E-04
  22 F= -.33462895E+03 E0= -.33462061E+03  d E =-.103457E+00  mag=     9.9963
       N       E                     dE             d eps       ncg     rms          ort
SDA:   1    -0.273056262678E+03    0.61573E+02    0.00000E+00 11088   0.184E+03 0.000E+00
CGA:   2    -0.303419536224E+03   -0.30363E+02   -0.38201E+02 11088   0.133E+03-0.852E+01
CGA:   3    -0.320263523770E+03   -0.16844E+02   -0.18666E+02 11088   0.966E+02-0.220E+02
CGA:   4    -0.325605638714E+03   -0.53421E+01   -0.63316E+01 11088   0.638E+02 0.397E+01
CGA:   5    -0.328840767095E+03   -0.32351E+01   -0.28793E+01 11088   0.255E+02-0.266E+02
CGA:   6    -0.330111526754E+03   -0.12708E+01   -0.12889E+01 11088   0.342E+02 0.194E+00
CGA:   7    -0.331314283873E+03   -0.12028E+01   -0.10739E+01 11088   0.734E+01 0.309E+00
CGA:   8    -0.331701880623E+03   -0.38760E+00   -0.43342E+00 11088   0.888E+01-0.423E+00
CGA:   9    -0.332073821427E+03   -0.37194E+00   -0.41424E+00 11088   0.520E+01-0.450E+00
CGA:  10    -0.332313585444E+03   -0.23976E+00   -0.21745E+00 11088   0.250E+01 0.453E+00
CGA:  11    -0.332444041725E+03   -0.13046E+00   -0.11237E+00 11088   0.223E+01 0.297E+00
CGA:  12    -0.332560016067E+03   -0.11597E+00   -0.11448E+00 11088   0.219E+01 0.155E-01
CGA:  13    -0.332638097887E+03   -0.78082E-01   -0.80276E-01 11088   0.183E+01-0.169E-01
CGA:  14    -0.332711614721E+03   -0.73517E-01   -0.68059E-01 11088   0.123E+01 0.770E-01
CGA:  15    -0.332759245633E+03   -0.47631E-01   -0.49233E-01 11088   0.101E+01-0.501E-01
CGA:  16    -0.332804743444E+03   -0.45498E-01   -0.46418E-01 11088   0.714E+00-0.324E-01
CGA:  17    -0.332830991245E+03   -0.26248E-01   -0.27122E-01 11088   0.335E+00-0.230E-01
CGA:  18    -0.332847932768E+03   -0.16942E-01   -0.16813E-01 11088   0.267E+00-0.190E-02
CGA:  19    -0.332864022184E+03   -0.16089E-01   -0.15994E-01 11088   0.266E+00-0.226E-02
CGA:  20    -0.332877266120E+03   -0.13244E-01   -0.13132E-01 11088   0.160E+00 0.114E-02
CGA:  21    -0.332883985095E+03   -0.67190E-02   -0.69323E-02 11088   0.969E-01 0.189E-02
CGA:  22    -0.332889105937E+03   -0.51208E-02   -0.52216E-02 11088   0.716E-01 0.364E-02
CGA:  23    -0.332893141503E+03   -0.40356E-02   -0.40825E-02 11088   0.495E-01 0.104E-02
CGA:  24    -0.332896311043E+03   -0.31695E-02   -0.31349E-02 11088   0.345E-01-0.419E-02
CGA:  25    -0.332898605442E+03   -0.22944E-02   -0.23051E-02 11088   0.316E-01-0.641E-02
CGA:  26    -0.332900327620E+03   -0.17222E-02   -0.17088E-02 11088   0.263E-01-0.292E-02
CGA:  27    -0.332901557796E+03   -0.12302E-02   -0.12607E-02 11088   0.156E-01 0.146E-02
CGA:  28    -0.332902328890E+03   -0.77109E-03   -0.81808E-03 11088   0.986E-02 0.233E-02
CGA:  29    -0.332903059445E+03   -0.73056E-03   -0.73591E-03 11088   0.831E-02 0.123E-02
CGA:  30    -0.332903785659E+03   -0.72621E-03   -0.73763E-03 11088   0.740E-02-0.117E-02
CGA:  31    -0.332904313414E+03   -0.52775E-03   -0.59377E-03 11088   0.912E-02-0.277E-02
SDA:  32    -0.332904710298E+03   -0.39688E-03   -0.39328E-03 11088   0.852E-02-0.202E-02
CGA:  33    -0.332905357664E+03   -0.64737E-03   -0.64375E-03 11088   0.158E-02 0.674E-03
CGA:  34    -0.332905658544E+03   -0.30088E-03   -0.57315E-03 11088   0.335E-02-0.102E-02
CGA:  35    -0.332905854680E+03   -0.19614E-03   -0.21302E-03 11088   0.649E-03 0.822E-03
CGA:  36    -0.332905957573E+03   -0.10289E-03   -0.98319E-04 11088   0.432E-03 0.121E-03
CGA:  37    -0.332906049453E+03   -0.91881E-04    0.39573E-03 11088   0.285E-03 0.216E-03
CGA:  38    -0.332906145756E+03   -0.96302E-04    0.55349E-04 11088   0.252E-03 0.226E-03
CGA:  39    -0.332906073699E+03    0.72057E-04   -0.51512E-04 11088   0.396E-02-0.472E-03
CGA:  40    -0.332906377923E+03   -0.30422E-03   -0.27637E-03 11088   0.373E-03-0.352E-03
CGA:  41    -0.332906391611E+03   -0.13689E-04   -0.25048E-04 11088   0.128E-03 0.147E-03
CGA:  42    -0.332906426534E+03   -0.34923E-04   -0.34842E-04 11088   0.295E-03 0.158E-05
CGA:  43    -0.332906552264E+03   -0.12573E-03    0.54622E-04 11088   0.466E-03-0.411E-04
CGA:  44    -0.332906786324E+03   -0.23406E-03    0.31296E-04 11088   0.101E-02-0.636E-04
CGA:  45    -0.332907239116E+03   -0.45279E-03    0.89149E-04 11088   0.123E-02-0.221E-03
CGA:  46    -0.332907543668E+03   -0.30455E-03    0.11148E-02 11088   0.136E-02-0.149E-02
CGA:  47    -0.332907653033E+03   -0.10936E-03   -0.99226E-04 11088   0.308E-03-0.142E-03
CGA:  48    -0.332907653927E+03   -0.89411E-06   -0.17598E-04 11088   0.164E-03 0.205E-03
CGA:  49    -0.332907655790E+03   -0.18622E-05   -0.10134E-04 11088   0.103E-03 0.104E-03
CGA:  50    -0.332907706271E+03   -0.50482E-04   -0.38263E-04 11088   0.856E-04 0.524E-04
CGA:  51    -0.332907707513E+03   -0.12413E-05   -0.53230E-05 11088   0.508E-04 0.469E-04
CGA:  52    -0.332907725935E+03   -0.18422E-04    0.14458E-04 11088   0.434E-04 0.429E-04
CGA:  53    -0.332907728445E+03   -0.25098E-05   -0.42377E-05 11088   0.386E-04 0.366E-04
CGA:  54    -0.332907741073E+03   -0.12628E-04    0.18484E-04 11088   0.365E-04 0.309E-04
CGA:  55    -0.332907740714E+03    0.35876E-06   -0.21360E-05 11088   0.299E-04 0.298E-04
CGA:  56    -0.332907755926E+03   -0.15211E-04   -0.10369E-04 11088   0.223E-04 0.232E-04
CGA:  57    -0.332907755104E+03    0.82122E-06   -0.10919E-05 11088   0.188E-04 0.192E-04
  23 F= -.33290776E+03 E0= -.33289732E+03  d E =0.172119E+01  mag=     7.2749
       N       E                     dE             d eps       ncg     rms          ort
SDA:   1    -0.329120328191E+03    0.37874E+01    0.00000E+00 11088   0.123E+02 0.000E+00
CGA:   2    -0.331685710755E+03   -0.25654E+01   -0.27520E+01 11088   0.227E+02-0.176E+01
CGA:   3    -0.333099547879E+03   -0.14138E+01   -0.15107E+01 11088   0.398E+01-0.444E+00
CGA:   4    -0.333600609844E+03   -0.50106E+00   -0.49792E+00 11088   0.215E+01-0.927E-01
CGA:   5    -0.333810073420E+03   -0.20946E+00   -0.19995E+00 11088   0.783E+00 0.119E-01
CGA:   6    -0.333910305471E+03   -0.10023E+00   -0.10035E+00 11088   0.250E+00-0.439E-03
CGA:   7    -0.333934404197E+03   -0.24099E-01   -0.24360E-01 11088   0.168E+00-0.243E-02
CGA:   8    -0.333956856250E+03   -0.22452E-01   -0.22462E-01 11088   0.551E-01 0.368E-02
CGA:   9    -0.333964146078E+03   -0.72898E-02   -0.72792E-02 11088   0.528E-01-0.103E-02
CGA:  10    -0.333970889902E+03   -0.67438E-02   -0.67114E-02 11088   0.234E-01-0.455E-02
CGA:  11    -0.333973263558E+03   -0.23737E-02   -0.24067E-02 11088   0.125E-01 0.136E-02
CGA:  12    -0.333974647882E+03   -0.13843E-02   -0.14498E-02 11088   0.585E-02 0.251E-02
CGA:  13    -0.333975586980E+03   -0.93910E-03   -0.93889E-03 11088   0.454E-02-0.470E-03
CGA:  14    -0.333976269215E+03   -0.68223E-03   -0.91357E-03 11088   0.310E-02-0.274E-02
CGA:  15    -0.333976507201E+03   -0.23799E-03   -0.27371E-03 11088   0.117E-02 0.712E-03
CGA:  16    -0.333976699747E+03   -0.19255E-03   -0.19322E-03 11088   0.248E-03 0.385E-03
CGA:  17    -0.333976805799E+03   -0.10605E-03    0.12138E-03 11088   0.159E-03 0.643E-04
CGA:  18    -0.333976879575E+03   -0.73777E-04    0.37939E-04 11088   0.818E-04 0.190E-04
CGA:  19    -0.333976888978E+03   -0.94022E-05   -0.57746E-04 11088   0.385E-03-0.968E-04
CGA:  20    -0.333976952616E+03   -0.63639E-04   -0.67434E-04 11088   0.584E-03-0.266E-03
CGA:  21    -0.333976990553E+03   -0.37937E-04   -0.39646E-04 11088   0.527E-04 0.202E-04
CGA:  22    -0.333976988920E+03    0.16326E-05   -0.28023E-05 11088   0.374E-04 0.421E-04
  24 F= -.33397699E+03 E0= -.33396622E+03  d E =-.106923E+01  mag=     7.3445
       N       E                     dE             d eps       ncg     rms          ort
SDA:   1    -0.332536002296E+03    0.14410E+01    0.00000E+00 11088   0.483E+01 0.000E+00
CGA:   2    -0.333428524751E+03   -0.89252E+00   -0.91287E+00 11088   0.674E+01-0.339E+00
CGA:   3    -0.334020758523E+03   -0.59223E+00   -0.59984E+00 11088   0.138E+01 0.372E-01
CGA:   4    -0.334215308275E+03   -0.19455E+00   -0.19396E+00 11088   0.583E+00-0.423E-01
CGA:   5    -0.334281444453E+03   -0.66136E-01   -0.66460E-01 11088   0.310E+00 0.541E-03
CGA:   6    -0.334314357519E+03   -0.32913E-01   -0.32168E-01 11088   0.575E-01-0.471E-02
CGA:   7    -0.334325234078E+03   -0.10877E-01   -0.10766E-01 11088   0.355E-01 0.231E-02
CGA:   8    -0.334329729075E+03   -0.44950E-02   -0.44506E-02 11088   0.198E-01-0.137E-02
CGA:   9    -0.334332894596E+03   -0.31655E-02   -0.32226E-02 11088   0.139E-01-0.225E-02
CGA:  10    -0.334334214657E+03   -0.13201E-02   -0.13407E-02 11088   0.521E-02 0.597E-03
CGA:  11    -0.334334905799E+03   -0.69114E-03   -0.71185E-03 11088   0.212E-02 0.159E-02
CGA:  12    -0.334335237784E+03   -0.33198E-03   -0.34068E-03 11088   0.162E-02 0.429E-03
CGA:  13    -0.334335599060E+03   -0.36128E-03   -0.40342E-03 11088   0.977E-03-0.649E-03
CGA:  14    -0.334335650382E+03   -0.51321E-04   -0.53588E-04 11088   0.553E-03 0.449E-04
CGA:  15    -0.334335679911E+03   -0.29530E-04   -0.47917E-04 11088   0.365E-03 0.307E-03
CGA:  16    -0.334335710664E+03   -0.30753E-04   -0.35901E-04 11088   0.219E-03 0.124E-03
CGA:  17    -0.334335744858E+03   -0.34194E-04   -0.36049E-04 11088   0.533E-04 0.124E-03
CGA:  18    -0.334335756931E+03   -0.12073E-04   -0.10579E-04 11088   0.547E-04 0.245E-04
CGA:  19    -0.334335758486E+03   -0.15555E-05   -0.56946E-05 11088   0.302E-04 0.603E-04
  25 F= -.33433576E+03 E0= -.33432434E+03  d E =-.358770E+00  mag=     7.5181
       N       E                     dE             d eps       ncg     rms          ort
SDA:   1    -0.331936566141E+03    0.23992E+01    0.00000E+00 11088   0.674E+01 0.000E+00
CGA:   2    -0.333438393316E+03   -0.15018E+01   -0.15511E+01 11088   0.848E+01-0.354E+00
CGA:   3    -0.334118025808E+03   -0.67963E+00   -0.66835E+00 11088   0.212E+01 0.722E-01
CGA:   4    -0.334396518459E+03   -0.27849E+00   -0.27831E+00 11088   0.767E+00-0.335E-01
CGA:   5    -0.334512527840E+03   -0.11601E+00   -0.11634E+00 11088   0.448E+00-0.121E-01
CGA:   6    -0.334544222420E+03   -0.31695E-01   -0.30468E-01 11088   0.904E-01 0.838E-02
CGA:   7    -0.334563357661E+03   -0.19135E-01   -0.19091E-01 11088   0.572E-01 0.489E-03
CGA:   8    -0.334569051545E+03   -0.56939E-02   -0.57279E-02 11088   0.358E-01 0.103E-02
CGA:   9    -0.334574445842E+03   -0.53943E-02   -0.53766E-02 11088   0.219E-01 0.131E-02
CGA:  10    -0.334576874071E+03   -0.24282E-02   -0.24755E-02 11088   0.118E-01 0.196E-02
CGA:  11    -0.334578340039E+03   -0.14660E-02   -0.15221E-02 11088   0.651E-02 0.394E-02
CGA:  12    -0.334579178843E+03   -0.83880E-03   -0.91096E-03 11088   0.422E-02 0.267E-02
CGA:  13    -0.334579972937E+03   -0.79409E-03   -0.78859E-03 11088   0.297E-02 0.267E-02
CGA:  14    -0.334580176893E+03   -0.20396E-03   -0.24334E-03 11088   0.198E-02 0.830E-03
CGA:  15    -0.334580534422E+03   -0.35753E-03   -0.34430E-03 11088   0.174E-02 0.179E-02
CGA:  16    -0.334580640065E+03   -0.10564E-03   -0.14546E-03 11088   0.130E-02 0.887E-03
CGA:  17    -0.334580708829E+03   -0.68764E-04   -0.10989E-03 11088   0.119E-02 0.992E-03
CGA:  18    -0.334580816018E+03   -0.10719E-03   -0.12574E-03 11088   0.121E-02 0.995E-03
CGA:  19    -0.334580878921E+03   -0.62904E-04   -0.10181E-03 11088   0.115E-02 0.996E-03
CGA:  20    -0.334580981045E+03   -0.10212E-03   -0.11982E-03 11088   0.118E-02 0.100E-02
CGA:  21    -0.334581040186E+03   -0.59141E-04   -0.97248E-04 11088   0.114E-02 0.100E-02
CGA:  22    -0.334581136467E+03   -0.96281E-04   -0.11459E-03 11088   0.116E-02 0.101E-02
CGA:  23    -0.334581194537E+03   -0.58070E-04   -0.94731E-04 11088   0.114E-02 0.101E-02
CGA:  24    -0.334581285624E+03   -0.91087E-04   -0.11028E-03 11088   0.116E-02 0.102E-02
CGA:  25    -0.334581343983E+03   -0.58359E-04   -0.93353E-04 11088   0.114E-02 0.102E-02
CGA:  26    -0.334581430774E+03   -0.86791E-04   -0.10674E-03 11088   0.115E-02 0.103E-02
CGA:  27    -0.334581490081E+03   -0.59307E-04   -0.92526E-04 11088   0.114E-02 0.104E-02
CGA:  28    -0.334581573462E+03   -0.83381E-04   -0.10382E-03 11088   0.115E-02 0.105E-02
CGA:  29    -0.334581634025E+03   -0.60563E-04   -0.91992E-04 11088   0.114E-02 0.106E-02
CGA:  30    -0.334581714771E+03   -0.80746E-04   -0.10143E-03 11088   0.115E-02 0.107E-02
CGA:  31    -0.334581776721E+03   -0.61951E-04   -0.91677E-04 11088   0.115E-02 0.108E-02
CGA:  32    -0.334581855411E+03   -0.78689E-04   -0.99508E-04 11088   0.115E-02 0.109E-02
CGA:  33    -0.334581918809E+03   -0.63398E-04   -0.91571E-04 11088   0.115E-02 0.110E-02
CGA:  34    -0.334581995897E+03   -0.77088E-04   -0.97998E-04 11088   0.116E-02 0.112E-02
CGA:  35    -0.334582060798E+03   -0.64901E-04   -0.91689E-04 11088   0.117E-02 0.113E-02
CGA:  36    -0.334582136704E+03   -0.75906E-04   -0.96891E-04 11088   0.117E-02 0.114E-02
CGA:  37    -0.334582203169E+03   -0.66465E-04   -0.92031E-04 11088   0.118E-02 0.115E-02
CGA:  38    -0.334582278322E+03   -0.75153E-04   -0.96181E-04 11088   0.119E-02 0.117E-02
CGA:  39    -0.334582346413E+03   -0.68090E-04   -0.92580E-04 11088   0.120E-02 0.118E-02
CGA:  40    -0.334582421259E+03   -0.74846E-04   -0.95852E-04 11088   0.121E-02 0.119E-02
CGA:  41    -0.334582491034E+03   -0.69775E-04   -0.93304E-04 11088   0.122E-02 0.121E-02
CGA:  42    -0.334582566020E+03   -0.74986E-04   -0.95873E-04 11088   0.123E-02 0.122E-02
CGA:  43    -0.334582637535E+03   -0.71515E-04   -0.94167E-04 11088   0.124E-02 0.123E-02
CGA:  44    -0.334582713068E+03   -0.75533E-04   -0.96189E-04 11088   0.126E-02 0.125E-02
CGA:  45    -0.334582786377E+03   -0.73308E-04   -0.95135E-04 11088   0.127E-02 0.126E-02
CGA:  46    -0.334582862811E+03   -0.76434E-04   -0.96743E-04 11088   0.128E-02 0.127E-02
CGA:  47    -0.334582937956E+03   -0.75145E-04   -0.96174E-04 11088   0.130E-02 0.129E-02
CGA:  48    -0.334583015576E+03   -0.77619E-04   -0.97477E-04 11088   0.131E-02 0.130E-02
CGA:  49    -0.334583092585E+03   -0.77010E-04   -0.97257E-04 11088   0.132E-02 0.131E-02
CGA:  50    -0.334583171604E+03   -0.79018E-04   -0.98337E-04 11088   0.133E-02 0.133E-02
CGA:  51    -0.334583250495E+03   -0.78892E-04   -0.98361E-04 11088   0.135E-02 0.134E-02
CGA:  52    -0.334583331063E+03   -0.80567E-04   -0.99279E-04 11088   0.136E-02 0.135E-02
CGA:  53    -0.334583411836E+03   -0.80773E-04   -0.99467E-04 11088   0.137E-02 0.136E-02
CGA:  54    -0.334583494045E+03   -0.82209E-04   -0.10026E-03 11088   0.138E-02 0.138E-02
CGA:  55    -0.334583576680E+03   -0.82635E-04   -0.10056E-03 11088   0.140E-02 0.139E-02
CGA:  56    -0.334583660575E+03   -0.83895E-04   -0.10126E-03 11088   0.141E-02 0.140E-02
CGA:  57    -0.334583745038E+03   -0.84463E-04   -0.10162E-03 11088   0.142E-02 0.141E-02
CGA:  58    -0.334583830628E+03   -0.85590E-04   -0.10225E-03 11088   0.143E-02 0.142E-02
CGA:  59    -0.334583916867E+03   -0.86239E-04   -0.10264E-03 11088   0.144E-02 0.144E-02
CGA:  60    -0.334584004126E+03   -0.87259E-04   -0.10321E-03 11088   0.145E-02 0.145E-02
CGA:  61    -0.334584092076E+03   -0.87950E-04   -0.10361E-03 11088   0.147E-02 0.146E-02
CGA:  62    -0.334584180960E+03   -0.88884E-04   -0.10412E-03 11088   0.148E-02 0.147E-02
CGA:  63    -0.334584270546E+03   -0.89586E-04   -0.10452E-03 11088   0.149E-02 0.148E-02
CGA:  64    -0.334584360994E+03   -0.90447E-04   -0.10498E-03 11088   0.150E-02 0.149E-02
CGA:  65    -0.334584452139E+03   -0.91145E-04   -0.10536E-03 11088   0.151E-02 0.150E-02
CGA:  66    -0.334584544073E+03   -0.91934E-04   -0.10578E-03 11088   0.151E-02 0.151E-02
CGA:  67    -0.334584636680E+03   -0.92607E-04   -0.10613E-03 11088   0.152E-02 0.152E-02
CGA:  68    -0.334584730012E+03   -0.93333E-04   -0.10651E-03 11088   0.153E-02 0.153E-02
CGA:  69    -0.334584823989E+03   -0.93977E-04   -0.10683E-03 11088   0.154E-02 0.153E-02
CGA:  70    -0.334584918631E+03   -0.94642E-04   -0.10716E-03 11088   0.155E-02 0.154E-02
CGA:  71    -0.334585013883E+03   -0.95252E-04   -0.10745E-03 11088   0.156E-02 0.155E-02
CGA:  72    -0.334585109742E+03   -0.95859E-04   -0.10774E-03 11088   0.156E-02 0.156E-02
CGA:  73    -0.334585206170E+03   -0.96429E-04   -0.10799E-03 11088   0.157E-02 0.156E-02
CGA:  74    -0.334585303152E+03   -0.96982E-04   -0.10823E-03 11088   0.158E-02 0.157E-02
CGA:  75    -0.334585400658E+03   -0.97506E-04   -0.10845E-03 11088   0.158E-02 0.158E-02
CGA:  76    -0.334585498661E+03   -0.98004E-04   -0.10865E-03 11088   0.159E-02 0.158E-02
CGA:  77    -0.334585597147E+03   -0.98485E-04   -0.10883E-03 11088   0.159E-02 0.159E-02
CGA:  78    -0.334585696077E+03   -0.98930E-04   -0.10899E-03 11088   0.160E-02 0.159E-02
CGA:  79    -0.334585795445E+03   -0.99368E-04   -0.10913E-03 11088   0.160E-02 0.160E-02
CGA:  80    -0.334585895209E+03   -0.99764E-04   -0.10925E-03 11088   0.161E-02 0.160E-02
CGA:  81    -0.334585995367E+03   -0.10016E-03   -0.10936E-03 11088   0.161E-02 0.160E-02
CGA:  82    -0.334586095872E+03   -0.10050E-03   -0.10943E-03 11088   0.161E-02 0.161E-02
CGA:  83    -0.334586196733E+03   -0.10086E-03   -0.10950E-03 11088   0.161E-02 0.161E-02
CGA:  84    -0.334586297899E+03   -0.10117E-03   -0.10954E-03 11088   0.162E-02 0.161E-02
CGA:  85    -0.334586399383E+03   -0.10148E-03   -0.10958E-03 11088   0.162E-02 0.162E-02
CGA:  86    -0.334586501131E+03   -0.10175E-03   -0.10959E-03 11088   0.162E-02 0.162E-02
CGA:  87    -0.334586603165E+03   -0.10203E-03   -0.10960E-03 11088   0.162E-02 0.162E-02
CGA:  88    -0.334586705427E+03   -0.10226E-03   -0.10957E-03 11088   0.162E-02 0.162E-02
CGA:  89    -0.334586807946E+03   -0.10252E-03   -0.10955E-03 11088   0.162E-02 0.162E-02
CGA:  90    -0.334586910663E+03   -0.10272E-03   -0.10950E-03 11088   0.162E-02 0.162E-02
CGA:  91    -0.334587013613E+03   -0.10295E-03   -0.10946E-03 11088   0.162E-02 0.162E-02
CGA:  92    -0.334587116737E+03   -0.10312E-03   -0.10938E-03 11088   0.162E-02 0.162E-02
CGA:  93    -0.334587220076E+03   -0.10334E-03   -0.10932E-03 11088   0.162E-02 0.162E-02
CGA:  94    -0.334587323572E+03   -0.10350E-03   -0.10923E-03 11088   0.162E-02 0.162E-02
CGA:  95    -0.334587427269E+03   -0.10370E-03   -0.10916E-03 11088   0.162E-02 0.162E-02
CGA:  96    -0.334587531109E+03   -0.10384E-03   -0.10905E-03 11088   0.162E-02 0.162E-02
CGA:  97    -0.334587635142E+03   -0.10403E-03   -0.10897E-03 11088   0.162E-02 0.162E-02
CGA:  98    -0.334587739311E+03   -0.10417E-03   -0.10885E-03 11088   0.162E-02 0.161E-02
CGA:  99    -0.334587843672E+03   -0.10436E-03   -0.10876E-03 11088   0.161E-02 0.161E-02
CGA: 100    -0.334587948166E+03   -0.10449E-03   -0.10864E-03 11088   0.161E-02 0.161E-02
CGA: 101    -0.334588052854E+03   -0.10469E-03   -0.10855E-03 11088   0.161E-02 0.161E-02
CGA: 102    -0.334588157677E+03   -0.10482E-03   -0.10843E-03 11088   0.161E-02 0.161E-02
CGA: 103    -0.334588262706E+03   -0.10503E-03   -0.10834E-03 11088   0.160E-02 0.160E-02
CGA: 104    -0.334588367874E+03   -0.10517E-03   -0.10822E-03 11088   0.160E-02 0.160E-02
CGA: 105    -0.334588473266E+03   -0.10539E-03   -0.10814E-03 11088   0.160E-02 0.160E-02
CGA: 106    -0.334588578801E+03   -0.10553E-03   -0.10802E-03 11088   0.159E-02 0.159E-02
CGA: 107    -0.334588684577E+03   -0.10578E-03   -0.10795E-03 11088   0.159E-02 0.159E-02
CGA: 108    -0.334588790512E+03   -0.10594E-03   -0.10784E-03 11088   0.158E-02 0.158E-02
CGA: 109    -0.334588896711E+03   -0.10620E-03   -0.10778E-03 11088   0.158E-02 0.158E-02
CGA: 110    -0.334589003078E+03   -0.10637E-03   -0.10768E-03 11088   0.158E-02 0.158E-02
CGA: 111    -0.334589109736E+03   -0.10666E-03   -0.10763E-03 11088   0.157E-02 0.157E-02
CGA: 112    -0.334589216570E+03   -0.10683E-03   -0.10754E-03 11088   0.157E-02 0.157E-02
CGA: 113    -0.334589323725E+03   -0.10716E-03   -0.10751E-03 11088   0.156E-02 0.156E-02
CGA: 114    -0.334589431064E+03   -0.10734E-03   -0.10742E-03 11088   0.156E-02 0.156E-02
CGA: 115    -0.334589538749E+03   -0.10769E-03   -0.10741E-03 11088   0.155E-02 0.155E-02
CGA: 116    -0.334589646620E+03   -0.10787E-03   -0.10732E-03 11088   0.154E-02 0.155E-02
CGA: 117    -0.334589754868E+03   -0.10825E-03   -0.10733E-03 11088   0.154E-02 0.154E-02
CGA: 118    -0.334589863295E+03   -0.10843E-03   -0.10724E-03 11088   0.153E-02 0.153E-02
CGA: 119    -0.334589972127E+03   -0.10883E-03   -0.10727E-03 11088   0.153E-02 0.153E-02
CGA: 120    -0.334590081117E+03   -0.10899E-03   -0.10717E-03 11088   0.152E-02 0.152E-02
CGA: 121    -0.334590190544E+03   -0.10943E-03   -0.10720E-03 11088   0.151E-02 0.151E-02
CGA: 122    -0.334590300089E+03   -0.10955E-03   -0.10708E-03 11088   0.151E-02 0.151E-02
CGA: 123    -0.334590410104E+03   -0.11001E-03   -0.10714E-03 11088   0.150E-02 0.150E-02
CGA: 124    -0.334590520179E+03   -0.11008E-03   -0.10698E-03 11088   0.149E-02 0.149E-02
CGA: 125    -0.334590630751E+03   -0.11057E-03   -0.10704E-03 11088   0.148E-02 0.148E-02
CGA: 126    -0.334590741288E+03   -0.11054E-03   -0.10684E-03 11088   0.147E-02 0.148E-02
CGA: 127    -0.334590852365E+03   -0.11108E-03   -0.10691E-03 11088   0.147E-02 0.147E-02
CGA: 128    -0.334590963266E+03   -0.11090E-03   -0.10663E-03 11088   0.146E-02 0.146E-02
CGA: 129    -0.334591074762E+03   -0.11150E-03   -0.10671E-03 11088   0.145E-02 0.145E-02
CGA: 130    -0.334591185884E+03   -0.11112E-03   -0.10632E-03 11088   0.144E-02 0.144E-02
CGA: 131    -0.334591297686E+03   -0.11180E-03   -0.10643E-03 11088   0.143E-02 0.143E-02
CGA: 132    -0.334591408838E+03   -0.11115E-03   -0.10588E-03 11088   0.142E-02 0.142E-02
CGA: 133    -0.334591520802E+03   -0.11196E-03   -0.10604E-03 11088   0.141E-02 0.141E-02
CGA: 134    -0.334591631724E+03   -0.11092E-03   -0.10527E-03 11088   0.139E-02 0.140E-02
CGA: 135    -0.334591743681E+03   -0.11196E-03   -0.10552E-03 11088   0.138E-02 0.138E-02
CGA: 136    -0.334591854038E+03   -0.11036E-03   -0.10445E-03 11088   0.137E-02 0.137E-02
CGA: 137    -0.334591965788E+03   -0.11175E-03   -0.10484E-03 11088   0.136E-02 0.136E-02
CGA: 138    -0.334592075179E+03   -0.10939E-03   -0.10336E-03 11088   0.134E-02 0.134E-02
CGA: 139    -0.334592186472E+03   -0.11129E-03   -0.10398E-03 11088   0.133E-02 0.133E-02
CGA: 140    -0.334592294461E+03   -0.10799E-03   -0.10200E-03 11088   0.131E-02 0.131E-02
CGA: 141    -0.334592404864E+03   -0.11040E-03   -0.10285E-03 11088   0.130E-02 0.130E-02
CGA: 142    -0.334592511078E+03   -0.10621E-03   -0.10040E-03 11088   0.128E-02 0.128E-02
CGA: 143    -0.334592619920E+03   -0.10884E-03   -0.10135E-03 11088   0.127E-02 0.126E-02
CGA: 144    -0.334592723928E+03   -0.10401E-03   -0.98575E-04 11088   0.125E-02 0.124E-02
CGA: 145    -0.334592830198E+03   -0.10627E-03   -0.99359E-04 11088   0.124E-02 0.122E-02
CGA: 146    -0.334592931414E+03   -0.10122E-03   -0.96490E-04 11088   0.123E-02 0.119E-02
CGA: 147    -0.334593033972E+03   -0.10256E-03   -0.96836E-04 11088   0.121E-02 0.117E-02
CGA: 148    -0.334593131805E+03   -0.97833E-04   -0.94117E-04 11088   0.120E-02 0.114E-02
CGA: 149    -0.334593229818E+03   -0.98013E-04   -0.93838E-04 11088   0.119E-02 0.112E-02
CGA: 150    -0.334593323954E+03   -0.94137E-04   -0.91433E-04 11088   0.117E-02 0.109E-02
CGA: 151    -0.334593417204E+03   -0.93250E-04   -0.90471E-04 11088   0.115E-02 0.107E-02
CGA: 152    -0.334593507598E+03   -0.90393E-04   -0.88385E-04 11088   0.113E-02 0.104E-02
CGA: 153    -0.334593596212E+03   -0.88614E-04   -0.86784E-04 11088   0.111E-02 0.102E-02
CGA: 154    -0.334593682793E+03   -0.86581E-04   -0.84924E-04 11088   0.108E-02 0.100E-02
CGA: 155    -0.334593766868E+03   -0.84075E-04   -0.82810E-04 11088   0.106E-02 0.984E-03
CGA: 156    -0.334593849358E+03   -0.82490E-04   -0.81050E-04 11088   0.103E-02 0.964E-03
CGA: 157    -0.334593928829E+03   -0.79470E-04   -0.78592E-04 11088   0.100E-02 0.946E-03
CGA: 158    -0.334594006833E+03   -0.78005E-04   -0.76828E-04 11088   0.977E-03 0.926E-03
CGA: 159    -0.334594081524E+03   -0.74690E-04   -0.74183E-04 11088   0.949E-03 0.907E-03
CGA: 160    -0.334594154652E+03   -0.73129E-04   -0.72349E-04 11088   0.922E-03 0.887E-03
CGA: 161    -0.334594224364E+03   -0.69712E-04   -0.69642E-04 11088   0.894E-03 0.867E-03
CGA: 162    -0.334594292310E+03   -0.67945E-04   -0.67710E-04 11088   0.868E-03 0.846E-03
CGA: 163    -0.334594356882E+03   -0.64572E-04   -0.65031E-04 11088   0.841E-03 0.826E-03
CGA: 164    -0.334594419462E+03   -0.62580E-04   -0.63006E-04 11088   0.816E-03 0.804E-03
CGA: 165    -0.334594478808E+03   -0.59346E-04   -0.60413E-04 11088   0.790E-03 0.784E-03
CGA: 166    -0.334594535980E+03   -0.57172E-04   -0.58325E-04 11088   0.766E-03 0.762E-03
CGA: 167    -0.334594590107E+03   -0.54127E-04   -0.55850E-04 11088   0.741E-03 0.741E-03
CGA: 168    -0.334594641966E+03   -0.51859E-04   -0.53749E-04 11088   0.718E-03 0.719E-03
CGA: 169    -0.334594690980E+03   -0.49013E-04   -0.51399E-04 11088   0.695E-03 0.698E-03
CGA: 170    -0.334594737732E+03   -0.46752E-04   -0.49336E-04 11088   0.672E-03 0.676E-03
CGA: 171    -0.334594781829E+03   -0.44098E-04   -0.47112E-04 11088   0.650E-03 0.655E-03
CGA: 172    -0.334594823757E+03   -0.41928E-04   -0.45130E-04 11088   0.629E-03 0.635E-03
CGA: 173    -0.334594863208E+03   -0.39451E-04   -0.43026E-04 11088   0.609E-03 0.615E-03
CGA: 174    -0.334594900635E+03   -0.37427E-04   -0.41156E-04 11088   0.589E-03 0.595E-03
CGA: 175    -0.334594935758E+03   -0.35123E-04   -0.39173E-04 11088   0.569E-03 0.575E-03
CGA: 176    -0.334594969027E+03   -0.33269E-04   -0.37428E-04 11088   0.550E-03 0.557E-03
CGA: 177    -0.334595000164E+03   -0.31137E-04   -0.35569E-04 11088   0.532E-03 0.538E-03
CGA: 178    -0.334595029619E+03   -0.29455E-04   -0.33952E-04 11088   0.514E-03 0.520E-03
CGA: 179    -0.334595057121E+03   -0.27502E-04   -0.32223E-04 11088   0.497E-03 0.503E-03
CGA: 180    -0.334595083103E+03   -0.25981E-04   -0.30731E-04 11088   0.481E-03 0.487E-03
CGA: 181    -0.334595107325E+03   -0.24222E-04   -0.29143E-04 11088   0.465E-03 0.471E-03
CGA: 182    -0.334595130172E+03   -0.22848E-04   -0.27770E-04 11088   0.450E-03 0.455E-03
CGA: 183    -0.334595151454E+03   -0.21282E-04   -0.26324E-04 11088   0.435E-03 0.440E-03
CGA: 184    -0.334595171486E+03   -0.20032E-04   -0.25059E-04 11088   0.421E-03 0.426E-03
CGA: 185    -0.334595190138E+03   -0.18653E-04   -0.23752E-04 11088   0.407E-03 0.412E-03
CGA: 186    -0.334595207660E+03   -0.17522E-04   -0.22592E-04 11088   0.394E-03 0.399E-03
CGA: 187    -0.334595223980E+03   -0.16319E-04   -0.21418E-04 11088   0.381E-03 0.386E-03
CGA: 188    -0.334595239279E+03   -0.15300E-04   -0.20359E-04 11088   0.369E-03 0.374E-03
CGA: 189    -0.334595253535E+03   -0.14255E-04   -0.19308E-04 11088   0.358E-03 0.362E-03
CGA: 190    -0.334595266874E+03   -0.13339E-04   -0.18343E-04 11088   0.347E-03 0.351E-03
CGA: 191    -0.334595279308E+03   -0.12434E-04   -0.17405E-04 11088   0.336E-03 0.340E-03
CGA: 192    -0.334595290928E+03   -0.11620E-04   -0.16532E-04 11088   0.326E-03 0.330E-03
CGA: 193    -0.334595301762E+03   -0.10834E-04   -0.15694E-04 11088   0.316E-03 0.320E-03
CGA: 194    -0.334595311876E+03   -0.10115E-04   -0.14907E-04 11088   0.307E-03 0.310E-03
CGA: 195    -0.334595321308E+03   -0.94321E-05   -0.14157E-04 11088   0.298E-03 0.301E-03
CGA: 196    -0.334595330109E+03   -0.88003E-05   -0.13451E-04 11088   0.289E-03 0.293E-03
CGA: 197    -0.334595338315E+03   -0.82065E-05   -0.12781E-04 11088   0.281E-03 0.284E-03
CGA: 198    -0.334595345970E+03   -0.76544E-05   -0.12148E-04 11088   0.273E-03 0.276E-03
CGA: 199    -0.334595353108E+03   -0.71389E-05   -0.11549E-04 11088   0.266E-03 0.269E-03
CGA: 200    -0.334595359767E+03   -0.66586E-05   -0.10984E-04 11088   0.259E-03 0.262E-03
  26 F= -.33459536E+03 E0= -.33458481E+03  d E =-.259601E+00  mag=     9.9098
       N       E                     dE             d eps       ncg     rms          ort
SDA:   1    -0.333336430038E+03    0.12589E+01    0.00000E+00 11088   0.318E+01 0.000E+00
CGA:   2    -0.334273673482E+03   -0.93724E+00   -0.68439E-02 11088   0.361E+01-0.600E+00
CGA:   3    -0.334450047887E+03   -0.17637E+00   -0.17542E+00 11088   0.982E+00 0.125E-02
CGA:   4    -0.334602361243E+03   -0.15231E+00   -0.15281E+00 11088   0.683E+00-0.100E-01
CGA:   5    -0.334647679682E+03   -0.45318E-01   -0.45044E-01 11088   0.173E+00-0.785E-02
CGA:   6    -0.334669754501E+03   -0.22075E-01   -0.22266E-01 11088   0.895E-01-0.692E-02
CGA:   7    -0.334676647621E+03   -0.68931E-02   -0.68952E-02 11088   0.483E-01 0.410E-04
CGA:   8    -0.334683553818E+03   -0.69062E-02   -0.68255E-02 11088   0.198E-01 0.200E-02
CGA:   9    -0.334685658029E+03   -0.21042E-02   -0.21033E-02 11088   0.181E-01-0.549E-03
CGA:  10    -0.334687943160E+03   -0.22851E-02   -0.22988E-02 11088   0.585E-02-0.498E-03
CGA:  11    -0.334688519004E+03   -0.57584E-03   -0.57813E-03 11088   0.487E-02 0.706E-03
CGA:  12    -0.334689139994E+03   -0.62099E-03   -0.61295E-03 11088   0.128E-02 0.106E-02
CGA:  13    -0.334689384281E+03   -0.24429E-03   -0.26575E-03 11088   0.257E-02-0.329E-03
CGA:  14    -0.334689587599E+03   -0.20332E-03   -0.19965E-03 11088   0.113E-02-0.101E-02
CGA:  15    -0.334689643594E+03   -0.55994E-04   -0.45774E-04 11088   0.919E-03-0.248E-03
CGA:  16    -0.334689732295E+03   -0.88701E-04   -0.89726E-04 11088   0.102E-02-0.560E-04
CGA:  17    -0.334689782998E+03   -0.50703E-04   -0.54943E-04 11088   0.378E-03 0.842E-04
CGA:  18    -0.334689808933E+03   -0.25935E-04   -0.28931E-04 11088   0.304E-03 0.878E-04
CGA:  19    -0.334689833621E+03   -0.24689E-04   -0.27534E-04 11088   0.174E-03 0.958E-04
CGA:  20    -0.334689849712E+03   -0.16091E-04   -0.17179E-04 11088   0.151E-03 0.416E-04
CGA:  21    -0.334689878255E+03   -0.28543E-04   -0.35766E-04 11088   0.218E-03-0.803E-04
CGA:  22    -0.334689900634E+03   -0.22379E-04   -0.22020E-04 11088   0.220E-03-0.101E-03
CGA:  23    -0.334689917675E+03   -0.17041E-04   -0.16690E-04 11088   0.114E-03 0.949E-05
CGA:  24    -0.334689921421E+03   -0.37458E-05   -0.53243E-05 11088   0.249E-04 0.257E-04
  27 F= -.33468992E+03 E0= -.33468097E+03  d E =-.945617E-01  mag=     9.9906
       N       E                     dE             d eps       ncg     rms          ort
SDA:   1    -0.334594228384E+03    0.95689E-01    0.00000E+00 11088   0.292E+00 0.000E+00
CGA:   2    -0.334644148561E+03   -0.49920E-01   -0.49712E-01 11088   0.407E+00 0.309E-02
CGA:   3    -0.334681744166E+03   -0.37596E-01   -0.37650E-01 11088   0.894E-01 0.115E-02
CGA:   4    -0.334695317610E+03   -0.13573E-01   -0.13622E-01 11088   0.399E-01-0.106E-02
CGA:   5    -0.334698852628E+03   -0.35350E-02   -0.34897E-02 11088   0.187E-01-0.248E-02
CGA:   6    -0.334700844941E+03   -0.19923E-02   -0.20001E-02 11088   0.490E-02-0.886E-03
CGA:   7    -0.334701510281E+03   -0.66534E-03   -0.70598E-03 11088   0.506E-02-0.890E-03
CGA:   8    -0.334701882101E+03   -0.37182E-03   -0.36789E-03 11088   0.116E-02-0.198E-03
CGA:   9    -0.334702124343E+03   -0.24224E-03   -0.25858E-03 11088   0.102E-02-0.131E-03
CGA:  10    -0.334702191932E+03   -0.67589E-04   -0.67685E-04 11088   0.470E-03 0.136E-05
CGA:  11    -0.334702248586E+03   -0.56655E-04   -0.55699E-04 11088   0.206E-03 0.130E-03
CGA:  12    -0.334702279206E+03   -0.30619E-04   -0.31018E-04 11088   0.252E-03-0.594E-04
CGA:  13    -0.334702108777E+03    0.17043E-03   -0.82754E-04 11088   0.150E-02-0.724E-03
CGA:  14    -0.334702213715E+03   -0.10494E-03   -0.11696E-03 11088   0.759E-03 0.235E-03
CGA:  15    -0.334702317898E+03   -0.10418E-03   -0.10510E-03 11088   0.107E-03 0.129E-03
CGA:  16    -0.334702349985E+03   -0.32087E-04    0.65839E-03 11088   0.587E-04 0.310E-04
CGA:  17    -0.334702372367E+03   -0.22382E-04    0.27914E-04 11088   0.565E-04-0.352E-06
CGA:  18    -0.334702375671E+03   -0.33046E-05   -0.43585E-05 11088   0.174E-04 0.217E-04
[...]
CGA:   8    -0.334700863516E+03   -0.18631E-03   -0.20817E-03 11088   0.109E-02 0.309E-03
CGA:   9    -0.334701052532E+03   -0.18902E-03   -0.18670E-03 11088   0.385E-03 0.168E-03
CGA:  10    -0.334701123992E+03   -0.71461E-04   -0.71939E-04 11088   0.654E-03-0.256E-04
CGA:  11    -0.334701167047E+03   -0.43055E-04   -0.48605E-04 11088   0.200E-03 0.869E-04
CGA:  12    -0.334701178176E+03   -0.11128E-04   -0.15330E-04 11088   0.160E-03 0.576E-04
CGA:  13    -0.334701197985E+03   -0.19809E-04   -0.21958E-04 11088   0.917E-04 0.704E-04
CGA:  14    -0.334701203401E+03   -0.54161E-05   -0.78703E-05 11088   0.330E-04 0.322E-04
  33 F= -.33470120E+03 E0= -.33469293E+03  d E =-.111386E-02  mag=     9.9966
       N       E                     dE             d eps       ncg     rms          ort
SDA:   1    -0.334656141716E+03    0.45056E-01    0.00000E+00 11088   0.141E+00 0.000E+00
CGA:   2    -0.334679539877E+03   -0.23398E-01   -0.23494E-01 11088   0.129E+00-0.273E-02
CGA:   3    -0.334691063551E+03   -0.11524E-01   -0.11573E-01 11088   0.603E-01 0.712E-03
CGA:   4    -0.334699207363E+03   -0.81438E-02   -0.81472E-02 11088   0.186E-01-0.645E-03
CGA:   5    -0.334700883056E+03   -0.16757E-02   -0.17083E-02 11088   0.692E-02 0.971E-03
CGA:   6    -0.334701606487E+03   -0.72343E-03   -0.72985E-03 11088   0.170E-02 0.230E-03
CGA:   7    -0.334701887416E+03   -0.28093E-03   -0.27746E-03 11088   0.733E-03 0.107E-03
CGA:   8    -0.334701985013E+03   -0.97597E-04   -0.97308E-04 11088   0.721E-03-0.118E-03
CGA:   9    -0.334702024019E+03   -0.39006E-04   -0.45738E-04 11088   0.188E-03 0.130E-03
CGA:  10    -0.334702033127E+03   -0.91084E-05   -0.13925E-04 11088   0.125E-03 0.778E-04
CGA:  11    -0.334702051084E+03   -0.17957E-04   -0.18685E-04 11088   0.659E-04 0.452E-04
CGA:  12    -0.334702061905E+03   -0.10821E-04   -0.10816E-04 11088   0.958E-04-0.236E-04
CGA:  13    -0.334702065597E+03   -0.36919E-05   -0.38945E-05 11088   0.786E-04 0.349E-05
  34 F= -.33470207E+03 E0= -.33469365E+03  d E =-.862196E-03  mag=     9.9959
       N       E                     dE             d eps       ncg     rms          ort
SDA:   1    -0.334683432109E+03    0.18630E-01    0.00000E+00 11088   0.575E-01 0.000E+00
CGA:   2    -0.334693198259E+03   -0.97661E-02   -0.97422E-02 11088   0.505E-01 0.408E-03
CGA:   3    -0.334698098092E+03   -0.48998E-02   -0.48789E-02 11088   0.262E-01-0.106E-02
CGA:   4    -0.334701180747E+03   -0.30827E-02   -0.30782E-02 11088   0.661E-02 0.105E-02
CGA:   5    -0.334701921099E+03   -0.74035E-03   -0.73748E-03 11088   0.330E-02-0.350E-03
CGA:   6    -0.334702177586E+03   -0.25649E-03   -0.26028E-03 11088   0.653E-03 0.122E-03
CGA:   7    -0.334702292404E+03   -0.11482E-03   -0.11326E-03 11088   0.271E-03 0.290E-04
CGA:   8    -0.334702319223E+03   -0.26819E-04   -0.27421E-04 11088   0.152E-03 0.306E-04
CGA:   9    -0.334702343031E+03   -0.23807E-04   -0.24005E-04 11088   0.527E-04-0.753E-05
CGA:  10    -0.334702348571E+03   -0.55403E-05   -0.56245E-05 11088   0.234E-04 0.184E-04
  35 F= -.33470235E+03 E0= -.33469395E+03  d E =-.282974E-03  mag=     9.9956
       N       E                     dE             d eps       ncg     rms          ort
SDA:   1    -0.334033888962E+03    0.66845E+00    0.00000E+00 11088   0.169E+01 0.000E+00
CGA:   2    -0.334460592020E+03   -0.42670E+00   -0.42740E+00 11088   0.176E+01-0.582E-02
CGA:   3    -0.334604071340E+03   -0.14348E+00   -0.14426E+00 11088   0.592E+00-0.697E-03
CGA:   4    -0.334674177545E+03   -0.70106E-01   -0.70158E-01 11088   0.129E+00 0.436E-02
CGA:   5    -0.334692384723E+03   -0.18207E-01   -0.18262E-01 11088   0.530E-01-0.422E-02
CGA:   6    -0.334696827212E+03   -0.44425E-02   -0.44409E-02 11088   0.199E-01 0.394E-03
CGA:   7    -0.334699497088E+03   -0.26699E-02   -0.26671E-02 11088   0.664E-02 0.406E-03
CGA:   8    -0.334700232256E+03   -0.73517E-03   -0.74332E-03 11088   0.451E-02 0.500E-03
CGA:   9    -0.334700805183E+03   -0.57293E-03   -0.56949E-03 11088   0.175E-02-0.423E-03
CGA:  10    -0.334701004592E+03   -0.19941E-03   -0.19936E-03 11088   0.970E-03 0.200E-03
CGA:  11    -0.334701157810E+03   -0.15322E-03   -0.15211E-03 11088   0.570E-03 0.710E-04
CGA:  12    -0.334701223064E+03   -0.65254E-04   -0.66903E-04 11088   0.291E-03 0.989E-04
CGA:  13    -0.334701171238E+03    0.51827E-04   -0.16015E-03 11088   0.296E-02-0.617E-03
CGA:  14    -0.334701278566E+03   -0.10733E-03   -0.13326E-03 11088   0.330E-03 0.266E-03
CGA:  15    -0.334701312366E+03   -0.33800E-04   -0.38121E-04 11088   0.156E-03 0.137E-03
CGA:  16    -0.334701332832E+03   -0.20465E-04   -0.20174E-04 11088   0.878E-04-0.664E-05
CGA:  17    -0.334701337830E+03   -0.49984E-05   -0.63399E-05 11088   0.264E-04 0.230E-04
  36 F= -.33470134E+03 E0= -.33469308E+03  d E =0.101074E-02  mag=     9.9950
       N       E                     dE             d eps       ncg     rms          ort
SDA:   1    -0.334039797792E+03    0.66154E+00    0.00000E+00 11088   0.162E+01 0.000E+00
CGA:   2    -0.334489454842E+03   -0.44966E+00   -0.44946E+00 11088   0.125E+01 0.101E-02
CGA:   3    -0.334607961088E+03   -0.11851E+00   -0.11883E+00 11088   0.595E+00-0.167E-02
CGA:   4    -0.334665679776E+03   -0.57719E-01   -0.57776E-01 11088   0.135E+00 0.226E-03
CGA:   5    -0.334683471325E+03   -0.17792E-01   -0.17787E-01 11088   0.601E-01-0.236E-02
CGA:   6    -0.334688157436E+03   -0.46861E-02   -0.46723E-02 11088   0.223E-01 0.719E-03
CGA:   7    -0.334691426041E+03   -0.32686E-02   -0.32804E-02 11088   0.750E-02-0.856E-03
CGA:   8    -0.334692367609E+03   -0.94157E-03   -0.94224E-03 11088   0.449E-02 0.501E-03
CGA:   9    -0.334692884891E+03   -0.51728E-03   -0.51600E-03 11088   0.195E-02-0.566E-04
CGA:  10    -0.334693148710E+03   -0.26382E-03   -0.26233E-03 11088   0.954E-03 0.280E-03
CGA:  11    -0.334693331263E+03   -0.18255E-03   -0.19281E-03 11088   0.140E-02-0.226E-03
CGA:  12    -0.334693400419E+03   -0.69155E-04   -0.74959E-04 11088   0.437E-03 0.923E-04
CGA:  13    -0.334693430632E+03   -0.30213E-04   -0.34657E-04 11088   0.396E-03 0.798E-04
CGA:  14    -0.334693494029E+03   -0.63398E-04   -0.64220E-04 11088   0.158E-03-0.836E-04
CGA:  15    -0.334693510106E+03   -0.16076E-04   -0.16415E-04 11088   0.270E-03-0.872E-04
CGA:  16    -0.334693517765E+03   -0.76596E-05   -0.12278E-04 11088   0.469E-04 0.559E-04
  37 F= -.33469352E+03 E0= -.33468513E+03  d E =0.782006E-02  mag=     9.9936
       N       E                     dE             d eps       ncg     rms          ort
SDA:   1    -0.334150591223E+03    0.54292E+00    0.00000E+00 11088   0.139E+01 0.000E+00
CGA:   2    -0.334496162627E+03   -0.34557E+00   -0.34820E+00 11088   0.170E+01-0.208E-01
CGA:   3    -0.334617450980E+03   -0.12129E+00   -0.12528E+00 11088   0.506E+00-0.260E-01
CGA:   4    -0.334678707853E+03   -0.61257E-01   -0.61256E-01 11088   0.121E+00 0.154E-02
CGA:   5    -0.334693233046E+03   -0.14525E-01   -0.14529E-01 11088   0.656E-01 0.299E-03
CGA:   6    -0.334698513598E+03   -0.52806E-02   -0.53450E-02 11088   0.158E-01 0.151E-02
CGA:   7    -0.334701238872E+03   -0.27253E-02   -0.26985E-02 11088   0.521E-02 0.615E-03
CGA:   8    -0.334702049857E+03   -0.81098E-03   -0.80931E-03 11088   0.422E-02 0.723E-04
CGA:   9    -0.334702481046E+03   -0.43119E-03   -0.41896E-03 11088   0.178E-02-0.436E-03
CGA:  10    -0.334702706621E+03   -0.22557E-03   -0.22310E-03 11088   0.820E-03 0.172E-03
CGA:  11    -0.334702839606E+03   -0.13298E-03   -0.13433E-03 11088   0.879E-03-0.576E-04
CGA:  12    -0.334702890757E+03   -0.51151E-04   -0.61634E-04 11088   0.208E-03 0.203E-03
CGA:  13    -0.334702910059E+03   -0.19302E-04   -0.22779E-04 11088   0.180E-03 0.976E-04
CGA:  14    -0.334702942277E+03   -0.32218E-04   -0.32227E-04 11088   0.578E-04 0.102E-04
CGA:  15    -0.334702943714E+03   -0.14365E-05   -0.38744E-05 11088   0.328E-04 0.412E-04
  38 F= -.33470294E+03 E0= -.33469461E+03  d E =-.942595E-02  mag=     9.9956
       N       E                     dE             d eps       ncg     rms          ort
SDA:   1    -0.334649089400E+03    0.53853E-01    0.00000E+00 11088   0.167E+00 0.000E+00
CGA:   2    -0.334669120220E+03   -0.20031E-01   -0.20030E-01 11088   0.190E+00 0.269E-02
CGA:   3    -0.334692375334E+03   -0.23255E-01   -0.23252E-01 11088   0.487E-01 0.227E-02
CGA:   4    -0.334698873925E+03   -0.64986E-02   -0.64818E-02 11088   0.207E-01 0.135E-02
CGA:   5    -0.334700881430E+03   -0.20075E-02   -0.19727E-02 11088   0.960E-02-0.135E-02
CGA:   6    -0.334702032564E+03   -0.11511E-02   -0.11651E-02 11088   0.269E-02-0.122E-02
CGA:   7    -0.334702297594E+03   -0.26503E-03   -0.26639E-03 11088   0.134E-02 0.249E-03
CGA:   8    -0.334702396167E+03   -0.98573E-04   -0.11546E-03 11088   0.351E-03 0.422E-03
CGA:   9    -0.334702503810E+03   -0.10764E-03   -0.12159E-03 11088   0.501E-03-0.953E-04
CGA:  10    -0.334702528536E+03   -0.24726E-04   -0.22876E-04 11088   0.221E-03-0.296E-04
CGA:  11    -0.334702556508E+03   -0.27972E-04   -0.28632E-04 11088   0.380E-03-0.397E-04
CGA:  12    -0.334702584525E+03   -0.28017E-04   -0.24573E-04 11088   0.141E-03-0.802E-04
CGA:  13    -0.334702591683E+03   -0.71582E-05   -0.70663E-05 11088   0.103E-03-0.198E-05
  39 F= -.33470259E+03 E0= -.33469432E+03  d E =0.352031E-03  mag=     9.9952
       N       E                     dE             d eps       ncg     rms          ort
SDA:   1    -0.334680660461E+03    0.21924E-01    0.00000E+00 11088   0.953E-01 0.000E+00
CGA:   2    -0.334688691069E+03   -0.80306E-02   -0.80559E-02 11088   0.640E-01-0.142E-02
CGA:   3    -0.334699102769E+03   -0.10412E-01   -0.10432E-01 11088   0.222E-01-0.376E-03
CGA:   4    -0.334702120574E+03   -0.30178E-02   -0.30500E-02 11088   0.131E-01-0.142E-02
CGA:   5    -0.334702940996E+03   -0.82042E-03   -0.84257E-03 11088   0.307E-02 0.534E-03
CGA:   6    -0.334703336161E+03   -0.39516E-03   -0.39150E-03 11088   0.805E-03 0.427E-03
CGA:   7    -0.334703467953E+03   -0.13179E-03   -0.15871E-03 11088   0.192E-02-0.459E-03
CGA:   8    -0.334703538922E+03   -0.70968E-04   -0.83140E-04 11088   0.149E-03 0.176E-03
CGA:   9    -0.334703563327E+03   -0.24406E-04   -0.23764E-04 11088   0.186E-03 0.195E-04
CGA:  10    -0.334703587622E+03   -0.24295E-04   -0.24314E-04 11088   0.119E-03-0.297E-04
CGA:  11    -0.334703593227E+03   -0.56049E-05   -0.73870E-05 11088   0.658E-04 0.433E-04
  40 F= -.33470359E+03 E0= -.33469530E+03  d E =-.100154E-02  mag=     9.9956
       N       E                     dE             d eps       ncg     rms          ort
SDA:   1    -0.334668903072E+03    0.34685E-01    0.00000E+00 11088   0.101E+00 0.000E+00
CGA:   2    -0.334682288263E+03   -0.13385E-01   -0.13401E-01 11088   0.139E+00 0.272E-03
CGA:   3    -0.334699184558E+03   -0.16896E-01   -0.16892E-01 11088   0.236E-01 0.209E-04
CGA:   4    -0.334701817293E+03   -0.26327E-02   -0.26323E-02 11088   0.138E-01-0.189E-03
CGA:   5    -0.334703135125E+03   -0.13178E-02   -0.12994E-02 11088   0.298E-02-0.963E-03
CGA:   6    -0.334703527574E+03   -0.39245E-03   -0.39024E-03 11088   0.874E-03 0.786E-04
CGA:   7    -0.334703648521E+03   -0.12095E-03   -0.12540E-03 11088   0.870E-03-0.175E-03
CGA:   8    -0.334703698020E+03   -0.49499E-04   -0.52414E-04 11088   0.189E-03 0.728E-04
CGA:   9    -0.334703714933E+03   -0.16913E-04   -0.17666E-04 11088   0.159E-03 0.277E-04
CGA:  10    -0.334703740502E+03   -0.25569E-04   -0.28364E-04 11088   0.953E-04-0.651E-04
CGA:  11    -0.334703742008E+03   -0.15052E-05   -0.28764E-05 11088   0.604E-04 0.216E-04
  41 F= -.33470374E+03 E0= -.33469545E+03  d E =-.148781E-03  mag=     9.9957
       N       E                     dE             d eps       ncg     rms          ort
SDA:   1    -0.328627864688E+03    0.60759E+01    0.00000E+00 11088   0.155E+02 0.000E+00
CGA:   2    -0.331963482636E+03   -0.33356E+01   -0.33738E+01 11088   0.196E+02 0.357E+00
CGA:   3    -0.333696463751E+03   -0.17330E+01   -0.17941E+01 11088   0.538E+01 0.600E+00
CGA:   4    -0.334334334258E+03   -0.63787E+00   -0.63904E+00 11088   0.139E+01-0.254E+00
CGA:   5    -0.334480315618E+03   -0.14598E+00   -0.14573E+00 11088   0.814E+00-0.465E-01
CGA:   6    -0.334565553095E+03   -0.85237E-01   -0.85162E-01 11088   0.149E+00-0.105E-01
CGA:   7    -0.334590630348E+03   -0.25077E-01   -0.24352E-01 11088   0.521E-01 0.135E-01
CGA:   8    -0.334598792627E+03   -0.81623E-02   -0.81203E-02 11088   0.469E-01 0.181E-02
CGA:   9    -0.334604216770E+03   -0.54241E-02   -0.54084E-02 11088   0.177E-01-0.313E-02
CGA:  10    -0.334606879206E+03   -0.26624E-02   -0.26661E-02 11088   0.124E-01-0.120E-03
CGA:  11    -0.334608076028E+03   -0.11968E-02   -0.12128E-02 11088   0.666E-02 0.848E-03
CGA:  12    -0.334608951985E+03   -0.87596E-03   -0.86641E-03 11088   0.154E-02 0.235E-02
CGA:  13    -0.334609361791E+03   -0.40981E-03   -0.37202E-03 11088   0.137E-02 0.622E-03
CGA:  14    -0.334609612672E+03   -0.25088E-03   -0.25223E-03 11088   0.141E-02-0.132E-03
CGA:  15    -0.334609702012E+03   -0.89341E-04   -0.98855E-04 11088   0.406E-03 0.214E-03
CGA:  16    -0.334609715838E+03   -0.13826E-04   -0.25201E-04 11088   0.275E-03 0.174E-03
CGA:  17    -0.334609736289E+03   -0.20451E-04   -0.29141E-04 11088   0.215E-03 0.207E-03
CGA:  18    -0.334609757611E+03   -0.21322E-04   -0.20491E-04 11088   0.220E-03-0.449E-04
CGA:  19    -0.334609767878E+03   -0.10266E-04   -0.13729E-04 11088   0.116E-03 0.102E-03
CGA:  20    -0.334609768786E+03   -0.90869E-06   -0.63084E-05 11088   0.302E-04 0.726E-04
  42 F= -.33460977E+03 E0= -.33460132E+03  d E =0.939732E-01  mag=     9.9976
       N       E                     dE             d eps       ncg     rms          ort
SDA:   1    -0.333171701675E+03    0.14381E+01    0.00000E+00 11088   0.385E+01 0.000E+00
CGA:   2    -0.333927856531E+03   -0.75615E+00   -0.78540E+00 11088   0.685E+01-0.275E+00
CGA:   3    -0.334472001442E+03   -0.54414E+00   -0.54597E+00 11088   0.993E+00 0.255E-01
CGA:   4    -0.334607312128E+03   -0.13531E+00   -0.13491E+00 11088   0.664E+00 0.112E-01
CGA:   5    -0.334658508077E+03   -0.51196E-01   -0.51233E-01 11088   0.183E+00-0.449E-02
CGA:   6    -0.334683333186E+03   -0.24825E-01   -0.24924E-01 11088   0.523E-01-0.419E-02
CGA:   7    -0.334690691990E+03   -0.73588E-02   -0.72711E-02 11088   0.445E-01 0.270E-02
CGA:   8    -0.334694564968E+03   -0.38730E-02   -0.39364E-02 11088   0.108E-01 0.183E-02
CGA:   9    -0.334697521341E+03   -0.29564E-02   -0.40110E-02 11088   0.105E-01-0.430E-02
CGA:  10    -0.334698196413E+03   -0.67507E-03   -0.68316E-03 11088   0.702E-02 0.540E-03
CGA:  11    -0.334698784702E+03   -0.58829E-03   -0.64765E-03 11088   0.224E-02 0.173E-02
CGA:  12    -0.334699188271E+03   -0.40357E-03   -0.39045E-03 11088   0.120E-02 0.678E-03
CGA:  13    -0.334699429915E+03   -0.24164E-03   -0.34731E-03 11088   0.295E-02-0.106E-02
CGA:  14    -0.334699563267E+03   -0.13335E-03   -0.14922E-03 11088   0.434E-03 0.215E-03
CGA:  15    -0.334699659021E+03   -0.95754E-04   -0.10829E-03 11088   0.434E-03-0.115E-03
CGA:  16    -0.334699677101E+03   -0.18080E-04   -0.18726E-04 11088   0.143E-03 0.903E-05
CGA:  17    -0.334699683490E+03   -0.63894E-05   -0.91434E-05 11088   0.901E-04 0.438E-04
  43 F= -.33469968E+03 E0= -.33469118E+03  d E =-.899147E-01  mag=     9.9946
       N       E                     dE             d eps       ncg     rms          ort
SDA:   1    -0.334118427758E+03    0.58125E+00    0.00000E+00 11088   0.141E+01 0.000E+00
CGA:   2    -0.334491244817E+03   -0.37282E+00   -0.37655E+00 11088   0.229E+01-0.268E-01
CGA:   3    -0.334633345386E+03   -0.14210E+00   -0.14902E+00 11088   0.370E+00-0.532E-01
CGA:   4    -0.334682609488E+03   -0.49264E-01   -0.49221E-01 11088   0.133E+00 0.357E-02
CGA:   5    -0.334695535249E+03   -0.12926E-01   -0.12860E-01 11088   0.619E-01-0.211E-02
CGA:   6    -0.334701716712E+03   -0.61815E-02   -0.61832E-02 11088   0.136E-01 0.429E-05
CGA:   7    -0.334703951149E+03   -0.22344E-02   -0.21543E-02 11088   0.486E-02 0.214E-02
CGA:   8    -0.334704500316E+03   -0.54917E-03   -0.56378E-03 11088   0.330E-02 0.639E-03
CGA:   9    -0.334705087052E+03   -0.58674E-03   -0.62027E-03 11088   0.217E-02-0.754E-03
CGA:  10    -0.334705204706E+03   -0.11765E-03   -0.12839E-03 11088   0.928E-03 0.228E-03
CGA:  11    -0.334705328847E+03   -0.12414E-03   -0.12434E-03 11088   0.551E-03 0.409E-03
CGA:  12    -0.334705393338E+03   -0.64491E-04   -0.69800E-04 11088   0.340E-03 0.157E-03
CGA:  13    -0.334705418371E+03   -0.25033E-04   -0.34032E-04 11088   0.127E-03 0.213E-03
CGA:  14    -0.334705443222E+03   -0.24851E-04   -0.28061E-04 11088   0.336E-03-0.314E-04
CGA:  15    -0.334705474255E+03   -0.31034E-04   -0.30955E-04 11088   0.148E-03-0.130E-03
CGA:  16    -0.334705470269E+03    0.39864E-05   -0.25871E-05 11088   0.116E-03 0.695E-04
  44 F= -.33470547E+03 E0= -.33469706E+03  d E =-.578678E-02  mag=     9.9958
       N       E                     dE             d eps       ncg     rms          ort
SDA:   1    -0.334502336035E+03    0.20314E+00    0.00000E+00 11088   0.545E+00 0.000E+00
CGA:   2    -0.334606794537E+03   -0.10446E+00   -0.10428E+00 11088   0.534E+00 0.123E-02
CGA:   3    -0.334654655987E+03   -0.47861E-01   -0.47213E-01 11088   0.254E+00-0.119E-02
CGA:   4    -0.334686107355E+03   -0.31451E-01   -0.31459E-01 11088   0.551E-01-0.186E-02
CGA:   5    -0.334693609398E+03   -0.75020E-02   -0.74682E-02 11088   0.221E-01 0.166E-02
CGA:   6    -0.334695651008E+03   -0.20416E-02   -0.20265E-02 11088   0.945E-02-0.708E-03
CGA:   7    -0.334696909805E+03   -0.12588E-02   -0.12603E-02 11088   0.368E-02-0.665E-04
CGA:   8    -0.334697356524E+03   -0.44672E-03   -0.44839E-03 11088   0.304E-02-0.323E-03
CGA:   9    -0.334697587342E+03   -0.23082E-03   -0.24318E-03 11088   0.688E-03 0.418E-03
CGA:  10    -0.334697695932E+03   -0.10859E-03   -0.10400E-03 11088   0.456E-03 0.270E-03
CGA:  11    -0.334697779074E+03   -0.83143E-04   -0.85259E-04 11088   0.652E-03-0.122E-03
CGA:  12    -0.334697815360E+03   -0.36286E-04   -0.36708E-04 11088   0.336E-03 0.103E-04
CGA:  13    -0.334697829408E+03   -0.14048E-04   -0.16434E-04 11088   0.176E-03 0.353E-04
CGA:  14    -0.334697857246E+03   -0.27838E-04   -0.30447E-04 11088   0.318E-03-0.594E-04
CGA:  15    -0.334697872361E+03   -0.15115E-04   -0.10418E-04 11088   0.152E-03-0.725E-04
CGA:  16    -0.334697877629E+03   -0.52673E-05   -0.48280E-05 11088   0.953E-04-0.660E-05
  45 F= -.33469788E+03 E0= -.33468941E+03  d E =0.759264E-02  mag=     9.9950
       N       E                     dE             d eps       ncg     rms          ort
SDA:   1    -0.334599103671E+03    0.98769E-01    0.00000E+00 11088   0.276E+00 0.000E+00
CGA:   2    -0.334663306651E+03   -0.64203E-01   -0.63921E-01 11088   0.254E+00 0.196E-02
CGA:   3    -0.334687520738E+03   -0.24214E-01   -0.24224E-01 11088   0.110E+00 0.884E-03
CGA:   4    -0.334699818546E+03   -0.12298E-01   -0.12296E-01 11088   0.248E-01 0.853E-03
CGA:   5    -0.334703579369E+03   -0.37608E-02   -0.38351E-02 11088   0.155E-01-0.171E-02
CGA:   6    -0.334704526148E+03   -0.94678E-03   -0.96957E-03 11088   0.383E-02 0.562E-03
CGA:   7    -0.334705125056E+03   -0.59891E-03   -0.58457E-03 11088   0.177E-02 0.380E-03
CGA:   8    -0.334705354357E+03   -0.22930E-03   -0.23060E-03 11088   0.163E-02-0.195E-03
CGA:   9    -0.334705522466E+03   -0.16811E-03   -0.16882E-03 11088   0.658E-03-0.173E-03
CGA:  10    -0.334705601915E+03   -0.79449E-04   -0.10537E-03 11088   0.155E-02-0.389E-03
CGA:  11    -0.334705659264E+03   -0.57349E-04   -0.70527E-04 11088   0.158E-03 0.187E-03
CGA:  12    -0.334705671501E+03   -0.12238E-04   -0.14762E-04 11088   0.120E-03 0.882E-04
CGA:  13    -0.334705685979E+03   -0.14478E-04   -0.14676E-04 11088   0.157E-03-0.168E-04
CGA:  14    -0.334705700184E+03   -0.14205E-04   -0.14413E-04 11088   0.515E-04 0.499E-04
CGA:  15    -0.334705703888E+03   -0.37046E-05   -0.40149E-05 11088   0.186E-04 0.597E-05
  46 F= -.33470570E+03 E0= -.33469728E+03  d E =-.782626E-02  mag=     9.9959
