       N       E                     dE             d eps       ncg     rms          rms(c)
DAV:   1     0.257777112507E+04    0.25778E+04   -0.14960E+05 28224   0.152E+03
DAV:   2    -0.152268470449E+03   -0.27300E+04   -0.25550E+04 28472   0.434E+02
DAV:   3    -0.425238559318E+03   -0.27297E+03   -0.26861E+03 31544   0.155E+02
DAV:   4    -0.434636802333E+03   -0.93982E+01   -0.92947E+01 34968   0.296E+01
DAV:   5    -0.435276748085E+03   -0.63995E+00   -0.63853E+00 44032   0.558E+00    0.889E+00
DAV:   6    -0.354655194275E+03    0.80622E+02   -0.20980E+01 30472   0.198E+01    0.106E+01
DAV:   7    -0.351668679097E+03    0.29865E+01   -0.25303E+00 33464   0.895E+00    0.364E+00
DAV:   8    -0.351671317528E+03   -0.26384E-02   -0.22945E-01 34728   0.192E+00    0.216E+00
DAV:   9    -0.351616778421E+03    0.54539E-01   -0.20814E-01 29968   0.134E+00    0.793E-01
DAV:  10    -0.351615264851E+03    0.15136E-02   -0.14286E-02 31120   0.714E-01    0.291E-01
DAV:  11    -0.351615308265E+03   -0.43414E-04   -0.95616E-04 38472   0.132E-01    0.188E-01
DAV:  12    -0.351614645332E+03    0.66293E-03   -0.42699E-04 31576   0.838E-02    0.131E-01
DAV:  13    -0.351614243018E+03    0.40231E-03   -0.59832E-05 30208   0.380E-02    0.495E-02
DAV:  14    -0.351614031196E+03    0.21182E-03   -0.12555E-04 30464   0.466E-02    0.196E-02
DAV:  15    -0.351614042803E+03   -0.11608E-04   -0.12188E-05 17168   0.227E-02    0.106E-02
DAV:  16    -0.351614002287E+03    0.40516E-04   -0.38059E-06 15896   0.120E-02    0.552E-03
DAV:  17    -0.351614022060E+03   -0.19773E-04   -0.13515E-06 15592   0.505E-03    0.339E-03
DAV:  18    -0.351614022713E+03   -0.65249E-06   -0.52538E-07 15504   0.480E-03
   1 F= -.35161402E+03 E0= -.35161402E+03  d E =-.351614E+03  mag=     4.0000
