       N       E                     dE             d eps       ncg     rms          ort
DAV:   1     0.256108078392E+04    0.25611E+04   -0.13518E+05  9576   0.166E+03
DAV:   2    -0.110026801041E+02   -0.25721E+04   -0.23612E+04  9576   0.439E+02
DAV:   3    -0.305144122918E+03   -0.29414E+03   -0.28884E+03  9576   0.163E+02
DAV:   4    -0.314244932472E+03   -0.91008E+01   -0.90156E+01  9576   0.289E+01
DAV:   5    -0.314636596086E+03   -0.39166E+00   -0.39103E+00  9576   0.466E+00
SDA:   6    -0.990922270690E+02    0.21554E+03   -0.39103E+00  9576   0.956E+03 0.000E+00
CGA:   7    -0.228592975008E+03   -0.12950E+03   -0.12978E+03  9576   0.102E+03 0.187E+02
CGA:   8    -0.248838413689E+03   -0.20245E+02   -0.20224E+02  9576   0.394E+02-0.449E+01
CGA:   9    -0.256346013341E+03   -0.75076E+01   -0.75079E+01  9576   0.187E+02-0.319E-01
CGA:  10    -0.259760524518E+03   -0.34145E+01   -0.34163E+01  9576   0.614E+01 0.582E-01
CGA:  11    -0.260947093004E+03   -0.11866E+01   -0.11866E+01  9576   0.182E+01 0.406E-02
CGA:  12    -0.261333482105E+03   -0.38639E+00   -0.38643E+00  9576   0.730E+00-0.792E-03
CGA:  13    -0.261503480708E+03   -0.17000E+00   -0.16998E+00  9576   0.327E+00 0.331E-03
CGA:  14    -0.261589506858E+03   -0.86026E-01   -0.86084E-01  9576   0.152E+00-0.755E-03
CGA:  15    -0.261631860541E+03   -0.42354E-01   -0.42441E-01  9576   0.806E-01-0.936E-03
CGA:  16    -0.261653256225E+03   -0.21396E-01   -0.21394E-01  9576   0.370E-01-0.353E-05
CGA:  17    -0.261664356037E+03   -0.11100E-01   -0.11130E-01  9576   0.172E-01-0.263E-03
CGA:  18    -0.261669266367E+03   -0.49103E-02   -0.49177E-02  9576   0.710E-02-0.752E-04
CGA:  19    -0.261671289802E+03   -0.20234E-02   -0.20238E-02  9576   0.305E-02-0.529E-05
CGA:  20    -0.261672148762E+03   -0.85896E-03   -0.85976E-03  9576   0.111E-02-0.115E-04
CGA:  21    -0.261672495906E+03   -0.34714E-03   -0.34729E-03  9576   0.475E-03-0.153E-05
CGA:  22    -0.261672641870E+03   -0.14596E-03   -0.14580E-03  9576   0.210E-03 0.216E-05
CGA:  23    -0.261672703528E+03   -0.61659E-04   -0.61507E-04  9576   0.987E-04 0.257E-05
CGA:  24    -0.261672734984E+03   -0.31456E-04   -0.31346E-04  9576   0.441E-04 0.142E-05
CGA:  25    -0.261672751572E+03   -0.16588E-04   -0.16627E-04  9576   0.233E-04-0.293E-06
CGA:  26    -0.261672760130E+03   -0.85581E-05   -0.86469E-05  9576   0.121E-04-0.693E-06
   1 F= -.26167276E+03 E0= -.26167276E+03  d E =-.261673E+03  mag=    12.0000
