 vasp.6.1.2 22Jul20 (build Apr 14 2021 21:39:43) complex                        
  
 executed on             LinuxIFC date 2022.06.29  23:31:07
 running on  128 total cores
 distrk:  each k-point on  128 cores,    1 groups
 distr:  one band on NCORE=  16 cores,    8 groups


--------------------------------------------------------------------------------------------------------


 INCAR:
 POTCAR:    PAW_PBE Ca_sv 06Sep2000               
 POTCAR:    PAW_PBE Mn_pv 02Aug2007               
 POTCAR:    PAW_PBE P 06Sep2000                   
 POTCAR:    PAW_PBE O 08Apr2002                   
 POTCAR:    PAW_PBE Ca_sv 06Sep2000               
   SHA256 =  a47365830e737f14e0e6c5cf1ed81b94e081eecf0a33df105380881bc9da05d5 Ca_sv/POTCAR          
   COPYR  = (c) Copyright 06Sep2000 Georg Kresse                                                    
   COPYR  = This file is part of the software VASP. Any use, copying, and all other rights are regul
   COPYR  = If you do not have a valid VASP license, you may not use, copy or distribute this file. 
   VRHFIN =Ca: 3s3p4s                                                                               
   LEXCH  = PE                                                                                      
   EATOM  =  1006.0909 eV,   73.9456 Ry                                                             
                                                                                                    
   TITEL  = PAW_PBE Ca_sv 06Sep2000                                                                 
   LULTRA =        F    use ultrasoft PP ?                                                          
   IUNSCR =        1    unscreen: 0-lin 1-nonlin 2-no                                               
   RPACOR =    2.000    partial core radius                                                         
   POMASS =   40.078; ZVAL   =   10.000    mass and valenz                                          
   RCORE  =    2.300    outmost cutoff radius                                                       
   RWIGS  =    2.500; RWIGS  =    1.323    wigner-seitz radius (au A)                               
   ENMAX  =  266.622; ENMIN  =  199.967 eV                                                          
   RCLOC  =    1.808    cutoff for local pot                                                        
   LCOR   =        T    correct aug charges                                                         
   LPAW   =        T    paw PP                                                                      
   EAUG   =  420.852                                                                                
   RMAX   =    2.359    core radius for proj-oper                                                   
   RAUG   =    1.300    factor for augmentation sphere                                              
   RDEP   =    2.392    radius for radial grids                                                     
   RDEPT  =    1.987    core radius for aug-charge                                                  
                                                                                                    
   Atomic configuration                                                                             
    7 entries                                                                                       
     n  l   j            E        occ.                                                              
     1  0  0.50     -3949.1705   2.0000                                                             
     2  0  0.50      -414.3434   2.0000                                                             
     2  1  1.50      -334.7047   6.0000                                                             
     3  0  0.50       -47.0896   2.0000                                                             
     4  0  0.50        -3.7663   2.0000                                                             
     3  1  1.50       -28.0061   6.0000                                                             
     3  2  1.50        -4.0817   0.0000                                                             
   Description                                                                                      
     l       E           TYP  RCUT    TYP  RCUT                                                     
     0    -47.0896403     23  2.300                                                                 
     0     -3.7663320     23  2.300                                                                 
     1    -28.0060855     23  2.300                                                                 
     1      6.8029130     23  2.300                                                                 
     2     -4.0817478     23  2.300                                                                 
     2      0.4464412     23  2.300                                                                 
  local pseudopotential read in
  partial core-charges read in
  partial kinetic energy density read in
  atomic valenz-charges read in
  non local Contribution for L=           0  read in
    real space projection operators read in
  non local Contribution for L=           0  read in
    real space projection operators read in
  non local Contribution for L=           1  read in
    real space projection operators read in
  non local Contribution for L=           1  read in
    real space projection operators read in
  non local Contribution for L=           2  read in
    real space projection operators read in
  non local Contribution for L=           2  read in
    real space projection operators read in
    PAW grid and wavefunctions read in
 
   number of l-projection  operators is LMAX  =           6
   number of lm-projection operators is LMMAX =          18
 
 POTCAR:    PAW_PBE Mn_pv 02Aug2007               
   SHA256 =  c79df11ab18a0e3347296df6ded47bb5f18b2e4fbd621d0b5280d2eae24c30a0 Mn_pv/POTCAR          
   COPYR  = (c) Copyright 02Aug2007 Georg Kresse                                                    
   COPYR  = This file is part of the software VASP. Any use, copying, and all other rights are regul
   COPYR  = If you do not have a valid VASP license, you may not use, copy or distribute this file. 
   VRHFIN =Mn: 3p4s3d                                                                               
   LEXCH  = PE                                                                                      
   EATOM  =  2025.2664 eV,  148.8529 Ry                                                             
                                                                                                    
   TITEL  = PAW_PBE Mn_pv 02Aug2007                                                                 
   LULTRA =        F    use ultrasoft PP ?                                                          
   IUNSCR =        1    unscreen: 0-lin 1-nonlin 2-no                                               
   RPACOR =    2.080    partial core radius                                                         
   POMASS =   54.938; ZVAL   =   13.000    mass and valenz                                          
   RCORE  =    2.300    outmost cutoff radius                                                       
   RWIGS  =    2.500; RWIGS  =    1.323    wigner-seitz radius (au A)                               
   ENMAX  =  269.864; ENMIN  =  202.398 eV                                                          
   ICORE  =        3    local potential                                                             
   LCOR   =        T    correct aug charges                                                         
   LPAW   =        T    paw PP                                                                      
   EAUG   =  569.085                                                                                
   DEXC   =    0.000                                                                                
   RMAX   =    2.343    core radius for proj-oper                                                   
   RAUG   =    1.300    factor for augmentation sphere                                              
   RDEP   =    2.338    radius for radial grids                                                     
   RDEPT  =    1.798    core radius for aug-charge                                                  
                                                                                                    
   Atomic configuration                                                                             
    8 entries                                                                                       
     n  l   j            E        occ.                                                              
     1  0  0.50     -6424.8287   2.0000                                                             
     2  0  0.50      -739.1154   2.0000                                                             
     2  1  1.50      -625.3949   6.0000                                                             
     3  0  0.50       -81.6100   2.0000                                                             
     3  1  1.50       -50.4667   6.0000                                                             
     3  2  2.50        -3.3745   6.0000                                                             
     4  0  0.50        -4.1331   1.0000                                                             
     4  3  2.50        -1.3606   0.0000                                                             
   Description                                                                                      
     l       E           TYP  RCUT    TYP  RCUT                                                     
     1    -50.4666628     23  2.000                                                                 
     1     -1.3605826     23  2.000                                                                 
     2     -3.3744729     23  2.300                                                                 
     2     -4.7350555     23  2.300                                                                 
     0     -4.1331431     23  2.300                                                                 
     0      7.6656591     23  2.300                                                                 
     3      9.5240782     23  2.300                                                                 
  local pseudopotential read in
  partial core-charges read in
  partial kinetic energy density read in
  atomic valenz-charges read in
  non local Contribution for L=           1  read in
    real space projection operators read in
  non local Contribution for L=           1  read in
    real space projection operators read in
  non local Contribution for L=           2  read in
    real space projection operators read in
  non local Contribution for L=           2  read in
    real space projection operators read in
  non local Contribution for L=           0  read in
    real space projection operators read in
  non local Contribution for L=           0  read in
    real space projection operators read in
    PAW grid and wavefunctions read in
 
   number of l-projection  operators is LMAX  =           6
   number of lm-projection operators is LMMAX =          18
 
 POTCAR:    PAW_PBE P 06Sep2000                   
   SHA256 =  df60c54a93efe35c9e85ae94c010c75e9f6960a95d5595d7cdba4096d109af88 P/POTCAR              
   COPYR  = (c) Copyright 06Sep2000 Georg Kresse                                                    
   COPYR  = This file is part of the software VASP. Any use, copying, and all other rights are regul
   COPYR  = If you do not have a valid VASP license, you may not use, copy or distribute this file. 
   VRHFIN =P : s2p3                                                                                 
   LEXCH  = PE                                                                                      
   EATOM  =   176.0430 eV,   12.9388 Ry                                                             
                                                                                                    
   TITEL  = PAW_PBE P 06Sep2000                                                                     
   LULTRA =        F    use ultrasoft PP ?                                                          
   IUNSCR =        1    unscreen: 0-lin 1-nonlin 2-no                                               
   RPACOR =    1.500    partial core radius                                                         
   POMASS =   30.974; ZVAL   =    5.000    mass and valenz                                          
   RCORE  =    1.900    outmost cutoff radius                                                       
   RWIGS  =    2.330; RWIGS  =    1.233    wigner-seitz radius (au A)                               
   ENMAX  =  255.040; ENMIN  =  191.280 eV                                                          
   ICORE  =        2    local potential                                                             
   LCOR   =        T    correct aug charges                                                         
   LPAW   =        T    paw PP                                                                      
   EAUG   =  342.924                                                                                
   DEXC   =    0.000                                                                                
   RMAX   =    1.935    core radius for proj-oper                                                   
   RAUG   =    1.300    factor for augmentation sphere                                              
   RDEP   =    1.931    radius for radial grids                                                     
   RDEPT  =    1.794    core radius for aug-charge                                                  
                                                                                                    
   Atomic configuration                                                                             
    6 entries                                                                                       
     n  l   j            E        occ.                                                              
     1  0  0.50     -2084.0982   2.0000                                                             
     2  0  0.50      -173.9859   2.0000                                                             
     2  1  1.50      -124.4865   6.0000                                                             
     3  0  0.50       -13.9692   2.0000                                                             
     3  1  0.50        -5.5067   3.0000                                                             
     3  2  1.50        -5.4423   0.0000                                                             
   Description                                                                                      
     l       E           TYP  RCUT    TYP  RCUT                                                     
     0    -13.9691527     23  1.900                                                                 
     0    -11.7794650     23  1.900                                                                 
     1     -5.5066937     23  1.900                                                                 
     1     -0.2556953     23  1.900                                                                 
     2     -5.4423304     23  1.900                                                                 
  local pseudopotential read in
  partial core-charges read in
  partial kinetic energy density read in
  atomic valenz-charges read in
  non local Contribution for L=           0  read in
    real space projection operators read in
  non local Contribution for L=           0  read in
    real space projection operators read in
  non local Contribution for L=           1  read in
    real space projection operators read in
  non local Contribution for L=           1  read in
    real space projection operators read in
    PAW grid and wavefunctions read in
 
   number of l-projection  operators is LMAX  =           4
   number of lm-projection operators is LMMAX =           8
 
 POTCAR:    PAW_PBE O 08Apr2002                   
   SHA256 =  818f92134a0a090dccd8ba1447fa70422a3b330e708bb4f08108d8ae51209ddf O/POTCAR              
   COPYR  = (c) Copyright 08Apr2002 Georg Kresse                                                    
   COPYR  = This file is part of the software VASP. Any use, copying, and all other rights are regul
   COPYR  = If you do not have a valid VASP license, you may not use, copy or distribute this file. 
   VRHFIN =O: s2p4                                                                                  
   LEXCH  = PE                                                                                      
   EATOM  =   432.3788 eV,   31.7789 Ry                                                             
                                                                                                    
   TITEL  = PAW_PBE O 08Apr2002                                                                     
   LULTRA =        F    use ultrasoft PP ?                                                          
   IUNSCR =        1    unscreen: 0-lin 1-nonlin 2-no                                               
   RPACOR =    1.200    partial core radius                                                         
   POMASS =   16.000; ZVAL   =    6.000    mass and valenz                                          
   RCORE  =    1.520    outmost cutoff radius                                                       
   RWIGS  =    1.550; RWIGS  =    0.820    wigner-seitz radius (au A)                               
   ENMAX  =  400.000; ENMIN  =  300.000 eV                                                          
   ICORE  =        2    local potential                                                             
   LCOR   =        T    correct aug charges                                                         
   LPAW   =        T    paw PP                                                                      
   EAUG   =  605.392                                                                                
   DEXC   =    0.000                                                                                
   RMAX   =    1.553    core radius for proj-oper                                                   
   RAUG   =    1.300    factor for augmentation sphere                                              
   RDEP   =    1.550    radius for radial grids                                                     
   RDEPT  =    1.329    core radius for aug-charge                                                  
                                                                                                    
   Atomic configuration                                                                             
    4 entries                                                                                       
     n  l   j            E        occ.                                                              
     1  0  0.50      -514.6923   2.0000                                                             
     2  0  0.50       -23.9615   2.0000                                                             
     2  1  0.50        -9.0305   4.0000                                                             
     3  2  1.50        -9.5241   0.0000                                                             
   Description                                                                                      
     l       E           TYP  RCUT    TYP  RCUT                                                     
     0    -23.9615318     23  1.200                                                                 
     0     -9.5240782     23  1.200                                                                 
     1     -9.0304911     23  1.520                                                                 
     1      8.1634956     23  1.520                                                                 
     2     -9.5240782      7  1.500                                                                 
  local pseudopotential read in
  partial core-charges read in
  partial kinetic energy density read in
  kinetic energy density of atom read in
  atomic valenz-charges read in
  non local Contribution for L=           0  read in
    real space projection operators read in
  non local Contribution for L=           0  read in
    real space projection operators read in
  non local Contribution for L=           1  read in
    real space projection operators read in
  non local Contribution for L=           1  read in
    real space projection operators read in
    PAW grid and wavefunctions read in
 
   number of l-projection  operators is LMAX  =           4
   number of lm-projection operators is LMMAX =           8
 
 Optimization of the real space projectors (new method)

 maximal supplied QI-value         = 16.25
 optimisation between [QCUT,QGAM] = [ 11.54, 23.24] = [ 37.28,151.24] Ry 
 Optimized for a Real-space Cutoff    1.58 Angstroem

   l    n(q)    QCUT    max X(q) W(low)/X(q) W(high)/X(q)  e(spline) 
   0     11    11.539    11.817    0.25E-04    0.22E-05    0.26E-07
   0     11    11.539     8.461    0.39E-04    0.49E-05    0.55E-07
   1     11    11.539     3.957    0.21E-05    0.44E-05    0.32E-07
   1     11    11.539     4.314    0.56E-04    0.44E-04    0.19E-06
   2     10    11.539    14.565    0.25E-03    0.21E-04    0.75E-06
   2     10    11.539    14.552    0.23E-03    0.22E-04    0.72E-06
 Optimization of the real space projectors (new method)

 maximal supplied QI-value         = 16.25
 optimisation between [QCUT,QGAM] = [ 11.54, 23.24] = [ 37.28,151.24] Ry 
 Optimized for a Real-space Cutoff    1.45 Angstroem

   l    n(q)    QCUT    max X(q) W(low)/X(q) W(high)/X(q)  e(spline) 
   1     10    11.539     3.658    0.56E-04    0.12E-03    0.13E-06
   1     10    11.539     5.612    0.11E-03    0.23E-03    0.24E-06
   2      9    11.539    55.373    0.45E-04    0.92E-04    0.22E-06
   2      9    11.539    50.863    0.47E-04    0.95E-04    0.22E-06
   0     10    11.539    79.536    0.46E-04    0.27E-04    0.11E-06
   0     10    11.539    38.668    0.38E-04    0.25E-04    0.10E-06
 Optimization of the real space projectors (new method)

 maximal supplied QI-value         = 19.84
 optimisation between [QCUT,QGAM] = [ 11.51, 23.22] = [ 37.09,150.92] Ry 
 Optimized for a Real-space Cutoff    1.21 Angstroem

   l    n(q)    QCUT    max X(q) W(low)/X(q) W(high)/X(q)  e(spline) 
   0      8    11.508   160.924    0.96E-04    0.17E-03    0.52E-07
   0      8    11.508   130.086    0.95E-04    0.17E-03    0.51E-07
   1      8    11.508    74.434    0.16E-03    0.74E-04    0.91E-07
   1      8    11.508    49.120    0.16E-03    0.71E-04    0.89E-07
 Optimization of the real space projectors (new method)

 maximal supplied QI-value         = 24.76
 optimisation between [QCUT,QGAM] = [ 11.64, 23.27] = [ 37.91,151.63] Ry 
 Optimized for a Real-space Cutoff    1.14 Angstroem

   l    n(q)    QCUT    max X(q) W(low)/X(q) W(high)/X(q)  e(spline) 
   0      8    11.635    20.381    0.10E-03    0.33E-03    0.24E-06
   0      8    11.635    15.268    0.11E-03    0.35E-03    0.26E-06
   1      7    11.635     5.964    0.24E-03    0.31E-03    0.30E-06
   1      7    11.635     5.382    0.22E-03    0.25E-03    0.26E-06
  PAW_PBE Ca_sv 06Sep2000               :
 energy of atom  1       EATOM=-1006.0909
 kinetic energy error for atom=    0.0022 (will be added to EATOM!!)
  PAW_PBE Mn_pv 02Aug2007               :
 energy of atom  2       EATOM=-2025.2664
 kinetic energy error for atom=    0.0058 (will be added to EATOM!!)
  PAW_PBE P 06Sep2000                   :
 energy of atom  3       EATOM= -176.0430
 kinetic energy error for atom=    0.0011 (will be added to EATOM!!)
  PAW_PBE O 08Apr2002                   :
 energy of atom  4       EATOM= -432.3788
 kinetic energy error for atom=    0.0208 (will be added to EATOM!!)
 
 
 POSCAR: Ca1 Mn4 P6 O24
  positions in direct lattice
  velocities in cartesian coordinates
 exchange correlation table for  LEXCH =        8
   RHO(1)=    0.500       N(1)  =     2000
   RHO(2)=  100.500       N(2)  =     4000
 


--------------------------------------------------------------------------------------------------------


 ion  position               nearest neighbor table
   1  0.497  0.498  0.497-  21 2.42  23 2.42  19 2.42  16 2.42  12 2.42  14 2.42
   2  0.643  0.643  0.643-  25 1.85  27 1.85  29 1.85  16 1.96  14 1.96  12 1.96
   3  0.145  0.145  0.145-  24 1.90  28 1.90  26 1.90  15 1.91  17 1.91  13 1.91
   4  0.850  0.850  0.850-  33 1.90  35 1.90  31 1.90  18 1.91  22 1.91  20 1.91
   5  0.352  0.352  0.352-  34 1.85  32 1.85  30 1.85  21 1.96  19 1.96  23 1.96
   6  0.245  0.529  0.965-  22 1.53  30 1.54  24 1.56  14 1.56
   7  0.031  0.750  0.466-  17 1.53  25 1.54  31 1.56  21 1.56
   8  0.964  0.245  0.529-  18 1.53  32 1.54  26 1.56  16 1.56
   9  0.466  0.031  0.750-  13 1.53  27 1.54  33 1.56  23 1.56
  10  0.529  0.964  0.245-  20 1.53  34 1.54  28 1.56  12 1.56
  11  0.750  0.466  0.030-  15 1.53  29 1.54  35 1.56  19 1.56
  12  0.608  0.753  0.393-  10 1.56   2 1.96   1 2.42
  13  0.316  0.008  0.963-   9 1.53   3 1.91
  14  0.393  0.608  0.753-   6 1.56   2 1.96   1 2.42
  15  0.963  0.316  0.007-  11 1.53   3 1.91
  16  0.753  0.393  0.608-   8 1.56   2 1.96   1 2.42
  17  0.008  0.963  0.315-   7 1.53   3 1.91
  18  0.987  0.032  0.679-   8 1.53   4 1.91
  19  0.602  0.387  0.242-  11 1.56   5 1.96   1 2.42
  20  0.679  0.987  0.032-  10 1.53   4 1.91
  21  0.242  0.602  0.387-   7 1.56   5 1.96   1 2.42
  22  0.032  0.679  0.988-   6 1.53   4 1.91
  23  0.387  0.242  0.602-   9 1.56   5 1.96   1 2.42
  24  0.281  0.327  0.975-   6 1.56   3 1.90
  25  0.875  0.696  0.490-   7 1.54   2 1.85
  26  0.974  0.281  0.328-   8 1.56   3 1.90
  27  0.490  0.875  0.696-   9 1.54   2 1.85
  28  0.327  0.974  0.281-  10 1.56   3 1.90
  29  0.696  0.490  0.875-  11 1.54   2 1.85
  30  0.299  0.505  0.120-   6 1.54   5 1.85
  31  0.020  0.714  0.667-   7 1.56   4 1.90
  32  0.120  0.299  0.505-   8 1.54   5 1.85
  33  0.668  0.020  0.714-   9 1.56   4 1.90
  34  0.505  0.120  0.299-  10 1.54   5 1.85
  35  0.714  0.668  0.020-  11 1.56   4 1.90
 

IMPORTANT INFORMATION: All symmetrisations will be switched off!
NOSYMM: (Re-)initialisation of all symmetry stuff for point group C_1.


----------------------------------------------------------------------------------------

                                     Primitive cell                                     

  volume of cell :     421.9036

  direct lattice vectors                    reciprocal lattice vectors
     2.725865831  6.909800136  4.547766308    -0.002636053  0.148676504 -0.004428416
     0.457010450  0.267073251  8.694488857    -0.070899592 -0.051217610  0.120315377
     7.451348048  0.266276292  4.504291809     0.139516685 -0.051247803 -0.005759242

  length of vectors
     8.709641832  8.710586844  8.711035271     0.148765798  0.148747389  0.148742770

  position of ions in fractional coordinates (direct lattice)
     0.497460984  0.497550954  0.497480818
     0.642891831  0.642833560  0.643012195
     0.145164304  0.145156844  0.145251919
     0.849845251  0.849870191  0.849745016
     0.352122904  0.352181157  0.352002672
     0.245049918  0.529114945  0.964598277
     0.030533600  0.749990104  0.465765391
     0.964430194  0.245078176  0.529171232
     0.465969474  0.030518253  0.749872798
     0.529001203  0.964449522  0.245170332
     0.749994130  0.465838444  0.030389881
     0.608067284  0.752645601  0.393026943
     0.315829977  0.007684781  0.963273868
     0.392833127  0.608131549  0.752688525
     0.963495398  0.315817083  0.007431037
     0.752539106  0.392901742  0.608193384
     0.007503173  0.963349827  0.315405003
     0.987450293  0.031709237  0.679478396
     0.602144143  0.386978587  0.242320387
     0.679150777  0.987294903  0.031776540
     0.242454194  0.602068451  0.386964776
     0.031566149  0.679116451  0.987514162
     0.387092676  0.242343982  0.601940859
     0.281280159  0.327341968  0.975032089
     0.875358955  0.695897325  0.490293105
     0.974407073  0.280993852  0.327734311
     0.490176575  0.875195833  0.696236659
     0.327387343  0.974444106  0.281383253
     0.696139526  0.489761806  0.875376668
     0.298652733  0.505181011  0.119792810
     0.020374242  0.714225675  0.667217834
     0.119803107  0.298903561  0.504626634
     0.667654278  0.020294132  0.713739488
     0.504670089  0.119927944  0.298675122
     0.713905826  0.667608443  0.019817614

  ion indices of the primitive-cell ions
   primitive index   ion index
                 1           1
                 2           2
                 3           3
                 4           4
                 5           5
                 6           6
                 7           7
                 8           8
                 9           9
                10          10
                11          11
                12          12
                13          13
                14          14
                15          15
                16          16
                17          17
                18          18
                19          19
                20          20
                21          21
                22          22
                23          23
                24          24
                25          25
                26          26
                27          27
                28          28
                29          29
                30          30
                31          31
                32          32
                33          33
                34          34
                35          35

----------------------------------------------------------------------------------------

 
 
 KPOINTS: Fully automatic kpoint scheme           

Automatic generation of k-mesh.
 generate k-points for:    5    5    5
Space group operators:
 irot       det(A)        alpha          n_x          n_y          n_z        tau_x        tau_y        tau_z
    1     1.000000     0.000000     1.000000     0.000000     0.000000     0.000000     0.000000     0.000000
 
 Subroutine IBZKPT returns following result:
 ===========================================
 
 Found     63 irreducible k-points:
 
 Following reciprocal coordinates:
            Coordinates               Weight
  0.000000  0.000000  0.000000      1.000000
  0.200000 -0.000000  0.000000      2.000000
  0.400000  0.000000  0.000000      2.000000
 -0.000000  0.200000  0.000000      2.000000
  0.000000 -0.000000 -0.200000      2.000000
  0.200000  0.200000  0.000000      2.000000
 -0.200000  0.000000 -0.200000      2.000000
  0.400000  0.200000  0.000000      2.000000
 -0.400000 -0.000000 -0.200000      2.000000
 -0.400000  0.200000 -0.000000      2.000000
  0.400000 -0.000000 -0.200000      2.000000
 -0.200000  0.200000 -0.000000      2.000000
  0.200000 -0.000000 -0.200000      2.000000
 -0.000000  0.400000  0.000000      2.000000
  0.000000 -0.000000 -0.400000      2.000000
  0.200000  0.400000  0.000000      2.000000
 -0.200000  0.000000 -0.400000      2.000000
  0.400000  0.400000  0.000000      2.000000
 -0.400000 -0.000000 -0.400000      2.000000
 -0.400000  0.400000  0.000000      2.000000
  0.400000 -0.000000 -0.400000      2.000000
 -0.200000  0.400000  0.000000      2.000000
  0.200000 -0.000000 -0.400000      2.000000
 -0.000000  0.200000  0.200000      2.000000
  0.200000  0.200000  0.200000      2.000000
  0.400000  0.200000  0.200000      2.000000
 -0.400000  0.200000  0.200000      2.000000
 -0.200000  0.200000  0.200000      2.000000
 -0.000000  0.400000  0.200000      2.000000
  0.000000 -0.200000 -0.400000      2.000000
  0.200000  0.400000  0.200000      2.000000
 -0.200000 -0.200000 -0.400000      2.000000
  0.400000  0.400000  0.200000      2.000000
 -0.400000 -0.200000 -0.400000      2.000000
 -0.400000  0.400000  0.200000      2.000000
  0.400000 -0.200000 -0.400000      2.000000
 -0.200000  0.400000  0.200000      2.000000
  0.200000 -0.200000 -0.400000      2.000000
  0.000000 -0.400000  0.200000      2.000000
  0.000000 -0.200000  0.400000      2.000000
  0.200000 -0.400000  0.200000      2.000000
 -0.200000 -0.200000  0.400000      2.000000
  0.400000 -0.400000  0.200000      2.000000
 -0.400000 -0.200000  0.400000      2.000000
 -0.400000 -0.400000  0.200000      2.000000
  0.400000 -0.200000  0.400000      2.000000
 -0.200000 -0.400000  0.200000      2.000000
  0.200000 -0.200000  0.400000      2.000000
 -0.000000 -0.200000  0.200000      2.000000
  0.200000 -0.200000  0.200000      2.000000
 -0.200000 -0.200000  0.200000      2.000000
  0.400000 -0.200000  0.200000      2.000000
 -0.400000 -0.200000  0.200000      2.000000
 -0.000000  0.400000  0.400000      2.000000
  0.200000  0.400000  0.400000      2.000000
  0.400000  0.400000  0.400000      2.000000
 -0.400000  0.400000  0.400000      2.000000
 -0.200000  0.400000  0.400000      2.000000
  0.000000 -0.400000  0.400000      2.000000
  0.200000 -0.400000  0.400000      2.000000
 -0.200000 -0.400000  0.400000      2.000000
  0.400000 -0.400000  0.400000      2.000000
 -0.400000 -0.400000  0.400000      2.000000
 
 Following cartesian coordinates:
            Coordinates               Weight
  0.000000  0.000000  0.000000      1.000000
 -0.000527  0.029735 -0.000886      2.000000
 -0.001054  0.059471 -0.001771      2.000000
 -0.014180 -0.010244  0.024063      2.000000
 -0.027903  0.010250  0.001152      2.000000
 -0.014707  0.019492  0.023177      2.000000
 -0.027376 -0.019486  0.002038      2.000000
 -0.015234  0.049227  0.022292      2.000000
 -0.026849 -0.049221  0.002923      2.000000
 -0.013125 -0.069714  0.025834      2.000000
 -0.028958  0.069720 -0.000620      2.000000
 -0.013653 -0.039979  0.024949      2.000000
 -0.028431  0.039985  0.000266      2.000000
 -0.028360 -0.020487  0.048126      2.000000
 -0.055807  0.020499  0.002304      2.000000
 -0.028887  0.009248  0.047240      2.000000
 -0.055279 -0.009236  0.003189      2.000000
 -0.029414  0.038984  0.046355      2.000000
 -0.054752 -0.038971  0.004075      2.000000
 -0.027305 -0.079958  0.049898      2.000000
 -0.056861  0.079970  0.000532      2.000000
 -0.027833 -0.050222  0.049012      2.000000
 -0.056334  0.050234  0.001418      2.000000
  0.013723 -0.020493  0.022911      2.000000
  0.013196  0.009242  0.022026      2.000000
  0.012669  0.038978  0.021140      2.000000
  0.014778 -0.079964  0.024683      2.000000
  0.014251 -0.050228  0.023797      2.000000
 -0.000456 -0.030737  0.046974      2.000000
 -0.041627  0.030743 -0.021759      2.000000
 -0.000984 -0.001001  0.046089      2.000000
 -0.041100  0.001007 -0.020874      2.000000
 -0.001511  0.028734  0.045203      2.000000
 -0.040572 -0.028728 -0.019988      2.000000
  0.000598 -0.090207  0.048746      2.000000
 -0.042681  0.090213 -0.023531      2.000000
  0.000071 -0.060472  0.047860      2.000000
 -0.042154  0.060478 -0.022645      2.000000
  0.056263  0.010237 -0.049278      2.000000
  0.069987 -0.010256 -0.026367      2.000000
  0.055736  0.039973 -0.050164      2.000000
  0.070514 -0.039991 -0.025481      2.000000
  0.055209  0.069708 -0.051049      2.000000
  0.071041 -0.069726 -0.024595      2.000000
  0.057318 -0.049233 -0.047507      2.000000
  0.068932  0.049215 -0.028138      2.000000
  0.056790 -0.019498 -0.048392      2.000000
  0.069459  0.019480 -0.027252      2.000000
  0.042083 -0.000006 -0.025215      2.000000
  0.041556  0.029729 -0.026101      2.000000
  0.042610 -0.029741 -0.024329      2.000000
  0.041029  0.059465 -0.026986      2.000000
  0.043138 -0.059477 -0.023444      2.000000
  0.027447 -0.040986  0.045822      2.000000
  0.026920 -0.011251  0.044937      2.000000
  0.026392  0.018484  0.044051      2.000000
  0.028501 -0.100457  0.047594      2.000000
  0.027974 -0.070721  0.046708      2.000000
  0.084167 -0.000012 -0.050430      2.000000
  0.083639  0.029723 -0.051316      2.000000
  0.084694 -0.029747 -0.049544      2.000000
  0.083112  0.059459 -0.052201      2.000000
  0.085221 -0.059483 -0.048658      2.000000
 


--------------------------------------------------------------------------------------------------------




 Dimension of arrays:
   k-points           NKPTS =     63   k-points in BZ     NKDIM =     63   number of bands    NBANDS=    152
   number of dos      NEDOS =    301   number of ions     NIONS =     35
   non local maximal  LDIM  =      6   non local SUM 2l+1 LMDIM =     18
   total plane-waves  NPLWV = 343000
   max r-space proj   IRMAX =  13477   max aug-charges    IRDMAX=  38984
   dimension x,y,z NGX =    70 NGY =   70 NGZ =   70
   dimension x,y,z NGXF=   140 NGYF=  140 NGZF=  140
   support grid    NGXF=   140 NGYF=  140 NGZF=  140
   ions per type =               1   4   6  24
   NGX,Y,Z   is equivalent  to a cutoff of  13.36, 13.36, 13.36 a.u.
   NGXF,Y,Z  is equivalent  to a cutoff of  26.72, 26.72, 26.72 a.u.

 SYSTEM =  unknown system                          
 POSCAR =  Ca1 Mn4 P6 O24                          

 Startparameter for this run:
   NWRITE =      2    write-flag & timer
   PREC   = accura    normal or accurate (medium, high low for compatibility)
   ISTART =      0    job   : 0-new  1-cont  2-samecut
   ICHARG =      1    charge: 1-file 2-atom 10-const
   ISPIN  =      2    spin polarized calculation?
   LNONCOLLINEAR =      F non collinear calculations
   LSORBIT =      F    spin-orbit coupling
   INIWAV =      1    electr: 0-lowe 1-rand  2-diag
   LASPH  =      F    aspherical Exc in radial PAW
   METAGGA=      F    non-selfconsistent MetaGGA calc.

 Electronic Relaxation 1
   ENCUT  =  520.0 eV  38.22 Ry    6.18 a.u.  16.19 16.20 16.20*2*pi/ulx,y,z
   ENINI  =  520.0     initial cutoff
   ENAUG  =  605.4 eV  augmentation charge cutoff
   NELM   =    150;   NELMIN=  6; NELMDL= -5     # of ELM steps 
   EDIFF  = 0.1E-04   stopping-criterion for ELM
   LREAL  =      T    real-space projection
   NLSPLINE    = F    spline interpolate recip. space projectors
   LCOMPAT=      F    compatible to vasp.4.4
   GGA_COMPAT  = T    GGA compatible to vasp.4.4-vasp.4.6
   LMAXPAW     = -100 max onsite density
   LMAXMIX     =    2 max onsite mixed and CHGCAR
   VOSKOWN=      0    Vosko Wilk Nusair interpolation
   ROPT   =   -0.00025  -0.00025  -0.00025  -0.00025
 Ionic relaxation
   EDIFFG = -.3E-01   stopping-criterion for IOM
   NSW    =    199    number of steps for IOM
   NBLOCK =      1;   KBLOCK =    199    inner block; outer block 
   IBRION =      2    ionic relax: 0-MD 1-quasi-New 2-CG
   NFREE  =      1    steps in history (QN), initial steepest desc. (CG)
   ISIF   =      3    stress and relaxation
   IWAVPR =     11    prediction:  0-non 1-charg 2-wave 3-comb
   ISYM   =      0    0-nonsym 1-usesym 2-fastsym
   LCORR  =      T    Harris-Foulkes like correction to forces

   POTIM  = 0.5000    time-step for ionic-motion
   TEIN   =    0.0    initial temperature
   TEBEG  =    0.0;   TEEND  =   0.0 temperature during run
   SMASS  =  -3.00    Nose mass-parameter (am)
   estimated Nose-frequenzy (Omega)   =  0.10E-29 period in steps = 0.13E+47 mass=  -0.173E-26a.u.
   SCALEE = 1.0000    scale energy and forces
   NPACO  =    256;   APACO  = 16.0  distance and # of slots for P.C.
   PSTRESS=    0.0 pullay stress

  Mass of Ions in am
   POMASS =  40.08 54.94 30.97 16.00
  Ionic Valenz
   ZVAL   =  10.00 13.00  5.00  6.00
  Atomic Wigner-Seitz radii
   RWIGS  =  -1.00 -1.00 -1.00 -1.00
  virtual crystal weights 
   VCA    =   1.00  1.00  1.00  1.00
   NELECT =     236.0000    total number of electrons
   NUPDOWN=      -1.0000    fix difference up-down

 DOS related values:
   EMIN   =  10.00;   EMAX   =-10.00  energy-range for DOS
   EFERMI =   0.00
   ISMEAR =     0;   SIGMA  =   0.05  broadening in eV -4-tet -1-fermi 0-gaus

 Electronic relaxation 2 (details)
   IALGO  =     58    algorithm
   LDIAG  =      T    sub-space diagonalisation (order eigenvalues)
   LSUBROT=      F    optimize rotation matrix (better conditioning)
   TURBO    =      0    0=normal 1=particle mesh
   IRESTART =      0    0=no restart 2=restart with 2 vectors
   NREBOOT  =      0    no. of reboots
   NMIN     =      0    reboot dimension
   EREF     =   0.00    reference energy to select bands
   IMIX   =      4    mixing-type and parameters
     AMIX     =   0.40;   BMIX     =  1.00
     AMIX_MAG =   1.60;   BMIX_MAG =  1.00
     AMIN     =   0.10
     WC   =   100.;   INIMIX=   1;  MIXPRE=   1;  MAXMIX= -45

 Intra band minimization:
   WEIMIN = 0.0010     energy-eigenvalue tresh-hold
   EBREAK =  0.16E-07  absolut break condition
   DEPER  =   0.30     relativ break condition  

   TIME   =   0.40     timestep for ELM

  volume/ion in A,a.u.               =      12.05        81.35
  Fermi-wavevector in a.u.,A,eV,Ry     =   1.348883  2.549020 24.755617  1.819486
  Thomas-Fermi vector in A             =   2.476516
 
 Write flags
   LWAVE        =      F    write WAVECAR
   LDOWNSAMPLE  =      F    k-point downsampling of WAVECAR
   LCHARG       =      T    write CHGCAR
   LVTOT        =      F    write LOCPOT, total local potential
   LVHAR        =      F    write LOCPOT, Hartree potential only
   LELF         =      F    write electronic localiz. function (ELF)
   LORBIT       =     11    0 simple, 1 ext, 2 COOP (PROOUT), +10 PAW based schemes


 Dipole corrections
   LMONO  =      F    monopole corrections only (constant potential shift)
   LDIPOL =      F    correct potential (dipole corrections)
   IDIPOL =      0    1-x, 2-y, 3-z, 4-all directions 
   EPSILON=  1.0000000 bulk dielectric constant

 Exchange correlation treatment:
   GGA     =    --    GGA type
   LEXCH   =     8    internal setting for exchange type
   VOSKOWN=      0    Vosko Wilk Nusair interpolation
   LHFCALC =     F    Hartree Fock is set to
   LHFONE  =     F    Hartree Fock one center treatment
   AEXX    =    0.0000 exact exchange contribution

 Linear response parameters
   LEPSILON=     F    determine dielectric tensor
   LRPA    =     F    only Hartree local field effects (RPA)
   LNABLA  =     F    use nabla operator in PAW spheres
   LVEL    =     F    velocity operator in full k-point grid
   LINTERFAST=   F  fast interpolation
   KINTER  =     0    interpolate to denser k-point grid
   CSHIFT  =0.1000    complex shift for real part using Kramers Kronig
   OMEGAMAX=  -1.0    maximum frequency
   DEG_THRESHOLD= 0.2000000E-02 threshold for treating states as degnerate
   RTIME   =   -0.100 relaxation time in fs
  (WPLASMAI=    0.000 imaginary part of plasma frequency in eV, 0.658/RTIME)
   DFIELD  = 0.0000000 0.0000000 0.0000000 field for delta impulse in time
 
 Orbital magnetization related:
   ORBITALMAG=     F  switch on orbital magnetization
   LCHIMAG   =     F  perturbation theory with respect to B field
   DQ        =  0.001000  dq finite difference perturbation B field
   LLRAUG    =     F  two centre corrections for induced B field



--------------------------------------------------------------------------------------------------------


 conjugate gradient relaxation of ions
 charge density and potential will be updated during run
 spin polarized calculation
 Conjugate gradient for all bands (Freysoldt, et al. PRB 79, 241103 (2009))
 preconditioned conjugated gradient                                        
 perform sub-space diagonalisation
    before iterative eigenvector-optimisation
 modified Broyden-mixing scheme, WC =      100.0
 initial mixing is a Kerker type mixing with AMIX =  0.4000 and BMIX =      1.0000
 Hartree-type preconditioning will be used
 using additional bands           34
 real space projection scheme for non local part
 use partial core corrections
 no Harris-corrections to forces 
 use gradient corrections 
 use of overlap-Matrix (Vanderbilt PP)
 Gauss-broadening in eV      SIGMA  =   0.05


--------------------------------------------------------------------------------------------------------


  energy-cutoff  :      520.00
  volume of cell :      421.90
      direct lattice vectors                 reciprocal lattice vectors
     2.725865831  6.909800136  4.547766308    -0.002636053  0.148676504 -0.004428416
     0.457010450  0.267073251  8.694488857    -0.070899592 -0.051217610  0.120315377
     7.451348048  0.266276292  4.504291809     0.139516685 -0.051247803 -0.005759242

  length of vectors
     8.709641832  8.710586844  8.711035271     0.148765798  0.148747389  0.148742770


 
 k-points in units of 2pi/SCALE and weight: Fully automatic kpoint scheme           
   0.00000000  0.00000000  0.00000000       0.008
  -0.00052721  0.02973530 -0.00088568       0.016
  -0.00105442  0.05947060 -0.00177137       0.016
  -0.01417992 -0.01024352  0.02406308       0.016
  -0.02790334  0.01024956  0.00115185       0.016
  -0.01470713  0.01949178  0.02317739       0.016
  -0.02737613 -0.01948574  0.00203753       0.016
  -0.01523434  0.04922708  0.02229171       0.016
  -0.02684892 -0.04922104  0.00292321       0.016
  -0.01312550 -0.06971412  0.02583444       0.016
  -0.02895776  0.06972016 -0.00061952       0.016
  -0.01365271 -0.03997882  0.02494876       0.016
  -0.02843055  0.03998486  0.00026617       0.016
  -0.02835984 -0.02048704  0.04812615       0.016
  -0.05580667  0.02049912  0.00230370       0.016
  -0.02888705  0.00924826  0.04724047       0.016
  -0.05527946 -0.00923618  0.00318938       0.016
  -0.02941426  0.03898356  0.04635478       0.016
  -0.05475225 -0.03897148  0.00407506       0.016
  -0.02730542 -0.07995765  0.04989752       0.016
  -0.05686110  0.07996972  0.00053233       0.016
  -0.02783263 -0.05022234  0.04901183       0.016
  -0.05633388  0.05023442  0.00141801       0.016
   0.01372342 -0.02049308  0.02291123       0.016
   0.01319621  0.00924222  0.02202554       0.016
   0.01266900  0.03897752  0.02113986       0.016
   0.01477784 -0.07996368  0.02468259       0.016
   0.01425063 -0.05022838  0.02379691       0.016
  -0.00045650 -0.03073660  0.04697430       0.016
  -0.04162676  0.03074264 -0.02175938       0.016
  -0.00098371 -0.00100130  0.04608862       0.016
  -0.04109955  0.00100734 -0.02087370       0.016
  -0.00151092  0.02873400  0.04520294       0.016
  -0.04057233 -0.02872796 -0.01998801       0.016
   0.00059792 -0.09020721  0.04874567       0.016
  -0.04268118  0.09021324 -0.02353075       0.016
   0.00007071 -0.06047191  0.04785999       0.016
  -0.04215397  0.06047794 -0.02264506       0.016
   0.05626317  0.01023748 -0.04927800       0.016
   0.06998659 -0.01025560 -0.02636677       0.016
   0.05573596  0.03997278 -0.05016368       0.016
   0.07051380 -0.03999090 -0.02548109       0.016
   0.05520875  0.06970808 -0.05104937       0.016
   0.07104101 -0.06972620 -0.02459541       0.016
   0.05731760 -0.04923312 -0.04750663       0.016
   0.06893217  0.04921500 -0.02813814       0.016
   0.05679038 -0.01949782 -0.04839232       0.016
   0.06945938  0.01947970 -0.02725246       0.016
   0.04208326 -0.00000604 -0.02521492       0.016
   0.04155604  0.02972926 -0.02610061       0.016
   0.04261047 -0.02974134 -0.02432924       0.016
   0.04102883  0.05946456 -0.02698629       0.016
   0.04313768 -0.05947664 -0.02344356       0.016
   0.02744684 -0.04098617  0.04582245       0.016
   0.02691963 -0.01125086  0.04493677       0.016
   0.02639242  0.01848444  0.04405109       0.016
   0.02850126 -0.10045677  0.04759382       0.016
   0.02797405 -0.07072147  0.04670814       0.016
   0.08416651 -0.00001208 -0.05042985       0.016
   0.08363930  0.02972322 -0.05131553       0.016
   0.08469372 -0.02974738 -0.04954416       0.016
   0.08311209  0.05945852 -0.05220121       0.016
   0.08522093 -0.05948268 -0.04865848       0.016
 
 k-points in reciprocal lattice and weights: Fully automatic kpoint scheme           
   0.00000000  0.00000000  0.00000000       0.008
   0.20000000 -0.00000000  0.00000000       0.016
   0.40000000  0.00000000  0.00000000       0.016
  -0.00000000  0.20000000  0.00000000       0.016
   0.00000000 -0.00000000 -0.20000000       0.016
   0.20000000  0.20000000  0.00000000       0.016
  -0.20000000  0.00000000 -0.20000000       0.016
   0.40000000  0.20000000  0.00000000       0.016
  -0.40000000 -0.00000000 -0.20000000       0.016
  -0.40000000  0.20000000 -0.00000000       0.016
   0.40000000 -0.00000000 -0.20000000       0.016
  -0.20000000  0.20000000 -0.00000000       0.016
   0.20000000 -0.00000000 -0.20000000       0.016
  -0.00000000  0.40000000  0.00000000       0.016
   0.00000000 -0.00000000 -0.40000000       0.016
   0.20000000  0.40000000  0.00000000       0.016
  -0.20000000  0.00000000 -0.40000000       0.016
   0.40000000  0.40000000  0.00000000       0.016
  -0.40000000 -0.00000000 -0.40000000       0.016
  -0.40000000  0.40000000  0.00000000       0.016
   0.40000000 -0.00000000 -0.40000000       0.016
  -0.20000000  0.40000000  0.00000000       0.016
   0.20000000 -0.00000000 -0.40000000       0.016
  -0.00000000  0.20000000  0.20000000       0.016
   0.20000000  0.20000000  0.20000000       0.016
   0.40000000  0.20000000  0.20000000       0.016
  -0.40000000  0.20000000  0.20000000       0.016
  -0.20000000  0.20000000  0.20000000       0.016
  -0.00000000  0.40000000  0.20000000       0.016
   0.00000000 -0.20000000 -0.40000000       0.016
   0.20000000  0.40000000  0.20000000       0.016
  -0.20000000 -0.20000000 -0.40000000       0.016
   0.40000000  0.40000000  0.20000000       0.016
  -0.40000000 -0.20000000 -0.40000000       0.016
  -0.40000000  0.40000000  0.20000000       0.016
   0.40000000 -0.20000000 -0.40000000       0.016
  -0.20000000  0.40000000  0.20000000       0.016
   0.20000000 -0.20000000 -0.40000000       0.016
   0.00000000 -0.40000000  0.20000000       0.016
   0.00000000 -0.20000000  0.40000000       0.016
   0.20000000 -0.40000000  0.20000000       0.016
  -0.20000000 -0.20000000  0.40000000       0.016
   0.40000000 -0.40000000  0.20000000       0.016
  -0.40000000 -0.20000000  0.40000000       0.016
  -0.40000000 -0.40000000  0.20000000       0.016
   0.40000000 -0.20000000  0.40000000       0.016
  -0.20000000 -0.40000000  0.20000000       0.016
   0.20000000 -0.20000000  0.40000000       0.016
  -0.00000000 -0.20000000  0.20000000       0.016
   0.20000000 -0.20000000  0.20000000       0.016
  -0.20000000 -0.20000000  0.20000000       0.016
   0.40000000 -0.20000000  0.20000000       0.016
  -0.40000000 -0.20000000  0.20000000       0.016
  -0.00000000  0.40000000  0.40000000       0.016
   0.20000000  0.40000000  0.40000000       0.016
   0.40000000  0.40000000  0.40000000       0.016
  -0.40000000  0.40000000  0.40000000       0.016
  -0.20000000  0.40000000  0.40000000       0.016
   0.00000000 -0.40000000  0.40000000       0.016
   0.20000000 -0.40000000  0.40000000       0.016
  -0.20000000 -0.40000000  0.40000000       0.016
   0.40000000 -0.40000000  0.40000000       0.016
  -0.40000000 -0.40000000  0.40000000       0.016
 
 position of ions in fractional coordinates (direct lattice) 
   0.49746098  0.49755095  0.49748082
   0.64289183  0.64283356  0.64301220
   0.14516430  0.14515684  0.14525192
   0.84984525  0.84987019  0.84974502
   0.35212290  0.35218116  0.35200267
   0.24504992  0.52911494  0.96459828
   0.03053360  0.74999010  0.46576539
   0.96443019  0.24507818  0.52917123
   0.46596947  0.03051825  0.74987280
   0.52900120  0.96444952  0.24517033
   0.74999413  0.46583844  0.03038988
   0.60806728  0.75264560  0.39302694
   0.31582998  0.00768478  0.96327387
   0.39283313  0.60813155  0.75268853
   0.96349540  0.31581708  0.00743104
   0.75253911  0.39290174  0.60819338
   0.00750317  0.96334983  0.31540500
   0.98745029  0.03170924  0.67947840
   0.60214414  0.38697859  0.24232039
   0.67915078  0.98729490  0.03177654
   0.24245419  0.60206845  0.38696478
   0.03156615  0.67911645  0.98751416
   0.38709268  0.24234398  0.60194086
   0.28128016  0.32734197  0.97503209
   0.87535896  0.69589733  0.49029310
   0.97440707  0.28099385  0.32773431
   0.49017658  0.87519583  0.69623666
   0.32738734  0.97444411  0.28138325
   0.69613953  0.48976181  0.87537667
   0.29865273  0.50518101  0.11979281
   0.02037424  0.71422567  0.66721783
   0.11980311  0.29890356  0.50462663
   0.66765428  0.02029413  0.71373949
   0.50467009  0.11992794  0.29867512
   0.71390583  0.66760844  0.01981761
 
 position of ions in cartesian coordinates  (Angst):
   5.29030061  3.70270588  8.82908630
   6.83752619  4.78515661 11.40914559
   1.54435922  1.08050098  2.57649493
   9.03670956  6.32550538 15.08158402
   3.74368469  2.62088703  6.24893058
   8.09734175  2.09140805 10.05964587
   3.89656385  0.53530565  8.75758352
   6.68394963  6.87037947  8.90037426
   6.87168064  3.42757989  5.76210679
   3.70959929  3.97815430 11.89548819
   2.48372199  5.31481464  7.59791009
   4.93005728  4.50728867 11.07952474
   8.04211102  2.44087141  5.84200276
   6.95727704  3.07723717 10.46423500
   2.82606214  6.74388564  7.16109158
   6.76274142  5.46677584  9.57793229
   2.81090603  0.39311527  9.83063318
   7.76917849  7.01248184  7.82695776
   3.62383095  4.32857149  7.19447360
   2.53925605  4.96493753 11.81577436
   3.81945841  1.93914595  8.08030472
   7.75472013  0.66244123 10.49617784
   5.65118728  2.89973920  6.57878137
   8.18163413  2.29064189  8.51709658
   6.35748799  6.36496442 12.23982272
   5.22658249  6.89527195  8.35068454
   6.92403089  3.80615488 12.97464201
   3.43442966  2.59735475 11.22860683
   8.64414544  5.17407933 11.36706040
   1.93757820  2.23044902  6.29007528
   5.35361835  0.50919680  9.30782829
   4.22331793  1.04201478  5.41663583
   7.14753195  4.80882955  6.42767366
   3.65600356  3.59872910  4.68315371
   2.39878347  5.11652389  9.14045535
 


--------------------------------------------------------------------------------------------------------


 k-point   1 :   0.0000 0.0000 0.0000  plane waves:   11367
 k-point   2 :   0.2000-0.0000 0.0000  plane waves:   11352
 k-point   3 :   0.4000 0.0000 0.0000  plane waves:   11366
 k-point   4 :  -0.0000 0.2000 0.0000  plane waves:   11353
 k-point   5 :   0.0000-0.0000-0.2000  plane waves:   11354
 k-point   6 :   0.2000 0.2000 0.0000  plane waves:   11341
 k-point   7 :  -0.2000 0.0000-0.2000  plane waves:   11341
 k-point   8 :   0.4000 0.2000 0.0000  plane waves:   11350
 k-point   9 :  -0.4000-0.0000-0.2000  plane waves:   11348
 k-point  10 :  -0.4000 0.2000-0.0000  plane waves:   11371
 k-point  11 :   0.4000-0.0000-0.2000  plane waves:   11370
 k-point  12 :  -0.2000 0.2000-0.0000  plane waves:   11367
 k-point  13 :   0.2000-0.0000-0.2000  plane waves:   11367
 k-point  14 :  -0.0000 0.4000 0.0000  plane waves:   11366
 k-point  15 :   0.0000-0.0000-0.4000  plane waves:   11366
 k-point  16 :   0.2000 0.4000 0.0000  plane waves:   11349
 k-point  17 :  -0.2000 0.0000-0.4000  plane waves:   11347
 k-point  18 :   0.4000 0.4000 0.0000  plane waves:   11366
 k-point  19 :  -0.4000-0.0000-0.4000  plane waves:   11366
 k-point  20 :  -0.4000 0.4000 0.0000  plane waves:   11366
 k-point  21 :   0.4000-0.0000-0.4000  plane waves:   11364
 k-point  22 :  -0.2000 0.4000 0.0000  plane waves:   11371
 k-point  23 :   0.2000-0.0000-0.4000  plane waves:   11372
 k-point  24 :  -0.0000 0.2000 0.2000  plane waves:   11342
 k-point  25 :   0.2000 0.2000 0.2000  plane waves:   11346
 k-point  26 :   0.4000 0.2000 0.2000  plane waves:   11351
 k-point  27 :  -0.4000 0.2000 0.2000  plane waves:   11330
 k-point  28 :  -0.2000 0.2000 0.2000  plane waves:   11352
 k-point  29 :  -0.0000 0.4000 0.2000  plane waves:   11348
 k-point  30 :   0.0000-0.2000-0.4000  plane waves:   11346
 k-point  31 :   0.2000 0.4000 0.2000  plane waves:   11351
 k-point  32 :  -0.2000-0.2000-0.4000  plane waves:   11351
 k-point  33 :   0.4000 0.4000 0.2000  plane waves:   11367
 k-point  34 :  -0.4000-0.2000-0.4000  plane waves:   11366
 k-point  35 :  -0.4000 0.4000 0.2000  plane waves:   11351
 k-point  36 :   0.4000-0.2000-0.4000  plane waves:   11351
 k-point  37 :  -0.2000 0.4000 0.2000  plane waves:   11370
 k-point  38 :   0.2000-0.2000-0.4000  plane waves:   11370
 k-point  39 :   0.0000-0.4000 0.2000  plane waves:   11371
 k-point  40 :   0.0000-0.2000 0.4000  plane waves:   11371
 k-point  41 :   0.2000-0.4000 0.2000  plane waves:   11331
 k-point  42 :  -0.2000-0.2000 0.4000  plane waves:   11331
 k-point  43 :   0.4000-0.4000 0.2000  plane waves:   11350
 k-point  44 :  -0.4000-0.2000 0.4000  plane waves:   11351
 k-point  45 :  -0.4000-0.4000 0.2000  plane waves:   11361
 k-point  46 :   0.4000-0.2000 0.4000  plane waves:   11361
 k-point  47 :  -0.2000-0.4000 0.2000  plane waves:   11369
 k-point  48 :   0.2000-0.2000 0.4000  plane waves:   11370
 k-point  49 :  -0.0000-0.2000 0.2000  plane waves:   11367
 k-point  50 :   0.2000-0.2000 0.2000  plane waves:   11352
 k-point  51 :  -0.2000-0.2000 0.2000  plane waves:   11352
 k-point  52 :   0.4000-0.2000 0.2000  plane waves:   11370
 k-point  53 :  -0.4000-0.2000 0.2000  plane waves:   11369
 k-point  54 :  -0.0000 0.4000 0.4000  plane waves:   11366
 k-point  55 :   0.2000 0.4000 0.4000  plane waves:   11368
 k-point  56 :   0.4000 0.4000 0.4000  plane waves:   11351
 k-point  57 :  -0.4000 0.4000 0.4000  plane waves:   11374
 k-point  58 :  -0.2000 0.4000 0.4000  plane waves:   11361
 k-point  59 :   0.0000-0.4000 0.4000  plane waves:   11363
 k-point  60 :   0.2000-0.4000 0.4000  plane waves:   11351
 k-point  61 :  -0.2000-0.4000 0.4000  plane waves:   11350
 k-point  62 :   0.4000-0.4000 0.4000  plane waves:   11376
 k-point  63 :  -0.4000-0.4000 0.4000  plane waves:   11375

 maximum and minimum number of plane-waves per node :       753      667

 maximum number of plane-waves:     11376
 maximum index in each direction: 
   IXMAX=   16   IYMAX=   16   IZMAX=   16
   IXMIN=  -16   IYMIN=  -16   IZMIN=  -16


 real space projection operators:
  total allocation   :      17026.59 KBytes
  max/ min on nodes  :       1246.73        940.20


 parallel 3D FFT for wavefunctions:
    minimum data exchange during FFTs selected (reduces bandwidth)
 parallel 3D FFT for charge:
    minimum data exchange during FFTs selected (reduces bandwidth)


 total amount of memory used by VASP MPI-rank0   135614. kBytes
=======================================================================

   base      :      30000. kBytes
   nonlr-proj:       9563. kBytes
   fftplans  :       1928. kBytes
   grid      :       5779. kBytes
   one-center:         93. kBytes
   wavefun   :      88251. kBytes
 
     INWAV:  cpu time    0.0000: real time    0.0000
 Broyden mixing: mesh for mixing (old mesh)
   NGX = 33   NGY = 33   NGZ = 33
  (NGX  =140   NGY  =140   NGZ  =140)
  gives a total of  35937 points

 initial charge density was supplied:
 charge density of overlapping atoms calculated
 number of electron     236.0000000 magnetization      22.6000000
 keeping initial charge density in first step


--------------------------------------------------------------------------------------------------------


 Maximum index for non-local projection operator          923
 Maximum index for augmentation-charges         1636 (set IRDMAX)


--------------------------------------------------------------------------------------------------------


 First call to EWALD:  gamma=   0.236
 Maximum number of real-space cells 3x 3x 3
 Maximum number of reciprocal cells 3x 3x 3

    FEWALD:  cpu time    0.0059: real time    0.0062


--------------------------------------- Iteration      1(   1)  ---------------------------------------


    POTLOK:  cpu time    0.0522: real time    0.0599
    SETDIJ:  cpu time    0.0127: real time    0.0133
    TRIAL :  cpu time   16.3369: real time   16.3437
    CORREC:  cpu time    0.0072: real time    0.0072
    --------------------------------------------
      LOOP:  cpu time   16.5055: real time   16.5228

 eigenvalue-minimisations  : 40344
 total energy-change (2. order) : 0.2561081E+04  (-0.1351783E+05)
 number of electron     236.0000000 magnetization      22.6000000
 augmentation part      236.0000000 magnetization      22.6000000

 Free energy of the ion-electron system (eV)
  ---------------------------------------------------
  alpha Z        PSCENC =       656.76482040
  Ewald energy   TEWEN  =    -12062.33432850
  -Hartree energ DENC   =     -7695.58716285
  -exchange      EXHF   =         0.00000000
  -V(xc)+E(xc)   XCENC  =      1013.03009864
  PAW double counting   =     16485.26585439   -16672.33477047
  entropy T*S    EENTRO =        -0.01062721
  eigenvalues    EBANDS =       296.31237832
  atomic energy  EATOM  =     20539.97452121
  ---------------------------------------------------
  free energy    TOTEN  =      2561.08078392 eV

  energy without entropy =     2561.09141114  energy(sigma->0) =     2561.08609753


--------------------------------------------------------------------------------------------------------




--------------------------------------- Iteration      1(   2)  ---------------------------------------


    TRIAL :  cpu time   16.5339: real time   16.5373
    CORREC:  cpu time    0.0066: real time    0.0066
    --------------------------------------------
      LOOP:  cpu time   16.5454: real time   16.5731

 eigenvalue-minimisations  : 41072
 total energy-change (2. order) :-0.2572083E+04  (-0.2361151E+04)
 number of electron     236.0000000 magnetization      22.6000000
 augmentation part      236.0000000 magnetization      22.6000000

 Free energy of the ion-electron system (eV)
  ---------------------------------------------------
  alpha Z        PSCENC =       656.76482040
  Ewald energy   TEWEN  =    -12062.33432850
  -Hartree energ DENC   =     -7695.58716285
  -exchange      EXHF   =         0.00000000
  -V(xc)+E(xc)   XCENC  =      1013.03009864
  PAW double counting   =     16485.26585439   -16672.33477047
  entropy T*S    EENTRO =        -0.02086826
  eigenvalues    EBANDS =     -2275.76084466
  atomic energy  EATOM  =     20539.97452121
  ---------------------------------------------------
  free energy    TOTEN  =       -11.00268010 eV

  energy without entropy =      -10.98181185  energy(sigma->0) =      -10.99224598


--------------------------------------------------------------------------------------------------------




--------------------------------------- Iteration      1(   3)  ---------------------------------------


    TRIAL :  cpu time   17.1413: real time   17.1429
    CORREC:  cpu time    0.0052: real time    0.0051
    --------------------------------------------
      LOOP:  cpu time   17.1537: real time   17.1560

 eigenvalue-minimisations  : 43040
 total energy-change (2. order) :-0.2941414E+03  (-0.2888407E+03)
 number of electron     236.0000000 magnetization      22.6000000
 augmentation part      236.0000000 magnetization      22.6000000

 Free energy of the ion-electron system (eV)
  ---------------------------------------------------
  alpha Z        PSCENC =       656.76482040
  Ewald energy   TEWEN  =    -12062.33432850
  -Hartree energ DENC   =     -7695.58716285
  -exchange      EXHF   =         0.00000000
  -V(xc)+E(xc)   XCENC  =      1013.03009864
  PAW double counting   =     16485.26585439   -16672.33477047
  entropy T*S    EENTRO =        -0.00000031
  eigenvalues    EBANDS =     -2569.92315543
  atomic energy  EATOM  =     20539.97452121
  ---------------------------------------------------
  free energy    TOTEN  =      -305.14412292 eV

  energy without entropy =     -305.14412261  energy(sigma->0) =     -305.14412276


--------------------------------------------------------------------------------------------------------




--------------------------------------- Iteration      1(   4)  ---------------------------------------


    TRIAL :  cpu time   18.9834: real time   18.9881
    CORREC:  cpu time    0.0052: real time    0.0052
    --------------------------------------------
      LOOP:  cpu time   18.9916: real time   19.0227

 eigenvalue-minimisations  : 49128
 total energy-change (2. order) :-0.9100810E+01  (-0.9015611E+01)
 number of electron     236.0000000 magnetization      22.6000000
 augmentation part      236.0000000 magnetization      22.6000000

 Free energy of the ion-electron system (eV)
  ---------------------------------------------------
  alpha Z        PSCENC =       656.76482040
  Ewald energy   TEWEN  =    -12062.33432850
  -Hartree energ DENC   =     -7695.58716285
  -exchange      EXHF   =         0.00000000
  -V(xc)+E(xc)   XCENC  =      1013.03009864
  PAW double counting   =     16485.26585439   -16672.33477047
  entropy T*S    EENTRO =        -0.00000059
  eigenvalues    EBANDS =     -2579.02396470
  atomic energy  EATOM  =     20539.97452121
  ---------------------------------------------------
  free energy    TOTEN  =      -314.24493247 eV

  energy without entropy =     -314.24493188  energy(sigma->0) =     -314.24493218


--------------------------------------------------------------------------------------------------------




--------------------------------------- Iteration      1(   5)  ---------------------------------------


    TRIAL :  cpu time   22.5185: real time   22.5216
    CORREC:  cpu time    0.0051: real time    0.0051
    CHARGE:  cpu time    0.5261: real time    0.5262
    --------------------------------------------
      LOOP:  cpu time   23.0507: real time   23.0597

 eigenvalue-minimisations  : 61104
 total energy-change (2. order) :-0.3916636E+00  (-0.3910344E+00)
 number of electron     236.0000018 magnetization      11.9999957
 augmentation part       43.5611586 magnetization       7.0612576

 Free energy of the ion-electron system (eV)
  ---------------------------------------------------
  alpha Z        PSCENC =       656.76482040
  Ewald energy   TEWEN  =    -12062.33432850
  -Hartree energ DENC   =     -7695.58716285
  -exchange      EXHF   =         0.00000000
  -V(xc)+E(xc)   XCENC  =      1013.03009864
  PAW double counting   =     16485.26585439   -16672.33477047
  entropy T*S    EENTRO =        -0.00000077
  eigenvalues    EBANDS =     -2579.41562813
  atomic energy  EATOM  =     20539.97452121
  ---------------------------------------------------
  free energy    TOTEN  =      -314.63659609 eV

  energy without entropy =     -314.63659531  energy(sigma->0) =     -314.63659570


--------------------------------------------------------------------------------------------------------




--------------------------------------- Iteration      1(   6)  ---------------------------------------


    POTLOK:  cpu time    0.0492: real time    0.0565
    SETDIJ:  cpu time    0.0094: real time    0.0094
    TRIAL :  cpu time    9.1142: real time    9.1175
    CORREC:  cpu time    4.8067: real time    4.8074
    CHARGE:  cpu time    0.5233: real time    0.5233
    --------------------------------------------
      LOOP:  cpu time   14.5061: real time   14.5532

 eigenvalue-minimisations  :     0
 total energy-change (2. order) : 0.2155444E+03  (-0.1297819E+03)
 number of electron     236.0000018 magnetization      12.0000005
 augmentation part       45.2035828 magnetization       8.4752634

 Free energy of the ion-electron system (eV)
  ---------------------------------------------------
  alpha Z        PSCENC =       656.76482040
  Ewald energy   TEWEN  =    -12062.33432850
  -Hartree energ DENC   =     -7696.43673706
  -exchange      EXHF   =         0.00000000
  -V(xc)+E(xc)   XCENC  =      1056.55296269
  PAW double counting   =     38732.12155793   -38925.76074526
  entropy T*S    EENTRO =        -0.00000000
  eigenvalues    EBANDS =     -2399.97427770
  atomic energy  EATOM  =     20539.97452121
  ---------------------------------------------------
  free energy    TOTEN  =       -99.09222707 eV

  energy without entropy =      -99.09222707  energy(sigma->0) =      -99.09222707


--------------------------------------------------------------------------------------------------------




--------------------------------------- Iteration      1(   7)  ---------------------------------------


    POTLOK:  cpu time    0.0484: real time    0.0484
    SETDIJ:  cpu time    0.0086: real time    0.0086
    TRIAL :  cpu time    9.1342: real time    9.1351
    CORREC:  cpu time    4.8513: real time    4.8650
    CHARGE:  cpu time    0.5067: real time    0.5068
    --------------------------------------------
      LOOP:  cpu time   14.5515: real time   14.5729

 eigenvalue-minimisations  :     0
 total energy-change (2. order) :-0.1295007E+03  (-0.2022390E+02)
 number of electron     236.0000017 magnetization      12.0000005
 augmentation part       44.3481658 magnetization       8.4412179

 Free energy of the ion-electron system (eV)
  ---------------------------------------------------
  alpha Z        PSCENC =       656.76482040
  Ewald energy   TEWEN  =    -12062.33432850
  -Hartree energ DENC   =     -7657.97067700
  -exchange      EXHF   =         0.00000000
  -V(xc)+E(xc)   XCENC  =      1035.94218008
  PAW double counting   =     39499.44694688   -39765.90375993
  entropy T*S    EENTRO =        -0.00000000
  eigenvalues    EBANDS =     -2474.51267814
  atomic energy  EATOM  =     20539.97452121
  ---------------------------------------------------
  free energy    TOTEN  =      -228.59297501 eV

  energy without entropy =     -228.59297501  energy(sigma->0) =     -228.59297501


--------------------------------------------------------------------------------------------------------




--------------------------------------- Iteration      1(   8)  ---------------------------------------


    POTLOK:  cpu time    0.0488: real time    0.0488
    SETDIJ:  cpu time    0.0088: real time    0.0088
    TRIAL :  cpu time    9.0898: real time    9.0930
    CORREC:  cpu time    4.8042: real time    4.8047
    CHARGE:  cpu time    0.5052: real time    0.5052
    --------------------------------------------
      LOOP:  cpu time   14.4654: real time   14.4691

 eigenvalue-minimisations  :     0
 total energy-change (2. order) :-0.2024544E+02  (-0.7507921E+01)
 number of electron     236.0000016 magnetization      12.0000005
 augmentation part       44.0443274 magnetization       8.2141782

 Free energy of the ion-electron system (eV)
  ---------------------------------------------------
  alpha Z        PSCENC =       656.76482040
  Ewald energy   TEWEN  =    -12062.33432850
  -Hartree energ DENC   =     -7680.10169375
  -exchange      EXHF   =         0.00000000
  -V(xc)+E(xc)   XCENC  =      1026.91789413
  PAW double counting   =     38016.11378114   -38268.64241884
  entropy T*S    EENTRO =        -0.00000000
  eigenvalues    EBANDS =     -2477.53098948
  atomic energy  EATOM  =     20539.97452121
  ---------------------------------------------------
  free energy    TOTEN  =      -248.83841369 eV

  energy without entropy =     -248.83841369  energy(sigma->0) =     -248.83841369


--------------------------------------------------------------------------------------------------------




--------------------------------------- Iteration      1(   9)  ---------------------------------------


    POTLOK:  cpu time    0.0482: real time    0.0483
    SETDIJ:  cpu time    0.0092: real time    0.0092
    TRIAL :  cpu time    9.1026: real time    9.1034
    CORREC:  cpu time    4.8261: real time    4.8265
    CHARGE:  cpu time    0.5078: real time    0.5079
    --------------------------------------------
      LOOP:  cpu time   14.4971: real time   14.5267

 eigenvalue-minimisations  :     0
 total energy-change (2. order) :-0.7507600E+01  (-0.3416273E+01)
 number of electron     236.0000016 magnetization      12.0000004
 augmentation part       44.1660395 magnetization       7.9997462

 Free energy of the ion-electron system (eV)
  ---------------------------------------------------
  alpha Z        PSCENC =       656.76482040
  Ewald energy   TEWEN  =    -12062.33432850
  -Hartree energ DENC   =     -7782.39300778
  -exchange      EXHF   =         0.00000000
  -V(xc)+E(xc)   XCENC  =      1029.53971236
  PAW double counting   =     36011.55906781   -36242.69186253
  entropy T*S    EENTRO =        -0.00000000
  eigenvalues    EBANDS =     -2406.76493632
  atomic energy  EATOM  =     20539.97452121
  ---------------------------------------------------
  free energy    TOTEN  =      -256.34601334 eV

  energy without entropy =     -256.34601334  energy(sigma->0) =     -256.34601334


--------------------------------------------------------------------------------------------------------




--------------------------------------- Iteration      1(  10)  ---------------------------------------


    POTLOK:  cpu time    0.0497: real time    0.0497
    SETDIJ:  cpu time    0.0088: real time    0.0088
    TRIAL :  cpu time    9.1113: real time    9.1122
    CORREC:  cpu time    4.8168: real time    4.8172
    CHARGE:  cpu time    0.5044: real time    0.5044
    --------------------------------------------
      LOOP:  cpu time   14.4917: real time   14.4930

 eigenvalue-minimisations  :     0
 total energy-change (2. order) :-0.3414511E+01  (-0.1186583E+01)
 number of electron     236.0000016 magnetization      12.0000004
 augmentation part       44.4157699 magnetization       7.8939813

 Free energy of the ion-electron system (eV)
  ---------------------------------------------------
  alpha Z        PSCENC =       656.76482040
  Ewald energy   TEWEN  =    -12062.33432850
  -Hartree energ DENC   =     -7834.41178431
  -exchange      EXHF   =         0.00000000
  -V(xc)+E(xc)   XCENC  =      1033.36703940
  PAW double counting   =     34770.82689938   -34990.94701887
  entropy T*S    EENTRO =        -0.00000000
  eigenvalues    EBANDS =     -2373.00067323
  atomic energy  EATOM  =     20539.97452121
  ---------------------------------------------------
  free energy    TOTEN  =      -259.76052452 eV

  energy without entropy =     -259.76052452  energy(sigma->0) =     -259.76052452


--------------------------------------------------------------------------------------------------------




--------------------------------------- Iteration      1(  11)  ---------------------------------------


    POTLOK:  cpu time    0.0497: real time    0.0497
    SETDIJ:  cpu time    0.0087: real time    0.0087
    TRIAL :  cpu time    9.1918: real time    9.1928
    CORREC:  cpu time    4.8128: real time    4.8133
    CHARGE:  cpu time    0.5061: real time    0.5061
    --------------------------------------------
      LOOP:  cpu time   14.5724: real time   14.5876

 eigenvalue-minimisations  :     0
 total energy-change (2. order) :-0.1186568E+01  (-0.3864319E+00)
 number of electron     236.0000016 magnetization      12.0000004
 augmentation part       44.4276043 magnetization       7.8894347

 Free energy of the ion-electron system (eV)
  ---------------------------------------------------
  alpha Z        PSCENC =       656.76482040
  Ewald energy   TEWEN  =    -12062.33432850
  -Hartree energ DENC   =     -7835.86427757
  -exchange      EXHF   =         0.00000000
  -V(xc)+E(xc)   XCENC  =      1033.61270012
  PAW double counting   =     34322.29222511   -34543.29932616
  entropy T*S    EENTRO =        -0.00000000
  eigenvalues    EBANDS =     -2372.09342761
  atomic energy  EATOM  =     20539.97452121
  ---------------------------------------------------
  free energy    TOTEN  =      -260.94709300 eV

  energy without entropy =     -260.94709300  energy(sigma->0) =     -260.94709300


--------------------------------------------------------------------------------------------------------




--------------------------------------- Iteration      1(  12)  ---------------------------------------


    POTLOK:  cpu time    0.0495: real time    0.0495
    SETDIJ:  cpu time    0.0085: real time    0.0085
    TRIAL :  cpu time    9.1340: real time    9.1349
    CORREC:  cpu time    4.8005: real time    4.8009
    CHARGE:  cpu time    0.5065: real time    0.5065
    --------------------------------------------
      LOOP:  cpu time   14.5036: real time   14.5352

 eigenvalue-minimisations  :     0
 total energy-change (2. order) :-0.3863891E+00  (-0.1699831E+00)
 number of electron     236.0000016 magnetization      12.0000004
 augmentation part       44.3549297 magnetization       7.9428206

 Free energy of the ion-electron system (eV)
  ---------------------------------------------------
  alpha Z        PSCENC =       656.76482040
  Ewald energy   TEWEN  =    -12062.33432850
  -Hartree energ DENC   =     -7812.41070792
  -exchange      EXHF   =         0.00000000
  -V(xc)+E(xc)   XCENC  =      1032.27221799
  PAW double counting   =     34158.53595531   -34380.58945767
  entropy T*S    EENTRO =        -0.00000000
  eigenvalues    EBANDS =     -2393.54650293
  atomic energy  EATOM  =     20539.97452121
  ---------------------------------------------------
  free energy    TOTEN  =      -261.33348211 eV

  energy without entropy =     -261.33348211  energy(sigma->0) =     -261.33348211


--------------------------------------------------------------------------------------------------------




--------------------------------------- Iteration      1(  13)  ---------------------------------------


    POTLOK:  cpu time    0.0484: real time    0.0484
    SETDIJ:  cpu time    0.0093: real time    0.0093
    TRIAL :  cpu time    9.1347: real time    9.1388
    CORREC:  cpu time    4.8237: real time    4.8332
    CHARGE:  cpu time    0.5109: real time    0.5151
    --------------------------------------------
      LOOP:  cpu time   14.5277: real time   14.5454

 eigenvalue-minimisations  :     0
 total energy-change (2. order) :-0.1699986E+00  (-0.8608380E-01)
 number of electron     236.0000016 magnetization      12.0000004
 augmentation part       44.3722276 magnetization       8.0351815

 Free energy of the ion-electron system (eV)
  ---------------------------------------------------
  alpha Z        PSCENC =       656.76482040
  Ewald energy   TEWEN  =    -12062.33432850
  -Hartree energ DENC   =     -7798.67525879
  -exchange      EXHF   =         0.00000000
  -V(xc)+E(xc)   XCENC  =      1031.80086293
  PAW double counting   =     34103.05552077   -34325.02752886
  entropy T*S    EENTRO =        -0.00000000
  eigenvalues    EBANDS =     -2407.06208985
  atomic energy  EATOM  =     20539.97452121
  ---------------------------------------------------
  free energy    TOTEN  =      -261.50348071 eV

  energy without entropy =     -261.50348071  energy(sigma->0) =     -261.50348071


--------------------------------------------------------------------------------------------------------




--------------------------------------- Iteration      1(  14)  ---------------------------------------


    POTLOK:  cpu time    0.0498: real time    0.0565
    SETDIJ:  cpu time    0.0084: real time    0.0084
    TRIAL :  cpu time    9.1142: real time    9.1150
    CORREC:  cpu time    4.8022: real time    4.8026
    CHARGE:  cpu time    0.5167: real time    0.5168
    --------------------------------------------
      LOOP:  cpu time   14.4964: real time   14.5044

 eigenvalue-minimisations  :     0
 total energy-change (2. order) :-0.8602615E-01  (-0.4244096E-01)
 number of electron     236.0000016 magnetization      12.0000004
 augmentation part       44.3867934 magnetization       8.1178498

 Free energy of the ion-electron system (eV)
[...]
 -0.000  -0.000   0.000   0.000   0.000  -0.000  -0.000  -0.000   0.000  -0.000  -0.000  -0.000  -0.000  -0.000   0.000   0.000
 -0.000  -0.000   0.000   0.000   0.000  -0.000  -0.000  -0.000  -0.000  -0.000   0.000  -0.000   0.000   0.000   0.000  -0.000
 -0.000   0.000  -0.000  -0.000  -0.000   0.000   0.000   0.000   0.000  -0.000   0.000  -0.000  -0.000  -0.000   0.000  -0.000
 -0.000   0.000  -0.000  -0.000  -0.000   0.000   0.000   0.000  -0.000   0.000   0.000   0.000   0.000   0.000  -0.000  -0.000
 -0.000   0.000  -0.000  -0.000  -0.000   0.000   0.000   0.000  -0.000   0.000  -0.000   0.000  -0.000  -0.000  -0.000   0.000
  0.000  -0.000  -0.000   0.000  -0.000   0.000  -0.000  -0.000  -0.001   0.000  -0.001  -0.000   0.000   0.000  -0.000   0.000
  0.000  -0.001  -0.000  -0.000  -0.000  -0.000   0.000   0.000   0.000   0.001  -0.002  -0.001  -0.001  -0.000  -0.000   0.001
  0.000  -0.001   0.000  -0.000   0.000   0.000   0.000  -0.000  -0.001  -0.002   0.002  -0.001  -0.001   0.000   0.001  -0.001
  0.000  -0.001   0.000  -0.000  -0.000  -0.000   0.000   0.000  -0.000  -0.001  -0.001  -0.001   0.001   0.000   0.000   0.000
  0.000  -0.000   0.000  -0.000   0.000  -0.000   0.000  -0.000   0.000  -0.001  -0.001   0.001   0.002   0.000   0.001   0.000
  0.000   0.000   0.000  -0.000   0.000  -0.000   0.000  -0.000   0.000  -0.000   0.000   0.000   0.000  -0.000   0.000  -0.000
  0.000   0.001   0.000   0.000   0.000   0.000  -0.000  -0.000  -0.000  -0.000   0.001   0.000   0.001   0.000   0.000  -0.000
  0.000   0.001  -0.000   0.000  -0.000  -0.000  -0.000   0.000   0.000   0.001  -0.001   0.000   0.000  -0.000  -0.000   0.000
  0.000   0.001  -0.000  -0.000   0.000   0.000  -0.000  -0.000   0.000   0.000   0.000   0.000  -0.000  -0.000  -0.000  -0.000
  0.000   0.000  -0.000   0.000   0.000   0.000  -0.000   0.000   0.000   0.001   0.000  -0.000  -0.001  -0.000  -0.000  -0.000


------------------------ aborting loop because EDIFF is reached ----------------------------------------


 


 total charge     
 
# of ion       s       p       d       tot
------------------------------------------
    1        2.017   5.860   0.197   8.074
    2        0.324   6.426   4.826  11.576
    3        0.322   6.419   4.804  11.545
    4        0.322   6.419   4.805  11.546
    5        0.324   6.426   4.826  11.576
    6        0.907   1.492   0.000   2.399
    7        0.907   1.492   0.000   2.398
    8        0.907   1.492   0.000   2.399
    9        0.907   1.492   0.000   2.398
   10        0.907   1.492   0.000   2.398
   11        0.907   1.492   0.000   2.399
   12        1.566   3.584   0.000   5.150
   13        1.569   3.572   0.000   5.141
   14        1.566   3.584   0.000   5.150
   15        1.569   3.572   0.000   5.141
   16        1.566   3.584   0.000   5.150
   17        1.569   3.572   0.000   5.141
   18        1.569   3.572   0.000   5.141
   19        1.566   3.584   0.000   5.150
   20        1.569   3.572   0.000   5.141
   21        1.566   3.585   0.000   5.151
   22        1.569   3.572   0.000   5.141
   23        1.566   3.585   0.000   5.151
   24        1.570   3.563   0.000   5.132
   25        1.564   3.589   0.000   5.153
   26        1.570   3.563   0.000   5.132
   27        1.564   3.589   0.000   5.153
   28        1.570   3.562   0.000   5.132
   29        1.564   3.589   0.000   5.153
   30        1.564   3.589   0.000   5.153
   31        1.570   3.563   0.000   5.133
   32        1.564   3.589   0.000   5.153
   33        1.570   3.563   0.000   5.132
   34        1.564   3.589   0.000   5.153
   35        1.570   3.563   0.000   5.133
--------------------------------------------------
tot         46.359 126.352  19.458 192.169
 


 magnetization (x)
 
# of ion       s       p       d       tot
------------------------------------------
    1        0.001   0.001   0.001   0.003
    2        0.011   0.022   2.665   2.698
    3        0.012   0.023   2.731   2.766
    4        0.012   0.023   2.730   2.765
    5        0.011   0.022   2.664   2.697
    6        0.004   0.007   0.000   0.011
    7        0.004   0.007   0.000   0.011
    8        0.004   0.007   0.000   0.011
    9        0.004   0.007   0.000   0.011
   10        0.004   0.007   0.000   0.011
   11        0.004   0.007   0.000   0.011
   12        0.001  -0.010   0.000  -0.009
   13        0.002   0.025   0.000   0.027
   14        0.001  -0.010   0.000  -0.009
   15        0.002   0.025   0.000   0.027
   16        0.001  -0.010   0.000  -0.009
   17        0.002   0.025   0.000   0.027
   18        0.002   0.025   0.000   0.027
   19        0.001  -0.010   0.000  -0.009
   20        0.002   0.025   0.000   0.027
   21        0.001  -0.010   0.000  -0.009
   22        0.002   0.025   0.000   0.027
   23        0.001  -0.010   0.000  -0.009
   24        0.001   0.014   0.000   0.016
   25        0.001   0.045   0.000   0.047
   26        0.001   0.014   0.000   0.015
   27        0.001   0.045   0.000   0.047
   28        0.001   0.014   0.000   0.015
   29        0.001   0.045   0.000   0.046
   30        0.001   0.045   0.000   0.046
   31        0.001   0.014   0.000   0.015
   32        0.001   0.045   0.000   0.047
   33        0.001   0.014   0.000   0.016
   34        0.001   0.045   0.000   0.047
   35        0.001   0.014   0.000   0.016
--------------------------------------------------
tot          0.102   0.578  10.790  11.470
 
    FORLOC:  cpu time    0.0106: real time    0.0106
    FORNL :  cpu time    2.6808: real time    2.6816
    STRESS:  cpu time    8.0575: real time    8.0598
    FORCOR:  cpu time    0.0482: real time    0.0492
    OFIELD:  cpu time    0.0001: real time    0.0001

  FORCE on cell =-STRESS in cart. coord.  units (eV):
  Direction    XX          YY          ZZ          XY          YZ          ZX
  --------------------------------------------------------------------------------------
  Alpha Z   656.76482   656.76482   656.76482
  Ewald   -4064.82683 -4113.49216 -3884.07146    71.02687   118.45572   166.19390
  Hartree  2582.99497  2563.22205  2659.77847    29.85587    50.33464    69.94726
  E(xc)   -1189.05209 -1189.14519 -1188.71425     0.13389     0.22073     0.31278
  Local   -2249.35785 -2182.59890 -2500.72050   -98.45001  -164.74695  -230.46331
  n-local  -461.38063  -461.13971  -462.25176    -0.31621    -0.54685    -0.81730
  augment   540.25838   540.33861   539.94405    -0.14282    -0.21755    -0.29188
  Kinetic  4184.73461  4186.20082  4179.36137    -2.12979    -3.52850    -4.92525
  Fock        0.00000     0.00000     0.00000     0.00000     0.00000     0.00000
  -------------------------------------------------------------------------------------
  Total       0.13538     0.15035     0.09075    -0.02219    -0.02877    -0.04381
  in kB       0.51412     0.57096     0.34463    -0.08428    -0.10926    -0.16636
  external pressure =        0.48 kB  Pullay stress =        0.00 kB


 VOLUME and BASIS-vectors are now :
 -----------------------------------------------------------------------------
  energy-cutoff  :      520.00
  volume of cell :      421.90
      direct lattice vectors                 reciprocal lattice vectors
     2.725865831  6.909800136  4.547766308    -0.002636053  0.148676504 -0.004428416
     0.457010450  0.267073251  8.694488857    -0.070899592 -0.051217610  0.120315377
     7.451348048  0.266276292  4.504291809     0.139516685 -0.051247803 -0.005759242

  length of vectors
     8.709641832  8.710586844  8.711035271     0.148765798  0.148747389  0.148742770


 FORCES acting on ions:
    Electron-Ion                     Ewald-Force                    Non-Local-Force
 -----------------------------------------------------------------------------------------------
   -.151E+00 -.958E-01 -.131E+00   0.148E+00 0.936E-01 0.127E+00   0.459E-02 0.394E-02 0.571E-02
   -.111E+02 -.784E+01 -.194E+02   0.122E+02 0.857E+01 0.212E+02   -.106E+01 -.739E+00 -.175E+01
   0.866E+02 0.606E+02 0.144E+03   -.868E+02 -.607E+02 -.144E+03   0.147E+00 0.103E+00 0.245E+00
   -.872E+02 -.608E+02 -.145E+03   0.873E+02 0.609E+02 0.145E+03   -.137E+00 -.985E-01 -.233E+00
   0.109E+02 0.764E+01 0.189E+02   -.119E+02 -.837E+01 -.207E+02   0.106E+01 0.741E+00 0.176E+01
   0.208E+01 0.204E+02 -.536E+02   -.236E+01 -.214E+02 0.534E+02   0.295E+00 0.100E+01 0.213E+00
   0.568E+02 0.449E+01 0.818E+01   -.571E+02 -.455E+01 -.721E+01   0.313E+00 0.506E-01 -.101E+01
   -.566E+02 -.442E+01 -.822E+01   0.569E+02 0.447E+01 0.725E+01   -.317E+00 -.469E-01 0.102E+01
   -.310E+01 0.522E+02 0.241E+02   0.402E+01 -.525E+02 -.237E+02   -.960E+00 0.295E+00 -.358E+00
   0.306E+01 -.521E+02 -.241E+02   -.399E+01 0.524E+02 0.237E+02   0.964E+00 -.296E+00 0.363E+00
   -.205E+01 -.206E+02 0.537E+02   0.232E+01 0.215E+02 -.535E+02   -.291E+00 -.993E+00 -.218E+00
   0.132E+03 -.666E+02 0.342E+02   -.117E+03 0.812E+02 -.540E+02   -.148E+02 -.146E+02 0.198E+02
   0.355E+02 0.477E+02 0.216E+03   -.108E+02 -.660E+02 -.228E+03   -.247E+02 0.183E+02 0.119E+02
   0.409E+02 0.146E+03 -.367E-01   -.672E+02 -.137E+03 0.696E+01   0.263E+02 -.934E+01 -.692E+01
   0.164E+03 0.155E+02 0.153E+03   -.170E+03 0.140E+02 -.167E+03   0.583E+01 -.294E+02 0.136E+02
   -.723E+02 -.942E+01 0.133E+03   0.780E+02 -.185E+02 -.130E+03   -.577E+01 0.279E+02 -.338E+01
   0.104E+03 0.148E+03 0.134E+03   -.128E+03 -.163E+03 -.118E+03   0.246E+02 0.150E+02 -.161E+02
   -.104E+03 -.148E+03 -.134E+03   0.128E+03 0.163E+03 0.118E+03   -.245E+02 -.150E+02 0.161E+02
   -.409E+02 -.146E+03 -.300E-01   0.671E+02 0.137E+03 -.685E+01   -.263E+02 0.936E+01 0.688E+01
   -.354E+02 -.477E+02 -.216E+03   0.108E+02 0.661E+02 0.228E+03   0.246E+02 -.183E+02 -.119E+02
   0.721E+02 0.946E+01 -.133E+03   -.778E+02 0.185E+02 0.130E+03   0.571E+01 -.279E+02 0.339E+01
   -.164E+03 -.155E+02 -.153E+03   0.169E+03 -.140E+02 0.166E+03   -.582E+01 0.294E+02 -.136E+02
   -.132E+03 0.664E+02 -.343E+02   0.117E+03 -.810E+02 0.541E+02   0.148E+02 0.145E+02 -.198E+02
   0.111E+03 -.131E+03 -.374E+02   -.117E+03 0.146E+03 0.105E+02   0.624E+01 -.154E+02 0.268E+02
   0.161E+03 -.119E+03 -.287E+02   -.177E+03 0.108E+03 0.727E+01   0.154E+02 0.116E+02 0.214E+02
   0.100E+02 0.148E+03 -.933E+02   -.396E+02 -.159E+03 0.913E+02   0.296E+02 0.108E+02 0.201E+01
   0.470E+01 0.192E+03 -.653E+02   -.158E+02 -.203E+03 0.409E+02   0.112E+02 0.106E+02 0.243E+02
   -.151E+03 -.383E+02 0.810E+02   0.159E+03 0.139E+02 -.995E+02   -.761E+01 0.244E+02 0.185E+02
   -.145E+03 -.584E+02 0.130E+03   0.130E+03 0.515E+02 -.154E+03   0.149E+02 0.688E+01 0.238E+02
   0.145E+03 0.586E+02 -.130E+03   -.130E+03 -.518E+02 0.154E+03   -.149E+02 -.679E+01 -.237E+02
   -.975E+01 -.148E+03 0.935E+02   0.393E+02 0.159E+03 -.914E+02   -.296E+02 -.108E+02 -.201E+01
   -.162E+03 0.119E+03 0.289E+02   0.177E+03 -.107E+03 -.753E+01   -.154E+02 -.116E+02 -.213E+02
   0.151E+03 0.386E+02 -.809E+02   -.159E+03 -.142E+02 0.993E+02   0.761E+01 -.244E+02 -.185E+02
   -.459E+01 -.192E+03 0.654E+02   0.157E+02 0.203E+03 -.411E+02   -.111E+02 -.106E+02 -.243E+02
   -.111E+03 0.131E+03 0.376E+02   0.117E+03 -.146E+03 -.108E+02   -.621E+01 0.154E+02 -.268E+02
 -----------------------------------------------------------------------------------------------
   -.712E-01 -.576E-01 -.162E+00   0.185E-12 -.171E-12 0.977E-13   0.676E-01 0.637E-01 0.158E+00
 
 
 POSITION                                       TOTAL-FORCE (eV/Angst)
 -----------------------------------------------------------------------------------
      5.29030      3.70271      8.82909         0.001792      0.001556      0.002501
      6.83753      4.78516     11.40915         0.011330      0.006533      0.018814
      1.54436      1.08050      2.57649        -0.009619     -0.006203     -0.017075
      9.03671      6.32551     15.08158         0.010419      0.006265      0.015527
      3.74368      2.62089      6.24893        -0.010820     -0.009006     -0.020631
      8.09734      2.09141     10.05965         0.002855     -0.000752      0.011966
      3.89656      0.53531      8.75758        -0.001785     -0.004406     -0.008301
      6.68395      6.87038      8.90037         0.008976      0.005033      0.007920
      6.87168      3.42758      5.76211        -0.004693     -0.000964     -0.007435
      3.70960      3.97815     11.89549         0.002209      0.008701      0.008897
      2.48372      5.31481      7.59791        -0.004869     -0.003400     -0.006611
      4.93006      4.50729     11.07952        -0.010977      0.000381      0.003948
      8.04211      2.44087      5.84200        -0.001344     -0.016063     -0.004717
      6.95728      3.07724     10.46423         0.004711     -0.007264     -0.001173
      2.82606      6.74389      7.16109         0.003685      0.001188     -0.015271
      6.76274      5.46678      9.57793         0.000110      0.008233     -0.005939
      2.81091      0.39312      9.83063        -0.012601      0.004705     -0.003285
      7.76918      7.01248      7.82696         0.014851     -0.004314     -0.002180
      3.62383      4.32857      7.19447        -0.000128      0.007575     -0.001212
      2.53926      4.96494     11.81577        -0.003706      0.016766      0.002230
      3.81946      1.93915      8.08030        -0.004458     -0.004040      0.006356
      7.75472      0.66244     10.49618        -0.005959     -0.006813      0.014615
      5.65119      2.89974      6.57878         0.009239     -0.004656     -0.000919
      8.18163      2.29064      8.51710        -0.001192     -0.005305      0.000795
      6.35749      6.36496     12.23982        -0.001169     -0.008476     -0.000782
      5.22658      6.89527      8.35068         0.004058      0.002314     -0.004756
      6.92403      3.80615     12.97464         0.000863      0.001692     -0.008791
      3.43443      2.59735     11.22861        -0.005663      0.003264      0.001120
      8.64415      5.17408     11.36706        -0.010997      0.001045     -0.000780
      1.93758      2.23045      6.29008         0.006805      0.008988      0.002739
      5.35362      0.50920      9.30783        -0.004447      0.006697     -0.002380
      4.22332      1.04201      5.41664         0.000301     -0.000041      0.008730
      7.14753      4.80883      6.42767        -0.003035     -0.009535      0.004073
      3.65600      3.59873      4.68315         0.006711      0.001508      0.005031
      2.39878      5.11652      9.14046         0.008546     -0.001208     -0.003027
 -----------------------------------------------------------------------------------
    total drift:                               -0.003574      0.006125     -0.004070


--------------------------------------------------------------------------------------------------------



  FREE ENERGIE OF THE ION-ELECTRON SYSTEM (eV)
  ---------------------------------------------------
  free  energy   TOTEN  =      -261.67276013 eV

  energy  without entropy=     -261.67276013  energy(sigma->0) =     -261.67276013
 


--------------------------------------------------------------------------------------------------------


    POTLOK:  cpu time    0.0565: real time    0.0565


--------------------------------------------------------------------------------------------------------




--------------------------------------------------------------------------------------------------------


  
 reached required accuracy - stopping structural energy minimisation
     LOOP+:  cpu time  416.3797: real time  416.9663
    4ORBIT:  cpu time    0.0000: real time    0.0000
 


 total charge     
 
# of ion       s       p       d       tot
------------------------------------------
    1        2.017   5.860   0.197   8.074
    2        0.324   6.426   4.826  11.576
    3        0.322   6.419   4.804  11.545
    4        0.322   6.419   4.805  11.546
    5        0.324   6.426   4.826  11.576
    6        0.907   1.492   0.000   2.399
    7        0.907   1.492   0.000   2.398
    8        0.907   1.492   0.000   2.399
    9        0.907   1.492   0.000   2.398
   10        0.907   1.492   0.000   2.398
   11        0.907   1.492   0.000   2.399
   12        1.566   3.584   0.000   5.150
   13        1.569   3.572   0.000   5.141
   14        1.566   3.584   0.000   5.150
   15        1.569   3.572   0.000   5.141
   16        1.566   3.584   0.000   5.150
   17        1.569   3.572   0.000   5.141
   18        1.569   3.572   0.000   5.141
   19        1.566   3.584   0.000   5.150
   20        1.569   3.572   0.000   5.141
   21        1.566   3.585   0.000   5.151
   22        1.569   3.572   0.000   5.141
   23        1.566   3.585   0.000   5.151
   24        1.570   3.563   0.000   5.132
   25        1.564   3.589   0.000   5.153
   26        1.570   3.563   0.000   5.132
   27        1.564   3.589   0.000   5.153
   28        1.570   3.562   0.000   5.132
   29        1.564   3.589   0.000   5.153
   30        1.564   3.589   0.000   5.153
   31        1.570   3.563   0.000   5.133
   32        1.564   3.589   0.000   5.153
   33        1.570   3.563   0.000   5.132
   34        1.564   3.589   0.000   5.153
   35        1.570   3.563   0.000   5.133
--------------------------------------------------
tot         46.359 126.352  19.458 192.169
 


 magnetization (x)
 
# of ion       s       p       d       tot
------------------------------------------
    1        0.001   0.001   0.001   0.003
    2        0.011   0.022   2.665   2.698
    3        0.012   0.023   2.731   2.766
    4        0.012   0.023   2.730   2.765
    5        0.011   0.022   2.664   2.697
    6        0.004   0.007   0.000   0.011
    7        0.004   0.007   0.000   0.011
    8        0.004   0.007   0.000   0.011
    9        0.004   0.007   0.000   0.011
   10        0.004   0.007   0.000   0.011
   11        0.004   0.007   0.000   0.011
   12        0.001  -0.010   0.000  -0.009
   13        0.002   0.025   0.000   0.027
   14        0.001  -0.010   0.000  -0.009
   15        0.002   0.025   0.000   0.027
   16        0.001  -0.010   0.000  -0.009
   17        0.002   0.025   0.000   0.027
   18        0.002   0.025   0.000   0.027
   19        0.001  -0.010   0.000  -0.009
   20        0.002   0.025   0.000   0.027
   21        0.001  -0.010   0.000  -0.009
   22        0.002   0.025   0.000   0.027
   23        0.001  -0.010   0.000  -0.009
   24        0.001   0.014   0.000   0.016
   25        0.001   0.045   0.000   0.047
   26        0.001   0.014   0.000   0.015
   27        0.001   0.045   0.000   0.047
   28        0.001   0.014   0.000   0.015
   29        0.001   0.045   0.000   0.046
   30        0.001   0.045   0.000   0.046
   31        0.001   0.014   0.000   0.015
   32        0.001   0.045   0.000   0.047
   33        0.001   0.014   0.000   0.016
   34        0.001   0.045   0.000   0.047
   35        0.001   0.014   0.000   0.016
--------------------------------------------------
tot          0.102   0.578  10.790  11.470
 

 total amount of memory used by VASP MPI-rank0   135614. kBytes
=======================================================================

   base      :      30000. kBytes
   nonlr-proj:       9563. kBytes
   fftplans  :       1928. kBytes
   grid      :       5779. kBytes
   one-center:         93. kBytes
   wavefun   :      88251. kBytes
 
  
  
 General timing and accounting informations for this job:
 ========================================================
  
                  Total CPU time used (sec):      449.476
                            User time (sec):      436.104
                          System time (sec):       13.372
                         Elapsed time (sec):      450.648
  
                   Maximum memory used (kb):      361368.
                   Average memory used (kb):           0.
  
                          Minor page faults:        78325
                          Major page faults:            0
                 Voluntary context switches:         1900
