       N       E                     dE             d eps       ncg     rms          ort
DAV:   1     0.296125855592E+04    0.29613E+04   -0.13713E+05 10584   0.178E+03
DAV:   2    -0.208523955714E+02   -0.29821E+04   -0.27331E+04 10584   0.460E+02
DAV:   3    -0.428079181639E+03   -0.40723E+03   -0.39830E+03 10584   0.193E+02
DAV:   4    -0.445498539640E+03   -0.17419E+02   -0.17022E+02 10584   0.389E+01
DAV:   5    -0.446118703988E+03   -0.62016E+00   -0.61091E+00 10584   0.599E+00
SDA:   6    -0.244183706334E+03    0.20193E+03   -0.61091E+00 10584   0.934E+03 0.000E+00
CGA:   7    -0.273054836227E+03   -0.28871E+02   -0.90196E+02 10584   0.816E+03-0.336E+02
CGA:   8    -0.289740163642E+03   -0.16685E+02   -0.22643E+02 10584   0.252E+03 0.258E+02
CGA:   9    -0.301637831517E+03   -0.11898E+02   -0.31500E+01 10584   0.438E+03-0.422E+03
CGA:  10    -0.280673980398E+03    0.20964E+02   -0.16821E+02 10584   0.626E+03-0.236E+03
CGA:  11    -0.309724565072E+03   -0.29051E+02   -0.13819E+02 10584   0.322E+04-0.432E+04
CGA:  12    -0.225730547773E+03    0.83994E+02   -0.23584E+03 10584   0.526E+03-0.191E+03
CGA:  13    -0.247738423237E+03   -0.22008E+02   -0.88973E+01 10584   0.157E+04 0.173E+04
CGA:  14    -0.254637507331E+03   -0.68991E+01   -0.55911E+02 10584   0.423E+03-0.418E+03
CGA:  15    -0.262921411358E+03   -0.82839E+01   -0.34223E+01 10584   0.616E+03 0.511E+03
CGA:  16    -0.315484458917E+03   -0.52563E+02   -0.10209E+02 10584   0.214E+04 0.811E+03
CGA:  17    -0.250449589445E+03    0.65035E+02   -0.12175E+03 10584   0.393E+03-0.159E+03
CGA:  18    -0.289243658328E+03   -0.38794E+02   -0.60656E+01 10584   0.269E+04-0.399E+04
CGA:  19    -0.236080626645E+03    0.53163E+02   -0.13034E+03 10584   0.473E+03-0.299E+03
CGA:  20    -0.246159117522E+03   -0.10078E+02   -0.46436E+01 10584   0.568E+03 0.545E+03
CGA:  21    -0.309949124203E+03   -0.63790E+02   -0.71175E+01 10584   0.243E+04-0.566E+03
CGA:  22    -0.253128781430E+03    0.56820E+02   -0.11538E+03 10584   0.392E+03-0.194E+03
CGA:  23    -0.299839677797E+03   -0.46711E+02   -0.96843E+01 10584   0.455E+03 0.877E+03
CGA:  24    -0.279252000672E+03    0.20588E+02   -0.12262E+02 10584   0.199E+04-0.981E+03
CGA:  25    -0.254594865907E+03    0.24657E+02   -0.84809E+02 10584   0.414E+03-0.312E+03
CGA:  26    -0.309164396351E+03   -0.54570E+02   -0.10036E+02 10584   0.192E+04-0.324E+03
CGA:  27    -0.259730740703E+03    0.49434E+02   -0.73955E+02 10584   0.771E+03-0.301E+03
CGA:  28    -0.262765152904E+03   -0.30344E+01   -0.22868E+02 10584   0.669E+03-0.666E+03
CGA:  29    -0.259447268999E+03    0.33179E+01   -0.20722E+02 10584   0.999E+03-0.982E+03
CGA:  30    -0.258973328982E+03    0.47394E+00   -0.34153E+02 10584   0.424E+03-0.416E+03
CGA:  31    -0.290608185748E+03   -0.31635E+02   -0.73717E+01 10584   0.396E+04-0.532E+04
CGA:  32    -0.252085748903E+03    0.38522E+02   -0.14225E+03 10584   0.391E+03-0.269E+03
CGA:  33    -0.269922724512E+03   -0.17837E+02   -0.10345E+02 10584   0.957E+03-0.107E+04
CGA:  34    -0.254645941877E+03    0.15277E+02   -0.26702E+02 10584   0.398E+03-0.338E+03
CGA:  35    -0.269058272304E+03   -0.14412E+02   -0.79257E+01 10584   0.363E+03-0.302E+03
CGA:  36    -0.289670065985E+03   -0.20612E+02   -0.65882E+01 10584   0.706E+04-0.852E+04
CGA:  37    -0.263517018009E+03    0.26153E+02   -0.22722E+03 10584   0.334E+03-0.263E+03
CGA:  38    -0.324888787671E+03   -0.61372E+02   -0.59726E+01 10584   0.122E+04 0.204E+04
CGA:  39    -0.296668830390E+03    0.28220E+02   -0.30288E+02 10584   0.532E+03-0.254E+03
CGA:  40    -0.305437405976E+03   -0.87686E+01   -0.84984E+01 10584   0.610E+03-0.525E+03
CGA:  41    -0.299120215179E+03    0.63172E+01   -0.97481E+01 10584   0.236E+04-0.204E+04
CGA:  42    -0.287290443597E+03    0.11830E+02   -0.57904E+02 10584   0.209E+04-0.932E+03
CGA:  43    -0.298208395424E+03   -0.10918E+02   -0.29236E+02 10584   0.369E+04-0.398E+04
CGA:  44    -0.262110367709E+03    0.36098E+02   -0.88261E+02 10584   0.429E+03-0.277E+03
CGA:  45    -0.286899623019E+03   -0.24789E+02   -0.70511E+01 10584   0.309E+04-0.462E+04
CGA:  46    -0.261818767891E+03    0.25081E+02   -0.69275E+02 10584   0.410E+03-0.300E+03
CGA:  47    -0.301209679938E+03   -0.39391E+02   -0.64033E+01 10584   0.215E+04-0.438E+04
CGA:  48    -0.267287117501E+03    0.33923E+02   -0.41258E+02 10584   0.153E+04-0.744E+03
CGA:  49    -0.271807530437E+03   -0.45204E+01   -0.20921E+02 10584   0.131E+04-0.671E+03
CGA:  50    -0.293835649813E+03   -0.22028E+02   -0.15235E+02 10584   0.214E+04-0.121E+04
CGA:  51    -0.286388890346E+03    0.74468E+01   -0.38203E+02 10584   0.354E+04-0.300E+04
CGA:  52    -0.279790588596E+03    0.65983E+01   -0.66912E+02 10584   0.305E+04-0.282E+04
CGA:  53    -0.281100600680E+03   -0.13100E+01   -0.56396E+02 10584   0.383E+04-0.379E+04
CGA:  54    -0.281226220666E+03   -0.12562E+00   -0.69906E+02 10584   0.375E+04-0.380E+04
CGA:  55    -0.283178045709E+03   -0.19518E+01   -0.66636E+02 10584   0.382E+04-0.397E+04
CGA:  56    -0.287242570655E+03   -0.40645E+01   -0.65725E+02 10584   0.354E+04-0.372E+04
CGA:  57    -0.292721974258E+03   -0.54794E+01   -0.58090E+02 10584   0.314E+04-0.357E+04
CGA:  58    -0.297838033313E+03   -0.51161E+01   -0.48498E+02 10584   0.286E+04-0.304E+04
CGA:  59    -0.302393276705E+03   -0.45552E+01   -0.41383E+02 10584   0.242E+04-0.286E+04
CGA:  60    -0.306368081980E+03   -0.39748E+01   -0.32412E+02 10584   0.242E+04-0.260E+04
CGA:  61    -0.312171878604E+03   -0.58038E+01   -0.30770E+02 10584   0.151E+04-0.192E+04
CGA:  62    -0.317563641615E+03   -0.53918E+01   -0.17388E+02 10584   0.181E+04-0.191E+04
CGA:  63    -0.314348474846E+03    0.32152E+01   -0.23141E+02 10584   0.909E+03-0.690E+03
CGA:  64    -0.335906690374E+03   -0.21558E+02   -0.43915E+01 10584   0.761E+03 0.125E+04
CGA:  65    -0.334955794503E+03    0.95090E+00   -0.67472E+01 10584   0.975E+03-0.618E+03
CGA:  66    -0.327216290013E+03    0.77395E+01   -0.98846E+01 10584   0.238E+04-0.129E+04
CGA:  67    -0.313187876609E+03    0.14028E+02   -0.27379E+02 10584   0.142E+04-0.909E+03
CGA:  68    -0.330852139133E+03   -0.17664E+02   -0.10276E+02 10584   0.190E+04-0.210E+04
CGA:  69    -0.321026045539E+03    0.98261E+01   -0.18780E+02 10584   0.267E+04-0.178E+04
CGA:  70    -0.314917159209E+03    0.61089E+01   -0.28995E+02 10584   0.965E+03-0.697E+03
CGA:  71    -0.338194591051E+03   -0.23277E+02   -0.57548E+01 10584   0.163E+03-0.525E+02
CGA:  72    -0.338536439845E+03   -0.34185E+00   -0.55226E+00 10584   0.145E+03-0.566E+02
CGA:  73    -0.338741915012E+03   -0.20548E+00   -0.27702E+00 10584   0.987E+02-0.260E+02
CGA:  74    -0.338869909055E+03   -0.12799E+00   -0.21128E+00 10584   0.481E+02-0.319E+02
CGA:  75    -0.338952618837E+03   -0.82710E-01   -0.97074E-01 10584   0.447E+02-0.501E+01
CGA:  76    -0.339073199608E+03   -0.12058E+00   -0.15816E+00 10584   0.339E+02-0.880E+01
CGA:  77    -0.339135729227E+03   -0.62530E-01   -0.10681E+00 10584   0.187E+02-0.979E+01
CGA:  78    -0.339196775716E+03   -0.61046E-01   -0.66917E-01 10584   0.199E+02-0.152E+01
CGA:  79    -0.339313419371E+03   -0.11664E+00   -0.13458E+00 10584   0.159E+02-0.241E+01
CGA:  80    -0.339385793098E+03   -0.72374E-01   -0.82301E-01 10584   0.107E+02-0.205E+01
CGA:  81    -0.339498166056E+03   -0.11237E+00   -0.11742E+00 10584   0.152E+02 0.503E-01
CGA:  82    -0.339613391358E+03   -0.11523E+00   -0.11268E+00 10584   0.525E+01 0.187E+00
CGA:  83    -0.339711013286E+03   -0.97622E-01   -0.97533E-01 10584   0.689E+01-0.100E+00
CGA:  84    -0.339797938672E+03   -0.86925E-01   -0.90630E-01 10584   0.451E+01 0.340E+00
CGA:  85    -0.339911921855E+03   -0.11398E+00   -0.12088E+00 10584   0.310E+01-0.649E+00
CGA:  86    -0.340023708212E+03   -0.11179E+00   -0.10724E+00 10584   0.157E+01 0.139E+00
CGA:  87    -0.340060865634E+03   -0.37157E-01   -0.36622E-01 10584   0.990E+00 0.546E-01
CGA:  88    -0.340098058336E+03   -0.37193E-01   -0.39272E-01 10584   0.223E+01-0.827E-01
CGA:  89    -0.340178269738E+03   -0.80211E-01   -0.85839E-01 10584   0.213E+01-0.300E+00
CGA:  90    -0.340211532615E+03   -0.33263E-01   -0.33293E-01 10584   0.343E+00-0.271E-01
CGA:  91    -0.340221779832E+03   -0.10247E-01   -0.11451E-01 10584   0.797E+00-0.867E-01
CGA:  92    -0.340246564142E+03   -0.24784E-01    0.34075E+00 10584   0.831E+00 0.453E+00
CGA:  93    -0.340258414509E+03   -0.11850E-01   -0.11751E-01 10584   0.170E+00-0.841E-02
CGA:  94    -0.340265622605E+03   -0.72081E-02    0.25683E-01 10584   0.145E+00 0.146E+00
CGA:  95    -0.340270526457E+03   -0.49039E-02   -0.15885E-02 10584   0.184E+01-0.115E+00
CGA:  96    -0.340295831331E+03   -0.25305E-01   -0.24509E-01 10584   0.703E-01 0.639E-01
CGA:  97    -0.340294867719E+03    0.96361E-03   -0.30074E-02 10584   0.210E+01-0.916E-01
CGA:  98    -0.340326277738E+03   -0.31410E-01   -0.38100E-01 10584   0.144E+00-0.396E+00
CGA:  99    -0.340329921861E+03   -0.36441E-02   -0.35917E-02 10584   0.682E-01 0.186E-02
CGA: 100    -0.340329159937E+03    0.76192E-03   -0.54859E-02 10584   0.292E+01-0.756E-01
CGA: 101    -0.340374165346E+03   -0.45005E-01   -0.46798E-01 10584   0.251E-01-0.798E-01
CGA: 102    -0.340376952861E+03   -0.27875E-02   -0.31808E-02 10584   0.272E+00-0.171E-01
CGA: 103    -0.340380764377E+03   -0.38115E-02   -0.39189E-02 10584   0.183E-01 0.344E-01
CGA: 104    -0.340382074496E+03   -0.13101E-02   -0.12753E-02 10584   0.779E-01-0.625E-03
CGA: 105    -0.340406119144E+03   -0.24045E-01   -0.33117E-03 10584   0.208E+01-0.342E-01
CGA: 106    -0.340412913767E+03   -0.67946E-02   -0.99823E-02 10584   0.761E+00-0.135E+01
CGA: 107    -0.340431305581E+03   -0.18392E-01   -0.18451E-01 10584   0.112E+00-0.591E-01
CGA: 108    -0.340447159322E+03   -0.15854E-01   -0.15942E-01 10584   0.344E+00 0.867E-02
CGA: 109    -0.340465806000E+03   -0.18647E-01   -0.19084E-01 10584   0.139E+00 0.277E-01
CGA: 110    -0.340477497467E+03   -0.11691E-01   -0.12404E-01 10584   0.219E+00 0.146E-01
CGA: 111    -0.340493442945E+03   -0.15945E-01   -0.17748E-01 10584   0.132E+00 0.251E-01
CGA: 112    -0.340498038860E+03   -0.45959E-02   -0.52187E-02 10584   0.477E-01 0.230E-01
CGA: 113    -0.340505779021E+03   -0.77402E-02   -0.77840E-02 10584   0.180E+00 0.477E-02
CGA: 114    -0.340517609068E+03   -0.11830E-01   -0.11480E-01 10584   0.480E-01 0.392E-01
CGA: 115    -0.340520468706E+03   -0.28596E-02   -0.33902E-02 10584   0.699E-01 0.255E-02
CGA: 116    -0.340529994479E+03   -0.95258E-02   -0.95755E-02 10584   0.225E+00 0.623E-02
CGA: 117    -0.340543014691E+03   -0.13020E-01   -0.11422E-01 10584   0.596E-01 0.186E-01
CGA: 118    -0.340548699394E+03   -0.56847E-02   -0.61262E-02 10584   0.174E+00 0.412E-02
CGA: 119    -0.340559237655E+03   -0.10538E-01   -0.91768E-02 10584   0.975E-01 0.250E-01
CGA: 120    -0.340566578998E+03   -0.73413E-02   -0.67459E-02 10584   0.140E+00-0.186E-01
CGA: 121    -0.340572273032E+03   -0.56940E-02   -0.41166E-02 10584   0.609E-01 0.176E-01
CGA: 122    -0.340577727662E+03   -0.54546E-02   -0.53448E-02 10584   0.156E+00-0.139E-02
CGA: 123    -0.340584457050E+03   -0.67294E-02   -0.71923E-02 10584   0.116E+00-0.337E-01
CGA: 124    -0.340593897502E+03   -0.94405E-02   -0.90750E-02 10584   0.109E+00-0.326E-01
CGA: 125    -0.340596715777E+03   -0.28183E-02   -0.19663E-02 10584   0.320E-01 0.682E-05
CGA: 126    -0.340599629720E+03   -0.29139E-02   -0.27475E-02 10584   0.136E+00-0.881E-02
CGA: 127    -0.340605994224E+03   -0.63645E-02   -0.46343E-02 10584   0.171E+00-0.697E-02
CGA: 128    -0.340609770855E+03   -0.37766E-02   -0.28550E-02 10584   0.476E-01 0.381E-02
CGA: 129    -0.340611372102E+03   -0.16012E-02   -0.12788E-02 10584   0.442E-01-0.880E-02
CGA: 130    -0.340614669373E+03   -0.32973E-02   -0.31680E-02 10584   0.162E+00-0.143E-01
CGA: 131    -0.340616516348E+03   -0.18470E-02   -0.11206E-02 10584   0.109E+00 0.406E-01
CGA: 132    -0.340618159710E+03   -0.16434E-02   -0.13138E-02 10584   0.377E-01 0.323E-01
CGA: 133    -0.340618873220E+03   -0.71351E-03   -0.67671E-03 10584   0.296E-01 0.365E-02
CGA: 134    -0.340619786601E+03   -0.91338E-03   -0.79585E-03 10584   0.592E-01-0.230E-02
CGA: 135    -0.340621207501E+03   -0.14209E-02   -0.11928E-02 10584   0.838E-01-0.117E-01
CGA: 136    -0.340622426875E+03   -0.12194E-02   -0.10437E-02 10584   0.694E-01-0.173E-01
SDA: 137    -0.340623256986E+03   -0.83011E-03   -0.87041E-03 10584   0.694E-01-0.754E-02
CGA: 138    -0.340625431293E+03   -0.21743E-02   -0.25770E-02 10584   0.295E-01 0.144E-01
CGA: 139    -0.340626493151E+03   -0.10619E-02   -0.11914E-02 10584   0.697E-02 0.405E-02
CGA: 140    -0.340626974502E+03   -0.48135E-03   -0.50568E-03 10584   0.782E-02 0.544E-02
CGA: 141    -0.340627870319E+03   -0.89582E-03   -0.98347E-03 10584   0.227E-01-0.148E-02
CGA: 142    -0.340628805967E+03   -0.93565E-03   -0.99913E-03 10584   0.210E-01 0.391E-02
CGA: 143    -0.340630193976E+03   -0.13880E-02   -0.14863E-02 10584   0.239E-01 0.108E-01
CGA: 144    -0.340630683879E+03   -0.48990E-03   -0.59291E-03 10584   0.399E-02 0.255E-02
CGA: 145    -0.340630764815E+03   -0.80936E-04   -0.16318E-03 10584   0.292E-02 0.279E-02
CGA: 146    -0.340630922308E+03   -0.15749E-03   -0.16754E-03 10584   0.383E-02 0.119E-02
CGA: 147    -0.340631355448E+03   -0.43314E-03   -0.39579E-03 10584   0.219E-02 0.476E-02
CGA: 148    -0.340631600076E+03   -0.24463E-03   -0.21379E-03 10584   0.468E-02 0.998E-03
CGA: 149    -0.340632138740E+03   -0.53866E-03   -0.50642E-03 10584   0.261E-02 0.475E-02
CGA: 150    -0.340632275235E+03   -0.13649E-03   -0.13962E-03 10584   0.407E-02 0.236E-03
CGA: 151    -0.340632352214E+03   -0.76979E-04   -0.17054E-03 10584   0.295E-02 0.336E-02
CGA: 152    -0.340632446588E+03   -0.94374E-04   -0.11264E-03 10584   0.235E-02 0.678E-03
CGA: 153    -0.340632511657E+03   -0.65069E-04   -0.17332E-03 10584   0.618E-01-0.275E-02
CGA: 154    -0.340633486984E+03   -0.97533E-03   -0.14594E-02 10584   0.138E-01 0.815E-02
CGA: 155    -0.340633829638E+03   -0.34265E-03   -0.47949E-03 10584   0.145E-02 0.261E-02
CGA: 156    -0.340633916587E+03   -0.86950E-04   -0.83050E-04 10584   0.286E-02-0.460E-04
CGA: 157    -0.340633977781E+03   -0.61193E-04   -0.14464E-03 10584   0.538E-02 0.170E-02
CGA: 158    -0.340634098666E+03   -0.12089E-03   -0.15326E-03 10584   0.205E-02 0.501E-03
CGA: 159    -0.340632811383E+03    0.12873E-02   -0.72420E-03 10584   0.874E-01-0.893E-02
CGA: 160    -0.340634438335E+03   -0.16270E-02   -0.21581E-02 10584   0.188E-01 0.116E-01
CGA: 161    -0.340634919182E+03   -0.48085E-03   -0.60202E-03 10584   0.109E-02 0.268E-02
CGA: 162    -0.340634998294E+03   -0.79112E-04   -0.76078E-04 10584   0.294E-02-0.581E-04
CGA: 163    -0.340635060018E+03   -0.61724E-04   -0.13945E-03 10584   0.525E-02 0.168E-02
CGA: 164    -0.340635193533E+03   -0.13351E-03   -0.15295E-03 10584   0.190E-02 0.312E-03
CGA: 165    -0.340625908739E+03    0.92848E-02   -0.52011E-02 10584   0.404E+00-0.200E-01
CGA: 166    -0.340634317649E+03   -0.84089E-02   -0.85265E-02 10584   0.683E-01 0.659E-01
CGA: 167    -0.340636285490E+03   -0.19678E-02   -0.20065E-02 10584   0.676E-02 0.168E-01
CGA: 168    -0.340636488983E+03   -0.20349E-03   -0.18361E-03 10584   0.108E-02-0.257E-03
CGA: 169    -0.340636468534E+03    0.20449E-04   -0.42258E-04 10584   0.849E-03 0.588E-03
CGA: 170    -0.340636757195E+03   -0.28866E-03    0.35791E-03 10584   0.207E-02 0.203E-03
CGA: 171    -0.340637112187E+03   -0.35499E-03   -0.36125E-03 10584   0.571E-02 0.161E-02
CGA: 172    -0.340637353352E+03   -0.24116E-03   -0.13751E-03 10584   0.140E-02-0.100E-02
CGA: 173    -0.340637346568E+03    0.67836E-05   -0.53512E-04 10584   0.689E-03 0.665E-03
CGA: 174    -0.340637586884E+03   -0.24032E-03   -0.19790E-03 10584   0.358E-02 0.706E-03
CGA: 175    -0.340637801474E+03   -0.21459E-03   -0.98411E-04 10584   0.162E-02-0.113E-02
CGA: 176    -0.340637913770E+03   -0.11230E-03   -0.12528E-03 10584   0.972E-03 0.709E-03
CGA: 177    -0.340637855905E+03    0.57866E-04   -0.45101E-03 10584   0.619E-01-0.263E-02
CGA: 178    -0.340638630975E+03   -0.77507E-03   -0.10385E-02 10584   0.119E-02 0.521E-02
CGA: 179    -0.340638647349E+03   -0.16374E-04   -0.34295E-04 10584   0.766E-03 0.182E-03
CGA: 180    -0.340638892763E+03   -0.24541E-03    0.71753E-03 10584   0.354E-02 0.454E-03
CGA: 181    -0.340638935227E+03   -0.42464E-04   -0.78421E-04 10584   0.588E-03 0.366E-03
CGA: 182    -0.340639003847E+03   -0.68619E-04   -0.72715E-04 10584   0.168E-02 0.364E-03
CGA: 183    -0.340639096048E+03   -0.92201E-04   -0.66738E-04 10584   0.128E-02-0.296E-03
CGA: 184    -0.340639385210E+03   -0.28916E-03    0.39441E-03 10584   0.205E-02 0.482E-03
CGA: 185    -0.340639620527E+03   -0.23532E-03   -0.26730E-03 10584   0.210E-02 0.136E-02
CGA: 186    -0.340639786302E+03   -0.16577E-03   -0.89740E-04 10584   0.228E-02-0.105E-02
CGA: 187    -0.340639787688E+03   -0.13859E-05   -0.45218E-04 10584   0.525E-03 0.501E-03
CGA: 188    -0.340639826352E+03   -0.38665E-04   -0.47992E-04 10584   0.180E-02 0.274E-03
CGA: 189    -0.340639938418E+03   -0.11207E-03   -0.68901E-04 10584   0.157E-02-0.644E-03
CGA: 190    -0.340640374766E+03   -0.43635E-03   -0.31359E-03 10584   0.625E-02 0.590E-03
CGA: 191    -0.340641015057E+03   -0.64029E-03   -0.55482E-03 10584   0.142E-01-0.225E-02
CGA: 192    -0.340642736369E+03   -0.17213E-02   -0.34813E-02 10584   0.156E+00-0.115E-01
CGA: 193    -0.340647760829E+03   -0.50245E-02   -0.50543E-02 10584   0.652E-02-0.117E-01
CGA: 194    -0.340648053605E+03   -0.29278E-03   -0.19002E-03 10584   0.195E-02-0.133E-02
CGA: 195    -0.340648094809E+03   -0.41204E-04   -0.89570E-04 10584   0.943E-03 0.831E-03
CGA: 196    -0.340648236639E+03   -0.14183E-03   -0.42609E-03 10584   0.300E-01-0.139E-02
CGA: 197    -0.340648800468E+03   -0.56383E-03   -0.61663E-03 10584   0.845E-03 0.276E-02
CGA: 198    -0.340648867786E+03   -0.67318E-04   -0.61918E-04 10584   0.226E-02-0.983E-04
CGA: 199    -0.340648192869E+03    0.67492E-03   -0.10327E-02 10584   0.722E-01-0.461E-02
CGA: 200    -0.340649910474E+03   -0.17176E-02   -0.18219E-02 10584   0.756E-02 0.348E-03
   1 F= -.34064991E+03 E0= -.34064174E+03  d E =-.340650E+03  mag=    14.0000
       N       E                     dE             d eps       ncg     rms          ort
SDA:   1    -0.340569975877E+03    0.78217E-01    0.00000E+00 10584   0.249E+01 0.000E+00
CGA:   2    -0.340643501011E+03   -0.73525E-01   -0.69875E-01 10584   0.383E+00 0.181E+00
CGA:   3    -0.340652016106E+03   -0.85151E-02   -0.74128E-02 10584   0.398E-01 0.123E+00
CGA:   4    -0.340652579126E+03   -0.56302E-03   -0.91218E-03 10584   0.663E-02 0.788E-02
CGA:   5    -0.340652822273E+03   -0.24315E-03   -0.37046E-03 10584   0.817E-02 0.210E-02
CGA:   6    -0.340653500473E+03   -0.67820E-03   -0.65003E-03 10584   0.901E-02-0.565E-03
CGA:   7    -0.340653804034E+03   -0.30356E-03   -0.29198E-03 10584   0.348E-02-0.147E-03
CGA:   8    -0.340653876970E+03   -0.72936E-04   -0.98366E-04 10584   0.265E-02 0.338E-03
CGA:   9    -0.340654166174E+03   -0.28920E-03   -0.28810E-03 10584   0.774E-02-0.308E-03
CGA:  10    -0.340654453205E+03   -0.28703E-03   -0.23285E-03 10584   0.445E-02-0.736E-03
CGA:  11    -0.340654517827E+03   -0.64623E-04   -0.89893E-04 10584   0.251E-02 0.434E-03
CGA:  12    -0.340654539194E+03   -0.21367E-04   -0.74666E-04 10584   0.274E-02 0.812E-03
CGA:  13    -0.340654739672E+03   -0.20048E-03   -0.22644E-03 10584   0.708E-02 0.809E-03
CGA:  14    -0.340655598082E+03   -0.85841E-03   -0.91182E-03 10584   0.108E-01-0.653E-02
CGA:  15    -0.340656236140E+03   -0.63806E-03   -0.62998E-03 10584   0.104E-01-0.224E-03
CGA:  16    -0.340657146494E+03   -0.91035E-03   -0.91067E-03 10584   0.641E-02-0.133E-02
CGA:  17    -0.340657174467E+03   -0.27973E-04   -0.13985E-03 10584   0.164E-02 0.177E-02
CGA:  18    -0.340657186456E+03   -0.11989E-04   -0.56286E-04 10584   0.116E-02 0.761E-03
CGA:  19    -0.340657375630E+03   -0.18917E-03   -0.20067E-03 10584   0.613E-02-0.336E-03
CGA:  20    -0.340657546295E+03   -0.17067E-03   -0.11358E-03 10584   0.939E-02-0.104E-02
CGA:  21    -0.340657777863E+03   -0.23157E-03   -0.14915E-03 10584   0.583E-02-0.186E-02
CGA:  22    -0.340657911270E+03   -0.13341E-03   -0.80121E-04 10584   0.374E-02-0.114E-02
CGA:  23    -0.340658044685E+03   -0.13342E-03   -0.85750E-04 10584   0.570E-02-0.114E-02
CGA:  24    -0.340658259590E+03   -0.21491E-03   -0.15179E-03 10584   0.134E-01-0.192E-02
CGA:  25    -0.340658540303E+03   -0.28071E-03   -0.18981E-03 10584   0.189E-01-0.874E-03
CGA:  26    -0.340658904539E+03   -0.36424E-03   -0.32807E-03 10584   0.172E-01 0.601E-03
CGA:  27    -0.340659116526E+03   -0.21199E-03   -0.30202E-03 10584   0.119E-01 0.222E-03
CGA:  28    -0.340659235669E+03   -0.11914E-03   -0.22278E-03 10584   0.111E-01 0.591E-03
CGA:  29    -0.340659684109E+03   -0.44844E-03   -0.50036E-03 10584   0.302E-01 0.872E-04
CGA:  30    -0.340307397910E+03    0.35229E+00   -0.13136E+00 10584   0.117E+02-0.134E+01
CGA:  31    -0.340490476175E+03   -0.18308E+00   -0.52692E+00 10584   0.448E+01-0.461E+01
CGA:  32    -0.340618512608E+03   -0.12804E+00   -0.11246E+00 10584   0.623E+00 0.347E+00
CGA:  33    -0.340641765003E+03   -0.23252E-01   -0.20796E-01 10584   0.193E+00 0.777E-01
CGA:  34    -0.340654334207E+03   -0.12569E-01   -0.12600E-01 10584   0.133E+00-0.138E-01
CGA:  35    -0.340663472155E+03   -0.91379E-02   -0.92792E-02 10584   0.180E+00 0.343E-02
CGA:  36    -0.340669654678E+03   -0.61825E-02   -0.64602E-02 10584   0.317E-01 0.357E-01
CGA:  37    -0.340670416979E+03   -0.76230E-03   -0.10913E-02 10584   0.175E-01 0.656E-02
CGA:  38    -0.340672516408E+03   -0.20994E-02   -0.20763E-02 10584   0.508E-01 0.377E-02
CGA:  39    -0.340675800091E+03   -0.32837E-02   -0.33895E-02 10584   0.310E-01 0.254E-03
CGA:  40    -0.340676919822E+03   -0.11197E-02   -0.13534E-02 10584   0.227E-01 0.391E-02
CGA:  41    -0.340677420570E+03   -0.50075E-03   -0.87871E-03 10584   0.129E-01 0.920E-02
CGA:  42    -0.340677809862E+03   -0.38929E-03   -0.67563E-03 10584   0.112E-01 0.667E-02
CGA:  43    -0.340678704764E+03   -0.89490E-03   -0.85918E-03 10584   0.186E-01-0.641E-02
CGA:  44    -0.340678901396E+03   -0.19663E-03   -0.43096E-03 10584   0.278E-02 0.448E-02
CGA:  45    -0.340678905038E+03   -0.36422E-05   -0.96951E-04 10584   0.237E-02 0.188E-02
CGA:  46    -0.340676856240E+03    0.20488E-02   -0.11284E-02 10584   0.157E+00-0.751E-02
CGA:  47    -0.340679973110E+03   -0.31169E-02   -0.35403E-02 10584   0.288E-02 0.152E-01
CGA:  48    -0.340680005863E+03   -0.32753E-04   -0.10247E-03 10584   0.179E-02 0.739E-03
CGA:  49    -0.340680407654E+03   -0.40179E-03   -0.41931E-03 10584   0.593E-02-0.218E-03
CGA:  50    -0.340680669060E+03   -0.26141E-03   -0.20593E-03 10584   0.418E-02-0.749E-03
CGA:  51    -0.340680825382E+03   -0.15632E-03   -0.21200E-03 10584   0.761E-02 0.110E-02
CGA:  52    -0.340681063285E+03   -0.23790E-03   -0.38715E-03 10584   0.691E-02 0.564E-02
CGA:  53    -0.340681572552E+03   -0.50927E-03   -0.45529E-03 10584   0.406E-02-0.947E-03
CGA:  54    -0.340681856097E+03   -0.28355E-03   -0.30446E-03 10584   0.141E-02 0.722E-03
CGA:  55    -0.340681831151E+03    0.24947E-04   -0.45744E-04 10584   0.612E-03 0.850E-03
CGA:  56    -0.340682155880E+03   -0.32473E-03   -0.23700E-07 10584   0.706E-02-0.174E-03
CGA:  57    -0.340682287155E+03   -0.13127E-03   -0.48115E-04 10584   0.609E-02 0.409E-02
CGA:  58    -0.340682805260E+03   -0.51811E-03   -0.34654E-03 10584   0.444E-02-0.158E-02
CGA:  59    -0.340682829924E+03   -0.24664E-04   -0.14449E-03 10584   0.189E-02 0.879E-03
CGA:  60    -0.340682803044E+03    0.26881E-04   -0.73669E-04 10584   0.752E-03 0.746E-03
CGA:  61    -0.340682845136E+03   -0.42092E-04   -0.52299E-04 10584   0.867E-03 0.843E-04
CGA:  62    -0.340683119876E+03   -0.27474E-03   -0.31535E-03 10584   0.115E-01-0.139E-03
CGA:  63    -0.340683172240E+03   -0.52365E-04   -0.37187E-04 10584   0.112E-01 0.867E-02
CGA:  64    -0.340683426704E+03   -0.25446E-03   -0.31455E-03 10584   0.147E-02 0.775E-03
CGA:  65    -0.340682431952E+03    0.99475E-03   -0.61712E-03 10584   0.606E-01-0.681E-02
CGA:  66    -0.340683862858E+03   -0.14309E-02   -0.16902E-02 10584   0.536E-02 0.134E-01
CGA:  67    -0.340683950725E+03   -0.87866E-04   -0.21004E-03 10584   0.148E-02 0.104E-02
CGA:  68    -0.340684032463E+03   -0.81739E-04   -0.11866E-03 10584   0.136E-02 0.413E-03
CGA:  69    -0.340684069094E+03   -0.36631E-04   -0.71444E-04 10584   0.320E-03 0.320E-03
CGA:  70    -0.340684129370E+03   -0.60276E-04   -0.81691E-04 10584   0.356E-02-0.346E-03
CGA:  71    -0.340684245242E+03   -0.11587E-03   -0.13094E-03 10584   0.414E-03 0.151E-03
CGA:  72    -0.340684246687E+03   -0.14449E-05   -0.21833E-04 10584   0.362E-03 0.223E-03
CGA:  73    -0.340684450855E+03   -0.20417E-03    0.24444E-04 10584   0.198E-02-0.224E-03
CGA:  74    -0.340684411990E+03    0.38865E-04   -0.37497E-04 10584   0.362E-03 0.671E-03
CGA:  75    -0.340684390815E+03    0.21175E-04   -0.82192E-05 10584   0.229E-03 0.259E-03
CGA:  76    -0.340684455921E+03   -0.65106E-04    0.12377E-03 10584   0.524E-03 0.115E-03
CGA:  77    -0.340684449760E+03    0.61609E-05   -0.13406E-04 10584   0.210E-03 0.194E-03
CGA:  78    -0.340684491660E+03   -0.41899E-04   -0.42382E-04 10584   0.167E-02-0.158E-04
CGA:  79    -0.340684678683E+03   -0.18702E-03   -0.14961E-03 10584   0.136E-01-0.123E-02
CGA:  80    -0.340685092847E+03   -0.41416E-03   -0.43014E-03 10584   0.701E-03-0.164E-04
CGA:  81    -0.340685068043E+03    0.24804E-04   -0.10885E-04 10584   0.230E-03 0.356E-03
CGA:  82    -0.340685057330E+03    0.10713E-04   -0.45226E-05 10584   0.156E-03 0.165E-03
CGA:  83    -0.340685080500E+03   -0.23170E-04   -0.20119E-04 10584   0.181E-03 0.144E-03
CGA:  84    -0.340685178475E+03   -0.97975E-04    0.65759E-05 10584   0.531E-03 0.425E-04
CGA:  85    -0.340685348250E+03   -0.16977E-03   -0.13485E-03 10584   0.122E-02 0.370E-03
CGA:  86    -0.340685438981E+03   -0.90731E-04   -0.51326E-04 10584   0.698E-03-0.566E-03
CGA:  87    -0.340685425937E+03    0.13045E-04   -0.91929E-05 10584   0.420E-03 0.262E-03
CGA:  88    -0.340685413582E+03    0.12355E-04   -0.10529E-04 10584   0.180E-03 0.262E-03
CGA:  89    -0.340685494316E+03   -0.80734E-04    0.75738E-05 10584   0.355E-03 0.287E-04
CGA:  90    -0.340685578827E+03   -0.84511E-04   -0.65617E-04 10584   0.523E-03 0.329E-03
CGA:  91    -0.340685637550E+03   -0.58723E-04   -0.40827E-04 10584   0.194E-02-0.690E-03
CGA:  92    -0.340685627334E+03    0.10217E-04   -0.34970E-04 10584   0.235E-03 0.535E-03
CGA:  93    -0.340685623185E+03    0.41486E-05   -0.56771E-05 10584   0.138E-03 0.123E-03
   2 F= -.34068562E+03 E0= -.34067870E+03  d E =-.357127E-01  mag=    14.0000
       N       E                     dE             d eps       ncg     rms          ort
SDA:   1    -0.340673668923E+03    0.11958E-01    0.00000E+00 10584   0.305E+00 0.000E+00
CGA:   2    -0.340682451619E+03   -0.87827E-02   -0.83822E-02 10584   0.322E-01-0.408E-01
CGA:   3    -0.340684334157E+03   -0.18825E-02   -0.19528E-02 10584   0.247E-01 0.339E-02
CGA:   4    -0.340687785946E+03   -0.34518E-02   -0.37440E-02 10584   0.442E-01-0.635E-02
CGA:   5    -0.340688678868E+03   -0.89292E-03   -0.10901E-02 10584   0.774E-02 0.347E-02
CGA:   6    -0.340688884351E+03   -0.20548E-03   -0.26145E-03 10584   0.431E-02 0.100E-02
CGA:   7    -0.340689354376E+03   -0.47003E-03   -0.54812E-03 10584   0.122E-01-0.301E-02
CGA:   8    -0.340689582108E+03   -0.22773E-03   -0.35156E-03 10584   0.816E-03 0.243E-02
CGA:   9    -0.340689590280E+03   -0.81722E-05   -0.29412E-04 10584   0.416E-03 0.389E-03
CGA:  10    -0.340689629547E+03   -0.39267E-04   -0.42706E-04 10584   0.695E-03 0.269E-03
CGA:  11    -0.340689591923E+03    0.37623E-04   -0.12093E-03 10584   0.800E-02-0.171E-02
CGA:  12    -0.340689791140E+03   -0.19922E-03   -0.24429E-03 10584   0.318E-03 0.821E-03
CGA:  13    -0.340689779047E+03    0.12093E-04   -0.48081E-05 10584   0.182E-03 0.244E-03
CGA:  14    -0.340689773332E+03    0.57152E-05   -0.36232E-05 10584   0.147E-03 0.156E-03
CGA:  15    -0.340689784397E+03   -0.11065E-04   -0.11205E-04 10584   0.141E-03 0.133E-03
CGA:  16    -0.340689823391E+03   -0.38994E-04    0.67460E-05 10584   0.141E-03 0.120E-03
CGA:  17    -0.340689820250E+03    0.31409E-05   -0.34956E-05 10584   0.125E-03 0.127E-03
CGA:  18    -0.340689928735E+03   -0.10848E-03   -0.18013E-03 10584   0.241E-03 0.960E-04
CGA:  19    -0.340689943445E+03   -0.14710E-04   -0.13381E-04 10584   0.212E-03-0.162E-04
CGA:  20    -0.340690054299E+03   -0.11085E-03    0.11539E-04 10584   0.515E-03 0.984E-04
CGA:  21    -0.340690086210E+03   -0.31911E-04   -0.56475E-04 10584   0.133E-03 0.440E-03
CGA:  22    -0.340690161648E+03   -0.75438E-04    0.70642E-05 10584   0.451E-03-0.341E-04
CGA:  23    -0.340690252381E+03   -0.90733E-04    0.41947E-03 10584   0.117E-02 0.234E-03
CGA:  24    -0.340690259677E+03   -0.72959E-05   -0.32679E-04 10584   0.117E-03 0.257E-03
   3 F= -.34069026E+03 E0= -.34068334E+03  d E =-.463649E-02  mag=    14.0000
       N       E                     dE             d eps       ncg     rms          ort
SDA:   1    -0.340651566832E+03    0.38686E-01    0.00000E+00 10584   0.116E+00 0.000E+00
CGA:   2    -0.340672477578E+03   -0.20911E-01   -0.21148E-01 10584   0.257E+00-0.361E-02
CGA:   3    -0.340686628218E+03   -0.14151E-01   -0.14192E-01 10584   0.800E-01-0.647E-02
CGA:   4    -0.340689271008E+03   -0.26428E-02   -0.30470E-02 10584   0.336E-01 0.106E-01
CGA:   5    -0.340693725252E+03   -0.44542E-02   -0.44560E-02 10584   0.141E-01-0.705E-03
CGA:   6    -0.340694680911E+03   -0.95566E-03   -0.78529E-03 10584   0.162E-01-0.318E-02
CGA:   7    -0.340695264699E+03   -0.58379E-03   -0.69655E-03 10584   0.559E-02 0.205E-02
CGA:   8    -0.340695351787E+03   -0.87089E-04   -0.17386E-03 10584   0.197E-02 0.114E-02
CGA:   9    -0.340695609828E+03   -0.25804E-03   -0.26908E-03 10584   0.656E-02-0.126E-02
CGA:  10    -0.340695773150E+03   -0.16332E-03   -0.19950E-03 10584   0.425E-03 0.498E-03
CGA:  11    -0.340695789872E+03   -0.16723E-04   -0.28286E-04 10584   0.414E-03 0.292E-03
CGA:  12    -0.340695896876E+03   -0.10700E-03    0.69431E-04 10584   0.871E-03-0.481E-04
CGA:  13    -0.340695959400E+03   -0.62524E-04   -0.66873E-04 10584   0.595E-03 0.342E-03
CGA:  14    -0.340695977398E+03   -0.17998E-04   -0.30893E-04 10584   0.157E-03 0.208E-03
CGA:  15    -0.340696005964E+03   -0.28565E-04   -0.12268E-04 10584   0.519E-02-0.201E-03
CGA:  16    -0.340696096647E+03   -0.90684E-04   -0.13863E-03 10584   0.360E-03 0.430E-03
CGA:  17    -0.340695270054E+03    0.82659E-03   -0.17564E-03 10584   0.462E-01-0.350E-02
CGA:  18    -0.340696196539E+03   -0.92649E-03   -0.11584E-02 10584   0.301E-02 0.945E-02
CGA:  19    -0.340696227984E+03   -0.31445E-04   -0.90581E-04 10584   0.165E-03 0.451E-03
CGA:  20    -0.340696249051E+03   -0.21067E-04   -0.12894E-04 10584   0.371E-03-0.846E-04
CGA:  21    -0.340696241969E+03    0.70829E-05   -0.85204E-05 10584   0.834E-04 0.113E-03
   4 F= -.34069624E+03 E0= -.34068932E+03  d E =-.598229E-02  mag=    14.0000
       N       E                     dE             d eps       ncg     rms          ort
SDA:   1    -0.340660978256E+03    0.35271E-01    0.00000E+00 10584   0.423E+00 0.000E+00
CGA:   2    -0.340673498975E+03   -0.12521E-01   -0.12020E-01 10584   0.791E-01 0.415E-01
CGA:   3    -0.340682308914E+03   -0.88099E-02   -0.86481E-02 10584   0.154E+00-0.680E-02
CGA:   4    -0.340693699887E+03   -0.11391E-01   -0.11348E-01 10584   0.819E-01-0.801E-03
CGA:   5    -0.340695434706E+03   -0.17348E-02   -0.20052E-02 10584   0.191E-01 0.144E-01
CGA:   6    -0.340696278450E+03   -0.84374E-03   -0.10784E-02 10584   0.237E-01 0.343E-02
CGA:   7    -0.340698059206E+03   -0.17808E-02   -0.16934E-02 10584   0.130E-01-0.134E-02
CGA:   8    -0.340698650758E+03   -0.59155E-03   -0.45177E-03 10584   0.449E-02-0.182E-02
CGA:   9    -0.340698777815E+03   -0.12706E-03   -0.16742E-03 10584   0.408E-02 0.527E-03
CGA:  10    -0.340699030416E+03   -0.25260E-03   -0.29030E-03 10584   0.179E-02 0.706E-03
CGA:  11    -0.340699190942E+03   -0.16053E-03   -0.10299E-03 10584   0.175E-02-0.898E-03
CGA:  12    -0.340699180083E+03    0.10858E-04   -0.39078E-04 10584   0.457E-03 0.562E-03
CGA:  13    -0.340699195980E+03   -0.15897E-04   -0.28948E-04 10584   0.628E-03 0.221E-03
CGA:  14    -0.340698960231E+03    0.23575E-03   -0.28126E-03 10584   0.947E-02-0.260E-02
CGA:  15    -0.340699013717E+03   -0.53487E-04   -0.23598E-03 10584   0.200E-02 0.237E-02
CGA:  16    -0.340699081939E+03   -0.68221E-04   -0.12064E-03 10584   0.180E-02 0.870E-03
CGA:  17    -0.340699366704E+03   -0.28477E-03   -0.30566E-03 10584   0.483E-02-0.182E-02
CGA:  18    -0.340699373389E+03   -0.66841E-05   -0.95591E-04 10584   0.431E-03 0.104E-02
CGA:  19    -0.340699372583E+03    0.80600E-06   -0.12844E-04 10584   0.231E-03 0.175E-03
CGA:  20    -0.340699437983E+03   -0.65401E-04    0.92142E-03 10584   0.734E-03-0.105E-03
CGA:  21    -0.340699475758E+03   -0.37774E-04   -0.13586E-04 10584   0.973E-03-0.372E-03
CGA:  22    -0.340699468556E+03    0.72021E-05   -0.21694E-04 10584   0.193E-03 0.400E-03
   5 F= -.34069947E+03 E0= -.34069252E+03  d E =-.322659E-02  mag=    14.0000
       N       E                     dE             d eps       ncg     rms          ort
SDA:   1    -0.340422254831E+03    0.27722E+00    0.00000E+00 10584   0.815E+00 0.000E+00
CGA:   2    -0.340550765315E+03   -0.12851E+00   -0.12752E+00 10584   0.135E+01 0.118E-01
CGA:   3    -0.340653470436E+03   -0.10271E+00   -0.10104E+00 10584   0.278E+00 0.133E-02
CGA:   4    -0.340684786835E+03   -0.31316E-01   -0.31590E-01 10584   0.363E+00-0.143E-01
CGA:   5    -0.340696566103E+03   -0.11779E-01   -0.12307E-01 10584   0.583E-01 0.210E-01
CGA:   6    -0.340701499760E+03   -0.49337E-02   -0.49630E-02 10584   0.624E-01 0.402E-02
CGA:   7    -0.340705381556E+03   -0.38818E-02   -0.37194E-02 10584   0.249E-01-0.601E-02
CGA:   8    -0.340705894728E+03   -0.51317E-03   -0.68704E-03 10584   0.708E-02 0.352E-02
CGA:   9    -0.340706351521E+03   -0.45679E-03   -0.50537E-03 10584   0.907E-02 0.226E-02
CGA:  10    -0.340707222117E+03   -0.87060E-03   -0.82147E-03 10584   0.587E-02-0.347E-02
CGA:  11    -0.340707260416E+03   -0.38300E-04   -0.98195E-04 10584   0.256E-02 0.111E-02
CGA:  12    -0.340707266098E+03   -0.56813E-05   -0.68802E-04 10584   0.158E-02 0.113E-02
CGA:  13    -0.340707371239E+03   -0.10514E-03   -0.12272E-03 10584   0.243E-02 0.772E-03
CGA:  14    -0.340707638586E+03   -0.26735E-03   -0.26028E-03 10584   0.176E-02-0.196E-02
CGA:  15    -0.340707624180E+03    0.14406E-04   -0.34338E-04 10584   0.659E-03 0.880E-03
CGA:  16    -0.340707665861E+03   -0.41680E-04   -0.44014E-04 10584   0.388E-03 0.405E-03
CGA:  17    -0.340707758582E+03   -0.92722E-04    0.21355E-04 10584   0.467E-03 0.108E-03
CGA:  18    -0.340707762728E+03   -0.41460E-05   -0.19874E-04 10584   0.180E-03 0.404E-03
   6 F= -.34070776E+03 E0= -.34070071E+03  d E =-.829417E-02  mag=    14.0000
       N       E                     dE             d eps       ncg     rms          ort
SDA:   1    -0.339902675962E+03    0.80508E+00    0.00000E+00 10584   0.204E+01 0.000E+00
CGA:   2    -0.340419050489E+03   -0.51637E+00   -0.51644E+00 10584   0.275E+01 0.111E-01
CGA:   3    -0.340579251154E+03   -0.16020E+00   -0.15081E+00 10584   0.742E+00 0.454E-01
CGA:   4    -0.340666227938E+03   -0.86977E-01   -0.87299E-01 10584   0.559E+00-0.108E-01
CGA:   5    -0.340686968504E+03   -0.20741E-01   -0.20892E-01 10584   0.154E+00 0.270E-01
CGA:   6    -0.340702821109E+03   -0.15853E-01   -0.16036E-01 10584   0.152E+00-0.847E-02
CGA:   7    -0.340709555292E+03   -0.67342E-02   -0.68684E-02 10584   0.220E-01 0.627E-02
CGA:   8    -0.340711208458E+03   -0.16532E-02   -0.16665E-02 10584   0.257E-01 0.507E-02
CGA:   9    -0.340713828177E+03   -0.26197E-02   -0.26771E-02 10584   0.134E-01-0.636E-02
CGA:  10    -0.340714003097E+03   -0.17492E-03   -0.28995E-03 10584   0.518E-02 0.247E-02
CGA:  11    -0.340714247771E+03   -0.24467E-03   -0.29688E-03 10584   0.653E-02 0.209E-02
CGA:  12    -0.340715031470E+03   -0.78370E-03   -0.84565E-03 10584   0.486E-02-0.310E-02
CGA:  13    -0.340715056463E+03   -0.24992E-04   -0.55514E-04 10584   0.268E-02 0.615E-03
CGA:  14    -0.340715078524E+03   -0.22061E-04   -0.67162E-04 10584   0.186E-02 0.964E-03
CGA:  15    -0.340715204806E+03   -0.12628E-03   -0.13661E-03 10584   0.350E-02 0.732E-03
CGA:  16    -0.340715534411E+03   -0.32961E-03   -0.32950E-03 10584   0.175E-02-0.177E-02
CGA:  17    -0.340715552629E+03   -0.18218E-04   -0.47698E-04 10584   0.586E-03 0.743E-03
CGA:  18    -0.340715589757E+03   -0.37127E-04   -0.42086E-04 10584   0.666E-03 0.330E-03
CGA:  19    -0.340715678932E+03   -0.89175E-04    0.63383E-03 10584   0.692E-03-0.146E-03
CGA:  20    -0.340715691807E+03   -0.12875E-04   -0.22026E-04 10584   0.482E-03 0.382E-03
CGA:  21    -0.340715697111E+03   -0.53044E-05   -0.12510E-04 10584   0.139E-03 0.193E-03
   7 F= -.34071570E+03 E0= -.34070871E+03  d E =-.793438E-02  mag=    14.0000
       N       E                     dE             d eps       ncg     rms          ort
SDA:   1    -0.340150288050E+03    0.56540E+00    0.00000E+00 10584   0.146E+01 0.000E+00
CGA:   2    -0.340476793561E+03   -0.32651E+00   -0.32542E+00 10584   0.272E+01 0.138E-01
CGA:   3    -0.340627568716E+03   -0.15078E+00   -0.15028E+00 10584   0.530E+00 0.643E-02
CGA:   4    -0.340668944259E+03   -0.41376E-01   -0.41204E-01 10584   0.652E+00 0.253E-01
CGA:   5    -0.340702457252E+03   -0.33513E-01   -0.33390E-01 10584   0.139E+00-0.282E-01
CGA:   6    -0.340711827128E+03   -0.93699E-02   -0.93598E-02 10584   0.790E-01 0.598E-02
CGA:   7    -0.340718975534E+03   -0.71484E-02   -0.71899E-02 10584   0.231E-01-0.236E-02
CGA:   8    -0.340719990877E+03   -0.10153E-02   -0.11065E-02 10584   0.120E-01 0.496E-02
CGA:   9    -0.340721393663E+03   -0.14028E-02   -0.22152E-02 10584   0.502E-01-0.961E-02
CGA:  10    -0.340722166551E+03   -0.77289E-03   -0.10759E-02 10584   0.398E-02 0.849E-02
CGA:  11    -0.340722257283E+03   -0.90732E-04   -0.14083E-03 10584   0.219E-02 0.132E-02
CGA:  12    -0.340722527782E+03   -0.27050E-03   -0.36688E-03 10584   0.103E-01-0.165E-02
CGA:  13    -0.340722736978E+03   -0.20920E-03   -0.27164E-03 10584   0.940E-03 0.160E-02
CGA:  14    -0.340722666605E+03    0.70373E-04   -0.18718E-03 10584   0.139E-01-0.246E-02
CGA:  15    -0.340722947136E+03   -0.28053E-03   -0.37277E-03 10584   0.759E-03 0.221E-02
CGA:  16    -0.340722982807E+03   -0.35671E-04   -0.36088E-04 10584   0.473E-03 0.114E-04
CGA:  17    -0.340723036017E+03   -0.53210E-04   -0.45119E-04 10584   0.791E-03 0.328E-03
CGA:  18    -0.340723073122E+03   -0.37105E-04   -0.37073E-04 10584   0.323E-03-0.328E-06
CGA:  19    -0.340723132704E+03   -0.59582E-04    0.34156E-04 10584   0.322E-03 0.263E-03
CGA:  20    -0.340723125770E+03    0.69343E-05   -0.56540E-05 10584   0.213E-03 0.243E-03
   8 F= -.34072313E+03 E0= -.34071594E+03  d E =-.742866E-02  mag=    14.0000
       N       E                     dE             d eps       ncg     rms          ort
SDA:   1    -0.340498871335E+03    0.22426E+00    0.00000E+00 10584   0.585E+00 0.000E+00
CGA:   2    -0.340604741823E+03   -0.10587E+00   -0.10993E+00 10584   0.196E+01-0.283E-01
CGA:   3    -0.340678915910E+03   -0.74174E-01   -0.73105E-01 10584   0.235E+00 0.779E-01
CGA:   4    -0.340697705813E+03   -0.18790E-01   -0.18696E-01 10584   0.321E+00 0.182E-01
CGA:   5    -0.340713849720E+03   -0.16144E-01   -0.15761E-01 10584   0.810E-01-0.193E-01
CGA:   6    -0.340718328881E+03   -0.44792E-02   -0.44954E-02 10584   0.371E-01 0.262E-02
CGA:   7    -0.340722262182E+03   -0.39333E-02   -0.38584E-02 10584   0.790E-02 0.235E-02
CGA:   8    -0.340723059886E+03   -0.79770E-03   -0.10471E-02 10584   0.284E-01-0.458E-02
CGA:   9    -0.340723470570E+03   -0.41068E-03   -0.61441E-03 10584   0.268E-02 0.479E-02
CGA:  10    -0.340723584168E+03   -0.11360E-03   -0.12835E-03 10584   0.226E-02 0.520E-03
CGA:  11    -0.340720814076E+03    0.27701E-02   -0.15116E-02 10584   0.980E-01-0.104E-01
CGA:  12    -0.340722680007E+03   -0.18659E-02   -0.22091E-02 10584   0.103E-01 0.152E-01
CGA:  13    -0.340723194163E+03   -0.51416E-03   -0.60188E-03 10584   0.931E-02 0.135E-02
CGA:  14    -0.340724091881E+03   -0.89772E-03   -0.80822E-03 10584   0.101E-01-0.226E-02
CGA:  15    -0.340724195437E+03   -0.10356E-03   -0.17017E-03 10584   0.257E-02 0.813E-03
CGA:  16    -0.340724178731E+03    0.16706E-04   -0.41098E-04 10584   0.752E-03 0.623E-03
CGA:  17    -0.340724171162E+03    0.75693E-05   -0.19563E-04 10584   0.681E-03 0.321E-03
CGA:  18    -0.340724223591E+03   -0.52429E-04   -0.54428E-04 10584   0.142E-02 0.443E-04
CGA:  19    -0.340724315690E+03   -0.92099E-04   -0.57781E-04 10584   0.139E-02-0.566E-03
CGA:  20    -0.340724325647E+03   -0.99572E-05   -0.10514E-04 10584   0.899E-03 0.237E-05
   9 F= -.34072433E+03 E0= -.34071693E+03  d E =-.119988E-02  mag=    14.0000
       N       E                     dE             d eps       ncg     rms          ort
SDA:   1    -0.340510264269E+03    0.21405E+00    0.00000E+00 10584   0.108E+01 0.000E+00
CGA:   2    -0.340562385339E+03   -0.52121E-01   -0.57087E-01 10584   0.883E+00-0.613E-01
CGA:   3    -0.340631262051E+03   -0.68877E-01   -0.68902E-01 10584   0.114E+01 0.201E-01
CGA:   4    -0.340699184232E+03   -0.67922E-01   -0.69407E-01 10584   0.162E+00-0.352E-03
CGA:   5    -0.340711064018E+03   -0.11880E-01   -0.11812E-01 10584   0.185E+00-0.115E-01
CGA:   6    -0.340718531239E+03   -0.74672E-02   -0.79157E-02 10584   0.733E-01 0.139E-01
CGA:   7    -0.340722075250E+03   -0.35440E-02   -0.36302E-02 10584   0.235E-01 0.210E-02
CGA:   8    -0.340723739904E+03   -0.16647E-02   -0.15648E-02 10584   0.363E-01-0.681E-02
CGA:   9    -0.340724697673E+03   -0.95777E-03   -0.10611E-02 10584   0.168E-01 0.289E-02
CGA:  10    -0.340724907681E+03   -0.21001E-03   -0.37499E-03 10584   0.437E-02 0.315E-02
CGA:  11    -0.340725076910E+03   -0.16923E-03   -0.17593E-03 10584   0.311E-02 0.201E-03
CGA:  12    -0.340724968568E+03    0.10834E-03   -0.54183E-03 10584   0.447E-01-0.691E-02
CGA:  13    -0.340725602637E+03   -0.63407E-03   -0.91040E-03 10584   0.232E-02 0.696E-02
CGA:  14    -0.340725629725E+03   -0.27088E-04   -0.59695E-04 10584   0.555E-03 0.644E-03
CGA:  15    -0.340725679314E+03   -0.49588E-04   -0.73645E-04 10584   0.348E-02-0.750E-03
CGA:  16    -0.340725728218E+03   -0.48904E-04   -0.82365E-04 10584   0.293E-03 0.717E-03
CGA:  17    -0.340725749483E+03   -0.21266E-04   -0.19317E-04 10584   0.450E-03-0.117E-03
CGA:  18    -0.340725738449E+03    0.11034E-04   -0.65116E-04 10584   0.547E-02-0.446E-03
CGA:  19    -0.340725828129E+03   -0.89679E-04   -0.13619E-03 10584   0.261E-03 0.915E-03
CGA:  20    -0.340725842114E+03   -0.13985E-04   -0.12323E-04 10584   0.149E-03-0.470E-04
CGA:  21    -0.340725852807E+03   -0.10694E-04   -0.10063E-04 10584   0.161E-03 0.788E-04
CGA:  22    -0.340725857465E+03   -0.46578E-05   -0.58051E-05 10584   0.495E-04 0.299E-04
  10 F= -.34072586E+03 E0= -.34071833E+03  d E =-.153182E-02  mag=    14.0000
       N       E                     dE             d eps       ncg     rms          ort
SDA:   1    -0.339250899355E+03    0.14750E+01    0.00000E+00 10584   0.368E+01 0.000E+00
CGA:   2    -0.340064079203E+03   -0.81318E+00   -0.78260E+00 10584   0.641E+01 0.255E+00
CGA:   3    -0.340523475665E+03   -0.45940E+00   -0.43324E+00 10584   0.111E+01-0.276E+00
CGA:   4    -0.340618410593E+03   -0.94935E-01   -0.94511E-01 10584   0.136E+01 0.782E-02
CGA:   5    -0.340681311637E+03   -0.62901E-01   -0.62512E-01 10584   0.307E+00 0.558E-01
CGA:   6    -0.340700892473E+03   -0.19581E-01   -0.19693E-01 10584   0.164E+00-0.717E-02
CGA:   7    -0.340713773808E+03   -0.12881E-01   -0.12871E-01 10584   0.668E-01 0.609E-02
CGA:   8    -0.340718200348E+03   -0.44265E-02   -0.43099E-02 10584   0.543E-01-0.101E-01
CGA:   9    -0.340720102390E+03   -0.19020E-02   -0.21229E-02 10584   0.230E-01 0.767E-02
CGA:  10    -0.340721622105E+03   -0.15197E-02   -0.15298E-02 10584   0.119E-01 0.506E-03
CGA:  11    -0.340722729540E+03   -0.11074E-02   -0.16330E-02 10584   0.561E-01-0.869E-02
CGA:  12    -0.340723390172E+03   -0.66063E-03   -0.10244E-02 10584   0.250E-02 0.797E-02
CGA:  13    -0.340723386171E+03    0.40006E-05   -0.62907E-04 10584   0.171E-02 0.129E-02
CGA:  14    -0.340723676475E+03   -0.29030E-03    0.32122E-03 10584   0.218E-02 0.821E-03
CGA:  15    -0.340723835201E+03   -0.15873E-03   -0.18309E-03 10584   0.813E-03 0.166E-02
CGA:  16    -0.340724008778E+03   -0.17358E-03    0.56396E-04 10584   0.149E-02 0.232E-03
CGA:  17    -0.340724168285E+03   -0.15951E-03   -0.14994E-03 10584   0.398E-03 0.123E-02
CGA:  18    -0.340724243174E+03   -0.74890E-04   -0.62368E-04 10584   0.934E-03 0.147E-03
CGA:  19    -0.340724432333E+03   -0.18916E-03   -0.16880E-03 10584   0.667E-03 0.359E-03
CGA:  20    -0.340724515417E+03   -0.83084E-04   -0.84384E-04 10584   0.896E-03-0.961E-04
CGA:  21    -0.340724528418E+03   -0.13001E-04   -0.31238E-04 10584   0.425E-03 0.474E-03
CGA:  22    -0.340724549274E+03   -0.20856E-04   -0.17524E-04 10584   0.122E-03-0.924E-04
CGA:  23    -0.340724548384E+03    0.88968E-06   -0.29169E-05 10584   0.831E-04 0.852E-04
  11 F= -.34072455E+03 E0= -.34071683E+03  d E =0.130908E-02  mag=    14.0000
       N       E                     dE             d eps       ncg     rms          ort
SDA:   1    -0.333203361769E+03    0.75212E+01    0.00000E+00 10584   0.186E+02 0.000E+00
CGA:   2    -0.337716047172E+03   -0.45127E+01   -0.38168E+01 10584   0.156E+02 0.525E+01
CGA:   3    -0.338980032239E+03   -0.12640E+01   -0.73421E+00 10584   0.549E+01 0.106E+02
CGA:   4    -0.339447794696E+03   -0.46776E+00   -0.46475E+00 10584   0.624E+01 0.210E+00
CGA:   5    -0.340338636742E+03   -0.89084E+00   -0.87217E+00 10584   0.613E+01 0.285E+00
CGA:   6    -0.340515891732E+03   -0.17725E+00   -0.15082E+00 10584   0.937E+00 0.106E+01
CGA:   7    -0.340574675327E+03   -0.58784E-01   -0.56930E-01 10584   0.145E+01 0.172E-01
CGA:   8    -0.340644083616E+03   -0.69408E-01   -0.69215E-01 10584   0.873E+00-0.350E-01
CGA:   9    -0.340667825300E+03   -0.23742E-01   -0.24157E-01 10584   0.219E+00-0.182E-01
CGA:  10    -0.340672478679E+03   -0.46534E-02   -0.50689E-02 10584   0.123E+00 0.196E-01
CGA:  11    -0.340681368925E+03   -0.88902E-02   -0.89347E-02 10584   0.224E+00 0.146E-01
CGA:  12    -0.340689278315E+03   -0.79094E-02   -0.77655E-02 10584   0.505E-01-0.129E-01
CGA:  13    -0.340691620666E+03   -0.23424E-02   -0.22758E-02 10584   0.438E-01-0.517E-02
CGA:  14    -0.340693111331E+03   -0.14907E-02   -0.16229E-02 10584   0.424E-01 0.533E-02
CGA:  15    -0.340696685639E+03   -0.35743E-02   -0.35668E-02 10584   0.325E-01 0.695E-03
CGA:  16    -0.340698133051E+03   -0.14474E-02   -0.12046E-02 10584   0.238E-01-0.886E-02
CGA:  17    -0.340699140943E+03   -0.10079E-02   -0.10155E-02 10584   0.124E-01 0.116E-02
CGA:  18    -0.340699397067E+03   -0.25612E-03   -0.37942E-03 10584   0.755E-02 0.358E-02
CGA:  19    -0.340700053931E+03   -0.65686E-03   -0.65377E-03 10584   0.950E-02 0.629E-03
CGA:  20    -0.340700716747E+03   -0.66282E-03   -0.66626E-03 10584   0.105E-01-0.167E-02
CGA:  21    -0.340700806057E+03   -0.89310E-04   -0.16921E-03 10584   0.387E-02 0.186E-02
CGA:  22    -0.340700834728E+03   -0.28671E-04   -0.82263E-04 10584   0.243E-02 0.128E-02
CGA:  23    -0.340700986122E+03   -0.15139E-03   -0.15140E-03 10584   0.483E-02 0.244E-05
CGA:  24    -0.340701264195E+03   -0.27807E-03   -0.24394E-03 10584   0.869E-02-0.462E-02
CGA:  25    -0.340701461260E+03   -0.19706E-03   -0.24487E-03 10584   0.980E-03 0.169E-02
CGA:  26    -0.340701505010E+03   -0.43750E-04   -0.48509E-04 10584   0.690E-03 0.326E-03
CGA:  27    -0.340701525237E+03   -0.20227E-04   -0.32257E-04 10584   0.535E-03 0.594E-03
CGA:  28    -0.340701551435E+03   -0.26197E-04   -0.26788E-04 10584   0.303E-03 0.141E-03
CGA:  29    -0.340701596885E+03   -0.45450E-04    0.10501E-03 10584   0.302E-03 0.292E-03
CGA:  30    -0.340701594835E+03    0.20499E-05   -0.58542E-05 10584   0.203E-03 0.227E-03
CGA:  31    -0.340701619155E+03   -0.24320E-04   -0.18846E-04 10584   0.213E-03 0.135E-03
CGA:  32    -0.340701647325E+03   -0.28170E-04   -0.37439E-04 10584   0.102E-02-0.767E-04
CGA:  33    -0.340701731049E+03   -0.83723E-04    0.35611E-03 10584   0.164E-02 0.380E-03
CGA:  34    -0.340701855596E+03   -0.12455E-03   -0.12632E-03 10584   0.274E-03 0.409E-03
CGA:  35    -0.340701850819E+03    0.47768E-05   -0.61253E-05 10584   0.160E-03 0.257E-03
CGA:  36    -0.340701805575E+03    0.45244E-04   -0.28685E-04 10584   0.394E-02-0.336E-03
CGA:  37    -0.340701946012E+03   -0.14044E-03   -0.13687E-03 10584   0.218E-03-0.406E-04
CGA:  38    -0.340701936393E+03    0.96196E-05   -0.25053E-05 10584   0.994E-04 0.133E-03
  12 F= -.34070194E+03 E0= -.34069335E+03  d E =0.226120E-01  mag=    14.0000
       N       E                     dE             d eps       ncg     rms          ort
SDA:   1    -0.340140953600E+03    0.56099E+00    0.00000E+00 10584   0.190E+01 0.000E+00
CGA:   2    -0.340252858013E+03   -0.11190E+00   -0.11761E+00 10584   0.342E+01-0.541E-01
CGA:   3    -0.340560231859E+03   -0.30737E+00   -0.30737E+00 10584   0.891E+00 0.280E-01
CGA:   4    -0.340616649508E+03   -0.56418E-01   -0.58178E-01 10584   0.440E+00-0.507E-03
CGA:   5    -0.340665370698E+03   -0.48721E-01   -0.48868E-01 10584   0.320E+00-0.746E-02
CGA:   6    -0.340672684495E+03   -0.73138E-02   -0.78622E-02 10584   0.752E-01 0.207E-01
CGA:   7    -0.340681358698E+03   -0.86742E-02   -0.87039E-02 10584   0.744E-01-0.169E-02
CGA:   8    -0.340684170471E+03   -0.28118E-02   -0.25884E-02 10584   0.355E-01-0.696E-02
CGA:   9    -0.340685072967E+03   -0.90250E-03   -0.10865E-02 10584   0.115E-01 0.385E-02
CGA:  10    -0.340685753444E+03   -0.68048E-03   -0.74231E-03 10584   0.163E-01 0.242E-02
CGA:  11    -0.340687058837E+03   -0.13054E-02   -0.12196E-02 10584   0.133E-01-0.422E-02
CGA:  12    -0.340687272391E+03   -0.21355E-03   -0.27296E-03 10584   0.380E-02 0.117E-02
CGA:  13    -0.340687304519E+03   -0.32127E-04   -0.98560E-04 10584   0.278E-02 0.122E-02
CGA:  14    -0.340687521949E+03   -0.21743E-03   -0.23063E-03 10584   0.462E-02 0.985E-03
CGA:  15    -0.340687893979E+03   -0.37203E-03   -0.33636E-03 10584   0.445E-02-0.165E-02
CGA:  16    -0.340687926135E+03   -0.32156E-04   -0.53832E-04 10584   0.234E-02 0.394E-03
CGA:  17    -0.340687930930E+03   -0.47950E-05   -0.38656E-04 10584   0.117E-02 0.605E-03
CGA:  18    -0.340687960755E+03   -0.29825E-04   -0.42140E-04 10584   0.165E-02 0.303E-03
CGA:  19    -0.340688104235E+03   -0.14348E-03   -0.15642E-03 10584   0.649E-02-0.152E-02
CGA:  20    -0.340688272852E+03   -0.16862E-03   -0.19460E-03 10584   0.387E-03 0.732E-03
CGA:  21    -0.340688289051E+03   -0.16199E-04   -0.18673E-04 10584   0.235E-03 0.112E-03
CGA:  22    -0.340688309531E+03   -0.20480E-04   -0.20113E-04 10584   0.292E-03 0.191E-03
CGA:  23    -0.340688363732E+03   -0.54201E-04    0.21485E-04 10584   0.271E-03-0.423E-04
CGA:  24    -0.340688367765E+03   -0.40330E-05   -0.86841E-05 10584   0.235E-03 0.172E-03
CGA:  25    -0.340688377951E+03   -0.10186E-04   -0.10861E-04 10584   0.115E-03 0.403E-04
CGA:  26    -0.340688378404E+03   -0.45204E-06   -0.41397E-05 10584   0.112E-03 0.117E-03
  13 F= -.34068838E+03 E0= -.34067956E+03  d E =0.135580E-01  mag=    14.0000
       N       E                     dE             d eps       ncg     rms          ort
SDA:   1    -0.340572767283E+03    0.11561E+00    0.00000E+00 10584   0.415E+00 0.000E+00
CGA:   2    -0.340599015164E+03   -0.26248E-01   -0.26274E-01 10584   0.638E+00 0.168E-02
CGA:   3    -0.340651480836E+03   -0.52466E-01   -0.53213E-01 10584   0.665E+00-0.359E-01
CGA:   4    -0.340679053745E+03   -0.27573E-01   -0.27349E-01 10584   0.964E-01 0.184E-01
CGA:   5    -0.340685209734E+03   -0.61560E-02   -0.61577E-02 10584   0.764E-01-0.102E-02
CGA:   6    -0.340693329865E+03   -0.81201E-02   -0.80467E-02 10584   0.256E-01 0.160E-02
CGA:   7    -0.340694549008E+03   -0.12191E-02   -0.10855E-02 10584   0.176E-01-0.664E-02
CGA:   8    -0.340695144807E+03   -0.59580E-03   -0.63351E-03 10584   0.947E-02 0.279E-02
CGA:   9    -0.340695596713E+03   -0.45191E-03   -0.48117E-03 10584   0.371E-02 0.170E-02
CGA:  10    -0.340695866027E+03   -0.26931E-03   -0.38146E-03 10584   0.188E-01-0.427E-02
CGA:  11    -0.340696048175E+03   -0.18215E-03   -0.32085E-03 10584   0.151E-02 0.330E-02
CGA:  12    -0.340696073619E+03   -0.25444E-04   -0.44401E-04 10584   0.925E-03 0.546E-03
CGA:  13    -0.340694382019E+03    0.16916E-02   -0.92693E-03 10584   0.640E-01-0.672E-02
CGA:  14    -0.340696139203E+03   -0.17572E-02   -0.19414E-02 10584   0.525E-02 0.635E-02
CGA:  15    -0.340696394931E+03   -0.25573E-03   -0.18633E-03 10584   0.153E-02-0.109E-02
CGA:  16    -0.340696408076E+03   -0.13145E-04   -0.46843E-04 10584   0.682E-03 0.561E-03
CGA:  17    -0.340696475323E+03   -0.67247E-04   -0.67650E-04 10584   0.630E-03 0.170E-04
CGA:  18    -0.340691836299E+03    0.46390E-02   -0.25872E-02 10584   0.212E+00-0.967E-02
CGA:  19    -0.340695093426E+03   -0.32571E-02   -0.37828E-02 10584   0.695E-02 0.161E-01
CGA:  20    -0.340695418354E+03   -0.32493E-03   -0.46526E-03 10584   0.125E-01 0.138E-02
CGA:  21    -0.340696560170E+03   -0.11418E-02   -0.10282E-02 10584   0.344E-02-0.132E-02
CGA:  22    -0.340696614932E+03   -0.54762E-04   -0.84971E-04 10584   0.317E-03 0.293E-03
CGA:  23    -0.340696651049E+03   -0.36117E-04   -0.24735E-04 10584   0.520E-03-0.150E-03
CGA:  24    -0.340696235088E+03    0.41596E-03   -0.11149E-03 10584   0.144E-01-0.201E-02
CGA:  25    -0.340696434950E+03   -0.19986E-03   -0.39003E-03 10584   0.281E-02 0.181E-02
CGA:  26    -0.340696592195E+03   -0.15725E-03   -0.14669E-03 10584   0.173E-02-0.120E-03
CGA:  27    -0.340696701520E+03   -0.10932E-03   -0.13379E-03 10584   0.615E-03 0.374E-03
CGA:  28    -0.340696726838E+03   -0.25317E-04   -0.29438E-04 10584   0.125E-03 0.373E-04
CGA:  29    -0.340696812715E+03   -0.85878E-04    0.66823E-05 10584   0.108E-02-0.131E-03
CGA:  30    -0.340696786905E+03    0.25810E-04   -0.15187E-04 10584   0.128E-03 0.332E-03
CGA:  31    -0.340696777673E+03    0.92323E-05   -0.15505E-05 10584   0.509E-04 0.881E-04
  14 F= -.34069678E+03 E0= -.34068815E+03  d E =-.839927E-02  mag=    14.0000
       N       E                     dE             d eps       ncg     rms          ort
SDA:   1    -0.339995442197E+03    0.70134E+00    0.00000E+00 10584   0.186E+01 0.000E+00
CGA:   2    -0.340201022616E+03   -0.20558E+00   -0.20675E+00 10584   0.596E+01 0.245E-01
CGA:   3    -0.340581883906E+03   -0.38086E+00   -0.36970E+00 10584   0.409E+00 0.146E+00
CGA:   4    -0.340650059795E+03   -0.68176E-01   -0.68486E-01 10584   0.657E+00-0.830E-02
CGA:   5    -0.340668103762E+03   -0.18044E-01   -0.17270E-01 10584   0.104E+00 0.703E-01
CGA:   6    -0.340674423818E+03   -0.63201E-02   -0.63529E-02 10584   0.974E-01 0.767E-03
CGA:   7    -0.340680806556E+03   -0.63827E-02   -0.62078E-02 10584   0.748E-01-0.506E-02
CGA:   8    -0.340682465701E+03   -0.16591E-02   -0.18340E-02 10584   0.173E-01 0.488E-02
CGA:   9    -0.340683429736E+03   -0.96404E-03   -0.10253E-02 10584   0.237E-01 0.131E-02
CGA:  10    -0.340684883998E+03   -0.14543E-02   -0.12995E-02 10584   0.193E-01-0.322E-02
CGA:  11    -0.340685449061E+03   -0.56506E-03   -0.62584E-03 10584   0.527E-02 0.108E-02
CGA:  12    -0.340685479655E+03   -0.30594E-04   -0.12173E-03 10584   0.245E-02 0.123E-02
CGA:  13    -0.340685643616E+03   -0.16396E-03   -0.19127E-03 10584   0.478E-02 0.914E-03
CGA:  14    -0.340686102446E+03   -0.45883E-03   -0.40789E-03 10584   0.349E-02-0.175E-02
CGA:  15    -0.340686119947E+03   -0.17500E-04   -0.41268E-04 10584   0.149E-02 0.338E-03
CGA:  16    -0.340686117567E+03    0.23795E-05   -0.28092E-04 10584   0.973E-03 0.446E-03
CGA:  17    -0.340686158768E+03   -0.41201E-04   -0.54556E-04 10584   0.207E-02 0.334E-03
CGA:  18    -0.340686356746E+03   -0.19798E-03   -0.18037E-03 10584   0.290E-02-0.111E-02
CGA:  19    -0.340686416801E+03   -0.60055E-04   -0.88983E-04 10584   0.258E-03 0.602E-03
CGA:  20    -0.340686434847E+03   -0.18046E-04   -0.18023E-04 10584   0.303E-03-0.128E-05
CGA:  21    -0.340686446320E+03   -0.11473E-04   -0.15618E-04 10584   0.323E-03 0.167E-03
CGA:  22    -0.340686305263E+03    0.14106E-03   -0.76335E-04 10584   0.781E-02-0.135E-02
CGA:  23    -0.340686490988E+03   -0.18572E-03   -0.24017E-03 10584   0.273E-03 0.114E-02
CGA:  24    -0.340686512557E+03   -0.21569E-04   -0.15513E-04 10584   0.254E-03-0.195E-03
CGA:  25    -0.340686506431E+03    0.61259E-05   -0.30965E-05 10584   0.888E-04 0.137E-03
  15 F= -.34068651E+03 E0= -.34067779E+03  d E =0.102712E-01  mag=    14.0000
       N       E                     dE             d eps       ncg     rms          ort
SDA:   1    -0.312536564282E+03    0.28150E+02    0.00000E+00 10584   0.828E+02 0.000E+00
CGA:   2    -0.324373196341E+03   -0.11837E+02   -0.97575E+01 10584   0.525E+02 0.344E+02
CGA:   3    -0.330199170331E+03   -0.58260E+01   -0.63321E+01 10584   0.115E+03-0.220E+02
CGA:   4    -0.331755875165E+03   -0.15567E+01   -0.24279E+01 10584   0.108E+03-0.518E+01
CGA:   5    -0.337134270002E+03   -0.53784E+01   -0.28730E+01 10584   0.441E+02-0.817E+02
CGA:   6    -0.338535404256E+03   -0.14011E+01   -0.95196E+00 10584   0.214E+02-0.147E+02
CGA:   7    -0.338714758968E+03   -0.17935E+00   -0.18608E+00 10584   0.265E+02-0.150E+01
CGA:   8    -0.338890974212E+03   -0.17622E+00   -0.74494E+00 10584   0.486E+02-0.726E+01
CGA:   9    -0.339490820087E+03   -0.59985E+00   -0.76152E+00 10584   0.235E+02-0.655E+01
CGA:  10    -0.340056658414E+03   -0.56584E+00   -0.27456E+00 10584   0.122E+02 0.167E+02
CGA:  11    -0.340248924613E+03   -0.19227E+00   -0.15815E+00 10584   0.112E+01 0.184E+01
CGA:  12    -0.340290894940E+03   -0.41970E-01   -0.41606E-01 10584   0.183E+01 0.198E-01
CGA:  13    -0.340356283863E+03   -0.65389E-01   -0.65374E-01 10584   0.237E+01-0.343E-01
CGA:  14    -0.340423586847E+03   -0.67303E-01   -0.70923E-01 10584   0.175E+01-0.832E-01
CGA:  15    -0.340450746530E+03   -0.27160E-01   -0.27955E-01 10584   0.407E+00 0.420E-02
CGA:  16    -0.340460707863E+03   -0.99613E-02   -0.10412E-01 10584   0.413E+00-0.281E-03
CGA:  17    -0.340481323464E+03   -0.20616E-01   -0.20632E-01 10584   0.676E+00-0.122E-04
CGA:  18    -0.340512831666E+03   -0.31508E-01   -0.31701E-01 10584   0.436E+00 0.256E-01
CGA:  19    -0.340520693557E+03   -0.78619E-02   -0.86944E-02 10584   0.985E-01 0.160E-01
CGA:  20    -0.340528666660E+03   -0.79731E-02   -0.78257E-02 10584   0.244E+00 0.488E-02
CGA:  21    -0.340540578554E+03   -0.11912E-01   -0.11808E-01 10584   0.165E+00-0.300E-01
CGA:  22    -0.340546033527E+03   -0.54550E-02   -0.53298E-02 10584   0.434E-01-0.130E-01
CGA:  23    -0.340547174661E+03   -0.11411E-02   -0.12245E-02 10584   0.367E-01 0.425E-02
CGA:  24    -0.340551140140E+03   -0.39655E-02   -0.37705E-02 10584   0.498E-01 0.434E-02
CGA:  25    -0.340553110382E+03   -0.19702E-02   -0.19494E-02 10584   0.184E-01-0.260E-02
CGA:  26    -0.340553550281E+03   -0.43990E-03   -0.51274E-03 10584   0.958E-02 0.343E-02
CGA:  27    -0.340554519683E+03   -0.96940E-03   -0.90773E-03 10584   0.246E-01 0.196E-02
CGA:  28    -0.340556290064E+03   -0.17704E-02   -0.20056E-02 10584   0.178E-01-0.137E-01
CGA:  29    -0.340556686442E+03   -0.39638E-03   -0.46763E-03 10584   0.483E-02 0.293E-02
CGA:  30    -0.340557151981E+03   -0.46554E-03   -0.51592E-03 10584   0.973E-02-0.122E-02
CGA:  31    -0.340557347893E+03   -0.19591E-03   -0.23171E-03 10584   0.630E-02 0.176E-02
CGA:  32    -0.340557445507E+03   -0.97614E-04   -0.15447E-03 10584   0.228E-02 0.188E-02
CGA:  33    -0.340557525991E+03   -0.80484E-04   -0.90761E-04 10584   0.187E-02 0.543E-03
CGA:  34    -0.340557515636E+03    0.10354E-04   -0.32090E-03 10584   0.200E-01-0.369E-02
CGA:  35    -0.340558083482E+03   -0.56785E-03   -0.60025E-03 10584   0.220E-02 0.143E-02
CGA:  36    -0.340557926013E+03    0.15747E-03   -0.27507E-03 10584   0.288E-01-0.674E-02
CGA:  37    -0.340558272544E+03   -0.34653E-03   -0.52135E-03 10584   0.254E-02 0.465E-02
CGA:  38    -0.340558311316E+03   -0.38772E-04   -0.66714E-04 10584   0.768E-03 0.914E-03
CGA:  39    -0.340558363269E+03   -0.51953E-04   -0.49906E-04 10584   0.117E-02-0.507E-03
CGA:  40    -0.340558385961E+03   -0.22692E-04   -0.31797E-04 10584   0.409E-03 0.369E-03
CGA:  41    -0.340558454867E+03   -0.68906E-04    0.50118E-04 10584   0.494E-03 0.185E-03
CGA:  42    -0.340558557279E+03   -0.10241E-03    0.43237E-04 10584   0.778E-03 0.593E-03
CGA:  43    -0.340558558280E+03   -0.10019E-05   -0.15124E-04 10584   0.358E-03 0.455E-03
CGA:  44    -0.340558598158E+03   -0.39878E-04   -0.35347E-04 10584   0.515E-03 0.905E-04
CGA:  45    -0.340558667415E+03   -0.69257E-04    0.37358E-03 10584   0.411E-03 0.599E-03
CGA:  46    -0.340558727446E+03   -0.60031E-04    0.25091E-04 10584   0.271E-03 0.139E-03
CGA:  47    -0.340558817386E+03   -0.89940E-04   -0.69441E-04 10584   0.161E-02 0.144E-03
CGA:  48    -0.340558909995E+03   -0.92610E-04   -0.97522E-04 10584   0.513E-02-0.219E-02
CGA:  49    -0.340558923207E+03   -0.13212E-04   -0.72602E-04 10584   0.487E-03 0.134E-02
CGA:  50    -0.340558916503E+03    0.67047E-05   -0.67506E-05 10584   0.215E-03 0.297E-03
  16 F= -.34055892E+03 E0= -.34055008E+03  d E =0.127590E+00  mag=    14.0000
       N       E                     dE             d eps       ncg     rms          ort
SDA:   1    -0.333079084788E+03    0.74798E+01    0.00000E+00 10584   0.210E+02 0.000E+00
CGA:   2    -0.336415158104E+03   -0.33361E+01   -0.30406E+01 10584   0.157E+02 0.480E+01
CGA:   3    -0.338204353080E+03   -0.17892E+01   -0.16604E+01 10584   0.240E+02-0.266E+01
CGA:   4    -0.338594290720E+03   -0.38994E+00   -0.54728E+00 10584   0.261E+02-0.675E+01
CGA:   5    -0.338899234900E+03   -0.30494E+00   -0.55790E+00 10584   0.306E+02-0.671E+01
CGA:   6    -0.339308465152E+03   -0.40923E+00   -0.54260E+00 10584   0.106E+02-0.571E+01
CGA:   7    -0.339497868087E+03   -0.18940E+00   -0.12382E+00 10584   0.606E+01 0.440E+01
CGA:   8    -0.339629201016E+03   -0.13133E+00   -0.98251E-01 10584   0.235E+01 0.207E+01
CGA:   9    -0.339682493745E+03   -0.53293E-01   -0.51221E-01 10584   0.337E+01 0.918E-01
CGA:  10    -0.339742533431E+03   -0.60040E-01   -0.60817E-01 10584   0.702E+01 0.286E-02
CGA:  11    -0.339825211357E+03   -0.82678E-01   -0.86801E-01 10584   0.849E+01-0.296E+00
CGA:  12    -0.339892730538E+03   -0.67519E-01   -0.81413E-01 10584   0.624E+01-0.122E+01
CGA:  13    -0.339928517170E+03   -0.35787E-01   -0.52276E-01 10584   0.351E+01-0.162E+01
CGA:  14    -0.339946914530E+03   -0.18397E-01   -0.24325E-01 10584   0.216E+01-0.684E+00
CGA:  15    -0.339961038534E+03   -0.14124E-01   -0.24208E-01 10584   0.149E+01-0.676E+00
CGA:  16    -0.339973749597E+03   -0.12711E-01   -0.15347E-01 10584   0.982E+00-0.186E+00
CGA:  17    -0.339989343095E+03   -0.15593E-01   -0.15457E-01 10584   0.994E+00-0.966E-02
CGA:  18    -0.340020962708E+03   -0.31620E-01   -0.31544E-01 10584   0.195E+01 0.471E-02
CGA:  19    -0.340066997383E+03   -0.46035E-01   -0.46443E-01 10584   0.150E+01 0.102E-01
CGA:  20    -0.340087224814E+03   -0.20227E-01   -0.21988E-01 10584   0.431E+00-0.910E-01
CGA:  21    -0.340094201529E+03   -0.69767E-02   -0.75738E-02 10584   0.289E+00-0.338E-01
CGA:  22    -0.340105983381E+03   -0.11782E-01   -0.11788E-01 10584   0.648E+00-0.777E-02
CGA:  23    -0.340134725606E+03   -0.28742E-01   -0.28684E-01 10584   0.675E+00-0.146E-01
CGA:  24    -0.340146675799E+03   -0.11950E-01   -0.11528E-01 10584   0.157E+00 0.226E-01
CGA:  25    -0.340149649061E+03   -0.29733E-02   -0.30394E-02 10584   0.940E-01 0.847E-02
CGA:  26    -0.340153191116E+03   -0.35421E-02   -0.36213E-02 10584   0.168E+00 0.832E-02
CGA:  27    -0.340159686167E+03   -0.64951E-02   -0.65816E-02 10584   0.190E+00 0.839E-02
CGA:  28    -0.340164705570E+03   -0.50194E-02   -0.50524E-02 10584   0.116E+00-0.479E-02
CGA:  29    -0.340168139587E+03   -0.34340E-02   -0.32821E-02 10584   0.914E-01-0.114E-01
CGA:  30    -0.340170607333E+03   -0.24677E-02   -0.23318E-02 10584   0.474E-01-0.106E-01
CGA:  31    -0.340171674409E+03   -0.10671E-02   -0.10145E-02 10584   0.366E-01-0.258E-02
SDA:  32    -0.340173508155E+03   -0.18337E-02   -0.18418E-02 10584   0.832E-01-0.702E-03
CGA:  33    -0.340175933612E+03   -0.24255E-02   -0.24286E-02 10584   0.202E-01-0.761E-03
CGA:  34    -0.340177261161E+03   -0.13275E-02   -0.12718E-02 10584   0.263E-01 0.257E-02
CGA:  35    -0.340179159722E+03   -0.18986E-02   -0.18474E-02 10584   0.158E-01 0.260E-02
CGA:  36    -0.340180336340E+03   -0.11766E-02   -0.24389E-02 10584   0.334E-01-0.129E-01
CGA:  37    -0.340181056937E+03   -0.72060E-03   -0.79896E-03 10584   0.762E-02 0.273E-02
CGA:  38    -0.340181317962E+03   -0.26102E-03   -0.29450E-03 10584   0.329E-02 0.282E-02
CGA:  39    -0.340181581252E+03   -0.26329E-03   -0.25316E-03 10584   0.439E-02 0.111E-02
CGA:  40    -0.340182017368E+03   -0.43612E-03   -0.44819E-03 10584   0.800E-02-0.439E-03
CGA:  41    -0.340182319340E+03   -0.30197E-03   -0.29088E-03 10584   0.275E-02-0.129E-02
CGA:  42    -0.340182434393E+03   -0.11505E-03   -0.12565E-03 10584   0.693E-02-0.176E-02
CGA:  43    -0.340182638169E+03   -0.20378E-03   -0.19715E-03 10584   0.337E-02-0.364E-03
CGA:  44    -0.340183072720E+03   -0.43455E-03   -0.54880E-03 10584   0.954E-02-0.916E-03
CGA:  45    -0.340183341138E+03   -0.26842E-03   -0.25789E-03 10584   0.228E-02-0.613E-03
CGA:  46    -0.340183280569E+03    0.60569E-04   -0.30997E-03 10584   0.191E-01-0.402E-02
CGA:  47    -0.340183822269E+03   -0.54170E-03   -0.55536E-03 10584   0.263E-02 0.176E-03
CGA:  48    -0.340183897585E+03   -0.75316E-04   -0.95032E-04 10584   0.138E-02 0.956E-03
CGA:  49    -0.340183960073E+03   -0.62487E-04   -0.75940E-04 10584   0.927E-03 0.905E-03
CGA:  50    -0.340184088320E+03   -0.12825E-03    0.94263E-04 10584   0.722E-03 0.501E-03
CGA:  51    -0.340184150905E+03   -0.62584E-04   -0.60259E-04 10584   0.187E-02 0.777E-04
CGA:  52    -0.340184213378E+03   -0.62473E-04   -0.97718E-04 10584   0.318E-01-0.219E-02
CGA:  53    -0.340184912610E+03   -0.69923E-03   -0.64856E-03 10584   0.261E-02-0.432E-03
CGA:  54    -0.340185202406E+03   -0.28980E-03   -0.32837E-03 10584   0.113E-01-0.133E-02
CGA:  55    -0.340185443180E+03   -0.24077E-03   -0.27196E-03 10584   0.104E-02 0.510E-03
CGA:  56    -0.340185481178E+03   -0.37998E-04   -0.47027E-04 10584   0.111E-02 0.167E-03
CGA:  57    -0.340185188091E+03    0.29309E-03   -0.23660E-03 10584   0.815E-02-0.206E-02
CGA:  58    -0.340186032218E+03   -0.84413E-03   -0.75760E-03 10584   0.825E-02-0.125E-02
CGA:  59    -0.340186511756E+03   -0.47954E-03   -0.42119E-03 10584   0.776E-02-0.565E-03
CGA:  60    -0.340186777966E+03   -0.26621E-03   -0.33893E-03 10584   0.285E-02 0.680E-03
CGA:  61    -0.340186813551E+03   -0.35585E-04   -0.88554E-04 10584   0.327E-03 0.453E-03
CGA:  62    -0.340186867149E+03   -0.53599E-04   -0.53811E-04 10584   0.196E-02 0.299E-04
CGA:  63    -0.340187197211E+03   -0.33006E-03   -0.33826E-03 10584   0.613E-02-0.886E-03
CGA:  64    -0.340187516538E+03   -0.31933E-03   -0.14267E-03 10584   0.543E-02-0.192E-02
CGA:  65    -0.340187985260E+03   -0.46872E-03   -0.21180E-03 10584   0.829E-02-0.266E-02
CGA:  66    -0.340188389118E+03   -0.40386E-03   -0.15448E-03 10584   0.976E-02-0.167E-02
CGA:  67    -0.340188995510E+03   -0.60639E-03   -0.36205E-03 10584   0.166E-01-0.917E-03
CGA:  68    -0.340189743552E+03   -0.74804E-03   -0.39810E-03 10584   0.166E-01 0.511E-02
CGA:  69    -0.340190565775E+03   -0.82222E-03   -0.57055E-03 10584   0.941E-02 0.244E-02
CGA:  70    -0.340191007055E+03   -0.44128E-03   -0.44339E-03 10584   0.759E-02-0.349E-02
CGA:  71    -0.340191561036E+03   -0.55398E-03   -0.55861E-03 10584   0.138E-01-0.472E-02
CGA:  72    -0.340192124787E+03   -0.56375E-03   -0.44519E-03 10584   0.621E-02-0.144E-02
CGA:  73    -0.340192629706E+03   -0.50492E-03   -0.45235E-03 10584   0.431E-02-0.174E-02
CGA:  74    -0.340192847466E+03   -0.21776E-03   -0.23261E-03 10584   0.237E-02 0.437E-03
CGA:  75    -0.340192862438E+03   -0.14972E-04   -0.76500E-04 10584   0.530E-03 0.807E-03
CGA:  76    -0.340192849800E+03    0.12638E-04   -0.22159E-04 10584   0.402E-03 0.477E-03
CGA:  77    -0.340192862320E+03   -0.12520E-04   -0.23132E-04 10584   0.422E-03 0.245E-03
CGA:  78    -0.340192860708E+03    0.16116E-05   -0.12154E-04 10584   0.296E-03 0.197E-03
CGA:  79    -0.340192861436E+03   -0.72777E-06   -0.19449E-04 10584   0.342E-03 0.373E-03
CGA:  80    -0.340192870363E+03   -0.89265E-05   -0.13232E-04 10584   0.337E-03 0.784E-04
CGA:  81    -0.340192872778E+03   -0.24154E-05   -0.19085E-04 10584   0.289E-03 0.381E-03
  17 F= -.34019287E+03 E0= -.34018555E+03  d E =0.366044E+00  mag=    14.0000
       N       E                     dE             d eps       ncg     rms          ort
SDA:   1    -0.339529550102E+03    0.66332E+00    0.00000E+00 10584   0.614E+01 0.000E+00
CGA:   2    -0.339687105377E+03   -0.15756E+00   -0.19251E+00 10584   0.375E+01-0.962E+00
CGA:   3    -0.340282999143E+03   -0.59589E+00   -0.59918E+00 10584   0.158E+01-0.327E-01
CGA:   4    -0.340331755441E+03   -0.48756E-01   -0.50078E-01 10584   0.744E+00-0.312E-01
CGA:   5    -0.340417055285E+03   -0.85300E-01   -0.85167E-01 10584   0.633E+00 0.579E-02
CGA:   6    -0.340446553704E+03   -0.29498E-01   -0.29848E-01 10584   0.263E+00-0.665E-02
CGA:   7    -0.340457971955E+03   -0.11418E-01   -0.11019E-01 10584   0.928E-01-0.653E-02
CGA:   8    -0.340465267207E+03   -0.72953E-02   -0.72958E-02 10584   0.123E+00 0.662E-03
CGA:   9    -0.340471874358E+03   -0.66072E-02   -0.67775E-02 10584   0.258E-01 0.458E-02
CGA:  10    -0.340473144039E+03   -0.12697E-02   -0.13038E-02 10584   0.254E-01 0.791E-03
CGA:  11    -0.340476270588E+03   -0.31265E-02   -0.32867E-02 10584   0.249E-01-0.353E-02
CGA:  12    -0.340476953336E+03   -0.68275E-03   -0.75503E-03 10584   0.863E-02 0.143E-02
CGA:  13    -0.340477559415E+03   -0.60608E-03   -0.62803E-03 10584   0.568E-02 0.216E-02
CGA:  14    -0.340478602238E+03   -0.10428E-02   -0.11086E-02 10584   0.988E-02-0.834E-03
CGA:  15    -0.340478900735E+03   -0.29850E-03   -0.30413E-03 10584   0.246E-02 0.149E-03
CGA:  16    -0.340479035743E+03   -0.13501E-03   -0.14795E-03 10584   0.386E-02 0.629E-03
CGA:  17    -0.340479518358E+03   -0.48261E-03   -0.46611E-03 10584   0.104E-02 0.969E-03
CGA:  18    -0.340479621797E+03   -0.10344E-03   -0.10319E-03 10584   0.328E-02-0.619E-03
CGA:  19    -0.340479667634E+03   -0.45838E-04   -0.74503E-04 10584   0.506E-03 0.511E-03
CGA:  20    -0.340479686382E+03   -0.18748E-04   -0.26667E-04 10584   0.610E-03 0.252E-03
CGA:  21    -0.340479806235E+03   -0.11985E-03   -0.10598E-03 10584   0.872E-03 0.341E-03
CGA:  22    -0.340479828812E+03   -0.22577E-04   -0.23091E-04 10584   0.325E-03 0.942E-05
CGA:  23    -0.340479888480E+03   -0.59669E-04    0.57895E-04 10584   0.328E-03 0.212E-03
CGA:  24    -0.340479889485E+03   -0.10045E-05   -0.92797E-05 10584   0.191E-03 0.177E-03
CGA:  25    -0.340479900670E+03   -0.11185E-04   -0.12428E-04 10584   0.203E-03 0.163E-03
CGA:  26    -0.340479921759E+03   -0.21090E-04   -0.47678E-04 10584   0.392E-02-0.165E-03
CGA:  27    -0.340479973298E+03   -0.51538E-04   -0.69486E-04 10584   0.173E-03 0.276E-03
CGA:  28    -0.340479978110E+03   -0.48124E-05   -0.81966E-05 10584   0.226E-03 0.103E-03
CGA:  29    -0.340479992562E+03   -0.14452E-04   -0.13947E-04 10584   0.556E-03-0.381E-04
CGA:  30    -0.340480052475E+03   -0.59913E-04   -0.49212E-04 10584   0.111E-02 0.340E-03
CGA:  31    -0.340480076436E+03   -0.23961E-04   -0.25616E-04 10584   0.157E-03 0.312E-04
CGA:  32    -0.340480084379E+03   -0.79432E-05   -0.36128E-04 10584   0.303E-02-0.188E-03
CGA:  33    -0.340480124131E+03   -0.39751E-04   -0.60565E-04 10584   0.199E-03 0.341E-03
CGA:  34    -0.340480130595E+03   -0.64642E-05   -0.78393E-05 10584   0.160E-03 0.321E-04
CGA:  35    -0.340480161086E+03   -0.30491E-04    0.95581E-04 10584   0.327E-03 0.143E-03
CGA:  36    -0.340480166242E+03   -0.51565E-05   -0.86637E-05 10584   0.117E-03 0.704E-04
  18 F= -.34048017E+03 E0= -.34047229E+03  d E =-.287293E+00  mag=    14.0000
       N       E                     dE             d eps       ncg     rms          ort
SDA:   1    -0.340155580245E+03    0.32458E+00    0.00000E+00 10584   0.260E+01 0.000E+00
CGA:   2    -0.340228679179E+03   -0.73099E-01   -0.70024E-01 10584   0.106E+01 0.776E-01
CGA:   3    -0.340441231692E+03   -0.21255E+00   -0.21003E+00 10584   0.163E+01 0.244E-01
CGA:   4    -0.340502918671E+03   -0.61687E-01   -0.58524E-01 10584   0.260E+00 0.570E-01
CGA:   5    -0.340518396981E+03   -0.15478E-01   -0.15659E-01 10584   0.433E+00 0.873E-02
CGA:   6    -0.340552243595E+03   -0.33847E-01   -0.33851E-01 10584   0.567E-01-0.322E-02
CGA:   7    -0.340554974110E+03   -0.27305E-02   -0.26657E-02 10584   0.704E-01-0.335E-02
CGA:   8    -0.340559897985E+03   -0.49239E-02   -0.49195E-02 10584   0.339E-01 0.242E-02
CGA:   9    -0.340561212422E+03   -0.13144E-02   -0.13461E-02 10584   0.134E-01 0.826E-03
CGA:  10    -0.340562181674E+03   -0.96925E-03   -0.96908E-03 10584   0.224E-01-0.497E-03
CGA:  11    -0.340563151668E+03   -0.96999E-03   -0.10178E-02 10584   0.735E-02 0.206E-02
CGA:  12    -0.340563606670E+03   -0.45500E-03   -0.44474E-03 10584   0.827E-02-0.719E-03
CGA:  13    -0.340564079022E+03   -0.47235E-03   -0.44380E-03 10584   0.119E-01-0.305E-02
CGA:  14    -0.340564529714E+03   -0.45069E-03   -0.45563E-03 10584   0.983E-02 0.617E-03
CGA:  15    -0.340564654799E+03   -0.12508E-03   -0.20999E-03 10584   0.214E-02 0.178E-02
CGA:  16    -0.340564705131E+03   -0.50332E-04   -0.82747E-04 10584   0.216E-02 0.986E-03
CGA:  17    -0.340564904928E+03   -0.19980E-03   -0.20009E-03 10584   0.338E-02 0.530E-03
CGA:  18    -0.340565211407E+03   -0.30648E-03   -0.31073E-03 10584   0.278E-02-0.438E-03
CGA:  19    -0.340565257965E+03   -0.46559E-04   -0.49435E-04 10584   0.974E-03 0.704E-04
CGA:  20    -0.340565306240E+03   -0.48274E-04   -0.46090E-04 10584   0.192E-02-0.133E-03
CGA:  21    -0.340565413842E+03   -0.10760E-03   -0.14568E-03 10584   0.687E-02-0.146E-02
CGA:  22    -0.340565604350E+03   -0.19051E-03   -0.22910E-03 10584   0.639E-03 0.136E-02
CGA:  23    -0.340565606106E+03   -0.17558E-05   -0.17922E-04 10584   0.353E-03 0.427E-03
CGA:  24    -0.340565776372E+03   -0.17027E-03   -0.31787E-04 10584   0.471E-03 0.859E-04
CGA:  25    -0.340565783360E+03   -0.69888E-05   -0.18160E-04 10584   0.212E-03 0.144E-03
CGA:  26    -0.340565852411E+03   -0.69051E-04    0.75642E-04 10584   0.345E-03 0.131E-03
CGA:  27    -0.340565853548E+03   -0.11369E-05   -0.11020E-04 10584   0.128E-03 0.136E-03
  19 F= -.34056585E+03 E0= -.34055795E+03  d E =-.856873E-01  mag=    14.0000
       N       E                     dE             d eps       ncg     rms          ort
SDA:   1    -0.340448053417E+03    0.11780E+00    0.00000E+00 10584   0.614E+00 0.000E+00
CGA:   2    -0.340470003554E+03   -0.21950E-01   -0.21625E-01 10584   0.431E+00 0.267E-01
CGA:   3    -0.340536003454E+03   -0.66000E-01   -0.65793E-01 10584   0.540E+00 0.276E-02
CGA:   4    -0.340558495362E+03   -0.22492E-01   -0.21834E-01 10584   0.999E-01 0.117E-01
CGA:   5    -0.340567737564E+03   -0.92422E-02   -0.92302E-02 10584   0.113E+00-0.330E-02
CGA:   6    -0.340574696431E+03   -0.69589E-02   -0.68929E-02 10584   0.792E-01-0.279E-02
CGA:   7    -0.340576691389E+03   -0.19950E-02   -0.22530E-02 10584   0.116E-01 0.475E-02
CGA:   8    -0.340578067326E+03   -0.13759E-02   -0.13404E-02 10584   0.208E-01 0.182E-02
CGA:   9    -0.340579110023E+03   -0.10427E-02   -0.92402E-03 10584   0.493E-02-0.236E-02
CGA:  10    -0.340579364168E+03   -0.25415E-03   -0.27315E-03 10584   0.369E-02 0.741E-03
CGA:  11    -0.340579850677E+03   -0.48651E-03   -0.51939E-03 10584   0.756E-02-0.952E-03
CGA:  12    -0.340579939646E+03   -0.88969E-04   -0.14260E-03 10584   0.193E-02 0.848E-03
CGA:  13    -0.340579957902E+03   -0.18256E-04   -0.47993E-04 10584   0.134E-02 0.474E-03
CGA:  14    -0.340580103686E+03   -0.14578E-03   -0.14486E-03 10584   0.419E-02 0.209E-03
CGA:  15    -0.340580331601E+03   -0.22792E-03   -0.19466E-03 10584   0.190E-02-0.811E-03
CGA:  16    -0.340580359388E+03   -0.27787E-04   -0.36193E-04 10584   0.963E-03 0.144E-03
CGA:  17    -0.340580359752E+03   -0.36363E-06   -0.22428E-04 10584   0.766E-03 0.396E-03
CGA:  18    -0.340580375157E+03   -0.15405E-04   -0.36829E-04 10584   0.108E-02 0.526E-03
CGA:  19    -0.340580327234E+03    0.47923E-04   -0.15522E-03 10584   0.166E-01-0.287E-02
CGA:  20    -0.340580534451E+03   -0.20722E-03   -0.32004E-03 10584   0.800E-03 0.200E-02
CGA:  21    -0.340580536402E+03   -0.19513E-05   -0.18414E-04 10584   0.237E-03 0.313E-03
  20 F= -.34058054E+03 E0= -.34057269E+03  d E =-.146829E-01  mag=    14.0000
       N       E                     dE             d eps       ncg     rms          ort
SDA:   1    -0.340555403402E+03    0.25131E-01    0.00000E+00 10584   0.141E+00 0.000E+00
CGA:   2    -0.340561309574E+03   -0.59062E-02   -0.59318E-02 10584   0.761E-01 0.437E-02
CGA:   3    -0.340574557769E+03   -0.13248E-01   -0.13093E-01 10584   0.565E-01 0.152E-02
CGA:   4    -0.340577309480E+03   -0.27517E-02   -0.27728E-02 10584   0.314E-01 0.894E-03
CGA:   5    -0.340579342685E+03   -0.20332E-02   -0.19870E-02 10584   0.322E-01-0.551E-02
CGA:   6    -0.340580641937E+03   -0.12993E-02   -0.13485E-02 10584   0.588E-02 0.250E-02
CGA:   7    -0.340580877888E+03   -0.23595E-03   -0.26635E-03 10584   0.357E-02 0.112E-02
CGA:   8    -0.340581281044E+03   -0.40316E-03   -0.45575E-03 10584   0.772E-02-0.137E-02
CGA:   9    -0.340581364157E+03   -0.83113E-04   -0.95127E-04 10584   0.358E-02 0.239E-03
CGA:  10    -0.340581403952E+03   -0.39795E-04   -0.58379E-04 10584   0.139E-02 0.360E-03
CGA:  11    -0.340581457988E+03   -0.54035E-04   -0.51662E-04 10584   0.187E-02-0.799E-04
CGA:  12    -0.340581563281E+03   -0.10529E-03   -0.91415E-04 10584   0.362E-02-0.120E-02
CGA:  13    -0.340581643692E+03   -0.80412E-04   -0.10883E-03 10584   0.348E-03 0.879E-03
CGA:  14    -0.340581647623E+03   -0.39303E-05   -0.11561E-04 10584   0.198E-03 0.220E-03
CGA:  15    -0.340581714310E+03   -0.66688E-04   -0.50677E-04 10584   0.125E-03 0.815E-04
CGA:  16    -0.340581719538E+03   -0.52279E-05   -0.80193E-05 10584   0.795E-04 0.117E-03
  21 F= -.34058172E+03 E0= -.34057390E+03  d E =-.118314E-02  mag=    14.0000
       N       E                     dE             d eps       ncg     rms          ort
SDA:   1    -0.340544701124E+03    0.37013E-01    0.00000E+00 10584   0.146E+00 0.000E+00
CGA:   2    -0.340552315611E+03   -0.76145E-02   -0.76503E-02 10584   0.159E+00 0.532E-02
CGA:   3    -0.340570335735E+03   -0.18020E-01   -0.18259E-01 10584   0.154E+00-0.597E-02
CGA:   4    -0.340574820205E+03   -0.44845E-02   -0.46384E-02 10584   0.316E-01 0.782E-02
CGA:   5    -0.340579470450E+03   -0.46502E-02   -0.46792E-02 10584   0.222E-01-0.412E-03
CGA:   6    -0.340580363549E+03   -0.89310E-03   -0.79902E-03 10584   0.114E-01-0.300E-02
CGA:   7    -0.340581029770E+03   -0.66622E-03   -0.66930E-03 10584   0.679E-02 0.139E-02
CGA:   8    -0.340581412094E+03   -0.38232E-03   -0.36922E-03 10584   0.251E-02-0.620E-03
CGA:   9    -0.340581620126E+03   -0.20803E-03   -0.25766E-03 10584   0.366E-02-0.113E-02
CGA:  10    -0.340581650591E+03   -0.30465E-04   -0.54151E-04 10584   0.163E-02 0.533E-03
CGA:  11    -0.340581673838E+03   -0.23247E-04   -0.42003E-04 10584   0.649E-03 0.407E-03
CGA:  12    -0.340581714556E+03   -0.40718E-04   -0.41777E-04 10584   0.110E-02 0.678E-04
CGA:  13    -0.340581770128E+03   -0.55572E-04   -0.57675E-04 10584   0.951E-03 0.113E-03
CGA:  14    -0.340581788221E+03   -0.18093E-04   -0.23574E-04 10584   0.323E-03 0.129E-03
[...]
CGA:   5    -0.340111933297E+03   -0.36872E-02   -0.36560E-02 10584   0.214E-01 0.160E-02
CGA:   6    -0.340113131376E+03   -0.11981E-02   -0.11354E-02 10584   0.112E-01-0.298E-02
CGA:   7    -0.340113859213E+03   -0.72784E-03   -0.72370E-03 10584   0.214E-02 0.160E-02
CGA:   8    -0.340114142766E+03   -0.28355E-03   -0.28082E-03 10584   0.263E-02 0.601E-04
CGA:   9    -0.340114314831E+03   -0.17206E-03   -0.16949E-03 10584   0.146E-02-0.217E-03
CGA:  10    -0.340114369665E+03   -0.54834E-04   -0.60898E-04 10584   0.540E-03 0.209E-03
CGA:  11    -0.340114409331E+03   -0.39667E-04   -0.41489E-04 10584   0.475E-03 0.329E-03
CGA:  12    -0.340114438251E+03   -0.28919E-04   -0.53731E-04 10584   0.281E-02-0.612E-03
CGA:  13    -0.340114479106E+03   -0.40855E-04   -0.61984E-04 10584   0.169E-03 0.408E-03
CGA:  14    -0.340114476964E+03    0.21419E-05   -0.38855E-05 10584   0.113E-03 0.116E-03
CGA:  15    -0.340114490292E+03   -0.13328E-04   -0.11151E-04 10584   0.127E-03 0.745E-04
CGA:  16    -0.340114500760E+03   -0.10468E-04   -0.12368E-04 10584   0.523E-03-0.716E-04
CGA:  17    -0.340114508724E+03   -0.79639E-05   -0.11647E-04 10584   0.659E-04 0.721E-04
 118 F= -.34011451E+03 E0= -.34010927E+03  d E =-.283049E-02  mag=    14.0000
       N       E                     dE             d eps       ncg     rms          ort
SDA:   1    -0.340109017702E+03    0.54831E-02    0.00000E+00 10584   0.137E+00 0.000E+00
CGA:   2    -0.340112191775E+03   -0.31741E-02   -0.32222E-02 10584   0.622E-02 0.208E-02
CGA:   3    -0.340113093206E+03   -0.90143E-03   -0.86553E-03 10584   0.835E-02 0.503E-03
CGA:   4    -0.340113676387E+03   -0.58318E-03   -0.58773E-03 10584   0.285E-02 0.834E-03
CGA:   5    -0.340113863926E+03   -0.18754E-03   -0.18429E-03 10584   0.280E-02-0.291E-03
CGA:   6    -0.340114113015E+03   -0.24909E-03   -0.26453E-03 10584   0.121E-02-0.438E-03
CGA:   7    -0.340114121040E+03   -0.80247E-05   -0.25210E-04 10584   0.409E-03 0.366E-03
CGA:   8    -0.340114130057E+03   -0.90175E-05   -0.17140E-04 10584   0.358E-03 0.220E-03
CGA:   9    -0.340114189839E+03   -0.59782E-04    0.50090E-04 10584   0.461E-03-0.545E-04
CGA:  10    -0.340114218767E+03   -0.28928E-04   -0.28668E-04 10584   0.133E-03 0.417E-04
CGA:  11    -0.340114216496E+03    0.22713E-05   -0.23061E-05 10584   0.609E-04 0.887E-04
 119 F= -.34011422E+03 E0= -.34010897E+03  d E =0.292228E-03  mag=    14.0000
       N       E                     dE             d eps       ncg     rms          ort
SDA:   1    -0.339895889632E+03    0.21833E+00    0.00000E+00 10584   0.629E+00 0.000E+00
CGA:   2    -0.340011786983E+03   -0.11590E+00   -0.11566E+00 10584   0.751E+00 0.291E-02
CGA:   3    -0.340047794154E+03   -0.36007E-01   -0.35500E-01 10584   0.303E+00 0.191E-01
CGA:   4    -0.340086920755E+03   -0.39127E-01   -0.39313E-01 10584   0.131E+00-0.349E-02
CGA:   5    -0.340094720597E+03   -0.77998E-02   -0.77822E-02 10584   0.966E-01-0.113E-02
CGA:   6    -0.340101005701E+03   -0.62851E-02   -0.62781E-02 10584   0.499E-01-0.171E-02
CGA:   7    -0.340103659011E+03   -0.26533E-02   -0.26460E-02 10584   0.941E-02-0.369E-03
CGA:   8    -0.340105181516E+03   -0.15225E-02   -0.15691E-02 10584   0.591E-02-0.478E-03
CGA:   9    -0.340105395516E+03   -0.21400E-03   -0.21438E-03 10584   0.263E-02 0.187E-05
CGA:  10    -0.340105762180E+03   -0.36666E-03   -0.36234E-03 10584   0.173E-02 0.645E-04
CGA:  11    -0.340105821697E+03   -0.59517E-04   -0.74815E-04 10584   0.523E-03 0.454E-03
CGA:  12    -0.340105910733E+03   -0.89036E-04   -0.11826E-03 10584   0.216E-02-0.279E-03
CGA:  13    -0.340105966437E+03   -0.55704E-04   -0.70624E-04 10584   0.167E-03 0.326E-03
CGA:  14    -0.340105980048E+03   -0.13611E-04   -0.13622E-04 10584   0.234E-03 0.138E-05
CGA:  15    -0.340105895260E+03    0.84789E-04   -0.53774E-04 10584   0.204E-02-0.483E-03
CGA:  16    -0.340105960824E+03   -0.65564E-04   -0.79854E-04 10584   0.769E-03 0.148E-03
CGA:  17    -0.340106052442E+03   -0.91618E-04   -0.87377E-04 10584   0.125E-02-0.150E-03
CGA:  18    -0.340106095082E+03   -0.42640E-04   -0.46168E-04 10584   0.227E-03 0.397E-04
CGA:  19    -0.340106094713E+03    0.36848E-06   -0.55403E-05 10584   0.627E-04 0.556E-04
 120 F= -.34010609E+03 E0= -.34010079E+03  d E =0.812178E-02  mag=    14.0000
       N       E                     dE             d eps       ncg     rms          ort
SDA:   1    -0.340077230259E+03    0.28865E-01    0.00000E+00 10584   0.116E+00 0.000E+00
CGA:   2    -0.340086123412E+03   -0.88932E-02   -0.90669E-02 10584   0.170E+00 0.255E-02
CGA:   3    -0.340099438516E+03   -0.13315E-01   -0.13250E-01 10584   0.730E-01-0.319E-02
CGA:   4    -0.340103989646E+03   -0.45511E-02   -0.44919E-02 10584   0.390E-01-0.193E-02
CGA:   5    -0.340106996390E+03   -0.30067E-02   -0.30502E-02 10584   0.220E-01 0.156E-02
CGA:   6    -0.340108291760E+03   -0.12954E-02   -0.12560E-02 10584   0.744E-02-0.636E-03
CGA:   7    -0.340109030362E+03   -0.73860E-03   -0.74017E-03 10584   0.455E-02 0.268E-03
CGA:   8    -0.340109193884E+03   -0.16352E-03   -0.17867E-03 10584   0.125E-02 0.219E-03
CGA:   9    -0.340109377315E+03   -0.18343E-03   -0.20068E-03 10584   0.207E-02-0.358E-03
CGA:  10    -0.340109404580E+03   -0.27265E-04   -0.45518E-04 10584   0.556E-03 0.241E-03
CGA:  11    -0.340109415728E+03   -0.11148E-04   -0.18889E-04 10584   0.336E-03 0.107E-03
CGA:  12    -0.340109458142E+03   -0.42414E-04   -0.54638E-04 10584   0.151E-02-0.331E-03
CGA:  13    -0.340109517322E+03   -0.59180E-04   -0.58112E-04 10584   0.696E-04-0.161E-04
CGA:  14    -0.340109518135E+03   -0.81314E-06   -0.29945E-05 10584   0.494E-04 0.400E-04
 121 F= -.34010952E+03 E0= -.34010422E+03  d E =-.342342E-02  mag=    14.0000
       N       E                     dE             d eps       ncg     rms          ort
SDA:   1    -0.340101481495E+03    0.80358E-02    0.00000E+00 10584   0.136E+00 0.000E+00
CGA:   2    -0.340105207692E+03   -0.37262E-02   -0.36519E-02 10584   0.156E-01-0.260E-02
CGA:   3    -0.340107499791E+03   -0.22921E-02   -0.24821E-02 10584   0.378E-01-0.272E-02
CGA:   4    -0.340108816444E+03   -0.13167E-02   -0.13863E-02 10584   0.879E-02 0.127E-02
CGA:   5    -0.340109237738E+03   -0.42129E-03   -0.44101E-03 10584   0.489E-02 0.455E-03
CGA:   6    -0.340109667825E+03   -0.43009E-03   -0.42344E-03 10584   0.654E-02-0.826E-03
CGA:   7    -0.340109861451E+03   -0.19363E-03   -0.20184E-03 10584   0.164E-02 0.156E-03
CGA:   8    -0.340109888949E+03   -0.27498E-04   -0.45888E-04 10584   0.857E-03 0.307E-03
CGA:   9    -0.340109946804E+03   -0.57855E-04   -0.62613E-04 10584   0.963E-03 0.207E-03
CGA:  10    -0.340110023059E+03   -0.76255E-04   -0.64023E-04 10584   0.401E-03-0.416E-03
CGA:  11    -0.340110027794E+03   -0.47358E-05   -0.60537E-05 10584   0.199E-03 0.232E-04
 122 F= -.34011003E+03 E0= -.34010473E+03  d E =-.509659E-03  mag=    14.0000
       N       E                     dE             d eps       ncg     rms          ort
SDA:   1    -0.340104766467E+03    0.52566E-02    0.00000E+00 10584   0.127E+00 0.000E+00
CGA:   2    -0.340107685595E+03   -0.29191E-02   -0.29942E-02 10584   0.563E-02 0.184E-02
CGA:   3    -0.340108256821E+03   -0.57123E-03   -0.55911E-03 10584   0.573E-02 0.495E-03
CGA:   4    -0.340108800641E+03   -0.54382E-03   -0.53637E-03 10584   0.224E-02 0.675E-03
CGA:   5    -0.340108947027E+03   -0.14639E-03   -0.14327E-03 10584   0.232E-02-0.176E-03
CGA:   6    -0.340109156310E+03   -0.20928E-03   -0.21982E-03 10584   0.773E-03-0.380E-03
CGA:   7    -0.340109160999E+03   -0.46893E-05   -0.17366E-04 10584   0.315E-03 0.257E-03
CGA:   8    -0.340109175195E+03   -0.14196E-04   -0.18653E-04 10584   0.312E-03 0.152E-03
CGA:   9    -0.340108712709E+03    0.46249E-03   -0.16587E-03 10584   0.709E-02-0.219E-02
CGA:  10    -0.340108917949E+03   -0.20524E-03   -0.26663E-03 10584   0.264E-02 0.126E-02
CGA:  11    -0.340109223484E+03   -0.30553E-03   -0.30632E-03 10584   0.638E-03-0.574E-04
CGA:  12    -0.340109259456E+03   -0.35972E-04   -0.28018E-04 10584   0.375E-03-0.202E-03
CGA:  13    -0.340109275084E+03   -0.15628E-04   -0.17022E-04 10584   0.136E-03 0.855E-04
CGA:  14    -0.340109273940E+03    0.11434E-05   -0.42052E-05 10584   0.574E-04 0.942E-04
 123 F= -.34010927E+03 E0= -.34010397E+03  d E =0.753854E-03  mag=    14.0000
       N       E                     dE             d eps       ncg     rms          ort
SDA:   1    -0.340039196019E+03    0.70079E-01    0.00000E+00 10584   0.254E+00 0.000E+00
CGA:   2    -0.340056995406E+03   -0.17799E-01   -0.17794E-01 10584   0.349E+00-0.475E-03
CGA:   3    -0.340083668072E+03   -0.26673E-01   -0.26680E-01 10584   0.101E+00 0.414E-02
CGA:   4    -0.340092319746E+03   -0.86517E-02   -0.86209E-02 10584   0.102E+00 0.502E-02
CGA:   5    -0.340099534694E+03   -0.72149E-02   -0.71612E-02 10584   0.317E-01-0.577E-02
CGA:   6    -0.340101442121E+03   -0.19074E-02   -0.19342E-02 10584   0.143E-01 0.218E-02
CGA:   7    -0.340103187067E+03   -0.17449E-02   -0.19189E-02 10584   0.828E-02-0.361E-02
CGA:   8    -0.340103351447E+03   -0.16438E-03   -0.20550E-03 10584   0.265E-02 0.875E-03
CGA:   9    -0.340103516817E+03   -0.16537E-03   -0.17553E-03 10584   0.250E-02 0.591E-03
CGA:  10    -0.340103756230E+03   -0.23941E-03   -0.24304E-03 10584   0.239E-02-0.110E-02
CGA:  11    -0.340103782316E+03   -0.26086E-04   -0.32848E-04 10584   0.115E-02 0.130E-03
CGA:  12    -0.340103789829E+03   -0.75139E-05   -0.24345E-04 10584   0.606E-03 0.313E-03
CGA:  13    -0.340103803512E+03   -0.13683E-04   -0.24958E-04 10584   0.716E-03 0.290E-03
CGA:  14    -0.340103866089E+03   -0.62577E-04   -0.62479E-04 10584   0.605E-03-0.108E-04
CGA:  15    -0.340103903248E+03   -0.37160E-04   -0.26323E-04 10584   0.296E-03-0.444E-03
CGA:  16    -0.340103902831E+03    0.41768E-06   -0.71565E-05 10584   0.141E-03 0.175E-03
CGA:  17    -0.340103931252E+03   -0.28421E-04   -0.25029E-04 10584   0.495E-04 0.303E-04
CGA:  18    -0.340103948623E+03   -0.17371E-04    0.20522E-05 10584   0.829E-04-0.145E-04
CGA:  19    -0.340103959503E+03   -0.10880E-04    0.67385E-05 10584   0.895E-04 0.209E-04
CGA:  20    -0.340103958071E+03    0.14315E-05   -0.19088E-05 10584   0.322E-04 0.619E-04
 124 F= -.34010396E+03 E0= -.34009863E+03  d E =0.531587E-02  mag=    14.0000
       N       E                     dE             d eps       ncg     rms          ort
SDA:   1    -0.340095437667E+03    0.85218E-02    0.00000E+00 10584   0.400E-01 0.000E+00
CGA:   2    -0.340098123997E+03   -0.26863E-02   -0.26966E-02 10584   0.568E-01-0.569E-02
CGA:   3    -0.340102830777E+03   -0.47068E-02   -0.46840E-02 10584   0.240E-01 0.687E-03
CGA:   4    -0.340103674374E+03   -0.84360E-03   -0.91150E-03 10584   0.934E-02 0.236E-02
CGA:   5    -0.340104745324E+03   -0.10709E-02   -0.10983E-02 10584   0.949E-02-0.672E-03
CGA:   6    -0.340105080078E+03   -0.33475E-03   -0.34576E-03 10584   0.306E-02 0.374E-03
CGA:   7    -0.340105191984E+03   -0.11191E-03   -0.12975E-03 10584   0.149E-02 0.701E-03
CGA:   8    -0.340105312768E+03   -0.12078E-03   -0.12051E-03 10584   0.142E-02 0.317E-03
CGA:   9    -0.340105392065E+03   -0.79297E-04   -0.77219E-04 10584   0.238E-03-0.107E-03
CGA:  10    -0.340105435333E+03   -0.43267E-04   -0.39216E-04 10584   0.813E-04 0.354E-04
CGA:  11    -0.340105443076E+03   -0.77432E-05   -0.72846E-05 10584   0.488E-04 0.554E-04
 125 F= -.34010544E+03 E0= -.34010012E+03  d E =-.148500E-02  mag=    14.0000
       N       E                     dE             d eps       ncg     rms          ort
SDA:   1    -0.340099337699E+03    0.60976E-02    0.00000E+00 10584   0.555E-01 0.000E+00
CGA:   2    -0.340101781386E+03   -0.24437E-02   -0.23028E-02 10584   0.274E-01-0.600E-02
CGA:   3    -0.340105005789E+03   -0.32244E-02   -0.32110E-02 10584   0.178E-01 0.184E-03
CGA:   4    -0.340105779521E+03   -0.77373E-03   -0.77576E-03 10584   0.858E-02-0.463E-04
CGA:   5    -0.340106703106E+03   -0.92359E-03   -0.94334E-03 10584   0.575E-02-0.510E-03
CGA:   6    -0.340106949074E+03   -0.24597E-03   -0.25953E-03 10584   0.132E-02 0.532E-03
CGA:   7    -0.340107110157E+03   -0.16108E-03   -0.16075E-03 10584   0.131E-02 0.698E-05
CGA:   8    -0.340107155912E+03   -0.45756E-04   -0.52157E-04 10584   0.240E-03 0.187E-03
CGA:   9    -0.340107160905E+03   -0.49926E-05   -0.98672E-05 10584   0.129E-03 0.137E-03
CGA:  10    -0.340107181433E+03   -0.20528E-04    0.32725E-04 10584   0.847E-04 0.599E-04
CGA:  11    -0.340107189072E+03   -0.76386E-05   -0.79321E-05 10584   0.443E-04 0.508E-04
CGA:  12    -0.340107179107E+03    0.99651E-05   -0.11310E-04 10584   0.130E-02-0.115E-03
CGA:  13    -0.340107205621E+03   -0.26514E-04   -0.29518E-04 10584   0.249E-04 0.461E-04
CGA:  14    -0.340107205095E+03    0.52650E-06   -0.47656E-06 10584   0.145E-04 0.174E-04
 126 F= -.34010721E+03 E0= -.34010187E+03  d E =-.176202E-02  mag=    14.0000
       N       E                     dE             d eps       ncg     rms          ort
SDA:   1    -0.340105867360E+03    0.13383E-02    0.00000E+00 10584   0.131E-01 0.000E+00
CGA:   2    -0.340106227651E+03   -0.36029E-03   -0.40204E-03 10584   0.400E-02 0.106E-02
CGA:   3    -0.340106870584E+03   -0.64293E-03   -0.65975E-03 10584   0.750E-02-0.213E-03
CGA:   4    -0.340107318523E+03   -0.44794E-03   -0.43424E-03 10584   0.220E-02-0.100E-02
CGA:   5    -0.340107357843E+03   -0.39320E-04   -0.60706E-04 10584   0.944E-03 0.498E-03
CGA:   6    -0.340107409533E+03   -0.51691E-04   -0.60239E-04 10584   0.863E-03 0.423E-03
CGA:   7    -0.340107508214E+03   -0.98681E-04   -0.10735E-03 10584   0.770E-03-0.592E-03
CGA:   8    -0.340107514654E+03   -0.64393E-05   -0.17638E-04 10584   0.162E-03 0.225E-03
 127 F= -.34010751E+03 E0= -.34010217E+03  d E =-.309559E-03  mag=    14.0000
       N       E                     dE             d eps       ncg     rms          ort
SDA:   1    -0.340103233009E+03    0.42752E-02    0.00000E+00 10584   0.109E+00 0.000E+00
CGA:   2    -0.340105575080E+03   -0.23421E-02   -0.25039E-02 10584   0.387E-02 0.334E-02
CGA:   3    -0.340105906759E+03   -0.33168E-03   -0.31231E-03 10584   0.358E-02 0.151E-02
CGA:   4    -0.340106383096E+03   -0.47634E-03   -0.51150E-03 10584   0.566E-02-0.966E-03
CGA:   5    -0.340106474870E+03   -0.91774E-04   -0.11892E-03 10584   0.227E-02 0.690E-03
CGA:   6    -0.340106497615E+03   -0.22745E-04   -0.51893E-04 10584   0.100E-02 0.636E-03
CGA:   7    -0.340106533927E+03   -0.36312E-04   -0.47348E-04 10584   0.120E-02 0.412E-03
CGA:   8    -0.340106652810E+03   -0.11888E-03   -0.12784E-03 10584   0.122E-02-0.703E-03
CGA:   9    -0.340106716129E+03   -0.63319E-04   -0.53597E-04 10584   0.683E-03-0.514E-03
CGA:  10    -0.340106747994E+03   -0.31865E-04   -0.35419E-04 10584   0.377E-03-0.131E-03
CGA:  11    -0.340106747418E+03    0.57593E-06   -0.58397E-05 10584   0.112E-03 0.144E-03
 128 F= -.34010675E+03 E0= -.34010140E+03  d E =0.767236E-03  mag=    14.0000
       N       E                     dE             d eps       ncg     rms          ort
SDA:   1    -0.340099609817E+03    0.71382E-02    0.00000E+00 10584   0.285E-01 0.000E+00
CGA:   2    -0.340101375281E+03   -0.17655E-02   -0.17609E-02 10584   0.168E-01 0.136E-02
CGA:   3    -0.340103567626E+03   -0.21923E-02   -0.22238E-02 10584   0.176E-01-0.483E-03
CGA:   4    -0.340104198752E+03   -0.63113E-03   -0.66546E-03 10584   0.475E-02 0.151E-02
CGA:   5    -0.340104702752E+03   -0.50400E-03   -0.47117E-03 10584   0.432E-02 0.108E-02
CGA:   6    -0.340105066849E+03   -0.36410E-03   -0.39456E-03 10584   0.446E-02-0.263E-02
CGA:   7    -0.340105135770E+03   -0.68921E-04   -0.10796E-03 10584   0.590E-03 0.103E-02
CGA:   8    -0.340105154288E+03   -0.18518E-04   -0.26292E-04 10584   0.456E-03 0.309E-03
CGA:   9    -0.340105220563E+03   -0.66275E-04    0.65728E-04 10584   0.417E-03 0.112E-04
CGA:  10    -0.340105253962E+03   -0.33399E-04   -0.31657E-04 10584   0.702E-04 0.123E-03
CGA:  11    -0.340105254099E+03   -0.13767E-06   -0.24369E-05 10584   0.502E-04 0.676E-04
 129 F= -.34010525E+03 E0= -.34009990E+03  d E =0.149332E-02  mag=    14.0000
       N       E                     dE             d eps       ncg     rms          ort
SDA:   1    -0.340104320177E+03    0.93378E-03    0.00000E+00 10584   0.471E-02 0.000E+00
CGA:   2    -0.340104632883E+03   -0.31271E-03   -0.36132E-03 10584   0.936E-02-0.280E-02
CGA:   3    -0.340104793917E+03   -0.16103E-03   -0.22291E-03 10584   0.105E-02 0.177E-02
CGA:   4    -0.340104834232E+03   -0.40316E-04   -0.50658E-04 10584   0.117E-02 0.585E-03
CGA:   5    -0.340103673899E+03    0.11603E-02   -0.63540E-03 10584   0.692E-01-0.520E-02
CGA:   6    -0.340105189206E+03   -0.15153E-02   -0.16724E-02 10584   0.652E-03 0.590E-02
CGA:   7    -0.340105185989E+03    0.32169E-05   -0.13810E-04 10584   0.110E-03 0.212E-03
 130 F= -.34010519E+03 E0= -.34009983E+03  d E =0.681107E-04  mag=    14.0000
       N       E                     dE             d eps       ncg     rms          ort
SDA:   1    -0.340103556076E+03    0.16331E-02    0.00000E+00 10584   0.185E-01 0.000E+00
CGA:   2    -0.340104102146E+03   -0.54607E-03   -0.62991E-03 10584   0.572E-02 0.183E-02
CGA:   3    -0.340105212365E+03   -0.11102E-02   -0.11283E-02 10584   0.599E-02-0.205E-03
CGA:   4    -0.340105599953E+03   -0.38759E-03   -0.33015E-03 10584   0.513E-02-0.158E-02
CGA:   5    -0.340105830053E+03   -0.23010E-03   -0.24135E-03 10584   0.192E-02 0.394E-03
CGA:   6    -0.340105870432E+03   -0.40380E-04   -0.70658E-04 10584   0.786E-03 0.536E-03
CGA:   7    -0.340105934374E+03   -0.63942E-04   -0.66116E-04 10584   0.714E-03 0.960E-04
CGA:   8    -0.340105991742E+03   -0.57368E-04   -0.54651E-04 10584   0.390E-03-0.146E-03
CGA:   9    -0.340105989911E+03    0.18318E-05   -0.59544E-05 10584   0.159E-03 0.116E-03
 131 F= -.34010599E+03 E0= -.34010064E+03  d E =-.803922E-03  mag=    14.0000
       N       E                     dE             d eps       ncg     rms          ort
SDA:   1    -0.340102780353E+03    0.32114E-02    0.00000E+00 10584   0.128E-01 0.000E+00
CGA:   2    -0.340103902758E+03   -0.11224E-02   -0.11429E-02 10584   0.245E-01-0.222E-02
CGA:   3    -0.340105366779E+03   -0.14640E-02   -0.14642E-02 10584   0.975E-02 0.122E-04
CGA:   4    -0.340105661422E+03   -0.29464E-03   -0.35233E-03 10584   0.410E-02 0.141E-02
CGA:   5    -0.340106003042E+03   -0.34162E-03   -0.34250E-03 10584   0.376E-02 0.200E-03
CGA:   6    -0.340106241335E+03   -0.23829E-03   -0.22276E-03 10584   0.170E-02-0.761E-03
CGA:   7    -0.340106261864E+03   -0.20529E-04   -0.38089E-04 10584   0.644E-03 0.365E-03
CGA:   8    -0.340106268508E+03   -0.66440E-05   -0.21657E-04 10584   0.458E-03 0.326E-03
CGA:   9    -0.340106014541E+03    0.25397E-03   -0.14583E-03 10584   0.143E-01-0.162E-02
CGA:  10    -0.340106293145E+03   -0.27860E-03   -0.35521E-03 10584   0.639E-03 0.146E-02
CGA:  11    -0.340106314214E+03   -0.21068E-04   -0.25341E-04 10584   0.189E-03 0.927E-04
CGA:  12    -0.340106351931E+03   -0.37717E-04    0.75890E-04 10584   0.203E-03-0.126E-04
CGA:  13    -0.340106355302E+03   -0.33711E-05   -0.59953E-05 10584   0.573E-04 0.558E-04
 132 F= -.34010636E+03 E0= -.34010100E+03  d E =-.365391E-03  mag=    14.0000
       N       E                     dE             d eps       ncg     rms          ort
SDA:   1    -0.340104552059E+03    0.17999E-02    0.00000E+00 10584   0.228E-01 0.000E+00
CGA:   2    -0.340105430248E+03   -0.87819E-03   -0.79350E-03 10584   0.243E-02-0.290E-02
CGA:   3    -0.340105495437E+03   -0.65189E-04   -0.84910E-04 10584   0.750E-03 0.635E-03
CGA:   4    -0.340105561713E+03   -0.66276E-04   -0.66101E-04 10584   0.667E-03 0.443E-03
CGA:   5    -0.340103735811E+03    0.18259E-02   -0.10127E-02 10584   0.882E-01-0.552E-02
CGA:   6    -0.340105730435E+03   -0.19946E-02   -0.21079E-02 10584   0.101E-02 0.899E-02
CGA:   7    -0.340105727491E+03    0.29436E-05   -0.21766E-04 10584   0.873E-04 0.251E-03
 133 F= -.34010573E+03 E0= -.34010037E+03  d E =0.627811E-03  mag=    14.0000
