       N       E                     dE             d eps       ncg     rms          rms(c)
DAV:   1     0.292867373657E+04    0.29287E+04   -0.13877E+05 26712   0.150E+03
DAV:   2     0.163923627855E+02   -0.29123E+04   -0.27252E+04 27936   0.427E+02
DAV:   3    -0.306872471891E+03   -0.32326E+03   -0.31838E+03 30216   0.153E+02
DAV:   4    -0.320006752318E+03   -0.13134E+02   -0.12945E+02 38316   0.281E+01
DAV:   5    -0.320627136824E+03   -0.62038E+00   -0.61943E+00 40452   0.483E+00    0.712E+01
DAV:   6    -0.281128129904E+03    0.39499E+02   -0.33411E+02 33924   0.533E+01    0.647E+01
DAV:   7    -0.277934326273E+03    0.31938E+01   -0.79550E+01 32088   0.573E+01    0.334E+01
DAV:   8    -0.279926147201E+03   -0.19918E+01   -0.41953E+01 35232   0.145E+01    0.301E+01
DAV:   9    -0.277748623654E+03    0.21775E+01   -0.67998E+00 33276   0.128E+01    0.125E+01
DAV:  10    -0.278285086327E+03   -0.53646E+00   -0.81480E+00 35808   0.680E+00    0.163E+01
DAV:  11    -0.277875452700E+03    0.40963E+00   -0.23144E+00 31584   0.679E+00    0.698E+00
DAV:  12    -0.278031695105E+03   -0.15624E+00   -0.21523E+00 35208   0.343E+00    0.108E+01
DAV:  13    -0.277867983975E+03    0.16371E+00   -0.13084E+00 32868   0.357E+00    0.470E+00
DAV:  14    -0.277904634790E+03   -0.36651E-01   -0.61249E-01 34104   0.197E+00    0.560E+00
DAV:  15    -0.277876466607E+03    0.28168E-01   -0.16536E-01 31140   0.132E+00    0.127E+00
DAV:  16    -0.277884391789E+03   -0.79252E-02   -0.35197E-02 34656   0.475E-01    0.823E-01
DAV:  17    -0.277887113771E+03   -0.27220E-02   -0.10760E-02 32148   0.288E-01    0.141E+00
DAV:  18    -0.277885527464E+03    0.15863E-02   -0.13542E-02 33768   0.273E-01    0.316E-01
DAV:  19    -0.277886499779E+03   -0.97231E-03   -0.29618E-03 28668   0.115E-01    0.406E-01
DAV:  20    -0.277886461667E+03    0.38111E-04   -0.69663E-04 34884   0.873E-02    0.147E-01
DAV:  21    -0.277886543503E+03   -0.81836E-04   -0.64913E-04 29892   0.431E-02    0.142E-01
DAV:  22    -0.277886549024E+03   -0.55217E-05   -0.58622E-05 23688   0.303E-02
   1 F= -.27788655E+03 E0= -.27788341E+03  d E =-.277887E+03  mag=    17.9993
       N       E                     dE             d eps       ncg     rms          rms(c)
DAV:   1    -0.277949297494E+03   -0.62754E-01   -0.26200E-02 28512   0.471E-01    0.946E-02
DAV:   2    -0.277949485225E+03   -0.18773E-03   -0.25817E-03 31956   0.137E-01    0.435E-01
DAV:   3    -0.277949325949E+03    0.15928E-03   -0.84422E-04 32760   0.871E-02    0.636E-02
DAV:   4    -0.277949377397E+03   -0.51448E-04   -0.36351E-04 29976   0.331E-02    0.157E-01
DAV:   5    -0.277949365590E+03    0.11807E-04   -0.93067E-05 26772   0.322E-02    0.126E-01
DAV:   6    -0.277949355376E+03    0.10214E-04   -0.63110E-05 16848   0.185E-02    0.344E-02
DAV:   7    -0.277949363072E+03   -0.76963E-05   -0.69407E-05 18912   0.150E-02
   2 F= -.27794936E+03 E0= -.27794623E+03  d E =-.628140E-01  mag=    18.0000
       N       E                     dE             d eps       ncg     rms          rms(c)
DAV:   1    -0.279799035882E+03   -0.18497E+01   -0.41502E+01 26748   0.188E+01    0.343E+00
DAV:   2    -0.279959524792E+03   -0.16049E+00   -0.23483E+00 31032   0.414E+00    0.693E+00
DAV:   3    -0.279927743317E+03    0.31781E-01   -0.71717E-01 34680   0.231E+00    0.392E+00
DAV:   4    -0.279913102391E+03    0.14641E-01   -0.54851E-02 34308   0.120E+00    0.219E+00
DAV:   5    -0.279915546441E+03   -0.24441E-02   -0.14957E-01 34020   0.812E-01    0.327E+00
DAV:   6    -0.279913187885E+03    0.23586E-02   -0.96959E-02 36456   0.753E-01    0.297E+00
DAV:   7    -0.279908281424E+03    0.49065E-02   -0.24737E-02 34224   0.488E-01    0.166E+00
DAV:   8    -0.279907957907E+03    0.32352E-03   -0.13717E-02 34956   0.204E-01    0.474E-01
DAV:   9    -0.279909058842E+03   -0.11009E-02   -0.49427E-03 33708   0.149E-01    0.378E-01
DAV:  10    -0.279909199711E+03   -0.14087E-03   -0.11694E-03 32220   0.106E-01    0.409E-01
DAV:  11    -0.279909108918E+03    0.90792E-04   -0.43315E-04 34392   0.563E-02    0.297E-01
DAV:  12    -0.279909087244E+03    0.21675E-04   -0.55980E-04 31032   0.388E-02    0.167E-01
DAV:  13    -0.279909100865E+03   -0.13622E-04   -0.17979E-04 21840   0.292E-02    0.935E-02
DAV:  14    -0.279909108673E+03   -0.78082E-05   -0.10486E-04 20580   0.193E-02    0.768E-02
DAV:  15    -0.279909107581E+03    0.10927E-05   -0.14423E-05 16140   0.131E-02
   3 F= -.27990911E+03 E0= -.27990603E+03  d E =-.195974E+01  mag=    18.0000
       N       E                     dE             d eps       ncg     rms          rms(c)
DAV:   1    -0.281468116386E+03   -0.15590E+01   -0.12776E+02 27744   0.363E+01    0.526E+00
DAV:   2    -0.282252216746E+03   -0.78410E+00   -0.95713E+00 29484   0.840E+00    0.131E+01
DAV:   3    -0.282077695141E+03    0.17452E+00   -0.15175E+00 33492   0.421E+00    0.380E+00
DAV:   4    -0.282121162198E+03   -0.43467E-01   -0.75291E-01 36912   0.213E+00    0.814E+00
DAV:   5    -0.282051355312E+03    0.69807E-01   -0.28907E-01 35520   0.177E+00    0.224E+00
DAV:   6    -0.282075508767E+03   -0.24153E-01   -0.41961E-01 37896   0.124E+00    0.552E+00
DAV:   7    -0.282050805785E+03    0.24703E-01   -0.70897E-02 35088   0.107E+00    0.281E+00
DAV:   8    -0.282049893930E+03    0.91185E-03   -0.63964E-02 36600   0.433E-01    0.487E-01
DAV:   9    -0.282054280733E+03   -0.43868E-02   -0.86805E-03 32076   0.244E-01    0.898E-01
DAV:  10    -0.282053991246E+03    0.28949E-03   -0.37586E-03 36288   0.158E-01    0.812E-01
DAV:  11    -0.282053509093E+03    0.48215E-03   -0.33571E-03 37020   0.128E-01    0.173E-01
DAV:  12    -0.282053826344E+03   -0.31725E-03   -0.17944E-03 33936   0.593E-02    0.345E-01
DAV:  13    -0.282053781808E+03    0.44536E-04   -0.10696E-04 28872   0.530E-02    0.259E-01
DAV:  14    -0.282053739133E+03    0.42675E-04   -0.36020E-04 28224   0.336E-02    0.420E-02
DAV:  15    -0.282053768834E+03   -0.29701E-04   -0.65064E-05 17880   0.135E-02    0.503E-02
DAV:  16    -0.282053770591E+03   -0.17572E-05   -0.75898E-06 16164   0.934E-03
   4 F= -.28205377E+03 E0= -.28205088E+03  d E =-.214466E+01  mag=    18.0000
       N       E                     dE             d eps       ncg     rms          rms(c)
DAV:   1    -0.282432741801E+03   -0.37897E+00   -0.10340E+02 27276   0.380E+01    0.471E+00
DAV:   2    -0.283354690576E+03   -0.92195E+00   -0.10488E+01 28860   0.875E+00    0.150E+01
DAV:   3    -0.283151743611E+03    0.20295E+00   -0.14659E+00 34416   0.411E+00    0.259E+00
DAV:   4    -0.283181920460E+03   -0.30177E-01   -0.20853E-01 34500   0.120E+00    0.386E+00
DAV:   5    -0.283166712035E+03    0.15208E-01   -0.16793E-01 35016   0.129E+00    0.261E+00
DAV:   6    -0.283183828689E+03   -0.17117E-01   -0.29913E-01 37920   0.112E+00    0.540E+00
DAV:   7    -0.283166216203E+03    0.17612E-01   -0.69578E-02 35220   0.971E-01    0.435E+00
DAV:   8    -0.283153373586E+03    0.12843E-01   -0.10027E-01 35904   0.643E-01    0.755E-01
DAV:   9    -0.283161170426E+03   -0.77968E-02   -0.25092E-02 34560   0.300E-01    0.951E-01
DAV:  10    -0.283161498735E+03   -0.32831E-03   -0.25031E-03 31092   0.191E-01    0.928E-01
DAV:  11    -0.283160712783E+03    0.78595E-03   -0.58214E-03 37452   0.156E-01    0.100E-01
DAV:  12    -0.283161093658E+03   -0.38087E-03   -0.10442E-03 31200   0.686E-02    0.280E-01
DAV:  13    -0.283161045617E+03    0.48041E-04   -0.13020E-04 30564   0.486E-02    0.177E-01
DAV:  14    -0.283161031610E+03    0.14007E-04   -0.25057E-04 24516   0.263E-02    0.136E-02
DAV:  15    -0.283161048044E+03   -0.16434E-04   -0.18132E-05 17832   0.151E-02    0.311E-02
DAV:  16    -0.283161048341E+03   -0.29701E-06   -0.20913E-06 15552   0.539E-03
   5 F= -.28316105E+03 E0= -.28315838E+03  d E =-.110728E+01  mag=    18.0000
       N       E                     dE             d eps       ncg     rms          rms(c)
DAV:   1    -0.282785343864E+03    0.37570E+00   -0.10880E+02 26784   0.419E+01    0.467E+00
DAV:   2    -0.283741887982E+03   -0.95654E+00   -0.10538E+01 27408   0.898E+00    0.111E+01
DAV:   3    -0.283676098864E+03    0.65789E-01   -0.15581E+00 36720   0.352E+00    0.496E+00
DAV:   4    -0.283667191767E+03    0.89071E-02   -0.78510E-02 34116   0.157E+00    0.267E+00
DAV:   5    -0.283661617268E+03    0.55745E-02   -0.29595E-01 36936   0.117E+00    0.386E+00
DAV:   6    -0.283660648650E+03    0.96862E-03   -0.11279E-01 36588   0.936E-01    0.436E+00
DAV:   7    -0.283648254540E+03    0.12394E-01   -0.45184E-02 34584   0.615E-01    0.178E+00
DAV:   8    -0.283651316624E+03   -0.30621E-02   -0.46627E-02 39300   0.303E-01    0.121E+00
DAV:   9    -0.283652256056E+03   -0.93943E-03   -0.70544E-03 31920   0.274E-01    0.806E-01
DAV:  10    -0.283652152331E+03    0.10372E-03   -0.51747E-03 35520   0.144E-01    0.627E-01
DAV:  11    -0.283652013427E+03    0.13890E-03   -0.21051E-03 35748   0.114E-01    0.261E-01
DAV:  12    -0.283652090661E+03   -0.77234E-04   -0.60417E-04 34080   0.543E-02    0.146E-01
DAV:  13    -0.283652104709E+03   -0.14048E-04   -0.25283E-04 30048   0.374E-02    0.808E-02
DAV:  14    -0.283652108589E+03   -0.38795E-05   -0.19608E-05 18144   0.180E-02
   6 F= -.28365211E+03 E0= -.28364961E+03  d E =-.491060E+00  mag=    18.0000
       N       E                     dE             d eps       ncg     rms          rms(c)
DAV:   1    -0.281936587171E+03    0.17155E+01   -0.21293E+02 26856   0.602E+01    0.828E+00
DAV:   2    -0.284146898467E+03   -0.22103E+01   -0.24292E+01 27756   0.135E+01    0.161E+01
DAV:   3    -0.283934669007E+03    0.21223E+00   -0.33991E+00 33240   0.632E+00    0.690E+00
DAV:   4    -0.283984560445E+03   -0.49891E-01   -0.13579E+00 36420   0.320E+00    0.100E+01
DAV:   5    -0.283887516465E+03    0.97044E-01   -0.58350E-01 32796   0.245E+00    0.299E+00
DAV:   6    -0.283919348404E+03   -0.31832E-01   -0.58196E-01 36240   0.152E+00    0.582E+00
DAV:   7    -0.283883156877E+03    0.36192E-01   -0.13476E-01 35088   0.131E+00    0.339E+00
DAV:   8    -0.283880672864E+03    0.24840E-02   -0.16697E-01 36108   0.767E-01    0.163E+00
DAV:   9    -0.283884570191E+03   -0.38973E-02   -0.13352E-02 30936   0.488E-01    0.140E+00
DAV:  10    -0.283882842700E+03    0.17275E-02   -0.11581E-02 37452   0.256E-01    0.541E-01
DAV:  11    -0.283883293745E+03   -0.45104E-03   -0.56994E-03 35796   0.177E-01    0.357E-01
DAV:  12    -0.283883518204E+03   -0.22446E-03   -0.10684E-03 30660   0.106E-01    0.517E-01
DAV:  13    -0.283883276225E+03    0.24198E-03   -0.91798E-04 35580   0.775E-02    0.192E-01
DAV:  14    -0.283883349559E+03   -0.73334E-04   -0.79267E-04 32508   0.382E-02    0.148E-01
DAV:  15    -0.283883361400E+03   -0.11841E-04   -0.33562E-05 21480   0.296E-02    0.115E-01
DAV:  16    -0.283883352370E+03    0.90303E-05   -0.95105E-05 20724   0.189E-02
   7 F= -.28388335E+03 E0= -.28388076E+03  d E =-.231244E+00  mag=    18.0000
       N       E                     dE             d eps       ncg     rms          rms(c)
DAV:   1    -0.283570829615E+03    0.31253E+00   -0.10342E+02 27660   0.393E+01    0.574E+00
DAV:   2    -0.284311659651E+03   -0.74083E+00   -0.87137E+00 28356   0.851E+00    0.148E+01
DAV:   3    -0.284133175954E+03    0.17848E+00   -0.19634E+00 32172   0.445E+00    0.375E+00
DAV:   4    -0.284180133769E+03   -0.46958E-01   -0.48569E-01 36000   0.178E+00    0.698E+00
DAV:   5    -0.284131196468E+03    0.48937E-01   -0.22168E-01 31788   0.156E+00    0.302E+00
DAV:   6    -0.284143089832E+03   -0.11893E-01   -0.46199E-01 37788   0.125E+00    0.486E+00
DAV:   7    -0.284123447441E+03    0.19642E-01   -0.10002E-01 32148   0.107E+00    0.358E+00
DAV:   8    -0.284115877397E+03    0.75700E-02   -0.70829E-02 35364   0.640E-01    0.108E+00
DAV:   9    -0.284119832710E+03   -0.39553E-02   -0.20303E-02 35280   0.325E-01    0.575E-01
DAV:  10    -0.284120518696E+03   -0.68599E-03   -0.25177E-03 31680   0.154E-01    0.690E-01
DAV:  11    -0.284120013703E+03    0.50499E-03   -0.33303E-03 36888   0.132E-01    0.720E-02
DAV:  12    -0.284120278437E+03   -0.26473E-03   -0.11535E-03 29616   0.556E-02    0.327E-01
DAV:  13    -0.284120195649E+03    0.82788E-04   -0.21544E-04 31584   0.530E-02    0.164E-01
DAV:  14    -0.284120201856E+03   -0.62069E-05   -0.34529E-04 29064   0.288E-02    0.520E-02
DAV:  15    -0.284120217737E+03   -0.15881E-04   -0.13763E-05 18132   0.165E-02    0.671E-02
DAV:  16    -0.284120214060E+03    0.36775E-05   -0.39673E-05 17520   0.135E-02
   8 F= -.28412021E+03 E0= -.28411747E+03  d E =-.236862E+00  mag=    18.0000
       N       E                     dE             d eps       ncg     rms          rms(c)
DAV:   1    -0.284127783326E+03   -0.75656E-02   -0.31258E+01 26352   0.209E+01    0.414E+00
DAV:   2    -0.284330685078E+03   -0.20290E+00   -0.22658E+00 30276   0.429E+00    0.610E+00
DAV:   3    -0.284331016823E+03   -0.33175E-03   -0.10235E+00 32616   0.262E+00    0.663E+00
DAV:   4    -0.284294962803E+03    0.36054E-01   -0.14160E-01 30852   0.152E+00    0.263E+00
DAV:   5    -0.284293603274E+03    0.13595E-02   -0.93256E-02 34140   0.817E-01    0.122E+00
DAV:   6    -0.284301441652E+03   -0.78384E-02   -0.10735E-01 34164   0.709E-01    0.367E+00
DAV:   7    -0.284291995468E+03    0.94462E-02   -0.26293E-02 31848   0.582E-01    0.214E+00
DAV:   8    -0.284289996194E+03    0.19993E-02   -0.42056E-02 36804   0.334E-01    0.457E-01
DAV:   9    -0.284292271761E+03   -0.22756E-02   -0.31729E-03 30708   0.189E-01    0.674E-01
DAV:  10    -0.284291842035E+03    0.42973E-03   -0.19924E-03 36504   0.119E-01    0.211E-01
DAV:  11    -0.284291968745E+03   -0.12671E-03   -0.12659E-03 33648   0.619E-02    0.193E-01
DAV:  12    -0.284291975971E+03   -0.72254E-05   -0.70452E-05 26412   0.406E-02
   9 F= -.28429198E+03 E0= -.28428894E+03  d E =-.171762E+00  mag=    18.0000
       N       E                     dE             d eps       ncg     rms          rms(c)
DAV:   1    -0.284338657894E+03   -0.46689E-01   -0.11731E+01 26592   0.131E+01    0.232E+00
DAV:   2    -0.284422707079E+03   -0.84049E-01   -0.94878E-01 29568   0.273E+00    0.547E+00
DAV:   3    -0.284401942109E+03    0.20765E-01   -0.33404E-01 33480   0.164E+00    0.218E+00
DAV:   4    -0.284403456558E+03   -0.15144E-02   -0.13474E-02 31068   0.626E-01    0.147E+00
DAV:   5    -0.284401295966E+03    0.21606E-02   -0.40767E-02 34788   0.428E-01    0.108E+00
DAV:   6    -0.284403073404E+03   -0.17774E-02   -0.20197E-02 34260   0.339E-01    0.186E+00
DAV:   7    -0.284400257948E+03    0.28155E-02   -0.79736E-03 32328   0.291E-01    0.952E-01
DAV:   8    -0.284400280820E+03   -0.22872E-04   -0.45762E-03 35088   0.152E-01    0.230E-01
DAV:   9    -0.284400649971E+03   -0.36915E-03   -0.71510E-04 31764   0.620E-02    0.636E-02
DAV:  10    -0.284400691422E+03   -0.41451E-04   -0.10505E-04 28668   0.393E-02    0.871E-02
DAV:  11    -0.284400688156E+03    0.32667E-05   -0.18605E-04 28200   0.346E-02    0.790E-02
DAV:  12    -0.284400686184E+03    0.19716E-05   -0.33147E-05 18624   0.198E-02
  10 F= -.28440069E+03 E0= -.28439751E+03  d E =-.108710E+00  mag=    18.0000
       N       E                     dE             d eps       ncg     rms          rms(c)
DAV:   1    -0.284317038454E+03    0.83650E-01   -0.24549E+01 27744   0.206E+01    0.288E+00
DAV:   2    -0.284569915096E+03   -0.25288E+00   -0.29182E+00 28884   0.471E+00    0.123E+01
DAV:   3    -0.284438071667E+03    0.13184E+00   -0.80330E-01 30540   0.298E+00    0.287E+00
DAV:   4    -0.284468625150E+03   -0.30553E-01   -0.27832E-01 35892   0.107E+00    0.353E+00
DAV:   5    -0.284465377405E+03    0.32477E-02   -0.53240E-02 31920   0.835E-01    0.262E+00
DAV:   6    -0.284459070583E+03    0.63068E-02   -0.33345E-02 33240   0.471E-01    0.844E-01
DAV:   7    -0.284462085054E+03   -0.30145E-02   -0.38529E-02 35424   0.376E-01    0.176E+00
DAV:   8    -0.284460433518E+03    0.16515E-02   -0.83856E-03 32052   0.298E-01    0.141E+00
DAV:   9    -0.284459162547E+03    0.12710E-02   -0.77355E-03 35532   0.212E-01    0.549E-01
DAV:  10    -0.284459610223E+03   -0.44768E-03   -0.24474E-03 35448   0.898E-02    0.447E-02
DAV:  11    -0.284459820751E+03   -0.21053E-03   -0.38349E-04 27696   0.426E-02    0.203E-01
DAV:  12    -0.284459781414E+03    0.39337E-04   -0.23450E-04 29808   0.446E-02    0.583E-02
DAV:  13    -0.284459789877E+03   -0.84624E-05   -0.61772E-05 17232   0.174E-02
  11 F= -.28445979E+03 E0= -.28445654E+03  d E =-.591037E-01  mag=    18.0000
       N       E                     dE             d eps       ncg     rms          rms(c)
DAV:   1    -0.283837641589E+03    0.62214E+00   -0.88320E+01 26796   0.395E+01    0.465E+00
DAV:   2    -0.284616814644E+03   -0.77917E+00   -0.86193E+00 27948   0.840E+00    0.150E+01
DAV:   3    -0.284432671560E+03    0.18414E+00   -0.17006E+00 30768   0.435E+00    0.326E+00
DAV:   4    -0.284487347108E+03   -0.54676E-01   -0.52023E-01 37836   0.181E+00    0.541E+00
DAV:   5    -0.284460672905E+03    0.26674E-01   -0.14403E-01 33264   0.142E+00    0.287E+00
DAV:   6    -0.284455468342E+03    0.52046E-02   -0.12643E-01 35628   0.785E-01    0.189E+00
DAV:   7    -0.284462691302E+03   -0.72230E-02   -0.75315E-02 34464   0.735E-01    0.374E+00
DAV:   8    -0.284449780349E+03    0.12911E-01   -0.48409E-02 35700   0.595E-01    0.184E+00
DAV:   9    -0.284450265141E+03   -0.48479E-03   -0.30735E-02 35220   0.391E-01    0.323E-01
DAV:  10    -0.284451942544E+03   -0.16774E-02   -0.40433E-03 32316   0.178E-01    0.480E-01
DAV:  11    -0.284451775195E+03    0.16735E-03   -0.67453E-04 34476   0.969E-02    0.227E-01
DAV:  12    -0.284451781815E+03   -0.66203E-05   -0.70328E-04 36624   0.501E-02    0.767E-02
DAV:  13    -0.284451820950E+03   -0.39135E-04   -0.71195E-05 23064   0.247E-02    0.141E-01
DAV:  14    -0.284451802532E+03    0.18418E-04   -0.43446E-05 18300   0.197E-02    0.650E-02
DAV:  15    -0.284451805261E+03   -0.27290E-05   -0.42481E-05 17052   0.102E-02
  12 F= -.28445181E+03 E0= -.28444845E+03  d E =0.798462E-02  mag=    18.0000
       N       E                     dE             d eps       ncg     rms          rms(c)
DAV:   1    -0.283938746818E+03    0.51306E+00   -0.80603E+01 26868   0.377E+01    0.500E+00
DAV:   2    -0.284736031531E+03   -0.79728E+00   -0.88088E+00 28440   0.832E+00    0.156E+01
DAV:   3    -0.284514112217E+03    0.22192E+00   -0.17654E+00 30360   0.452E+00    0.340E+00
DAV:   4    -0.284570033063E+03   -0.55921E-01   -0.49961E-01 36396   0.184E+00    0.490E+00
DAV:   5    -0.284549494833E+03    0.20538E-01   -0.13853E-01 31596   0.140E+00    0.273E+00
DAV:   6    -0.284541835919E+03    0.76589E-02   -0.89725E-02 35592   0.768E-01    0.146E+00
DAV:   7    -0.284547436908E+03   -0.56010E-02   -0.60059E-02 35028   0.653E-01    0.321E+00
DAV:   8    -0.284537936149E+03    0.95008E-02   -0.42945E-02 35724   0.536E-01    0.141E+00
DAV:   9    -0.284538816595E+03   -0.88045E-03   -0.22185E-02 34752   0.359E-01    0.306E-01
DAV:  10    -0.284539689075E+03   -0.87248E-03   -0.27745E-03 33024   0.172E-01    0.339E-01
DAV:  11    -0.284539580276E+03    0.10880E-03   -0.56558E-04 35184   0.802E-02    0.108E-01
DAV:  12    -0.284539603983E+03   -0.23707E-04   -0.30894E-04 30684   0.358E-02    0.852E-02
DAV:  13    -0.284539610778E+03   -0.67952E-05   -0.27266E-05 19536   0.220E-02
  13 F= -.28453961E+03 E0= -.28453667E+03  d E =-.878055E-01  mag=    18.0000
       N       E                     dE             d eps       ncg     rms          rms(c)
DAV:   1    -0.284161940378E+03    0.37766E+00   -0.56638E+01 27060   0.282E+01    0.568E+00
DAV:   2    -0.284600601253E+03   -0.43866E+00   -0.51166E+00 30876   0.638E+00    0.120E+01
DAV:   3    -0.284468042231E+03    0.13256E+00   -0.16141E+00 30420   0.416E+00    0.360E+00
DAV:   4    -0.284472406016E+03   -0.43638E-02   -0.75916E-02 30840   0.130E+00    0.238E+00
DAV:   5    -0.284464085483E+03    0.83205E-02   -0.12572E-01 34476   0.959E-01    0.199E+00
DAV:   6    -0.284465168557E+03   -0.10831E-02   -0.50976E-02 34032   0.739E-01    0.251E+00
DAV:   7    -0.284459216730E+03    0.59518E-02   -0.40999E-02 35556   0.547E-01    0.103E+00
DAV:   8    -0.284460040498E+03   -0.82377E-03   -0.14594E-02 35100   0.318E-01    0.445E-01
DAV:   9    -0.284460210684E+03   -0.17019E-03   -0.16335E-03 32616   0.169E-01    0.130E-01
DAV:  10    -0.284460227816E+03   -0.17132E-04   -0.65546E-04 33204   0.751E-02    0.108E-01
DAV:  11    -0.284460225803E+03    0.20133E-05   -0.21194E-04 31320   0.499E-02    0.115E-01
DAV:  12    -0.284460214132E+03    0.11670E-04   -0.12748E-04 30108   0.324E-02    0.132E-02
DAV:  13    -0.284460221459E+03   -0.73266E-05   -0.19544E-05 17388   0.107E-02
  14 F= -.28446022E+03 E0= -.28445755E+03  d E =0.793893E-01  mag=    18.0000
       N       E                     dE             d eps       ncg     rms          rms(c)
DAV:   1    -0.284558577623E+03   -0.98363E-01   -0.14148E+01 26784   0.130E+01    0.322E+00
DAV:   2    -0.284693454512E+03   -0.13488E+00   -0.15634E+00 31968   0.367E+00    0.775E+00
DAV:   3    -0.284615210615E+03    0.78244E-01   -0.42045E-01 30660   0.255E+00    0.108E+00
DAV:   4    -0.284628363202E+03   -0.13153E-01   -0.14441E-01 32040   0.671E-01    0.339E+00
DAV:   5    -0.284615246300E+03    0.13117E-01   -0.78574E-02 31728   0.865E-01    0.668E-01
DAV:   6    -0.284619892555E+03   -0.46463E-02   -0.35231E-02 34836   0.409E-01    0.172E+00
DAV:   7    -0.284617804775E+03    0.20878E-02   -0.94725E-03 35208   0.355E-01    0.131E+00
DAV:   8    -0.284616505015E+03    0.12998E-02   -0.72226E-03 36288   0.215E-01    0.393E-01
DAV:   9    -0.284616984783E+03   -0.47977E-03   -0.18770E-03 34392   0.750E-02    0.131E-01
DAV:  10    -0.284617097922E+03   -0.11314E-03   -0.47114E-04 31848   0.613E-02    0.193E-01
DAV:  11    -0.284617056169E+03    0.41753E-04   -0.20247E-04 31824   0.470E-02    0.790E-02
DAV:  12    -0.284617061244E+03   -0.50754E-05   -0.11301E-04 19644   0.206E-02    0.420E-02
DAV:  13    -0.284617063523E+03   -0.22793E-05   -0.13181E-05 16956   0.158E-02
  15 F= -.28461706E+03 E0= -.28461419E+03  d E =-.156842E+00  mag=    18.0000
       N       E                     dE             d eps       ncg     rms          rms(c)
DAV:   1    -0.284617890234E+03   -0.82899E-03   -0.17516E+00 26856   0.509E+00    0.638E-01
DAV:   2    -0.284629705719E+03   -0.11815E-01   -0.12293E-01 28584   0.994E-01    0.138E+00
DAV:   3    -0.284628489176E+03    0.12165E-02   -0.26968E-02 31584   0.479E-01    0.598E-01
DAV:   4    -0.284628914305E+03   -0.42513E-03   -0.62233E-03 32736   0.238E-01    0.772E-01
DAV:   5    -0.284628328598E+03    0.58571E-03   -0.31897E-03 32640   0.172E-01    0.195E-01
DAV:   6    -0.284628387697E+03   -0.59098E-04   -0.19148E-03 34380   0.104E-01    0.251E-01
DAV:   7    -0.284628316787E+03    0.70910E-04   -0.45015E-04 32484   0.774E-02    0.158E-01
DAV:   8    -0.284628298907E+03    0.17879E-04   -0.31332E-04 30936   0.433E-02    0.566E-02
DAV:   9    -0.284628306665E+03   -0.77577E-05   -0.54122E-05 18204   0.230E-02
  16 F= -.28462831E+03 E0= -.28462543E+03  d E =-.112431E-01  mag=    18.0000
       N       E                     dE             d eps       ncg     rms          rms(c)
DAV:   1    -0.284374922878E+03    0.25338E+00   -0.46006E+01 26784   0.262E+01    0.286E+00
DAV:   2    -0.284691106339E+03   -0.31618E+00   -0.33713E+00 28152   0.518E+00    0.838E+00
DAV:   3    -0.284632817618E+03    0.58289E-01   -0.61455E-01 30840   0.256E+00    0.159E+00
DAV:   4    -0.284644984074E+03   -0.12166E-01   -0.37189E-02 32268   0.718E-01    0.139E+00
DAV:   5    -0.284641196497E+03    0.37876E-02   -0.22495E-02 34236   0.488E-01    0.696E-01
DAV:   6    -0.284642672715E+03   -0.14762E-02   -0.31951E-02 34584   0.395E-01    0.194E+00
DAV:   7    -0.284639351686E+03    0.33210E-02   -0.14753E-02 32052   0.414E-01    0.940E-01
DAV:   8    -0.284639369164E+03   -0.17478E-04   -0.94223E-03 35604   0.202E-01    0.263E-01
DAV:   9    -0.284639772088E+03   -0.40292E-03   -0.61661E-04 29844   0.100E-01    0.234E-01
DAV:  10    -0.284639709755E+03    0.62333E-04   -0.36671E-04 34656   0.548E-02    0.736E-02
DAV:  11    -0.284639732539E+03   -0.22784E-04   -0.21686E-04 27840   0.283E-02    0.102E-01
DAV:  12    -0.284639725944E+03    0.65943E-05   -0.21729E-05 18456   0.219E-02
  17 F= -.28463973E+03 E0= -.28463689E+03  d E =-.114193E-01  mag=    18.0000
       N       E                     dE             d eps       ncg     rms          rms(c)
DAV:   1    -0.276409361346E+03    0.82304E+01   -0.43716E+02 27696   0.621E+01    0.267E+01
DAV:   2    -0.278223827530E+03   -0.18145E+01   -0.24039E+01 30732   0.131E+01    0.107E+01
DAV:   3    -0.278238163600E+03   -0.14336E-01   -0.87627E+00 32784   0.973E+00    0.198E+01
DAV:   4    -0.277686200014E+03    0.55196E+00   -0.29545E+00 33240   0.673E+00    0.554E+00
DAV:   5    -0.277698664335E+03   -0.12464E-01   -0.89945E-01 35508   0.303E+00    0.609E+00
DAV:   6    -0.277623515456E+03    0.75149E-01   -0.32292E-01 33180   0.228E+00    0.261E+00
DAV:   7    -0.277629623877E+03   -0.61084E-02   -0.24623E-01 35412   0.120E+00    0.411E+00
DAV:   8    -0.277615657066E+03    0.13967E-01   -0.11158E-01 33348   0.112E+00    0.173E+00
DAV:   9    -0.277619166938E+03   -0.35099E-02   -0.10516E-01 36096   0.774E-01    0.184E+00
DAV:  10    -0.277615965379E+03    0.32016E-02   -0.17689E-02 32124   0.490E-01    0.482E-01
DAV:  11    -0.277616643384E+03   -0.67800E-03   -0.80622E-03 34080   0.202E-01    0.422E-01
DAV:  12    -0.277616717247E+03   -0.73863E-04   -0.10107E-03 30660   0.139E-01    0.271E-01
DAV:  13    -0.277616683701E+03    0.33546E-04   -0.60479E-04 36588   0.650E-02    0.849E-02
DAV:  14    -0.277616732798E+03   -0.49097E-04   -0.30671E-04 28644   0.297E-02    0.111E-01
DAV:  15    -0.277616730159E+03    0.26388E-05   -0.41203E-05 21672   0.268E-02
  18 F= -.27761673E+03 E0= -.27761310E+03  d E =0.702300E+01  mag=    18.0000
       N       E                     dE             d eps       ncg     rms          rms(c)
DAV:   1    -0.283404417783E+03   -0.57877E+01   -0.23956E+02 25920   0.356E+01    0.117E+01
DAV:   2    -0.284104360002E+03   -0.69994E+00   -0.10874E+01 30540   0.799E+00    0.871E+00
DAV:   3    -0.284048929768E+03    0.55430E-01   -0.22731E+00 32424   0.416E+00    0.121E+01
DAV:   4    -0.283876827178E+03    0.17210E+00   -0.89145E-01 34392   0.328E+00    0.584E+00
DAV:   5    -0.283882592249E+03   -0.57651E-02   -0.91288E-01 32652   0.285E+00    0.756E+00
DAV:   6    -0.283819425124E+03    0.63167E-01   -0.48416E-01 34020   0.262E+00    0.437E+00
DAV:   7    -0.283798772300E+03    0.20653E-01   -0.26763E-01 36180   0.128E+00    0.170E+00
DAV:   8    -0.283800427825E+03   -0.16555E-02   -0.53521E-02 34368   0.870E-01    0.647E-01
DAV:   9    -0.283800277367E+03    0.15046E-03   -0.72141E-03 31080   0.328E-01    0.198E-01
DAV:  10    -0.283800188272E+03    0.89095E-04   -0.12202E-03 30900   0.119E-01    0.196E-01
DAV:  11    -0.283800208613E+03   -0.20341E-04   -0.17369E-03 34392   0.120E-01    0.213E-01
DAV:  12    -0.283800176222E+03    0.32391E-04   -0.63208E-04 34776   0.858E-02    0.741E-02
DAV:  13    -0.283800202478E+03   -0.26255E-04   -0.24734E-04 30468   0.417E-02    0.900E-02
DAV:  14    -0.283800196805E+03    0.56727E-05   -0.40294E-05 20748   0.243E-02
  19 F= -.28380020E+03 E0= -.28379705E+03  d E =-.618347E+01  mag=    18.0000
       N       E                     dE             d eps       ncg     rms          rms(c)
DAV:   1    -0.284239150268E+03   -0.43895E+00   -0.13124E+01 26352   0.103E+01    0.264E+00
DAV:   2    -0.284288788006E+03   -0.49638E-01   -0.63058E-01 31056   0.218E+00    0.220E+00
DAV:   3    -0.284300391782E+03   -0.11604E-01   -0.30788E-01 34200   0.147E+00    0.463E+00
DAV:   4    -0.284274716917E+03    0.25675E-01   -0.90600E-02 34032   0.111E+00    0.162E+00
DAV:   5    -0.284274230206E+03    0.48671E-03   -0.39835E-02 35532   0.606E-01    0.988E-01
DAV:   6    -0.284274052259E+03    0.17795E-03   -0.19371E-02 35208   0.456E-01    0.959E-01
DAV:   7    -0.284272958492E+03    0.10938E-02   -0.62316E-03 34236   0.316E-01    0.204E-01
DAV:   8    -0.284273154835E+03   -0.19634E-03   -0.20916E-03 35364   0.106E-01    0.242E-01
DAV:   9    -0.284273102173E+03    0.52662E-04   -0.48038E-04 33780   0.824E-02    0.653E-02
DAV:  10    -0.284273112528E+03   -0.10355E-04   -0.25589E-04 30828   0.395E-02    0.903E-02
DAV:  11    -0.284273106467E+03    0.60608E-05   -0.89059E-05 23496   0.307E-02
  20 F= -.28427311E+03 E0= -.28427000E+03  d E =-.472910E+00  mag=    18.0000
       N       E                     dE             d eps       ncg     rms          rms(c)
DAV:   1    -0.284514087896E+03   -0.24098E+00   -0.19083E+01 26448   0.122E+01    0.344E+00
DAV:   2    -0.284597219422E+03   -0.83132E-01   -0.10601E+00 31632   0.283E+00    0.505E+00
DAV:   3    -0.284585281929E+03    0.11937E-01   -0.56709E-01 33096   0.203E+00    0.431E+00
DAV:   4    -0.284565362120E+03    0.19920E-01   -0.53209E-02 31224   0.112E+00    0.195E+00
DAV:   5    -0.284561711844E+03    0.36503E-02   -0.59307E-02 34440   0.614E-01    0.114E+00
DAV:   6    -0.284564272007E+03   -0.25602E-02   -0.35202E-02 35628   0.518E-01    0.211E+00
DAV:   7    -0.284559810770E+03    0.44612E-02   -0.17019E-02 34812   0.397E-01    0.618E-01
DAV:   8    -0.284560759569E+03   -0.94880E-03   -0.82076E-03 37332   0.145E-01    0.366E-01
DAV:   9    -0.284560949371E+03   -0.18980E-03   -0.48361E-04 29760   0.104E-01    0.267E-01
DAV:  10    -0.284560871776E+03    0.77595E-04   -0.58770E-04 35436   0.609E-02    0.416E-02
DAV:  11    -0.284560908839E+03   -0.37064E-04   -0.16349E-04 28764   0.250E-02    0.101E-01
DAV:  12    -0.284560899259E+03    0.95808E-05   -0.54844E-05 20400   0.252E-02
  21 F= -.28456090E+03 E0= -.28455785E+03  d E =-.287793E+00  mag=    18.0000
       N       E                     dE             d eps       ncg     rms          rms(c)
DAV:   1    -0.284630684170E+03   -0.69775E-01   -0.19045E+00 26448   0.360E+00    0.103E+00
DAV:   2    -0.284638904121E+03   -0.82200E-02   -0.99926E-02 31776   0.829E-01    0.216E+00
DAV:   3    -0.284635539858E+03    0.33643E-02   -0.57920E-02 33060   0.647E-01    0.108E+00
DAV:   4    -0.284635266926E+03    0.27293E-03   -0.23438E-03 30552   0.260E-01    0.693E-01
DAV:   5    -0.284634806207E+03    0.46072E-03   -0.73364E-03 34344   0.182E-01    0.367E-01
DAV:   6    -0.284635172951E+03   -0.36674E-03   -0.25984E-03 33480   0.124E-01    0.672E-01
DAV:   7    -0.284634786752E+03    0.38620E-03   -0.79822E-04 32748   0.932E-02    0.388E-01
DAV:   8    -0.284634742152E+03    0.44600E-04   -0.10078E-03 34032   0.525E-02    0.662E-02
DAV:   9    -0.284634827266E+03   -0.85115E-04   -0.25632E-04 26772   0.302E-02    0.134E-01
DAV:  10    -0.284634826212E+03    0.10542E-05   -0.12648E-05 18864   0.164E-02
  22 F= -.28463483E+03 E0= -.28463194E+03  d E =-.739270E-01  mag=    18.0000
       N       E                     dE             d eps       ncg     rms          rms(c)
DAV:   1    -0.284677964692E+03   -0.43137E-01   -0.94797E+00 26208   0.786E+00    0.244E+00
DAV:   2    -0.284711732235E+03   -0.33768E-01   -0.43021E-01 31788   0.172E+00    0.393E+00
DAV:   3    -0.284705248695E+03    0.64835E-02   -0.31073E-01 34104   0.144E+00    0.310E+00
DAV:   4    -0.284697949421E+03    0.72993E-02   -0.18583E-02 30552   0.704E-01    0.156E+00
DAV:   5    -0.284695698418E+03    0.22510E-02   -0.34189E-02 34584   0.399E-01    0.604E-01
DAV:   6    -0.284697315930E+03   -0.16175E-02   -0.82953E-03 31992   0.234E-01    0.119E+00
DAV:   7    -0.284696007973E+03    0.13080E-02   -0.39225E-03 34308   0.190E-01    0.646E-01
DAV:   8    -0.284695911180E+03    0.96792E-04   -0.38302E-03 36948   0.120E-01    0.835E-02
DAV:   9    -0.284696202356E+03   -0.29118E-03   -0.73710E-04 29748   0.546E-02    0.326E-01
DAV:  10    -0.284696140078E+03    0.62278E-04   -0.47202E-05 24216   0.362E-02    0.275E-01
DAV:  11    -0.284696071759E+03    0.68319E-04   -0.42732E-04 33744   0.434E-02    0.402E-02
DAV:  12    -0.284696106561E+03   -0.34802E-04   -0.92377E-05 21084   0.175E-02    0.601E-02
DAV:  13    -0.284696105993E+03    0.56857E-06   -0.78465E-06 16548   0.128E-02
  23 F= -.28469611E+03 E0= -.28469322E+03  d E =-.612798E-01  mag=    18.0000
       N       E                     dE             d eps       ncg     rms          rms(c)
DAV:   1    -0.284698795919E+03   -0.26894E-02   -0.93099E-02 29388   0.143E+00    0.227E-01
DAV:   2    -0.284699715941E+03   -0.92002E-03   -0.95309E-03 30516   0.278E-01    0.336E-01
DAV:   3    -0.284699753861E+03   -0.37920E-04   -0.27687E-03 31236   0.150E-01    0.387E-01
DAV:   4    -0.284699622179E+03    0.13168E-03   -0.63898E-04 30264   0.931E-02    0.933E-02
DAV:   5    -0.284699645665E+03   -0.23486E-04   -0.33333E-04 30696   0.464E-02    0.119E-01
DAV:   6    -0.284699635018E+03    0.10646E-04   -0.12946E-04 23484   0.374E-02    0.990E-02
DAV:   7    -0.284699625006E+03    0.10012E-04   -0.61554E-05 19524   0.251E-02    0.170E-02
DAV:   8    -0.284699628405E+03   -0.33992E-05   -0.18405E-05 16728   0.113E-02
  24 F= -.28469963E+03 E0= -.28469673E+03  d E =-.352241E-02  mag=    18.0000
       N       E                     dE             d eps       ncg     rms          rms(c)
DAV:   1    -0.284673321473E+03    0.26304E-01   -0.24468E+00 28308   0.801E+00    0.957E-01
DAV:   2    -0.284701935004E+03   -0.28614E-01   -0.28001E-01 30348   0.146E+00    0.111E+00
DAV:   3    -0.284704661682E+03   -0.27267E-02   -0.56252E-02 32484   0.645E-01    0.192E+00
DAV:   4    -0.284701494400E+03    0.31673E-02   -0.11344E-02 31392   0.421E-01    0.537E-01
DAV:   5    -0.284701907270E+03   -0.41287E-03   -0.74987E-03 34680   0.164E-01    0.507E-01
DAV:   6    -0.284702030551E+03   -0.12328E-03   -0.23294E-03 33180   0.141E-01    0.626E-01
DAV:   7    -0.284701601641E+03    0.42891E-03   -0.21262E-03 33348   0.120E-01    0.992E-02
DAV:   8    -0.284701722672E+03   -0.12103E-03   -0.35620E-04 33192   0.488E-02    0.865E-02
DAV:   9    -0.284701726811E+03   -0.41390E-05   -0.92553E-05 27840   0.334E-02
  25 F= -.28470173E+03 E0= -.28469885E+03  d E =-.209841E-02  mag=    18.0000
       N       E                     dE             d eps       ncg     rms          rms(c)
DAV:   1    -0.284661383437E+03    0.40339E-01   -0.41202E+00 27444   0.947E+00    0.133E+00
DAV:   2    -0.284725117240E+03   -0.63734E-01   -0.69583E-01 30660   0.217E+00    0.587E+00
DAV:   3    -0.284694623059E+03    0.30494E-01   -0.17178E-01 29952   0.138E+00    0.950E-01
DAV:   4    -0.284702124113E+03   -0.75011E-02   -0.35988E-02 32916   0.344E-01    0.113E+00
DAV:   5    -0.284701718016E+03    0.40610E-03   -0.49624E-03 30540   0.294E-01    0.801E-01
DAV:   6    -0.284701034476E+03    0.68354E-03   -0.38515E-03 34860   0.146E-01    0.183E-01
DAV:   7    -0.284701422290E+03   -0.38781E-03   -0.42444E-03 34740   0.141E-01    0.651E-01
DAV:   8    -0.284701298979E+03    0.12331E-03   -0.41457E-04 32556   0.930E-02    0.632E-01
DAV:   9    -0.284700953956E+03    0.34502E-03   -0.13626E-03 36456   0.806E-02    0.196E-01
DAV:  10    -0.284701077214E+03   -0.12326E-03   -0.68247E-04 31500   0.384E-02    0.108E-01
DAV:  11    -0.284701096366E+03   -0.19152E-04   -0.25265E-05 20652   0.272E-02    0.913E-02
DAV:  12    -0.284701087876E+03    0.84892E-05   -0.84953E-05 20244   0.208E-02
  26 F= -.28470109E+03 E0= -.28469823E+03  d E =0.638934E-03  mag=    18.0000
       N       E                     dE             d eps       ncg     rms          rms(c)
DAV:   1    -0.284261336841E+03    0.43976E+00   -0.73206E+01 26844   0.328E+01    0.325E+00
DAV:   2    -0.284750408349E+03   -0.48907E+00   -0.50846E+00 28848   0.637E+00    0.949E+00
DAV:   3    -0.284672903413E+03    0.77505E-01   -0.68891E-01 31032   0.291E+00    0.152E+00
DAV:   4    -0.284687191792E+03   -0.14288E-01   -0.58838E-02 30552   0.747E-01    0.166E+00
DAV:   5    -0.284682392603E+03    0.47992E-02   -0.31780E-02 34116   0.598E-01    0.825E-01
DAV:   6    -0.284683189426E+03   -0.79682E-03   -0.31602E-02 34392   0.443E-01    0.202E+00
DAV:   7    -0.284679073773E+03    0.41157E-02   -0.16473E-02 32580   0.448E-01    0.887E-01
DAV:   8    -0.284679386292E+03   -0.31252E-03   -0.11138E-02 35880   0.231E-01    0.325E-01
DAV:   9    -0.284679737062E+03   -0.35077E-03   -0.53369E-04 29700   0.110E-01    0.296E-01
DAV:  10    -0.284679629807E+03    0.10725E-03   -0.68327E-04 37152   0.644E-02    0.509E-02
DAV:  11    -0.284679671989E+03   -0.42181E-04   -0.20222E-04 28164   0.326E-02    0.103E-01
DAV:  12    -0.284679664147E+03    0.78417E-05   -0.39195E-05 20136   0.262E-02
  27 F= -.28467966E+03 E0= -.28467680E+03  d E =0.214237E-01  mag=    18.0000
       N       E                     dE             d eps       ncg     rms          rms(c)
DAV:   1    -0.280736612304E+03    0.39431E+01   -0.23312E+02 28176   0.626E+01    0.155E+01
DAV:   2    -0.282456752552E+03   -0.17201E+01   -0.18529E+01 30384   0.123E+01    0.816E+00
DAV:   3    -0.282448206943E+03    0.85456E-02   -0.22004E+00 31452   0.589E+00    0.730E+00
DAV:   4    -0.282347621799E+03    0.10059E+00   -0.34110E-01 32616   0.288E+00    0.236E+00
DAV:   5    -0.282324907071E+03    0.22715E-01   -0.23584E-01 33012   0.155E+00    0.285E+00
DAV:   6    -0.282310789785E+03    0.14117E-01   -0.20231E-01 34464   0.153E+00    0.942E-01
DAV:   7    -0.282311289149E+03   -0.49936E-03   -0.20197E-02 32484   0.572E-01    0.324E-01
DAV:   8    -0.282311162776E+03    0.12637E-03   -0.31847E-03 32232   0.221E-01    0.246E-01
DAV:   9    -0.282311111334E+03    0.51442E-04   -0.10793E-03 32148   0.128E-01    0.120E-01
DAV:  10    -0.282311115087E+03   -0.37530E-05   -0.38306E-04 30384   0.736E-02    0.608E-02
DAV:  11    -0.282311125799E+03   -0.10712E-04   -0.18272E-04 34200   0.477E-02    0.295E-02
DAV:  12    -0.282311134820E+03   -0.90214E-05   -0.39206E-05 25332   0.214E-02
  28 F= -.28231113E+03 E0= -.28231113E+03  d E =0.236853E+01  mag=    18.0000
       N       E                     dE             d eps       ncg     rms          rms(c)
DAV:   1    -0.284041446645E+03   -0.17303E+01   -0.54394E+01 26268   0.202E+01    0.588E+00
DAV:   2    -0.284254236367E+03   -0.21279E+00   -0.26662E+00 30792   0.425E+00    0.286E+00
DAV:   3    -0.284215109693E+03    0.39127E-01   -0.10875E-01 30564   0.124E+00    0.212E+00
DAV:   4    -0.284203030747E+03    0.12079E-01   -0.31532E-02 31584   0.666E-01    0.143E+00
DAV:   5    -0.284202011103E+03    0.10196E-02   -0.56159E-02 32880   0.798E-01    0.167E+00
DAV:   6    -0.284199623823E+03    0.23873E-02   -0.40009E-02 33876   0.709E-01    0.518E-01
DAV:   7    -0.284199366805E+03    0.25702E-03   -0.35175E-03 32952   0.244E-01    0.181E-01
DAV:   8    -0.284199306109E+03    0.60695E-04   -0.15115E-03 33336   0.133E-01    0.200E-01
DAV:   9    -0.284199257236E+03    0.48873E-04   -0.37869E-04 32436   0.804E-02    0.789E-02
DAV:  10    -0.284199239957E+03    0.17279E-04   -0.14410E-04 32508   0.415E-02    0.326E-02
DAV:  11    -0.284199242428E+03   -0.24714E-05   -0.61518E-05 27336   0.269E-02
  29 F= -.28419924E+03 E0= -.28419896E+03  d E =-.188811E+01  mag=    18.0000
       N       E                     dE             d eps       ncg     rms          rms(c)
DAV:   1    -0.284571136924E+03   -0.37190E+00   -0.12445E+01 27324   0.102E+01    0.307E+00
DAV:   2    -0.284632007044E+03   -0.60870E-01   -0.78973E-01 31860   0.265E+00    0.400E+00
DAV:   3    -0.284619161139E+03    0.12846E-01   -0.25641E-01 30876   0.187E+00    0.260E+00
DAV:   4    -0.284610522546E+03    0.86386E-02   -0.73917E-02 31512   0.915E-01    0.107E+00
DAV:   5    -0.284609212209E+03    0.13103E-02   -0.16554E-02 32244   0.543E-01    0.709E-01
DAV:   6    -0.284608870765E+03    0.34144E-03   -0.12632E-02 35112   0.350E-01    0.764E-01
DAV:   7    -0.284608291985E+03    0.57878E-03   -0.63755E-03 31920   0.274E-01    0.245E-01
DAV:   8    -0.284608442769E+03   -0.15078E-03   -0.10874E-03 32484   0.979E-02    0.256E-01
DAV:   9    -0.284608348880E+03    0.93889E-04   -0.31227E-04 30756   0.626E-02    0.827E-02
DAV:  10    -0.284608345648E+03    0.32321E-05   -0.16023E-04 29244   0.353E-02    0.368E-02
DAV:  11    -0.284608348313E+03   -0.26654E-05   -0.42086E-05 23796   0.242E-02
  30 F= -.28460835E+03 E0= -.28460692E+03  d E =-.409106E+00  mag=    18.0000
       N       E                     dE             d eps       ncg     rms          rms(c)
DAV:   1    -0.284699604428E+03   -0.91259E-01   -0.59211E+00 26808   0.765E+00    0.273E+00
DAV:   2    -0.284763709759E+03   -0.64105E-01   -0.80923E-01 33468   0.273E+00    0.577E+00
DAV:   3    -0.284720718897E+03    0.42991E-01   -0.26012E-01 30792   0.214E+00    0.107E+00
DAV:   4    -0.284725051529E+03   -0.43326E-02   -0.74496E-02 32448   0.740E-01    0.223E+00
DAV:   5    -0.284719318558E+03    0.57330E-02   -0.40242E-02 31212   0.616E-01    0.605E-01
DAV:   6    -0.284720658465E+03   -0.13399E-02   -0.16362E-02 33204   0.312E-01    0.104E+00
DAV:   7    -0.284719242945E+03    0.14155E-02   -0.53377E-03 34308   0.282E-01    0.236E-01
DAV:   8    -0.284719489659E+03   -0.24671E-03   -0.18183E-03 34404   0.938E-02    0.226E-01
DAV:   9    -0.284719451010E+03    0.38649E-04   -0.50083E-04 32028   0.731E-02    0.535E-02
DAV:  10    -0.284719456760E+03   -0.57499E-05   -0.82387E-05 27864   0.279E-02
  31 F= -.28471946E+03 E0= -.28471721E+03  d E =-.111108E+00  mag=    18.0000
       N       E                     dE             d eps       ncg     rms          rms(c)
DAV:   1    -0.284729606523E+03   -0.10156E-01   -0.71941E-01 28548   0.330E+00    0.725E-01
DAV:   2    -0.284735495672E+03   -0.58891E-02   -0.66788E-02 31440   0.772E-01    0.168E+00
DAV:   3    -0.284733337343E+03    0.21583E-02   -0.28695E-02 30396   0.550E-01    0.605E-01
DAV:   4    -0.284733370324E+03   -0.32981E-04   -0.17784E-03 31452   0.197E-01    0.262E-01
DAV:   5    -0.284733323954E+03    0.46370E-04   -0.18061E-03 35556   0.114E-01    0.219E-01
DAV:   6    -0.284733317984E+03    0.59696E-05   -0.58942E-04 33204   0.829E-02    0.232E-01
DAV:   7    -0.284733254049E+03    0.63935E-04   -0.33357E-04 31908   0.543E-02    0.364E-02
DAV:   8    -0.284733269121E+03   -0.15072E-04   -0.41589E-05 25500   0.224E-02    0.238E-02
DAV:   9    -0.284733269122E+03   -0.74579E-09   -0.70571E-06 16416   0.115E-02
  32 F= -.28473327E+03 E0= -.28473081E+03  d E =-.138124E-01  mag=    18.0000
       N       E                     dE             d eps       ncg     rms          rms(c)
DAV:   1    -0.284734786325E+03   -0.15172E-02   -0.11024E+00 28116   0.443E+00    0.736E-01
DAV:   2    -0.284741889052E+03   -0.71027E-02   -0.75260E-02 30648   0.799E-01    0.378E-01
DAV:   3    -0.284742720509E+03   -0.83146E-03   -0.14331E-02 33168   0.361E-01    0.104E+00
DAV:   4    -0.284741596312E+03    0.11242E-02   -0.55599E-03 33552   0.254E-01    0.272E-01
DAV:   5    -0.284741700751E+03   -0.10444E-03   -0.15136E-03 35700   0.120E-01    0.160E-01
DAV:   6    -0.284741659741E+03    0.41010E-04   -0.37033E-04 31068   0.728E-02    0.946E-02
DAV:   7    -0.284741656890E+03    0.28509E-05   -0.24226E-04 31788   0.425E-02    0.790E-02
DAV:   8    -0.284741650928E+03    0.59616E-05   -0.55184E-05 22056   0.275E-02
  33 F= -.28474165E+03 E0= -.28473915E+03  d E =-.838181E-02  mag=    18.0000
       N       E                     dE             d eps       ncg     rms          rms(c)
DAV:   1    -0.284740561569E+03    0.10953E-02   -0.37410E-01 28452   0.290E+00    0.407E-01
DAV:   2    -0.284744507311E+03   -0.39457E-02   -0.39558E-02 30192   0.555E-01    0.108E+00
DAV:   3    -0.284743709169E+03    0.79814E-03   -0.11002E-02 30504   0.315E-01    0.307E-01
DAV:   4    -0.284743940964E+03   -0.23180E-03   -0.54091E-04 30996   0.105E-01    0.256E-01
DAV:   5    -0.284743850448E+03    0.90517E-04   -0.49624E-04 31968   0.647E-02    0.974E-02
DAV:   6    -0.284743874184E+03   -0.23736E-04   -0.45498E-04 28236   0.471E-02    0.173E-01
DAV:   7    -0.284743848024E+03    0.26160E-04   -0.72031E-05 27708   0.364E-02    0.978E-02
DAV:   8    -0.284743842324E+03    0.56997E-05   -0.81563E-05 17124   0.182E-02
  34 F= -.28474384E+03 E0= -.28474135E+03  d E =-.219140E-02  mag=    18.0000
       N       E                     dE             d eps       ncg     rms          rms(c)
DAV:   1    -0.284707777713E+03    0.36070E-01   -0.35152E+00 28476   0.945E+00    0.119E+00
DAV:   2    -0.284757283181E+03   -0.49505E-01   -0.51343E-01 29832   0.192E+00    0.480E+00
DAV:   3    -0.284739306510E+03    0.17977E-01   -0.13051E-01 30084   0.113E+00    0.478E-01
DAV:   4    -0.284744967600E+03   -0.56611E-02   -0.14110E-02 31440   0.247E-01    0.855E-01
DAV:   5    -0.284744104871E+03    0.86273E-03   -0.34497E-03 33612   0.221E-01    0.271E-01
DAV:   6    -0.284744190869E+03   -0.85998E-04   -0.31500E-03 35856   0.133E-01    0.415E-01
DAV:   7    -0.284744249804E+03   -0.58935E-04   -0.99961E-04 33288   0.982E-02    0.536E-01
DAV:   8    -0.284744022539E+03    0.22726E-03   -0.42285E-04 33360   0.687E-02    0.323E-01
DAV:   9    -0.284743988112E+03    0.34427E-04   -0.80955E-04 34812   0.535E-02    0.220E-02
DAV:  10    -0.284744041741E+03   -0.53629E-04   -0.68984E-05 25164   0.220E-02    0.712E-02
DAV:  11    -0.284744036039E+03    0.57019E-05   -0.22520E-05 17064   0.168E-02
  35 F= -.28474404E+03 E0= -.28474164E+03  d E =-.193715E-03  mag=    18.0000
       N       E                     dE             d eps       ncg     rms          rms(c)
DAV:   1    -0.284720937477E+03    0.23104E-01   -0.27660E+00 27012   0.707E+00    0.908E-01
DAV:   2    -0.284751836521E+03   -0.30899E-01   -0.32784E-01 29256   0.154E+00    0.423E+00
DAV:   3    -0.284738088056E+03    0.13748E-01   -0.88998E-02 29712   0.934E-01    0.514E-01
DAV:   4    -0.284742169992E+03   -0.40819E-02   -0.12307E-02 31740   0.207E-01    0.686E-01
DAV:   5    -0.284741855878E+03    0.31411E-03   -0.19370E-03 30948   0.183E-01    0.347E-01
DAV:   6    -0.284741732275E+03    0.12360E-03   -0.14225E-03 35400   0.895E-02    0.160E-01
DAV:   7    -0.284741858209E+03   -0.12593E-03   -0.12253E-03 32184   0.962E-02    0.452E-01
DAV:   8    -0.284741738598E+03    0.11961E-03   -0.20233E-04 32532   0.655E-02    0.365E-01
DAV:   9    -0.284741638728E+03    0.99869E-04   -0.50852E-04 34152   0.471E-02    0.105E-01
DAV:  10    -0.284741680802E+03   -0.42074E-04   -0.18277E-04 22788   0.220E-02    0.459E-02
DAV:  11    -0.284741687277E+03   -0.64749E-05   -0.96640E-06 17244   0.158E-02
  36 F= -.28474169E+03 E0= -.28473939E+03  d E =0.234876E-02  mag=    18.0000
       N       E                     dE             d eps       ncg     rms          rms(c)
DAV:   1    -0.284661796191E+03    0.79885E-01   -0.13942E+01 26916   0.138E+01    0.158E+00
DAV:   2    -0.284760509719E+03   -0.98714E-01   -0.10498E+00 28836   0.279E+00    0.640E+00
DAV:   3    -0.284728488527E+03    0.32021E-01   -0.23047E-01 30072   0.155E+00    0.688E-01
DAV:   4    -0.284737057593E+03   -0.85691E-02   -0.22577E-02 30756   0.349E-01    0.974E-01
DAV:   5    -0.284735745015E+03    0.13126E-02   -0.65404E-03 32520   0.304E-01    0.372E-01
DAV:   6    -0.284735778771E+03   -0.33756E-04   -0.57201E-03 34932   0.183E-01    0.623E-01
DAV:   7    -0.284735630535E+03    0.14824E-03   -0.17109E-03 31008   0.163E-01    0.682E-01
DAV:   8    -0.284735229866E+03    0.40067E-03   -0.13701E-03 36168   0.109E-01    0.271E-01
DAV:   9    -0.284735303930E+03   -0.74064E-04   -0.74168E-04 35616   0.530E-02    0.395E-02
DAV:  10    -0.284735342922E+03   -0.38991E-04   -0.56328E-05 22440   0.220E-02    0.779E-02
DAV:  11    -0.284735334521E+03    0.84008E-05   -0.60084E-05 22800   0.237E-02
  37 F= -.28473533E+03 E0= -.28473320E+03  d E =0.635276E-02  mag=    18.0000
       N       E                     dE             d eps       ncg     rms          rms(c)
DAV:   1    -0.281329855801E+03    0.34055E+01   -0.27364E+02 27660   0.795E+01    0.112E+01
DAV:   2    -0.284436790198E+03   -0.31069E+01   -0.32807E+01 29580   0.168E+01    0.143E+01
DAV:   3    -0.284300892187E+03    0.13590E+00   -0.28005E+00 30528   0.809E+00    0.646E+00
DAV:   4    -0.284296959668E+03    0.39325E-02   -0.11266E+00 32496   0.311E+00    0.526E+00
DAV:   5    -0.284263055583E+03    0.33904E-01   -0.28955E-01 33420   0.205E+00    0.242E+00
DAV:   6    -0.284253932111E+03    0.91235E-02   -0.10861E-01 34884   0.128E+00    0.224E+00
DAV:   7    -0.284241897623E+03    0.12034E-01   -0.91653E-02 32652   0.969E-01    0.170E+00
DAV:   8    -0.284241847483E+03    0.50140E-04   -0.92803E-02 33024   0.845E-01    0.174E+00
DAV:   9    -0.284239053966E+03    0.27935E-02   -0.26188E-02 34272   0.566E-01    0.393E-01
DAV:  10    -0.284239584317E+03   -0.53035E-03   -0.58128E-03 31644   0.209E-01    0.427E-01
DAV:  11    -0.284239381880E+03    0.20244E-03   -0.18737E-03 35700   0.128E-01    0.920E-02
DAV:  12    -0.284239423296E+03   -0.41416E-04   -0.33100E-04 31128   0.621E-02    0.871E-02
DAV:  13    -0.284239424867E+03   -0.15712E-05   -0.79244E-05 28512   0.347E-02
  38 F= -.28423942E+03 E0= -.28423707E+03  d E =0.495910E+00  mag=    18.0000
       N       E                     dE             d eps       ncg     rms          rms(c)
DAV:   1    -0.284538475465E+03   -0.29905E+00   -0.22626E+01 27648   0.154E+01    0.386E+00
DAV:   2    -0.284701487263E+03   -0.16301E+00   -0.20170E+00 32184   0.401E+00    0.100E+01
DAV:   3    -0.284613819207E+03    0.87668E-01   -0.80294E-01 30696   0.281E+00    0.228E+00
DAV:   4    -0.284623635035E+03   -0.98158E-02   -0.38134E-02 30252   0.865E-01    0.178E+00
DAV:   5    -0.284617417236E+03    0.62178E-02   -0.47740E-02 34080   0.664E-01    0.104E+00
DAV:   6    -0.284617665737E+03   -0.24850E-03   -0.29182E-02 34272   0.536E-01    0.129E+00
DAV:   7    -0.284616001230E+03    0.16645E-02   -0.91784E-03 34920   0.324E-01    0.443E-01
DAV:   8    -0.284616061068E+03   -0.59838E-04   -0.30975E-03 33492   0.217E-01    0.202E-01
DAV:   9    -0.284616119378E+03   -0.58310E-04   -0.52227E-04 34596   0.708E-02    0.910E-02
DAV:  10    -0.284616097580E+03    0.21798E-04   -0.21322E-04 30648   0.484E-02    0.750E-02
DAV:  11    -0.284616091344E+03    0.62360E-05   -0.11856E-04 29136   0.318E-02    0.333E-02
DAV:  12    -0.284616092869E+03   -0.15252E-05   -0.23174E-05 18324   0.178E-02
  39 F= -.28461609E+03 E0= -.28461394E+03  d E =-.376668E+00  mag=    18.0000
       N       E                     dE             d eps       ncg     rms          rms(c)
DAV:   1    -0.284633530153E+03   -0.17439E-01   -0.35402E-01 28644   0.282E+00    0.427E-01
DAV:   2    -0.284638236256E+03   -0.47061E-02   -0.48828E-02 30300   0.601E-01    0.155E+00
DAV:   3    -0.284636305320E+03    0.19309E-02   -0.15352E-02 30300   0.381E-01    0.155E-01
DAV:   4    -0.284636893622E+03   -0.58830E-03   -0.14835E-03 31044   0.935E-02    0.304E-01
DAV:   5    -0.284636782751E+03    0.11087E-03   -0.47441E-04 31092   0.787E-02    0.142E-01
DAV:   6    -0.284636774838E+03    0.79129E-05   -0.43540E-04 28224   0.475E-02    0.104E-01
DAV:   7    -0.284636777996E+03   -0.31580E-05   -0.74266E-05 28812   0.334E-02
  40 F= -.28463678E+03 E0= -.28463454E+03  d E =-.206851E-01  mag=    18.0000
       N       E                     dE             d eps       ncg     rms          rms(c)
DAV:   1    -0.284600578453E+03    0.36196E-01   -0.12869E+01 28260   0.174E+01    0.247E+00
DAV:   2    -0.284759090391E+03   -0.15851E+00   -0.16366E+00 30216   0.351E+00    0.758E+00
DAV:   3    -0.284715633477E+03    0.43457E-01   -0.42612E-01 30384   0.205E+00    0.127E+00
DAV:   4    -0.284727734878E+03   -0.12101E-01   -0.19291E-02 30276   0.538E-01    0.118E+00
DAV:   5    -0.284724764962E+03    0.29699E-02   -0.13697E-02 34776   0.363E-01    0.322E-01
DAV:   6    -0.284725099982E+03   -0.33502E-03   -0.69952E-03 36132   0.260E-01    0.792E-01
DAV:   7    -0.284724532801E+03    0.56718E-03   -0.17482E-03 31920   0.172E-01    0.479E-01
DAV:   8    -0.284724388637E+03    0.14416E-03   -0.18129E-03 37092   0.947E-02    0.110E-01
DAV:   9    -0.284724494168E+03   -0.10553E-03   -0.38743E-04 32424   0.636E-02    0.997E-02
DAV:  10    -0.284724482351E+03    0.11816E-04   -0.82629E-05 23964   0.345E-02    0.357E-02
DAV:  11    -0.284724483634E+03   -0.12821E-05   -0.54569E-05 23700   0.204E-02
  41 F= -.28472448E+03 E0= -.28472242E+03  d E =-.877056E-01  mag=    18.0000
       N       E                     dE             d eps       ncg     rms          rms(c)
DAV:   1    -0.284715890562E+03    0.85918E-02   -0.19237E-01 28644   0.210E+00    0.293E-01
DAV:   2    -0.284718020046E+03   -0.21295E-02   -0.21006E-02 30336   0.407E-01    0.680E-01
DAV:   3    -0.284717666371E+03    0.35368E-03   -0.45489E-03 30900   0.225E-01    0.197E-01
DAV:   4    -0.284717738878E+03   -0.72507E-04   -0.29188E-04 30396   0.747E-02    0.143E-01
DAV:   5    -0.284717706787E+03    0.32091E-04   -0.24596E-04 29232   0.489E-02    0.619E-02
DAV:   6    -0.284717709991E+03   -0.32034E-05   -0.14909E-04 26016   0.328E-02    0.102E-01
DAV:   7    -0.284717696109E+03    0.13882E-04   -0.56727E-05 21732   0.278E-02    0.260E-02
DAV:   8    -0.284717698377E+03   -0.22682E-05   -0.16032E-05 15984   0.100E-02
  42 F= -.28471770E+03 E0= -.28471566E+03  d E =0.678526E-02  mag=    18.0000
       N       E                     dE             d eps       ncg     rms          rms(c)
DAV:   1    -0.284723866691E+03   -0.61706E-02   -0.68770E-01 28428   0.425E+00    0.553E-01
DAV:   2    -0.284733387013E+03   -0.95203E-02   -0.95596E-02 30192   0.850E-01    0.192E+00
DAV:   3    -0.284730667991E+03    0.27190E-02   -0.25382E-02 30228   0.493E-01    0.233E-01
DAV:   4    -0.284731549957E+03   -0.88197E-03   -0.16119E-03 30660   0.120E-01    0.324E-01
DAV:   5    -0.284731386614E+03    0.16334E-03   -0.67394E-04 34380   0.872E-02    0.107E-01
DAV:   6    -0.284731401169E+03   -0.14555E-04   -0.53346E-04 33300   0.573E-02    0.175E-01
DAV:   7    -0.284731381939E+03    0.19230E-04   -0.12393E-04 30444   0.480E-02    0.150E-01
DAV:   8    -0.284731358547E+03    0.23392E-04   -0.95424E-05 24384   0.298E-02    0.513E-02
DAV:   9    -0.284731364595E+03   -0.60478E-05   -0.43805E-05 16764   0.150E-02
  43 F= -.28473136E+03 E0= -.28472936E+03  d E =-.136662E-01  mag=    18.0000
       N       E                     dE             d eps       ncg     rms          rms(c)
DAV:   1    -0.284618520246E+03    0.11284E+00   -0.10528E+01 27732   0.176E+01    0.217E+00
DAV:   2    -0.284791830767E+03   -0.17331E+00   -0.17393E+00 30144   0.350E+00    0.689E+00
DAV:   3    -0.284759387729E+03    0.32443E-01   -0.36587E-01 30264   0.189E+00    0.116E+00
DAV:   4    -0.284770484048E+03   -0.11096E-01   -0.16674E-02 30360   0.507E-01    0.100E+00
DAV:   5    -0.284768500076E+03    0.19840E-02   -0.78512E-03 35916   0.287E-01    0.336E-01
DAV:   6    -0.284768617941E+03   -0.11787E-03   -0.64022E-03 35424   0.233E-01    0.775E-01
DAV:   7    -0.284768140694E+03    0.47725E-03   -0.13671E-03 32016   0.169E-01    0.523E-01
DAV:   8    -0.284767928403E+03    0.21229E-03   -0.21631E-03 36996   0.102E-01    0.673E-02
DAV:   9    -0.284768060427E+03   -0.13202E-03   -0.30693E-04 29796   0.550E-02    0.115E-01
DAV:  10    -0.284768047401E+03    0.13026E-04   -0.65723E-05 22332   0.314E-02    0.735E-02
DAV:  11    -0.284768043567E+03    0.38341E-05   -0.84512E-05 23712   0.245E-02
  44 F= -.28476804E+03 E0= -.28476606E+03  d E =-.366790E-01  mag=    18.0000
       N       E                     dE             d eps       ncg     rms          rms(c)
DAV:   1    -0.284718559892E+03    0.49488E-01   -0.42078E+00 27684   0.108E+01    0.126E+00
DAV:   2    -0.284779306762E+03   -0.60747E-01   -0.59492E-01 29952   0.208E+00    0.347E+00
DAV:   3    -0.284772630742E+03    0.66760E-02   -0.11839E-01 30552   0.102E+00    0.912E-01
DAV:   4    -0.284775259099E+03   -0.26284E-02   -0.46155E-03 30360   0.328E-01    0.592E-01
DAV:   5    -0.284774557729E+03    0.70137E-03   -0.36411E-03 36228   0.170E-01    0.215E-01
DAV:   6    -0.284774646720E+03   -0.88990E-04   -0.18757E-03 33528   0.134E-01    0.483E-01
DAV:   7    -0.284774447924E+03    0.19880E-03   -0.73078E-04 32964   0.112E-01    0.293E-01
DAV:   8    -0.284774390311E+03    0.57612E-04   -0.62632E-04 35412   0.682E-02    0.678E-02
DAV:   9    -0.284774427912E+03   -0.37601E-04   -0.13776E-04 28512   0.332E-02    0.613E-02
DAV:  10    -0.284774424013E+03    0.38988E-05   -0.14412E-05 16464   0.166E-02
  45 F= -.28477442E+03 E0= -.28477245E+03  d E =-.638045E-02  mag=    18.0000
       N       E                     dE             d eps       ncg     rms          rms(c)
DAV:   1    -0.284758622088E+03    0.15806E-01   -0.15395E+00 27888   0.600E+00    0.737E-01
DAV:   2    -0.284777727670E+03   -0.19106E-01   -0.18856E-01 29760   0.119E+00    0.243E+00
DAV:   3    -0.284773684556E+03    0.40431E-02   -0.43277E-02 30204   0.649E-01    0.358E-01
DAV:   4    -0.284775062284E+03   -0.13777E-02   -0.23713E-03 30696   0.161E-01    0.411E-01
DAV:   5    -0.284774754316E+03    0.30797E-03   -0.13565E-03 35088   0.119E-01    0.105E-01
DAV:   6    -0.284774792047E+03   -0.37731E-04   -0.81182E-04 34092   0.841E-02    0.284E-01
DAV:   7    -0.284774734576E+03    0.57471E-04   -0.21398E-04 32052   0.583E-02    0.214E-01
DAV:   8    -0.284774699025E+03    0.35551E-04   -0.17051E-04 23892   0.374E-02    0.839E-02
DAV:   9    -0.284774709014E+03   -0.99889E-05   -0.10066E-04 22368   0.232E-02    0.219E-02
DAV:  10    -0.284774711959E+03   -0.29457E-05   -0.51317E-06 15996   0.104E-02
  46 F= -.28477471E+03 E0= -.28477281E+03  d E =-.287946E-03  mag=    18.0000
       N       E                     dE             d eps       ncg     rms          rms(c)
DAV:   1    -0.284774779102E+03   -0.70089E-04   -0.15110E-01 26976   0.161E+00    0.199E-01
DAV:   2    -0.284775817154E+03   -0.10381E-02   -0.10429E-02 30108   0.295E-01    0.111E-01
DAV:   3    -0.284775866748E+03   -0.49594E-04   -0.81934E-04 34200   0.959E-02    0.205E-01
DAV:   4    -0.284775823937E+03    0.42811E-04   -0.31656E-04 29352   0.601E-02    0.643E-02
DAV:   5    -0.284775822375E+03    0.15620E-05   -0.68541E-05 20616   0.299E-02
  47 F= -.28477582E+03 E0= -.28477390E+03  d E =-.111042E-02  mag=    18.0000
       N       E                     dE             d eps       ncg     rms          rms(c)
DAV:   1    -0.284768225862E+03    0.75981E-02   -0.14302E+00 26796   0.478E+00    0.493E-01
DAV:   2    -0.284777200372E+03   -0.89745E-02   -0.89826E-02 29868   0.871E-01    0.706E-01
DAV:   3    -0.284777504118E+03   -0.30375E-03   -0.12550E-02 31716   0.358E-01    0.700E-01
DAV:   4    -0.284777074418E+03    0.42970E-03   -0.20808E-03 31680   0.190E-01    0.180E-01
DAV:   5    -0.284777064834E+03    0.95841E-05   -0.70657E-04 36420   0.775E-02    0.134E-01
DAV:   6    -0.284777029966E+03    0.34868E-04   -0.28505E-04 31008   0.665E-02    0.142E-01
DAV:   7    -0.284777009143E+03    0.20823E-04   -0.23502E-04 31464   0.465E-02    0.434E-02
DAV:   8    -0.284777012826E+03   -0.36831E-05   -0.23651E-05 18828   0.226E-02
  48 F= -.28477701E+03 E0= -.28477513E+03  d E =-.119045E-02  mag=    18.0000
       N       E                     dE             d eps       ncg     rms          rms(c)
DAV:   1    -0.284715573727E+03    0.61435E-01   -0.13552E+01 26784   0.132E+01    0.134E+00
DAV:   2    -0.284790193422E+03   -0.74620E-01   -0.77460E-01 28404   0.253E+00    0.453E+00
DAV:   3    -0.284777364845E+03    0.12829E-01   -0.16296E-01 30648   0.125E+00    0.819E-01
DAV:   4    -0.284781009859E+03   -0.36450E-02   -0.94692E-03 30912   0.371E-01    0.734E-01
DAV:   5    -0.284780061507E+03    0.94835E-03   -0.40136E-03 33660   0.242E-01    0.393E-01
DAV:   6    -0.284779895658E+03    0.16585E-03   -0.57737E-03 34152   0.201E-01    0.588E-01
DAV:   7    -0.284779618387E+03    0.27727E-03   -0.11393E-03 31392   0.145E-01    0.395E-01
DAV:   8    -0.284779513547E+03    0.10484E-03   -0.65276E-04 36036   0.794E-02    0.151E-01
DAV:   9    -0.284779549943E+03   -0.36396E-04   -0.27091E-04 30900   0.360E-02    0.340E-02
DAV:  10    -0.284779558240E+03   -0.82967E-05   -0.15567E-05 18204   0.164E-02
  49 F= -.28477956E+03 E0= -.28477788E+03  d E =-.254541E-02  mag=    18.0000
       N       E                     dE             d eps       ncg     rms          rms(c)
DAV:   1    -0.284404051006E+03    0.37550E+00   -0.33380E+01 26820   0.227E+01    0.408E+00
DAV:   2    -0.284684838072E+03   -0.28079E+00   -0.30422E+00 30540   0.535E+00    0.676E+00
DAV:   3    -0.284626039746E+03    0.58798E-01   -0.47760E-01 30672   0.302E+00    0.152E+00
DAV:   4    -0.284626466884E+03   -0.42714E-03   -0.95076E-02 33264   0.936E-01    0.274E+00
DAV:   5    -0.284618889544E+03    0.75773E-02   -0.90519E-02 31728   0.926E-01    0.101E+00
DAV:   6    -0.284619477923E+03   -0.58838E-03   -0.27038E-02 33564   0.515E-01    0.143E+00
DAV:   7    -0.284616454324E+03    0.30236E-02   -0.13336E-02 34260   0.435E-01    0.383E-01
DAV:   8    -0.284616951724E+03   -0.49740E-03   -0.66486E-03 35868   0.186E-01    0.481E-01
DAV:   9    -0.284616770993E+03    0.18073E-03   -0.11433E-03 32052   0.131E-01    0.142E-01
DAV:  10    -0.284616785975E+03   -0.14982E-04   -0.44140E-04 34080   0.498E-02    0.500E-02
DAV:  11    -0.284616801915E+03   -0.15940E-04   -0.85325E-05 28440   0.306E-02    0.897E-02
DAV:  12    -0.284616793092E+03    0.88231E-05   -0.51469E-05 22644   0.255E-02
  50 F= -.28461679E+03 E0= -.28461515E+03  d E =0.162765E+00  mag=    18.0000
       N       E                     dE             d eps       ncg     rms          rms(c)
DAV:   1    -0.284727770656E+03   -0.11097E+00   -0.26389E+00 26592   0.485E+00    0.147E+00
DAV:   2    -0.284747255732E+03   -0.19485E-01   -0.23388E-01 31704   0.133E+00    0.379E+00
DAV:   3    -0.284736011072E+03    0.11245E-01   -0.12120E-01 30852   0.102E+00    0.886E-01
DAV:   4    -0.284738166774E+03   -0.21557E-02   -0.11903E-02 32016   0.390E-01    0.103E+00
DAV:   5    -0.284736840597E+03    0.13262E-02   -0.70296E-03 32604   0.324E-01    0.572E-01
DAV:   6    -0.284736515187E+03    0.32541E-03   -0.59272E-03 35844   0.199E-01    0.342E-01
DAV:   7    -0.284736533485E+03   -0.18298E-04   -0.76958E-04 33132   0.115E-01    0.252E-01
DAV:   8    -0.284736470578E+03    0.62908E-04   -0.31308E-04 33960   0.589E-02    0.923E-02
DAV:   9    -0.284736482646E+03   -0.12069E-04   -0.12873E-04 29544   0.257E-02    0.282E-02
DAV:  10    -0.284736486779E+03   -0.41327E-05   -0.24296E-05 17628   0.154E-02
  51 F= -.28473649E+03 E0= -.28473478E+03  d E =-.119694E+00  mag=    18.0000
       N       E                     dE             d eps       ncg     rms          rms(c)
DAV:   1    -0.284766133794E+03   -0.29651E-01   -0.58472E-01 26976   0.243E+00    0.719E-01
DAV:   2    -0.284771203076E+03   -0.50693E-02   -0.57847E-02 31368   0.685E-01    0.195E+00
DAV:   3    -0.284768058627E+03    0.31444E-02   -0.27989E-02 30720   0.520E-01    0.372E-01
DAV:   4    -0.284768689220E+03   -0.63059E-03   -0.30188E-03 31848   0.184E-01    0.514E-01
DAV:   5    -0.284768369849E+03    0.31937E-03   -0.17084E-03 32292   0.166E-01    0.271E-01
DAV:   6    -0.284768309928E+03    0.59921E-04   -0.13408E-03 35352   0.928E-02    0.165E-01
DAV:   7    -0.284768310876E+03   -0.94767E-06   -0.16184E-04 33180   0.534E-02    0.110E-01
DAV:   8    -0.284768299308E+03    0.11567E-04   -0.61342E-05 22764   0.255E-02    0.415E-02
DAV:   9    -0.284768301938E+03   -0.26301E-05   -0.26155E-05 16956   0.126E-02
  52 F= -.28476830E+03 E0= -.28476654E+03  d E =-.318152E-01  mag=    18.0000
       N       E                     dE             d eps       ncg     rms          rms(c)
DAV:   1    -0.284778109344E+03   -0.98100E-02   -0.16894E+00 26856   0.478E+00    0.123E+00
DAV:   2    -0.284793758914E+03   -0.15650E-01   -0.17838E-01 30756   0.123E+00    0.315E+00
DAV:   3    -0.284786471264E+03    0.72877E-02   -0.85608E-02 30564   0.883E-01    0.790E-01
DAV:   4    -0.284787791206E+03   -0.13199E-02   -0.69115E-03 31476   0.325E-01    0.786E-01
DAV:   5    -0.284786950890E+03    0.84032E-03   -0.44570E-03 32532   0.261E-01    0.382E-01
DAV:   6    -0.284786863980E+03    0.86910E-04   -0.33252E-03 34968   0.150E-01    0.314E-01
DAV:   7    -0.284786806896E+03    0.57084E-04   -0.51789E-04 33012   0.931E-02    0.154E-01
DAV:   8    -0.284786792494E+03    0.14402E-04   -0.19493E-04 32028   0.414E-02    0.459E-02
DAV:   9    -0.284786802075E+03   -0.95809E-05   -0.40692E-05 20184   0.183E-02
  53 F= -.28478680E+03 E0= -.28478506E+03  d E =-.185001E-01  mag=    18.0000
       N       E                     dE             d eps       ncg     rms          rms(c)
DAV:   1    -0.284789369355E+03   -0.25769E-02   -0.92462E-02 27708   0.149E+00    0.194E-01
DAV:   2    -0.284790342758E+03   -0.97340E-03   -0.97737E-03 28008   0.293E-01    0.291E-01
DAV:   3    -0.284790353278E+03   -0.10520E-04   -0.16833E-03 31788   0.138E-01    0.236E-01
DAV:   4    -0.284790306794E+03    0.46485E-04   -0.23876E-04 28260   0.662E-02    0.633E-02
DAV:   5    -0.284790304286E+03    0.25078E-05   -0.91976E-05 21648   0.294E-02
  54 F= -.28479030E+03 E0= -.28478856E+03  d E =-.350221E-02  mag=    18.0000
       N       E                     dE             d eps       ncg     rms          rms(c)
DAV:   1    -0.284790085423E+03    0.22137E-03   -0.79010E-01 27444   0.417E+00    0.520E-01
DAV:   2    -0.284797247806E+03   -0.71624E-02   -0.72023E-02 27912   0.788E-01    0.251E-01
DAV:   3    -0.284797534495E+03   -0.28669E-03   -0.46119E-03 35664   0.219E-01    0.514E-01
DAV:   4    -0.284797272323E+03    0.26217E-03   -0.17036E-03 32700   0.139E-01    0.113E-01
DAV:   5    -0.284797247281E+03    0.25042E-04   -0.38807E-04 35172   0.706E-02    0.135E-01
DAV:   6    -0.284797215427E+03    0.31854E-04   -0.33642E-04 34980   0.681E-02    0.714E-02
DAV:   7    -0.284797215079E+03    0.34813E-06   -0.10698E-04 26412   0.358E-02    0.597E-02
DAV:   8    -0.284797211216E+03    0.38631E-05   -0.33716E-05 17736   0.212E-02
  55 F= -.28479721E+03 E0= -.28479558E+03  d E =-.690693E-02  mag=    18.0000
       N       E                     dE             d eps       ncg     rms          rms(c)
DAV:   1    -0.284798348560E+03   -0.11335E-02   -0.30737E-02 27612   0.777E-01    0.132E-01
DAV:   2    -0.284798689595E+03   -0.34104E-03   -0.34781E-03 28836   0.180E-01    0.343E-01
DAV:   3    -0.284798591491E+03    0.98105E-04   -0.86585E-04 30372   0.104E-01    0.624E-02
DAV:   4    -0.284798609952E+03   -0.18461E-04   -0.92046E-05 26460   0.336E-02    0.760E-02
DAV:   5    -0.284798601818E+03    0.81341E-05   -0.49238E-05 18444   0.286E-02
  56 F= -.28479860E+03 E0= -.28479699E+03  d E =-.139060E-02  mag=    18.0000
       N       E                     dE             d eps       ncg     rms          rms(c)
DAV:   1    -0.284799737979E+03   -0.11280E-02   -0.14947E-01 27492   0.187E+00    0.208E-01
DAV:   2    -0.284801263931E+03   -0.15260E-02   -0.15053E-02 27828   0.354E-01    0.294E-01
DAV:   3    -0.284801303103E+03   -0.39172E-04   -0.19266E-03 31836   0.150E-01    0.259E-01
DAV:   4    -0.284801250865E+03    0.52239E-04   -0.33593E-04 28440   0.747E-02    0.727E-02
DAV:   5    -0.284801248805E+03    0.20602E-05   -0.95588E-05 21996   0.337E-02
  57 F= -.28480125E+03 E0= -.28479959E+03  d E =-.264699E-02  mag=    18.0000
       N       E                     dE             d eps       ncg     rms          rms(c)
DAV:   1    -0.284801488362E+03   -0.23750E-03   -0.36208E-01 26940   0.276E+00    0.273E-01
DAV:   2    -0.284804692673E+03   -0.32043E-02   -0.31563E-02 27768   0.510E-01    0.394E-01
DAV:   3    -0.284804787721E+03   -0.95048E-04   -0.36011E-03 32136   0.203E-01    0.348E-01
DAV:   4    -0.284804693286E+03    0.94435E-04   -0.57551E-04 31548   0.993E-02    0.905E-02
DAV:   5    -0.284804690084E+03    0.32017E-05   -0.16063E-04 28836   0.401E-02    0.716E-02
DAV:   6    -0.284804676196E+03    0.13888E-04   -0.68762E-05 27360   0.356E-02    0.600E-02
DAV:   7    -0.284804673601E+03    0.25958E-05   -0.65781E-05 19284   0.247E-02
  58 F= -.28480467E+03 E0= -.28480308E+03  d E =-.342480E-02  mag=    18.0000
       N       E                     dE             d eps       ncg     rms          rms(c)
DAV:   1    -0.284790511580E+03    0.14165E-01   -0.25035E+00 26796   0.680E+00    0.729E-01
DAV:   2    -0.284811816609E+03   -0.21305E-01   -0.21011E-01 27756   0.132E+00    0.197E+00
DAV:   3    -0.284809691405E+03    0.21252E-02   -0.36515E-02 30588   0.637E-01    0.509E-01
DAV:   4    -0.284810327686E+03   -0.63628E-03   -0.19132E-03 30468   0.192E-01    0.319E-01
DAV:   5    -0.284810131858E+03    0.19583E-03   -0.86424E-04 34308   0.107E-01    0.146E-01
DAV:   6    -0.284810116483E+03    0.15375E-04   -0.98054E-04 33156   0.887E-02    0.269E-01
DAV:   7    -0.284810032632E+03    0.83851E-04   -0.30250E-04 33768   0.701E-02    0.127E-01
DAV:   8    -0.284810028284E+03    0.43481E-05   -0.13682E-04 30192   0.330E-02    0.222E-02
DAV:   9    -0.284810035110E+03   -0.68262E-05   -0.19388E-05 17124   0.148E-02
  59 F= -.28481004E+03 E0= -.28480852E+03  d E =-.536151E-02  mag=    18.0000
       N       E                     dE             d eps       ncg     rms          rms(c)
DAV:   1    -0.284744321865E+03    0.65706E-01   -0.13354E+01 26784   0.134E+01    0.122E+00
DAV:   2    -0.284815090498E+03   -0.70769E-01   -0.71024E-01 27876   0.245E+00    0.231E+00
DAV:   3    -0.284814432999E+03    0.65750E-03   -0.84253E-02 32448   0.954E-01    0.126E+00
DAV:   4    -0.284813510747E+03    0.92225E-03   -0.71419E-03 31440   0.399E-01    0.527E-01
DAV:   5    -0.284812860292E+03    0.65046E-03   -0.34758E-03 34512   0.212E-01    0.274E-01
DAV:   6    -0.284812764963E+03    0.95329E-04   -0.29062E-03 32508   0.173E-01    0.501E-01
DAV:   7    -0.284812469187E+03    0.29578E-03   -0.16317E-03 33504   0.136E-01    0.150E-01
DAV:   8    -0.284812514116E+03   -0.44929E-04   -0.32258E-04 35724   0.463E-02    0.534E-02
DAV:   9    -0.284812519644E+03   -0.55280E-05   -0.44674E-05 23340   0.269E-02
  60 F= -.28481252E+03 E0= -.28481100E+03  d E =-.248453E-02  mag=    18.0000
       N       E                     dE             d eps       ncg     rms          rms(c)
DAV:   1    -0.284800587067E+03    0.11927E-01   -0.25969E+00 26664   0.566E+00    0.599E-01
DAV:   2    -0.284811738503E+03   -0.11151E-01   -0.11529E-01 27576   0.999E-01    0.246E-01
DAV:   3    -0.284811675077E+03    0.63426E-04   -0.34379E-03 32340   0.190E-01    0.271E-01
DAV:   4    -0.284811596231E+03    0.78846E-04   -0.16261E-03 36012   0.131E-01    0.266E-01
DAV:   5    -0.284811414744E+03    0.18149E-03   -0.40818E-04 32580   0.895E-02    0.110E-01
DAV:   6    -0.284811403100E+03    0.11644E-04   -0.37649E-04 31356   0.579E-02    0.733E-02
DAV:   7    -0.284811401734E+03    0.13664E-05   -0.79994E-05 27468   0.351E-02
  61 F= -.28481140E+03 E0= -.28480995E+03  d E =0.111791E-02  mag=    18.0000
       N       E                     dE             d eps       ncg     rms          rms(c)
DAV:   1    -0.284802661289E+03    0.87418E-02   -0.12833E+00 26772   0.439E+00    0.408E-01
DAV:   2    -0.284809833125E+03   -0.71718E-02   -0.73147E-02 27288   0.796E-01    0.239E-01
DAV:   3    -0.284809997349E+03   -0.16422E-03   -0.27334E-03 33420   0.187E-01    0.304E-01
DAV:   4    -0.284809893515E+03    0.10383E-03   -0.85221E-04 34128   0.106E-01    0.126E-01
DAV:   5    -0.284809847722E+03    0.45793E-04   -0.31145E-04 33372   0.679E-02    0.116E-01
DAV:   6    -0.284809824310E+03    0.23412E-04   -0.24531E-04 33948   0.595E-02    0.450E-02
DAV:   7    -0.284809823697E+03    0.61312E-06   -0.47767E-05 25008   0.287E-02
  62 F= -.28480982E+03 E0= -.28480842E+03  d E =0.157804E-02  mag=    18.0000
       N       E                     dE             d eps       ncg     rms          rms(c)
DAV:   1    -0.284756370323E+03    0.53454E-01   -0.13142E+01 26844   0.125E+01    0.100E+00
DAV:   2    -0.284809645787E+03   -0.53275E-01   -0.54691E-01 26976   0.220E+00    0.936E-01
DAV:   3    -0.284810919185E+03   -0.12734E-02   -0.31500E-02 32364   0.641E-01    0.109E+00
DAV:   4    -0.284809239758E+03    0.16794E-02   -0.74262E-03 34320   0.347E-01    0.299E-01
DAV:   5    -0.284808873904E+03    0.36585E-03   -0.21392E-03 33432   0.180E-01    0.310E-01
DAV:   6    -0.284808628416E+03    0.24549E-03   -0.18908E-03 32376   0.175E-01    0.184E-01
DAV:   7    -0.284808607085E+03    0.21332E-04   -0.79618E-04 31176   0.946E-02    0.919E-02
DAV:   8    -0.284808601565E+03    0.55199E-05   -0.12523E-04 32748   0.435E-02    0.330E-02
DAV:   9    -0.284808602867E+03   -0.13025E-05   -0.38260E-05 22332   0.183E-02
  63 F= -.28480860E+03 E0= -.28480729E+03  d E =0.122083E-02  mag=    18.0000
       N       E                     dE             d eps       ncg     rms          rms(c)
DAV:   1    -0.284254372392E+03    0.55423E+00   -0.64550E+01 26784   0.322E+01    0.473E+00
DAV:   2    -0.284702832666E+03   -0.44846E+00   -0.50069E+00 28692   0.691E+00    0.630E+00
DAV:   3    -0.284658097292E+03    0.44735E-01   -0.49930E-01 33504   0.328E+00    0.233E+00
DAV:   4    -0.284649982676E+03    0.81146E-02   -0.54558E-02 31848   0.102E+00    0.121E+00
DAV:   5    -0.284647811559E+03    0.21711E-02   -0.41543E-02 34092   0.666E-01    0.147E+00
DAV:   6    -0.284645151477E+03    0.26601E-02   -0.31075E-02 37020   0.655E-01    0.107E+00
DAV:   7    -0.284644822316E+03    0.32916E-03   -0.61407E-03 32784   0.335E-01    0.451E-01
DAV:   8    -0.284644931588E+03   -0.10927E-03   -0.51254E-03 36072   0.174E-01    0.429E-01
DAV:   9    -0.284644801563E+03    0.13003E-03   -0.82475E-04 32784   0.115E-01    0.126E-01
DAV:  10    -0.284644818094E+03   -0.16531E-04   -0.47029E-04 34404   0.557E-02    0.126E-01
DAV:  11    -0.284644815836E+03    0.22587E-05   -0.85284E-05 29484   0.397E-02
  64 F= -.28464482E+03 E0= -.28464197E+03  d E =0.163787E+00  mag=    18.0000
       N       E                     dE             d eps       ncg     rms          rms(c)
DAV:   1    -0.284795561477E+03   -0.15074E+00   -0.65070E+00 26952   0.696E+00    0.227E+00
DAV:   2    -0.284827061054E+03   -0.31500E-01   -0.40433E-01 31572   0.175E+00    0.419E+00
DAV:   3    -0.284817187080E+03    0.98740E-02   -0.22029E-01 31848   0.135E+00    0.189E+00
DAV:   4    -0.284813872815E+03    0.33143E-02   -0.13951E-02 30252   0.594E-01    0.110E+00
DAV:   5    -0.284811299309E+03    0.25735E-02   -0.12276E-02 33420   0.365E-01    0.333E-01
DAV:   6    -0.284811628644E+03   -0.32934E-03   -0.34433E-03 35076   0.207E-01    0.452E-01
DAV:   7    -0.284811515736E+03    0.11291E-03   -0.13635E-03 34308   0.157E-01    0.275E-01
DAV:   8    -0.284811440849E+03    0.74887E-04   -0.83464E-04 36108   0.782E-02    0.857E-02
DAV:   9    -0.284811461578E+03   -0.20730E-04   -0.92814E-05 29616   0.329E-02    0.739E-02
DAV:  10    -0.284811453822E+03    0.77559E-05   -0.30571E-05 21852   0.218E-02
  65 F= -.28481145E+03 E0= -.28480978E+03  d E =-.166638E+00  mag=    18.0000
       N       E                     dE             d eps       ncg     rms          rms(c)
DAV:   1    -0.284824056048E+03   -0.12594E-01   -0.39271E-01 27180   0.194E+00    0.565E-01
DAV:   2    -0.284826270078E+03   -0.22140E-02   -0.27864E-02 31368   0.509E-01    0.113E+00
DAV:   3    -0.284825359361E+03    0.91072E-03   -0.13094E-02 31476   0.376E-01    0.414E-01
DAV:   4    -0.284825216558E+03    0.14280E-03   -0.89643E-04 30528   0.149E-01    0.178E-01
DAV:   5    -0.284825158230E+03    0.58328E-04   -0.66738E-04 33180   0.743E-02    0.110E-01
DAV:   6    -0.284825154318E+03    0.39122E-05   -0.14901E-04 31788   0.503E-02    0.947E-02
DAV:   7    -0.284825146178E+03    0.81392E-05   -0.65097E-05 25248   0.334E-02
  66 F= -.28482515E+03 E0= -.28482369E+03  d E =-.136924E-01  mag=    18.0000
       N       E                     dE             d eps       ncg     rms          rms(c)
DAV:   1    -0.284831300984E+03   -0.61467E-02   -0.48720E-01 27648   0.250E+00    0.567E-01
DAV:   2    -0.284834109992E+03   -0.28090E-02   -0.35089E-02 30480   0.602E-01    0.110E+00
DAV:   3    -0.284833319644E+03    0.79035E-03   -0.13396E-02 30996   0.392E-01    0.399E-01
DAV:   4    -0.284833193578E+03    0.12607E-03   -0.94732E-04 31824   0.151E-01    0.154E-01
DAV:   5    -0.284833149459E+03    0.44118E-04   -0.58653E-04 34776   0.708E-02    0.107E-01
DAV:   6    -0.284833142486E+03    0.69731E-05   -0.13336E-04 29904   0.485E-02    0.821E-02
DAV:   7    -0.284833136888E+03    0.55977E-05   -0.58808E-05 22896   0.328E-02
  67 F= -.28483314E+03 E0= -.28483196E+03  d E =-.799071E-02  mag=    18.0000
       N       E                     dE             d eps       ncg     rms          rms(c)
DAV:   1    -0.284835794534E+03   -0.26520E-02   -0.14760E-01 27648   0.156E+00    0.239E-01
DAV:   2    -0.284836741946E+03   -0.94741E-03   -0.10881E-02 28260   0.330E-01    0.437E-01
DAV:   3    -0.284836629562E+03    0.11238E-03   -0.24037E-03 32124   0.173E-01    0.173E-01
DAV:   4    -0.284836610256E+03    0.19306E-04   -0.17828E-04 31368   0.638E-02    0.634E-02
DAV:   5    -0.284836602872E+03    0.73845E-05   -0.99215E-05 29952   0.299E-02
  68 F= -.28483660E+03 E0= -.28483545E+03  d E =-.346598E-02  mag=    18.0000
       N       E                     dE             d eps       ncg     rms          rms(c)
DAV:   1    -0.284837712412E+03   -0.11022E-02   -0.81330E-01 27648   0.377E+00    0.427E-01
DAV:   2    -0.284842724312E+03   -0.50119E-02   -0.56493E-02 27708   0.724E-01    0.563E-01
DAV:   3    -0.284842760014E+03   -0.35702E-04   -0.73261E-03 34572   0.292E-01    0.447E-01
DAV:   4    -0.284842526612E+03    0.23340E-03   -0.10958E-03 36264   0.144E-01    0.120E-01
DAV:   5    -0.284842507823E+03    0.18789E-04   -0.47174E-04 36408   0.635E-02    0.114E-01
DAV:   6    -0.284842492512E+03    0.15311E-04   -0.12946E-04 31056   0.443E-02    0.426E-02
DAV:   7    -0.284842492436E+03    0.76529E-07   -0.34892E-05 18324   0.248E-02
  69 F= -.28484249E+03 E0= -.28484140E+03  d E =-.588956E-02  mag=    18.0000
       N       E                     dE             d eps       ncg     rms          rms(c)
DAV:   1    -0.284843153252E+03   -0.66074E-03   -0.28703E-01 27360   0.222E+00    0.218E-01
DAV:   2    -0.284844894373E+03   -0.17411E-02   -0.19287E-02 27624   0.418E-01    0.202E-01
DAV:   3    -0.284844962594E+03   -0.68222E-04   -0.17514E-03 35664   0.142E-01    0.284E-01
DAV:   4    -0.284844870185E+03    0.92409E-04   -0.42748E-04 32676   0.821E-02    0.603E-02
DAV:   5    -0.284844869579E+03    0.60615E-06   -0.13095E-04 29580   0.336E-02    0.700E-02
DAV:   6    -0.284844862950E+03    0.66295E-05   -0.47210E-05 21660   0.297E-02
  70 F= -.28484486E+03 E0= -.28484371E+03  d E =-.237051E-02  mag=    18.0000
       N       E                     dE             d eps       ncg     rms          rms(c)
DAV:   1    -0.284827805273E+03    0.17064E-01   -0.35872E+00 26784   0.752E+00    0.692E-01
DAV:   2    -0.284847884865E+03   -0.20080E-01   -0.22046E-01 27468   0.142E+00    0.678E-01
DAV:   3    -0.284848508012E+03   -0.62315E-03   -0.17100E-02 35700   0.456E-01    0.841E-01
DAV:   4    -0.284847629240E+03    0.87877E-03   -0.38356E-03 37344   0.255E-01    0.218E-01
DAV:   5    -0.284847557869E+03    0.71371E-04   -0.11940E-03 34716   0.128E-01    0.228E-01
DAV:   6    -0.284847488773E+03    0.69097E-04   -0.56699E-04 33144   0.103E-01    0.134E-01
DAV:   7    -0.284847473162E+03    0.15611E-04   -0.32128E-04 31476   0.572E-02    0.535E-02
DAV:   8    -0.284847475440E+03   -0.22788E-05   -0.41718E-05 25956   0.258E-02
  71 F= -.28484748E+03 E0= -.28484633E+03  d E =-.261249E-02  mag=    18.0000
       N       E                     dE             d eps       ncg     rms          rms(c)
DAV:   1    -0.284825255824E+03    0.22217E-01   -0.43096E+00 26784   0.772E+00    0.698E-01
[...]
DAV:   5    -0.284833624383E+03    0.61966E-03   -0.58949E-03 33732   0.276E-01    0.481E-01
DAV:   6    -0.284833207942E+03    0.41644E-03   -0.34425E-03 34536   0.246E-01    0.175E-01
DAV:   7    -0.284833176938E+03    0.31004E-04   -0.71631E-04 33852   0.973E-02    0.770E-02
DAV:   8    -0.284833189689E+03   -0.12750E-04   -0.37712E-04 34692   0.604E-02    0.719E-02
DAV:   9    -0.284833185947E+03    0.37417E-05   -0.50314E-05 23208   0.267E-02
 106 F= -.28483319E+03 E0= -.28483201E+03  d E =-.199824E-02  mag=    18.0000
       N       E                     dE             d eps       ncg     rms          rms(c)
DAV:   1    -0.284798253174E+03    0.34937E-01   -0.93750E+00 26364   0.102E+01    0.113E+00
DAV:   2    -0.284835522552E+03   -0.37269E-01   -0.39139E-01 29076   0.180E+00    0.986E-01
DAV:   3    -0.284837056300E+03   -0.15337E-02   -0.50012E-02 34404   0.691E-01    0.178E+00
DAV:   4    -0.284833640742E+03    0.34156E-02   -0.16939E-02 33828   0.448E-01    0.253E-01
DAV:   5    -0.284833806164E+03   -0.16542E-03   -0.50329E-03 33324   0.202E-01    0.430E-01
DAV:   6    -0.284833606292E+03    0.19987E-03   -0.17035E-03 34476   0.172E-01    0.220E-01
DAV:   7    -0.284833563414E+03    0.42878E-04   -0.61824E-04 35352   0.795E-02    0.619E-02
DAV:   8    -0.284833572739E+03   -0.93251E-05   -0.14177E-04 34392   0.440E-02    0.342E-02
DAV:   9    -0.284833573017E+03   -0.27824E-06   -0.18823E-05 19032   0.156E-02
 107 F= -.28483357E+03 E0= -.28483231E+03  d E =-.387070E-03  mag=    18.0000
       N       E                     dE             d eps       ncg     rms          rms(c)
DAV:   1    -0.284768539800E+03    0.65033E-01   -0.21947E+01 26352   0.150E+01    0.128E+00
DAV:   2    -0.284844517403E+03   -0.75978E-01   -0.79245E-01 27516   0.256E+00    0.117E+00
DAV:   3    -0.284846118679E+03   -0.16013E-02   -0.67904E-02 34452   0.792E-01    0.164E+00
DAV:   4    -0.284842352994E+03    0.37657E-02   -0.15929E-02 35232   0.483E-01    0.367E-01
DAV:   5    -0.284841942001E+03    0.41099E-03   -0.10866E-02 34032   0.258E-01    0.707E-01
DAV:   6    -0.284841293486E+03    0.64851E-03   -0.46898E-03 33804   0.232E-01    0.158E-01
DAV:   7    -0.284841380101E+03   -0.86615E-04   -0.65276E-04 32784   0.993E-02    0.103E-01
DAV:   8    -0.284841372396E+03    0.77057E-05   -0.21485E-04 34788   0.597E-02    0.427E-02
DAV:   9    -0.284841375271E+03   -0.28756E-05   -0.38193E-05 25872   0.196E-02
 108 F= -.28484138E+03 E0= -.28484020E+03  d E =-.780225E-02  mag=    18.0000
       N       E                     dE             d eps       ncg     rms          rms(c)
DAV:   1    -0.284839908727E+03    0.14637E-02   -0.47521E-01 26796   0.275E+00    0.353E-01
DAV:   2    -0.284843057877E+03   -0.31491E-02   -0.32733E-02 28488   0.521E-01    0.533E-01
DAV:   3    -0.284842973359E+03    0.84518E-04   -0.56078E-03 31524   0.247E-01    0.360E-01
DAV:   4    -0.284842841692E+03    0.13167E-03   -0.66143E-04 31188   0.112E-01    0.820E-02
DAV:   5    -0.284842827894E+03    0.13798E-04   -0.50151E-04 33948   0.591E-02    0.134E-01
DAV:   6    -0.284842807794E+03    0.20100E-04   -0.13155E-04 30552   0.486E-02    0.717E-02
DAV:   7    -0.284842803753E+03    0.40405E-05   -0.52968E-05 18696   0.238E-02
 109 F= -.28484280E+03 E0= -.28484153E+03  d E =-.142848E-02  mag=    18.0000
       N       E                     dE             d eps       ncg     rms          rms(c)
DAV:   1    -0.284843759621E+03   -0.95183E-03   -0.61835E-02 26904   0.847E-01    0.177E-01
DAV:   2    -0.284844062505E+03   -0.30288E-03   -0.35273E-03 30276   0.170E-01    0.158E-01
DAV:   3    -0.284844079603E+03   -0.17098E-04   -0.10043E-03 33504   0.982E-02    0.238E-01
DAV:   4    -0.284843999911E+03    0.79693E-04   -0.34841E-04 31308   0.688E-02    0.345E-02
DAV:   5    -0.284844004618E+03   -0.47075E-05   -0.85361E-05 28992   0.251E-02
 110 F= -.28484400E+03 E0= -.28484274E+03  d E =-.120086E-02  mag=    18.0000
       N       E                     dE             d eps       ncg     rms          rms(c)
DAV:   1    -0.284845457612E+03   -0.14577E-02   -0.93710E-02 26844   0.132E+00    0.131E-01
DAV:   2    -0.284846182455E+03   -0.72484E-03   -0.76065E-03 26688   0.256E-01    0.240E-01
DAV:   3    -0.284846158982E+03    0.23473E-04   -0.97057E-04 31092   0.103E-01    0.120E-01
DAV:   4    -0.284846154189E+03    0.47935E-05   -0.65711E-05 26004   0.392E-02
 111 F= -.28484615E+03 E0= -.28484495E+03  d E =-.214957E-02  mag=    18.0000
       N       E                     dE             d eps       ncg     rms          rms(c)
DAV:   1    -0.284701990003E+03    0.14417E+00   -0.33158E+01 26748   0.217E+01    0.182E+00
DAV:   2    -0.284875270226E+03   -0.17328E+00   -0.18050E+00 26532   0.392E+00    0.137E+00
DAV:   3    -0.284880765953E+03   -0.54957E-02   -0.11704E-01 35436   0.106E+00    0.259E+00
DAV:   4    -0.284874090975E+03    0.66750E-02   -0.45645E-02 35820   0.661E-01    0.532E-01
DAV:   5    -0.284873892993E+03    0.19798E-03   -0.90565E-03 36696   0.341E-01    0.664E-01
DAV:   6    -0.284873185295E+03    0.70770E-03   -0.54511E-03 36852   0.322E-01    0.287E-01
DAV:   7    -0.284873101390E+03    0.83905E-04   -0.17394E-03 35688   0.144E-01    0.132E-01
DAV:   8    -0.284873115576E+03   -0.14186E-04   -0.65317E-04 34692   0.853E-02    0.796E-02
DAV:   9    -0.284873112813E+03    0.27629E-05   -0.73361E-05 28260   0.324E-02
 112 F= -.28487311E+03 E0= -.28487197E+03  d E =-.269586E-01  mag=    18.0000
       N       E                     dE             d eps       ncg     rms          rms(c)
DAV:   1    -0.284206646137E+03    0.66647E+00   -0.69885E+01 27480   0.272E+01    0.103E+01
DAV:   2    -0.284908981578E+03   -0.70234E+00   -0.12012E+01 34932   0.115E+01    0.168E+01
DAV:   3    -0.284488094094E+03    0.42089E+00   -0.16884E+00 31080   0.763E+00    0.494E+00
DAV:   4    -0.284402867282E+03    0.85227E-01   -0.22958E-01 33672   0.281E+00    0.271E+00
DAV:   5    -0.284396173399E+03    0.66939E-02   -0.26385E-01 35016   0.131E+00    0.364E+00
DAV:   6    -0.284390139648E+03    0.60338E-02   -0.29882E-01 32604   0.161E+00    0.326E+00
DAV:   7    -0.284380655393E+03    0.94843E-02   -0.60856E-02 34464   0.910E-01    0.104E+00
DAV:   8    -0.284384036522E+03   -0.33811E-02   -0.33460E-02 35472   0.547E-01    0.205E+00
DAV:   9    -0.284380517544E+03    0.35190E-02   -0.18168E-02 32844   0.532E-01    0.344E-01
DAV:  10    -0.284382059671E+03   -0.15421E-02   -0.43762E-03 32892   0.123E-01    0.832E-01
DAV:  11    -0.284381513278E+03    0.54639E-03   -0.45647E-04 33852   0.112E-01    0.586E-01
DAV:  12    -0.284381250623E+03    0.26265E-03   -0.20866E-03 36720   0.118E-01    0.770E-02
DAV:  13    -0.284381425088E+03   -0.17447E-03   -0.26065E-04 28212   0.401E-02    0.233E-01
DAV:  14    -0.284381377248E+03    0.47840E-04   -0.59217E-05 25872   0.293E-02    0.145E-01
DAV:  15    -0.284381367254E+03    0.99946E-05   -0.13697E-04 21828   0.247E-02    0.172E-02
DAV:  16    -0.284381381559E+03   -0.14306E-04   -0.30030E-05 18132   0.133E-02    0.666E-02
DAV:  17    -0.284381380421E+03    0.11383E-05   -0.26781E-06 16236   0.598E-03
 113 F= -.28438138E+03 E0= -.28437782E+03  d E =0.491732E+00  mag=    18.0000
       N       E                     dE             d eps       ncg     rms          rms(c)
DAV:   1    -0.284702934656E+03   -0.32155E+00   -0.90850E+00 25992   0.829E+00    0.310E+00
DAV:   2    -0.284807134812E+03   -0.10420E+00   -0.13248E+00 33372   0.294E+00    0.105E+01
DAV:   3    -0.284706405833E+03    0.10073E+00   -0.54043E-01 31332   0.244E+00    0.191E+00
DAV:   4    -0.284733218122E+03   -0.26812E-01   -0.19185E-01 31884   0.111E+00    0.326E+00
DAV:   5    -0.284720757464E+03    0.12461E-01   -0.43179E-02 33492   0.847E-01    0.149E+00
DAV:   6    -0.284719656007E+03    0.11015E-02   -0.37949E-02 35952   0.421E-01    0.996E-01
DAV:   7    -0.284720440240E+03   -0.78423E-03   -0.68474E-03 34968   0.325E-01    0.119E+00
DAV:   8    -0.284719182408E+03    0.12578E-02   -0.31815E-03 33672   0.199E-01    0.465E-01
DAV:   9    -0.284719355260E+03   -0.17285E-03   -0.13687E-03 35508   0.739E-02    0.869E-02
DAV:  10    -0.284719501905E+03   -0.14664E-03   -0.37321E-04 29808   0.375E-02    0.225E-01
DAV:  11    -0.284719459311E+03    0.42594E-04   -0.71280E-05 27828   0.384E-02    0.142E-01
DAV:  12    -0.284719447752E+03    0.11559E-04   -0.56579E-05 18444   0.197E-02    0.410E-02
DAV:  13    -0.284719454302E+03   -0.65503E-05   -0.16606E-05 16416   0.917E-03
 114 F= -.28471945E+03 E0= -.28471654E+03  d E =-.338074E+00  mag=    18.0000
       N       E                     dE             d eps       ncg     rms          rms(c)
DAV:   1    -0.284833716078E+03   -0.11427E+00   -0.49691E+00 26076   0.623E+00    0.229E+00
DAV:   2    -0.284889918724E+03   -0.56203E-01   -0.69602E-01 34128   0.218E+00    0.809E+00
DAV:   3    -0.284832670640E+03    0.57248E-01   -0.35177E-01 31164   0.187E+00    0.903E-01
DAV:   4    -0.284848297188E+03   -0.15627E-01   -0.51789E-02 31788   0.617E-01    0.200E+00
DAV:   5    -0.284843707942E+03    0.45892E-02   -0.18927E-02 33480   0.534E-01    0.983E-01
DAV:   6    -0.284842918212E+03    0.78973E-03   -0.12576E-02 35868   0.279E-01    0.451E-01
DAV:   7    -0.284843252596E+03   -0.33438E-03   -0.20696E-03 34872   0.196E-01    0.525E-01
DAV:   8    -0.284843017388E+03    0.23521E-03   -0.62485E-04 33912   0.119E-01    0.277E-01
DAV:   9    -0.284842991443E+03    0.25945E-04   -0.56364E-04 35568   0.544E-02    0.495E-02
DAV:  10    -0.284843038977E+03   -0.47534E-04   -0.14105E-04 27792   0.236E-02    0.134E-01
DAV:  11    -0.284843020912E+03    0.18065E-04   -0.25050E-05 19536   0.231E-02    0.829E-02
DAV:  12    -0.284843016935E+03    0.39770E-05   -0.43495E-05 18108   0.155E-02
 115 F= -.28484302E+03 E0= -.28484082E+03  d E =-.123563E+00  mag=    18.0000
       N       E                     dE             d eps       ncg     rms          rms(c)
DAV:   1    -0.284872781332E+03   -0.29760E-01   -0.24679E+00 26592   0.455E+00    0.161E+00
DAV:   2    -0.284899037932E+03   -0.26257E-01   -0.32780E-01 34080   0.154E+00    0.572E+00
DAV:   3    -0.284871778889E+03    0.27259E-01   -0.20179E-01 31176   0.134E+00    0.584E-01
DAV:   4    -0.284878953063E+03   -0.71742E-02   -0.12342E-02 30960   0.313E-01    0.101E+00
DAV:   5    -0.284877586062E+03    0.13670E-02   -0.61571E-03 33912   0.265E-01    0.472E-01
DAV:   6    -0.284877436819E+03    0.14924E-03   -0.25454E-03 35400   0.158E-01    0.192E-01
DAV:   7    -0.284877534105E+03   -0.97286E-04   -0.38775E-04 31752   0.712E-02    0.260E-01
DAV:   8    -0.284877464941E+03    0.69164E-04   -0.17223E-04 34212   0.617E-02    0.139E-01
DAV:   9    -0.284877461643E+03    0.32980E-05   -0.31248E-04 30468   0.383E-02    0.573E-02
DAV:  10    -0.284877470640E+03   -0.89976E-05   -0.19539E-05 17640   0.133E-02
 116 F= -.28487747E+03 E0= -.28487595E+03  d E =-.344537E-01  mag=    18.0000
       N       E                     dE             d eps       ncg     rms          rms(c)
DAV:   1    -0.284883139357E+03   -0.56777E-02   -0.54279E-01 27672   0.236E+00    0.735E-01
DAV:   2    -0.284889190140E+03   -0.60508E-02   -0.71891E-02 33144   0.756E-01    0.265E+00
DAV:   3    -0.284883093292E+03    0.60968E-02   -0.40625E-02 31068   0.633E-01    0.182E-01
DAV:   4    -0.284884637867E+03   -0.15446E-02   -0.32179E-03 31056   0.126E-01    0.441E-01
DAV:   5    -0.284884353238E+03    0.28463E-03   -0.13907E-03 34428   0.120E-01    0.146E-01
DAV:   6    -0.284884363817E+03   -0.10579E-04   -0.32842E-04 35064   0.652E-02    0.893E-02
DAV:   7    -0.284884381796E+03   -0.17978E-04   -0.11476E-04 28992   0.309E-02    0.129E-01
DAV:   8    -0.284884360758E+03    0.21038E-04   -0.58285E-05 20472   0.265E-02    0.447E-02
DAV:   9    -0.284884364498E+03   -0.37401E-05   -0.66148E-05 19284   0.170E-02
 117 F= -.28488436E+03 E0= -.28488305E+03  d E =-.689386E-02  mag=    18.0000
       N       E                     dE             d eps       ncg     rms          rms(c)
DAV:   1    -0.284886347523E+03   -0.19868E-02   -0.33162E-01 28248   0.212E+00    0.491E-01
DAV:   2    -0.284889596799E+03   -0.32493E-02   -0.38611E-02 31380   0.570E-01    0.167E+00
DAV:   3    -0.284887111908E+03    0.24849E-02   -0.17053E-02 30744   0.420E-01    0.140E-01
DAV:   4    -0.284887675817E+03   -0.56391E-03   -0.16385E-03 31680   0.899E-02    0.280E-01
DAV:   5    -0.284887547990E+03    0.12783E-03   -0.74382E-04 35436   0.884E-02    0.529E-02
DAV:   6    -0.284887566900E+03   -0.18910E-04   -0.17916E-04 32712   0.473E-02    0.106E-01
DAV:   7    -0.284887567287E+03   -0.38692E-06   -0.53179E-05 23352   0.304E-02
 118 F= -.28488757E+03 E0= -.28488629E+03  d E =-.320279E-02  mag=    18.0000
       N       E                     dE             d eps       ncg     rms          rms(c)
DAV:   1    -0.284888391659E+03   -0.82476E-03   -0.24220E-02 29208   0.680E-01    0.968E-02
DAV:   2    -0.284888586577E+03   -0.19492E-03   -0.21652E-03 28404   0.137E-01    0.193E-01
DAV:   3    -0.284888563101E+03    0.23476E-04   -0.53777E-04 30924   0.738E-02    0.844E-02
DAV:   4    -0.284888561002E+03    0.20990E-05   -0.27616E-05 21804   0.273E-02
 119 F= -.28488856E+03 E0= -.28488736E+03  d E =-.993715E-03  mag=    18.0000
       N       E                     dE             d eps       ncg     rms          rms(c)
DAV:   1    -0.284889592502E+03   -0.10294E-02   -0.19473E-01 28176   0.189E+00    0.198E-01
DAV:   2    -0.284890919529E+03   -0.13270E-02   -0.14527E-02 28236   0.358E-01    0.416E-01
DAV:   3    -0.284890813364E+03    0.10617E-03   -0.21224E-03 31968   0.151E-01    0.147E-01
DAV:   4    -0.284890807415E+03    0.59489E-05   -0.13309E-04 31320   0.528E-02    0.762E-02
DAV:   5    -0.284890791340E+03    0.16075E-04   -0.15213E-04 30612   0.430E-02    0.783E-02
DAV:   6    -0.284890788923E+03    0.24171E-05   -0.57921E-05 27288   0.297E-02
 120 F= -.28489079E+03 E0= -.28488957E+03  d E =-.222792E-02  mag=    18.0000
       N       E                     dE             d eps       ncg     rms          rms(c)
DAV:   1    -0.284891388841E+03   -0.59750E-03   -0.97451E-02 28116   0.125E+00    0.125E-01
DAV:   2    -0.284891911390E+03   -0.52255E-03   -0.58131E-03 27840   0.230E-01    0.915E-02
DAV:   3    -0.284891936216E+03   -0.24826E-04   -0.54353E-04 35340   0.714E-02    0.178E-01
DAV:   4    -0.284891899218E+03    0.36998E-04   -0.21305E-04 25788   0.486E-02    0.306E-02
DAV:   5    -0.284891900503E+03   -0.12847E-05   -0.52704E-05 26472   0.210E-02
 121 F= -.28489190E+03 E0= -.28489070E+03  d E =-.111158E-02  mag=    18.0000
       N       E                     dE             d eps       ncg     rms          rms(c)
DAV:   1    -0.284890782826E+03    0.11164E-02   -0.13732E-01 26772   0.140E+00    0.142E-01
DAV:   2    -0.284891471654E+03   -0.68883E-03   -0.75606E-03 27396   0.267E-01    0.195E-01
DAV:   3    -0.284891479817E+03   -0.81624E-05   -0.10054E-03 34392   0.100E-01    0.187E-01
DAV:   4    -0.284891440418E+03    0.39399E-04   -0.18902E-04 27540   0.532E-02    0.476E-02
DAV:   5    -0.284891438891E+03    0.15271E-05   -0.54138E-05 22752   0.267E-02
 122 F= -.28489144E+03 E0= -.28489025E+03  d E =0.461612E-03  mag=    18.0000
       N       E                     dE             d eps       ncg     rms          rms(c)
DAV:   1    -0.284889206909E+03    0.22335E-02   -0.11765E-01 26784   0.137E+00    0.138E-01
DAV:   2    -0.284889892570E+03   -0.68566E-03   -0.75213E-03 27096   0.262E-01    0.129E-01
DAV:   3    -0.284889924089E+03   -0.31519E-04   -0.88573E-04 35292   0.883E-02    0.224E-01
DAV:   4    -0.284889871358E+03    0.52732E-04   -0.25834E-04 27960   0.573E-02    0.411E-02
DAV:   5    -0.284889875691E+03   -0.43330E-05   -0.98561E-05 23172   0.238E-02
 123 F= -.28488988E+03 E0= -.28488882E+03  d E =0.156320E-02  mag=    18.0000
       N       E                     dE             d eps       ncg     rms          rms(c)
DAV:   1    -0.284887275554E+03    0.25958E-02   -0.10570E-01 26772   0.135E+00    0.129E-01
DAV:   2    -0.284887963868E+03   -0.68831E-03   -0.74599E-03 26496   0.260E-01    0.127E-01
DAV:   3    -0.284887991393E+03   -0.27524E-04   -0.77992E-04 33612   0.854E-02    0.188E-01
DAV:   4    -0.284887954093E+03    0.37299E-04   -0.21241E-04 26172   0.512E-02    0.466E-02
DAV:   5    -0.284887955093E+03   -0.99942E-06   -0.41228E-05 19452   0.251E-02
 124 F= -.28488796E+03 E0= -.28488687E+03  d E =0.192060E-02  mag=    18.0000
       N       E                     dE             d eps       ncg     rms          rms(c)
DAV:   1    -0.284883952428E+03    0.40017E-02   -0.25408E-01 26772   0.201E+00    0.186E-01
DAV:   2    -0.284885423152E+03   -0.14707E-02   -0.15751E-02 26460   0.376E-01    0.198E-01
DAV:   3    -0.284885480975E+03   -0.57823E-04   -0.16794E-03 34200   0.126E-01    0.284E-01
DAV:   4    -0.284885396832E+03    0.84143E-04   -0.43095E-04 30504   0.730E-02    0.527E-02
DAV:   5    -0.284885401239E+03   -0.44073E-05   -0.19128E-04 28800   0.331E-02    0.909E-02
DAV:   6    -0.284885391265E+03    0.99743E-05   -0.78605E-05 21528   0.303E-02
 125 F= -.28488539E+03 E0= -.28488432E+03  d E =0.256383E-02  mag=    18.0000
       N       E                     dE             d eps       ncg     rms          rms(c)
DAV:   1    -0.284877213406E+03    0.81878E-02   -0.81424E-01 27564   0.353E+00    0.317E-01
DAV:   2    -0.284881659520E+03   -0.44461E-02   -0.46265E-02 27144   0.645E-01    0.401E-01
DAV:   3    -0.284881784315E+03   -0.12480E-03   -0.50720E-03 33120   0.220E-01    0.425E-01
DAV:   4    -0.284881584423E+03    0.19989E-03   -0.10749E-03 33552   0.119E-01    0.895E-02
DAV:   5    -0.284881582235E+03    0.21877E-05   -0.41170E-04 32832   0.534E-02    0.131E-01
DAV:   6    -0.284881561373E+03    0.20862E-04   -0.11245E-04 30432   0.468E-02    0.459E-02
DAV:   7    -0.284881562445E+03   -0.10716E-05   -0.73508E-05 18684   0.244E-02
 126 F= -.28488156E+03 E0= -.28488062E+03  d E =0.382882E-02  mag=    18.0000
       N       E                     dE             d eps       ncg     rms          rms(c)
DAV:   1    -0.284878379740E+03    0.31816E-02   -0.45856E-01 27384   0.257E+00    0.282E-01
DAV:   2    -0.284880729480E+03   -0.23497E-02   -0.24192E-02 27912   0.463E-01    0.215E-01
DAV:   3    -0.284880851155E+03   -0.12168E-03   -0.26945E-03 34368   0.157E-01    0.384E-01
DAV:   4    -0.284880696563E+03    0.15459E-03   -0.10203E-03 32232   0.102E-01    0.632E-02
DAV:   5    -0.284880700919E+03   -0.43562E-05   -0.12151E-04 30288   0.408E-02    0.633E-02
DAV:   6    -0.284880690859E+03    0.10059E-04   -0.69243E-05 27900   0.343E-02    0.299E-02
DAV:   7    -0.284880690756E+03    0.10325E-06   -0.15066E-05 16692   0.170E-02
 127 F= -.28488069E+03 E0= -.28487971E+03  d E =0.871689E-03  mag=    18.0000
       N       E                     dE             d eps       ncg     rms          rms(c)
DAV:   1    -0.284882197464E+03   -0.15066E-02   -0.13937E-01 27648   0.157E+00    0.168E-01
DAV:   2    -0.284883083087E+03   -0.88562E-03   -0.94988E-03 27684   0.292E-01    0.901E-02
DAV:   3    -0.284883100714E+03   -0.17627E-04   -0.46412E-04 34536   0.801E-02    0.146E-01
DAV:   4    -0.284883080121E+03    0.20593E-04   -0.24447E-04 28584   0.511E-02    0.713E-02
DAV:   5    -0.284883073812E+03    0.63094E-05   -0.51793E-05 20724   0.302E-02
 128 F= -.28488307E+03 E0= -.28488214E+03  d E =-.238306E-02  mag=    18.0000
       N       E                     dE             d eps       ncg     rms          rms(c)
DAV:   1    -0.284883121852E+03   -0.41731E-04   -0.10243E-02 26652   0.349E-01    0.624E-02
DAV:   2    -0.284883175803E+03   -0.53951E-04   -0.59242E-04 30216   0.698E-02    0.860E-02
DAV:   3    -0.284883175635E+03    0.16773E-06   -0.17397E-04 24060   0.397E-02    0.719E-02
DAV:   4    -0.284883169832E+03    0.58032E-05   -0.33023E-05 17700   0.223E-02
 129 F= -.28488317E+03 E0= -.28488223E+03  d E =-.960203E-04  mag=    18.0000
