 vasp.6.1.2 22Jul20 (build Dec 05 2020 14:50:36) complex                        
  
 executed on         CrayXC-Intel date 2021.06.04  00:03:30
 running on   24 total cores
 distrk:  each k-point on   24 cores,    1 groups
 distr:  one band on NCORE=   4 cores,    6 groups


--------------------------------------------------------------------------------------------------------


 INCAR:
 POTCAR:    PAW_PBE Ca_sv 06Sep2000               
 POTCAR:    PAW_PBE Ti_pv 07Sep2000               
 POTCAR:    PAW_PBE Si 05Jan2001                  
 POTCAR:    PAW_PBE O 08Apr2002                   
 POTCAR:    PAW_PBE Ca_sv 06Sep2000               
   VRHFIN =Ca: 3s3p4s                                                                               
   LEXCH  = PE                                                                                      
   EATOM  =  1006.0909 eV,   73.9456 Ry                                                             
                                                                                                    
   TITEL  = PAW_PBE Ca_sv 06Sep2000                                                                 
   LULTRA =        F    use ultrasoft PP ?                                                          
   IUNSCR =        1    unscreen: 0-lin 1-nonlin 2-no                                               
   RPACOR =    2.000    partial core radius                                                         
   POMASS =   40.078; ZVAL   =   10.000    mass and valenz                                          
   RCORE  =    2.300    outmost cutoff radius                                                       
   RWIGS  =    2.500; RWIGS  =    1.323    wigner-seitz radius (au A)                               
   ENMAX  =  266.622; ENMIN  =  199.967 eV                                                          
   RCLOC  =    1.808    cutoff for local pot                                                        
   LCOR   =        T    correct aug charges                                                         
   LPAW   =        T    paw PP                                                                      
   EAUG   =  420.852                                                                                
   RMAX   =    2.359    core radius for proj-oper                                                   
   RAUG   =    1.300    factor for augmentation sphere                                              
   RDEP   =    2.392    radius for radial grids                                                     
   RDEPT  =    1.987    core radius for aug-charge                                                  
                                                                                                    
   Atomic configuration                                                                             
    7 entries                                                                                       
     n  l   j            E        occ.                                                              
     1  0  0.50     -3949.1705   2.0000                                                             
     2  0  0.50      -414.3434   2.0000                                                             
     2  1  1.50      -334.7047   6.0000                                                             
     3  0  0.50       -47.0896   2.0000                                                             
     4  0  0.50        -3.7663   2.0000                                                             
     3  1  1.50       -28.0061   6.0000                                                             
     3  2  1.50        -4.0817   0.0000                                                             
   Description                                                                                      
     l       E           TYP  RCUT    TYP  RCUT                                                     
     0    -47.0896403     23  2.300                                                                 
     0     -3.7663320     23  2.300                                                                 
     1    -28.0060855     23  2.300                                                                 
     1      6.8029130     23  2.300                                                                 
     2     -4.0817478     23  2.300                                                                 
     2      0.4464412     23  2.300                                                                 
  local pseudopotential read in
  partial core-charges read in
  partial kinetic energy density read in
  atomic valenz-charges read in
  non local Contribution for L=           0  read in
    real space projection operators read in
  non local Contribution for L=           0  read in
    real space projection operators read in
  non local Contribution for L=           1  read in
    real space projection operators read in
  non local Contribution for L=           1  read in
    real space projection operators read in
  non local Contribution for L=           2  read in
    real space projection operators read in
  non local Contribution for L=           2  read in
    real space projection operators read in
    PAW grid and wavefunctions read in
 
   number of l-projection  operators is LMAX  =           6
   number of lm-projection operators is LMMAX =          18
 
 POTCAR:    PAW_PBE Ti_pv 07Sep2000               
   VRHFIN =Ti: d3 s1                                                                                
   LEXCH  = PE                                                                                      
   EATOM  =  1042.5995 eV,   76.6289 Ry                                                             
                                                                                                    
   TITEL  = PAW_PBE Ti_pv 07Sep2000                                                                 
   LULTRA =        F    use ultrasoft PP ?                                                          
   IUNSCR =        1    unscreen: 0-lin 1-nonlin 2-no                                               
   RPACOR =    2.200    partial core radius                                                         
   POMASS =   47.880; ZVAL   =   10.000    mass and valenz                                          
   RCORE  =    2.500    outmost cutoff radius                                                       
   RWIGS  =    2.500; RWIGS  =    1.323    wigner-seitz radius (au A)                               
   ENMAX  =  222.335; ENMIN  =  166.751 eV                                                          
   RCLOC  =    1.701    cutoff for local pot                                                        
   LCOR   =        T    correct aug charges                                                         
   LPAW   =        T    paw PP                                                                      
   EAUG   =  482.848                                                                                
   DEXC   =    0.000                                                                                
   RMAX   =    2.564    core radius for proj-oper                                                   
   RAUG   =    1.300    factor for augmentation sphere                                              
   RDEP   =    2.538    radius for radial grids                                                     
   RDEPT  =    1.952    core radius for aug-charge                                                  
                                                                                                    
   Atomic configuration                                                                             
    8 entries                                                                                       
     n  l   j            E        occ.                                                              
     1  0  0.50     -4865.3608   2.0000                                                             
     2  0  0.50      -533.1368   2.0000                                                             
     2  1  1.50      -440.5031   6.0000                                                             
     3  0  0.50       -59.3186   2.0000                                                             
     3  1  1.50       -35.7012   6.0000                                                             
     3  2  2.50        -1.9157   3.0000                                                             
     4  0  0.50        -3.7291   1.0000                                                             
     4  3  2.50        -1.3606   0.0000                                                             
   Description                                                                                      
     l       E           TYP  RCUT    TYP  RCUT                                                     
     1    -35.7012140     23  2.300                                                                 
     1     -1.3605826     23  2.300                                                                 
     2     -1.9156996     23  2.500                                                                 
     2     -0.4063033     23  2.500                                                                 
     0     -3.7290856     23  2.500                                                                 
     0     20.4087390     23  2.500                                                                 
  local pseudopotential read in
  partial core-charges read in
  partial kinetic energy density read in
  atomic valenz-charges read in
  non local Contribution for L=           1  read in
    real space projection operators read in
  non local Contribution for L=           1  read in
    real space projection operators read in
  non local Contribution for L=           2  read in
    real space projection operators read in
  non local Contribution for L=           2  read in
    real space projection operators read in
  non local Contribution for L=           0  read in
    real space projection operators read in
  non local Contribution for L=           0  read in
    real space projection operators read in
    PAW grid and wavefunctions read in
 
   number of l-projection  operators is LMAX  =           6
   number of lm-projection operators is LMMAX =          18
 
 POTCAR:    PAW_PBE Si 05Jan2001                  
   VRHFIN =Si: s2p2                                                                                 
   LEXCH  = PE                                                                                      
   EATOM  =   103.0669 eV,    7.5752 Ry                                                             
                                                                                                    
   TITEL  = PAW_PBE Si 05Jan2001                                                                    
   LULTRA =        F    use ultrasoft PP ?                                                          
   IUNSCR =        1    unscreen: 0-lin 1-nonlin 2-no                                               
   RPACOR =    1.500    partial core radius                                                         
   POMASS =   28.085; ZVAL   =    4.000    mass and valenz                                          
   RCORE  =    1.900    outmost cutoff radius                                                       
   RWIGS  =    2.480; RWIGS  =    1.312    wigner-seitz radius (au A)                               
   ENMAX  =  245.345; ENMIN  =  184.009 eV                                                          
   ICORE  =        2    local potential                                                             
   LCOR   =        T    correct aug charges                                                         
   LPAW   =        T    paw PP                                                                      
   EAUG   =  322.069                                                                                
   DEXC   =    0.000                                                                                
   RMAX   =    1.950    core radius for proj-oper                                                   
   RAUG   =    1.300    factor for augmentation sphere                                              
   RDEP   =    1.993    radius for radial grids                                                     
   RDEPT  =    1.837    core radius for aug-charge                                                  
                                                                                                    
   Atomic configuration                                                                             
    6 entries                                                                                       
     n  l   j            E        occ.                                                              
     1  0  0.50     -1785.8828   2.0000                                                             
     2  0  0.50      -139.4969   2.0000                                                             
     2  1  1.50       -95.5546   6.0000                                                             
     3  0  0.50       -10.8127   2.0000                                                             
     3  1  0.50        -4.0811   2.0000                                                             
     3  2  1.50        -4.0817   0.0000                                                             
   Description                                                                                      
     l       E           TYP  RCUT    TYP  RCUT                                                     
     0    -10.8127223     23  1.900                                                                 
     0     -7.6451159     23  1.900                                                                 
     1     -4.0811372     23  1.900                                                                 
     1      2.4879257     23  1.900                                                                 
     2     -4.0817478      7  1.900                                                                 
  local pseudopotential read in
  partial core-charges read in
  partial kinetic energy density read in
  atomic valenz-charges read in
  non local Contribution for L=           0  read in
    real space projection operators read in
  non local Contribution for L=           0  read in
    real space projection operators read in
  non local Contribution for L=           1  read in
    real space projection operators read in
  non local Contribution for L=           1  read in
    real space projection operators read in
    PAW grid and wavefunctions read in
 
   number of l-projection  operators is LMAX  =           4
   number of lm-projection operators is LMMAX =           8
 
 POTCAR:    PAW_PBE O 08Apr2002                   
   VRHFIN =O: s2p4                                                                                  
   LEXCH  = PE                                                                                      
   EATOM  =   432.3788 eV,   31.7789 Ry                                                             
                                                                                                    
   TITEL  = PAW_PBE O 08Apr2002                                                                     
   LULTRA =        F    use ultrasoft PP ?                                                          
   IUNSCR =        1    unscreen: 0-lin 1-nonlin 2-no                                               
   RPACOR =    1.200    partial core radius                                                         
   POMASS =   16.000; ZVAL   =    6.000    mass and valenz                                          
   RCORE  =    1.520    outmost cutoff radius                                                       
   RWIGS  =    1.550; RWIGS  =    0.820    wigner-seitz radius (au A)                               
   ENMAX  =  400.000; ENMIN  =  300.000 eV                                                          
   ICORE  =        2    local potential                                                             
   LCOR   =        T    correct aug charges                                                         
   LPAW   =        T    paw PP                                                                      
   EAUG   =  605.392                                                                                
   DEXC   =    0.000                                                                                
   RMAX   =    1.553    core radius for proj-oper                                                   
   RAUG   =    1.300    factor for augmentation sphere                                              
   RDEP   =    1.550    radius for radial grids                                                     
   RDEPT  =    1.329    core radius for aug-charge                                                  
                                                                                                    
   Atomic configuration                                                                             
    4 entries                                                                                       
     n  l   j            E        occ.                                                              
     1  0  0.50      -514.6923   2.0000                                                             
     2  0  0.50       -23.9615   2.0000                                                             
     2  1  0.50        -9.0305   4.0000                                                             
     3  2  1.50        -9.5241   0.0000                                                             
   Description                                                                                      
     l       E           TYP  RCUT    TYP  RCUT                                                     
     0    -23.9615318     23  1.200                                                                 
     0     -9.5240782     23  1.200                                                                 
     1     -9.0304911     23  1.520                                                                 
     1      8.1634956     23  1.520                                                                 
     2     -9.5240782      7  1.500                                                                 
  local pseudopotential read in
  partial core-charges read in
  partial kinetic energy density read in
  kinetic energy density of atom read in
  atomic valenz-charges read in
  non local Contribution for L=           0  read in
    real space projection operators read in
  non local Contribution for L=           0  read in
    real space projection operators read in
  non local Contribution for L=           1  read in
    real space projection operators read in
  non local Contribution for L=           1  read in
    real space projection operators read in
    PAW grid and wavefunctions read in
 
   number of l-projection  operators is LMAX  =           4
   number of lm-projection operators is LMMAX =           8
 
 Optimization of the real space projectors (new method)

 maximal supplied QI-value         = 16.25
 optimisation between [QCUT,QGAM] = [ 11.54, 23.24] = [ 37.28,151.24] Ry 
 Optimized for a Real-space Cutoff    1.58 Angstroem

   l    n(q)    QCUT    max X(q) W(low)/X(q) W(high)/X(q)  e(spline) 
   0     11    11.539    11.817    0.25E-04    0.22E-05    0.26E-07
   0     11    11.539     8.461    0.39E-04    0.49E-05    0.55E-07
   1     11    11.539     3.957    0.21E-05    0.44E-05    0.32E-07
   1     11    11.539     4.314    0.56E-04    0.44E-04    0.19E-06
   2     10    11.539    14.565    0.25E-03    0.21E-04    0.75E-06
   2     10    11.539    14.552    0.23E-03    0.22E-04    0.72E-06
 Optimization of the real space projectors (new method)

 maximal supplied QI-value         = 15.12
 optimisation between [QCUT,QGAM] = [ 11.64, 23.28] = [ 37.95,151.78] Ry 
 Optimized for a Real-space Cutoff    1.49 Angstroem

   l    n(q)    QCUT    max X(q) W(low)/X(q) W(high)/X(q)  e(spline) 
   1     10    11.641     4.216    0.17E-04    0.40E-04    0.50E-07
   1     10    11.641     5.422    0.66E-04    0.10E-03    0.13E-06
   2      9    11.641    72.084    0.68E-04    0.13E-03    0.50E-06
   2      9    11.641    65.965    0.66E-04    0.13E-03    0.50E-06
   0     10    11.641    41.531    0.10E-03    0.87E-04    0.31E-06
   0     10    11.641    16.290    0.75E-04    0.66E-04    0.24E-06
 Optimization of the real space projectors (new method)

 maximal supplied QI-value         = 19.84
 optimisation between [QCUT,QGAM] = [ 11.51, 23.22] = [ 37.09,150.92] Ry 
 Optimized for a Real-space Cutoff    1.21 Angstroem

   l    n(q)    QCUT    max X(q) W(low)/X(q) W(high)/X(q)  e(spline) 
   0      8    11.508   159.560    0.71E-04    0.15E-03    0.51E-07
   0      8    11.508   115.863    0.70E-04    0.15E-03    0.51E-07
   1      8    11.508    88.339    0.16E-03    0.38E-04    0.82E-07
   1      8    11.508    48.592    0.15E-03    0.36E-04    0.79E-07
 Optimization of the real space projectors (new method)

 maximal supplied QI-value         = 24.76
 optimisation between [QCUT,QGAM] = [ 11.64, 23.27] = [ 37.91,151.63] Ry 
 Optimized for a Real-space Cutoff    1.14 Angstroem

   l    n(q)    QCUT    max X(q) W(low)/X(q) W(high)/X(q)  e(spline) 
   0      8    11.635    20.381    0.10E-03    0.33E-03    0.24E-06
   0      8    11.635    15.268    0.11E-03    0.35E-03    0.26E-06
   1      7    11.635     5.964    0.24E-03    0.31E-03    0.30E-06
   1      7    11.635     5.382    0.22E-03    0.25E-03    0.26E-06
  PAW_PBE Ca_sv 06Sep2000               :
 energy of atom  1       EATOM=-1006.0909
 kinetic energy error for atom=    0.0022 (will be added to EATOM!!)
  PAW_PBE Ti_pv 07Sep2000               :
 energy of atom  2       EATOM=-1042.5995
 kinetic energy error for atom=    0.0019 (will be added to EATOM!!)
  PAW_PBE Si 05Jan2001                  :
 energy of atom  3       EATOM= -103.0669
 kinetic energy error for atom=    0.0005 (will be added to EATOM!!)
  PAW_PBE O 08Apr2002                   :
 energy of atom  4       EATOM= -432.3788
 kinetic energy error for atom=    0.0208 (will be added to EATOM!!)
 
 
 POSCAR: Ca2 Ti1 Si1 O6
  positions in direct lattice
  velocities in cartesian coordinates

 METAGGA = SCAN     LMAXTAU =  6    LMIXTAU =  F

 exchange correlation table for  LEXCH =        8
   RHO(1)=    0.500       N(1)  =     2000
   RHO(2)=  100.500       N(2)  =     4000
 


--------------------------------------------------------------------------------------------------------


 ion  position               nearest neighbor table
   1  0.250  0.250  0.250-
   2  0.750  0.750  0.750-
   3  0.500  0.500  0.500-  10 1.94   6 1.94   9 1.94   7 1.94   5 1.94   8 1.94
   4  1.000  1.000  0.000-   7 1.77   8 1.77   5 1.77   6 1.77   9 1.77  10 1.77
   5  0.761  0.239  0.239-   4 1.77   3 1.94
   6  0.761  0.239  0.761-   4 1.77   3 1.94
   7  0.761  0.761  0.239-   4 1.77   3 1.94
   8  0.239  0.761  0.761-   4 1.77   3 1.94
   9  0.239  0.761  0.239-   4 1.77   3 1.94
  10  0.239  0.239  0.761-   4 1.77   3 1.94
 

IMPORTANT INFORMATION: All symmetrisations will be switched off!
NOSYMM: (Re-)initialisation of all symmetry stuff for point group C_1.


----------------------------------------------------------------------------------------

                                     Primitive cell                                     

  volume of cell :     102.8174

  direct lattice vectors                    reciprocal lattice vectors
    -3.718305810 -3.718303130 -0.000012627    -0.134470071 -0.134470169  0.134469392
    -3.718305754 -0.000012684 -3.718337217    -0.134470075  0.134470629 -0.134468936
    -0.000012654 -3.718303103 -3.718337247     0.134470531 -0.134470171 -0.134468934

  length of vectors
     5.258476611  5.258500674  5.258498821     0.232908660  0.232908665  0.232908662

  position of ions in fractional coordinates (direct lattice)
     0.249999831  0.249999838  0.249999780
     0.750000204  0.750000220  0.750000173
     0.499997507  0.499997489  0.500002498
     0.999999635  0.999999638  0.000000362
     0.761354696  0.238646191  0.238646026
     0.761350846  0.238648200  0.761351080
     0.761352611  0.761352606  0.238646672
     0.238645459  0.761353964  0.761353820
     0.238648925  0.761351564  0.238649157
     0.238650285  0.238650290  0.761350432

  ion indices of the primitive-cell ions
   primitive index   ion index
                 1           1
                 2           2
                 3           3
                 4           4
                 5           5
                 6           6
                 7           7
                 8           8
                 9           9
                10          10

----------------------------------------------------------------------------------------

 
 
 KPOINTS: K-points file                           

Automatic generation of k-mesh.
Space group operators:
 irot       det(A)        alpha          n_x          n_y          n_z        tau_x        tau_y        tau_z
    1     1.000000     0.000000     1.000000     0.000000     0.000000     0.000000     0.000000     0.000000
 
 Subroutine IBZKPT returns following result:
 ===========================================
 
 Found    172 irreducible k-points:
 
 Following reciprocal coordinates:
            Coordinates               Weight
  0.000000  0.000000  0.000000      1.000000
  0.142857  0.000000 -0.000000      2.000000
 -0.142857 -0.142857 -0.142857      2.000000
  0.000000  0.142857 -0.000000      2.000000
  0.000000  0.000000 -0.142857      2.000000
  0.285714  0.000000 -0.000000      2.000000
 -0.285714 -0.285714 -0.285714      2.000000
  0.000000  0.285714 -0.000000      2.000000
  0.000000  0.000000 -0.285714      2.000000
  0.428571 -0.000000 -0.000000      2.000000
 -0.428571 -0.428571 -0.428571      2.000000
  0.000000  0.428571 -0.000000      2.000000
  0.000000 -0.000000 -0.428571      2.000000
  0.142857  0.142857 -0.000000      2.000000
 -0.000000 -0.142857 -0.142857      2.000000
 -0.142857 -0.000000 -0.142857      2.000000
  0.285714  0.142857 -0.000000      2.000000
 -0.142857 -0.285714 -0.285714      2.000000
 -0.142857  0.142857 -0.142857      2.000000
  0.142857  0.142857 -0.142857      2.000000
 -0.285714 -0.000000 -0.142857      2.000000
  0.142857  0.285714 -0.000000      2.000000
 -0.000000  0.142857  0.285714      2.000000
  0.285714  0.285714  0.142857      2.000000
  0.142857 -0.142857 -0.142857      2.000000
  0.142857  0.000000  0.285714      2.000000
 -0.000000 -0.285714 -0.142857      2.000000
 -0.285714 -0.142857 -0.285714      2.000000
  0.428571  0.142857 -0.000000      2.000000
 -0.285714 -0.428571 -0.428571      2.000000
 -0.142857  0.285714 -0.142857      2.000000
  0.142857  0.142857 -0.285714      2.000000
 -0.428571 -0.000000 -0.142857      2.000000
  0.142857  0.428571 -0.000000      2.000000
 -0.000000  0.142857  0.428571      2.000000
  0.428571  0.428571  0.285714      2.000000
  0.285714 -0.142857 -0.142857      2.000000
  0.142857 -0.000000  0.428571      2.000000
 -0.000000 -0.428571 -0.142857      2.000000
 -0.428571 -0.285714 -0.428571      2.000000
 -0.428571  0.142857 -0.000000      2.000000
 -0.428571  0.428571  0.428571      2.000000
 -0.142857  0.428571 -0.142857      2.000000
  0.142857  0.142857 -0.428571      2.000000
  0.428571  0.000000 -0.142857      2.000000
  0.142857 -0.428571  0.000000      2.000000
  0.000000  0.142857 -0.428571      2.000000
 -0.428571 -0.428571  0.428571      2.000000
  0.428571 -0.142857 -0.142857      2.000000
  0.142857  0.000000 -0.428571      2.000000
 -0.000000  0.428571 -0.142857      2.000000
  0.428571 -0.428571  0.428571      2.000000
 -0.285714  0.142857  0.000000      2.000000
  0.428571  0.285714  0.285714      2.000000
 -0.142857 -0.428571 -0.142857      2.000000
  0.142857  0.142857  0.428571      2.000000
  0.285714  0.000000 -0.142857      2.000000
  0.142857 -0.285714 -0.000000      2.000000
  0.000000  0.142857 -0.285714      2.000000
 -0.285714 -0.285714 -0.428571      2.000000
 -0.428571 -0.142857 -0.142857      2.000000
  0.142857 -0.000000 -0.285714      2.000000
  0.000000  0.285714 -0.142857      2.000000
  0.285714  0.428571  0.285714      2.000000
 -0.142857  0.142857  0.000000      2.000000
  0.285714  0.142857  0.142857      2.000000
 -0.142857 -0.285714 -0.142857      2.000000
  0.142857  0.142857  0.285714      2.000000
  0.142857  0.000000 -0.142857      2.000000
  0.000000  0.142857 -0.142857      2.000000
  0.285714  0.285714 -0.000000      2.000000
 -0.000000 -0.285714 -0.285714      2.000000
 -0.285714 -0.000000 -0.285714      2.000000
  0.428571  0.285714 -0.000000      2.000000
 -0.142857 -0.428571 -0.428571      2.000000
 -0.285714  0.142857 -0.285714      2.000000
  0.285714  0.285714 -0.142857      2.000000
 -0.428571  0.000000 -0.285714      2.000000
  0.285714  0.428571  0.000000      2.000000
  0.000000  0.285714  0.428571      2.000000
  0.428571  0.428571  0.142857      2.000000
  0.142857 -0.285714 -0.285714      2.000000
  0.285714 -0.000000  0.428571      2.000000
 -0.000000 -0.428571 -0.285714      2.000000
 -0.428571 -0.142857 -0.428571      2.000000
 -0.428571  0.285714  0.000000      2.000000
 -0.285714  0.428571  0.428571      2.000000
 -0.285714  0.285714 -0.285714      2.000000
  0.285714  0.285714 -0.285714      2.000000
  0.428571  0.000000 -0.285714      2.000000
  0.285714 -0.428571 -0.000000      2.000000
  0.000000  0.285714 -0.428571      2.000000
 -0.428571 -0.428571  0.285714      2.000000
  0.285714 -0.285714 -0.285714      2.000000
  0.285714  0.000000 -0.428571      2.000000
  0.000000  0.428571 -0.285714      2.000000
  0.428571 -0.285714  0.428571      2.000000
 -0.285714  0.285714  0.000000      2.000000
 -0.428571  0.285714  0.285714      2.000000
 -0.285714  0.428571 -0.285714      2.000000
  0.285714  0.285714 -0.428571      2.000000
  0.285714  0.000000 -0.285714      2.000000
  0.000000  0.285714 -0.285714      2.000000
  0.428571  0.428571  0.000000      2.000000
 -0.000000 -0.428571 -0.428571      2.000000
 -0.428571 -0.000000 -0.428571      2.000000
 -0.428571  0.428571  0.000000      2.000000
 -0.142857  0.428571  0.428571      2.000000
 -0.428571  0.142857 -0.428571      2.000000
  0.428571  0.428571 -0.142857      2.000000
  0.428571 -0.000000 -0.428571      2.000000
  0.000000  0.428571 -0.428571      2.000000
  0.428571  0.285714  0.142857      2.000000
 -0.142857 -0.428571 -0.285714      2.000000
 -0.285714  0.142857 -0.142857      2.000000
  0.285714  0.142857 -0.142857      2.000000
 -0.428571 -0.142857 -0.285714      2.000000
  0.142857  0.285714  0.428571      2.000000
  0.142857  0.285714 -0.142857      2.000000
 -0.142857  0.142857  0.285714      2.000000
  0.285714  0.428571  0.142857      2.000000
  0.142857 -0.142857  0.285714      2.000000
  0.285714  0.142857  0.428571      2.000000
  0.142857 -0.285714 -0.142857      2.000000
 -0.428571  0.285714  0.142857      2.000000
 -0.285714  0.428571 -0.428571      2.000000
 -0.285714  0.285714 -0.142857      2.000000
  0.285714  0.142857 -0.285714      2.000000
  0.428571 -0.142857 -0.285714      2.000000
  0.285714  0.428571 -0.428571      2.000000
  0.142857  0.428571 -0.142857      2.000000
 -0.142857  0.142857  0.428571      2.000000
  0.428571 -0.142857  0.142857      2.000000
  0.428571 -0.428571  0.285714      2.000000
  0.142857 -0.285714  0.285714      2.000000
 -0.142857 -0.285714  0.428571      2.000000
  0.285714 -0.142857 -0.285714      2.000000
  0.285714  0.142857 -0.428571      2.000000
  0.428571 -0.428571 -0.285714      2.000000
  0.142857 -0.428571 -0.142857      2.000000
 -0.428571 -0.142857  0.142857      2.000000
 -0.142857  0.142857 -0.428571      2.000000
 -0.428571 -0.285714  0.428571      2.000000
 -0.142857 -0.285714  0.285714      2.000000
  0.142857 -0.428571  0.285714      2.000000
 -0.428571  0.285714  0.428571      2.000000
 -0.285714  0.428571 -0.142857      2.000000
 -0.285714  0.285714  0.142857      2.000000
 -0.428571  0.428571  0.142857      2.000000
 -0.142857  0.428571 -0.428571      2.000000
 -0.428571  0.142857 -0.285714      2.000000
  0.428571  0.285714 -0.142857      2.000000
  0.428571 -0.142857 -0.428571      2.000000
  0.142857  0.428571 -0.428571      2.000000
  0.285714  0.428571 -0.142857      2.000000
 -0.142857  0.285714  0.428571      2.000000
  0.428571 -0.428571  0.142857      2.000000
  0.285714 -0.142857  0.428571      2.000000
  0.428571  0.142857 -0.428571      2.000000
  0.142857 -0.428571 -0.285714      2.000000
 -0.285714  0.428571  0.142857      2.000000
 -0.285714  0.285714  0.428571      2.000000
 -0.428571  0.285714 -0.285714      2.000000
  0.428571  0.285714 -0.285714      2.000000
  0.285714 -0.142857 -0.428571      2.000000
  0.285714 -0.428571 -0.285714      2.000000
 -0.142857  0.285714 -0.428571      2.000000
 -0.428571 -0.142857  0.285714      2.000000
  0.285714 -0.285714  0.428571      2.000000
 -0.142857 -0.428571  0.285714      2.000000
  0.285714  0.428571 -0.285714      2.000000
  0.428571 -0.285714  0.142857      2.000000
 
 Following cartesian coordinates:
            Coordinates               Weight
  0.000000  0.000000  0.000000      1.000000
 -0.019210 -0.019210  0.019210      2.000000
  0.019210  0.019210  0.019210      2.000000
 -0.019210  0.019210 -0.019210      2.000000
 -0.019210  0.019210  0.019210      2.000000
 -0.038420 -0.038420  0.038420      2.000000
  0.038420  0.038420  0.038420      2.000000
 -0.038420  0.038420 -0.038420      2.000000
 -0.038420  0.038420  0.038420      2.000000
 -0.057630 -0.057630  0.057630      2.000000
  0.057630  0.057630  0.057629      2.000000
 -0.057630  0.057630 -0.057630      2.000000
 -0.057630  0.057630  0.057630      2.000000
 -0.038420  0.000000  0.000000      2.000000
 -0.000000 -0.000000  0.038420      2.000000
 -0.000000  0.038420 -0.000000      2.000000
 -0.057630 -0.019210  0.019210      2.000000
  0.019210  0.019210  0.057629      2.000000
 -0.019210  0.057630 -0.019210      2.000000
 -0.057630  0.019210  0.019210      2.000000
  0.019210  0.057630 -0.019210      2.000000
 -0.057630  0.019210 -0.019210      2.000000
  0.019210 -0.019210 -0.057630      2.000000
 -0.057630 -0.019210 -0.019210      2.000000
 -0.019210 -0.019210  0.057630      2.000000
  0.019210 -0.057630 -0.019210      2.000000
  0.019210 -0.019210  0.057630      2.000000
  0.019210  0.057630  0.019210      2.000000
 -0.076840 -0.038420  0.038420      2.000000
  0.038420  0.038420  0.076839      2.000000
 -0.038420  0.076840 -0.038420      2.000000
 -0.076840  0.038420  0.038420      2.000000
  0.038420  0.076840 -0.038420      2.000000
 -0.076840  0.038420 -0.038420      2.000000
  0.038420 -0.038420 -0.076839      2.000000
 -0.076840 -0.038420 -0.038420      2.000000
 -0.038420 -0.038420  0.076840      2.000000
  0.038420 -0.076840 -0.038420      2.000000
  0.038420 -0.038420  0.076839      2.000000
  0.038420  0.076840  0.038419      2.000000
  0.038420  0.076840 -0.076840      2.000000
  0.057630  0.057630 -0.172889      2.000000
 -0.057630  0.096050 -0.057630      2.000000
 -0.096050  0.057630  0.057630      2.000000
 -0.076840 -0.038420  0.076840      2.000000
  0.038420 -0.076840  0.076839      2.000000
 -0.076840  0.076840  0.038420      2.000000
  0.172890 -0.057630 -0.057630      2.000000
 -0.057630 -0.057630  0.096049      2.000000
 -0.076840  0.038420  0.076839      2.000000
 -0.076840  0.076840 -0.038420      2.000000
  0.057630 -0.172890  0.057630      2.000000
  0.019210  0.057630 -0.057630      2.000000
 -0.057630 -0.057630 -0.019210      2.000000
  0.057630 -0.019210  0.057629      2.000000
  0.019210 -0.057630 -0.057629      2.000000
 -0.057630 -0.019210  0.057630      2.000000
  0.019210 -0.057630  0.057630      2.000000
 -0.057630  0.057630  0.019210      2.000000
  0.019210  0.057630  0.057629      2.000000
  0.057630  0.057630 -0.019210      2.000000
 -0.057630  0.019210  0.057630      2.000000
 -0.057630  0.057630 -0.019210      2.000000
 -0.057630 -0.019210 -0.057629      2.000000
 -0.000000  0.038420 -0.038420      2.000000
 -0.038420 -0.038420  0.000000      2.000000
  0.038420 -0.000000  0.038420      2.000000
  0.000000 -0.038420 -0.038420      2.000000
 -0.038420  0.000000  0.038420      2.000000
 -0.038420  0.038420 -0.000000      2.000000
 -0.076840  0.000000  0.000000      2.000000
 -0.000000 -0.000000  0.076839      2.000000
 -0.000000  0.076840 -0.000000      2.000000
 -0.096050 -0.019210  0.019210      2.000000
  0.019210  0.019210  0.096049      2.000000
 -0.019210  0.096050 -0.019210      2.000000
 -0.096050  0.019210  0.019210      2.000000
  0.019210  0.096050 -0.019210      2.000000
 -0.096050  0.019210 -0.019210      2.000000
  0.019210 -0.019210 -0.096049      2.000000
 -0.096050 -0.019210 -0.019210      2.000000
 -0.019210 -0.019210  0.096049      2.000000
  0.019210 -0.096050 -0.019210      2.000000
  0.019210 -0.019210  0.096049      2.000000
  0.019210  0.096050  0.019210      2.000000
  0.019210  0.096050 -0.096049      2.000000
  0.038420  0.038420 -0.153679      2.000000
 -0.038420  0.115260 -0.038420      2.000000
 -0.115260  0.038420  0.038420      2.000000
 -0.096050 -0.019210  0.096049      2.000000
  0.019210 -0.096050  0.096049      2.000000
 -0.096050  0.096050  0.019210      2.000000
  0.153680 -0.038420 -0.038420      2.000000
 -0.038420 -0.038420  0.115259      2.000000
 -0.096050  0.019210  0.096049      2.000000
 -0.096050  0.096050 -0.019210      2.000000
  0.038420 -0.153680  0.038420      2.000000
 -0.000000  0.076840 -0.076840      2.000000
  0.057630  0.057630 -0.134469      2.000000
 -0.057630  0.134470 -0.057630      2.000000
 -0.134470  0.057630  0.057630      2.000000
 -0.076840  0.000000  0.076840      2.000000
 -0.076840  0.076840 -0.000000      2.000000
 -0.115260  0.000000  0.000000      2.000000
 -0.000000 -0.000000  0.115259      2.000000
 -0.000000  0.115260 -0.000000      2.000000
 -0.000000  0.115260 -0.115259      2.000000
  0.019210  0.019210 -0.134469      2.000000
 -0.019210  0.134470 -0.019210      2.000000
 -0.134470  0.019210  0.019210      2.000000
 -0.115260  0.000000  0.115259      2.000000
 -0.115260  0.115260 -0.000000      2.000000
 -0.076840 -0.038420  0.000000      2.000000
  0.038420 -0.000000  0.076839      2.000000
 -0.000000  0.076840 -0.038420      2.000000
 -0.076840  0.000000  0.038420      2.000000
  0.038420  0.076840 -0.000000      2.000000
  0.000000 -0.038420 -0.076839      2.000000
 -0.076840  0.038420  0.000000      2.000000
  0.038420  0.000000 -0.076839      2.000000
 -0.076840  0.000000 -0.038420      2.000000
  0.038420 -0.076840  0.000000      2.000000
  0.000000 -0.076840 -0.038420      2.000000
 -0.000000 -0.038420  0.076839      2.000000
  0.038420  0.076840 -0.115259      2.000000
 -0.076840  0.153680 -0.038420      2.000000
 -0.019210  0.096050 -0.057630      2.000000
 -0.096050  0.019210  0.057630      2.000000
 -0.076840 -0.038420  0.115259      2.000000
 -0.153680  0.076840  0.038420      2.000000
 -0.096050  0.057630 -0.019210      2.000000
  0.057630 -0.019210 -0.096049      2.000000
 -0.019210 -0.096050  0.057630      2.000000
  0.038420 -0.153680  0.076840      2.000000
  0.057630 -0.096050  0.019210      2.000000
  0.115260 -0.076840 -0.038420      2.000000
 -0.057630 -0.019210  0.096049      2.000000
 -0.115260  0.038420  0.076840      2.000000
 -0.038420 -0.076840  0.153679      2.000000
  0.019210 -0.057630  0.096049      2.000000
  0.096050  0.019210 -0.057630      2.000000
 -0.057630  0.096050  0.019210      2.000000
  0.153680 -0.038420 -0.076840      2.000000
  0.096050 -0.057630 -0.019210      2.000000
  0.076840 -0.115260  0.038420      2.000000
  0.076840  0.038420 -0.153679      2.000000
 -0.038420  0.115260 -0.076840      2.000000
  0.019210  0.057630 -0.096049      2.000000
  0.019210  0.096050 -0.134469      2.000000
 -0.096050  0.134470 -0.019210      2.000000
 -0.000000  0.115260 -0.038420      2.000000
 -0.115260  0.000000  0.038420      2.000000
 -0.096050 -0.019210  0.134469      2.000000
 -0.134470  0.096050  0.019210      2.000000
 -0.115260  0.038420  0.000000      2.000000
  0.038420  0.000000 -0.115259      2.000000
  0.019210 -0.134470  0.096049      2.000000
  0.038420 -0.115260  0.000000      2.000000
 -0.134470  0.019210  0.096049      2.000000
 -0.000000 -0.038420  0.115259      2.000000
  0.000000  0.076840 -0.115259      2.000000
  0.057630  0.019210 -0.134469      2.000000
 -0.019210  0.134470 -0.057630      2.000000
 -0.134470  0.019210  0.057630      2.000000
 -0.076840 -0.000000  0.115259      2.000000
 -0.019210 -0.057630  0.134469      2.000000
 -0.076840  0.115260 -0.000000      2.000000
  0.115260 -0.000000 -0.076840      2.000000
  0.057630 -0.134470  0.019210      2.000000
  0.115260 -0.076840 -0.000000      2.000000
 -0.134470  0.057630  0.019210      2.000000
  0.000000 -0.115260  0.076840      2.000000
 


--------------------------------------------------------------------------------------------------------




 Dimension of arrays:
   k-points           NKPTS =    172   k-points in BZ     NKDIM =    172   number of bands    NBANDS=     42
   number of dos      NEDOS =    301   number of ions     NIONS =     10
   non local maximal  LDIM  =      6   non local SUM 2l+1 LMDIM =     18
   total plane-waves  NPLWV =  64000
   max r-space proj   IRMAX =  10330   max aug-charges    IRDMAX=  29895
   dimension x,y,z NGX =    40 NGY =   40 NGZ =   40
   dimension x,y,z NGXF=    80 NGYF=   80 NGZF=   80
   support grid    NGXF=    80 NGYF=   80 NGZF=   80
   ions per type =               2   1   1   6
   NGX,Y,Z   is equivalent  to a cutoff of  12.65, 12.65, 12.65 a.u.
   NGXF,Y,Z  is equivalent  to a cutoff of  25.29, 25.29, 25.29 a.u.

 SYSTEM =  unknown system                          
 POSCAR =  Ca2 Ti1 Si1 O6                          

 Startparameter for this run:
   NWRITE =      2    write-flag & timer
   PREC   = accura    normal or accurate (medium, high low for compatibility)
   ISTART =      0    job   : 0-new  1-cont  2-samecut
   ICHARG =      1    charge: 1-file 2-atom 10-const
   ISPIN  =      2    spin polarized calculation?
   LNONCOLLINEAR =      F non collinear calculations
   LSORBIT =      F    spin-orbit coupling
   INIWAV =      1    electr: 0-lowe 1-rand  2-diag
   LASPH  =      T    aspherical Exc in radial PAW
   METAGGA=      F    non-selfconsistent MetaGGA calc.

 Electronic Relaxation 1
   ENCUT  =  520.0 eV  38.22 Ry    6.18 a.u.   9.78  9.78  9.78*2*pi/ulx,y,z
   ENINI  =  520.0     initial cutoff
   ENAUG  =  605.4 eV  augmentation charge cutoff
   NELM   =    100;   NELMIN=  6; NELMDL= -5     # of ELM steps 
   EDIFF  = 0.1E-04   stopping-criterion for ELM
   LREAL  =      T    real-space projection
   NLSPLINE    = F    spline interpolate recip. space projectors
   LCOMPAT=      F    compatible to vasp.4.4
   GGA_COMPAT  = T    GGA compatible to vasp.4.4-vasp.4.6
   LMAXPAW     = -100 max onsite density
   LMAXMIX     =    4 max onsite mixed and CHGCAR
   VOSKOWN=      0    Vosko Wilk Nusair interpolation
   ROPT   =   -0.00025  -0.00025  -0.00025  -0.00025
 Ionic relaxation
   EDIFFG = -.3E-01   stopping-criterion for IOM
   NSW    =     99    number of steps for IOM
   NBLOCK =      1;   KBLOCK =     99    inner block; outer block 
   IBRION =      2    ionic relax: 0-MD 1-quasi-New 2-CG
   NFREE  =      1    steps in history (QN), initial steepest desc. (CG)
   ISIF   =      3    stress and relaxation
   IWAVPR =     11    prediction:  0-non 1-charg 2-wave 3-comb
   ISYM   =      0    0-nonsym 1-usesym 2-fastsym
   LCORR  =      T    Harris-Foulkes like correction to forces

   POTIM  = 0.5000    time-step for ionic-motion
   TEIN   =    0.0    initial temperature
   TEBEG  =    0.0;   TEEND  =   0.0 temperature during run
   SMASS  =  -3.00    Nose mass-parameter (am)
   estimated Nose-frequenzy (Omega)   =  0.10E-29 period in steps = 0.13E+47 mass=  -0.632E-27a.u.
   SCALEE = 1.0000    scale energy and forces
   NPACO  =    256;   APACO  = 16.0  distance and # of slots for P.C.
   PSTRESS=    0.0 pullay stress

  Mass of Ions in am
   POMASS =  40.08 47.88 28.09 16.00
  Ionic Valenz
   ZVAL   =  10.00 10.00  4.00  6.00
  Atomic Wigner-Seitz radii
   RWIGS  =  -1.00 -1.00 -1.00 -1.00
  virtual crystal weights 
   VCA    =   1.00  1.00  1.00  1.00
   NELECT =      70.0000    total number of electrons
   NUPDOWN=      -1.0000    fix difference up-down

 DOS related values:
   EMIN   =  10.00;   EMAX   =-10.00  energy-range for DOS
   EFERMI =   0.00
   ISMEAR =     0;   SIGMA  =   0.05  broadening in eV -4-tet -1-fermi 0-gaus

 Electronic relaxation 2 (details)
   IALGO  =     38    algorithm
   LDIAG  =      T    sub-space diagonalisation (order eigenvalues)
   LSUBROT=      F    optimize rotation matrix (better conditioning)
   TURBO    =      0    0=normal 1=particle mesh
   IRESTART =      0    0=no restart 2=restart with 2 vectors
   NREBOOT  =      0    no. of reboots
   NMIN     =      0    reboot dimension
   EREF     =   0.00    reference energy to select bands
   IMIX   =      4    mixing-type and parameters
     AMIX     =   0.40;   BMIX     =  1.00
     AMIX_MAG =   1.60;   BMIX_MAG =  1.00
     AMIN     =   0.10
     WC   =   100.;   INIMIX=   1;  MIXPRE=   1;  MAXMIX= -45

 Intra band minimization:
   WEIMIN = 0.0010     energy-eigenvalue tresh-hold
   EBREAK =  0.60E-07  absolut break condition
   DEPER  =   0.30     relativ break condition  

   TIME   =   0.40     timestep for ELM

  volume/ion in A,a.u.               =      10.28        69.38
  Fermi-wavevector in a.u.,A,eV,Ry     =   1.440186  2.721558 28.220344  2.074137
  Thomas-Fermi vector in A             =   2.558959
 
 Write flags
   LWAVE        =      F    write WAVECAR
   LDOWNSAMPLE  =      F    k-point downsampling of WAVECAR
   LCHARG       =      T    write CHGCAR
   LVTOT        =      F    write LOCPOT, total local potential
   LVHAR        =      F    write LOCPOT, Hartree potential only
   LELF         =      F    write electronic localiz. function (ELF)
   LORBIT       =     11    0 simple, 1 ext, 2 COOP (PROOUT), +10 PAW based schemes


 Dipole corrections
   LMONO  =      F    monopole corrections only (constant potential shift)
   LDIPOL =      F    correct potential (dipole corrections)
   IDIPOL =      0    1-x, 2-y, 3-z, 4-all directions 
   EPSILON=  1.0000000 bulk dielectric constant

 LDA+U is selected, type is set to LDAUTYPE =  2
   angular momentum for each species LDAUL =    -1    2   -1   -1
   U (eV)           for each species LDAUU =   0.0  2.5  0.0  0.0
   J (eV)           for each species LDAUJ =   0.0  0.0  0.0  0.0
 Exchange correlation treatment:
   GGA     =    --    GGA type
   LEXCH   =     8    internal setting for exchange type
   VOSKOWN=      0    Vosko Wilk Nusair interpolation
   LHFCALC =     F    Hartree Fock is set to
   LHFONE  =     F    Hartree Fock one center treatment
   AEXX    =    0.0000 exact exchange contribution

 Linear response parameters
   LEPSILON=     F    determine dielectric tensor
   LRPA    =     F    only Hartree local field effects (RPA)
   LNABLA  =     F    use nabla operator in PAW spheres
   LVEL    =     F    velocity operator in full k-point grid
   LINTERFAST=   F  fast interpolation
   KINTER  =     0    interpolate to denser k-point grid
   CSHIFT  =0.1000    complex shift for real part using Kramers Kronig
   OMEGAMAX=  -1.0    maximum frequency
   DEG_THRESHOLD= 0.2000000E-02 threshold for treating states as degnerate
   RTIME   =   -0.100 relaxation time in fs
  (WPLASMAI=    0.000 imaginary part of plasma frequency in eV, 0.658/RTIME)
   DFIELD  = 0.0000000 0.0000000 0.0000000 field for delta impulse in time
 
 Orbital magnetization related:
   ORBITALMAG=     F  switch on orbital magnetization
   LCHIMAG   =     F  perturbation theory with respect to B field
   DQ        =  0.001000  dq finite difference perturbation B field
   LLRAUG    =     F  two centre corrections for induced B field



--------------------------------------------------------------------------------------------------------


 conjugate gradient relaxation of ions
 charge density and potential will be updated during run
 spin polarized calculation
 Variant of blocked Davidson
 Davidson routine will perform the subspace rotation
 perform sub-space diagonalisation
    after iterative eigenvector-optimisation
 modified Broyden-mixing scheme, WC =      100.0
 initial mixing is a Kerker type mixing with AMIX =  0.4000 and BMIX =      1.0000
 Hartree-type preconditioning will be used
 using additional bands            7
 real space projection scheme for non local part
 use partial core corrections
 calculate Harris-corrections to forces 
   (improved forces if not selfconsistent)
 use gradient corrections 
 use of overlap-Matrix (Vanderbilt PP)
 Gauss-broadening in eV      SIGMA  =   0.05


--------------------------------------------------------------------------------------------------------


  energy-cutoff  :      520.00
  volume of cell :      102.82
      direct lattice vectors                 reciprocal lattice vectors
    -3.718305810 -3.718303130 -0.000012627    -0.134470071 -0.134470169  0.134469392
    -3.718305754 -0.000012684 -3.718337217    -0.134470075  0.134470629 -0.134468936
    -0.000012654 -3.718303103 -3.718337247     0.134470531 -0.134470171 -0.134468934

  length of vectors
     5.258476611  5.258500674  5.258498821     0.232908660  0.232908665  0.232908662


 
 k-points in units of 2pi/SCALE and weight: K-points file                           
   0.00000000  0.00000000  0.00000000       0.003
  -0.01921001 -0.01921002  0.01920991       0.006
   0.01920995  0.01920996  0.01920978       0.006
  -0.01921001  0.01921009 -0.01920985       0.006
  -0.01921008  0.01921002  0.01920985       0.006
  -0.03842002 -0.03842005  0.03841983       0.006
   0.03841989  0.03841992  0.03841957       0.006
  -0.03842002  0.03842018 -0.03841970       0.006
  -0.03842015  0.03842005  0.03841970       0.006
  -0.05763003 -0.05763007  0.05762974       0.006
   0.05762984  0.05762988  0.05762935       0.006
  -0.05763003  0.05763027 -0.05762954       0.006
  -0.05763023  0.05763007  0.05762954       0.006
  -0.03842002  0.00000007  0.00000007       0.006
  -0.00000007 -0.00000007  0.03841970       0.006
  -0.00000007  0.03842005 -0.00000007       0.006
  -0.05763003 -0.01920996  0.01920998       0.006
   0.01920988  0.01920989  0.05762948       0.006
  -0.01921008  0.05763014 -0.01920991       0.006
  -0.05763010  0.01921009  0.01920991       0.006
   0.01920994  0.05763007 -0.01920998       0.006
  -0.05763003  0.01921016 -0.01920978       0.006
   0.01921014 -0.01920996 -0.05762954       0.006
  -0.05762997 -0.01920989 -0.01920972       0.006
  -0.01921008 -0.01921009  0.05762961       0.006
   0.01921014 -0.05763007 -0.01920978       0.006
   0.01920995 -0.01921016  0.05762954       0.006
   0.01920988  0.05763001  0.01920972       0.006
  -0.07684004 -0.03841998  0.03841989       0.006
   0.03841983  0.03841985  0.07683926       0.006
  -0.03842009  0.07684023 -0.03841976       0.006
  -0.07684017  0.03842011  0.03841976       0.006
   0.03841995  0.07684010 -0.03841989       0.006
  -0.07684004  0.03842025 -0.03841963       0.006
   0.03842022 -0.03841998 -0.07683939       0.006
  -0.07683991 -0.03841985 -0.03841950       0.006
  -0.03842009 -0.03842011  0.07683952       0.006
   0.03842022 -0.07684010 -0.03841963       0.006
   0.03841996 -0.03842025  0.07683939       0.006
   0.03841982  0.07683997  0.03841950       0.006
   0.03842002  0.07684016 -0.07683959       0.006
   0.05763023  0.05763027 -0.17288883       0.006
  -0.05763010  0.09605032 -0.05762961       0.006
  -0.09605025  0.05763014  0.05762961       0.006
  -0.07684011 -0.03842005  0.07683959       0.006
   0.03842002 -0.07684029  0.07683946       0.006
  -0.07684024  0.07684016  0.03841970       0.006
   0.17289029 -0.05763027 -0.05762974       0.006
  -0.05763010 -0.05763014  0.09604944       0.006
  -0.07684024  0.03842005  0.07683946       0.006
  -0.07684011  0.07684029 -0.03841970       0.006
   0.05763023 -0.17289042  0.05762974       0.006
   0.01921001  0.05763014 -0.05762967       0.006
  -0.05762990 -0.05762994 -0.01920965       0.006
   0.05762997 -0.01921022  0.05762948       0.006
   0.01921021 -0.05763001 -0.05762948       0.006
  -0.05763010 -0.01921002  0.05762967       0.006
   0.01921001 -0.05763020  0.05762961       0.006
  -0.05763016  0.05763014  0.01920985       0.006
   0.01920981  0.05762994  0.05762941       0.006
   0.05762997  0.05763001 -0.01921004       0.006
  -0.05763016  0.01921002  0.05762961       0.006
  -0.05763010  0.05763020 -0.01920985       0.006
  -0.05762990 -0.01920983 -0.05762941       0.006
  -0.00000000  0.03842011 -0.03841976       0.006
  -0.03841996 -0.03841998  0.00000013       0.006
   0.03841996 -0.00000013  0.03841963       0.006
   0.00000013 -0.03841998 -0.03841963       0.006
  -0.03842009  0.00000000  0.03841976       0.006
  -0.03842009  0.03842011 -0.00000000       0.006
  -0.07684004  0.00000013  0.00000013       0.006
  -0.00000013 -0.00000013  0.07683939       0.006
  -0.00000013  0.07684010 -0.00000013       0.006
  -0.09605005 -0.01920989  0.01921004       0.006
   0.01920981  0.01920983  0.09604917       0.006
  -0.01921014  0.09605019 -0.01920998       0.006
  -0.09605012  0.01921016  0.01920998       0.006
   0.01920988  0.09605012 -0.01921004       0.006
  -0.09605005  0.01921022 -0.01920972       0.006
   0.01921021 -0.01920989 -0.09604924       0.006
  -0.09604999 -0.01920983 -0.01920965       0.006
  -0.01921014 -0.01921015  0.09604930       0.006
   0.01921021 -0.09605012 -0.01920972       0.006
   0.01920988 -0.01921022  0.09604924       0.006
   0.01920981  0.09605006  0.01920965       0.006
   0.01921001  0.09605025 -0.09604944       0.006
   0.03842022  0.03842024 -0.15367891       0.006
  -0.03842015  0.11526028 -0.03841983       0.006
  -0.11526019  0.03842018  0.03841983       0.006
  -0.09605018 -0.01921002  0.09604943       0.006
   0.01921001 -0.09605032  0.09604937       0.006
  -0.09605025  0.09605025  0.01920985       0.006
   0.15368021 -0.03842025 -0.03841989       0.006
  -0.03842015 -0.03842018  0.11525922       0.006
  -0.09605025  0.01921002  0.09604937       0.006
  -0.09605018  0.09605032 -0.01920985       0.006
   0.03842022 -0.15368033  0.03841989       0.006
  -0.00000000  0.07684023 -0.07683952       0.006
   0.05763016  0.05763020 -0.13446913       0.006
  -0.05763016  0.13447037 -0.05762967       0.006
  -0.13447027  0.05763020  0.05762967       0.006
  -0.07684017  0.00000000  0.07683952       0.006
  -0.07684017  0.07684023 -0.00000000       0.006
  -0.11526006  0.00000020  0.00000020       0.006
  -0.00000020 -0.00000020  0.11525909       0.006
  -0.00000020  0.11526015 -0.00000020       0.006
  -0.00000000  0.11526034 -0.11525928       0.006
   0.01921021  0.01921022 -0.13446900       0.006
  -0.01921021  0.13447024 -0.01921004       0.006
  -0.13447014  0.01921022  0.01921004       0.006
  -0.11526026  0.00000000  0.11525928       0.006
  -0.11526026  0.11526034 -0.00000000       0.006
  -0.07683998 -0.03841992  0.00000020       0.006
   0.03841989 -0.00000020  0.07683933       0.006
  -0.00000007  0.07684016 -0.03841983       0.006
  -0.07684011  0.00000007  0.03841983       0.006
   0.03841989  0.07684003 -0.00000020       0.006
   0.00000020 -0.03841992 -0.07683933       0.006
  -0.07684011  0.03842018  0.00000006       0.006
   0.03842015  0.00000007 -0.07683946       0.006
  -0.07683998  0.00000020 -0.03841957       0.006
   0.03842015 -0.07684016  0.00000007       0.006
   0.00000020 -0.07684003 -0.03841957       0.006
  -0.00000006 -0.03842018  0.07683946       0.006
   0.03842008  0.07684023 -0.11525928       0.006
  -0.07684024  0.15368039 -0.03841983       0.006
  -0.01921008  0.09605025 -0.05762967       0.006
  -0.09605018  0.01921009  0.05762967       0.006
  -0.07684017 -0.03842011  0.11525928       0.006
  -0.15368028  0.07684029  0.03841983       0.006
  -0.09605012  0.05763027 -0.01920978       0.006
   0.05763023 -0.01920996 -0.09604930       0.006
  -0.01920994 -0.09605019  0.05762974       0.006
   0.03842015 -0.15368039  0.07683959       0.006
   0.05763016 -0.09605025  0.01920991       0.006
   0.11526026 -0.07684023 -0.03841976       0.006
  -0.05763016 -0.01921009  0.09604937       0.006
  -0.11526026  0.03842011  0.07683952       0.006
  -0.03842015 -0.07684029  0.15367898       0.006
   0.01920995 -0.05763027  0.09604931       0.006
   0.09605012  0.01920996 -0.05762974       0.006
  -0.05763023  0.09605019  0.01920978       0.006
   0.15368028 -0.03842018 -0.07683959       0.006
   0.09605018 -0.05763020 -0.01920991       0.006
   0.07684017 -0.11526034  0.03841976       0.006
   0.07684024  0.03842018 -0.15367898       0.006
  -0.03842009  0.11526034 -0.07683952       0.006
   0.01921007  0.05763020 -0.09604937       0.006
   0.01921007  0.09605032 -0.13446913       0.006
  -0.09605025  0.13447037 -0.01920991       0.006
  -0.00000013  0.11526021 -0.03841989       0.006
  -0.11526013  0.00000013  0.03841989       0.006
  -0.09605025 -0.01921009  0.13446913       0.006
  -0.13447027  0.09605032  0.01920991       0.006
  -0.11526013  0.03842025  0.00000013       0.006
   0.03842022  0.00000013 -0.11525915       0.006
   0.01921008 -0.13447037  0.09604944       0.006
   0.03842022 -0.11526021  0.00000013       0.006
  -0.13447027  0.01921009  0.09604943       0.006
  -0.00000013 -0.03842024  0.11525915       0.006
   0.00000006  0.07684029 -0.11525922       0.006
   0.05763023  0.01921015 -0.13446907       0.006
  -0.01921014  0.13447030 -0.05762974       0.006
  -0.13447020  0.01921016  0.05762974       0.006
  -0.07684024 -0.00000006  0.11525922       0.006
  -0.01921014 -0.05763027  0.13446907       0.006
  -0.07684024  0.11526028 -0.00000007       0.006
   0.11526019 -0.00000007 -0.07683959       0.006
   0.05763023 -0.13447030  0.01920998       0.006
   0.11526019 -0.07684029 -0.00000006       0.006
  -0.13447020  0.05763027  0.01920998       0.006
   0.00000007 -0.11526028  0.07683959       0.006
 
 k-points in reciprocal lattice and weights: K-points file                           
   0.00000000  0.00000000  0.00000000       0.003
   0.14285714  0.00000000 -0.00000000       0.006
  -0.14285714 -0.14285714 -0.14285714       0.006
   0.00000000  0.14285714 -0.00000000       0.006
   0.00000000  0.00000000 -0.14285714       0.006
   0.28571429  0.00000000 -0.00000000       0.006
  -0.28571429 -0.28571429 -0.28571429       0.006
   0.00000000  0.28571429 -0.00000000       0.006
   0.00000000  0.00000000 -0.28571429       0.006
   0.42857143 -0.00000000 -0.00000000       0.006
  -0.42857143 -0.42857143 -0.42857143       0.006
   0.00000000  0.42857143 -0.00000000       0.006
   0.00000000 -0.00000000 -0.42857143       0.006
   0.14285714  0.14285714 -0.00000000       0.006
  -0.00000000 -0.14285714 -0.14285714       0.006
  -0.14285714 -0.00000000 -0.14285714       0.006
   0.28571429  0.14285714 -0.00000000       0.006
  -0.14285714 -0.28571429 -0.28571429       0.006
  -0.14285714  0.14285714 -0.14285714       0.006
   0.14285714  0.14285714 -0.14285714       0.006
  -0.28571429 -0.00000000 -0.14285714       0.006
   0.14285714  0.28571429 -0.00000000       0.006
  -0.00000000  0.14285714  0.28571429       0.006
   0.28571429  0.28571429  0.14285714       0.006
   0.14285714 -0.14285714 -0.14285714       0.006
   0.14285714  0.00000000  0.28571429       0.006
  -0.00000000 -0.28571429 -0.14285714       0.006
  -0.28571429 -0.14285714 -0.28571429       0.006
   0.42857143  0.14285714 -0.00000000       0.006
  -0.28571429 -0.42857143 -0.42857143       0.006
  -0.14285714  0.28571429 -0.14285714       0.006
   0.14285714  0.14285714 -0.28571429       0.006
  -0.42857143 -0.00000000 -0.14285714       0.006
   0.14285714  0.42857143 -0.00000000       0.006
  -0.00000000  0.14285714  0.42857143       0.006
   0.42857143  0.42857143  0.28571429       0.006
   0.28571429 -0.14285714 -0.14285714       0.006
   0.14285714 -0.00000000  0.42857143       0.006
  -0.00000000 -0.42857143 -0.14285714       0.006
  -0.42857143 -0.28571429 -0.42857143       0.006
  -0.42857143  0.14285714 -0.00000000       0.006
  -0.42857143  0.42857143  0.42857143       0.006
  -0.14285714  0.42857143 -0.14285714       0.006
   0.14285714  0.14285714 -0.42857143       0.006
   0.42857143  0.00000000 -0.14285714       0.006
   0.14285714 -0.42857143  0.00000000       0.006
   0.00000000  0.14285714 -0.42857143       0.006
  -0.42857143 -0.42857143  0.42857143       0.006
   0.42857143 -0.14285714 -0.14285714       0.006
   0.14285714  0.00000000 -0.42857143       0.006
  -0.00000000  0.42857143 -0.14285714       0.006
   0.42857143 -0.42857143  0.42857143       0.006
  -0.28571429  0.14285714  0.00000000       0.006
   0.42857143  0.28571429  0.28571429       0.006
  -0.14285714 -0.42857143 -0.14285714       0.006
   0.14285714  0.14285714  0.42857143       0.006
   0.28571429  0.00000000 -0.14285714       0.006
   0.14285714 -0.28571429 -0.00000000       0.006
   0.00000000  0.14285714 -0.28571429       0.006
  -0.28571429 -0.28571429 -0.42857143       0.006
  -0.42857143 -0.14285714 -0.14285714       0.006
   0.14285714 -0.00000000 -0.28571429       0.006
   0.00000000  0.28571429 -0.14285714       0.006
   0.28571429  0.42857143  0.28571429       0.006
  -0.14285714  0.14285714  0.00000000       0.006
   0.28571429  0.14285714  0.14285714       0.006
  -0.14285714 -0.28571429 -0.14285714       0.006
   0.14285714  0.14285714  0.28571429       0.006
   0.14285714  0.00000000 -0.14285714       0.006
   0.00000000  0.14285714 -0.14285714       0.006
   0.28571429  0.28571429 -0.00000000       0.006
  -0.00000000 -0.28571429 -0.28571429       0.006
  -0.28571429 -0.00000000 -0.28571429       0.006
   0.42857143  0.28571429 -0.00000000       0.006
  -0.14285714 -0.42857143 -0.42857143       0.006
  -0.28571429  0.14285714 -0.28571429       0.006
   0.28571429  0.28571429 -0.14285714       0.006
  -0.42857143  0.00000000 -0.28571429       0.006
   0.28571429  0.42857143  0.00000000       0.006
   0.00000000  0.28571429  0.42857143       0.006
   0.42857143  0.42857143  0.14285714       0.006
   0.14285714 -0.28571429 -0.28571429       0.006
   0.28571429 -0.00000000  0.42857143       0.006
  -0.00000000 -0.42857143 -0.28571429       0.006
  -0.42857143 -0.14285714 -0.42857143       0.006
  -0.42857143  0.28571429  0.00000000       0.006
  -0.28571429  0.42857143  0.42857143       0.006
  -0.28571429  0.28571429 -0.28571429       0.006
   0.28571429  0.28571429 -0.28571429       0.006
   0.42857143  0.00000000 -0.28571429       0.006
   0.28571429 -0.42857143 -0.00000000       0.006
   0.00000000  0.28571429 -0.42857143       0.006
  -0.42857143 -0.42857143  0.28571429       0.006
   0.28571429 -0.28571429 -0.28571429       0.006
   0.28571429  0.00000000 -0.42857143       0.006
   0.00000000  0.42857143 -0.28571429       0.006
   0.42857143 -0.28571429  0.42857143       0.006
  -0.28571429  0.28571429  0.00000000       0.006
  -0.42857143  0.28571429  0.28571429       0.006
  -0.28571429  0.42857143 -0.28571429       0.006
   0.28571429  0.28571429 -0.42857143       0.006
   0.28571429  0.00000000 -0.28571429       0.006
   0.00000000  0.28571429 -0.28571429       0.006
   0.42857143  0.42857143  0.00000000       0.006
  -0.00000000 -0.42857143 -0.42857143       0.006
  -0.42857143 -0.00000000 -0.42857143       0.006
  -0.42857143  0.42857143  0.00000000       0.006
  -0.14285714  0.42857143  0.42857143       0.006
  -0.42857143  0.14285714 -0.42857143       0.006
   0.42857143  0.42857143 -0.14285714       0.006
   0.42857143 -0.00000000 -0.42857143       0.006
   0.00000000  0.42857143 -0.42857143       0.006
   0.42857143  0.28571429  0.14285714       0.006
  -0.14285714 -0.42857143 -0.28571429       0.006
  -0.28571429  0.14285714 -0.14285714       0.006
   0.28571429  0.14285714 -0.14285714       0.006
  -0.42857143 -0.14285714 -0.28571429       0.006
   0.14285714  0.28571429  0.42857143       0.006
   0.14285714  0.28571429 -0.14285714       0.006
  -0.14285714  0.14285714  0.28571429       0.006
   0.28571429  0.42857143  0.14285714       0.006
   0.14285714 -0.14285714  0.28571429       0.006
   0.28571429  0.14285714  0.42857143       0.006
   0.14285714 -0.28571429 -0.14285714       0.006
  -0.42857143  0.28571429  0.14285714       0.006
  -0.28571429  0.42857143 -0.42857143       0.006
  -0.28571429  0.28571429 -0.14285714       0.006
   0.28571429  0.14285714 -0.28571429       0.006
   0.42857143 -0.14285714 -0.28571429       0.006
   0.28571429  0.42857143 -0.42857143       0.006
   0.14285714  0.42857143 -0.14285714       0.006
  -0.14285714  0.14285714  0.42857143       0.006
   0.42857143 -0.14285714  0.14285714       0.006
   0.42857143 -0.42857143  0.28571429       0.006
   0.14285714 -0.28571429  0.28571429       0.006
  -0.14285714 -0.28571429  0.42857143       0.006
   0.28571429 -0.14285714 -0.28571429       0.006
   0.28571429  0.14285714 -0.42857143       0.006
   0.42857143 -0.42857143 -0.28571429       0.006
   0.14285714 -0.42857143 -0.14285714       0.006
  -0.42857143 -0.14285714  0.14285714       0.006
  -0.14285714  0.14285714 -0.42857143       0.006
  -0.42857143 -0.28571429  0.42857143       0.006
  -0.14285714 -0.28571429  0.28571429       0.006
   0.14285714 -0.42857143  0.28571429       0.006
  -0.42857143  0.28571429  0.42857143       0.006
  -0.28571429  0.42857143 -0.14285714       0.006
  -0.28571429  0.28571429  0.14285714       0.006
  -0.42857143  0.42857143  0.14285714       0.006
  -0.14285714  0.42857143 -0.42857143       0.006
  -0.42857143  0.14285714 -0.28571429       0.006
   0.42857143  0.28571429 -0.14285714       0.006
   0.42857143 -0.14285714 -0.42857143       0.006
   0.14285714  0.42857143 -0.42857143       0.006
   0.28571429  0.42857143 -0.14285714       0.006
  -0.14285714  0.28571429  0.42857143       0.006
   0.42857143 -0.42857143  0.14285714       0.006
   0.28571429 -0.14285714  0.42857143       0.006
   0.42857143  0.14285714 -0.42857143       0.006
   0.14285714 -0.42857143 -0.28571429       0.006
  -0.28571429  0.42857143  0.14285714       0.006
  -0.28571429  0.28571429  0.42857143       0.006
  -0.42857143  0.28571429 -0.28571429       0.006
   0.42857143  0.28571429 -0.28571429       0.006
   0.28571429 -0.14285714 -0.42857143       0.006
   0.28571429 -0.42857143 -0.28571429       0.006
  -0.14285714  0.28571429 -0.42857143       0.006
  -0.42857143 -0.14285714  0.28571429       0.006
   0.28571429 -0.28571429  0.42857143       0.006
  -0.14285714 -0.42857143  0.28571429       0.006
   0.28571429  0.42857143 -0.28571429       0.006
   0.42857143 -0.28571429  0.14285714       0.006
 
 position of ions in fractional coordinates (direct lattice) 
   0.24999983  0.24999984  0.24999978
   0.75000020  0.75000022  0.75000017
   0.49999751  0.49999749  0.50000250
   0.99999964  0.99999964  0.00000036
   0.76135470  0.23864619  0.23864603
   0.76135085  0.23864820  0.76135108
   0.76135261  0.76135261  0.23864667
   0.23864546  0.76135396  0.76135382
   0.23864892  0.76135156  0.23864916
   0.23865028  0.23865029  0.76135043
 
 position of ions in cartesian coordinates  (Angst):
  -1.85915483 -1.85915328 -1.85917035
  -5.57746974 -5.57746559 -5.57751678
  -3.71829350 -3.71830948 -3.71834350
  -7.43660886 -3.71831580 -3.71834984
  -3.71831212 -3.71830884 -1.77474304
  -3.71831188 -5.66187034 -3.71834418
  -5.66188663 -3.71831012 -3.71834415
  -3.71831326 -3.71831009 -5.66194406
  -3.71831061 -1.77474860 -3.71834292
  -1.77475912 -3.71830880 -3.71834294
 


--------------------------------------------------------------------------------------------------------


 k-point   1 :   0.0000 0.0000 0.0000  plane waves:    2733
 k-point   2 :   0.1429 0.0000-0.0000  plane waves:    2755
 k-point   3 :  -0.1429-0.1429-0.1429  plane waves:    2755
 k-point   4 :   0.0000 0.1429-0.0000  plane waves:    2755
 k-point   5 :   0.0000 0.0000-0.1429  plane waves:    2755
 k-point   6 :   0.2857 0.0000-0.0000  plane waves:    2764
 k-point   7 :  -0.2857-0.2857-0.2857  plane waves:    2764
 k-point   8 :   0.0000 0.2857-0.0000  plane waves:    2764
 k-point   9 :   0.0000 0.0000-0.2857  plane waves:    2764
 k-point  10 :   0.4286-0.0000-0.0000  plane waves:    2770
 k-point  11 :  -0.4286-0.4286-0.4286  plane waves:    2770
 k-point  12 :   0.0000 0.4286-0.0000  plane waves:    2770
 k-point  13 :   0.0000-0.0000-0.4286  plane waves:    2770
 k-point  14 :   0.1429 0.1429-0.0000  plane waves:    2758
 k-point  15 :  -0.0000-0.1429-0.1429  plane waves:    2758
 k-point  16 :  -0.1429-0.0000-0.1429  plane waves:    2758
 k-point  17 :   0.2857 0.1429-0.0000  plane waves:    2770
 k-point  18 :  -0.1429-0.2857-0.2857  plane waves:    2770
 k-point  19 :  -0.1429 0.1429-0.1429  plane waves:    2770
 k-point  20 :   0.1429 0.1429-0.1429  plane waves:    2770
 k-point  21 :  -0.2857-0.0000-0.1429  plane waves:    2770
 k-point  22 :   0.1429 0.2857-0.0000  plane waves:    2770
 k-point  23 :  -0.0000 0.1429 0.2857  plane waves:    2770
 k-point  24 :   0.2857 0.2857 0.1429  plane waves:    2770
 k-point  25 :   0.1429-0.1429-0.1429  plane waves:    2770
 k-point  26 :   0.1429 0.0000 0.2857  plane waves:    2770
 k-point  27 :  -0.0000-0.2857-0.1429  plane waves:    2770
 k-point  28 :  -0.2857-0.1429-0.2857  plane waves:    2770
 k-point  29 :   0.4286 0.1429-0.0000  plane waves:    2775
 k-point  30 :  -0.2857-0.4286-0.4286  plane waves:    2775
 k-point  31 :  -0.1429 0.2857-0.1429  plane waves:    2775
 k-point  32 :   0.1429 0.1429-0.2857  plane waves:    2775
 k-point  33 :  -0.4286-0.0000-0.1429  plane waves:    2775
 k-point  34 :   0.1429 0.4286-0.0000  plane waves:    2775
 k-point  35 :  -0.0000 0.1429 0.4286  plane waves:    2775
 k-point  36 :   0.4286 0.4286 0.2857  plane waves:    2775
 k-point  37 :   0.2857-0.1429-0.1429  plane waves:    2775
 k-point  38 :   0.1429-0.0000 0.4286  plane waves:    2775
 k-point  39 :  -0.0000-0.4286-0.1429  plane waves:    2775
 k-point  40 :  -0.4286-0.2857-0.4286  plane waves:    2775
 k-point  41 :  -0.4286 0.1429-0.0000  plane waves:    2771
 k-point  42 :  -0.4286 0.4286 0.4286  plane waves:    2771
 k-point  43 :  -0.1429 0.4286-0.1429  plane waves:    2771
 k-point  44 :   0.1429 0.1429-0.4286  plane waves:    2771
 k-point  45 :   0.4286 0.0000-0.1429  plane waves:    2771
 k-point  46 :   0.1429-0.4286 0.0000  plane waves:    2771
 k-point  47 :   0.0000 0.1429-0.4286  plane waves:    2771
 k-point  48 :  -0.4286-0.4286 0.4286  plane waves:    2771
 k-point  49 :   0.4286-0.1429-0.1429  plane waves:    2771
 k-point  50 :   0.1429 0.0000-0.4286  plane waves:    2771
 k-point  51 :  -0.0000 0.4286-0.1429  plane waves:    2771
 k-point  52 :   0.4286-0.4286 0.4286  plane waves:    2771
 k-point  53 :  -0.2857 0.1429 0.0000  plane waves:    2768
 k-point  54 :   0.4286 0.2857 0.2857  plane waves:    2768
 k-point  55 :  -0.1429-0.4286-0.1429  plane waves:    2768
 k-point  56 :   0.1429 0.1429 0.4286  plane waves:    2768
 k-point  57 :   0.2857 0.0000-0.1429  plane waves:    2768
 k-point  58 :   0.1429-0.2857-0.0000  plane waves:    2768
 k-point  59 :   0.0000 0.1429-0.2857  plane waves:    2768
 k-point  60 :  -0.2857-0.2857-0.4286  plane waves:    2768
 k-point  61 :  -0.4286-0.1429-0.1429  plane waves:    2768
 k-point  62 :   0.1429-0.0000-0.2857  plane waves:    2768
 k-point  63 :   0.0000 0.2857-0.1429  plane waves:    2768
 k-point  64 :   0.2857 0.4286 0.2857  plane waves:    2768
 k-point  65 :  -0.1429 0.1429 0.0000  plane waves:    2766
 k-point  66 :   0.2857 0.1429 0.1429  plane waves:    2766
 k-point  67 :  -0.1429-0.2857-0.1429  plane waves:    2766
 k-point  68 :   0.1429 0.1429 0.2857  plane waves:    2766
 k-point  69 :   0.1429 0.0000-0.1429  plane waves:    2766
 k-point  70 :   0.0000 0.1429-0.1429  plane waves:    2766
 k-point  71 :   0.2857 0.2857-0.0000  plane waves:    2786
 k-point  72 :  -0.0000-0.2857-0.2857  plane waves:    2786
 k-point  73 :  -0.2857-0.0000-0.2857  plane waves:    2786
 k-point  74 :   0.4286 0.2857-0.0000  plane waves:    2764
 k-point  75 :  -0.1429-0.4286-0.4286  plane waves:    2764
 k-point  76 :  -0.2857 0.1429-0.2857  plane waves:    2764
 k-point  77 :   0.2857 0.2857-0.1429  plane waves:    2764
 k-point  78 :  -0.4286 0.0000-0.2857  plane waves:    2764
 k-point  79 :   0.2857 0.4286 0.0000  plane waves:    2764
 k-point  80 :   0.0000 0.2857 0.4286  plane waves:    2764
 k-point  81 :   0.4286 0.4286 0.1429  plane waves:    2764
 k-point  82 :   0.1429-0.2857-0.2857  plane waves:    2764
 k-point  83 :   0.2857-0.0000 0.4286  plane waves:    2764
 k-point  84 :  -0.0000-0.4286-0.2857  plane waves:    2764
 k-point  85 :  -0.4286-0.1429-0.4286  plane waves:    2764
 k-point  86 :  -0.4286 0.2857 0.0000  plane waves:    2774
 k-point  87 :  -0.2857 0.4286 0.4286  plane waves:    2774
 k-point  88 :  -0.2857 0.2857-0.2857  plane waves:    2774
 k-point  89 :   0.2857 0.2857-0.2857  plane waves:    2774
 k-point  90 :   0.4286 0.0000-0.2857  plane waves:    2774
 k-point  91 :   0.2857-0.4286-0.0000  plane waves:    2774
 k-point  92 :   0.0000 0.2857-0.4286  plane waves:    2774
 k-point  93 :  -0.4286-0.4286 0.2857  plane waves:    2774
 k-point  94 :   0.2857-0.2857-0.2857  plane waves:    2774
 k-point  95 :   0.2857 0.0000-0.4286  plane waves:    2774
 k-point  96 :   0.0000 0.4286-0.2857  plane waves:    2774
 k-point  97 :   0.4286-0.2857 0.4286  plane waves:    2774
 k-point  98 :  -0.2857 0.2857 0.0000  plane waves:    2774
 k-point  99 :  -0.4286 0.2857 0.2857  plane waves:    2774
 k-point 100 :  -0.2857 0.4286-0.2857  plane waves:    2774
 k-point 101 :   0.2857 0.2857-0.4286  plane waves:    2774
 k-point 102 :   0.2857 0.0000-0.2857  plane waves:    2774
 k-point 103 :   0.0000 0.2857-0.2857  plane waves:    2774
 k-point 104 :   0.4286 0.4286 0.0000  plane waves:    2774
 k-point 105 :  -0.0000-0.4286-0.4286  plane waves:    2774
 k-point 106 :  -0.4286-0.0000-0.4286  plane waves:    2774
 k-point 107 :  -0.4286 0.4286 0.0000  plane waves:    2784
 k-point 108 :  -0.1429 0.4286 0.4286  plane waves:    2784
 k-point 109 :  -0.4286 0.1429-0.4286  plane waves:    2784
 k-point 110 :   0.4286 0.4286-0.1429  plane waves:    2784
 k-point 111 :   0.4286-0.0000-0.4286  plane waves:    2784
 k-point 112 :   0.0000 0.4286-0.4286  plane waves:    2784
 k-point 113 :   0.4286 0.2857 0.1429  plane waves:    2764
 k-point 114 :  -0.1429-0.4286-0.2857  plane waves:    2764
 k-point 115 :  -0.2857 0.1429-0.1429  plane waves:    2764
 k-point 116 :   0.2857 0.1429-0.1429  plane waves:    2764
 k-point 117 :  -0.4286-0.1429-0.2857  plane waves:    2764
 k-point 118 :   0.1429 0.2857 0.4286  plane waves:    2764
 k-point 119 :   0.1429 0.2857-0.1429  plane waves:    2764
 k-point 120 :  -0.1429 0.1429 0.2857  plane waves:    2764
 k-point 121 :   0.2857 0.4286 0.1429  plane waves:    2764
 k-point 122 :   0.1429-0.1429 0.2857  plane waves:    2764
 k-point 123 :   0.2857 0.1429 0.4286  plane waves:    2764
 k-point 124 :   0.1429-0.2857-0.1429  plane waves:    2764
 k-point 125 :  -0.4286 0.2857 0.1429  plane waves:    2764
 k-point 126 :  -0.2857 0.4286-0.4286  plane waves:    2764
 k-point 127 :  -0.2857 0.2857-0.1429  plane waves:    2764
 k-point 128 :   0.2857 0.1429-0.2857  plane waves:    2764
 k-point 129 :   0.4286-0.1429-0.2857  plane waves:    2764
 k-point 130 :   0.2857 0.4286-0.4286  plane waves:    2764
 k-point 131 :   0.1429 0.4286-0.1429  plane waves:    2764
 k-point 132 :  -0.1429 0.1429 0.4286  plane waves:    2764
 k-point 133 :   0.4286-0.1429 0.1429  plane waves:    2764
 k-point 134 :   0.4286-0.4286 0.2857  plane waves:    2764
 k-point 135 :   0.1429-0.2857 0.2857  plane waves:    2764
 k-point 136 :  -0.1429-0.2857 0.4286  plane waves:    2764
 k-point 137 :   0.2857-0.1429-0.2857  plane waves:    2764
 k-point 138 :   0.2857 0.1429-0.4286  plane waves:    2764
 k-point 139 :   0.4286-0.4286-0.2857  plane waves:    2764
 k-point 140 :   0.1429-0.4286-0.1429  plane waves:    2764
 k-point 141 :  -0.4286-0.1429 0.1429  plane waves:    2764
 k-point 142 :  -0.1429 0.1429-0.4286  plane waves:    2764
 k-point 143 :  -0.4286-0.2857 0.4286  plane waves:    2764
 k-point 144 :  -0.1429-0.2857 0.2857  plane waves:    2764
 k-point 145 :   0.1429-0.4286 0.2857  plane waves:    2764
 k-point 146 :  -0.4286 0.2857 0.4286  plane waves:    2764
 k-point 147 :  -0.2857 0.4286-0.1429  plane waves:    2764
 k-point 148 :  -0.2857 0.2857 0.1429  plane waves:    2764
 k-point 149 :  -0.4286 0.4286 0.1429  plane waves:    2761
 k-point 150 :  -0.1429 0.4286-0.4286  plane waves:    2761
 k-point 151 :  -0.4286 0.1429-0.2857  plane waves:    2761
 k-point 152 :   0.4286 0.2857-0.1429  plane waves:    2761
 k-point 153 :   0.4286-0.1429-0.4286  plane waves:    2761
 k-point 154 :   0.1429 0.4286-0.4286  plane waves:    2761
 k-point 155 :   0.2857 0.4286-0.1429  plane waves:    2761
 k-point 156 :  -0.1429 0.2857 0.4286  plane waves:    2761
 k-point 157 :   0.4286-0.4286 0.1429  plane waves:    2761
 k-point 158 :   0.2857-0.1429 0.4286  plane waves:    2761
 k-point 159 :   0.4286 0.1429-0.4286  plane waves:    2761
 k-point 160 :   0.1429-0.4286-0.2857  plane waves:    2761
 k-point 161 :  -0.2857 0.4286 0.1429  plane waves:    2772
 k-point 162 :  -0.2857 0.2857 0.4286  plane waves:    2772
 k-point 163 :  -0.4286 0.2857-0.2857  plane waves:    2772
 k-point 164 :   0.4286 0.2857-0.2857  plane waves:    2772
 k-point 165 :   0.2857-0.1429-0.4286  plane waves:    2772
 k-point 166 :   0.2857-0.4286-0.2857  plane waves:    2772
 k-point 167 :  -0.1429 0.2857-0.4286  plane waves:    2772
 k-point 168 :  -0.4286-0.1429 0.2857  plane waves:    2772
 k-point 169 :   0.2857-0.2857 0.4286  plane waves:    2772
 k-point 170 :  -0.1429-0.4286 0.2857  plane waves:    2772
 k-point 171 :   0.2857 0.4286-0.2857  plane waves:    2772
 k-point 172 :   0.4286-0.2857 0.1429  plane waves:    2772

 maximum and minimum number of plane-waves per node :       713      672

 maximum number of plane-waves:      2786
 maximum index in each direction: 
   IXMAX=   10   IYMAX=   10   IZMAX=   10
   IXMIN=  -10   IYMIN=  -10   IZMIN=  -10


 real space projection operators:
  total allocation   :       5681.45 KBytes
  max/ min on nodes  :       1421.27       1418.19


 parallel 3D FFT for wavefunctions:
    minimum data exchange during FFTs selected (reduces bandwidth)
 parallel 3D FFT for charge:
    minimum data exchange during FFTs selected (reduces bandwidth)


 total amount of memory used by VASP MPI-rank0    69059. kBytes
=======================================================================

   base      :      30000. kBytes
   nonlr-proj:       3506. kBytes
   fftplans  :       1320. kBytes
   grid      :       5244. kBytes
   one-center:         93. kBytes
   wavefun   :      28896. kBytes
 
     INWAV:  cpu time    0.0001: real time    0.0003
 Broyden mixing: mesh for mixing (old mesh)
   NGX = 19   NGY = 19   NGZ = 19
  (NGX  = 80   NGY  = 80   NGZ  = 80)
  gives a total of   6859 points

 initial charge density was supplied:
 number of electron      70.0000003 magnetization       0.0000000
[...]
     14     -13.5363      1.00000
     15     -13.5273      1.00000
     16     -13.2455      1.00000
     17     -12.9130      1.00000
     18      -2.8825      1.00000
     19      -1.1542      1.00000
     20      -0.4293      1.00000
     21      -0.1174      1.00000
     22       0.0944      1.00000
     23       0.4560      1.00000
     24       0.8546      1.00000
     25       1.4745      1.00000
     26       1.5237      1.00000
     27       1.9419      1.00000
     28       2.3057      1.00000
     29       2.4378      1.00000
     30       2.5744      1.00000
     31       2.7344      1.00000
     32       2.7969      1.00000
     33       3.2590      1.00000
     34       3.7828      1.00000
     35       4.1523      1.00000
     36       8.3516      0.00000
     37       8.5448      0.00000
     38       8.8305      0.00000
     39       9.8150      0.00000
     40      10.6692      0.00000
     41      11.9725      0.00000
     42      12.0419      0.00000

 k-point   172 :       0.4286   -0.2857    0.1429
  band No.  band energies     occupation 
      1     -35.7077      1.00000
      2     -35.7062      1.00000
      3     -30.3983      1.00000
      4     -30.3962      1.00000
      5     -30.3960      1.00000
      6     -16.5029      1.00000
      7     -16.2517      1.00000
      8     -16.0108      1.00000
      9     -15.9242      1.00000
     10     -15.7770      1.00000
     11     -15.7617      1.00000
     12     -14.6487      1.00000
     13     -13.6200      1.00000
     14     -13.5363      1.00000
     15     -13.5273      1.00000
     16     -13.2455      1.00000
     17     -12.9130      1.00000
     18      -2.8825      1.00000
     19      -1.1539      1.00000
     20      -0.4295      1.00000
     21      -0.1174      1.00000
     22       0.0944      1.00000
     23       0.4561      1.00000
     24       0.8544      1.00000
     25       1.4746      1.00000
     26       1.5238      1.00000
     27       1.9418      1.00000
     28       2.3057      1.00000
     29       2.4378      1.00000
     30       2.5745      1.00000
     31       2.7344      1.00000
     32       2.7970      1.00000
     33       3.2589      1.00000
     34       3.7828      1.00000
     35       4.1522      1.00000
     36       8.3516      0.00000
     37       8.5445      0.00000
     38       8.8308      0.00000
     39       9.8160      0.00000
     40      10.6682      0.00000
     41      11.9727      0.00000
     42      12.0421      0.00000


--------------------------------------------------------------------------------------------------------


 soft charge-density along one line, spin component           1
         0         1         2         3         4         5         6         7         8         9
 total charge-density along one line
 
 soft charge-density along one line, spin component           2
         0         1         2         3         4         5         6         7         8         9
 total charge-density along one line
 
 pseudopotential strength for first ion, spin component:           1
-17.909  -4.939  -0.000   0.000   0.000  -0.000  -0.000  -0.000
 -4.939  -1.857   0.000   0.000   0.000   0.000   0.000   0.000
 -0.000   0.000 -18.952   0.000   0.000   5.896  -0.000  -0.000
  0.000   0.000   0.000 -18.952   0.000  -0.000   5.896  -0.000
  0.000   0.000   0.000   0.000 -18.952  -0.000  -0.000   5.896
 -0.000   0.000   5.896  -0.000  -0.000   9.320  -0.000   0.000
 -0.000   0.000  -0.000   5.896  -0.000  -0.000   9.320   0.000
 -0.000   0.000  -0.000  -0.000   5.896   0.000   0.000   9.320
  0.000   0.000   0.000   0.001  -0.000   0.000  -0.001   0.000
  0.000   0.000  -0.000  -0.000   0.001   0.000   0.000  -0.001
  0.000  -0.000  -0.000   0.000  -0.000  -0.000  -0.000   0.000
  0.000   0.000   0.001   0.000  -0.000  -0.001   0.000   0.000
  0.000  -0.000  -0.000   0.000   0.000  -0.000  -0.000  -0.000
  0.000   0.000   0.000   0.002  -0.000  -0.000  -0.002   0.000
  0.000   0.000  -0.000  -0.000   0.002  -0.000   0.000  -0.002
  0.000  -0.000  -0.000   0.000  -0.000   0.000  -0.000   0.000
  0.000   0.000   0.002   0.000  -0.000  -0.002  -0.000  -0.000
  0.000  -0.000  -0.000   0.000   0.000   0.000  -0.000  -0.000
 pseudopotential strength for first ion, spin component:           2
-17.909  -4.939  -0.000  -0.000   0.000  -0.000  -0.000  -0.000
 -4.939  -1.857   0.000   0.000   0.000   0.000   0.000   0.000
 -0.000   0.000 -18.952   0.000   0.000   5.896  -0.000  -0.000
 -0.000   0.000   0.000 -18.952   0.000  -0.000   5.896  -0.000
  0.000   0.000   0.000   0.000 -18.952  -0.000  -0.000   5.896
 -0.000   0.000   5.896  -0.000  -0.000   9.320  -0.000   0.000
 -0.000   0.000  -0.000   5.896  -0.000  -0.000   9.320   0.000
 -0.000   0.000  -0.000  -0.000   5.896   0.000   0.000   9.320
  0.000   0.000   0.000   0.001  -0.000   0.000  -0.001   0.000
  0.000   0.000  -0.000  -0.000   0.001   0.000   0.000  -0.001
  0.000  -0.000  -0.000   0.000  -0.000  -0.000   0.000   0.000
  0.000   0.000   0.001   0.000  -0.000  -0.001   0.000   0.000
 -0.000  -0.000  -0.000   0.000   0.000  -0.000   0.000  -0.000
  0.000   0.000   0.000   0.002  -0.000  -0.000  -0.002   0.000
  0.000   0.000  -0.000  -0.000   0.002   0.000   0.000  -0.002
  0.000  -0.000  -0.000   0.000  -0.000   0.000  -0.000   0.000
  0.000   0.000   0.002   0.000  -0.000  -0.002  -0.000   0.000
 -0.000  -0.000  -0.000   0.000   0.000   0.000  -0.000  -0.000
 total augmentation occupancy for first ion, spin component:           1
  2.003   0.008  -0.000   0.000  -0.000   0.000   0.000   0.000   0.000   0.000   0.000   0.000   0.000  -0.000  -0.000  -0.000
  0.008   0.357   0.000   0.000  -0.000   0.000   0.000   0.000   0.000  -0.000  -0.000   0.000  -0.000   0.000   0.000   0.000
 -0.000   0.000   2.006   0.000   0.000  -0.002   0.000   0.000   0.000   0.000   0.000  -0.002   0.000  -0.000  -0.000  -0.000
  0.000   0.000   0.000   2.006   0.000   0.000  -0.002   0.000  -0.002   0.000  -0.000   0.000   0.000   0.001  -0.000   0.000
 -0.000  -0.000   0.000   0.000   2.006   0.000   0.000  -0.002   0.000  -0.002   0.000   0.000  -0.000  -0.000   0.001  -0.000
  0.000   0.000  -0.002   0.000   0.000   0.024  -0.000   0.000   0.000   0.000  -0.000  -0.001  -0.000  -0.000  -0.000   0.000
  0.000   0.000   0.000  -0.002   0.000  -0.000   0.024   0.000  -0.001   0.000   0.000   0.000   0.000   0.000  -0.000  -0.000
  0.000   0.000   0.000   0.000  -0.002   0.000   0.000   0.024   0.000  -0.001  -0.000   0.000   0.000  -0.000   0.000   0.000
  0.000   0.000   0.000  -0.002   0.000   0.000  -0.001   0.000   0.276   0.000   0.000   0.000  -0.000  -0.153  -0.000  -0.000
  0.000  -0.000   0.000   0.000  -0.002   0.000   0.000  -0.001   0.000   0.275  -0.000   0.000   0.000  -0.000  -0.153   0.000
  0.000  -0.000   0.000  -0.000   0.000  -0.000   0.000  -0.000   0.000  -0.000   0.185  -0.000  -0.000  -0.000   0.000  -0.101
  0.000   0.000  -0.002   0.000   0.000  -0.001   0.000   0.000   0.000   0.000  -0.000   0.275  -0.000  -0.000  -0.000   0.000
  0.000  -0.000   0.000   0.000  -0.000  -0.000   0.000   0.000  -0.000   0.000  -0.000  -0.000   0.185   0.000  -0.000   0.000
 -0.000   0.000  -0.000   0.001  -0.000  -0.000   0.000  -0.000  -0.153  -0.000  -0.000  -0.000   0.000   0.086   0.000   0.000
 -0.000   0.000  -0.000  -0.000   0.001  -0.000  -0.000   0.000  -0.000  -0.153   0.000  -0.000  -0.000   0.000   0.086  -0.000
 -0.000   0.000  -0.000   0.000  -0.000   0.000  -0.000   0.000  -0.000   0.000  -0.101   0.000   0.000   0.000  -0.000   0.056
 -0.000   0.000   0.001  -0.000  -0.000   0.000  -0.000  -0.000  -0.000  -0.000   0.000  -0.153   0.000   0.000   0.000  -0.000
 -0.000   0.000  -0.000  -0.000   0.000   0.000  -0.000  -0.000   0.000  -0.000   0.000   0.000  -0.101   0.000   0.000  -0.000
 total augmentation occupancy for first ion, spin component:           2
 -0.000  -0.000   0.000  -0.000  -0.000   0.000  -0.000   0.000   0.000  -0.000  -0.000   0.000   0.000  -0.000   0.000   0.000
 -0.000   0.000  -0.000  -0.000   0.000  -0.000  -0.000   0.000  -0.000  -0.000   0.000  -0.000  -0.000  -0.000   0.000   0.000
  0.000  -0.000  -0.000   0.000   0.000  -0.000   0.000   0.000  -0.000   0.000  -0.000  -0.000  -0.000   0.000  -0.000   0.000
 -0.000  -0.000   0.000  -0.000   0.000  -0.000  -0.000   0.000  -0.000   0.000   0.000   0.000   0.000   0.000  -0.000  -0.000
 -0.000   0.000   0.000   0.000  -0.000   0.000  -0.000  -0.000   0.000  -0.000   0.000   0.000  -0.000  -0.000   0.000  -0.000
  0.000  -0.000  -0.000  -0.000   0.000   0.000   0.000  -0.000   0.000  -0.000  -0.000  -0.000  -0.000  -0.000   0.000   0.000
 -0.000  -0.000   0.000  -0.000  -0.000   0.000  -0.000  -0.000   0.000  -0.000   0.000   0.000   0.000  -0.000   0.000  -0.000
  0.000   0.000   0.000   0.000  -0.000  -0.000  -0.000   0.000   0.000   0.000  -0.000  -0.000   0.000  -0.000  -0.000   0.000
  0.000  -0.000  -0.000  -0.000   0.000   0.000   0.000   0.000  -0.000  -0.000  -0.000   0.000   0.000   0.000   0.000   0.000
 -0.000  -0.000   0.000   0.000  -0.000  -0.000  -0.000   0.000  -0.000  -0.000   0.000   0.000  -0.000   0.000   0.000   0.000
 -0.000   0.000  -0.000   0.000   0.000  -0.000   0.000  -0.000  -0.000   0.000  -0.000  -0.000  -0.000   0.000   0.000  -0.000
  0.000  -0.000  -0.000   0.000   0.000  -0.000   0.000  -0.000   0.000   0.000  -0.000  -0.000   0.000  -0.000  -0.000  -0.000
  0.000  -0.000  -0.000   0.000  -0.000  -0.000   0.000   0.000   0.000  -0.000  -0.000   0.000  -0.000   0.000   0.000   0.000
 -0.000  -0.000   0.000   0.000  -0.000  -0.000  -0.000  -0.000   0.000   0.000   0.000  -0.000   0.000   0.000  -0.000  -0.000
  0.000   0.000  -0.000  -0.000   0.000   0.000   0.000  -0.000   0.000   0.000   0.000  -0.000   0.000  -0.000   0.000  -0.000
  0.000   0.000   0.000  -0.000  -0.000   0.000  -0.000   0.000   0.000   0.000  -0.000  -0.000   0.000  -0.000  -0.000   0.000
 -0.000  -0.000   0.000   0.000  -0.000   0.000  -0.000  -0.000  -0.000  -0.000  -0.000   0.000  -0.000   0.000   0.000   0.000
 -0.000   0.000   0.000  -0.000   0.000   0.000  -0.000  -0.000   0.000   0.000   0.000  -0.000  -0.000  -0.000  -0.000  -0.000


------------------------ aborting loop because EDIFF is reached ----------------------------------------


 


 total charge     
 
# of ion       s       p       d       tot
------------------------------------------
    1        2.015   5.858   0.210   8.083
    2        2.015   5.858   0.210   8.083
    3        0.360   6.513   1.834   8.706
    4        0.569   0.862   0.000   1.432
    5        1.568   3.599   0.000   5.166
    6        1.568   3.599   0.000   5.166
    7        1.568   3.599   0.000   5.166
    8        1.568   3.599   0.000   5.166
    9        1.568   3.599   0.000   5.166
   10        1.568   3.599   0.000   5.166
--------------------------------------------------
tot         14.365  40.683   2.254  57.301
 


 magnetization (x)
 
# of ion       s       p       d       tot
------------------------------------------
    1        0.000  -0.000  -0.000  -0.000
    2       -0.000  -0.000  -0.000  -0.000
    3       -0.000  -0.000  -0.000  -0.000
    4       -0.000  -0.000   0.000  -0.000
    5        0.000   0.000   0.000   0.000
    6        0.000   0.000   0.000   0.000
    7        0.000   0.000   0.000   0.000
    8        0.000   0.000   0.000   0.000
    9        0.000   0.000   0.000   0.000
   10        0.000   0.000   0.000   0.000
--------------------------------------------------
tot          0.000   0.000  -0.000   0.000
 
    CHARGE:  cpu time    0.3856: real time    0.3856
    FORLOC:  cpu time    0.0019: real time    0.0019
    FORNL :  cpu time    2.9897: real time    2.9898
    STRESS:  cpu time   55.5993: real time   55.6014
    FORCOR:  cpu time    0.0530: real time    0.0530
    FORHAR:  cpu time    0.0039: real time    0.0039
    MIXING:  cpu time    0.0008: real time    0.0008
    OFIELD:  cpu time    0.0000: real time    0.0000

  FORCE on cell =-STRESS in cart. coord.  units (eV):
  Direction    XX          YY          ZZ          XY          YZ          ZX
  --------------------------------------------------------------------------------------
  Alpha Z   347.43608   347.43608   347.43608
  Ewald   -1584.58946 -1584.58749 -1584.61352    -0.00244    -0.00244    -0.00244
  Hartree   381.97116   381.97198   381.96082    -0.00176    -0.00175    -0.00175
  E(xc)    -351.97011  -351.97009  -351.97040     0.00021     0.00021     0.00021
  Local      86.25851    86.25582    86.29151     0.00433     0.00431     0.00432
  n-local  -201.71130  -201.71157  -201.70516    -0.00001    -0.00001    -0.00001
  augment   151.93063   151.93046   151.93296     0.00049     0.00049     0.00049
  Kinetic  1170.81684  1170.81707  1170.81332    -0.00093    -0.00093    -0.00093
  Fock        0.00000     0.00000     0.00000     0.00000     0.00000     0.00000
  -------------------------------------------------------------------------------------
  Total       0.14236     0.14224     0.14561    -0.00011    -0.00011    -0.00011
  in kB       2.21830     2.21655     2.26898    -0.00167    -0.00167    -0.00168
  external pressure =        2.23 kB  Pullay stress =        0.00 kB


 VOLUME and BASIS-vectors are now :
 -----------------------------------------------------------------------------
  energy-cutoff  :      520.00
  volume of cell :      102.82
      direct lattice vectors                 reciprocal lattice vectors
    -3.718305810 -3.718303130 -0.000012627    -0.134470071 -0.134470169  0.134469392
    -3.718305754 -0.000012684 -3.718337217    -0.134470075  0.134470629 -0.134468936
    -0.000012654 -3.718303103 -3.718337247     0.134470531 -0.134470171 -0.134468934

  length of vectors
     5.258476611  5.258500674  5.258498821     0.232908660  0.232908665  0.232908662


 FORCES acting on ions
    electron-ion (+dipol)            ewald-force                    non-local-force                 convergence-correction
 -----------------------------------------------------------------------------------------------
   0.179E-03 0.222E-02 0.220E-02   -.715E-04 -.215E-02 -.212E-02   -.708E-04 -.703E-04 -.692E-04   0.888E-05 0.158E-04 0.129E-04
   -.423E-02 -.221E-02 -.222E-02   0.417E-02 0.213E-02 0.214E-02   0.645E-04 0.675E-04 0.666E-04   -.116E-04 -.131E-04 -.931E-05
   0.877E-02 -.190E-05 0.217E-04   -.120E-01 0.308E-05 -.201E-04   0.339E-02 -.181E-05 -.347E-05   0.163E-05 -.199E-06 -.242E-05
   0.441E-02 0.497E-05 0.154E-05   -.286E-02 -.440E-05 -.599E-06   -.127E-02 -.130E-05 -.508E-06   -.284E-08 0.183E-06 0.611E-07
   0.105E-02 -.142E-02 -.517E+02   -.120E-02 0.124E-02 0.464E+02   0.253E-04 0.158E-03 0.526E+01   -.791E-05 -.563E-05 -.283E-03
   0.377E-02 0.517E+02 0.143E-02   -.373E-02 -.465E+02 -.125E-02   -.719E-04 -.526E+01 -.158E-03   0.583E-05 0.282E-03 0.520E-05
   0.517E+02 0.142E-02 0.143E-02   -.464E+02 -.125E-02 -.126E-02   -.526E+01 -.156E-03 -.158E-03   0.281E-03 0.708E-05 0.849E-05
   0.391E-02 0.142E-02 0.517E+02   -.370E-02 -.124E-02 -.464E+02   -.294E-03 -.159E-03 -.526E+01   0.778E-05 0.685E-05 0.283E-03
   0.917E-03 -.517E+02 -.141E-02   -.123E-02 0.465E+02 0.123E-02   0.245E-03 0.526E+01 0.159E-03   -.664E-05 -.282E-03 -.614E-05
   -.517E+02 -.143E-02 -.142E-02   0.465E+02 0.125E-02 0.124E-02   0.526E+01 0.156E-03 0.160E-03   -.281E-03 -.844E-05 -.937E-05
 -----------------------------------------------------------------------------------------------
   0.110E-02 0.232E-05 0.180E-05   0.000E+00 -.302E-13 0.340E-13   -.129E-02 -.760E-05 -.728E-05   -.242E-05 0.213E-05 -.302E-06
 
 
 POSITION                                       TOTAL-FORCE (eV/Angst)
 -----------------------------------------------------------------------------------
     -1.85915     -1.85915     -1.85917         0.000065      0.000024      0.000023
     -5.57747     -5.57747     -5.57752         0.000016     -0.000025     -0.000023
     -3.71829     -3.71831     -3.71834         0.000149     -0.000000     -0.000003
     -7.43661     -3.71832     -3.71835         0.000254     -0.000000      0.000001
     -3.71831     -3.71831     -1.77474        -0.000112     -0.000029      0.009772
     -3.71831     -5.66187     -3.71834         0.000002     -0.008995      0.000030
     -5.66189     -3.71831     -3.71834        -0.009139      0.000030      0.000029
     -3.71831     -3.71831     -5.66194        -0.000055      0.000030     -0.009771
     -3.71831     -1.77475     -3.71834        -0.000056      0.008996     -0.000029
     -1.77476     -3.71831     -3.71834         0.008876     -0.000030     -0.000028
 -----------------------------------------------------------------------------------
    total drift:                               -0.000194     -0.000003     -0.000006


--------------------------------------------------------------------------------------------------------



  FREE ENERGIE OF THE ION-ELECTRON SYSTEM (eV)
  ---------------------------------------------------
  free  energy   TOTEN  =      -113.88151966 eV

  energy  without entropy=     -113.88151966  energy(sigma->0) =     -113.88151966
 


--------------------------------------------------------------------------------------------------------


    POTLOK:  cpu time    1.3097: real time    1.3097


--------------------------------------------------------------------------------------------------------




--------------------------------------------------------------------------------------------------------


  
 reached required accuracy - stopping structural energy minimisation
     LOOP+:  cpu time  572.4051: real time  572.4496
    4ORBIT:  cpu time    0.0000: real time    0.0000
 


 total charge     
 
# of ion       s       p       d       tot
------------------------------------------
    1        2.015   5.858   0.210   8.083
    2        2.015   5.858   0.210   8.083
    3        0.360   6.513   1.834   8.706
    4        0.569   0.862   0.000   1.432
    5        1.568   3.599   0.000   5.166
    6        1.568   3.599   0.000   5.166
    7        1.568   3.599   0.000   5.166
    8        1.568   3.599   0.000   5.166
    9        1.568   3.599   0.000   5.166
   10        1.568   3.599   0.000   5.166
--------------------------------------------------
tot         14.365  40.683   2.254  57.301
 


 magnetization (x)
 
# of ion       s       p       d       tot
------------------------------------------
    1        0.000  -0.000  -0.000  -0.000
    2       -0.000  -0.000  -0.000  -0.000
    3       -0.000  -0.000  -0.000  -0.000
    4       -0.000  -0.000   0.000  -0.000
    5        0.000   0.000   0.000   0.000
    6        0.000   0.000   0.000   0.000
    7        0.000   0.000   0.000   0.000
    8        0.000   0.000   0.000   0.000
    9        0.000   0.000   0.000   0.000
   10        0.000   0.000   0.000   0.000
--------------------------------------------------
tot          0.000   0.000  -0.000   0.000
 

 total amount of memory used by VASP MPI-rank0    69059. kBytes
=======================================================================

   base      :      30000. kBytes
   nonlr-proj:       3506. kBytes
   fftplans  :       1320. kBytes
   grid      :       5244. kBytes
   one-center:         93. kBytes
   wavefun   :      28896. kBytes
 
  
  
 General timing and accounting informations for this job:
 ========================================================
  
                  Total CPU time used (sec):      579.843
                            User time (sec):      577.403
                          System time (sec):        2.440
                         Elapsed time (sec):      580.205
  
                   Maximum memory used (kb):      103728.
                   Average memory used (kb):           0.
  
                          Minor page faults:        23633
                          Major page faults:           16
                 Voluntary context switches:          461
