       N       E                     dE             d eps       ncg     rms          ort
DAV:   1     0.254910240781E+04    0.25491E+04   -0.13534E+05  9576   0.165E+03
DAV:   2    -0.117721258835E+02   -0.25609E+04   -0.23552E+04  9576   0.434E+02
DAV:   3    -0.304878675282E+03   -0.29311E+03   -0.28821E+03  9576   0.161E+02
DAV:   4    -0.313801376514E+03   -0.89227E+01   -0.88408E+01  9576   0.284E+01
DAV:   5    -0.314161816635E+03   -0.36044E+00   -0.35995E+00  9576   0.442E+00
SDA:   6    -0.946687758370E+02    0.21949E+03   -0.35995E+00  9576   0.989E+03 0.000E+00
CGA:   7    -0.226263276493E+03   -0.13159E+03   -0.13282E+03  9576   0.105E+03 0.220E+02
CGA:   8    -0.246874376089E+03   -0.20611E+02   -0.20556E+02  9576   0.420E+02-0.442E+01
CGA:   9    -0.254404539044E+03   -0.75302E+01   -0.75286E+01  9576   0.204E+02-0.307E-01
CGA:  10    -0.258080832899E+03   -0.36763E+01   -0.36785E+01  9576   0.687E+01 0.670E-01
CGA:  11    -0.259379428559E+03   -0.12986E+01   -0.12986E+01  9576   0.215E+01 0.494E-02
CGA:  12    -0.259801140388E+03   -0.42171E+00   -0.42172E+00  9576   0.862E+00-0.958E-03
CGA:  13    -0.259995853588E+03   -0.19471E+00   -0.19468E+00  9576   0.372E+00 0.752E-03
CGA:  14    -0.260091090720E+03   -0.95237E-01   -0.95279E-01  9576   0.184E+00-0.592E-03
CGA:  15    -0.260138549117E+03   -0.47458E-01   -0.47552E-01  9576   0.984E-01-0.124E-02
CGA:  16    -0.260164815526E+03   -0.26266E-01   -0.26262E-01  9576   0.462E-01 0.149E-04
CGA:  17    -0.260178322083E+03   -0.13507E-01   -0.13535E-01  9576   0.236E-01-0.261E-03
CGA:  18    -0.260184701633E+03   -0.63796E-02   -0.63974E-02  9576   0.105E-01-0.209E-03
CGA:  19    -0.260187481207E+03   -0.27796E-02   -0.27796E-02  9576   0.437E-02-0.153E-05
CGA:  20    -0.260188778219E+03   -0.12970E-02   -0.12982E-02  9576   0.169E-02-0.124E-04
CGA:  21    -0.260189256996E+03   -0.47878E-03   -0.47906E-03  9576   0.824E-03-0.401E-05
CGA:  22    -0.260189482437E+03   -0.22544E-03   -0.22548E-03  9576   0.364E-03-0.345E-06
CGA:  23    -0.260189590408E+03   -0.10797E-03   -0.10776E-03  9576   0.161E-03 0.299E-05
CGA:  24    -0.260189643534E+03   -0.53127E-04   -0.52847E-04  9576   0.826E-04 0.290E-05
CGA:  25    -0.260189668893E+03   -0.25359E-04   -0.25319E-04  9576   0.472E-04 0.624E-06
CGA:  26    -0.260189684726E+03   -0.15833E-04   -0.15879E-04  9576   0.250E-04-0.479E-06
CGA:  27    -0.260189693295E+03   -0.85687E-05   -0.86578E-05  9576   0.132E-04-0.822E-06
   1 F= -.26018969E+03 E0= -.26018969E+03  d E =-.260190E+03  mag=    12.0000
       N       E                     dE             d eps       ncg     rms          ort
SDA:   1    -0.260156841009E+03    0.32844E-01    0.00000E+00  9576   0.154E+00 0.000E+00
CGA:   2    -0.260179696991E+03   -0.22856E-01   -0.22945E-01  9576   0.315E-01-0.452E-03
CGA:   3    -0.260186566002E+03   -0.68690E-02   -0.68620E-02  9576   0.120E-01-0.248E-03
CGA:   4    -0.260189153236E+03   -0.25872E-02   -0.25887E-02  9576   0.288E-02 0.526E-04
CGA:   5    -0.260189611266E+03   -0.45803E-03   -0.45925E-03  9576   0.861E-03 0.144E-04
CGA:   6    -0.260189792009E+03   -0.18074E-03   -0.18069E-03  9576   0.286E-03-0.175E-05
CGA:   7    -0.260189858532E+03   -0.66523E-04   -0.66528E-04  9576   0.118E-03 0.821E-06
CGA:   8    -0.260189887105E+03   -0.28573E-04   -0.28570E-04  9576   0.447E-04 0.131E-05
CGA:   9    -0.260189899570E+03   -0.12465E-04   -0.12484E-04  9576   0.170E-04-0.508E-06
CGA:  10    -0.260189904271E+03   -0.47012E-05   -0.47317E-05  9576   0.575E-05-0.733E-06
   2 F= -.26018990E+03 E0= -.26018990E+03  d E =-.210977E-03  mag=    12.0000
       N       E                     dE             d eps       ncg     rms          ort
SDA:   1    -0.260184223831E+03    0.56757E-02    0.00000E+00  9576   0.275E-01 0.000E+00
CGA:   2    -0.260188336294E+03   -0.41125E-02   -0.41149E-02  9576   0.557E-02 0.116E-03
CGA:   3    -0.260189542663E+03   -0.12064E-02   -0.12089E-02  9576   0.207E-02 0.108E-03
CGA:   4    -0.260190013240E+03   -0.47058E-03   -0.47024E-03  9576   0.555E-03-0.217E-04
CGA:   5    -0.260190098006E+03   -0.84766E-04   -0.84332E-04  9576   0.168E-03-0.515E-05
CGA:   6    -0.260190131828E+03   -0.33822E-04   -0.33873E-04  9576   0.518E-04 0.167E-05
CGA:   7    -0.260190144447E+03   -0.12619E-04   -0.12625E-04  9576   0.219E-04-0.602E-06
CGA:   8    -0.260190149929E+03   -0.54824E-05   -0.55057E-05  9576   0.894E-05-0.110E-05
   3 F= -.26019015E+03 E0= -.26019015E+03  d E =-.456635E-03  mag=    12.0000
       N       E                     dE             d eps       ncg     rms          ort
SDA:   1    -0.260160210626E+03    0.29934E-01    0.00000E+00  9576   0.892E-01 0.000E+00
CGA:   2    -0.260180997629E+03   -0.20787E-01   -0.20787E-01  9576   0.333E-01-0.175E-03
CGA:   3    -0.260187818663E+03   -0.68210E-02   -0.68186E-02  9576   0.106E-01-0.689E-04
CGA:   4    -0.260189786200E+03   -0.19675E-02   -0.19722E-02  9576   0.215E-02 0.102E-03
CGA:   5    -0.260190162571E+03   -0.37637E-03   -0.37671E-03  9576   0.734E-03 0.599E-05
CGA:   6    -0.260190301101E+03   -0.13853E-03   -0.13809E-03  9576   0.195E-03-0.108E-04
CGA:   7    -0.260190348499E+03   -0.47398E-04   -0.47385E-04  9576   0.739E-04 0.625E-06
CGA:   8    -0.260190365935E+03   -0.17436E-04   -0.17421E-04  9576   0.297E-04 0.185E-05
CGA:   9    -0.260190374410E+03   -0.84755E-05   -0.84260E-05  9576   0.111E-04 0.101E-05
   4 F= -.26019037E+03 E0= -.26019037E+03  d E =-.224481E-03  mag=    12.0000
       N       E                     dE             d eps       ncg     rms          ort
SDA:   1    -0.260187664786E+03    0.27011E-02    0.00000E+00  9576   0.817E-02 0.000E+00
CGA:   2    -0.260189570600E+03   -0.19058E-02   -0.19057E-02  9576   0.300E-02 0.759E-04
CGA:   3    -0.260190191538E+03   -0.62094E-03   -0.62139E-03  9576   0.966E-03 0.162E-04
CGA:   4    -0.260190381174E+03   -0.18964E-03   -0.18847E-03  9576   0.210E-03-0.315E-04
CGA:   5    -0.260190417896E+03   -0.36722E-04   -0.36699E-04  9576   0.622E-04-0.472E-06
CGA:   6    -0.260190428522E+03   -0.10626E-04   -0.10811E-04  9576   0.160E-04 0.352E-05
CGA:   7    -0.260190432561E+03   -0.40390E-05   -0.40391E-05  9576   0.714E-05-0.954E-08
   5 F= -.26019043E+03 E0= -.26019043E+03  d E =-.282632E-03  mag=    12.0000
       N       E                     dE             d eps       ncg     rms          ort
SDA:   1    -0.260176259958E+03    0.14169E-01    0.00000E+00  9576   0.340E-01 0.000E+00
CGA:   2    -0.260187672435E+03   -0.11412E-01   -0.11414E-01  9576   0.119E-01-0.170E-04
CGA:   3    -0.260189904383E+03   -0.22319E-02   -0.22329E-02  9576   0.328E-02 0.214E-04
CGA:   4    -0.260190447731E+03   -0.54335E-03   -0.54252E-03  9576   0.791E-03-0.130E-04
CGA:   5    -0.260190581968E+03   -0.13424E-03   -0.13427E-03  9576   0.250E-03 0.545E-06
CGA:   6    -0.260190627581E+03   -0.45613E-04   -0.45746E-04  9576   0.695E-04 0.331E-05
CGA:   7    -0.260190644399E+03   -0.16818E-04   -0.16827E-04  9576   0.261E-04-0.518E-06
CGA:   8    -0.260190651022E+03   -0.66225E-05   -0.66153E-05  9576   0.118E-04 0.220E-06
   6 F= -.26019065E+03 E0= -.26019065E+03  d E =-.218461E-03  mag=    12.0000
       N       E                     dE             d eps       ncg     rms          ort
SDA:   1    -0.260189994819E+03    0.64958E-03    0.00000E+00  9576   0.158E-02 0.000E+00
CGA:   2    -0.260190526957E+03   -0.53214E-03   -0.53254E-03  9576   0.535E-03-0.360E-05
CGA:   3    -0.260190628531E+03   -0.10157E-03   -0.10158E-03  9576   0.159E-03 0.168E-06
CGA:   4    -0.260190652379E+03   -0.23848E-04   -0.23824E-04  9576   0.361E-04-0.290E-06
CGA:   5    -0.260190659361E+03   -0.69827E-05   -0.69905E-05  9576   0.116E-04 0.249E-06
CGA:   6    -0.260190661453E+03   -0.20917E-05   -0.21050E-05  9576   0.368E-05 0.303E-06
   7 F= -.26019066E+03 E0= -.26019066E+03  d E =-.228892E-03  mag=    12.0000
       N       E                     dE             d eps       ncg     rms          ort
SDA:   1    -0.260186004369E+03    0.46550E-02    0.00000E+00  9576   0.112E-01 0.000E+00
CGA:   2    -0.260189922468E+03   -0.39181E-02   -0.39169E-02  9576   0.340E-02 0.907E-05
CGA:   3    -0.260190603104E+03   -0.68064E-03   -0.68050E-03  9576   0.933E-03-0.468E-05
CGA:   4    -0.260190755999E+03   -0.15290E-03   -0.15212E-03  9576   0.226E-03-0.119E-04
CGA:   5    -0.260190796360E+03   -0.40361E-04   -0.40400E-04  9576   0.689E-04 0.895E-06
CGA:   6    -0.260190808344E+03   -0.11984E-04   -0.12109E-04  9576   0.200E-04 0.262E-05
CGA:   7    -0.260190813386E+03   -0.50423E-05   -0.50407E-05  9576   0.818E-05 0.764E-07
   8 F= -.26019081E+03 E0= -.26019081E+03  d E =-.151933E-03  mag=    12.0000
