       N       E                     dE             d eps       ncg     rms          ort
DAV:   1     0.270547137408E+04    0.27055E+04   -0.16156E+05 10962   0.165E+03
DAV:   2    -0.152602719667E+03   -0.28581E+04   -0.26809E+04 10962   0.447E+02
DAV:   3    -0.444422502578E+03   -0.29182E+03   -0.28544E+03 10962   0.161E+02
DAV:   4    -0.454838072615E+03   -0.10416E+02   -0.10155E+02 10962   0.317E+01
DAV:   5    -0.455506013812E+03   -0.66794E+00   -0.66503E+00 10962   0.581E+00
SDA:   6    -0.270605292588E+03    0.18490E+03   -0.66503E+00 10962   0.758E+03 0.000E+00
CGA:   7    -0.334418507283E+03   -0.63813E+02   -0.82392E+02 10962   0.836E+02-0.223E+02
CGA:   8    -0.347452570058E+03   -0.13034E+02   -0.13003E+02 10962   0.190E+02-0.251E+00
CGA:   9    -0.350914264698E+03   -0.34617E+01   -0.34603E+01 10962   0.870E+01-0.976E-01
CGA:  10    -0.352551032406E+03   -0.16368E+01   -0.16370E+01 10962   0.322E+01 0.249E-01
CGA:  11    -0.353186863828E+03   -0.63583E+00   -0.63571E+00 10962   0.119E+01 0.247E-01
CGA:  12    -0.353452026678E+03   -0.26516E+00   -0.26483E+00 10962   0.429E+00 0.125E-01
CGA:  13    -0.353546944535E+03   -0.94918E-01   -0.94575E-01 10962   0.132E+00 0.149E-01
CGA:  14    -0.353577440967E+03   -0.30496E-01   -0.30271E-01 10962   0.384E-01 0.894E-02
CGA:  15    -0.353587948416E+03   -0.10507E-01   -0.10430E-01 10962   0.141E-01 0.138E-02
CGA:  16    -0.353591843788E+03   -0.38954E-02   -0.38129E-02 10962   0.483E-02 0.135E-02
CGA:  17    -0.353593573374E+03   -0.17296E-02   -0.17898E-02 10962   0.250E-02-0.446E-03
CGA:  18    -0.353594364606E+03   -0.79123E-03   -0.91259E-03 10962   0.135E-02-0.636E-03
CGA:  19    -0.353594653932E+03   -0.28933E-03   -0.49465E-03 10962   0.113E-02-0.764E-03
CGA:  20    -0.353594953171E+03   -0.29924E-03   -0.30312E-03 10962   0.321E-03-0.108E-03
CGA:  21    -0.353595025186E+03   -0.72015E-04   -0.71465E-04 10962   0.110E-03 0.485E-04
CGA:  22    -0.353595071007E+03   -0.45821E-04   -0.49958E-04 10962   0.730E-04-0.264E-04
CGA:  23    -0.353595083683E+03   -0.12676E-04   -0.12829E-04 10962   0.228E-04 0.127E-04
CGA:  24    -0.353595091765E+03   -0.80818E-05   -0.99683E-05 10962   0.202E-04-0.145E-04
CGA:  25    -0.353595102736E+03   -0.10971E-04    0.27994E-04 10962   0.405E-05-0.197E-05
CGA:  26    -0.353595102807E+03   -0.71435E-07   -0.38538E-06 10962   0.169E-05 0.219E-05
   1 F= -.35359510E+03 E0= -.35359510E+03  d E =-.353595E+03  mag=     8.0000
       N       E                     dE             d eps       ncg     rms          ort
SDA:   1    -0.353605492705E+03   -0.10390E-01    0.00000E+00 10962   0.280E-02 0.000E+00
CGA:   2    -0.353606191988E+03   -0.69928E-03   -0.70151E-03 10962   0.122E-02-0.141E-03
CGA:   3    -0.353606381214E+03   -0.18923E-03   -0.18921E-03 10962   0.498E-03-0.433E-06
CGA:   4    -0.353606456976E+03   -0.75761E-04   -0.76114E-04 10962   0.114E-03 0.436E-05
CGA:   5    -0.353606478270E+03   -0.21294E-04   -0.20831E-04 10962   0.382E-04-0.985E-05
CGA:   6    -0.353606485511E+03   -0.72414E-05   -0.71335E-05 10962   0.161E-04-0.508E-05
   2 F= -.35360649E+03 E0= -.35360649E+03  d E =-.113827E-01  mag=     8.0000
       N       E                     dE             d eps       ncg     rms          ort
SDA:   1    -0.352329747171E+03    0.12767E+01    0.00000E+00 10962   0.482E+01 0.000E+00
CGA:   2    -0.353480813453E+03   -0.11511E+01   -0.11510E+01 10962   0.191E+01 0.548E-03
CGA:   3    -0.353808515005E+03   -0.32770E+00   -0.32759E+00 10962   0.831E+00-0.333E-02
CGA:   4    -0.353936777455E+03   -0.12826E+00   -0.12808E+00 10962   0.195E+00-0.269E-02
CGA:   5    -0.353969351705E+03   -0.32574E-01   -0.32553E-01 10962   0.546E-01-0.397E-03
CGA:   6    -0.353979750200E+03   -0.10398E-01   -0.10406E-01 10962   0.193E-01 0.248E-03
CGA:   7    -0.353984265316E+03   -0.45151E-02   -0.45266E-02 10962   0.917E-02-0.660E-03
CGA:   8    -0.353986692919E+03   -0.24276E-02   -0.25007E-02 10962   0.468E-02-0.111E-02
CGA:   9    -0.353987774980E+03   -0.10821E-02   -0.11000E-02 10962   0.197E-02-0.376E-03
CGA:  10    -0.353988244473E+03   -0.46949E-03   -0.47248E-03 10962   0.623E-03-0.774E-04
CGA:  11    -0.353988367096E+03   -0.12262E-03   -0.12486E-03 10962   0.199E-03 0.146E-03
CGA:  12    -0.353988413277E+03   -0.46181E-04   -0.48378E-04 10962   0.815E-04 0.844E-04
CGA:  13    -0.353988433488E+03   -0.20211E-04   -0.21906E-04 10962   0.408E-04 0.511E-04
CGA:  14    -0.353988439126E+03   -0.56380E-05   -0.69629E-05 10962   0.223E-04 0.267E-04
   3 F= -.35398844E+03 E0= -.35398844E+03  d E =-.381954E+00  mag=     8.0000
       N       E                     dE             d eps       ncg     rms          ort
SDA:   1    -0.348906276961E+03    0.50822E+01    0.00000E+00 10962   0.169E+02 0.000E+00
CGA:   2    -0.352682070925E+03   -0.37758E+01   -0.37757E+01 10962   0.635E+01 0.141E-01
CGA:   3    -0.353784920690E+03   -0.11028E+01   -0.11025E+01 10962   0.283E+01-0.108E-01
CGA:   4    -0.354220593372E+03   -0.43567E+00   -0.43530E+00 10962   0.660E+00-0.570E-02
CGA:   5    -0.354331099262E+03   -0.11051E+00   -0.11048E+00 10962   0.184E+00-0.576E-03
CGA:   6    -0.354365994434E+03   -0.34895E-01   -0.34904E-01 10962   0.647E-01 0.411E-03
CGA:   7    -0.354380969173E+03   -0.14975E-01   -0.14992E-01 10962   0.309E-01-0.890E-03
CGA:   8    -0.354389280141E+03   -0.83110E-02   -0.84049E-02 10962   0.153E-01-0.149E-02
CGA:   9    -0.354393290624E+03   -0.40105E-02   -0.40600E-02 10962   0.683E-02-0.792E-03
CGA:  10    -0.354395008246E+03   -0.17176E-02   -0.17248E-02 10962   0.226E-02-0.152E-03
CGA:  11    -0.354395542706E+03   -0.53446E-03   -0.52873E-03 10962   0.712E-03 0.309E-03
CGA:  12    -0.354395749451E+03   -0.20675E-03   -0.20193E-03 10962   0.276E-03 0.176E-03
CGA:  13    -0.354395827096E+03   -0.77645E-04   -0.77491E-04 10962   0.126E-03 0.132E-03
CGA:  14    -0.354395861589E+03   -0.34493E-04   -0.36823E-04 10962   0.622E-04 0.903E-04
CGA:  15    -0.354395890332E+03   -0.28744E-04   -0.27063E-04 10962   0.388E-04 0.787E-05
CGA:  16    -0.354395896871E+03   -0.65382E-05   -0.80224E-05 10962   0.207E-04 0.300E-04
CGA:  17    -0.354395903694E+03   -0.68230E-05   -0.20674E-04 10962   0.839E-04-0.180E-04
   4 F= -.35439590E+03 E0= -.35439590E+03  d E =-.407465E+00  mag=     8.0000
       N       E                     dE             d eps       ncg     rms          ort
SDA:   1    -0.351960496295E+03    0.24354E+01    0.00000E+00 10962   0.796E+01 0.000E+00
CGA:   2    -0.353760388862E+03   -0.17999E+01   -0.18002E+01 10962   0.291E+01-0.101E-02
CGA:   3    -0.354276044910E+03   -0.51566E+00   -0.51554E+00 10962   0.132E+01-0.173E-02
CGA:   4    -0.354473152543E+03   -0.19711E+00   -0.19712E+00 10962   0.291E+00 0.101E-03
CGA:   5    -0.354522216655E+03   -0.49064E-01   -0.49044E-01 10962   0.833E-01-0.329E-03
CGA:   6    -0.354537981759E+03   -0.15765E-01   -0.15754E-01 10962   0.290E-01-0.187E-03
CGA:   7    -0.354544759167E+03   -0.67774E-02   -0.67748E-02 10962   0.146E-01-0.281E-03
CGA:   8    -0.354548739379E+03   -0.39802E-02   -0.39893E-02 10962   0.750E-02-0.271E-03
CGA:   9    -0.354550800836E+03   -0.20615E-02   -0.20640E-02 10962   0.340E-02-0.718E-04
CGA:  10    -0.354551729823E+03   -0.92899E-03   -0.93226E-03 10962   0.119E-02-0.107E-03
CGA:  11    -0.354552027234E+03   -0.29741E-03   -0.29679E-03 10962   0.373E-03 0.629E-04
CGA:  12    -0.354552144039E+03   -0.11681E-03   -0.11590E-03 10962   0.148E-03 0.193E-04
CGA:  13    -0.354552182855E+03   -0.38816E-04   -0.38861E-04 10962   0.592E-04 0.468E-04
CGA:  14    -0.354552204943E+03   -0.22089E-04   -0.21592E-04 10962   0.263E-04 0.186E-04
CGA:  15    -0.354552214524E+03   -0.95809E-05   -0.93683E-05 10962   0.122E-04 0.113E-04
   5 F= -.35455221E+03 E0= -.35455221E+03  d E =-.156311E+00  mag=     8.0000
       N       E                     dE             d eps       ncg     rms          ort
SDA:   1    -0.348877893185E+03    0.56743E+01    0.00000E+00 10962   0.172E+02 0.000E+00
CGA:   2    -0.352673292687E+03   -0.37954E+01   -0.37963E+01 10962   0.800E+01 0.232E-02
CGA:   3    -0.353998878291E+03   -0.13256E+01   -0.13249E+01 10962   0.317E+01-0.419E-02
CGA:   4    -0.354475657066E+03   -0.47678E+00   -0.47704E+00 10962   0.702E+00 0.209E-02
CGA:   5    -0.354589284646E+03   -0.11363E+00   -0.11378E+00 10962   0.187E+00 0.144E-02
CGA:   6    -0.354624291103E+03   -0.35006E-01   -0.34991E-01 10962   0.635E-01-0.391E-03
CGA:   7    -0.354638202526E+03   -0.13911E-01   -0.13906E-01 10962   0.279E-01-0.350E-03
CGA:   8    -0.354645685335E+03   -0.74828E-02   -0.74775E-02 10962   0.142E-01 0.151E-03
CGA:   9    -0.354649784105E+03   -0.40988E-02   -0.41028E-02 10962   0.704E-02-0.787E-04
CGA:  10    -0.354651768683E+03   -0.19846E-02   -0.19872E-02 10962   0.267E-02-0.582E-04
CGA:  11    -0.354652542258E+03   -0.77358E-03   -0.78489E-03 10962   0.102E-02-0.202E-03
CGA:  12    -0.354652829146E+03   -0.28689E-03   -0.28891E-03 10962   0.405E-03-0.323E-04
CGA:  13    -0.354652965654E+03   -0.13651E-03   -0.13940E-03 10962   0.192E-03-0.265E-04
CGA:  14    -0.354653025345E+03   -0.59691E-04   -0.59107E-04 10962   0.808E-04 0.751E-05
CGA:  15    -0.354653054964E+03   -0.29619E-04   -0.30707E-04 10962   0.458E-04-0.992E-05
CGA:  16    -0.354653063796E+03   -0.88322E-05   -0.90898E-05 10962   0.203E-04 0.740E-05
   6 F= -.35465306E+03 E0= -.35465306E+03  d E =-.100849E+00  mag=     8.0000
       N       E                     dE             d eps       ncg     rms          ort
SDA:   1    -0.344739327258E+03    0.99137E+01    0.00000E+00 10962   0.271E+02 0.000E+00
CGA:   2    -0.351441857421E+03   -0.67025E+01   -0.67032E+01 10962   0.144E+02 0.558E-02
CGA:   3    -0.353717986978E+03   -0.22761E+01   -0.22756E+01 10962   0.492E+01 0.238E-02
CGA:   4    -0.354434084339E+03   -0.71610E+00   -0.71643E+00 10962   0.104E+01 0.233E-02
CGA:   5    -0.354603972703E+03   -0.16989E+00   -0.17007E+00 10962   0.281E+00 0.134E-02
CGA:   6    -0.354656504721E+03   -0.52532E-01   -0.52534E-01 10962   0.938E-01-0.800E-04
CGA:   7    -0.354676535296E+03   -0.20031E-01   -0.20017E-01 10962   0.383E-01-0.444E-03
CGA:   8    -0.354686709074E+03   -0.10174E-01   -0.10177E-01 10962   0.192E-01-0.123E-03
CGA:   9    -0.354692210825E+03   -0.55018E-02   -0.55128E-02 10962   0.959E-02-0.259E-03
CGA:  10    -0.354694933860E+03   -0.27230E-02   -0.27330E-02 10962   0.373E-02-0.239E-03
CGA:  11    -0.354695974887E+03   -0.10410E-02   -0.10489E-02 10962   0.137E-02-0.203E-03
CGA:  12    -0.354696383785E+03   -0.40890E-03   -0.41421E-03 10962   0.586E-03-0.773E-04
CGA:  13    -0.354696565387E+03   -0.18160E-03   -0.17974E-03 10962   0.254E-03 0.262E-04
CGA:  14    -0.354696668724E+03   -0.10334E-03   -0.10676E-03 10962   0.144E-03-0.238E-04
CGA:  15    -0.354696695804E+03   -0.27079E-04   -0.28985E-04 10962   0.589E-04 0.434E-04
CGA:  16    -0.354696720989E+03   -0.25186E-04   -0.25689E-04 10962   0.337E-04-0.708E-05
CGA:  17    -0.354696733510E+03   -0.12521E-04   -0.14262E-04 10962   0.335E-04-0.822E-05
CGA:  18    -0.354696739761E+03   -0.62511E-05   -0.64160E-05 10962   0.233E-04 0.678E-05
CGA:  19    -0.354696750694E+03   -0.10933E-04   -0.14869E-04 10962   0.288E-04-0.156E-04
CGA:  20    -0.354696759229E+03   -0.85356E-05   -0.85169E-05 10962   0.405E-05 0.285E-05
   7 F= -.35469676E+03 E0= -.35469676E+03  d E =-.436954E-01  mag=     8.0000
       N       E                     dE             d eps       ncg     rms          ort
SDA:   1    -0.353708088194E+03    0.98866E+00    0.00000E+00 10962   0.284E+01 0.000E+00
CGA:   2    -0.354398367313E+03   -0.69028E+00   -0.69043E+00 10962   0.150E+01 0.188E-02
CGA:   3    -0.354632009391E+03   -0.23364E+00   -0.23358E+00 10962   0.516E+00-0.419E-03
CGA:   4    -0.354709915804E+03   -0.77906E-01   -0.77833E-01 10962   0.117E+00-0.639E-03
CGA:   5    -0.354729222078E+03   -0.19306E-01   -0.19297E-01 10962   0.318E-01-0.121E-03
CGA:   6    -0.354735104855E+03   -0.58828E-02   -0.58730E-02 10962   0.106E-01-0.120E-03
CGA:   7    -0.354737337996E+03   -0.22331E-02   -0.22310E-02 10962   0.419E-02-0.416E-04
CGA:   8    -0.354738421068E+03   -0.10831E-02   -0.10831E-02 10962   0.195E-02 0.193E-04
CGA:   9    -0.354738983013E+03   -0.56194E-03   -0.56454E-03 10962   0.982E-03-0.974E-04
CGA:  10    -0.354739233600E+03   -0.25059E-03   -0.25046E-03 10962   0.349E-03 0.221E-04
CGA:  11    -0.354739335917E+03   -0.10232E-03   -0.10259E-03 10962   0.131E-03-0.113E-04
CGA:  12    -0.354739370979E+03   -0.35063E-04   -0.34925E-04 10962   0.504E-04 0.133E-04
CGA:  13    -0.354739388740E+03   -0.17761E-04   -0.17457E-04 10962   0.239E-04 0.615E-05
CGA:  14    -0.354739398248E+03   -0.95080E-05   -0.92697E-05 10962   0.123E-04 0.305E-05
   8 F= -.35473940E+03 E0= -.35473940E+03  d E =-.426390E-01  mag=     8.0000
       N       E                     dE             d eps       ncg     rms          ort
SDA:   1    -0.354220310041E+03    0.51908E+00    0.00000E+00 10962   0.149E+01 0.000E+00
CGA:   2    -0.354603609129E+03   -0.38330E+00   -0.38333E+00 10962   0.765E+00 0.147E-02
CGA:   3    -0.354721034657E+03   -0.11743E+00   -0.11740E+00 10962   0.258E+00-0.352E-03
CGA:   4    -0.354759549123E+03   -0.38514E-01   -0.38471E-01 10962   0.566E-01-0.449E-03
CGA:   5    -0.354768939891E+03   -0.93908E-02   -0.93766E-02 10962   0.156E-01-0.168E-03
CGA:   6    -0.354771787838E+03   -0.28479E-02   -0.28450E-02 10962   0.503E-02-0.444E-04
CGA:   7    -0.354772807934E+03   -0.10201E-02   -0.10245E-02 10962   0.188E-02 0.940E-04
CGA:   8    -0.354773287595E+03   -0.47966E-03   -0.47953E-03 10962   0.830E-03 0.110E-03
CGA:   9    -0.354773541503E+03   -0.25391E-03   -0.25398E-03 10962   0.437E-03-0.182E-05
CGA:  10    -0.354773665006E+03   -0.12350E-03   -0.12335E-03 10962   0.172E-03 0.474E-05
CGA:  11    -0.354773718478E+03   -0.53472E-04   -0.54993E-04 10962   0.780E-04-0.239E-04
CGA:  12    -0.354773737767E+03   -0.19290E-04   -0.19264E-04 10962   0.313E-04 0.817E-06
CGA:  13    -0.354773749896E+03   -0.12128E-04   -0.15242E-04 10962   0.317E-04-0.138E-04
CGA:  14    -0.354773755685E+03   -0.57888E-05   -0.65814E-05 10962   0.228E-04-0.765E-05
   9 F= -.35477376E+03 E0= -.35477376E+03  d E =-.343574E-01  mag=     8.0000
       N       E                     dE             d eps       ncg     rms          ort
SDA:   1    -0.352191427481E+03    0.25823E+01    0.00000E+00 10962   0.655E+01 0.000E+00
CGA:   2    -0.354059695300E+03   -0.18683E+01   -0.18682E+01 10962   0.377E+01 0.239E-03
CGA:   3    -0.354604490979E+03   -0.54480E+00   -0.54470E+00 10962   0.105E+01-0.487E-04
CGA:   4    -0.354753894739E+03   -0.14940E+00   -0.14937E+00 10962   0.219E+00-0.532E-03
CGA:   5    -0.354790407916E+03   -0.36513E-01   -0.36481E-01 10962   0.616E-01-0.393E-03
CGA:   6    -0.354801584987E+03   -0.11177E-01   -0.11169E-01 10962   0.186E-01-0.114E-03
CGA:   7    -0.354805223467E+03   -0.36385E-02   -0.36415E-02 10962   0.606E-02 0.454E-04
CGA:   8    -0.354806740317E+03   -0.15168E-02   -0.15171E-02 10962   0.266E-02 0.790E-04
CGA:   9    -0.354807487278E+03   -0.74696E-03   -0.74663E-03 10962   0.127E-02 0.132E-04
CGA:  10    -0.354807874428E+03   -0.38715E-03   -0.39173E-03 10962   0.559E-03-0.842E-04
CGA:  11    -0.354808028888E+03   -0.15446E-03   -0.15723E-03 10962   0.223E-03-0.616E-04
CGA:  12    -0.354808095811E+03   -0.66923E-04   -0.71105E-04 10962   0.122E-03-0.418E-04
CGA:  13    -0.354808132445E+03   -0.36634E-04   -0.37657E-04 10962   0.734E-04-0.882E-05
CGA:  14    -0.354808136928E+03   -0.44827E-05   -0.61264E-04 10962   0.281E-03-0.902E-04
CGA:  15    -0.354808174888E+03   -0.37960E-04   -0.45626E-04 10962   0.460E-04 0.554E-04
CGA:  16    -0.354808192318E+03   -0.17430E-04   -0.18089E-04 10962   0.243E-04-0.188E-04
CGA:  17    -0.354808193101E+03   -0.78336E-06   -0.19380E-05 10962   0.143E-04 0.718E-05
  10 F= -.35480819E+03 E0= -.35480819E+03  d E =-.344374E-01  mag=     8.0000
       N       E                     dE             d eps       ncg     rms          ort
SDA:   1    -0.334049430758E+03    0.20759E+02    0.00000E+00 10962   0.522E+02 0.000E+00
CGA:   2    -0.349040713385E+03   -0.14991E+02   -0.14990E+02 10962   0.278E+02 0.504E-01
CGA:   3    -0.353166434822E+03   -0.41257E+01   -0.41291E+01 10962   0.820E+01 0.489E-01
CGA:   4    -0.354342429242E+03   -0.11760E+01   -0.11756E+01 10962   0.170E+01 0.156E-02
CGA:   5    -0.354630971095E+03   -0.28854E+00   -0.28846E+00 10962   0.510E+00-0.160E-02
CGA:   6    -0.354726653487E+03   -0.95682E-01   -0.95700E-01 10962   0.164E+00-0.475E-04
CGA:   7    -0.354760378185E+03   -0.33725E-01   -0.33709E-01 10962   0.606E-01-0.407E-03
CGA:   8    -0.354776218002E+03   -0.15840E-01   -0.15842E-01 10962   0.282E-01-0.358E-03
CGA:   9    -0.354783992550E+03   -0.77745E-02   -0.77862E-02 10962   0.129E-01-0.546E-03
CGA:  10    -0.354787591523E+03   -0.35990E-02   -0.36182E-02 10962   0.482E-02-0.652E-03
CGA:  11    -0.354788866215E+03   -0.12747E-02   -0.12782E-02 10962   0.168E-02-0.168E-03
CGA:  12    -0.354789414715E+03   -0.54850E-03   -0.56545E-03 10962   0.895E-03-0.192E-03
CGA:  13    -0.354789670287E+03   -0.25557E-03   -0.24939E-03 10962   0.443E-03 0.121E-03
CGA:  14    -0.354789888766E+03   -0.21848E-03   -0.22970E-03 10962   0.382E-03-0.598E-04
CGA:  15    -0.354789963498E+03   -0.74732E-04   -0.78938E-04 10962   0.197E-03 0.113E-03
CGA:  16    -0.354790032656E+03   -0.69158E-04   -0.69255E-04 10962   0.901E-04 0.300E-04
CGA:  17    -0.354789622312E+03    0.41034E-03   -0.22222E-03 10962   0.214E-02-0.397E-03
CGA:  18    -0.354789924516E+03   -0.30220E-03   -0.40480E-03 10962   0.475E-03 0.329E-03
CGA:  19    -0.354790153365E+03   -0.22885E-03   -0.19348E-03 10962   0.318E-03-0.270E-03
CGA:  20    -0.354790142634E+03    0.10732E-04   -0.33473E-04 10962   0.662E-04 0.119E-03
CGA:  21    -0.354790138207E+03    0.44268E-05   -0.97226E-05 10962   0.295E-04 0.402E-04
  11 F= -.35479014E+03 E0= -.35479014E+03  d E =0.180549E-01  mag=     8.0000
       N       E                     dE             d eps       ncg     rms          ort
SDA:   1    -0.343914744701E+03    0.10875E+02    0.00000E+00 10962   0.280E+02 0.000E+00
CGA:   2    -0.351879555759E+03   -0.79648E+01   -0.79695E+01 10962   0.142E+02 0.140E-01
CGA:   3    -0.354011300222E+03   -0.21317E+01   -0.21349E+01 10962   0.447E+01 0.599E-01
CGA:   4    -0.354658438559E+03   -0.64714E+00   -0.64689E+00 10962   0.924E+00 0.628E-02
CGA:   5    -0.354812912443E+03   -0.15447E+00   -0.15433E+00 10962   0.266E+00-0.568E-03
CGA:   6    -0.354863135838E+03   -0.50223E-01   -0.50210E-01 10962   0.856E-01-0.110E-03
CGA:   7    -0.354880811604E+03   -0.17676E-01   -0.17654E-01 10962   0.318E-01-0.165E-03
CGA:   8    -0.354889001429E+03   -0.81898E-02   -0.81818E-02 10962   0.147E-01-0.821E-04
CGA:   9    -0.354893184942E+03   -0.41835E-02   -0.41620E-02 10962   0.699E-02-0.254E-03
CGA:  10    -0.354895168797E+03   -0.19839E-02   -0.19657E-02 10962   0.270E-02-0.232E-03
CGA:  11    -0.354895921334E+03   -0.75254E-03   -0.74752E-03 10962   0.999E-03-0.689E-04
CGA:  12    -0.354896255461E+03   -0.33413E-03   -0.33317E-03 10962   0.515E-03-0.658E-04
CGA:  13    -0.354896415323E+03   -0.15986E-03   -0.16107E-03 10962   0.259E-03 0.559E-04
CGA:  14    -0.354896538450E+03   -0.12313E-03   -0.12449E-03 10962   0.179E-03-0.177E-04
CGA:  15    -0.354896578453E+03   -0.40003E-04   -0.44645E-04 10962   0.784E-04 0.504E-04
CGA:  16    -0.354896618366E+03   -0.39913E-04   -0.41021E-04 10962   0.613E-04-0.208E-04
CGA:  17    -0.354896633911E+03   -0.15545E-04   -0.15555E-04 10962   0.460E-04 0.697E-06
CGA:  18    -0.354896650468E+03   -0.16557E-04   -0.16554E-04 10962   0.316E-04-0.333E-05
CGA:  19    -0.354896624454E+03    0.26014E-04   -0.37355E-04 10962   0.222E-03-0.694E-04
CGA:  20    -0.354896661956E+03   -0.37502E-04   -0.49045E-04 10962   0.323E-04 0.635E-04
CGA:  21    -0.354896695709E+03   -0.33753E-04    0.25081E-03 10962   0.170E-04-0.132E-04
CGA:  22    -0.354896693091E+03    0.26181E-05   -0.37688E-06 10962   0.140E-04 0.841E-05
  12 F= -.35489669E+03 E0= -.35489669E+03  d E =-.106555E+00  mag=     8.0000
       N       E                     dE             d eps       ncg     rms          ort
SDA:   1    -0.351021913801E+03    0.38748E+01    0.00000E+00 10962   0.103E+02 0.000E+00
CGA:   2    -0.353485792455E+03   -0.24639E+01   -0.24658E+01 10962   0.672E+01 0.147E-02
CGA:   3    -0.354525724570E+03   -0.10399E+01   -0.10399E+01 10962   0.197E+01 0.709E-02
CGA:   4    -0.354806371144E+03   -0.28065E+00   -0.28070E+00 10962   0.407E+00 0.868E-03
CGA:   5    -0.354873899366E+03   -0.67528E-01   -0.67697E-01 10962   0.117E+00 0.827E-03
CGA:   6    -0.354895272003E+03   -0.21373E-01   -0.21391E-01 10962   0.361E-01 0.103E-03
CGA:   7    -0.354902631438E+03   -0.73594E-02   -0.73412E-02 10962   0.122E-01-0.171E-03
CGA:   8    -0.354905628316E+03   -0.29969E-02   -0.29966E-02 10962   0.519E-02-0.770E-05
CGA:   9    -0.354907066742E+03   -0.14384E-02   -0.14311E-02 10962   0.234E-02-0.227E-03
CGA:  10    -0.354907674317E+03   -0.60757E-03   -0.60691E-03 10962   0.818E-03-0.188E-04
CGA:  11    -0.354907901102E+03   -0.22678E-03   -0.22615E-03 10962   0.276E-03-0.245E-04
CGA:  12    -0.354907983843E+03   -0.82741E-04   -0.82836E-04 10962   0.116E-03-0.153E-04
CGA:  13    -0.354908021835E+03   -0.37993E-04   -0.37856E-04 10962   0.613E-04 0.308E-05
CGA:  14    -0.354908048058E+03   -0.26223E-04   -0.46222E-04 10962   0.140E-03-0.469E-04
CGA:  15    -0.354908064271E+03   -0.16213E-04   -0.22931E-04 10962   0.257E-04 0.410E-04
CGA:  16    -0.354908076341E+03   -0.12070E-04   -0.13368E-04 10962   0.257E-04-0.155E-04
CGA:  17    -0.354908078243E+03   -0.19018E-05   -0.37958E-05 10962   0.645E-05 0.108E-04
  13 F= -.35490808E+03 E0= -.35490808E+03  d E =-.113852E-01  mag=     8.0000
       N       E                     dE             d eps       ncg     rms          ort
SDA:   1    -0.354724374442E+03    0.18370E+00    0.00000E+00 10962   0.522E+00 0.000E+00
CGA:   2    -0.354876583459E+03   -0.15221E+00   -0.15220E+00 10962   0.264E+00-0.588E-03
CGA:   3    -0.354917636819E+03   -0.41053E-01   -0.41030E-01 10962   0.972E-01-0.209E-03
CGA:   4    -0.354932537496E+03   -0.14901E-01   -0.14907E-01 10962   0.244E-01 0.847E-05
CGA:   5    -0.354936823658E+03   -0.42862E-02   -0.42893E-02 10962   0.791E-02 0.221E-04
CGA:   6    -0.354938350490E+03   -0.15268E-02   -0.15225E-02 10962   0.281E-02-0.442E-04
CGA:   7    -0.354939002027E+03   -0.65154E-03   -0.64584E-03 10962   0.137E-02-0.104E-03
CGA:   8    -0.354939341971E+03   -0.33994E-03   -0.33706E-03 10962   0.537E-03-0.101E-03
CGA:   9    -0.354939461887E+03   -0.11992E-03   -0.11997E-03 10962   0.193E-03 0.120E-05
CGA:  10    -0.354939508708E+03   -0.46821E-04   -0.47147E-04 10962   0.546E-04 0.902E-05
CGA:  11    -0.354939523471E+03   -0.14763E-04   -0.14829E-04 10962   0.184E-04 0.343E-05
CGA:  12    -0.354939527024E+03   -0.35532E-05   -0.39789E-05 10962   0.612E-05 0.574E-05
  14 F= -.35493953E+03 E0= -.35493953E+03  d E =-.314488E-01  mag=     8.0000
       N       E                     dE             d eps       ncg     rms          ort
SDA:   1    -0.354733868276E+03    0.20566E+00    0.00000E+00 10962   0.552E+00 0.000E+00
CGA:   2    -0.354887502334E+03   -0.15363E+00   -0.15363E+00 10962   0.276E+00-0.781E-04
CGA:   3    -0.354930260518E+03   -0.42758E-01   -0.42763E-01 10962   0.927E-01 0.125E-04
CGA:   4    -0.354943267309E+03   -0.13007E-01   -0.13010E-01 10962   0.178E-01 0.758E-05
CGA:   5    -0.354946196823E+03   -0.29295E-02   -0.29239E-02 10962   0.508E-02-0.639E-04
CGA:   6    -0.354947145392E+03   -0.94857E-03   -0.94636E-03 10962   0.158E-02-0.351E-04
CGA:   7    -0.354947457337E+03   -0.31195E-03   -0.31302E-03 10962   0.554E-03 0.213E-04
CGA:   8    -0.354947593849E+03   -0.13651E-03   -0.13664E-03 10962   0.246E-03 0.412E-04
CGA:   9    -0.354947668160E+03   -0.74311E-04   -0.73635E-04 10962   0.125E-03 0.206E-04
CGA:  10    -0.354947709817E+03   -0.41657E-04   -0.41615E-04 10962   0.588E-04 0.700E-06
CGA:  11    -0.354947729127E+03   -0.19309E-04   -0.20385E-04 10962   0.319E-04-0.114E-04
CGA:  12    -0.354947737343E+03   -0.82164E-05   -0.86777E-05 10962   0.160E-04-0.560E-05
  15 F= -.35494774E+03 E0= -.35494774E+03  d E =-.821032E-02  mag=     8.0000
       N       E                     dE             d eps       ncg     rms          ort
SDA:   1    -0.344327858625E+03    0.10620E+02    0.00000E+00 10962   0.321E+02 0.000E+00
CGA:   2    -0.350672874801E+03   -0.63450E+01   -0.63549E+01 10962   0.179E+02 0.523E-01
CGA:   3    -0.353714212414E+03   -0.30413E+01   -0.30397E+01 10962   0.669E+01 0.272E-02
CGA:   4    -0.354683862912E+03   -0.96965E+00   -0.96924E+00 10962   0.136E+01-0.891E-03
CGA:   5    -0.354894691123E+03   -0.21083E+00   -0.21125E+00 10962   0.347E+00 0.307E-02
CGA:   6    -0.354958792171E+03   -0.64101E-01   -0.64164E-01 10962   0.110E+00 0.103E-02
CGA:   7    -0.354980998053E+03   -0.22206E-01   -0.22218E-01 10962   0.357E-01 0.288E-03
CGA:   8    -0.354989386312E+03   -0.83883E-02   -0.83905E-02 10962   0.149E-01 0.106E-02
CGA:   9    -0.354993802767E+03   -0.44165E-02   -0.44274E-02 10962   0.751E-02-0.218E-03
CGA:  10    -0.354995890591E+03   -0.20878E-02   -0.20808E-02 10962   0.313E-02 0.167E-03
CGA:  11    -0.354996807477E+03   -0.91689E-03   -0.91313E-03 10962   0.120E-02 0.837E-04
CGA:  12    -0.354997216196E+03   -0.40872E-03   -0.41641E-03 10962   0.616E-03-0.815E-04
CGA:  13    -0.354997365652E+03   -0.14946E-03   -0.14803E-03 10962   0.265E-03 0.148E-03
CGA:  14    -0.354997497012E+03   -0.13136E-03   -0.14364E-03 10962   0.255E-03-0.655E-04
CGA:  15    -0.354997546208E+03   -0.49195E-04   -0.49237E-04 10962   0.160E-03 0.278E-04
CGA:  16    -0.354997587417E+03   -0.41209E-04   -0.41669E-04 10962   0.704E-04 0.195E-04
CGA:  17    -0.354997607651E+03   -0.20234E-04   -0.45987E-04 10962   0.134E-03-0.795E-04
CGA:  18    -0.354997620729E+03   -0.13078E-04   -0.20719E-04 10962   0.367E-04 0.644E-04
CGA:  19    -0.354997635467E+03   -0.14738E-04   -0.14749E-04 10962   0.143E-04-0.260E-05
CGA:  20    -0.354997650070E+03   -0.14603E-04    0.16708E-05 10962   0.118E-04 0.565E-05
CGA:  21    -0.354997654508E+03   -0.44384E-05   -0.44229E-05 10962   0.776E-05 0.753E-05
  16 F= -.35499765E+03 E0= -.35499765E+03  d E =-.499172E-01  mag=     8.0000
       N       E                     dE             d eps       ncg     rms          ort
SDA:   1    -0.338555405742E+03    0.16442E+02    0.00000E+00 10962   0.379E+02 0.000E+00
CGA:   2    -0.348406807657E+03   -0.98514E+01   -0.98512E+01 10962   0.219E+02 0.707E-01
CGA:   3    -0.351836674514E+03   -0.34299E+01   -0.34350E+01 10962   0.754E+01 0.234E-01
CGA:   4    -0.352988885514E+03   -0.11522E+01   -0.11524E+01 10962   0.188E+01 0.352E-02
CGA:   5    -0.353316382484E+03   -0.32750E+00   -0.32772E+00 10962   0.612E+00 0.238E-02
CGA:   6    -0.353433394800E+03   -0.11701E+00   -0.11711E+00 10962   0.206E+00 0.185E-02
CGA:   7    -0.353478240402E+03   -0.44846E-01   -0.44858E-01 10962   0.885E-01 0.493E-03
CGA:   8    -0.353500238280E+03   -0.21998E-01   -0.21991E-01 10962   0.333E-01 0.986E-03
CGA:   9    -0.353508694060E+03   -0.84558E-02   -0.84553E-02 10962   0.129E-01 0.444E-04
CGA:  10    -0.353512209104E+03   -0.35150E-02   -0.35238E-02 10962   0.430E-02-0.290E-03
CGA:  11    -0.353513313960E+03   -0.11049E-02   -0.11037E-02 10962   0.138E-02 0.613E-04
CGA:  12    -0.353513768493E+03   -0.45453E-03   -0.48639E-03 10962   0.677E-03-0.311E-03
CGA:  13    -0.353513895948E+03   -0.12745E-03   -0.12791E-03 10962   0.246E-03 0.821E-04
CGA:  14    -0.353513992337E+03   -0.96390E-04   -0.11667E-03 10962   0.256E-03-0.117E-03
CGA:  15    -0.353514018121E+03   -0.25783E-04   -0.26666E-04 10962   0.186E-03 0.147E-04
CGA:  16    -0.353514047288E+03   -0.29167E-04   -0.32813E-04 10962   0.781E-04 0.413E-04
CGA:  17    -0.353514071183E+03   -0.23895E-04   -0.23896E-04 10962   0.387E-04-0.207E-05
CGA:  18    -0.353514080589E+03   -0.94058E-05   -0.94064E-05 10962   0.218E-04 0.620E-06
  17 F= -.35351408E+03 E0= -.35351408E+03  d E =0.148357E+01  mag=     8.0000
       N       E                     dE             d eps       ncg     rms          ort
SDA:   1    -0.351339478862E+03    0.21746E+01    0.00000E+00 10962   0.795E+01 0.000E+00
CGA:   2    -0.353947242185E+03   -0.26078E+01   -0.26117E+01 10962   0.257E+01-0.438E-01
CGA:   3    -0.354530138040E+03   -0.58290E+00   -0.58298E+00 10962   0.856E+00 0.117E-02
CGA:   4    -0.354649763991E+03   -0.11963E+00   -0.11944E+00 10962   0.260E+00-0.199E-02
CGA:   5    -0.354701432525E+03   -0.51669E-01   -0.51610E-01 10962   0.880E-01-0.121E-02
CGA:   6    -0.354717348705E+03   -0.15916E-01   -0.15916E-01 10962   0.348E-01-0.345E-04
CGA:   7    -0.354726405087E+03   -0.90564E-02   -0.90763E-02 10962   0.155E-01-0.885E-03
CGA:   8    -0.354729746808E+03   -0.33417E-02   -0.33339E-02 10962   0.633E-02-0.416E-03
CGA:   9    -0.354731253006E+03   -0.15062E-02   -0.15053E-02 10962   0.205E-02 0.172E-03
CGA:  10    -0.354731781978E+03   -0.52897E-03   -0.52926E-03 10962   0.695E-03-0.233E-04
CGA:  11    -0.354731957865E+03   -0.17589E-03   -0.17567E-03 10962   0.207E-03 0.135E-04
CGA:  12    -0.354731999351E+03   -0.41486E-04   -0.43481E-04 10962   0.652E-04 0.572E-04
CGA:  13    -0.354732015942E+03   -0.16591E-04   -0.17333E-04 10962   0.271E-04 0.243E-04
CGA:  14    -0.354732023282E+03   -0.73401E-05   -0.77730E-05 10962   0.146E-04 0.153E-04
  18 F= -.35473202E+03 E0= -.35473202E+03  d E =-.121794E+01  mag=     8.0000
       N       E                     dE             d eps       ncg     rms          ort
SDA:   1    -0.353950347106E+03    0.78167E+00    0.00000E+00 10962   0.243E+01 0.000E+00
CGA:   2    -0.354742207676E+03   -0.79186E+00   -0.79218E+00 10962   0.833E+00-0.344E-02
CGA:   3    -0.354918324908E+03   -0.17612E+00   -0.17614E+00 10962   0.327E+00 0.566E-03
CGA:   4    -0.354962635181E+03   -0.44310E-01   -0.44265E-01 10962   0.853E-01-0.581E-03
CGA:   5    -0.354979629947E+03   -0.16995E-01   -0.16979E-01 10962   0.305E-01-0.503E-03
CGA:   6    -0.354985089133E+03   -0.54592E-02   -0.54608E-02 10962   0.111E-01 0.274E-04
CGA:   7    -0.354987960172E+03   -0.28710E-02   -0.28797E-02 10962   0.541E-02-0.258E-03
CGA:   8    -0.354989130266E+03   -0.11701E-02   -0.11687E-02 10962   0.208E-02-0.185E-03
CGA:   9    -0.354989620983E+03   -0.49072E-03   -0.48925E-03 10962   0.699E-03 0.981E-04
CGA:  10    -0.354989808775E+03   -0.18779E-03   -0.18831E-03 10962   0.247E-03-0.183E-04
CGA:  11    -0.354989867541E+03   -0.58766E-04   -0.58509E-04 10962   0.732E-04 0.197E-04
CGA:  12    -0.354989883434E+03   -0.15893E-04   -0.16390E-04 10962   0.248E-04 0.209E-04
CGA:  13    -0.354989890888E+03   -0.74537E-05   -0.74278E-05 10962   0.114E-04 0.788E-05
  19 F= -.35498989E+03 E0= -.35498989E+03  d E =-.257868E+00  mag=     8.0000
       N       E                     dE             d eps       ncg     rms          ort
SDA:   1    -0.354734036053E+03    0.25585E+00    0.00000E+00 10962   0.691E+00 0.000E+00
CGA:   2    -0.354949469711E+03   -0.21543E+00   -0.21546E+00 10962   0.292E+00-0.430E-03
CGA:   3    -0.354999580894E+03   -0.50111E-01   -0.50126E-01 10962   0.121E+00 0.184E-03
CGA:   4    -0.355017107956E+03   -0.17527E-01   -0.17529E-01 10962   0.287E-01-0.973E-05
CGA:   5    -0.355022412962E+03   -0.53050E-02   -0.52998E-02 10962   0.103E-01-0.138E-03
CGA:   6    -0.355024321539E+03   -0.19086E-02   -0.19081E-02 10962   0.348E-02-0.150E-04
CGA:   7    -0.355025154565E+03   -0.83303E-03   -0.83401E-03 10962   0.175E-02-0.499E-04
CGA:   8    -0.355025568246E+03   -0.41368E-03   -0.41523E-03 10962   0.656E-03-0.791E-04
CGA:   9    -0.355025717900E+03   -0.14965E-03   -0.14904E-03 10962   0.231E-03 0.393E-04
CGA:  10    -0.355025780108E+03   -0.62207E-04   -0.61986E-04 10962   0.735E-04 0.727E-05
CGA:  11    -0.355025801070E+03   -0.20962E-04   -0.20912E-04 10962   0.264E-04 0.956E-06
CGA:  12    -0.355025805623E+03   -0.45533E-05   -0.49382E-05 10962   0.903E-05 0.906E-05
  20 F= -.35502581E+03 E0= -.35502581E+03  d E =-.359147E-01  mag=     8.0000
       N       E                     dE             d eps       ncg     rms          ort
SDA:   1    -0.355004210838E+03    0.21590E-01    0.00000E+00 10962   0.744E-01 0.000E+00
CGA:   2    -0.355022148439E+03   -0.17938E-01   -0.17938E-01 10962   0.446E-01-0.654E-04
CGA:   3    -0.355029039759E+03   -0.68913E-02   -0.68882E-02 10962   0.148E-01-0.523E-04
CGA:   4    -0.355031279275E+03   -0.22395E-02   -0.22423E-02 10962   0.370E-02 0.349E-04
CGA:   5    -0.355031897003E+03   -0.61773E-03   -0.61958E-03 10962   0.108E-02 0.348E-04
CGA:   6    -0.355032097924E+03   -0.20092E-03   -0.20108E-03 10962   0.359E-03 0.495E-05
CGA:   7    -0.355032176224E+03   -0.78301E-04   -0.78294E-04 10962   0.149E-03 0.226E-05
CGA:   8    -0.355032214632E+03   -0.38408E-04   -0.38437E-04 10962   0.632E-04-0.730E-06
CGA:   9    -0.355032229517E+03   -0.14885E-04   -0.14796E-04 10962   0.228E-04 0.472E-05
CGA:  10    -0.355032234415E+03   -0.48983E-05   -0.49883E-05 10962   0.684E-05 0.649E-05
  21 F= -.35503223E+03 E0= -.35503223E+03  d E =-.642879E-02  mag=     8.0000
       N       E                     dE             d eps       ncg     rms          ort
SDA:   1    -0.354998117974E+03    0.34112E-01    0.00000E+00 10962   0.108E+00 0.000E+00
CGA:   2    -0.355023101921E+03   -0.24984E-01   -0.24982E-01 10962   0.638E-01 0.101E-03
CGA:   3    -0.355033181225E+03   -0.10079E-01   -0.10075E-01 10962   0.218E-01-0.768E-04
CGA:   4    -0.355036487297E+03   -0.33061E-02   -0.33075E-02 10962   0.531E-02 0.160E-04
CGA:   5    -0.355037372534E+03   -0.88524E-03   -0.88841E-03 10962   0.149E-02 0.666E-04
CGA:   6    -0.355037655830E+03   -0.28330E-03   -0.28358E-03 10962   0.503E-03 0.120E-04
CGA:   7    -0.355037761878E+03   -0.10605E-03   -0.10607E-03 10962   0.198E-03 0.151E-04
CGA:   8    -0.355037809896E+03   -0.48018E-04   -0.47586E-04 10962   0.743E-04 0.187E-04
CGA:   9    -0.355037830222E+03   -0.20326E-04   -0.20085E-04 10962   0.301E-04 0.686E-05
CGA:  10    -0.355037837617E+03   -0.73949E-05   -0.73267E-05 10962   0.964E-05 0.732E-05
  22 F= -.35503784E+03 E0= -.35503784E+03  d E =-.560320E-02  mag=     8.0000
       N       E                     dE             d eps       ncg     rms          ort
SDA:   1    -0.355029987111E+03    0.78431E-02    0.00000E+00 10962   0.285E-01 0.000E+00
CGA:   2    -0.355035878114E+03   -0.58910E-02   -0.58927E-02 10962   0.168E-01 0.894E-04
CGA:   3    -0.355038683989E+03   -0.28059E-02   -0.28043E-02 10962   0.599E-02-0.321E-04
CGA:   4    -0.355039561234E+03   -0.87725E-03   -0.87661E-03 10962   0.129E-02-0.102E-04
CGA:   5    -0.355039767373E+03   -0.20614E-03   -0.20830E-03 10962   0.324E-03 0.393E-04
CGA:   6    -0.355039830801E+03   -0.63428E-04   -0.63518E-04 10962   0.110E-03 0.388E-05
CGA:   7    -0.355039852412E+03   -0.21611E-04   -0.21730E-04 10962   0.378E-04 0.728E-05
CGA:   8    -0.355039860101E+03   -0.76898E-05   -0.78589E-05 10962   0.140E-04 0.105E-04
  23 F= -.35503986E+03 E0= -.35503986E+03  d E =-.202248E-02  mag=     8.0000
       N       E                     dE             d eps       ncg     rms          ort
SDA:   1    -0.354915660517E+03    0.12419E+00    0.00000E+00 10962   0.373E+00 0.000E+00
CGA:   2    -0.354994499428E+03   -0.78839E-01   -0.78838E-01 10962   0.225E+00 0.546E-03
CGA:   3    -0.355031535205E+03   -0.37036E-01   -0.37027E-01 10962   0.773E-01-0.250E-03
CGA:   4    -0.355042731581E+03   -0.11196E-01   -0.11191E-01 10962   0.156E-01-0.111E-03
CGA:   5    -0.355045237402E+03   -0.25058E-02   -0.25142E-02 10962   0.418E-02 0.188E-03
CGA:   6    -0.355046013817E+03   -0.77641E-03   -0.77665E-03 10962   0.135E-02 0.116E-04
CGA:   7    -0.355046288951E+03   -0.27513E-03   -0.27513E-03 10962   0.466E-03 0.433E-05
CGA:   8    -0.355046397891E+03   -0.10894E-03   -0.10780E-03 10962   0.189E-03 0.391E-04
CGA:   9    -0.355046455491E+03   -0.57600E-04   -0.57283E-04 10962   0.926E-04 0.415E-05
CGA:  10    -0.355046479547E+03   -0.24056E-04   -0.23439E-04 10962   0.352E-04 0.152E-04
CGA:  11    -0.355046493172E+03   -0.13625E-04   -0.15091E-04 10962   0.242E-04-0.923E-05
CGA:  12    -0.355046497887E+03   -0.47152E-05   -0.47181E-05 10962   0.119E-04-0.705E-07
  24 F= -.35504650E+03 E0= -.35504650E+03  d E =-.663779E-02  mag=     8.0000
       N       E                     dE             d eps       ncg     rms          ort
SDA:   1    -0.354857336463E+03    0.18916E+00    0.00000E+00 10962   0.540E+00 0.000E+00
CGA:   2    -0.354980999436E+03   -0.12366E+00   -0.12366E+00 10962   0.335E+00 0.214E-03
CGA:   3    -0.355034131846E+03   -0.53132E-01   -0.53117E-01 10962   0.108E+00-0.286E-03
CGA:   4    -0.355049438075E+03   -0.15306E-01   -0.15304E-01 10962   0.208E-01-0.603E-04
CGA:   5    -0.355052723747E+03   -0.32857E-02   -0.32999E-02 10962   0.561E-02 0.236E-03
CGA:   6    -0.355053761550E+03   -0.10378E-02   -0.10385E-02 10962   0.175E-02 0.197E-04
CGA:   7    -0.355054121601E+03   -0.36005E-03   -0.35972E-03 10962   0.597E-03-0.377E-04
CGA:   8    -0.355054268985E+03   -0.14738E-03   -0.14762E-03 10962   0.279E-03-0.621E-05
CGA:   9    -0.355054349957E+03   -0.80972E-04   -0.83154E-04 10962   0.153E-03-0.252E-04
CGA:  10    -0.355054385959E+03   -0.36002E-04   -0.35580E-04 10962   0.560E-04 0.115E-04
CGA:  11    -0.355054405432E+03   -0.19473E-04   -0.21368E-04 10962   0.331E-04-0.142E-04
CGA:  12    -0.355054410954E+03   -0.55214E-05   -0.55373E-05 10962   0.144E-04 0.430E-05
  25 F= -.35505441E+03 E0= -.35505441E+03  d E =-.791307E-02  mag=     8.0000
       N       E                     dE             d eps       ncg     rms          ort
SDA:   1    -0.342528791708E+03    0.12526E+02    0.00000E+00 10962   0.329E+02 0.000E+00
CGA:   2    -0.350907662767E+03   -0.83789E+01   -0.83762E+01 10962   0.200E+02 0.638E-01
CGA:   3    -0.353962146263E+03   -0.30545E+01   -0.30537E+01 10962   0.592E+01 0.799E-02
CGA:   4    -0.354801770748E+03   -0.83962E+00   -0.83928E+00 10962   0.116E+01-0.232E-02
CGA:   5    -0.354991147559E+03   -0.18938E+00   -0.18954E+00 10962   0.330E+00 0.158E-02
CGA:   6    -0.355052108537E+03   -0.60961E-01   -0.60970E-01 10962   0.103E+00 0.177E-03
CGA:   7    -0.355072963021E+03   -0.20854E-01   -0.20845E-01 10962   0.355E-01-0.617E-03
CGA:   8    -0.355082095074E+03   -0.91321E-02   -0.91433E-02 10962   0.171E-01-0.294E-03
CGA:   9    -0.355086949781E+03   -0.48547E-02   -0.49131E-02 10962   0.871E-02-0.844E-03
CGA:  10    -0.355089339729E+03   -0.23899E-02   -0.24088E-02 10962   0.352E-02-0.281E-03
CGA:  11    -0.355090322164E+03   -0.98243E-03   -0.99695E-03 10962   0.134E-02-0.223E-03
CGA:  12    -0.355090707571E+03   -0.38541E-03   -0.38436E-03 10962   0.573E-03 0.135E-04
CGA:  13    -0.355090922366E+03   -0.21480E-03   -0.21496E-03 10962   0.328E-03-0.178E-05
CGA:  14    -0.355091036685E+03   -0.11432E-03   -0.10950E-03 10962   0.155E-03 0.508E-04
CGA:  15    -0.355091102568E+03   -0.65882E-04   -0.64997E-04 10962   0.735E-04 0.711E-05
CGA:  16    -0.355091128645E+03   -0.26077E-04   -0.25676E-04 10962   0.372E-04 0.466E-05
CGA:  17    -0.355091131932E+03   -0.32871E-05   -0.30961E-04 10962   0.178E-03-0.530E-04
CGA:  18    -0.355091158055E+03   -0.26123E-04   -0.27489E-04 10962   0.345E-04 0.105E-04
CGA:  19    -0.355091170926E+03   -0.12871E-04   -0.14380E-04 10962   0.181E-04-0.129E-04
CGA:  20    -0.355091178639E+03   -0.77138E-05    0.75737E-05 10962   0.914E-05 0.423E-05
  26 F= -.35509118E+03 E0= -.35509118E+03  d E =-.367677E-01  mag=     8.0000
       N       E                     dE             d eps       ncg     rms          ort
SDA:   1    -0.352687424858E+03    0.24037E+01    0.00000E+00 10962   0.597E+01 0.000E+00
CGA:   2    -0.354444778374E+03   -0.17574E+01   -0.17574E+01 10962   0.340E+01 0.409E-03
CGA:   3    -0.354926924583E+03   -0.48215E+00   -0.48227E+00 10962   0.921E+00 0.964E-03
CGA:   4    -0.355058573883E+03   -0.13165E+00   -0.13158E+00 10962   0.199E+00-0.542E-03
CGA:   5    -0.355091739423E+03   -0.33166E-01   -0.33125E-01 10962   0.578E-01-0.392E-03
CGA:   6    -0.355102202944E+03   -0.10464E-01   -0.10477E-01 10962   0.171E-01 0.126E-03
CGA:   7    -0.355105593038E+03   -0.33901E-02   -0.33988E-02 10962   0.586E-02 0.109E-03
CGA:   8    -0.355107076860E+03   -0.14838E-02   -0.14855E-02 10962   0.260E-02 0.895E-04
CGA:   9    -0.355107819493E+03   -0.74263E-03   -0.74286E-03 10962   0.127E-02-0.198E-04
CGA:  10    -0.355108205683E+03   -0.38619E-03   -0.39087E-03 10962   0.564E-03-0.115E-03
CGA:  11    -0.355108340531E+03   -0.13485E-03   -0.13485E-03 10962   0.188E-03-0.161E-06
CGA:  12    -0.355108408258E+03   -0.67727E-04   -0.75303E-04 10962   0.136E-03-0.587E-04
CGA:  13    -0.355108430068E+03   -0.21810E-04   -0.22628E-04 10962   0.720E-04 0.222E-04
CGA:  14    -0.355108458296E+03   -0.28228E-04   -0.29052E-04 10962   0.540E-04-0.118E-04
CGA:  15    -0.355108189219E+03    0.26908E-03   -0.14487E-03 10962   0.113E-02-0.228E-03
CGA:  16    -0.355108394842E+03   -0.20562E-03   -0.24483E-03 10962   0.158E-03 0.133E-03
CGA:  17    -0.355108286447E+03    0.10839E-03   -0.20632E-03 10962   0.172E-02-0.468E-03
CGA:  18    -0.355108357212E+03   -0.70765E-04   -0.24201E-03 10962   0.327E-03 0.438E-03
CGA:  19    -0.355108444900E+03   -0.87688E-04   -0.99376E-04 10962   0.771E-04 0.435E-04
CGA:  20    -0.355108598692E+03   -0.15379E-03    0.28081E-04 10962   0.382E-03-0.174E-03
CGA:  21    -0.355108554511E+03    0.44180E-04   -0.29543E-04 10962   0.865E-04 0.175E-03
CGA:  22    -0.355108529790E+03    0.24721E-04   -0.60350E-05 10962   0.327E-04 0.718E-04
CGA:  23    -0.355108521711E+03    0.80784E-05   -0.18938E-05 10962   0.196E-04 0.251E-04
  27 F= -.35510852E+03 E0= -.35510852E+03  d E =-.173431E-01  mag=     8.0000
       N       E                     dE             d eps       ncg     rms          ort
SDA:   1    -0.353161678659E+03    0.19469E+01    0.00000E+00 10962   0.523E+01 0.000E+00
CGA:   2    -0.354402920222E+03   -0.12412E+01   -0.12424E+01 10962   0.324E+01 0.167E-02
CGA:   3    -0.354910703993E+03   -0.50778E+00   -0.50769E+00 10962   0.101E+01 0.355E-02
CGA:   4    -0.355054884425E+03   -0.14418E+00   -0.14404E+00 10962   0.196E+00-0.402E-04
CGA:   5    -0.355086948399E+03   -0.32064E-01   -0.32025E-01 10962   0.551E-01-0.213E-03
CGA:   6    -0.355097051639E+03   -0.10103E-01   -0.10100E-01 10962   0.173E-01-0.297E-04
CGA:   7    -0.355100511430E+03   -0.34598E-02   -0.34547E-02 10962   0.580E-02-0.381E-04
CGA:   8    -0.355101971973E+03   -0.14605E-02   -0.14642E-02 10962   0.267E-02 0.331E-04
CGA:   9    -0.355102749049E+03   -0.77708E-03   -0.77169E-03 10962   0.135E-02-0.884E-04
CGA:  10    -0.355103130392E+03   -0.38134E-03   -0.38028E-03 10962   0.562E-03-0.197E-04
CGA:  11    -0.355103281262E+03   -0.15087E-03   -0.15192E-03 10962   0.201E-03 0.152E-04
CGA:  12    -0.355103351490E+03   -0.70228E-04   -0.70250E-04 10962   0.104E-03-0.144E-04
CGA:  13    -0.355103371820E+03   -0.20330E-04   -0.23337E-04 10962   0.455E-04 0.308E-04
CGA:  14    -0.355103390980E+03   -0.19160E-04   -0.19204E-04 10962   0.276E-04 0.470E-05
CGA:  15    -0.355103398857E+03   -0.78778E-05   -0.83635E-05 10962   0.137E-04 0.810E-05
  28 F= -.35510340E+03 E0= -.35510340E+03  d E =0.512285E-02  mag=     8.0000
       N       E                     dE             d eps       ncg     rms          ort
SDA:   1    -0.354905467724E+03    0.19792E+00    0.00000E+00 10962   0.597E+00 0.000E+00
CGA:   2    -0.355019222440E+03   -0.11375E+00   -0.11380E+00 10962   0.355E+00-0.537E-05
CGA:   3    -0.355081306096E+03   -0.62084E-01   -0.62042E-01 10962   0.133E+00-0.330E-03
CGA:   4    -0.355100023975E+03   -0.18718E-01   -0.18691E-01 10962   0.247E-01-0.182E-03
CGA:   5    -0.355103980233E+03   -0.39563E-02   -0.39616E-02 10962   0.688E-02 0.309E-04
CGA:   6    -0.355105246237E+03   -0.12660E-02   -0.12688E-02 10962   0.216E-02 0.232E-04
CGA:   7    -0.355105684040E+03   -0.43780E-03   -0.43478E-03 10962   0.682E-03-0.352E-04
CGA:   8    -0.355105839847E+03   -0.15581E-03   -0.15601E-03 10962   0.264E-03 0.371E-05
CGA:   9    -0.355105913543E+03   -0.73696E-04   -0.73629E-04 10962   0.120E-03-0.161E-04
CGA:  10    -0.355105943765E+03   -0.30223E-04   -0.30206E-04 10962   0.434E-04-0.136E-05
CGA:  11    -0.355105952197E+03   -0.84319E-05   -0.90843E-05 10962   0.127E-04 0.948E-05
  29 F= -.35510595E+03 E0= -.35510595E+03  d E =-.255334E-02  mag=     8.0000
       N       E                     dE             d eps       ncg     rms          ort
SDA:   1    -0.354675751476E+03    0.43019E+00    0.00000E+00 10962   0.108E+01 0.000E+00
CGA:   2    -0.354997796796E+03   -0.32205E+00   -0.32204E+00 10962   0.577E+00-0.281E-03
CGA:   3    -0.355081961627E+03   -0.84165E-01   -0.84188E-01 10962   0.166E+00 0.870E-04
CGA:   4    -0.355105131709E+03   -0.23170E-01   -0.23170E-01 10962   0.329E-01-0.424E-04
CGA:   5    -0.355110589725E+03   -0.54580E-02   -0.54595E-02 10962   0.973E-02 0.684E-05
CGA:   6    -0.355112365526E+03   -0.17758E-02   -0.17770E-02 10962   0.282E-02 0.135E-04
CGA:   7    -0.355112927621E+03   -0.56210E-03   -0.56298E-03 10962   0.974E-03 0.144E-04
CGA:   8    -0.355113178723E+03   -0.25110E-03   -0.25105E-03 10962   0.457E-03 0.130E-04
CGA:   9    -0.355113309949E+03   -0.13123E-03   -0.13109E-03 10962   0.230E-03 0.470E-05
CGA:  10    -0.355113383921E+03   -0.73972E-04   -0.75567E-04 10962   0.111E-03-0.227E-04
CGA:  11    -0.355113413905E+03   -0.29985E-04   -0.30743E-04 10962   0.470E-04-0.156E-04
CGA:  12    -0.355113426780E+03   -0.12875E-04   -0.13219E-04 10962   0.216E-04-0.517E-05
CGA:  13    -0.355113434360E+03   -0.75801E-05   -0.10439E-04 10962   0.254E-04-0.103E-04
  30 F= -.35511343E+03 E0= -.35511343E+03  d E =-.748216E-02  mag=     8.0000
       N       E                     dE             d eps       ncg     rms          ort
SDA:   1    -0.339487021292E+03    0.15626E+02    0.00000E+00 10962   0.380E+02 0.000E+00
CGA:   2    -0.351320238398E+03   -0.11833E+02   -0.11832E+02 10962   0.189E+02 0.208E-02
CGA:   3    -0.354089620755E+03   -0.27694E+01   -0.27737E+01 10962   0.547E+01 0.991E-02
CGA:   4    -0.354847488028E+03   -0.75787E+00   -0.75766E+00 10962   0.111E+01-0.992E-03
CGA:   5    -0.355036047856E+03   -0.18856E+00   -0.18834E+00 10962   0.342E+00-0.238E-02
CGA:   6    -0.355099569532E+03   -0.63522E-01   -0.63549E-01 10962   0.102E+00 0.198E-03
CGA:   7    -0.355120485066E+03   -0.20916E-01   -0.20895E-01 10962   0.381E-01-0.444E-03
CGA:   8    -0.355130599997E+03   -0.10115E-01   -0.10122E-01 10962   0.186E-01-0.637E-03
CGA:   9    -0.355135731486E+03   -0.51315E-02   -0.51417E-02 10962   0.889E-02-0.399E-03
CGA:  10    -0.355138344930E+03   -0.26134E-02   -0.26543E-02 10962   0.367E-02-0.846E-03
CGA:  11    -0.355139222477E+03   -0.87755E-03   -0.87772E-03 10962   0.122E-02-0.360E-04
CGA:  12    -0.355139644063E+03   -0.42159E-03   -0.44426E-03 10962   0.722E-03-0.213E-03
CGA:  13    -0.355139814291E+03   -0.17023E-03   -0.16802E-03 10962   0.359E-03 0.132E-03
CGA:  14    -0.355139979806E+03   -0.16551E-03   -0.16990E-03 10962   0.262E-03-0.334E-04
CGA:  15    -0.355140063307E+03   -0.83501E-04   -0.83125E-04 10962   0.150E-03 0.426E-05
CGA:  16    -0.355140114535E+03   -0.51229E-04   -0.51444E-04 10962   0.708E-04-0.388E-05
CGA:  17    -0.355140154397E+03   -0.39861E-04    0.28487E-03 10962   0.352E-04 0.127E-04
CGA:  18    -0.355140172718E+03   -0.18321E-04   -0.20069E-04 10962   0.373E-04-0.869E-05
CGA:  19    -0.355140201684E+03   -0.28966E-04    0.52052E-05 10962   0.303E-04 0.571E-05
CGA:  20    -0.355140222618E+03   -0.20934E-04    0.14608E-03 10962   0.155E-04 0.476E-05
CGA:  21    -0.355140223640E+03   -0.10222E-05   -0.25763E-05 10962   0.936E-05 0.106E-04
  31 F= -.35514022E+03 E0= -.35514022E+03  d E =-.267893E-01  mag=     8.0000
       N       E                     dE             d eps       ncg     rms          ort
SDA:   1    -0.345675736968E+03    0.94645E+01    0.00000E+00 10962   0.269E+02 0.000E+00
CGA:   2    -0.350717316593E+03   -0.50416E+01   -0.50548E+01 10962   0.151E+02 0.146E-01
CGA:   3    -0.353398827294E+03   -0.26815E+01   -0.26798E+01 10962   0.607E+01 0.158E-02
CGA:   4    -0.354287478270E+03   -0.88865E+00   -0.88801E+00 10962   0.132E+01 0.262E-02
CGA:   5    -0.354506389518E+03   -0.21891E+00   -0.21958E+00 10962   0.386E+00 0.421E-02
CGA:   6    -0.354578934075E+03   -0.72545E-01   -0.72706E-01 10962   0.127E+00 0.190E-02
CGA:   7    -0.354605211305E+03   -0.26277E-01   -0.26268E-01 10962   0.457E-01-0.147E-03
CGA:   8    -0.354616333382E+03   -0.11122E-01   -0.11129E-01 10962   0.186E-01 0.361E-03
CGA:   9    -0.354621086181E+03   -0.47528E-02   -0.47493E-02 10962   0.724E-02-0.426E-03
CGA:  10    -0.354622964927E+03   -0.18787E-02   -0.18786E-02 10962   0.245E-02 0.331E-04
CGA:  11    -0.354623565810E+03   -0.60088E-03   -0.60404E-03 10962   0.750E-03 0.201E-03
CGA:  12    -0.354623815665E+03   -0.24986E-03   -0.25063E-03 10962   0.312E-03-0.165E-04
CGA:  13    -0.354623869199E+03   -0.53534E-04   -0.60747E-04 10962   0.127E-03 0.112E-03
CGA:  14    -0.354623915977E+03   -0.46778E-04   -0.46556E-04 10962   0.735E-04 0.217E-04
CGA:  15    -0.354623949738E+03   -0.33761E-04   -0.35420E-04 10962   0.696E-04-0.111E-04
CGA:  16    -0.354623949218E+03    0.51998E-06   -0.59423E-05 10962   0.504E-04 0.386E-04
  32 F= -.35462395E+03 E0= -.35462395E+03  d E =0.516274E+00  mag=     8.0000
       N       E                     dE             d eps       ncg     rms          ort
SDA:   1    -0.353449738373E+03    0.11742E+01    0.00000E+00 10962   0.378E+01 0.000E+00
CGA:   2    -0.354671316894E+03   -0.12216E+01   -0.12215E+01 10962   0.136E+01 0.512E-03
CGA:   3    -0.354938544126E+03   -0.26723E+00   -0.26738E+00 10962   0.565E+00 0.173E-02
CGA:   4    -0.355017090553E+03   -0.78546E-01   -0.78453E-01 10962   0.140E+00-0.776E-03
CGA:   5    -0.355044329805E+03   -0.27239E-01   -0.27185E-01 10962   0.505E-01-0.971E-03
CGA:   6    -0.355053482267E+03   -0.91525E-02   -0.91683E-02 10962   0.181E-01 0.236E-03
CGA:   7    -0.355057950956E+03   -0.44687E-02   -0.44685E-02 10962   0.864E-02 0.846E-04
CGA:   8    -0.355059914271E+03   -0.19633E-02   -0.19614E-02 10962   0.321E-02-0.107E-03
CGA:   9    -0.355060691658E+03   -0.77739E-03   -0.77699E-03 10962   0.114E-02 0.170E-03
CGA:  10    -0.355061005409E+03   -0.31375E-03   -0.31444E-03 10962   0.393E-03-0.378E-04
CGA:  11    -0.355061104626E+03   -0.99217E-04   -0.99011E-04 10962   0.123E-03 0.121E-04
CGA:  12    -0.355061135683E+03   -0.31057E-04   -0.31048E-04 10962   0.401E-04 0.145E-04
CGA:  13    -0.355061149250E+03   -0.13567E-04   -0.26142E-04 10962   0.847E-04-0.372E-04
CGA:  14    -0.355061157736E+03   -0.84858E-05   -0.11708E-04 10962   0.155E-04 0.261E-04
  33 F= -.35506116E+03 E0= -.35506116E+03  d E =-.437209E+00  mag=     8.0000
       N       E                     dE             d eps       ncg     rms          ort
SDA:   1    -0.354711825992E+03    0.34932E+00    0.00000E+00 10962   0.101E+01 0.000E+00
CGA:   2    -0.355028489012E+03   -0.31666E+00   -0.31660E+00 10962   0.406E+00 0.814E-03
CGA:   3    -0.355100239781E+03   -0.71751E-01   -0.71818E-01 10962   0.169E+00 0.660E-03
CGA:   4    -0.355124835813E+03   -0.24596E-01   -0.24583E-01 10962   0.405E-01-0.140E-03
CGA:   5    -0.355132474065E+03   -0.76383E-02   -0.76156E-02 10962   0.144E-01-0.370E-03
CGA:   6    -0.355135117896E+03   -0.26438E-02   -0.26487E-02 10962   0.509E-02 0.789E-04
CGA:   7    -0.355136275887E+03   -0.11580E-02   -0.11608E-02 10962   0.233E-02 0.170E-03
CGA:   8    -0.355136835178E+03   -0.55929E-03   -0.55994E-03 10962   0.843E-03 0.612E-04
CGA:   9    -0.355137045622E+03   -0.21044E-03   -0.21037E-03 10962   0.322E-03 0.705E-04
CGA:  10    -0.355137138765E+03   -0.93143E-04   -0.93283E-04 10962   0.114E-03-0.553E-05
CGA:  11    -0.355137169746E+03   -0.30981E-04   -0.31017E-04 10962   0.408E-04-0.109E-05
CGA:  12    -0.355137180292E+03   -0.10546E-04   -0.10507E-04 10962   0.140E-04 0.258E-05
CGA:  13    -0.355137130708E+03    0.49584E-04   -0.27014E-04 10962   0.308E-03-0.567E-04
CGA:  14    -0.355137178385E+03   -0.47677E-04   -0.55682E-04 10962   0.472E-04 0.297E-04
CGA:  15    -0.355137196669E+03   -0.18284E-04   -0.15586E-04 10962   0.343E-04-0.202E-04
CGA:  16    -0.355137195854E+03    0.81510E-06   -0.19261E-05 10962   0.171E-04 0.830E-05
  34 F= -.35513720E+03 E0= -.35513720E+03  d E =-.760381E-01  mag=     8.0000
       N       E                     dE             d eps       ncg     rms          ort
SDA:   1    -0.354998191459E+03    0.13901E+00    0.00000E+00 10962   0.366E+00 0.000E+00
CGA:   2    -0.355093462412E+03   -0.95271E-01   -0.95359E-01 10962   0.213E+00 0.490E-03
CGA:   3    -0.355126171191E+03   -0.32709E-01   -0.32764E-01 10962   0.725E-01 0.206E-03
CGA:   4    -0.355137295356E+03   -0.11124E-01   -0.11124E-01 10962   0.186E-01-0.183E-04
CGA:   5    -0.355140546490E+03   -0.32511E-02   -0.32322E-02 10962   0.567E-02-0.104E-03
CGA:   6    -0.355141615152E+03   -0.10687E-02   -0.10672E-02 10962   0.201E-02-0.101E-04
CGA:   7    -0.355142021469E+03   -0.40632E-03   -0.41918E-03 10962   0.793E-03 0.926E-04
CGA:   8    -0.355142201559E+03   -0.18009E-03   -0.19058E-03 10962   0.286E-03 0.948E-04
CGA:   9    -0.355142274672E+03   -0.73114E-04   -0.76280E-04 10962   0.114E-03 0.327E-04
CGA:  10    -0.355142307144E+03   -0.32471E-04   -0.33144E-04 10962   0.396E-04 0.982E-05
CGA:  11    -0.355142320669E+03   -0.13526E-04   -0.13448E-04 10962   0.192E-04-0.565E-05
CGA:  12    -0.355142325415E+03   -0.47461E-05   -0.46974E-05 10962   0.704E-05-0.119E-05
  35 F= -.35514233E+03 E0= -.35514233E+03  d E =-.512956E-02  mag=     8.0000
       N       E                     dE             d eps       ncg     rms          ort
SDA:   1    -0.355103795610E+03    0.38525E-01    0.00000E+00 10962   0.139E+00 0.000E+00
CGA:   2    -0.355126953388E+03   -0.23158E-01   -0.23237E-01 10962   0.687E-01 0.327E-03
CGA:   3    -0.355139434018E+03   -0.12481E-01   -0.12516E-01 10962   0.312E-01 0.184E-03
CGA:   4    -0.355144179621E+03   -0.47456E-02   -0.47478E-02 10962   0.693E-02 0.471E-05
CGA:   5    -0.355145306262E+03   -0.11266E-02   -0.11188E-02 10962   0.191E-02-0.468E-04
CGA:   6    -0.355145670184E+03   -0.36392E-03   -0.35915E-03 10962   0.607E-03-0.347E-04
CGA:   7    -0.355145778783E+03   -0.10860E-03   -0.11369E-03 10962   0.186E-03 0.383E-04
CGA:   8    -0.355145807382E+03   -0.28599E-04   -0.35706E-04 10962   0.613E-04 0.523E-04
CGA:   9    -0.355145817160E+03   -0.97782E-05   -0.13602E-04 10962   0.251E-04 0.281E-04
  36 F= -.35514582E+03 E0= -.35514582E+03  d E =-.349174E-02  mag=     8.0000
       N       E                     dE             d eps       ncg     rms          ort
SDA:   1    -0.355119535325E+03    0.26272E-01    0.00000E+00 10962   0.949E-01 0.000E+00
CGA:   2    -0.355136292782E+03   -0.16757E-01   -0.16782E-01 10962   0.503E-01 0.165E-03
CGA:   3    -0.355145294800E+03   -0.90020E-02   -0.90064E-02 10962   0.214E-01 0.276E-04
CGA:   4    -0.355148474853E+03   -0.31801E-02   -0.31757E-02 10962   0.470E-02-0.369E-04
CGA:   5    -0.355149256062E+03   -0.78121E-03   -0.77911E-03 10962   0.141E-02-0.204E-04
CGA:   6    -0.355149518438E+03   -0.26238E-03   -0.26131E-03 10962   0.452E-03-0.127E-04
CGA:   7    -0.355149604346E+03   -0.85908E-04   -0.86936E-04 10962   0.144E-03 0.137E-04
CGA:   8    -0.355149636180E+03   -0.31834E-04   -0.32646E-04 10962   0.526E-04 0.179E-04
CGA:   9    -0.355149650708E+03   -0.14528E-04   -0.14588E-04 10962   0.208E-04 0.379E-05
CGA:  10    -0.355149656760E+03   -0.60521E-05   -0.60441E-05 10962   0.825E-05 0.847E-06
  37 F= -.35514966E+03 E0= -.35514966E+03  d E =-.383960E-02  mag=     8.0000
       N       E                     dE             d eps       ncg     rms          ort
SDA:   1    -0.355140408189E+03    0.92425E-02    0.00000E+00 10962   0.364E-01 0.000E+00
CGA:   2    -0.355145970481E+03   -0.55623E-02   -0.55705E-02 10962   0.160E-01 0.515E-04
CGA:   3    -0.355149049099E+03   -0.30786E-02   -0.30788E-02 10962   0.812E-02-0.330E-05
CGA:   4    -0.355150286685E+03   -0.12376E-02   -0.12353E-02 10962   0.168E-02-0.229E-04
CGA:   5    -0.355150556327E+03   -0.26964E-03   -0.26891E-03 10962   0.437E-03-0.822E-05
CGA:   6    -0.355150638273E+03   -0.81946E-04   -0.81563E-04 10962   0.142E-03-0.622E-05
CGA:   7    -0.355150664792E+03   -0.26520E-04   -0.26643E-04 10962   0.406E-04 0.207E-05
CGA:   8    -0.355150673889E+03   -0.90972E-05   -0.91501E-05 10962   0.146E-04 0.229E-05
  38 F= -.35515067E+03 E0= -.35515067E+03  d E =-.101713E-02  mag=     8.0000
       N       E                     dE             d eps       ncg     rms          ort
SDA:   1    -0.355130903699E+03    0.19761E-01    0.00000E+00 10962   0.792E-01 0.000E+00
CGA:   2    -0.355142244484E+03   -0.11341E-01   -0.11353E-01 10962   0.313E-01 0.804E-04
CGA:   3    -0.355148397091E+03   -0.61526E-02   -0.61528E-02 10962   0.175E-01-0.106E-04
CGA:   4    -0.355151116267E+03   -0.27192E-02   -0.27161E-02 10962   0.354E-02-0.417E-04
CGA:   5    -0.355151648098E+03   -0.53183E-03   -0.53088E-03 10962   0.870E-03-0.126E-04
CGA:   6    -0.355151806437E+03   -0.15834E-03   -0.15803E-03 10962   0.278E-03-0.696E-05
CGA:   7    -0.355151858816E+03   -0.52379E-04   -0.52555E-04 10962   0.731E-04 0.456E-05
CGA:   8    -0.355151873760E+03   -0.14944E-04   -0.15086E-04 10962   0.232E-04 0.616E-05
CGA:   9    -0.355151880088E+03   -0.63275E-05   -0.62967E-05 10962   0.927E-05 0.118E-05
  39 F= -.35515188E+03 E0= -.35515188E+03  d E =-.120620E-02  mag=     8.0000
       N       E                     dE             d eps       ncg     rms          ort
SDA:   1    -0.355064185705E+03    0.87688E-01    0.00000E+00 10962   0.333E+00 0.000E+00
CGA:   2    -0.355112718184E+03   -0.48532E-01   -0.48575E-01 10962   0.136E+00 0.330E-03
CGA:   3    -0.355139473823E+03   -0.26756E-01   -0.26754E-01 10962   0.752E-01-0.122E-03
CGA:   4    -0.355150982899E+03   -0.11509E-01   -0.11498E-01 10962   0.149E-01-0.172E-03
CGA:   5    -0.355153183434E+03   -0.22005E-02   -0.22016E-02 10962   0.351E-02 0.102E-04
CGA:   6    -0.355153825222E+03   -0.64179E-03   -0.64216E-03 10962   0.112E-02 0.960E-05
CGA:   7    -0.355154045873E+03   -0.22065E-03   -0.22070E-03 10962   0.305E-03 0.222E-05
CGA:   8    -0.355154111341E+03   -0.65468E-04   -0.65461E-04 10962   0.103E-03 0.723E-05
CGA:   9    -0.355154139701E+03   -0.28360E-04   -0.28750E-04 10962   0.460E-04-0.662E-05
CGA:  10    -0.355154150787E+03   -0.11086E-04   -0.11023E-04 10962   0.171E-04 0.154E-05
CGA:  11    -0.355154154532E+03   -0.37455E-05   -0.37677E-05 10962   0.569E-05 0.473E-05
  40 F= -.35515415E+03 E0= -.35515415E+03  d E =-.227444E-02  mag=     8.0000
       N       E                     dE             d eps       ncg     rms          ort
SDA:   1    -0.354884252944E+03    0.26990E+00    0.00000E+00 10962   0.955E+00 0.000E+00
CGA:   2    -0.355032059681E+03   -0.14781E+00   -0.14792E+00 10962   0.432E+00 0.108E-02
CGA:   3    -0.355116011752E+03   -0.83952E-01   -0.83952E-01 10962   0.221E+00-0.190E-03
CGA:   4    -0.355148630584E+03   -0.32619E-01   -0.32597E-01 10962   0.421E-01-0.362E-03
CGA:   5    -0.355154875531E+03   -0.62449E-02   -0.62514E-02 10962   0.100E-01 0.846E-04
CGA:   6    -0.355156724939E+03   -0.18494E-02   -0.18507E-02 10962   0.326E-02 0.460E-04
CGA:   7    -0.355157371486E+03   -0.64655E-03   -0.64656E-03 10962   0.914E-03-0.357E-06
CGA:   8    -0.355157566328E+03   -0.19484E-03   -0.19471E-03 10962   0.313E-03 0.277E-04
CGA:   9    -0.355157652265E+03   -0.85937E-04   -0.86483E-04 10962   0.137E-03-0.924E-05
CGA:  10    -0.355157688226E+03   -0.35961E-04   -0.35928E-04 10962   0.552E-04 0.504E-06
CGA:  11    -0.355157701031E+03   -0.12806E-04   -0.12643E-04 10962   0.185E-04 0.119E-04
CGA:  12    -0.355157708524E+03   -0.74931E-05   -0.76141E-05 10962   0.114E-04-0.100E-05
  41 F= -.35515771E+03 E0= -.35515771E+03  d E =-.355399E-02  mag=     8.0000
       N       E                     dE             d eps       ncg     rms          ort
SDA:   1    -0.354432466599E+03    0.72523E+00    0.00000E+00 10962   0.222E+01 0.000E+00
CGA:   2    -0.354848060604E+03   -0.41559E+00   -0.41574E+00 10962   0.126E+01 0.204E-02
CGA:   3    -0.355070417105E+03   -0.22236E+00   -0.22234E+00 10962   0.494E+00-0.665E-03
CGA:   4    -0.355139891059E+03   -0.69474E-01   -0.69430E-01 10962   0.945E-01-0.590E-03
CGA:   5    -0.355154379508E+03   -0.14488E-01   -0.14506E-01 10962   0.240E-01 0.244E-03
CGA:   6    -0.355158801722E+03   -0.44222E-02   -0.44273E-02 10962   0.754E-02 0.161E-03
CGA:   7    -0.355160315686E+03   -0.15140E-02   -0.15140E-02 10962   0.226E-02 0.110E-05
CGA:   8    -0.355160829466E+03   -0.51378E-03   -0.51332E-03 10962   0.887E-03 0.316E-04
CGA:   9    -0.355161081177E+03   -0.25171E-03   -0.25448E-03 10962   0.422E-03-0.400E-04
CGA:  10    -0.355161193227E+03   -0.11205E-03   -0.11266E-03 10962   0.172E-03-0.972E-05
CGA:  11    -0.355161235107E+03   -0.41880E-04   -0.41332E-04 10962   0.550E-04 0.210E-04
CGA:  12    -0.355161255138E+03   -0.20032E-04   -0.20617E-04 10962   0.290E-04-0.524E-05
CGA:  13    -0.355161262308E+03   -0.71699E-05   -0.69756E-05 10962   0.137E-04 0.497E-05
CGA:  14    -0.355161266771E+03   -0.44629E-05   -0.10606E-04 10962   0.334E-04-0.142E-04
  42 F= -.35516127E+03 E0= -.35516127E+03  d E =-.355825E-02  mag=     8.0000
       N       E                     dE             d eps       ncg     rms          ort
SDA:   1    -0.354950731354E+03    0.21053E+00    0.00000E+00 10962   0.790E+00 0.000E+00
CGA:   2    -0.355068655943E+03   -0.11792E+00   -0.11805E+00 10962   0.332E+00 0.551E-03
CGA:   3    -0.355133566556E+03   -0.64911E-01   -0.64884E-01 10962   0.175E+00-0.699E-03
CGA:   4    -0.355159947980E+03   -0.26381E-01   -0.26370E-01 10962   0.354E-01-0.142E-03
CGA:   5    -0.355165221345E+03   -0.52734E-02   -0.53085E-02 10962   0.858E-02 0.395E-03
CGA:   6    -0.355166782497E+03   -0.15612E-02   -0.15684E-02 10962   0.262E-02 0.139E-03
CGA:   7    -0.355167310634E+03   -0.52814E-03   -0.52830E-03 10962   0.748E-03 0.390E-05
CGA:   8    -0.355167470759E+03   -0.16013E-03   -0.16041E-03 10962   0.253E-03 0.216E-04
CGA:   9    -0.355167542650E+03   -0.71891E-04   -0.73456E-04 10962   0.119E-03-0.283E-04
CGA:  10    -0.355167566363E+03   -0.23713E-04   -0.23764E-04 10962   0.385E-04 0.120E-04
CGA:  11    -0.355167575010E+03   -0.86466E-05   -0.88480E-05 10962   0.121E-04 0.993E-05
  43 F= -.35516758E+03 E0= -.35516758E+03  d E =-.630824E-02  mag=     8.0000
       N       E                     dE             d eps       ncg     rms          ort
SDA:   1    -0.355025893194E+03    0.14167E+00    0.00000E+00 10962   0.569E+00 0.000E+00
CGA:   2    -0.355103347209E+03   -0.77454E-01   -0.77548E-01 10962   0.203E+00 0.600E-03
CGA:   3    -0.355144219439E+03   -0.40872E-01   -0.40866E-01 10962   0.125E+00-0.368E-03
CGA:   4    -0.355164183188E+03   -0.19964E-01   -0.19956E-01 10962   0.261E-01-0.147E-03
CGA:   5    -0.355167898292E+03   -0.37151E-02   -0.37375E-02 10962   0.560E-02 0.281E-03
CGA:   6    -0.355168895330E+03   -0.99704E-03   -0.10020E-02 10962   0.173E-02 0.123E-03
CGA:   7    -0.355169238953E+03   -0.34362E-03   -0.34439E-03 10962   0.458E-03 0.385E-04
CGA:   8    -0.355169326624E+03   -0.87671E-04   -0.88915E-04 10962   0.131E-03 0.532E-04
CGA:   9    -0.355169361386E+03   -0.34762E-04   -0.34459E-04 10962   0.475E-04 0.128E-04
CGA:  10    -0.355169374170E+03   -0.12784E-04   -0.12582E-04 10962   0.176E-04 0.724E-05
CGA:  11    -0.355169377098E+03   -0.29277E-05   -0.33674E-05 10962   0.642E-05 0.898E-05
  44 F= -.35516938E+03 E0= -.35516938E+03  d E =-.180209E-02  mag=     8.0000
       N       E                     dE             d eps       ncg     rms          ort
SDA:   1    -0.355058203651E+03    0.11117E+00    0.00000E+00 10962   0.289E+00 0.000E+00
CGA:   2    -0.355142685780E+03   -0.84482E-01   -0.84497E-01 10962   0.148E+00-0.276E-03
CGA:   3    -0.355164740387E+03   -0.22055E-01   -0.22065E-01 10962   0.460E-01 0.124E-03
CGA:   4    -0.355171226394E+03   -0.64860E-02   -0.64868E-02 10962   0.902E-02 0.105E-05
CGA:   5    -0.355172706180E+03   -0.14798E-02   -0.14797E-02 10962   0.260E-02-0.300E-05
CGA:   6    -0.355173174636E+03   -0.46846E-03   -0.46926E-03 10962   0.756E-03 0.306E-04
CGA:   7    -0.355173330591E+03   -0.15596E-03   -0.15594E-03 10962   0.269E-03-0.119E-04
CGA:   8    -0.355173401123E+03   -0.70531E-04   -0.71626E-04 10962   0.138E-03-0.167E-04
CGA:   9    -0.355173438343E+03   -0.37221E-04   -0.38272E-04 10962   0.736E-04-0.121E-04
CGA:  10    -0.355173458611E+03   -0.20268E-04   -0.21673E-04 10962   0.344E-04-0.128E-04
CGA:  11    -0.355173464334E+03   -0.57231E-05   -0.57989E-05 10962   0.104E-04 0.529E-05
  45 F= -.35517346E+03 E0= -.35517346E+03  d E =-.408724E-02  mag=     8.0000
       N       E                     dE             d eps       ncg     rms          ort
SDA:   1    -0.337009993153E+03    0.18163E+02    0.00000E+00 10962   0.635E+02 0.000E+00
CGA:   2    -0.346851558684E+03   -0.98416E+01   -0.99061E+01 10962   0.283E+02 0.178E+00
CGA:   3    -0.352446218414E+03   -0.55947E+01   -0.55939E+01 10962   0.137E+02-0.217E-01
CGA:   4    -0.354457510428E+03   -0.20113E+01   -0.20107E+01 10962   0.266E+01 0.260E-02
CGA:   5    -0.354868616348E+03   -0.41111E+00   -0.41234E+00 10962   0.696E+00 0.131E-01
CGA:   6    -0.354997738656E+03   -0.12912E+00   -0.12934E+00 10962   0.221E+00 0.787E-02
CGA:   7    -0.355040651173E+03   -0.42913E-01   -0.42962E-01 10962   0.629E-01 0.274E-02
CGA:   8    -0.355054277342E+03   -0.13626E-01   -0.13607E-01 10962   0.210E-01 0.390E-02
CGA:   9    -0.355059997406E+03   -0.57201E-02   -0.56924E-02 10962   0.829E-02 0.589E-03
CGA:  10    -0.355062263272E+03   -0.22659E-02   -0.22424E-02 10962   0.311E-02 0.456E-03
CGA:  11    -0.355062921072E+03   -0.65780E-03   -0.66760E-03 10962   0.952E-03 0.912E-03
CGA:  12    -0.355063179414E+03   -0.25834E-03   -0.25939E-03 10962   0.364E-03 0.370E-03
CGA:  13    -0.355063267607E+03   -0.88193E-04   -0.94147E-04 10962   0.168E-03 0.219E-03
CGA:  14    -0.355063281096E+03   -0.13489E-04   -0.22757E-04 10962   0.102E-03 0.121E-03
CGA:  15    -0.355063308958E+03   -0.27862E-04   -0.25036E-04 10962   0.659E-04 0.757E-04
CGA:  16    -0.355063309545E+03   -0.58671E-06   -0.69848E-05 10962   0.593E-04 0.615E-04
  46 F= -.35506331E+03 E0= -.35506331E+03  d E =0.110155E+00  mag=     8.0000
       N       E                     dE             d eps       ncg     rms          ort
SDA:   1    -0.354073738682E+03    0.98957E+00    0.00000E+00 10962   0.303E+01 0.000E+00
CGA:   2    -0.354721037309E+03   -0.64730E+00   -0.64725E+00 10962   0.181E+01 0.250E-02
CGA:   3    -0.355013204870E+03   -0.29217E+00   -0.29209E+00 10962   0.601E+00-0.205E-02
CGA:   4    -0.355103036766E+03   -0.89832E-01   -0.89839E-01 10962   0.147E+00-0.940E-05
CGA:   5    -0.355128094961E+03   -0.25058E-01   -0.25085E-01 10962   0.432E-01 0.934E-03
CGA:   6    -0.355136010278E+03   -0.79153E-02   -0.79111E-02 10962   0.132E-01-0.310E-03
CGA:   7    -0.355138783417E+03   -0.27731E-02   -0.27763E-02 10962   0.514E-02-0.194E-03
CGA:   8    -0.355140036309E+03   -0.12529E-02   -0.12503E-02 10962   0.205E-02 0.505E-04
CGA:   9    -0.355140579671E+03   -0.54336E-03   -0.55246E-03 10962   0.877E-03-0.134E-03
CGA:  10    -0.355140769221E+03   -0.18955E-03   -0.18698E-03 10962   0.244E-03 0.982E-04
CGA:  11    -0.355140845514E+03   -0.76292E-04   -0.78415E-04 10962   0.973E-04-0.247E-04
CGA:  12    -0.355140865690E+03   -0.20177E-04   -0.19930E-04 10962   0.323E-04 0.122E-04
CGA:  13    -0.355140872538E+03   -0.68478E-05   -0.70246E-05 10962   0.130E-04 0.116E-04
  47 F= -.35514087E+03 E0= -.35514087E+03  d E =-.775630E-01  mag=     8.0000
       N       E                     dE             d eps       ncg     rms          ort
SDA:   1    -0.355122977407E+03    0.17888E-01    0.00000E+00 10962   0.818E-01 0.000E+00
CGA:   2    -0.355136792381E+03   -0.13815E-01   -0.13824E-01 10962   0.420E-01 0.157E-03
CGA:   3    -0.355144687842E+03   -0.78955E-02   -0.78932E-02 10962   0.190E-01-0.109E-03
CGA:   4    -0.355147461560E+03   -0.27737E-02   -0.27782E-02 10962   0.377E-02 0.663E-04
CGA:   5    -0.355148043750E+03   -0.58219E-03   -0.58797E-03 10962   0.101E-02 0.113E-03
CGA:   6    -0.355148255278E+03   -0.21153E-03   -0.21151E-03 10962   0.366E-03-0.586E-04
CGA:   7    -0.355148327422E+03   -0.72144E-04   -0.72347E-04 10962   0.131E-03-0.341E-04
CGA:   8    -0.355148355504E+03   -0.28082E-04   -0.28278E-04 10962   0.516E-04-0.582E-05
CGA:   9    -0.355148369123E+03   -0.13619E-04   -0.14910E-04 10962   0.278E-04-0.133E-04
CGA:  10    -0.355148371405E+03   -0.22827E-05   -0.28672E-05 10962   0.108E-04 0.815E-05
  48 F= -.35514837E+03 E0= -.35514837E+03  d E =-.749887E-02  mag=     8.0000
       N       E                     dE             d eps       ncg     rms          ort
SDA:   1    -0.355029910595E+03    0.11846E+00    0.00000E+00 10962   0.456E+00 0.000E+00
CGA:   2    -0.355101011565E+03   -0.71101E-01   -0.71150E-01 10962   0.209E+00 0.751E-03
CGA:   3    -0.355141040745E+03   -0.40029E-01   -0.40026E-01 10962   0.100E+00-0.363E-03
CGA:   4    -0.355155934029E+03   -0.14893E-01   -0.14898E-01 10962   0.204E-01 0.660E-04
CGA:   5    -0.355159084889E+03   -0.31509E-02   -0.31665E-02 10962   0.533E-02 0.358E-03
CGA:   6    -0.355160095046E+03   -0.10102E-02   -0.10093E-02 10962   0.165E-02-0.944E-04
CGA:   7    -0.355160425085E+03   -0.33004E-03   -0.33085E-03 10962   0.519E-03-0.920E-04
CGA:   8    -0.355160534366E+03   -0.10928E-03   -0.10940E-03 10962   0.184E-03-0.447E-05
CGA:   9    -0.355160583884E+03   -0.49518E-04   -0.52323E-04 10962   0.865E-04-0.312E-04
CGA:  10    -0.355160595592E+03   -0.11708E-04   -0.12328E-04 10962   0.274E-04 0.208E-04
CGA:  11    -0.355160601413E+03   -0.58212E-05   -0.60024E-05 10962   0.956E-05 0.765E-05
CGA:  12    -0.355160589589E+03    0.11824E-04   -0.11168E-04 10962   0.941E-04-0.321E-04
CGA:  13    -0.355160600598E+03   -0.11009E-04   -0.13684E-04 10962   0.163E-04 0.300E-04
CGA:  14    -0.355160606842E+03   -0.62437E-05   -0.80157E-05 10962   0.121E-04-0.125E-04
  49 F= -.35516061E+03 E0= -.35516061E+03  d E =-.122354E-01  mag=     8.0000
       N       E                     dE             d eps       ncg     rms          ort
SDA:   1    -0.355078866603E+03    0.81734E-01    0.00000E+00 10962   0.315E+00 0.000E+00
CGA:   2    -0.355127527021E+03   -0.48660E-01   -0.48711E-01 10962   0.141E+00 0.424E-03
CGA:   3    -0.355154571414E+03   -0.27044E-01   -0.27036E-01 10962   0.682E-01-0.263E-03
CGA:   4    -0.355164786827E+03   -0.10215E-01   -0.10220E-01 10962   0.141E-01 0.402E-04
CGA:   5    -0.355166956638E+03   -0.21698E-02   -0.21879E-02 10962   0.369E-02 0.252E-03
CGA:   6    -0.355167650387E+03   -0.69375E-03   -0.69184E-03 10962   0.112E-02-0.528E-04
CGA:   7    -0.355167876638E+03   -0.22625E-03   -0.22521E-03 10962   0.350E-03-0.650E-04
CGA:   8    -0.355167951516E+03   -0.74878E-04   -0.74971E-04 10962   0.127E-03-0.115E-04
CGA:   9    -0.355167985557E+03   -0.34041E-04   -0.35960E-04 10962   0.628E-04-0.264E-04
CGA:  10    -0.355167993096E+03   -0.75395E-05   -0.83266E-05 10962   0.200E-04 0.141E-04
  50 F= -.35516799E+03 E0= -.35516799E+03  d E =-.738625E-02  mag=     8.0000
       N       E                     dE             d eps       ncg     rms          ort
SDA:   1    -0.354480081126E+03    0.68790E+00    0.00000E+00 10962   0.257E+01 0.000E+00
CGA:   2    -0.354859408613E+03   -0.37933E+00   -0.37982E+00 10962   0.107E+01 0.344E-02
CGA:   3    -0.355067590935E+03   -0.20818E+00   -0.20816E+00 10962   0.554E+00-0.164E-02
CGA:   4    -0.355152446152E+03   -0.84855E-01   -0.84828E-01 10962   0.115E+00-0.585E-03
CGA:   5    -0.355169979831E+03   -0.17534E-01   -0.17606E-01 10962   0.291E-01 0.120E-02
CGA:   6    -0.355175309506E+03   -0.53297E-02   -0.53323E-02 10962   0.872E-02 0.877E-04
CGA:   7    -0.355177038789E+03   -0.17293E-02   -0.17281E-02 10962   0.249E-02-0.148E-03
CGA:   8    -0.355177568669E+03   -0.52988E-03   -0.52922E-03 10962   0.846E-03 0.595E-04
CGA:   9    -0.355177799823E+03   -0.23115E-03   -0.23615E-03 10962   0.364E-03-0.750E-04
CGA:  10    -0.355177872843E+03   -0.73020E-04   -0.72532E-04 10962   0.114E-03 0.527E-04
CGA:  11    -0.355177902689E+03   -0.29845E-04   -0.29452E-04 10962   0.379E-04 0.247E-04
CGA:  12    -0.355177917706E+03   -0.15017E-04   -0.15699E-04 10962   0.267E-04-0.526E-05
CGA:  13    -0.355177920077E+03   -0.23716E-05   -0.32838E-05 10962   0.159E-04 0.123E-04
  51 F= -.35517792E+03 E0= -.35517792E+03  d E =-.992698E-02  mag=     8.0000
       N       E                     dE             d eps       ncg     rms          ort
SDA:   1    -0.354490606263E+03    0.68731E+00    0.00000E+00 10962   0.264E+01 0.000E+00
CGA:   2    -0.354864573227E+03   -0.37397E+00   -0.37450E+00 10962   0.101E+01 0.372E-02
CGA:   3    -0.355065389646E+03   -0.20082E+00   -0.20081E+00 10962   0.564E+00-0.153E-02
CGA:   4    -0.355153610865E+03   -0.88221E-01   -0.88190E-01 10962   0.117E+00-0.775E-03
CGA:   5    -0.355171104248E+03   -0.17493E-01   -0.17567E-01 10962   0.282E-01 0.128E-02
CGA:   6    -0.355176232931E+03   -0.51287E-02   -0.51341E-02 10962   0.852E-02 0.239E-03
CGA:   7    -0.355177929519E+03   -0.16966E-02   -0.16963E-02 10962   0.235E-02-0.869E-04
CGA:   8    -0.355178420661E+03   -0.49114E-03   -0.49039E-03 10962   0.763E-03 0.717E-04
CGA:   9    -0.355178626827E+03   -0.20617E-03   -0.20945E-03 10962   0.315E-03-0.502E-04
CGA:  10    -0.355178691391E+03   -0.64563E-04   -0.63903E-04 10962   0.973E-04 0.494E-04
CGA:  11    -0.355178714664E+03   -0.23273E-04   -0.23229E-04 10962   0.316E-04 0.300E-04
CGA:  12    -0.355178725316E+03   -0.10651E-04   -0.10324E-04 10962   0.147E-04 0.728E-05
CGA:  13    -0.355178728044E+03   -0.27284E-05   -0.30817E-05 10962   0.782E-05 0.953E-05
  52 F= -.35517873E+03 E0= -.35517873E+03  d E =-.807967E-03  mag=     8.0000
       N       E                     dE             d eps       ncg     rms          ort
SDA:   1    -0.354720749609E+03    0.45798E+00    0.00000E+00 10962   0.178E+01 0.000E+00
CGA:   2    -0.354968325491E+03   -0.24758E+00   -0.24799E+00 10962   0.668E+00 0.175E-02
CGA:   3    -0.355100508899E+03   -0.13218E+00   -0.13217E+00 10962   0.386E+00-0.769E-03
CGA:   4    -0.355161880774E+03   -0.61372E-01   -0.61349E-01 10962   0.798E-01-0.453E-03
CGA:   5    -0.355173565698E+03   -0.11685E-01   -0.11753E-01 10962   0.181E-01 0.799E-03
CGA:   6    -0.355176850622E+03   -0.32849E-02   -0.32929E-02 10962   0.561E-02 0.170E-03
CGA:   7    -0.355177974963E+03   -0.11243E-02   -0.11234E-02 10962   0.155E-02-0.448E-04
CGA:   8    -0.355178296367E+03   -0.32140E-03   -0.32181E-03 10962   0.492E-03 0.352E-04
CGA:   9    -0.355178425450E+03   -0.12908E-03   -0.12992E-03 10962   0.196E-03-0.222E-04
CGA:  10    -0.355178465251E+03   -0.39800E-04   -0.40070E-04 10962   0.591E-04 0.335E-04
CGA:  11    -0.355178479371E+03   -0.14121E-04   -0.14374E-04 10962   0.193E-04 0.179E-04
CGA:  12    -0.355178486329E+03   -0.69577E-05   -0.68076E-05 10962   0.965E-05 0.302E-05
  53 F= -.35517849E+03 E0= -.35517849E+03  d E =0.241715E-03  mag=     8.0000
       N       E                     dE             d eps       ncg     rms          ort
SDA:   1    -0.355144343796E+03    0.34136E-01    0.00000E+00 10962   0.121E+00 0.000E+00
CGA:   2    -0.355164036831E+03   -0.19693E-01   -0.19700E-01 10962   0.591E-01 0.657E-04
CGA:   3    -0.355175093437E+03   -0.11057E-01   -0.11059E-01 10962   0.271E-01 0.457E-04
CGA:   4    -0.355179079514E+03   -0.39861E-02   -0.39889E-02 10962   0.546E-02 0.348E-04
CGA:   5    -0.355179944451E+03   -0.86494E-03   -0.86560E-03 10962   0.147E-02 0.998E-05
CGA:   6    -0.355180211444E+03   -0.26699E-03   -0.26706E-03 10962   0.441E-03 0.146E-05
CGA:   7    -0.355180292641E+03   -0.81197E-04   -0.81767E-04 10962   0.121E-03 0.240E-04
CGA:   8    -0.355180317619E+03   -0.24978E-04   -0.25199E-04 10962   0.401E-04 0.221E-04
CGA:   9    -0.355180327422E+03   -0.98029E-05   -0.98096E-05 10962   0.150E-04 0.117E-04
  54 F= -.35518033E+03 E0= -.35518033E+03  d E =-.184109E-02  mag=     8.0000
       N       E                     dE             d eps       ncg     rms          ort
SDA:   1    -0.355151966913E+03    0.28351E-01    0.00000E+00 10962   0.105E+00 0.000E+00
CGA:   2    -0.355168275437E+03   -0.16309E-01   -0.16314E-01 10962   0.468E-01 0.450E-04
CGA:   3    -0.355177159248E+03   -0.88838E-02   -0.88850E-02 10962   0.224E-01 0.551E-04
CGA:   4    -0.355180523582E+03   -0.33643E-02   -0.33641E-02 10962   0.470E-02-0.977E-05
CGA:   5    -0.355181272609E+03   -0.74903E-03   -0.74681E-03 10962   0.130E-02-0.534E-04
CGA:   6    -0.355181500530E+03   -0.22792E-03   -0.22819E-03 10962   0.375E-03 0.114E-04
CGA:   7    -0.355181567270E+03   -0.66740E-04   -0.67418E-04 10962   0.962E-04 0.332E-04
CGA:   8    -0.355181585626E+03   -0.18357E-04   -0.18820E-04 10962   0.314E-04 0.257E-04
CGA:   9    -0.355181593054E+03   -0.74281E-05   -0.75225E-05 10962   0.128E-04 0.124E-04
  55 F= -.35518159E+03 E0= -.35518159E+03  d E =-.126563E-02  mag=     8.0000
       N       E                     dE             d eps       ncg     rms          ort
SDA:   1    -0.355153394833E+03    0.28191E-01    0.00000E+00 10962   0.967E-01 0.000E+00
CGA:   2    -0.355169426859E+03   -0.16032E-01   -0.16033E-01 10962   0.481E-01-0.327E-04
CGA:   3    -0.355178311258E+03   -0.88844E-02   -0.88836E-02 10962   0.216E-01-0.775E-04
CGA:   4    -0.355181478379E+03   -0.31671E-02   -0.31689E-02 10962   0.419E-02 0.297E-04
CGA:   5    -0.355182131213E+03   -0.65283E-03   -0.65447E-03 10962   0.110E-02 0.410E-04
CGA:   6    -0.355182329332E+03   -0.19812E-03   -0.19847E-03 10962   0.334E-03 0.242E-04
CGA:   7    -0.355182391734E+03   -0.62401E-04   -0.62637E-04 10962   0.902E-04 0.280E-04
CGA:   8    -0.355182413041E+03   -0.21307E-04   -0.21039E-04 10962   0.338E-04 0.113E-04
CGA:   9    -0.355182422512E+03   -0.94714E-05   -0.92308E-05 10962   0.145E-04 0.481E-05
  56 F= -.35518242E+03 E0= -.35518242E+03  d E =-.829458E-03  mag=     8.0000
       N       E                     dE             d eps       ncg     rms          ort
SDA:   1    -0.354984441750E+03    0.19797E+00    0.00000E+00 10962   0.634E+00 0.000E+00
CGA:   2    -0.355100779331E+03   -0.11634E+00   -0.11635E+00 10962   0.341E+00 0.310E-03
CGA:   3    -0.355159946315E+03   -0.59167E-01   -0.59160E-01 10962   0.134E+00-0.375E-03
CGA:   4    -0.355179392578E+03   -0.19446E-01   -0.19442E-01 10962   0.276E-01-0.109E-03
CGA:   5    -0.355183770826E+03   -0.43782E-02   -0.43807E-02 10962   0.717E-02 0.651E-04
CGA:   6    -0.355185043692E+03   -0.12729E-02   -0.12746E-02 10962   0.213E-02 0.124E-03
CGA:   7    -0.355185462012E+03   -0.41832E-03   -0.41809E-03 10962   0.629E-03 0.928E-04
CGA:   8    -0.355185613821E+03   -0.15181E-03   -0.15022E-03 10962   0.253E-03 0.411E-04
CGA:   9    -0.355185688867E+03   -0.75046E-04   -0.74772E-04 10962   0.126E-03 0.311E-05
CGA:  10    -0.355185725894E+03   -0.37027E-04   -0.36784E-04 10962   0.567E-04 0.265E-05
CGA:  11    -0.355185738938E+03   -0.13044E-04   -0.12772E-04 10962   0.193E-04 0.139E-04
CGA:  12    -0.355185744891E+03   -0.59531E-05   -0.57428E-05 10962   0.845E-05 0.570E-05
  57 F= -.35518574E+03 E0= -.35518574E+03  d E =-.332238E-02  mag=     8.0000
       N       E                     dE             d eps       ncg     rms          ort
SDA:   1    -0.354382023296E+03    0.80372E+00    0.00000E+00 10962   0.224E+01 0.000E+00
CGA:   2    -0.354899162926E+03   -0.51714E+00   -0.51707E+00 10962   0.133E+01 0.233E-02
[...]
SDA:   1    -0.355079872585E+03    0.44352E-01    0.00000E+00 10962   0.171E+00 0.000E+00
CGA:   2    -0.355103994355E+03   -0.24122E-01   -0.24140E-01 10962   0.649E-01 0.157E-03
CGA:   3    -0.355116614846E+03   -0.12620E-01   -0.12624E-01 10962   0.369E-01 0.226E-03
CGA:   4    -0.355122390655E+03   -0.57758E-02   -0.57829E-02 10962   0.792E-02 0.128E-03
CGA:   5    -0.355123590287E+03   -0.11996E-02   -0.11999E-02 10962   0.188E-02 0.253E-05
CGA:   6    -0.355123926754E+03   -0.33647E-03   -0.33663E-03 10962   0.572E-03 0.620E-05
CGA:   7    -0.355124035109E+03   -0.10835E-03   -0.10858E-03 10962   0.150E-03 0.185E-04
CGA:   8    -0.355124062741E+03   -0.27632E-04   -0.28148E-04 10962   0.426E-04 0.276E-04
CGA:   9    -0.355124072408E+03   -0.96668E-05   -0.97546E-05 10962   0.153E-04 0.140E-04
  99 F= -.35512407E+03 E0= -.35512407E+03  d E =0.159251E-03  mag=     8.0000
       N       E                     dE             d eps       ncg     rms          ort
SDA:   1    -0.355105823516E+03    0.18239E-01    0.00000E+00 10962   0.451E-01 0.000E+00
CGA:   2    -0.355117333498E+03   -0.11510E-01   -0.11501E-01 10962   0.294E-01 0.152E-03
CGA:   3    -0.355121724579E+03   -0.43911E-02   -0.43978E-02 10962   0.819E-02 0.121E-03
CGA:   4    -0.355122865172E+03   -0.11406E-02   -0.11394E-02 10962   0.168E-02-0.205E-04
CGA:   5    -0.355123147382E+03   -0.28221E-03   -0.28057E-03 10962   0.499E-03-0.557E-04
CGA:   6    -0.355123232646E+03   -0.85263E-04   -0.85265E-04 10962   0.145E-03-0.508E-07
CGA:   7    -0.355123257778E+03   -0.25133E-04   -0.25429E-04 10962   0.388E-04 0.159E-04
CGA:   8    -0.355123265970E+03   -0.81921E-05   -0.82169E-05 10962   0.147E-04 0.105E-04
 100 F= -.35512327E+03 E0= -.35512327E+03  d E =0.806437E-03  mag=     8.0000
       N       E                     dE             d eps       ncg     rms          ort
SDA:   1    -0.354435242398E+03    0.68802E+00    0.00000E+00 10962   0.165E+01 0.000E+00
CGA:   2    -0.354952270722E+03   -0.51703E+00   -0.51668E+00 10962   0.802E+00 0.268E-02
CGA:   3    -0.355069205488E+03   -0.11693E+00   -0.11690E+00 10962   0.238E+00-0.827E-03
CGA:   4    -0.355103236567E+03   -0.34031E-01   -0.33993E-01 10962   0.502E-01-0.752E-03
CGA:   5    -0.355111423245E+03   -0.81867E-02   -0.81820E-02 10962   0.142E-01-0.164E-03
CGA:   6    -0.355114018720E+03   -0.25955E-02   -0.25953E-02 10962   0.427E-02-0.193E-04
CGA:   7    -0.355114860755E+03   -0.84203E-03   -0.84182E-03 10962   0.138E-02 0.394E-04
CGA:   8    -0.355115207755E+03   -0.34700E-03   -0.34593E-03 10962   0.619E-03 0.191E-04
CGA:   9    -0.355115388564E+03   -0.18081E-03   -0.18209E-03 10962   0.320E-03-0.134E-04
CGA:  10    -0.355115478727E+03   -0.90163E-04   -0.91108E-04 10962   0.127E-03-0.104E-04
CGA:  11    -0.355115515911E+03   -0.37184E-04   -0.39686E-04 10962   0.585E-04-0.213E-04
CGA:  12    -0.355115529898E+03   -0.13988E-04   -0.13836E-04 10962   0.248E-04 0.203E-05
CGA:  13    -0.355115539811E+03   -0.99124E-05   -0.99141E-05 10962   0.180E-04-0.484E-07
 101 F= -.35511554E+03 E0= -.35511554E+03  d E =0.772616E-02  mag=     8.0000
       N       E                     dE             d eps       ncg     rms          ort
SDA:   1    -0.351170974245E+03    0.39446E+01    0.00000E+00 10962   0.948E+01 0.000E+00
CGA:   2    -0.354146416117E+03   -0.29754E+01   -0.29747E+01 10962   0.467E+01 0.611E-02
CGA:   3    -0.354822934267E+03   -0.67652E+00   -0.67656E+00 10962   0.136E+01-0.140E-02
CGA:   4    -0.355016633437E+03   -0.19370E+00   -0.19354E+00 10962   0.287E+00-0.223E-02
CGA:   5    -0.355064041789E+03   -0.47408E-01   -0.47368E-01 10962   0.834E-01-0.800E-03
CGA:   6    -0.355079243071E+03   -0.15201E-01   -0.15202E-01 10962   0.251E-01 0.844E-05
CGA:   7    -0.355084311708E+03   -0.50686E-02   -0.50676E-02 10962   0.856E-02-0.867E-04
CGA:   8    -0.355086482471E+03   -0.21708E-02   -0.21771E-02 10962   0.397E-02-0.155E-03
CGA:   9    -0.355087579133E+03   -0.10967E-02   -0.11042E-02 10962   0.194E-02-0.113E-03
CGA:  10    -0.355088134489E+03   -0.55536E-03   -0.57129E-03 10962   0.802E-03-0.190E-03
CGA:  11    -0.355088332517E+03   -0.19803E-03   -0.19998E-03 10962   0.278E-03-0.376E-04
CGA:  12    -0.355088421873E+03   -0.89356E-04   -0.95953E-04 10962   0.165E-03-0.488E-04
CGA:  13    -0.355088464907E+03   -0.43034E-04   -0.40987E-04 10962   0.888E-04 0.300E-04
CGA:  14    -0.355088501769E+03   -0.36862E-04   -0.34785E-04 10962   0.546E-04 0.215E-04
CGA:  15    -0.355088522477E+03   -0.20708E-04   -0.19490E-04 10962   0.291E-04 0.261E-04
CGA:  16    -0.355088534850E+03   -0.12374E-04   -0.11823E-04 10962   0.153E-04 0.176E-04
CGA:  17    -0.355088513295E+03    0.21555E-04   -0.13142E-04 10962   0.219E-03-0.361E-04
CGA:  18    -0.355088543372E+03   -0.30077E-04   -0.40216E-04 10962   0.268E-04 0.383E-04
CGA:  19    -0.355088553000E+03   -0.96280E-05   -0.19103E-04 10962   0.139E-03-0.547E-04
CGA:  20    -0.355088552917E+03    0.83637E-07   -0.14548E-04 10962   0.225E-04 0.431E-04
 102 F= -.35508855E+03 E0= -.35508855E+03  d E =0.269869E-01  mag=     8.0000
       N       E                     dE             d eps       ncg     rms          ort
SDA:   1    -0.354323726042E+03    0.76483E+00    0.00000E+00 10962   0.242E+01 0.000E+00
CGA:   2    -0.354755387443E+03   -0.43166E+00   -0.43225E+00 10962   0.124E+01 0.639E-03
CGA:   3    -0.354975326931E+03   -0.21994E+00   -0.21980E+00 10962   0.514E+00-0.577E-03
CGA:   4    -0.355051864143E+03   -0.76537E-01   -0.76410E-01 10962   0.116E+00-0.403E-03
CGA:   5    -0.355070714204E+03   -0.18850E-01   -0.18865E-01 10962   0.320E-01 0.451E-04
CGA:   6    -0.355076542289E+03   -0.58281E-02   -0.58351E-02 10962   0.100E-01 0.304E-04
CGA:   7    -0.355078620038E+03   -0.20777E-02   -0.20666E-02 10962   0.345E-02-0.768E-04
CGA:   8    -0.355079455129E+03   -0.83509E-03   -0.82912E-03 10962   0.145E-02-0.570E-04
CGA:   9    -0.355079846079E+03   -0.39095E-03   -0.38470E-03 10962   0.617E-03-0.844E-04
CGA:  10    -0.355080001045E+03   -0.15497E-03   -0.15437E-03 10962   0.215E-03-0.816E-05
CGA:  11    -0.355080050068E+03   -0.49023E-04   -0.51169E-04 10962   0.658E-04 0.226E-04
CGA:  12    -0.355080068776E+03   -0.18708E-04   -0.19354E-04 10962   0.256E-04 0.994E-05
CGA:  13    -0.355080071744E+03   -0.29675E-05   -0.52060E-05 10962   0.126E-04 0.148E-04
 103 F= -.35508007E+03 E0= -.35508007E+03  d E =0.848117E-02  mag=     8.0000
       N       E                     dE             d eps       ncg     rms          ort
SDA:   1    -0.353521074987E+03    0.15590E+01    0.00000E+00 10962   0.387E+01 0.000E+00
CGA:   2    -0.354690131714E+03   -0.11691E+01   -0.11691E+01 10962   0.209E+01 0.144E-03
CGA:   3    -0.354990777546E+03   -0.30065E+00   -0.30064E+00 10962   0.596E+00 0.190E-03
CGA:   4    -0.355075083192E+03   -0.84306E-01   -0.84356E-01 10962   0.126E+00 0.263E-03
CGA:   5    -0.355095914743E+03   -0.20832E-01   -0.20882E-01 10962   0.368E-01 0.342E-03
CGA:   6    -0.355102741279E+03   -0.68265E-02   -0.68287E-02 10962   0.114E-01 0.121E-04
CGA:   7    -0.355105044218E+03   -0.23029E-02   -0.23002E-02 10962   0.394E-02-0.360E-04
CGA:   8    -0.355106033385E+03   -0.98917E-03   -0.98875E-03 10962   0.177E-02-0.143E-04
CGA:   9    -0.355106533072E+03   -0.49969E-03   -0.49996E-03 10962   0.853E-03-0.696E-04
CGA:  10    -0.355106762870E+03   -0.22980E-03   -0.22981E-03 10962   0.309E-03-0.296E-04
CGA:  11    -0.355106850957E+03   -0.88087E-04   -0.88734E-04 10962   0.117E-03-0.372E-04
CGA:  12    -0.355106881799E+03   -0.30842E-04   -0.30954E-04 10962   0.477E-04-0.540E-05
CGA:  13    -0.355106878579E+03    0.32199E-05   -0.42596E-04 10962   0.226E-03-0.702E-04
CGA:  14    -0.355106919272E+03   -0.40693E-04   -0.44250E-04 10962   0.273E-04 0.298E-04
CGA:  15    -0.355106929124E+03   -0.98520E-05   -0.17929E-04 10962   0.574E-04-0.299E-04
 104 F= -.35510693E+03 E0= -.35510693E+03  d E =-.268574E-01  mag=     8.0000
       N       E                     dE             d eps       ncg     rms          ort
SDA:   1    -0.354970420786E+03    0.13650E+00    0.00000E+00 10962   0.381E+00 0.000E+00
CGA:   2    -0.355050215372E+03   -0.79795E-01   -0.79882E-01 10962   0.240E+00 0.678E-03
CGA:   3    -0.355089898654E+03   -0.39683E-01   -0.39677E-01 10962   0.802E-01-0.923E-04
CGA:   4    -0.355101019728E+03   -0.11121E-01   -0.11092E-01 10962   0.158E-01-0.196E-03
CGA:   5    -0.355103561890E+03   -0.25422E-02   -0.25341E-02 10962   0.427E-02-0.661E-04
CGA:   6    -0.355104341485E+03   -0.77960E-03   -0.77810E-03 10962   0.133E-02-0.160E-04
CGA:   7    -0.355104589312E+03   -0.24783E-03   -0.25208E-03 10962   0.383E-03 0.473E-04
CGA:   8    -0.355104667272E+03   -0.77959E-04   -0.81626E-04 10962   0.133E-03 0.528E-04
CGA:   9    -0.355104702242E+03   -0.34971E-04   -0.35864E-04 10962   0.550E-04 0.255E-04
CGA:  10    -0.355104718071E+03   -0.15829E-04   -0.16123E-04 10962   0.224E-04 0.124E-04
CGA:  11    -0.355104725793E+03   -0.77224E-05   -0.76944E-05 10962   0.922E-05 0.231E-05
 105 F= -.35510473E+03 E0= -.35510473E+03  d E =0.220333E-02  mag=     8.0000
       N       E                     dE             d eps       ncg     rms          ort
SDA:   1    -0.354441446952E+03    0.66327E+00    0.00000E+00 10962   0.163E+01 0.000E+00
CGA:   2    -0.354899103822E+03   -0.45766E+00   -0.45764E+00 10962   0.103E+01 0.187E-02
CGA:   3    -0.355045741823E+03   -0.14664E+00   -0.14656E+00 10962   0.270E+00-0.718E-03
CGA:   4    -0.355083606311E+03   -0.37864E-01   -0.37778E-01 10962   0.572E-01-0.747E-03
CGA:   5    -0.355092915780E+03   -0.93095E-02   -0.92846E-02 10962   0.161E-01-0.271E-03
CGA:   6    -0.355095814092E+03   -0.28983E-02   -0.28966E-02 10962   0.476E-02-0.272E-04
CGA:   7    -0.355096734286E+03   -0.92019E-03   -0.92203E-03 10962   0.147E-02 0.312E-04
CGA:   8    -0.355097093088E+03   -0.35880E-03   -0.35885E-03 10962   0.643E-03 0.845E-05
CGA:   9    -0.355097276497E+03   -0.18341E-03   -0.18382E-03 10962   0.316E-03-0.113E-04
CGA:  10    -0.355097368897E+03   -0.92400E-04   -0.93217E-04 10962   0.136E-03-0.163E-04
CGA:  11    -0.355097407133E+03   -0.38236E-04   -0.38900E-04 10962   0.539E-04-0.138E-04
CGA:  12    -0.355097421492E+03   -0.14359E-04   -0.14358E-04 10962   0.224E-04-0.196E-07
CGA:  13    -0.355097427732E+03   -0.62397E-05   -0.61264E-05 10962   0.108E-04 0.652E-05
 106 F= -.35509743E+03 E0= -.35509743E+03  d E =0.729806E-02  mag=     8.0000
       N       E                     dE             d eps       ncg     rms          ort
SDA:   1    -0.347290698867E+03    0.78067E+01    0.00000E+00 10962   0.194E+02 0.000E+00
CGA:   2    -0.352739012501E+03   -0.54483E+01   -0.54479E+01 10962   0.119E+02 0.894E-02
CGA:   3    -0.354445743183E+03   -0.17067E+01   -0.17070E+01 10962   0.315E+01 0.414E-02
CGA:   4    -0.354891344428E+03   -0.44560E+00   -0.44529E+00 10962   0.672E+00-0.317E-02
CGA:   5    -0.355000652036E+03   -0.10931E+00   -0.10924E+00 10962   0.192E+00-0.993E-03
CGA:   6    -0.355035570732E+03   -0.34919E-01   -0.34927E-01 10962   0.579E-01 0.842E-04
CGA:   7    -0.355047105875E+03   -0.11535E-01   -0.11529E-01 10962   0.189E-01-0.174E-03
CGA:   8    -0.355051782427E+03   -0.46766E-02   -0.46795E-02 10962   0.860E-02-0.260E-03
CGA:   9    -0.355054167503E+03   -0.23851E-02   -0.23977E-02 10962   0.412E-02-0.281E-03
CGA:  10    -0.355055339762E+03   -0.11723E-02   -0.11895E-02 10962   0.171E-02-0.294E-03
CGA:  11    -0.355055779543E+03   -0.43978E-03   -0.44248E-03 10962   0.595E-03-0.761E-04
CGA:  12    -0.355055971268E+03   -0.19172E-03   -0.20266E-03 10962   0.333E-03-0.989E-04
CGA:  13    -0.355056053804E+03   -0.82536E-04   -0.80064E-04 10962   0.166E-03 0.638E-04
CGA:  14    -0.355056129915E+03   -0.76111E-04   -0.73782E-04 10962   0.118E-03 0.183E-04
CGA:  15    -0.355056173520E+03   -0.43605E-04   -0.41396E-04 10962   0.668E-04 0.377E-04
CGA:  16    -0.355056210034E+03   -0.36514E-04   -0.35907E-04 10962   0.457E-04 0.322E-05
CGA:  17    -0.355056081456E+03    0.12858E-03   -0.71248E-04 10962   0.657E-03-0.147E-03
CGA:  18    -0.355056218630E+03   -0.13717E-03   -0.15648E-03 10962   0.808E-04 0.766E-04
CGA:  19    -0.355056309952E+03   -0.91321E-04    0.35249E-03 10962   0.814E-04-0.336E-04
CGA:  20    -0.355056299660E+03    0.10292E-04   -0.26276E-05 10962   0.555E-04 0.306E-04
CGA:  21    -0.355056284214E+03    0.15446E-04   -0.35169E-05 10962   0.283E-04 0.462E-04
CGA:  22    -0.355056279653E+03    0.45609E-05   -0.25418E-05 10962   0.157E-04 0.206E-04
 107 F= -.35505628E+03 E0= -.35505628E+03  d E =0.411481E-01  mag=     8.0000
       N       E                     dE             d eps       ncg     rms          ort
SDA:   1    -0.354576140887E+03    0.48014E+00    0.00000E+00 10962   0.137E+01 0.000E+00
CGA:   2    -0.354875561225E+03   -0.29942E+00   -0.29958E+00 10962   0.883E+00-0.563E-04
CGA:   3    -0.355018089618E+03   -0.14253E+00   -0.14246E+00 10962   0.290E+00-0.313E-03
CGA:   4    -0.355059290148E+03   -0.41201E-01   -0.41195E-01 10962   0.612E-01-0.253E-04
CGA:   5    -0.355068975242E+03   -0.96851E-02   -0.97565E-02 10962   0.173E-01 0.312E-03
CGA:   6    -0.355072201343E+03   -0.32261E-02   -0.32373E-02 10962   0.557E-02 0.590E-04
CGA:   7    -0.355073358554E+03   -0.11572E-02   -0.11512E-02 10962   0.196E-02-0.420E-04
CGA:   8    -0.355073810097E+03   -0.45154E-03   -0.45633E-03 10962   0.782E-03 0.428E-04
CGA:   9    -0.355074027536E+03   -0.21744E-03   -0.21623E-03 10962   0.344E-03-0.174E-04
CGA:  10    -0.355074117557E+03   -0.90020E-04   -0.90330E-04 10962   0.124E-03 0.449E-05
CGA:  11    -0.355074150340E+03   -0.32784E-04   -0.33156E-04 10962   0.427E-04 0.536E-05
CGA:  12    -0.355074163893E+03   -0.13553E-04   -0.13569E-04 10962   0.183E-04 0.581E-06
CGA:  13    -0.355074168864E+03   -0.49714E-05   -0.51940E-05 10962   0.863E-05 0.454E-05
CGA:  14    -0.355074166336E+03    0.25283E-05   -0.12358E-04 10962   0.667E-04-0.183E-04
CGA:  15    -0.355074174711E+03   -0.83752E-05   -0.11835E-04 10962   0.912E-05 0.182E-04
 108 F= -.35507417E+03 E0= -.35507417E+03  d E =-.178951E-01  mag=     8.0000
       N       E                     dE             d eps       ncg     rms          ort
SDA:   1    -0.354638943576E+03    0.43522E+00    0.00000E+00 10962   0.111E+01 0.000E+00
CGA:   2    -0.354948035250E+03   -0.30909E+00   -0.30907E+00 10962   0.699E+00-0.747E-03
CGA:   3    -0.355047554782E+03   -0.99520E-01   -0.99532E-01 10962   0.184E+00 0.583E-05
CGA:   4    -0.355073379355E+03   -0.25825E-01   -0.25858E-01 10962   0.386E-01 0.142E-03
CGA:   5    -0.355079569914E+03   -0.61906E-02   -0.62291E-02 10962   0.108E-01 0.213E-03
CGA:   6    -0.355081540574E+03   -0.19707E-02   -0.19739E-02 10962   0.324E-02 0.201E-04
CGA:   7    -0.355082202108E+03   -0.66153E-03   -0.65407E-03 10962   0.106E-02-0.649E-04
CGA:   8    -0.355082455223E+03   -0.25311E-03   -0.25194E-03 10962   0.464E-03-0.172E-04
CGA:   9    -0.355082593362E+03   -0.13814E-03   -0.13779E-03 10962   0.251E-03-0.501E-04
CGA:  10    -0.355082657765E+03   -0.64403E-04   -0.63993E-04 10962   0.995E-04-0.184E-04
CGA:  11    -0.355082682428E+03   -0.24664E-04   -0.24614E-04 10962   0.322E-04-0.130E-05
CGA:  12    -0.355082692474E+03   -0.10045E-04   -0.10060E-04 10962   0.153E-04-0.135E-05
CGA:  13    -0.355082696358E+03   -0.38849E-05   -0.40263E-05 10962   0.785E-05 0.439E-05
 109 F= -.35508270E+03 E0= -.35508270E+03  d E =-.852165E-02  mag=     8.0000
       N       E                     dE             d eps       ncg     rms          ort
SDA:   1    -0.354875401641E+03    0.20729E+00    0.00000E+00 10962   0.539E+00 0.000E+00
CGA:   2    -0.355005715837E+03   -0.13031E+00   -0.13035E+00 10962   0.357E+00 0.245E-03
CGA:   3    -0.355060182167E+03   -0.54466E-01   -0.54479E-01 10962   0.102E+00 0.313E-04
CGA:   4    -0.355074267658E+03   -0.14085E-01   -0.14075E-01 10962   0.206E-01-0.844E-04
CGA:   5    -0.355077584760E+03   -0.33171E-02   -0.33151E-02 10962   0.561E-02-0.200E-04
CGA:   6    -0.355078612914E+03   -0.10282E-02   -0.10252E-02 10962   0.172E-02-0.282E-04
CGA:   7    -0.355078949098E+03   -0.33618E-03   -0.33542E-03 10962   0.516E-03-0.881E-05
CGA:   8    -0.355079062287E+03   -0.11319E-03   -0.11449E-03 10962   0.195E-03 0.218E-04
CGA:   9    -0.355079115386E+03   -0.53099E-04   -0.53277E-04 10962   0.823E-04 0.100E-04
CGA:  10    -0.355079139713E+03   -0.24327E-04   -0.24322E-04 10962   0.328E-04 0.186E-05
CGA:  11    -0.355079150110E+03   -0.10397E-04   -0.10556E-04 10962   0.138E-04-0.443E-05
CGA:  12    -0.355079154128E+03   -0.40173E-05   -0.50505E-05 10962   0.114E-04-0.722E-05
 110 F= -.35507915E+03 E0= -.35507915E+03  d E =0.354223E-02  mag=     8.0000
       N       E                     dE             d eps       ncg     rms          ort
SDA:   1    -0.354901828382E+03    0.17732E+00    0.00000E+00 10962   0.430E+00 0.000E+00
CGA:   2    -0.355025351570E+03   -0.12352E+00   -0.12352E+00 10962   0.262E+00 0.611E-03
CGA:   3    -0.355062566355E+03   -0.37215E-01   -0.37179E-01 10962   0.698E-01-0.290E-03
CGA:   4    -0.355072431354E+03   -0.98650E-02   -0.98370E-02 10962   0.150E-01-0.224E-03
CGA:   5    -0.355074882116E+03   -0.24508E-02   -0.24477E-02 10962   0.416E-02-0.325E-04
CGA:   6    -0.355075651434E+03   -0.76932E-03   -0.76645E-03 10962   0.127E-02-0.376E-04
CGA:   7    -0.355075899901E+03   -0.24847E-03   -0.24805E-03 10962   0.403E-03-0.703E-05
CGA:   8    -0.355075996967E+03   -0.97065E-04   -0.97083E-04 10962   0.172E-03 0.120E-05
CGA:   9    -0.355076046416E+03   -0.49449E-04   -0.49690E-04 10962   0.856E-04-0.746E-05
CGA:  10    -0.355076069420E+03   -0.23004E-04   -0.23041E-04 10962   0.330E-04-0.155E-05
CGA:  11    -0.355076079358E+03   -0.99375E-05   -0.16025E-04 10962   0.448E-04-0.257E-04
 111 F= -.35507608E+03 E0= -.35507608E+03  d E =0.307477E-02  mag=     8.0000
       N       E                     dE             d eps       ncg     rms          ort
SDA:   1    -0.354999301025E+03    0.76768E-01    0.00000E+00 10962   0.248E+00 0.000E+00
CGA:   2    -0.355041523323E+03   -0.42222E-01   -0.42279E-01 10962   0.128E+00 0.459E-03
CGA:   3    -0.355064962157E+03   -0.23439E-01   -0.23432E-01 10962   0.565E-01-0.140E-03
CGA:   4    -0.355073086737E+03   -0.81246E-02   -0.81078E-02 10962   0.111E-01-0.170E-03
CGA:   5    -0.355074821330E+03   -0.17346E-02   -0.17358E-02 10962   0.287E-02 0.958E-05
CGA:   6    -0.355075350538E+03   -0.52921E-03   -0.52907E-03 10962   0.915E-03-0.325E-05
CGA:   7    -0.355075522956E+03   -0.17242E-03   -0.17413E-03 10962   0.260E-03 0.328E-04
CGA:   8    -0.355075575473E+03   -0.52517E-04   -0.54036E-04 10962   0.872E-04 0.387E-04
CGA:   9    -0.355075596985E+03   -0.21512E-04   -0.21920E-04 10962   0.339E-04 0.214E-04
CGA:  10    -0.355075606398E+03   -0.94130E-05   -0.95366E-05 10962   0.145E-04 0.114E-04
 112 F= -.35507561E+03 E0= -.35507561E+03  d E =0.472960E-03  mag=     8.0000
       N       E                     dE             d eps       ncg     rms          ort
SDA:   1    -0.355027727179E+03    0.47870E-01    0.00000E+00 10962   0.122E+00 0.000E+00
CGA:   2    -0.355064857522E+03   -0.37130E-01   -0.37177E-01 10962   0.687E-01-0.719E-03
CGA:   3    -0.355074410184E+03   -0.95527E-02   -0.95732E-02 10962   0.186E-01 0.184E-03
CGA:   4    -0.355077032946E+03   -0.26228E-02   -0.26393E-02 10962   0.400E-02 0.171E-03
CGA:   5    -0.355077688356E+03   -0.65541E-03   -0.65931E-03 10962   0.114E-02 0.564E-04
CGA:   6    -0.355077898134E+03   -0.20978E-03   -0.21063E-03 10962   0.349E-03 0.183E-04
CGA:   7    -0.355077976678E+03   -0.78543E-04   -0.78396E-04 10962   0.140E-03-0.338E-04
CGA:   8    -0.355078011049E+03   -0.34371E-04   -0.36269E-04 10962   0.830E-04-0.314E-04
CGA:   9    -0.355078027800E+03   -0.16751E-04   -0.17155E-04 10962   0.356E-04-0.107E-04
CGA:  10    -0.355078035800E+03   -0.79994E-05   -0.80477E-05 10962   0.115E-04-0.167E-05
 113 F= -.35507804E+03 E0= -.35507804E+03  d E =-.242940E-02  mag=     8.0000
