       N       E                     dE             d eps       ncg     rms          ort
DAV:   1     0.215594765016E+04    0.21559E+04   -0.14187E+05  7392   0.145E+03
DAV:   2    -0.278147373998E+03   -0.24341E+04   -0.23237E+04  7392   0.376E+02
DAV:   3    -0.443768737059E+03   -0.16562E+03   -0.16360E+03  7392   0.109E+02
DAV:   4    -0.447769472410E+03   -0.40007E+01   -0.39881E+01  7392   0.150E+01
DAV:   5    -0.447812088455E+03   -0.42616E-01   -0.42604E-01  7392   0.984E-01
SDA:   6    -0.364284353580E+03    0.83528E+02   -0.42604E-01  7392   0.184E+02 0.000E+00
CGA:   7    -0.367256660047E+03   -0.29723E+01   -0.29774E+01  7392   0.271E+01 0.146E-01
CGA:   8    -0.367828860088E+03   -0.57220E+00   -0.57246E+00  7392   0.866E+00-0.210E-01
CGA:   9    -0.368076416543E+03   -0.24756E+00   -0.25055E+00  7392   0.339E+00-0.322E-01
CGA:  10    -0.368159057815E+03   -0.82641E-01   -0.83827E-01  7392   0.141E+00-0.224E-01
CGA:  11    -0.368197307339E+03   -0.38250E-01   -0.39783E-01  7392   0.579E-01-0.160E-01
CGA:  12    -0.368212685433E+03   -0.15378E-01   -0.16233E-01  7392   0.202E-01-0.805E-02
CGA:  13    -0.368217269667E+03   -0.45842E-02   -0.46927E-02  7392   0.527E-02-0.200E-02
CGA:  14    -0.368218797848E+03   -0.15282E-02   -0.16222E-02  7392   0.214E-02-0.766E-03
CGA:  15    -0.368219388071E+03   -0.59022E-03   -0.58577E-03  7392   0.734E-03 0.446E-04
CGA:  16    -0.368219537476E+03   -0.14941E-03   -0.15605E-03  7392   0.259E-03 0.306E-03
CGA:  17    -0.368219566111E+03   -0.28635E-04   -0.49138E-04  7392   0.126E-03 0.216E-03
CGA:  18    -0.368219568541E+03   -0.24298E-05   -0.13977E-04  7392   0.866E-04 0.102E-03
   1 F= -.36821957E+03 E0= -.36821957E+03  d E =-.368220E+03  mag=    12.0000
