       N       E                     dE             d eps       ncg     rms          ort
DAV:   1     0.250231390803E+04    0.25023E+04   -0.14352E+05  6192   0.157E+03
DAV:   2    -0.155191478281E+03   -0.26575E+04   -0.24669E+04  6192   0.414E+02
DAV:   3    -0.440578159195E+03   -0.28539E+03   -0.28112E+03  6192   0.149E+02
DAV:   4    -0.449942077691E+03   -0.93639E+01   -0.92692E+01  6192   0.264E+01
DAV:   5    -0.450580733789E+03   -0.63866E+00   -0.63747E+00  6192   0.494E+00
SDA:   6    -0.366834889920E+03    0.83746E+02   -0.63747E+00  6192   0.139E+02 0.000E+00
CGA:   7    -0.369146874059E+03   -0.23120E+01   -0.23197E+01  6192   0.235E+01 0.155E+00
CGA:   8    -0.369547217014E+03   -0.40034E+00   -0.40191E+00  6192   0.741E+00 0.555E-01
CGA:   9    -0.369708323663E+03   -0.16111E+00   -0.16068E+00  6192   0.293E+00 0.280E-01
CGA:  10    -0.369768738685E+03   -0.60415E-01   -0.60413E-01  6192   0.120E+00 0.178E-02
CGA:  11    -0.369800104227E+03   -0.31366E-01   -0.31920E-01  6192   0.609E-01-0.872E-02
CGA:  12    -0.369813775106E+03   -0.13671E-01   -0.13763E-01  6192   0.247E-01-0.231E-02
CGA:  13    -0.369818311500E+03   -0.45364E-02   -0.45876E-02  6192   0.668E-02 0.524E-02
CGA:  14    -0.369819339044E+03   -0.10275E-02   -0.12117E-02  6192   0.259E-02 0.346E-02
CGA:  15    -0.369819879391E+03   -0.54035E-03   -0.53359E-03  6192   0.109E-02 0.119E-02
CGA:  16    -0.369820046783E+03   -0.16739E-03   -0.22840E-03  6192   0.636E-03 0.107E-02
CGA:  17    -0.369820118582E+03   -0.71799E-04   -0.95110E-04  6192   0.420E-03 0.488E-03
CGA:  18    -0.369820183285E+03   -0.64703E-04   -0.72516E-04  6192   0.299E-03 0.353E-03
CGA:  19    -0.369820221493E+03   -0.38207E-04   -0.47390E-04  6192   0.223E-03 0.260E-03
CGA:  20    -0.369820245531E+03   -0.24038E-04   -0.32901E-04  6192   0.171E-03 0.198E-03
CGA:  21    -0.369820260805E+03   -0.15275E-04   -0.23474E-04  6192   0.135E-03 0.155E-03
CGA:  22    -0.369820270470E+03   -0.96648E-05   -0.17108E-04  6192   0.108E-03 0.123E-03
CGA:  23    -0.369820276462E+03   -0.59918E-05   -0.12684E-04  6192   0.883E-04 0.999E-04
   1 F= -.36982028E+03 E0= -.36982028E+03  d E =-.369820E+03  mag=    20.0000
       N       E                     dE             d eps       ncg     rms          ort
SDA:   1    -0.369804945867E+03    0.15325E-01    0.00000E+00  6192   0.396E-01 0.000E+00
CGA:   2    -0.369814957548E+03   -0.10012E-01   -0.99530E-02  6192   0.206E-01 0.766E-03
CGA:   3    -0.369818774813E+03   -0.38173E-02   -0.38177E-02  6192   0.588E-02-0.464E-03
CGA:   4    -0.369819757310E+03   -0.98250E-03   -0.98184E-03  6192   0.144E-02-0.657E-04
CGA:   5    -0.369819961100E+03   -0.20379E-03   -0.21221E-03  6192   0.356E-03 0.268E-03
CGA:   6    -0.369820014502E+03   -0.53402E-04   -0.59826E-04  6192   0.143E-03 0.172E-03
CGA:   7    -0.369820042301E+03   -0.27800E-04   -0.30729E-04  6192   0.752E-04 0.923E-04
CGA:   8    -0.369820058149E+03   -0.15848E-04   -0.15011E-04  6192   0.396E-04 0.347E-04
CGA:   9    -0.369820061213E+03   -0.30638E-05   -0.62596E-05  6192   0.285E-04 0.466E-04
   2 F= -.36982006E+03 E0= -.36982006E+03  d E =0.215249E-03  mag=    20.0000
       N       E                     dE             d eps       ncg     rms          ort
SDA:   1    -0.369813732735E+03    0.63254E-02    0.00000E+00  6192   0.174E-01 0.000E+00
CGA:   2    -0.369818234907E+03   -0.45022E-02   -0.45264E-02  6192   0.973E-02-0.272E-03
CGA:   3    -0.369819782237E+03   -0.15473E-02   -0.15526E-02  6192   0.224E-02 0.488E-03
CGA:   4    -0.369820165056E+03   -0.38282E-03   -0.38470E-03  6192   0.494E-03 0.219E-03
CGA:   5    -0.369820290994E+03   -0.12594E-03   -0.13881E-03  6192   0.293E-03-0.153E-03
CGA:   6    -0.369820322965E+03   -0.31971E-04   -0.32162E-04  6192   0.103E-03 0.111E-04
CGA:   7    -0.369820329642E+03   -0.66776E-05   -0.10506E-04  6192   0.461E-04 0.495E-04
   3 F= -.36982033E+03 E0= -.36982033E+03  d E =-.531806E-04  mag=    20.0000
