       N       E                     dE             d eps       ncg     rms          ort
DAV:   1     0.266353188381E+04    0.26635E+04   -0.13911E+05  6048   0.160E+03
DAV:   2     0.484626883591E+02   -0.26151E+04   -0.24082E+04  6048   0.413E+02
DAV:   3    -0.257137288672E+03   -0.30560E+03   -0.30097E+03  6048   0.161E+02
DAV:   4    -0.267943033193E+03   -0.10806E+02   -0.10574E+02  6048   0.301E+01
DAV:   5    -0.268384914019E+03   -0.44188E+00   -0.43624E+00  6048   0.478E+00
SDA:   6    -0.127574697426E+03    0.14081E+03   -0.43624E+00  6048   0.718E+03 0.000E+00
CGA:   7    -0.181885502733E+03   -0.54311E+02   -0.80960E+02  6048   0.391E+03 0.230E+02
CGA:   8    -0.199618907490E+03   -0.17733E+02   -0.99749E+01  6048   0.752E+03-0.283E+03
CGA:   9    -0.201973665977E+03   -0.23548E+01   -0.54372E+02  6048   0.912E+03-0.279E+03
CGA:  10    -0.207121472575E+03   -0.51478E+01   -0.30787E+02  6048   0.887E+02-0.210E+02
CGA:  11    -0.210791768043E+03   -0.36703E+01   -0.16260E+01  6048   0.124E+03 0.138E+03
CGA:  12    -0.200747579785E+03    0.10044E+02   -0.42313E+01  6048   0.294E+03-0.887E+02
CGA:  13    -0.220179036044E+03   -0.19431E+02   -0.43750E+01  6048   0.164E+03-0.233E+03
CGA:  14    -0.208131909737E+03    0.12047E+02   -0.84440E+01  6048   0.106E+04-0.200E+03
CGA:  15    -0.212296034269E+03   -0.41641E+01   -0.50041E+02  6048   0.988E+03 0.110E+03
CGA:  16    -0.207890899730E+03    0.44051E+01   -0.72941E+02  6048   0.842E+02-0.451E+02
CGA:  17    -0.210104018638E+03   -0.22131E+01   -0.11315E+01  6048   0.750E+02 0.780E+02
CGA:  18    -0.212257133007E+03   -0.21531E+01   -0.10161E+01  6048   0.841E+02 0.917E+02
CGA:  19    -0.221763832362E+03   -0.95067E+01   -0.12088E+01  6048   0.458E+02 0.217E+03
CGA:  20    -0.222831995574E+03   -0.10682E+01   -0.85793E+00  6048   0.205E+03 0.505E+02
CGA:  21    -0.211068630799E+03    0.11763E+02   -0.78639E+01  6048   0.111E+04-0.373E+03
CGA:  22    -0.205036222446E+03    0.60324E+01   -0.58824E+02  6048   0.621E+03-0.185E+03
CGA:  23    -0.211167852129E+03   -0.61316E+01   -0.22893E+02  6048   0.722E+02-0.334E+02
CGA:  24    -0.218770192041E+03   -0.76023E+01   -0.44746E+01  6048   0.208E+03-0.578E+02
CGA:  25    -0.222130659343E+03   -0.33605E+01   -0.91465E+01  6048   0.511E+02 0.743E+02
CGA:  26    -0.223672475324E+03   -0.15418E+01   -0.14169E+01  6048   0.310E+03 0.150E+03
CGA:  27    -0.218067190107E+03    0.56053E+01   -0.12273E+02  6048   0.570E+03-0.728E+02
CGA:  28    -0.205398443153E+03    0.12669E+02   -0.17403E+02  6048   0.306E+03-0.300E+02
CGA:  29    -0.220156818734E+03   -0.14758E+02   -0.16455E+02  6048   0.276E+03-0.637E+02
CGA:  30    -0.215740492810E+03    0.44163E+01   -0.82892E+01  6048   0.112E+03-0.437E+02
CGA:  31    -0.207400012078E+03    0.83405E+01   -0.37971E+01  6048   0.745E+03-0.303E+03
CGA:  32    -0.222829836149E+03   -0.15430E+02   -0.20397E+02  6048   0.105E+03-0.830E+02
CGA:  33    -0.223921423899E+03   -0.10916E+01   -0.17638E+01  6048   0.728E+02-0.562E+02
CGA:  34    -0.225045055958E+03   -0.11236E+01   -0.99009E+00  6048   0.528E+02 0.281E+02
CGA:  35    -0.225514303844E+03   -0.46925E+00   -0.79110E+00  6048   0.325E+03-0.601E+03
CGA:  36    -0.224020244109E+03    0.14941E+01   -0.11065E+02  6048   0.718E+02-0.204E+02
CGA:  37    -0.225158632464E+03   -0.11384E+01   -0.75138E+00  6048   0.462E+02 0.450E+02
CGA:  38    -0.226656583796E+03   -0.14980E+01   -0.33908E+00  6048   0.941E+02 0.146E+03
CGA:  39    -0.227500419301E+03   -0.84384E+00   -0.10955E+01  6048   0.383E+02-0.674E+02
CGA:  40    -0.227251905998E+03    0.24851E+00   -0.64313E+00  6048   0.636E+02-0.430E+02
CGA:  41    -0.227598091588E+03   -0.34619E+00   -0.69397E+00  6048   0.258E+02-0.440E+02
CGA:  42    -0.227601205461E+03   -0.31139E-02   -0.35256E+00  6048   0.238E+02-0.224E+02
CGA:  43    -0.227773164352E+03   -0.17196E+00   -0.19158E+00  6048   0.102E+01-0.375E+01
CGA:  44    -0.227786888670E+03   -0.13724E-01   -0.14962E-01  6048   0.853E+00-0.540E-01
CGA:  45    -0.227859454994E+03   -0.72566E-01   -0.72315E-01  6048   0.489E+01 0.107E-01
CGA:  46    -0.228038721666E+03   -0.17927E+00   -0.19792E+00  6048   0.578E+00 0.384E+00
CGA:  47    -0.228049132168E+03   -0.10411E-01   -0.11184E-01  6048   0.268E+00-0.325E-01
CGA:  48    -0.228066575713E+03   -0.17444E-01   -0.17297E-01  6048   0.289E+00 0.588E-02
CGA:  49    -0.228075901262E+03   -0.93255E-02   -0.95548E-02  6048   0.256E+00-0.118E-02
CGA:  50    -0.228087029497E+03   -0.11128E-01   -0.11109E-01  6048   0.824E-01-0.861E-03
CGA:  51    -0.228090737586E+03   -0.37081E-02   -0.37272E-02  6048   0.148E+00 0.163E-02
CGA:  52    -0.228103088177E+03   -0.12351E-01   -0.13416E-01  6048   0.260E+00-0.289E-01
CGA:  53    -0.228111051657E+03   -0.79635E-02   -0.83194E-02  6048   0.443E-01 0.902E-02
CGA:  54    -0.228113616169E+03   -0.25645E-02   -0.25830E-02  6048   0.559E-01-0.214E-02
CGA:  55    -0.228117933147E+03   -0.43170E-02   -0.42948E-02  6048   0.150E+00 0.436E-04
CGA:  56    -0.228123869269E+03   -0.59361E-02   -0.58363E-02  6048   0.710E-01 0.141E-02
CGA:  57    -0.228125381750E+03   -0.15125E-02   -0.17353E-02  6048   0.243E-01-0.499E-02
CGA:  58    -0.228128541441E+03   -0.31597E-02   -0.35472E-02  6048   0.118E+00-0.547E-02
CGA:  59    -0.228130447214E+03   -0.19058E-02   -0.14343E-02  6048   0.830E-01 0.264E-01
CGA:  60    -0.228131887431E+03   -0.14402E-02   -0.14809E-02  6048   0.195E-01-0.191E-02
CGA:  61    -0.228132384997E+03   -0.49757E-03   -0.52121E-03  6048   0.259E-01-0.403E-03
CGA:  62    -0.228134029670E+03   -0.16447E-02   -0.16143E-02  6048   0.521E-01 0.156E-02
CGA:  63    -0.228135430385E+03   -0.14007E-02   -0.11452E-02  6048   0.316E-01 0.838E-02
CGA:  64    -0.228136154820E+03   -0.72444E-03   -0.70389E-03  6048   0.169E-01 0.744E-03
CGA:  65    -0.228136507124E+03   -0.35230E-03   -0.36659E-03  6048   0.152E-01-0.410E-03
CGA:  66    -0.228137033127E+03   -0.52600E-03   -0.53668E-03  6048   0.243E-01 0.211E-03
CGA:  67    -0.228137680612E+03   -0.64749E-03   -0.62376E-03  6048   0.184E-01 0.432E-03
CGA:  68    -0.228138141685E+03   -0.46107E-03   -0.43919E-03  6048   0.155E-01 0.472E-03
CGA:  69    -0.228138476332E+03   -0.33465E-03   -0.33397E-03  6048   0.124E-01 0.570E-04
CGA:  70    -0.228138820695E+03   -0.34436E-03   -0.35269E-03  6048   0.179E-01 0.256E-04
CGA:  71    -0.228139366970E+03   -0.54628E-03   -0.54976E-03  6048   0.165E-01 0.963E-04
CGA:  72    -0.228139713549E+03   -0.34658E-03   -0.33312E-03  6048   0.114E-01 0.421E-03
SDA:  73    -0.228139977059E+03   -0.26351E-03   -0.25807E-03  6048   0.881E-02 0.135E-03
CGA:  74    -0.228140147977E+03   -0.17092E-03   -0.17093E-03  6048   0.270E-02-0.134E-05
CGA:  75    -0.228141032370E+03   -0.88439E-03   -0.19815E-03  6048   0.903E-02 0.783E-03
CGA:  76    -0.228141437305E+03   -0.40494E-03   -0.40249E-03  6048   0.330E-02 0.296E-04
CGA:  77    -0.228141709415E+03   -0.27211E-03   -0.27214E-03  6048   0.498E-02-0.114E-06
CGA:  78    -0.228142061600E+03   -0.35219E-03   -0.35235E-03  6048   0.400E-02-0.719E-04
CGA:  79    -0.228142232104E+03   -0.17050E-03   -0.17286E-03  6048   0.207E-02 0.662E-06
CGA:  80    -0.228142324030E+03   -0.91926E-04   -0.91250E-04  6048   0.182E-02 0.630E-05
CGA:  81    -0.228142432923E+03   -0.10889E-03   -0.10922E-03  6048   0.193E-02 0.213E-04
CGA:  82    -0.228142526093E+03   -0.93169E-04   -0.92717E-04  6048   0.829E-03 0.300E-05
CGA:  83    -0.228142567609E+03   -0.41517E-04   -0.41510E-04  6048   0.585E-03 0.598E-06
CGA:  84    -0.228142615301E+03   -0.47692E-04   -0.47766E-04  6048   0.825E-03-0.377E-05
CGA:  85    -0.228142666097E+03   -0.50796E-04   -0.50735E-04  6048   0.548E-03-0.870E-05
CGA:  86    -0.228142694492E+03   -0.28395E-04   -0.28431E-04  6048   0.472E-03-0.118E-05
CGA:  87    -0.228142728172E+03   -0.33680E-04   -0.33847E-04  6048   0.852E-03-0.168E-04
CGA:  88    -0.228142781251E+03   -0.53078E-04   -0.53119E-04  6048   0.793E-03 0.235E-04
CGA:  89    -0.228142810338E+03   -0.29088E-04   -0.28234E-04  6048   0.316E-03 0.632E-05
CGA:  90    -0.228142837971E+03   -0.27633E-04   -0.27656E-04  6048   0.626E-03-0.164E-05
CGA:  91    -0.228142884377E+03   -0.46407E-04   -0.46727E-04  6048   0.412E-03-0.214E-04
CGA:  92    -0.228142898815E+03   -0.14438E-04   -0.14360E-04  6048   0.154E-03 0.494E-06
CGA:  93    -0.228142916379E+03   -0.17564E-04   -0.17660E-04  6048   0.433E-03-0.219E-05
CGA:  94    -0.228142940110E+03   -0.23730E-04   -0.23722E-04  6048   0.136E-03 0.168E-05
CGA:  95    -0.228142946087E+03   -0.59772E-05   -0.59560E-05  6048   0.147E-03 0.360E-06
CGA:  96    -0.228142963871E+03   -0.17784E-04   -0.17379E-04  6048   0.293E-03 0.683E-05
CGA:  97    -0.228142972682E+03   -0.88119E-05   -0.83608E-05  6048   0.609E-04 0.137E-04
   1 F= -.22814297E+03 E0= -.22813358E+03  d E =-.228143E+03  mag=    18.0000
