       N       E                     dE             d eps       ncg     rms          ort
DAV:   1     0.292107118351E+04    0.29211E+04   -0.13694E+05 10710   0.173E+03
DAV:   2    -0.255911110807E+02   -0.29467E+04   -0.26921E+04 10710   0.449E+02
DAV:   3    -0.429327394920E+03   -0.40374E+03   -0.39492E+03 10710   0.190E+02
DAV:   4    -0.446737325593E+03   -0.17410E+02   -0.17037E+02 10710   0.387E+01
DAV:   5    -0.447379883942E+03   -0.64256E+00   -0.62741E+00 10710   0.587E+00
SDA:   6    -0.207502235246E+03    0.23988E+03   -0.62741E+00 10710   0.948E+03 0.000E+00
CGA:   7    -0.225151489797E+03   -0.17649E+02   -0.37681E+02 10710   0.136E+04-0.562E+03
CGA:   8    -0.236433984966E+03   -0.11282E+02   -0.61664E+02 10710   0.494E+03-0.255E+03
CGA:   9    -0.262015797784E+03   -0.25582E+02   -0.83705E+01 10710   0.199E+04 0.224E+04
CGA:  10    -0.233939749728E+03    0.28076E+02   -0.97332E+02 10710   0.485E+03-0.282E+03
CGA:  11    -0.252322195399E+03   -0.18382E+02   -0.76843E+01 10710   0.927E+03 0.962E+03
CGA:  12    -0.257148384303E+03   -0.48262E+01   -0.27155E+02 10710   0.467E+03-0.429E+03
CGA:  13    -0.268987484092E+03   -0.11839E+02   -0.29232E+01 10710   0.216E+04 0.187E+04
CGA:  14    -0.242579835429E+03    0.26408E+02   -0.88037E+02 10710   0.414E+03-0.298E+03
CGA:  15    -0.257948901690E+03   -0.15369E+02   -0.62967E+01 10710   0.820E+03 0.828E+03
CGA:  16    -0.257658288451E+03    0.29061E+00   -0.23379E+02 10710   0.384E+03-0.356E+03
CGA:  17    -0.261722780581E+03   -0.40645E+01   -0.16905E+01 10710   0.545E+03 0.346E+03
CGA:  18    -0.307687641967E+03   -0.45965E+02   -0.74862E+01 10710   0.161E+04-0.215E+04
CGA:  19    -0.285215490635E+03    0.22472E+02   -0.73059E+02 10710   0.605E+03-0.166E+03
CGA:  20    -0.277240463090E+03    0.79750E+01   -0.10804E+02 10710   0.443E+04 0.324E+03
CGA:  21    -0.249268166603E+03    0.27972E+02   -0.19285E+03 10710   0.379E+03-0.284E+03
CGA:  22    -0.302963848745E+03   -0.53696E+02   -0.11270E+02 10710   0.188E+04-0.398E+04
CGA:  23    -0.257498172117E+03    0.45466E+02   -0.82659E+02 10710   0.612E+03-0.223E+03
CGA:  24    -0.260297523609E+03   -0.27994E+01   -0.18705E+02 10710   0.276E+04-0.327E+04
CGA:  25    -0.247502997316E+03    0.12795E+02   -0.12270E+03 10710   0.401E+03-0.347E+03
CGA:  26    -0.302778245116E+03   -0.55275E+02   -0.11271E+02 10710   0.204E+04-0.487E+04
CGA:  27    -0.255863003412E+03    0.46915E+02   -0.79071E+02 10710   0.498E+03-0.221E+03
CGA:  28    -0.262976524280E+03   -0.71135E+01   -0.13212E+02 10710   0.219E+04-0.250E+04
CGA:  29    -0.249042481302E+03    0.13934E+02   -0.83197E+02 10710   0.413E+03-0.352E+03
CGA:  30    -0.277935033333E+03   -0.28893E+02   -0.10449E+02 10710   0.369E+04-0.494E+04
CGA:  31    -0.247203530331E+03    0.30732E+02   -0.13618E+03 10710   0.421E+03-0.310E+03
CGA:  32    -0.270906190291E+03   -0.23703E+02   -0.11459E+02 10710   0.227E+04-0.268E+04
CGA:  33    -0.248138087707E+03    0.22768E+02   -0.75370E+02 10710   0.424E+03-0.335E+03
CGA:  34    -0.269295641379E+03   -0.21158E+02   -0.10627E+02 10710   0.135E+04-0.147E+04
CGA:  35    -0.249991121004E+03    0.19305E+02   -0.38442E+02 10710   0.429E+03-0.347E+03
CGA:  36    -0.266660767919E+03   -0.16670E+02   -0.92816E+01 10710   0.565E+03-0.547E+03
CGA:  37    -0.254047505630E+03    0.12613E+02   -0.11823E+02 10710   0.502E+03-0.427E+03
CGA:  38    -0.262341705338E+03   -0.82942E+01   -0.12031E+02 10710   0.381E+03-0.401E+03
CGA:  39    -0.301314349413E+03   -0.38973E+02   -0.68635E+01 10710   0.612E+04-0.920E+04
CGA:  40    -0.261173385400E+03    0.40141E+02   -0.17404E+03 10710   0.393E+03-0.264E+03
CGA:  41    -0.317808358713E+03   -0.56635E+02   -0.67419E+01 10710   0.262E+04-0.424E+04
CGA:  42    -0.300422899758E+03    0.17385E+02   -0.66247E+02 10710   0.660E+03-0.340E+03
CGA:  43    -0.332291121898E+03   -0.31868E+02   -0.90464E+01 10710   0.115E+04-0.217E+04
CGA:  44    -0.311787528551E+03    0.20504E+02   -0.19861E+02 10710   0.402E+04-0.171E+04
CGA:  45    -0.260314933401E+03    0.51473E+02   -0.90473E+02 10710   0.606E+03-0.319E+03
CGA:  46    -0.266837652784E+03   -0.65227E+01   -0.10566E+02 10710   0.802E+03-0.807E+03
CGA:  47    -0.262120216562E+03    0.47174E+01   -0.14129E+02 10710   0.714E+03-0.662E+03
CGA:  48    -0.265711659635E+03   -0.35914E+01   -0.12916E+02 10710   0.644E+03-0.650E+03
CGA:  49    -0.269369644069E+03   -0.36580E+01   -0.10301E+02 10710   0.221E+04-0.224E+04
CGA:  50    -0.262670424725E+03    0.66992E+01   -0.43324E+02 10710   0.499E+03-0.466E+03
CGA:  51    -0.312680176290E+03   -0.50010E+02   -0.61713E+01 10710   0.548E+04-0.885E+04
CGA:  52    -0.265111999374E+03    0.47568E+02   -0.10127E+03 10710   0.677E+03-0.382E+03
CGA:  53    -0.272231842683E+03   -0.71198E+01   -0.94551E+01 10710   0.209E+04-0.207E+04
CGA:  54    -0.263069839776E+03    0.91620E+01   -0.35444E+02 10710   0.564E+03-0.513E+03
CGA:  55    -0.318288653489E+03   -0.55219E+02   -0.64289E+01 10710   0.471E+04-0.728E+04
CGA:  56    -0.269597240137E+03    0.48691E+02   -0.74177E+02 10710   0.146E+04-0.726E+03
CGA:  57    -0.271151325860E+03   -0.15541E+01   -0.18574E+02 10710   0.155E+04-0.130E+04
CGA:  58    -0.266796095881E+03    0.43552E+01   -0.22332E+02 10710   0.890E+03-0.843E+03
CGA:  59    -0.273915531286E+03   -0.71194E+01   -0.11961E+02 10710   0.203E+04-0.211E+04
CGA:  60    -0.267701432548E+03    0.62141E+01   -0.28350E+02 10710   0.971E+03-0.906E+03
CGA:  61    -0.335110761038E+03   -0.67409E+02   -0.76444E+01 10710   0.741E+03-0.212E+04
CGA:  62    -0.335351823467E+03   -0.24106E+00   -0.51883E+01 10710   0.667E+03-0.666E+03
CGA:  63    -0.336204404651E+03   -0.85258E+00   -0.42260E+01 10710   0.456E+03-0.550E+03
CGA:  64    -0.337104688031E+03   -0.90028E+00   -0.26162E+01 10710   0.203E+03-0.300E+03
CGA:  65    -0.337746520329E+03   -0.64183E+00   -0.91700E+00 10710   0.214E+02-0.623E+02
CGA:  66    -0.337830634651E+03   -0.84114E-01   -0.87803E-01 10710   0.175E+01-0.624E+00
CGA:  67    -0.337877886266E+03   -0.47252E-01   -0.47161E-01 10710   0.976E+01-0.889E-02
CGA:  68    -0.338616892389E+03   -0.73901E+00   -0.78122E+00 10710   0.104E+02 0.348E+00
CGA:  69    -0.338718407823E+03   -0.10152E+00   -0.11926E+00 10710   0.117E+01-0.892E+00
CGA:  70    -0.338800524480E+03   -0.82117E-01   -0.90595E-01 10710   0.549E+01-0.109E+00
CGA:  71    -0.338951800354E+03   -0.15128E+00   -0.15129E+00 10710   0.114E+01-0.226E+00
CGA:  72    -0.338985624562E+03   -0.33824E-01   -0.33880E-01 10710   0.143E+01-0.115E+00
CGA:  73    -0.339064028593E+03   -0.78404E-01    0.30601E+01 10710   0.101E+01 0.934E+00
CGA:  74    -0.339100797119E+03   -0.36769E-01   -0.37207E-01 10710   0.131E+01-0.104E+00
CGA:  75    -0.339269322235E+03   -0.16853E+00   -0.27932E-04 10710   0.343E+01-0.365E+00
CGA:  76    -0.339326754807E+03   -0.57433E-01   -0.48277E-01 10710   0.119E+01 0.168E+00
CGA:  77    -0.339368148555E+03   -0.41394E-01   -0.41552E-01 10710   0.155E+01-0.666E-01
CGA:  78    -0.339457028949E+03   -0.88880E-01   -0.88860E-01 10710   0.172E+01-0.441E-01
CGA:  79    -0.339496232882E+03   -0.39204E-01   -0.37172E-01 10710   0.261E+00-0.452E-01
CGA:  80    -0.339507507177E+03   -0.11274E-01   -0.11062E-01 10710   0.382E+00-0.329E-01
CGA:  81    -0.339535007972E+03   -0.27501E-01   -0.51538E-01 10710   0.198E+01-0.231E+00
CGA:  82    -0.339584265410E+03   -0.49257E-01   -0.50049E-01 10710   0.204E+00-0.135E-01
CGA:  83    -0.339590583873E+03   -0.63185E-02   -0.66633E-02 10710   0.637E-01 0.116E-01
CGA:  84    -0.339601497177E+03   -0.10913E-01   -0.56136E-03 10710   0.378E+00-0.385E-01
CGA:  85    -0.339614397186E+03   -0.12900E-01   -0.12252E-01 10710   0.717E-01-0.266E-02
CGA:  86    -0.339625573932E+03   -0.11177E-01   -0.13547E-01 10710   0.170E+00-0.251E-01
CGA:  87    -0.339629596175E+03   -0.40222E-02   -0.34851E-02 10710   0.556E-01-0.140E-01
CGA:  88    -0.339632813951E+03   -0.32178E-02   -0.30825E-02 10710   0.113E+00-0.554E-02
CGA:  89    -0.339645572657E+03   -0.12759E-01   -0.13884E-01 10710   0.235E+00-0.274E-01
CGA:  90    -0.339653232416E+03   -0.76598E-02   -0.53858E-02 10710   0.146E+00-0.312E-04
CGA:  91    -0.339660137135E+03   -0.69047E-02   -0.58002E-02 10710   0.110E+00-0.306E-01
CGA:  92    -0.339665345777E+03   -0.52086E-02   -0.45724E-02 10710   0.138E+00-0.252E-01
CGA:  93    -0.339673607481E+03   -0.82617E-02   -0.76762E-02 10710   0.149E+00-0.354E-01
CGA:  94    -0.339677885288E+03   -0.42778E-02   -0.33523E-02 10710   0.424E-01-0.218E-01
CGA:  95    -0.339679377317E+03   -0.14920E-02   -0.12405E-02 10710   0.256E-01-0.793E-02
CGA:  96    -0.339680980161E+03   -0.16028E-02   -0.15907E-02 10710   0.505E-01-0.254E-02
CGA:  97    -0.339683698389E+03   -0.27182E-02   -0.27241E-02 10710   0.270E-01-0.619E-03
CGA:  98    -0.339684859936E+03   -0.11615E-02   -0.10996E-02 10710   0.143E-01-0.290E-02
CGA:  99    -0.339686176976E+03   -0.13170E-02   -0.17755E-02 10710   0.431E-01-0.775E-02
CGA: 100    -0.339687901543E+03   -0.17246E-02   -0.18942E-02 10710   0.771E-02 0.512E-02
CGA: 101    -0.339688469414E+03   -0.56787E-03   -0.57062E-03 10710   0.517E-02 0.960E-04
CGA: 102    -0.339689299945E+03   -0.83053E-03   -0.70480E-03 10710   0.476E-02 0.225E-02
CGA: 103    -0.339689866687E+03   -0.56674E-03   -0.56542E-03 10710   0.406E-02 0.233E-02
CGA: 104    -0.339690703728E+03   -0.83704E-03   -0.70917E-03 10710   0.607E-02 0.358E-02
CGA: 105    -0.339690885343E+03   -0.18161E-03   -0.26149E-03 10710   0.207E-02 0.198E-02
CGA: 106    -0.339691061333E+03   -0.17599E-03   -0.19094E-03 10710   0.211E-02 0.119E-02
CGA: 107    -0.339691383871E+03   -0.32254E-03   -0.44488E-03 10710   0.797E-02-0.963E-03
CGA: 108    -0.339691767675E+03   -0.38380E-03   -0.38277E-03 10710   0.156E-01 0.195E-02
CGA: 109    -0.339693858263E+03   -0.20906E-02   -0.19920E-02 10710   0.781E-02 0.650E-02
CGA: 110    -0.339694830932E+03   -0.97267E-03   -0.97118E-03 10710   0.184E-01-0.184E-02
CGA: 111    -0.339697990731E+03   -0.31598E-02   -0.34949E-02 10710   0.132E+00-0.189E-02
CGA: 112    -0.339702521940E+03   -0.45312E-02   -0.39224E-02 10710   0.458E-01 0.184E-01
CGA: 113    -0.339703955183E+03   -0.14332E-02   -0.14317E-02 10710   0.274E-01 0.259E-02
CGA: 114    -0.339706505069E+03   -0.25499E-02   -0.25456E-02 10710   0.896E-01-0.175E-02
CGA: 115    -0.339710717968E+03   -0.42129E-02   -0.38466E-02 10710   0.701E-01-0.434E-02
CGA: 116    -0.339712591665E+03   -0.18737E-02   -0.15139E-02 10710   0.298E-01 0.373E-03
CGA: 117    -0.339713948754E+03   -0.13571E-02   -0.11473E-02 10710   0.431E-01-0.299E-02
CGA: 118    -0.339716255265E+03   -0.23065E-02   -0.20230E-02 10710   0.900E-01-0.722E-02
CGA: 119    -0.339719035049E+03   -0.27798E-02   -0.22540E-02 10710   0.954E-01-0.934E-02
CGA: 120    -0.339722274673E+03   -0.32396E-02   -0.24544E-02 10710   0.913E-01-0.122E-01
CGA: 121    -0.339725297024E+03   -0.30224E-02   -0.21823E-02 10710   0.764E-01-0.121E-01
CGA: 122    -0.339727218337E+03   -0.19213E-02   -0.14207E-02 10710   0.510E-01-0.743E-02
CGA: 123    -0.339728542977E+03   -0.13246E-02   -0.11011E-02 10710   0.497E-01-0.362E-02
CGA: 124    -0.339730037182E+03   -0.14942E-02   -0.14271E-02 10710   0.719E-01-0.131E-02
CGA: 125    -0.339731893317E+03   -0.18561E-02   -0.18464E-02 10710   0.615E-01 0.165E-02
CGA: 126    -0.339733040899E+03   -0.11476E-02   -0.11469E-02 10710   0.275E-01 0.110E-02
CGA: 127    -0.339733651564E+03   -0.61066E-03   -0.57848E-03 10710   0.226E-01-0.575E-03
CGA: 128    -0.339734592073E+03   -0.94051E-03   -0.90228E-03 10710   0.587E-01-0.250E-02
CGA: 129    -0.339737225017E+03   -0.26329E-02   -0.25965E-02 10710   0.169E+00-0.799E-02
CGA: 130    -0.339741669516E+03   -0.44445E-02   -0.38100E-02 10710   0.117E+00-0.330E-02
CGA: 131    -0.339743531110E+03   -0.18616E-02   -0.15804E-02 10710   0.508E-01 0.914E-02
CGA: 132    -0.339744444435E+03   -0.91333E-03   -0.87478E-03 10710   0.355E-01 0.190E-02
CGA: 133    -0.339745254685E+03   -0.81025E-03   -0.76408E-03 10710   0.431E-01 0.391E-03
CGA: 134    -0.339746304753E+03   -0.10501E-02   -0.95614E-03 10710   0.573E-01-0.203E-02
CGA: 135    -0.339747608511E+03   -0.13038E-02   -0.12193E-02 10710   0.737E-01-0.678E-02
CGA: 136    -0.339749296716E+03   -0.16882E-02   -0.16100E-02 10710   0.952E-01-0.871E-02
SDA: 137    -0.339751464916E+03   -0.21682E-02   -0.20781E-02 10710   0.985E-01-0.557E-02
CGA: 138    -0.339756105029E+03   -0.46401E-02   -0.46275E-02 10710   0.286E-01 0.153E-01
CGA: 139    -0.339759078665E+03   -0.29736E-02   -0.26672E-02 10710   0.226E-01 0.884E-02
CGA: 140    -0.339763004730E+03   -0.39261E-02   -0.30303E-02 10710   0.170E-01 0.165E-01
CGA: 141    -0.339764202427E+03   -0.11977E-02   -0.11153E-02 10710   0.133E-01 0.550E-02
CGA: 142    -0.339767399133E+03   -0.31967E-02   -0.25143E-02 10710   0.169E-01 0.748E-02
CGA: 143    -0.339768426319E+03   -0.10272E-02   -0.10067E-02 10710   0.729E-02 0.545E-02
CGA: 144    -0.339769629492E+03   -0.12032E-02   -0.96175E-03 10710   0.102E-01 0.555E-02
CGA: 145    -0.339770384044E+03   -0.75455E-03   -0.71464E-03 10710   0.645E-02 0.343E-02
CGA: 146    -0.339771874637E+03   -0.14906E-02   -0.11377E-02 10710   0.125E-01 0.483E-02
CGA: 147    -0.339772416359E+03   -0.54172E-03   -0.59648E-03 10710   0.516E-02 0.379E-02
CGA: 148    -0.339773085675E+03   -0.66932E-03   -0.58492E-03 10710   0.690E-02 0.335E-02
CGA: 149    -0.339773772416E+03   -0.68674E-03   -0.63610E-03 10710   0.493E-02 0.176E-02
CGA: 150    -0.339774939156E+03   -0.11667E-02   -0.79894E-03 10710   0.527E-02 0.572E-02
   1 F= -.33977494E+03 E0= -.33977250E+03  d E =-.339775E+03  mag=    14.0000
       N       E                     dE             d eps       ncg     rms          ort
SDA:   1    -0.339439323807E+03    0.33445E+00    0.00000E+00 10710   0.104E+01 0.000E+00
CGA:   2    -0.339583205143E+03   -0.14388E+00   -0.13998E+00 10710   0.107E+01 0.520E-01
CGA:   3    -0.339691368178E+03   -0.10816E+00   -0.10753E+00 10710   0.829E+00 0.172E-01
CGA:   4    -0.339736744036E+03   -0.45376E-01   -0.45024E-01 10710   0.176E+00 0.783E-02
CGA:   5    -0.339764778801E+03   -0.28035E-01   -0.28281E-01 10710   0.920E-01-0.291E-02
CGA:   6    -0.339768686293E+03   -0.39075E-02   -0.41037E-02 10710   0.359E-01 0.696E-02
CGA:   7    -0.339773665940E+03   -0.49796E-02   -0.50365E-02 10710   0.167E-01-0.101E-02
CGA:   8    -0.339775346375E+03   -0.16804E-02   -0.16635E-02 10710   0.970E-02 0.617E-03
CGA:   9    -0.339775997509E+03   -0.65113E-03   -0.68409E-03 10710   0.789E-02 0.300E-02
CGA:  10    -0.339777256001E+03   -0.12585E-02   -0.12538E-02 10710   0.611E-02 0.108E-03
CGA:  11    -0.339777929389E+03   -0.67339E-03   -0.61967E-03 10710   0.463E-02 0.275E-02
CGA:  12    -0.339778857823E+03   -0.92843E-03   -0.86639E-03 10710   0.787E-02 0.129E-02
CGA:  13    -0.339779865046E+03   -0.10072E-02   -0.96504E-03 10710   0.557E-02 0.347E-02
CGA:  14    -0.339780829998E+03   -0.96495E-03   -0.90779E-03 10710   0.650E-02 0.198E-02
CGA:  15    -0.339782959517E+03   -0.21295E-02   -0.16657E-02 10710   0.945E-02 0.420E-02
CGA:  16    -0.339783470366E+03   -0.51085E-03   -0.53870E-03 10710   0.504E-02 0.834E-03
CGA:  17    -0.339784206504E+03   -0.73614E-03   -0.75613E-03 10710   0.958E-02-0.419E-03
CGA:  18    -0.339785152735E+03   -0.94623E-03   -0.92891E-03 10710   0.418E-02 0.124E-02
CGA:  19    -0.339785630350E+03   -0.47762E-03   -0.48305E-03 10710   0.700E-02-0.563E-03
CGA:  20    -0.339786422563E+03   -0.79221E-03   -0.76857E-03 10710   0.145E-01 0.715E-03
CGA:  21    -0.339787958852E+03   -0.15363E-02   -0.15346E-02 10710   0.857E-02 0.165E-02
CGA:  22    -0.339788558885E+03   -0.60003E-03   -0.57287E-03 10710   0.773E-02-0.108E-02
CGA:  23    -0.339791988871E+03   -0.34300E-02   -0.24905E-04 10710   0.190E-01-0.198E-02
CGA:  24    -0.339793585352E+03   -0.15965E-02   -0.14677E-02 10710   0.190E-01-0.180E-02
CGA:  25    -0.339796622139E+03   -0.30368E-02   -0.30509E-02 10710   0.384E-01-0.922E-03
CGA:  26    -0.339799825121E+03   -0.32030E-02   -0.30066E-02 10710   0.170E-01-0.533E-02
CGA:  27    -0.339801759912E+03   -0.19348E-02   -0.19573E-02 10710   0.279E-01-0.166E-02
CGA:  28    -0.339804303601E+03   -0.25437E-02   -0.20563E-02 10710   0.137E-01-0.225E-02
CGA:  29    -0.339806440442E+03   -0.21368E-02   -0.22191E-02 10710   0.359E-01-0.501E-02
CGA:  30    -0.339807468770E+03   -0.10283E-02   -0.87758E-03 10710   0.141E-01 0.966E-03
CGA:  31    -0.339807871035E+03   -0.40227E-03   -0.50526E-03 10710   0.929E-02 0.117E-02
CGA:  32    -0.339808523387E+03   -0.65235E-03   -0.71801E-03 10710   0.126E-01 0.583E-03
CGA:  33    -0.339809323267E+03   -0.79988E-03   -0.74115E-03 10710   0.110E-01-0.972E-03
CGA:  34    -0.339809872443E+03   -0.54918E-03   -0.55376E-03 10710   0.794E-02-0.796E-04
CGA:  35    -0.339810044484E+03   -0.17204E-03   -0.26209E-03 10710   0.444E-02 0.100E-02
CGA:  36    -0.339810248567E+03   -0.20408E-03   -0.29004E-03 10710   0.745E-02 0.121E-02
CGA:  37    -0.339810888109E+03   -0.63954E-03   -0.68845E-03 10710   0.438E-02 0.884E-03
CGA:  38    -0.339811120242E+03   -0.23213E-03   -0.20755E-03 10710   0.311E-02-0.246E-03
CGA:  39    -0.339811284608E+03   -0.16437E-03   -0.21751E-03 10710   0.465E-02 0.118E-02
CGA:  40    -0.339811388107E+03   -0.10350E-03   -0.27462E-03 10710   0.163E-02 0.229E-02
CGA:  41    -0.339811484331E+03   -0.96223E-04   -0.15423E-03 10710   0.168E-02 0.117E-02
CGA:  42    -0.339811640131E+03   -0.15580E-03   -0.28621E-03 10710   0.150E-01-0.218E-02
CGA:  43    -0.339811898194E+03   -0.25806E-03   -0.40397E-03 10710   0.747E-03 0.168E-02
CGA:  44    -0.339811921846E+03   -0.23652E-04   -0.45429E-04 10710   0.963E-03 0.399E-03
CGA:  45    -0.339811318131E+03    0.60372E-03   -0.35613E-03 10710   0.495E-01-0.368E-02
CGA:  46    -0.339812386007E+03   -0.10679E-02   -0.13393E-02 10710   0.579E-03 0.314E-02
CGA:  47    -0.339812390023E+03   -0.40160E-05   -0.24813E-04 10710   0.477E-03 0.278E-03
CGA:  48    -0.339812613244E+03   -0.22322E-03   -0.16856E-03 10710   0.218E-02 0.429E-03
CGA:  49    -0.339812755169E+03   -0.14192E-03   -0.96931E-04 10710   0.794E-03-0.631E-03
CGA:  50    -0.339812787553E+03   -0.32384E-04   -0.45108E-04 10710   0.363E-03 0.375E-03
CGA:  51    -0.339812881167E+03   -0.93613E-04   -0.88468E-04 10710   0.173E-02 0.954E-04
CGA:  52    -0.339813579354E+03   -0.69819E-03   -0.73344E-03 10710   0.973E-02-0.238E-03
CGA:  53    -0.339813790507E+03   -0.21115E-03   -0.22735E-03 10710   0.448E-02 0.136E-02
CGA:  54    -0.339813849686E+03   -0.59179E-04   -0.11014E-03 10710   0.158E-02 0.723E-03
CGA:  55    -0.339813873507E+03   -0.23822E-04   -0.48183E-04 10710   0.923E-03 0.269E-03
CGA:  56    -0.339813923016E+03   -0.49509E-04   -0.43535E-04 10710   0.106E-02-0.972E-04
CGA:  57    -0.339814023281E+03   -0.10027E-03   -0.89990E-04 10710   0.518E-02-0.825E-03
CGA:  58    -0.339814159033E+03   -0.13575E-03   -0.17889E-03 10710   0.714E-03 0.623E-03
CGA:  59    -0.339814248983E+03   -0.89950E-04   -0.10093E-03 10710   0.180E-02-0.488E-03
CGA:  60    -0.339814310187E+03   -0.61203E-04   -0.81111E-04 10710   0.324E-03 0.332E-03
CGA:  61    -0.339813515564E+03    0.79462E-03   -0.43291E-03 10710   0.304E-01-0.186E-02
CGA:  62    -0.339814502587E+03   -0.98702E-03   -0.11035E-02 10710   0.283E-02 0.168E-02
CGA:  63    -0.339814705114E+03   -0.20253E-03   -0.13959E-03 10710   0.192E-03-0.513E-03
CGA:  64    -0.339814701076E+03    0.40379E-05   -0.67564E-05 10710   0.874E-04 0.838E-04
CGA:  65    -0.339814712884E+03   -0.11808E-04   -0.13269E-04 10710   0.171E-03 0.242E-04
CGA:  66    -0.339814819211E+03   -0.10633E-03    0.35324E-04 10710   0.692E-03 0.351E-04
CGA:  67    -0.339813466248E+03    0.13530E-02   -0.52740E-03 10710   0.804E-02-0.406E-02
CGA:  68    -0.339814228608E+03   -0.76236E-03   -0.75681E-03 10710   0.427E-02-0.526E-04
CGA:  69    -0.339814700814E+03   -0.47221E-03   -0.47090E-03 10710   0.318E-02-0.573E-05
CGA:  70    -0.339814907080E+03   -0.20627E-03   -0.21846E-03 10710   0.184E-02 0.103E-03
CGA:  71    -0.339815184140E+03   -0.27706E-03   -0.29251E-03 10710   0.768E-03 0.865E-03
CGA:  72    -0.339815234569E+03   -0.50428E-04   -0.90771E-04 10710   0.840E-03 0.449E-03
CGA:  73    -0.339815344782E+03   -0.11021E-03   -0.72257E-04 10710   0.165E-02-0.474E-03
CGA:  74    -0.339815354381E+03   -0.95986E-05   -0.48114E-04 10710   0.247E-03 0.307E-03
CGA:  75    -0.339815364328E+03   -0.99472E-05   -0.21003E-04 10710   0.428E-03 0.132E-03
CGA:  76    -0.339815422773E+03   -0.58445E-04   -0.40991E-04 10710   0.122E-02-0.313E-03
CGA:  77    -0.339815425505E+03   -0.27315E-05   -0.33446E-04 10710   0.177E-03 0.263E-03
   2 F= -.33981543E+03 E0= -.33981342E+03  d E =-.404863E-01  mag=    14.0000
       N       E                     dE             d eps       ncg     rms          ort
SDA:   1    -0.339655381890E+03    0.16004E+00    0.00000E+00 10710   0.487E+00 0.000E+00
CGA:   2    -0.339724740674E+03   -0.69359E-01   -0.69336E-01 10710   0.908E+00 0.244E-02
CGA:   3    -0.339791710980E+03   -0.66970E-01   -0.66322E-01 10710   0.169E+00 0.240E-02
CGA:   4    -0.339817368525E+03   -0.25658E-01   -0.25650E-01 10710   0.603E-01 0.413E-03
CGA:   5    -0.339824168907E+03   -0.68004E-02   -0.67704E-02 10710   0.346E-01-0.130E-02
CGA:   6    -0.339826401001E+03   -0.22321E-02   -0.23015E-02 10710   0.141E-01 0.135E-02
CGA:   7    -0.339827588278E+03   -0.11873E-02   -0.11675E-02 10710   0.662E-02-0.492E-03
CGA:   8    -0.339828264426E+03   -0.67615E-03   -0.68849E-03 10710   0.251E-02 0.587E-03
CGA:   9    -0.339828588735E+03   -0.32431E-03   -0.29663E-03 10710   0.688E-02-0.145E-02
CGA:  10    -0.339828682166E+03   -0.93431E-04   -0.18728E-03 10710   0.726E-03 0.961E-03
CGA:  11    -0.339828719849E+03   -0.37683E-04   -0.54867E-04 10710   0.866E-03 0.310E-03
CGA:  12    -0.339828888286E+03   -0.16844E-03   -0.19467E-03 10710   0.263E-02-0.684E-03
CGA:  13    -0.339828928475E+03   -0.40189E-04   -0.83564E-04 10710   0.443E-03 0.485E-03
CGA:  14    -0.339828973889E+03   -0.45414E-04   -0.43742E-04 10710   0.428E-03-0.500E-04
CGA:  15    -0.339828924906E+03    0.48983E-04   -0.11206E-03 10710   0.521E-02-0.896E-03
CGA:  16    -0.339828987659E+03   -0.62753E-04   -0.14222E-03 10710   0.592E-03 0.833E-03
CGA:  17    -0.339829013472E+03   -0.25813E-04   -0.40433E-04 10710   0.518E-03 0.243E-03
CGA:  18    -0.339829100005E+03   -0.86533E-04   -0.95396E-04 10710   0.116E-02-0.610E-03
CGA:  19    -0.339829100355E+03   -0.34997E-06   -0.29541E-04 10710   0.172E-03 0.317E-03
   3 F= -.33982910E+03 E0= -.33982704E+03  d E =-.541612E-01  mag=    14.0000
       N       E                     dE             d eps       ncg     rms          ort
SDA:   1    -0.339825733521E+03    0.33665E-02    0.00000E+00 10710   0.369E-01 0.000E+00
CGA:   2    -0.339826718845E+03   -0.98532E-03   -0.11972E-02 10710   0.787E-02 0.300E-02
CGA:   3    -0.339828453720E+03   -0.17349E-02   -0.16607E-02 10710   0.102E-01 0.815E-03
CGA:   4    -0.339829219294E+03   -0.76557E-03   -0.66768E-03 10710   0.634E-02-0.207E-02
CGA:   5    -0.339829459949E+03   -0.24066E-03   -0.27047E-03 10710   0.181E-02 0.570E-03
CGA:   6    -0.339829527950E+03   -0.68001E-04   -0.97986E-04 10710   0.129E-02 0.556E-03
CGA:   7    -0.339829686883E+03   -0.15893E-03   -0.15525E-03 10710   0.895E-03-0.423E-03
CGA:   8    -0.339829734210E+03   -0.47327E-04   -0.45866E-04 10710   0.340E-03-0.603E-04
CGA:   9    -0.339829744234E+03   -0.10024E-04   -0.14301E-04 10710   0.202E-03 0.785E-04
CGA:  10    -0.339829775244E+03   -0.31010E-04   -0.50197E-04 10710   0.565E-03-0.183E-03
CGA:  11    -0.339829797876E+03   -0.22631E-04   -0.27526E-04 10710   0.859E-04 0.912E-04
CGA:  12    -0.339829808684E+03   -0.10808E-04   -0.10819E-04 10710   0.114E-03-0.133E-05
CGA:  13    -0.339829822083E+03   -0.13400E-04   -0.16902E-04 10710   0.984E-04-0.685E-04
CGA:  14    -0.339829830766E+03   -0.86828E-05   -0.88228E-05 10710   0.982E-04 0.108E-04
CGA:  15    -0.339829843372E+03   -0.12605E-04   -0.16103E-04 10710   0.150E-03-0.763E-04
CGA:  16    -0.339829843546E+03   -0.17491E-06   -0.39845E-05 10710   0.322E-04 0.491E-04
   4 F= -.33982984E+03 E0= -.33982777E+03  d E =-.549044E-01  mag=    14.0000
       N       E                     dE             d eps       ncg     rms          ort
SDA:   1    -0.339824689045E+03    0.51543E-02    0.00000E+00 10710   0.328E-01 0.000E+00
CGA:   2    -0.339826112449E+03   -0.14234E-02   -0.14438E-02 10710   0.131E-01 0.675E-03
CGA:   3    -0.339829156104E+03   -0.30437E-02   -0.33019E-02 10710   0.924E-02-0.169E-02
CGA:   4    -0.339829404260E+03   -0.24816E-03   -0.32593E-03 10710   0.366E-02 0.127E-02
CGA:   5    -0.339829889316E+03   -0.48506E-03   -0.48354E-03 10710   0.208E-02 0.890E-04
CGA:   6    -0.339830073626E+03   -0.18431E-03   -0.14626E-03 10710   0.261E-02-0.122E-02
CGA:   7    -0.339830092544E+03   -0.18918E-04   -0.67707E-04 10710   0.425E-03 0.669E-03
CGA:   8    -0.339830099590E+03   -0.70463E-05   -0.20802E-04 10710   0.349E-03 0.245E-03
CGA:   9    -0.339830177208E+03   -0.77617E-04    0.77624E-04 10710   0.768E-03-0.153E-03
CGA:  10    -0.339830202450E+03   -0.25242E-04   -0.26271E-04 10710   0.634E-03 0.328E-04
CGA:  11    -0.339830194970E+03    0.74796E-05   -0.11014E-04 10710   0.171E-03 0.249E-03
   5 F= -.33983019E+03 E0= -.33982812E+03  d E =-.552558E-01  mag=    14.0000
       N       E                     dE             d eps       ncg     rms          ort
SDA:   1    -0.339829844265E+03    0.35818E-03    0.00000E+00 10710   0.817E-02 0.000E+00
CGA:   2    -0.339830227736E+03   -0.38347E-03   -0.29746E-03 10710   0.678E-03-0.195E-02
CGA:   3    -0.339830224872E+03    0.28642E-05   -0.11977E-04 10710   0.177E-03 0.257E-03
CGA:   4    -0.339830220219E+03    0.46531E-05   -0.35568E-05 10710   0.726E-04 0.129E-03
CGA:   5    -0.339830223014E+03   -0.27955E-05   -0.38310E-05 10710   0.535E-04 0.469E-04
CGA:   6    -0.339830238957E+03   -0.15943E-04    0.19325E-05 10710   0.482E-04 0.329E-04
CGA:   7    -0.339830238142E+03    0.81523E-06   -0.11009E-05 10710   0.350E-04 0.376E-04
   6 F= -.33983024E+03 E0= -.33982816E+03  d E =-.552990E-01  mag=    14.0000
       N       E                     dE             d eps       ncg     rms          ort
SDA:   1    -0.339812882354E+03    0.17357E-01    0.00000E+00 10710   0.179E+00 0.000E+00
CGA:   2    -0.339818551754E+03   -0.56694E-02   -0.58654E-02 10710   0.309E-01 0.122E-01
CGA:   3    -0.339825193018E+03   -0.66413E-02   -0.65366E-02 10710   0.554E-01 0.140E-02
CGA:   4    -0.339827939853E+03   -0.27468E-02   -0.27252E-02 10710   0.106E-01-0.987E-03
CGA:   5    -0.339829138623E+03   -0.11988E-02   -0.12088E-02 10710   0.870E-02 0.115E-02
CGA:   6    -0.339829758561E+03   -0.61994E-03   -0.54091E-03 10710   0.343E-02-0.126E-02
CGA:   7    -0.339829998828E+03   -0.24027E-03   -0.25247E-03 10710   0.833E-03 0.352E-03
CGA:   8    -0.339830128231E+03   -0.12940E-03   -0.20407E-03 10710   0.324E-02-0.725E-03
CGA:   9    -0.339830172355E+03   -0.44125E-04   -0.89368E-04 10710   0.303E-03 0.482E-03
CGA:  10    -0.339830189364E+03   -0.17008E-04   -0.22192E-04 10710   0.292E-03 0.931E-04
CGA:  11    -0.339830234477E+03   -0.45113E-04   -0.46687E-04 10710   0.403E-03-0.271E-03
CGA:  12    -0.339830230147E+03    0.43302E-05   -0.10264E-04 10710   0.112E-03 0.159E-03
   7 F= -.33983023E+03 E0= -.33982814E+03  d E =0.799510E-05  mag=    14.0000
       N       E                     dE             d eps       ncg     rms          ort
SDA:   1    -0.339825938698E+03    0.42958E-02    0.00000E+00 10710   0.510E-01 0.000E+00
CGA:   2    -0.339827257969E+03   -0.13193E-02   -0.15681E-02 10710   0.806E-02 0.323E-02
CGA:   3    -0.339829337248E+03   -0.20793E-02   -0.20069E-02 10710   0.106E-01 0.553E-03
CGA:   4    -0.339829985403E+03   -0.64815E-03   -0.52728E-03 10710   0.410E-02-0.190E-02
CGA:   5    -0.339830302877E+03   -0.31747E-03   -0.32510E-03 10710   0.876E-03 0.672E-03
CGA:   6    -0.339830465467E+03   -0.16259E-03   -0.19299E-03 10710   0.121E-02-0.371E-03
CGA:   7    -0.339830476247E+03   -0.10781E-04   -0.22433E-04 10710   0.570E-03 0.148E-03
CGA:   8    -0.339830484163E+03   -0.79161E-05   -0.18918E-04 10710   0.244E-03 0.142E-03
CGA:   9    -0.339830498888E+03   -0.14725E-04   -0.15623E-04 10710   0.211E-03 0.170E-04
CGA:  10    -0.339830522126E+03   -0.23238E-04   -0.25533E-04 10710   0.509E-03-0.184E-03
CGA:  11    -0.339830530605E+03   -0.84791E-05   -0.16570E-04 10710   0.708E-04 0.118E-03
   8 F= -.33983053E+03 E0= -.33982844E+03  d E =-.292463E-03  mag=    14.0000
       N       E                     dE             d eps       ncg     rms          ort
SDA:   1    -0.339827133692E+03    0.33884E-02    0.00000E+00 10710   0.734E-01 0.000E+00
CGA:   2    -0.339829942795E+03   -0.28091E-02   -0.28285E-02 10710   0.548E-02 0.215E-04
CGA:   3    -0.339830241189E+03   -0.29839E-03   -0.28328E-03 10710   0.104E-02-0.333E-03
CGA:   4    -0.339830158966E+03    0.82222E-04   -0.45078E-03 10710   0.816E-02-0.144E-02
CGA:   5    -0.339830354802E+03   -0.19584E-03   -0.26898E-03 10710   0.135E-02 0.923E-03
CGA:   6    -0.339830515863E+03   -0.16106E-03   -0.16092E-03 10710   0.766E-03-0.127E-03
CGA:   7    -0.339830548658E+03   -0.32795E-04   -0.33467E-04 10710   0.212E-03 0.959E-05
CGA:   8    -0.339830548160E+03    0.49765E-06   -0.64812E-05 10710   0.770E-04 0.938E-04
   9 F= -.33983055E+03 E0= -.33982847E+03  d E =-.310018E-03  mag=    14.0000
       N       E                     dE             d eps       ncg     rms          ort
SDA:   1    -0.339830451470E+03    0.97188E-04    0.00000E+00 10710   0.668E-02 0.000E+00
CGA:   2    -0.339830548703E+03   -0.97233E-04   -0.17445E-03 10710   0.465E-03 0.113E-02
CGA:   3    -0.339830550559E+03   -0.18554E-05   -0.14582E-04 10710   0.128E-03 0.190E-03
CGA:   4    -0.339830556431E+03   -0.58729E-05   -0.68933E-05 10710   0.474E-04 0.190E-04
CGA:   5    -0.339830547945E+03    0.84867E-05   -0.16752E-04 10710   0.832E-03-0.115E-03
CGA:   6    -0.339830549752E+03   -0.18076E-05   -0.19777E-04 10710   0.106E-03 0.237E-03
  10 F= -.33983055E+03 E0= -.33982847E+03  d E =-.311610E-03  mag=    14.0000
