       N       E                     dE             d eps       ncg     rms          ort
DAV:   1     0.225509251016E+04    0.22551E+04   -0.13512E+05  9828   0.157E+03
DAV:   2    -0.162774502042E+03   -0.24179E+04   -0.22851E+04  9828   0.411E+02
DAV:   3    -0.423054231603E+03   -0.26028E+03   -0.25281E+03  9828   0.147E+02
DAV:   4    -0.432928950287E+03   -0.98747E+01   -0.97377E+01  9828   0.310E+01
DAV:   5    -0.433488655788E+03   -0.55971E+00   -0.55854E+00  9828   0.567E+00
SDA:   6    -0.345189542706E+03    0.88299E+02   -0.55854E+00  9828   0.262E+03 0.000E+00
CGA:   7    -0.348595273498E+03   -0.34057E+01   -0.23887E+02  9828   0.487E+02-0.359E+02
CGA:   8    -0.352415452015E+03   -0.38202E+01   -0.19507E+01  9828   0.276E+02 0.433E+02
CGA:   9    -0.353710123761E+03   -0.12947E+01   -0.78698E+00  9828   0.102E+02 0.116E+02
CGA:  10    -0.354139609149E+03   -0.42949E+00   -0.23627E+00  9828   0.946E+01 0.117E+02
CGA:  11    -0.354393761471E+03   -0.25415E+00   -0.14909E+00  9828   0.481E+01 0.668E+01
CGA:  12    -0.354497778216E+03   -0.10402E+00   -0.54700E-01  9828   0.344E+01 0.427E+01
CGA:  13    -0.354592087401E+03   -0.94309E-01   -0.51931E-01  9828   0.206E+01 0.273E+01
CGA:  14    -0.354695633229E+03   -0.10355E+00   -0.67429E-01  9828   0.102E+01 0.980E+00
CGA:  15    -0.354863057285E+03   -0.16742E+00   -0.16043E+00  9828   0.499E+01-0.555E-01
CGA:  16    -0.355008189012E+03   -0.14513E+00   -0.13749E+00  9828   0.486E+01-0.736E-01
CGA:  17    -0.355059479043E+03   -0.51290E-01   -0.10382E+00  9828   0.867E+00-0.247E+01
CGA:  18    -0.355177774462E+03   -0.11830E+00   -0.11843E+00  9828   0.148E+01-0.992E-02
CGA:  19    -0.355240868147E+03   -0.63094E-01   -0.72341E-01  9828   0.173E+00-0.153E+00
CGA:  20    -0.355247802788E+03   -0.69346E-02   -0.68408E-02  9828   0.900E-01 0.118E-01
CGA:  21    -0.355269040573E+03   -0.21238E-01   -0.25743E-01  9828   0.303E+00-0.298E-01
CGA:  22    -0.355277777645E+03   -0.87371E-02   -0.80737E-02  9828   0.113E+00-0.403E-01
CGA:  23    -0.355282064852E+03   -0.42872E-02   -0.36525E-02  9828   0.608E-01 0.730E-03
CGA:  24    -0.355287853620E+03   -0.57888E-02   -0.54733E-02  9828   0.140E+00-0.863E-02
CGA:  25    -0.355296607338E+03   -0.87537E-02   -0.74770E-02  9828   0.106E+00-0.256E-01
CGA:  26    -0.355300130269E+03   -0.35229E-02   -0.28076E-02  9828   0.333E-01-0.181E-01
CGA:  27    -0.355301207381E+03   -0.10771E-02   -0.89818E-03  9828   0.171E-01-0.758E-03
CGA:  28    -0.355302151930E+03   -0.94455E-03   -0.90309E-03  9828   0.264E-01-0.264E-03
CGA:  29    -0.355304421790E+03   -0.22699E-02   -0.21054E-02  9828   0.296E-01-0.668E-02
CGA:  30    -0.355305352564E+03   -0.93077E-03   -0.62536E-03  9828   0.103E-01-0.585E-02
CGA:  31    -0.355305731659E+03   -0.37910E-03   -0.31087E-03  9828   0.797E-02-0.166E-02
CGA:  32    -0.355305899589E+03   -0.16793E-03   -0.24222E-03  9828   0.756E-02 0.132E-02
CGA:  33    -0.355306150694E+03   -0.25110E-03   -0.39024E-03  9828   0.913E-02 0.290E-02
CGA:  34    -0.355306732261E+03   -0.58157E-03   -0.67314E-03  9828   0.385E-02 0.237E-02
CGA:  35    -0.355306961695E+03   -0.22943E-03   -0.19443E-03  9828   0.187E-02-0.796E-03
CGA:  36    -0.355306990468E+03   -0.28773E-04   -0.71125E-04  9828   0.179E-02 0.108E-02
CGA:  37    -0.355306999915E+03   -0.94468E-05   -0.57755E-04  9828   0.886E-03 0.924E-03
CGA:  38    -0.355307169212E+03   -0.16930E-03   -0.15394E-03  9828   0.132E-02 0.169E-03
CGA:  39    -0.355307157660E+03    0.11552E-04   -0.42967E-04  9828   0.464E-03 0.917E-03
CGA:  40    -0.355307152040E+03    0.56199E-05   -0.12783E-04  9828   0.282E-03 0.327E-03
CGA:  41    -0.355307155064E+03   -0.30236E-05   -0.12090E-04  9828   0.223E-03 0.236E-03
   1 F= -.35530716E+03 E0= -.35530399E+03  d E =-.355307E+03  mag=    10.0000
       N       E                     dE             d eps       ncg     rms          ort
SDA:   1    -0.355286758109E+03    0.20394E-01    0.00000E+00  9828   0.879E-01 0.000E+00
CGA:   2    -0.355290589998E+03   -0.38319E-02   -0.40957E-02  9828   0.640E-01 0.104E-01
CGA:   3    -0.355301252274E+03   -0.10662E-01   -0.10968E-01  9828   0.252E-01-0.394E-02
CGA:   4    -0.355304847169E+03   -0.35949E-02   -0.35394E-02  9828   0.209E-01 0.841E-03
CGA:   5    -0.355306132175E+03   -0.12850E-02   -0.11697E-02  9828   0.956E-02-0.455E-02
CGA:   6    -0.355306427280E+03   -0.29510E-03   -0.34633E-03  9828   0.203E-02 0.150E-02
CGA:   7    -0.355306604031E+03   -0.17675E-03   -0.17696E-03  9828   0.268E-02 0.502E-04
CGA:   8    -0.355306812592E+03   -0.20856E-03   -0.37352E-03  9828   0.474E-02-0.294E-02
CGA:   9    -0.355306829193E+03   -0.16600E-04   -0.10598E-03  9828   0.978E-03 0.152E-02
CGA:  10    -0.355306829853E+03   -0.66068E-06   -0.36035E-04  9828   0.802E-03 0.687E-03
CGA:  11    -0.355306976264E+03   -0.14641E-03    0.16332E-03  9828   0.109E-02 0.294E-05
CGA:  12    -0.355306995808E+03   -0.19544E-04   -0.41604E-04  9828   0.301E-03 0.570E-03
CGA:  13    -0.355306986335E+03    0.94722E-05   -0.35235E-05  9828   0.153E-03 0.206E-03
   2 F= -.35530699E+03 E0= -.35530404E+03  d E =0.168728E-03  mag=    10.0000
       N       E                     dE             d eps       ncg     rms          ort
SDA:   1    -0.355295424744E+03    0.11571E-01    0.00000E+00  9828   0.126E+00 0.000E+00
CGA:   2    -0.355299989766E+03   -0.45650E-02   -0.42305E-02  9828   0.301E-01-0.161E-01
CGA:   3    -0.355303628935E+03   -0.36392E-02   -0.33146E-02  9828   0.178E-01 0.548E-02
CGA:   4    -0.355305333492E+03   -0.17046E-02   -0.17784E-02  9828   0.286E-01-0.533E-02
CGA:   5    -0.355306656697E+03   -0.13232E-02   -0.13363E-02  9828   0.933E-02 0.323E-02
CGA:   6    -0.355306835224E+03   -0.17853E-03   -0.25539E-03  9828   0.183E-02 0.184E-02
CGA:   7    -0.355306967485E+03   -0.13226E-03   -0.13382E-03  9828   0.230E-02 0.217E-03
CGA:   8    -0.355307130290E+03   -0.16280E-03   -0.16181E-03  9828   0.130E-02-0.204E-03
CGA:   9    -0.355307128620E+03    0.16702E-05   -0.22306E-04  9828   0.547E-03 0.494E-03
CGA:  10    -0.355307121303E+03    0.73177E-05   -0.11276E-04  9828   0.271E-03 0.372E-03
CGA:  11    -0.355307151962E+03   -0.30659E-04   -0.35003E-04  9828   0.323E-03-0.621E-04
CGA:  12    -0.355307200665E+03   -0.48703E-04    0.17070E-04  9828   0.217E-03 0.305E-04
CGA:  13    -0.355307205878E+03   -0.52137E-05   -0.84558E-05  9828   0.642E-04 0.108E-03
   3 F= -.35530721E+03 E0= -.35530430E+03  d E =-.508149E-04  mag=    10.0000
       N       E                     dE             d eps       ncg     rms          ort
SDA:   1    -0.355307149903E+03    0.50762E-04    0.00000E+00  9828   0.195E-02 0.000E+00
CGA:   2    -0.355307186841E+03   -0.36938E-04   -0.53532E-04  9828   0.255E-03 0.479E-03
CGA:   3    -0.355307195024E+03   -0.81829E-05   -0.11107E-04  9828   0.151E-03 0.115E-03
CGA:   4    -0.355307214768E+03   -0.19744E-04   -0.22439E-04  9828   0.320E-03-0.594E-04
CGA:   5    -0.355307219889E+03   -0.51216E-05   -0.59789E-05  9828   0.411E-03 0.286E-04
CGA:   6    -0.355307229197E+03   -0.93081E-05   -0.13438E-04  9828   0.225E-03 0.139E-03
   4 F= -.35530723E+03 E0= -.35530435E+03  d E =-.741338E-04  mag=    10.0000
       N       E                     dE             d eps       ncg     rms          ort
SDA:   1    -0.355305863600E+03    0.13563E-02    0.00000E+00  9828   0.202E-01 0.000E+00
CGA:   2    -0.355306852591E+03   -0.98899E-03   -0.96656E-03  9828   0.440E-02-0.308E-02
CGA:   3    -0.355306950249E+03   -0.97658E-04   -0.12302E-03  9828   0.882E-03 0.112E-02
CGA:   4    -0.355306979156E+03   -0.28907E-04   -0.37466E-04  9828   0.630E-03 0.407E-03
CGA:   5    -0.355307098382E+03   -0.11923E-03   -0.12165E-03  9828   0.176E-02-0.313E-04
CGA:   6    -0.355307152883E+03   -0.54501E-04   -0.53301E-04  9828   0.748E-03-0.450E-04
CGA:   7    -0.355307166858E+03   -0.13975E-04   -0.16093E-04  9828   0.331E-03 0.633E-04
CGA:   8    -0.355307174937E+03   -0.80792E-05   -0.10331E-04  9828   0.277E-03 0.884E-04
CGA:   9    -0.355307183548E+03   -0.86107E-05   -0.10767E-04  9828   0.170E-03 0.951E-04
   5 F= -.35530718E+03 E0= -.35530433E+03  d E =-.284844E-04  mag=    10.0000
       N       E                     dE             d eps       ncg     rms          ort
SDA:   1    -0.355305538074E+03    0.16369E-02    0.00000E+00  9828   0.271E-01 0.000E+00
CGA:   2    -0.355307073270E+03   -0.15352E-02   -0.15757E-02  9828   0.796E-02-0.594E-02
CGA:   3    -0.355307120333E+03   -0.47062E-04   -0.11524E-03  9828   0.184E-02 0.213E-02
CGA:   4    -0.355307107666E+03    0.12666E-04   -0.26993E-04  9828   0.588E-03 0.105E-02
CGA:   5    -0.355307106260E+03    0.14063E-05   -0.10435E-04  9828   0.291E-03 0.395E-03
CGA:   6    -0.355307110617E+03   -0.43567E-05   -0.81147E-05  9828   0.162E-03 0.205E-03
   6 F= -.35530711E+03 E0= -.35530428E+03  d E =0.444467E-04  mag=    10.0000
       N       E                     dE             d eps       ncg     rms          ort
SDA:   1    -0.355296769821E+03    0.10336E-01    0.00000E+00  9828   0.237E+00 0.000E+00
CGA:   2    -0.355305830269E+03   -0.90604E-02   -0.98381E-02  9828   0.512E-01-0.222E-01
CGA:   3    -0.355306978576E+03   -0.11483E-02   -0.13330E-02  9828   0.214E-02 0.662E-02
CGA:   4    -0.355306985407E+03   -0.68309E-05   -0.55033E-04  9828   0.822E-03 0.884E-03
CGA:   5    -0.355307024233E+03   -0.38826E-04   -0.53528E-04  9828   0.976E-03 0.506E-03
CGA:   6    -0.355303182154E+03    0.38421E-02   -0.21920E-02  9828   0.183E+00-0.105E-01
CGA:   7    -0.355307109482E+03   -0.39273E-02   -0.39290E-02  9828   0.562E-02 0.314E-01
CGA:   8    -0.355307142169E+03   -0.32687E-04   -0.12588E-03  9828   0.384E-03 0.106E-02
CGA:   9    -0.355307141069E+03    0.10997E-05   -0.13031E-04  9828   0.229E-03 0.150E-03
CGA:  10    -0.355307180824E+03   -0.39755E-04   -0.44879E-04  9828   0.783E-03-0.233E-03
CGA:  11    -0.355307201687E+03   -0.20863E-04   -0.24950E-04  9828   0.407E-04 0.451E-04
CGA:  12    -0.355307201046E+03    0.64083E-06   -0.13094E-05  9828   0.154E-04 0.231E-04
   7 F= -.35530720E+03 E0= -.35530437E+03  d E =-.459829E-04  mag=    10.0000
