       N       E                     dE             d eps       ncg     rms          ort
DAV:   1     0.222925716202E+04    0.22293E+04   -0.13801E+05 10080   0.163E+03
DAV:   2    -0.197238574998E+03   -0.24265E+04   -0.22618E+04 10080   0.429E+02
DAV:   3    -0.442768151729E+03   -0.24553E+03   -0.23883E+03 10080   0.149E+02
DAV:   4    -0.450184344752E+03   -0.74162E+01   -0.73628E+01 10080   0.248E+01
DAV:   5    -0.450498104587E+03   -0.31376E+00   -0.31331E+00 10080   0.371E+00
SDA:   6    -0.372992248991E+03    0.77506E+02   -0.31331E+00 10080   0.161E+02 0.000E+00
CGA:   7    -0.375893380238E+03   -0.29011E+01   -0.29052E+01 10080   0.224E+01-0.932E-02
CGA:   8    -0.376399143710E+03   -0.50576E+00   -0.50570E+00 10080   0.846E+00-0.334E-02
CGA:   9    -0.376623266027E+03   -0.22412E+00   -0.22768E+00 10080   0.310E+00-0.543E-01
CGA:  10    -0.376704101088E+03   -0.80835E-01   -0.84513E-01 10080   0.212E+00-0.429E-01
CGA:  11    -0.376751175086E+03   -0.47074E-01   -0.49352E-01 10080   0.132E+00-0.377E-01
CGA:  12    -0.376782634466E+03   -0.31459E-01   -0.35296E-01 10080   0.772E-01-0.342E-01
CGA:  13    -0.376797732795E+03   -0.15098E-01   -0.16152E-01 10080   0.328E-01-0.164E-01
CGA:  14    -0.376805185940E+03   -0.74531E-02   -0.80724E-02 10080   0.154E-01-0.679E-02
CGA:  15    -0.376809181318E+03   -0.39954E-02   -0.42549E-02 10080   0.766E-02-0.211E-02
CGA:  16    -0.376810874809E+03   -0.16935E-02   -0.16679E-02 10080   0.255E-02 0.120E-02
CGA:  17    -0.376811326827E+03   -0.45202E-03   -0.52358E-03 10080   0.103E-02 0.130E-02
CGA:  18    -0.376811403746E+03   -0.76919E-04   -0.14262E-03 10080   0.569E-03 0.726E-03
CGA:  19    -0.376811394033E+03    0.97135E-05   -0.54656E-04 10080   0.444E-03 0.500E-03
CGA:  20    -0.376811373404E+03    0.20629E-04   -0.35491E-04 10080   0.373E-03 0.405E-03
CGA:  21    -0.376811349931E+03    0.23473E-04   -0.25812E-04 10080   0.325E-03 0.346E-03
CGA:  22    -0.376811326187E+03    0.23743E-04   -0.19939E-04 10080   0.290E-03 0.305E-03
CGA:  23    -0.376811303158E+03    0.23030E-04   -0.16000E-04 10080   0.263E-03 0.275E-03
CGA:  24    -0.376811281234E+03    0.21923E-04   -0.13188E-04 10080   0.241E-03 0.251E-03
CGA:  25    -0.376811260553E+03    0.20681E-04   -0.11085E-04 10080   0.224E-03 0.231E-03
CGA:  26    -0.376811241133E+03    0.19420E-04   -0.94589E-05 10080   0.209E-03 0.215E-03
CGA:  27    -0.376811222940E+03    0.18193E-04   -0.81696E-05 10080   0.197E-03 0.202E-03
CGA:  28    -0.376811205913E+03    0.17027E-04   -0.71257E-05 10080   0.186E-03 0.190E-03
CGA:  29    -0.376811189981E+03    0.15932E-04   -0.62648E-05 10080   0.176E-03 0.180E-03
CGA:  30    -0.376811175071E+03    0.14910E-04   -0.55470E-05 10080   0.168E-03 0.172E-03
CGA:  31    -0.376811161112E+03    0.13959E-04   -0.49414E-05 10080   0.161E-03 0.164E-03
CGA:  32    -0.376811148035E+03    0.13077E-04   -0.44254E-05 10080   0.154E-03 0.157E-03
CGA:  33    -0.376811135776E+03    0.12259E-04   -0.39815E-05 10080   0.149E-03 0.151E-03
CGA:  34    -0.376811124275E+03    0.11501E-04   -0.35973E-05 10080   0.143E-03 0.146E-03
CGA:  35    -0.376811113477E+03    0.10798E-04   -0.32628E-05 10080   0.139E-03 0.141E-03
CGA:  36    -0.376811103331E+03    0.10146E-04   -0.29698E-05 10080   0.134E-03 0.136E-03
CGA:  37    -0.376811093790E+03    0.95406E-05   -0.27116E-05 10080   0.131E-03 0.132E-03
   1 F= -.37681109E+03 E0= -.37681109E+03  d E =-.376811E+03  mag=    12.0000
       N       E                     dE             d eps       ncg     rms          ort
SDA:   1    -0.376791589684E+03    0.19514E-01    0.00000E+00 10080   0.486E-01 0.000E+00
CGA:   2    -0.376804557228E+03   -0.12968E-01   -0.12792E-01 10080   0.205E-01 0.108E-02
CGA:   3    -0.376808550715E+03   -0.39935E-02   -0.39089E-02 10080   0.592E-02 0.112E-02
CGA:   4    -0.376809486937E+03   -0.93622E-03   -0.90219E-03 10080   0.121E-02 0.117E-02
CGA:   5    -0.376809703049E+03   -0.21611E-03   -0.20472E-03 10080   0.325E-03 0.471E-03
CGA:   6    -0.376809781309E+03   -0.78260E-04   -0.71903E-04 10080   0.126E-03 0.154E-03
CGA:   7    -0.376809795226E+03   -0.13917E-04   -0.17231E-04 10080   0.685E-04 0.120E-03
CGA:   8    -0.376809794033E+03    0.11923E-05   -0.31931E-05 10080   0.546E-04 0.607E-04
   2 F= -.37680979E+03 E0= -.37680979E+03  d E =0.129976E-02  mag=    12.0000
       N       E                     dE             d eps       ncg     rms          ort
SDA:   1    -0.376802462369E+03    0.73329E-02    0.00000E+00 10080   0.194E-01 0.000E+00
CGA:   2    -0.376807643361E+03   -0.51810E-02   -0.51786E-02 10080   0.850E-02 0.755E-05
CGA:   3    -0.376809367436E+03   -0.17241E-02   -0.17861E-02 10080   0.287E-02-0.687E-03
CGA:   4    -0.376809839419E+03   -0.47198E-03   -0.53244E-03 10080   0.113E-02-0.776E-03
CGA:   5    -0.376809960482E+03   -0.12106E-03   -0.12126E-03 10080   0.246E-03-0.105E-04
CGA:   6    -0.376809979913E+03   -0.19431E-04   -0.23300E-04 10080   0.994E-04 0.118E-03
CGA:   7    -0.376809988802E+03   -0.88887E-05   -0.12171E-04 10080   0.440E-04 0.742E-04
CGA:   8    -0.376810000186E+03   -0.11385E-04    0.75866E-04 10080   0.221E-04 0.288E-04
CGA:   9    -0.376810009287E+03   -0.91009E-05   -0.33599E-06 10080   0.168E-04-0.129E-04
   3 F= -.37681001E+03 E0= -.37681001E+03  d E =0.108450E-02  mag=    12.0000
