       N       E                     dE             d eps       ncg     rms          ort
DAV:   1     0.259015427624E+04    0.25902E+04   -0.14089E+05 10584   0.164E+03
DAV:   2    -0.129353047771E+03   -0.27195E+04   -0.25180E+04 10584   0.426E+02
DAV:   3    -0.444896878090E+03   -0.31554E+03   -0.31064E+03 10584   0.167E+02
DAV:   4    -0.456378907599E+03   -0.11482E+02   -0.11267E+02 10584   0.310E+01
DAV:   5    -0.456904116307E+03   -0.52521E+00   -0.51954E+00 10584   0.490E+00
SDA:   6    -0.246787390117E+03    0.21012E+03   -0.51954E+00 10584   0.516E+03 0.000E+00
CGA:   7    -0.323725763477E+03   -0.76938E+02   -0.69360E+02 10584   0.174E+03-0.730E+02
CGA:   8    -0.330181989780E+03   -0.64562E+01   -0.14253E+02 10584   0.139E+03-0.182E+02
CGA:   9    -0.339974796073E+03   -0.97928E+01   -0.11027E+02 10584   0.385E+02-0.174E+02
CGA:  10    -0.342249516482E+03   -0.22747E+01   -0.33088E+01 10584   0.598E+02-0.275E+01
CGA:  11    -0.344407861289E+03   -0.21583E+01   -0.34168E+01 10584   0.215E+02-0.151E+02
CGA:  12    -0.345751288125E+03   -0.13434E+01   -0.15953E+01 10584   0.803E+01-0.907E+00
CGA:  13    -0.346705559123E+03   -0.95427E+00   -0.96393E+00 10584   0.601E+01-0.445E-01
CGA:  14    -0.347038548842E+03   -0.33299E+00   -0.34072E+00 10584   0.207E+01-0.565E+00
CGA:  15    -0.347333641598E+03   -0.29509E+00   -0.29530E+00 10584   0.114E+01 0.195E-01
CGA:  16    -0.347401753697E+03   -0.68112E-01   -0.72973E-01 10584   0.118E+01-0.805E-01
CGA:  17    -0.347517656809E+03   -0.11590E+00   -0.11481E+00 10584   0.935E+00 0.382E-03
CGA:  18    -0.347573612853E+03   -0.55956E-01   -0.64749E-01 10584   0.552E+00-0.741E-01
CGA:  19    -0.347632206284E+03   -0.58593E-01   -0.61027E-01 10584   0.498E+00 0.189E-01
CGA:  20    -0.347679298413E+03   -0.47092E-01   -0.43206E-01 10584   0.217E+00 0.280E-01
CGA:  21    -0.347714727587E+03   -0.35429E-01   -0.35310E-01 10584   0.229E+00 0.124E-01
CGA:  22    -0.347736596890E+03   -0.21869E-01   -0.23037E-01 10584   0.119E+00 0.377E-02
CGA:  23    -0.347768538170E+03   -0.31941E-01   -0.31324E-01 10584   0.664E-01 0.191E-02
CGA:  24    -0.347787983035E+03   -0.19445E-01   -0.20535E-01 10584   0.104E+00-0.834E-02
CGA:  25    -0.347793566310E+03   -0.55833E-02   -0.54125E-02 10584   0.440E-01 0.412E-02
CGA:  26    -0.347800357492E+03   -0.67912E-02   -0.68103E-02 10584   0.565E-01 0.446E-02
CGA:  27    -0.347803255654E+03   -0.28982E-02   -0.29133E-02 10584   0.159E-01 0.645E-02
CGA:  28    -0.347805946810E+03   -0.26912E-02   -0.26894E-02 10584   0.370E-01 0.892E-03
CGA:  29    -0.347808257521E+03   -0.23107E-02   -0.23414E-02 10584   0.146E-01 0.407E-03
CGA:  30    -0.347809886854E+03   -0.16293E-02   -0.16080E-02 10584   0.243E-01-0.111E-02
CGA:  31    -0.347811298585E+03   -0.14117E-02   -0.12430E-02 10584   0.102E-01-0.451E-03
CGA:  32    -0.347812514408E+03   -0.12158E-02   -0.11790E-02 10584   0.255E-01-0.157E-02
CGA:  33    -0.347813870902E+03   -0.13565E-02   -0.12423E-02 10584   0.120E-01-0.174E-02
CGA:  34    -0.347814404755E+03   -0.53385E-03   -0.50787E-03 10584   0.122E-01-0.129E-03
CGA:  35    -0.347815620825E+03   -0.12161E-02   -0.12384E-02 10584   0.162E-01 0.748E-03
CGA:  36    -0.347816162986E+03   -0.54216E-03   -0.56908E-03 10584   0.496E-02 0.903E-03
SDA:  37    -0.347816583365E+03   -0.42038E-03   -0.43463E-03 10584   0.106E-01 0.415E-03
CGA:  38    -0.347817020461E+03   -0.43710E-03   -0.42282E-03 10584   0.426E-02 0.239E-03
CGA:  39    -0.347818523216E+03   -0.15028E-02   -0.15778E-02 10584   0.124E-01-0.290E-03
CGA:  40    -0.347819025712E+03   -0.50250E-03   -0.45643E-03 10584   0.296E-02 0.678E-04
CGA:  41    -0.347819440654E+03   -0.41494E-03   -0.40771E-03 10584   0.295E-02 0.552E-03
CGA:  42    -0.347819569641E+03   -0.12899E-03   -0.16050E-03 10584   0.193E-02 0.501E-03
CGA:  43    -0.347820016264E+03   -0.44662E-03   -0.40008E-03 10584   0.170E-02 0.795E-03
CGA:  44    -0.347820165343E+03   -0.14908E-03   -0.13343E-03 10584   0.197E-02-0.197E-04
CGA:  45    -0.347820254254E+03   -0.88911E-04   -0.39136E-03 10584   0.362E-02-0.378E-02
CGA:  46    -0.347820395933E+03   -0.14168E-03   -0.14996E-03 10584   0.217E-02 0.147E-03
CGA:  47    -0.347820591178E+03   -0.19524E-03   -0.19773E-03 10584   0.185E-02 0.841E-04
CGA:  48    -0.347820716949E+03   -0.12577E-03   -0.12166E-03 10584   0.309E-02-0.579E-04
CGA:  49    -0.347820999271E+03   -0.28232E-03   -0.28798E-03 10584   0.489E-03 0.251E-03
CGA:  50    -0.347821089691E+03   -0.90419E-04   -0.96996E-04 10584   0.363E-02-0.937E-04
CGA:  51    -0.347821300701E+03   -0.21101E-03   -0.15554E-03 10584   0.340E-02-0.119E-03
CGA:  52    -0.347821394463E+03   -0.93762E-04   -0.63393E-04 10584   0.110E-02 0.134E-03
CGA:  53    -0.347821433173E+03   -0.38710E-04   -0.32053E-04 10584   0.921E-03 0.279E-05
CGA:  54    -0.347821452402E+03   -0.19230E-04   -0.23518E-04 10584   0.673E-03 0.144E-03
CGA:  55    -0.347821457837E+03   -0.54346E-05   -0.14963E-04 10584   0.360E-03 0.145E-03
CGA:  56    -0.347821458459E+03   -0.62180E-06   -0.10454E-04 10584   0.466E-03 0.137E-03
CGA:  57    -0.347821465324E+03   -0.68650E-05   -0.24430E-04 10584   0.946E-03 0.316E-03
CGA:  58    -0.347821495255E+03   -0.29931E-04   -0.27951E-04 10584   0.389E-03-0.284E-04
CGA:  59    -0.347821535321E+03   -0.40066E-04   -0.40719E-04 10584   0.926E-03-0.365E-04
CGA:  60    -0.347821564907E+03   -0.29586E-04   -0.34453E-04 10584   0.545E-03 0.967E-04
CGA:  61    -0.347821675650E+03   -0.11074E-03   -0.10205E-03 10584   0.144E-02 0.103E-03
CGA:  62    -0.347821728367E+03   -0.52716E-04   -0.50105E-04 10584   0.350E-03-0.655E-04
CGA:  63    -0.347821768825E+03   -0.40458E-04   -0.37765E-04 10584   0.497E-03 0.105E-03
CGA:  64    -0.347821798754E+03   -0.29930E-04   -0.30191E-04 10584   0.382E-03 0.282E-05
CGA:  65    -0.347821828823E+03   -0.30069E-04   -0.30532E-04 10584   0.385E-03 0.591E-04
CGA:  66    -0.347821871076E+03   -0.42253E-04   -0.43767E-04 10584   0.148E-02-0.128E-03
CGA:  67    -0.347821941103E+03   -0.70027E-04   -0.64967E-04 10584   0.139E-02-0.140E-03
CGA:  68    -0.347821959665E+03   -0.18562E-04   -0.18863E-04 10584   0.370E-03 0.766E-04
CGA:  69    -0.347821971654E+03   -0.11990E-04   -0.13175E-04 10584   0.706E-03 0.241E-04
CGA:  70    -0.347822017735E+03   -0.46081E-04   -0.44552E-04 10584   0.114E-02-0.532E-04
CGA:  71    -0.347822041914E+03   -0.24179E-04   -0.18213E-04 10584   0.606E-03-0.169E-04
CGA:  72    -0.347822066231E+03   -0.24316E-04   -0.20717E-04 10584   0.138E-02-0.748E-04
CGA:  73    -0.347822104988E+03   -0.38757E-04   -0.37693E-04 10584   0.205E-02-0.204E-04
CGA:  74    -0.347822128937E+03   -0.23949E-04   -0.31106E-04 10584   0.616E-03-0.162E-04
CGA:  75    -0.347822132887E+03   -0.39500E-05   -0.83846E-05 10584   0.362E-03 0.726E-04
CGA:  76    -0.347822138927E+03   -0.60396E-05   -0.10461E-04 10584   0.668E-03 0.107E-03
CGA:  77    -0.347822172667E+03   -0.33740E-04   -0.38458E-04 10584   0.146E-02 0.225E-03
CGA:  78    -0.347822225132E+03   -0.52465E-04   -0.58817E-04 10584   0.795E-03 0.144E-03
CGA:  79    -0.347822240263E+03   -0.15131E-04   -0.16313E-04 10584   0.226E-03 0.138E-04
CGA:  80    -0.347822250102E+03   -0.98396E-05   -0.89737E-05 10584   0.412E-03-0.445E-04
CGA:  81    -0.347822266346E+03   -0.16244E-04   -0.26702E-04 10584   0.864E-03-0.479E-03
CGA:  82    -0.347822294587E+03   -0.28241E-04   -0.24338E-04 10584   0.361E-03-0.128E-03
CGA:  83    -0.347822308610E+03   -0.14023E-04   -0.14310E-04 10584   0.688E-04 0.246E-04
CGA:  84    -0.347822310742E+03   -0.21318E-05   -0.23211E-05 10584   0.325E-04 0.730E-05
   1 F= -.34782231E+03 E0= -.34781960E+03  d E =-.347822E+03  mag=    18.0000
       N       E                     dE             d eps       ncg     rms          ort
SDA:   1    -0.347820967765E+03    0.13408E-02    0.00000E+00 10584   0.406E-01 0.000E+00
CGA:   2    -0.347821751291E+03   -0.78353E-03   -0.78840E-03 10584   0.218E-02 0.699E-04
CGA:   3    -0.347821881867E+03   -0.13058E-03   -0.12935E-03 10584   0.338E-02 0.252E-03
CGA:   4    -0.347822141305E+03   -0.25944E-03   -0.26269E-03 10584   0.163E-02-0.223E-03
CGA:   5    -0.347822232296E+03   -0.90991E-04   -0.90458E-04 10584   0.127E-02 0.128E-03
CGA:   6    -0.347822307038E+03   -0.74742E-04   -0.74449E-04 10584   0.893E-03-0.249E-03
CGA:   7    -0.347822328772E+03   -0.21734E-04   -0.22381E-04 10584   0.269E-03 0.255E-04
CGA:   8    -0.347822350441E+03   -0.21669E-04   -0.21279E-04 10584   0.304E-03 0.170E-04
CGA:   9    -0.347822366209E+03   -0.15768E-04   -0.14690E-04 10584   0.173E-03-0.110E-03
CGA:  10    -0.347822368365E+03   -0.21562E-05   -0.27867E-05 10584   0.727E-04 0.211E-04
   2 F= -.34782237E+03 E0= -.34781966E+03  d E =-.576233E-04  mag=    18.0000
       N       E                     dE             d eps       ncg     rms          ort
SDA:   1    -0.347819967004E+03    0.23992E-02    0.00000E+00 10584   0.123E+00 0.000E+00
CGA:   2    -0.347821967939E+03   -0.20009E-02   -0.20166E-02 10584   0.228E-02 0.232E-02
CGA:   3    -0.347822096077E+03   -0.12814E-03   -0.12729E-03 10584   0.207E-02 0.184E-03
CGA:   4    -0.347822208204E+03   -0.11213E-03   -0.11206E-03 10584   0.100E-02-0.149E-03
CGA:   5    -0.347822274478E+03   -0.66274E-04   -0.64188E-04 10584   0.138E-02 0.110E-03
CGA:   6    -0.347822345901E+03   -0.71423E-04   -0.70729E-04 10584   0.585E-03-0.138E-03
CGA:   7    -0.347822366640E+03   -0.20738E-04   -0.20557E-04 10584   0.216E-03-0.160E-04
CGA:   8    -0.347822388692E+03   -0.22053E-04   -0.27778E-04 10584   0.540E-03-0.705E-04
CGA:   9    -0.347822396168E+03   -0.74753E-05   -0.78084E-05 10584   0.949E-04 0.968E-05
   3 F= -.34782240E+03 E0= -.34781967E+03  d E =-.278026E-04  mag=    18.0000
