       N       E                     dE             d eps       ncg     rms          rms(c)
DAV:   1     0.291725534105E+04    0.29173E+04   -0.13860E+05 26772   0.150E+03
DAV:   2     0.120439174373E+02   -0.29052E+04   -0.27183E+04 27912   0.426E+02
DAV:   3    -0.310841873355E+03   -0.32289E+03   -0.31829E+03 30516   0.153E+02
DAV:   4    -0.322534157377E+03   -0.11692E+02   -0.11488E+02 36900   0.278E+01
DAV:   5    -0.323210725360E+03   -0.67657E+00   -0.67526E+00 42720   0.487E+00    0.705E+01
DAV:   6    -0.283618138567E+03    0.39593E+02   -0.31219E+02 33972   0.513E+01    0.605E+01
DAV:   7    -0.282004191173E+03    0.16139E+01   -0.60753E+01 32148   0.484E+01    0.354E+01
DAV:   8    -0.283479547668E+03   -0.14754E+01   -0.37548E+01 35712   0.138E+01    0.307E+01
DAV:   9    -0.281903247476E+03    0.15763E+01   -0.90205E+00 32580   0.124E+01    0.149E+01
DAV:  10    -0.282684720441E+03   -0.78147E+00   -0.13936E+01 35544   0.945E+00    0.234E+01
DAV:  11    -0.282011554697E+03    0.67317E+00   -0.18373E+00 32220   0.700E+00    0.884E+00
DAV:  12    -0.282014566477E+03   -0.30118E-02   -0.27111E+00 35436   0.408E+00    0.783E+00
DAV:  13    -0.281993389610E+03    0.21177E-01   -0.59654E-01 32448   0.284E+00    0.624E+00
DAV:  14    -0.281956321691E+03    0.37068E-01   -0.45397E-01 33960   0.183E+00    0.310E+00
DAV:  15    -0.281960817002E+03   -0.44953E-02   -0.13553E-01 33132   0.125E+00    0.160E+00
DAV:  16    -0.281964222477E+03   -0.34055E-02   -0.63247E-02 30948   0.636E-01    0.157E+00
DAV:  17    -0.281963512633E+03    0.70984E-03   -0.15742E-02 30828   0.426E-01    0.412E-01
DAV:  18    -0.281964709284E+03   -0.11967E-02   -0.55892E-03 30336   0.159E-01    0.445E-01
DAV:  19    -0.281964821005E+03   -0.11172E-03   -0.76179E-04 30024   0.112E-01    0.209E-01
DAV:  20    -0.281964958095E+03   -0.13709E-03   -0.13358E-03 33828   0.623E-02    0.207E-01
DAV:  21    -0.281964983561E+03   -0.25466E-04   -0.24386E-04 28116   0.457E-02    0.179E-01
DAV:  22    -0.281964967463E+03    0.16097E-04   -0.30005E-04 30168   0.392E-02    0.207E-02
DAV:  23    -0.281964986111E+03   -0.18647E-04   -0.39192E-05 18960   0.138E-02    0.665E-02
DAV:  24    -0.281964982446E+03    0.36646E-05   -0.25140E-05 18228   0.139E-02
   1 F= -.28196498E+03 E0= -.28196214E+03  d E =-.281965E+03  mag=    17.9997
       N       E                     dE             d eps       ncg     rms          rms(c)
DAV:   1    -0.281979454915E+03   -0.14469E-01   -0.55347E-03 28740   0.240E-01    0.369E-02
DAV:   2    -0.281979475270E+03   -0.20355E-04   -0.28363E-04 30384   0.477E-02    0.620E-02
DAV:   3    -0.281979475182E+03    0.87493E-07   -0.99377E-05 24300   0.252E-02    0.699E-02
DAV:   4    -0.281979471235E+03    0.39473E-05   -0.14821E-05 17916   0.169E-02
   2 F= -.28197947E+03 E0= -.28197663E+03  d E =-.144888E-01  mag=    18.0000
       N       E                     dE             d eps       ncg     rms          rms(c)
DAV:   1    -0.282467432073E+03   -0.48796E+00   -0.89869E+00 27060   0.967E+00    0.162E+00
DAV:   2    -0.282510971006E+03   -0.43539E-01   -0.58147E-01 30804   0.210E+00    0.447E+00
DAV:   3    -0.282494518801E+03    0.16452E-01   -0.17628E-01 34344   0.123E+00    0.108E+00
DAV:   4    -0.282496666076E+03   -0.21473E-02   -0.13308E-02 34332   0.451E-01    0.139E+00
DAV:   5    -0.282495447744E+03    0.12183E-02   -0.25318E-02 34104   0.371E-01    0.130E+00
DAV:   6    -0.282495273980E+03    0.17376E-03   -0.23445E-02 37632   0.330E-01    0.114E+00
DAV:   7    -0.282494994436E+03    0.27954E-03   -0.28212E-03 31812   0.223E-01    0.975E-01
DAV:   8    -0.282494396402E+03    0.59803E-03   -0.23038E-03 33612   0.110E-01    0.460E-01
DAV:   9    -0.282494551586E+03   -0.15518E-03   -0.21863E-03 37260   0.715E-02    0.186E-01
DAV:  10    -0.282494687251E+03   -0.13567E-03   -0.53784E-04 28716   0.507E-02    0.249E-01
DAV:  11    -0.282494643046E+03    0.44206E-04   -0.25676E-04 26160   0.421E-02    0.120E-01
DAV:  12    -0.282494648974E+03   -0.59285E-05   -0.10802E-04 20700   0.219E-02    0.560E-02
DAV:  13    -0.282494653257E+03   -0.42828E-05   -0.29834E-05 16596   0.130E-02
   3 F= -.28249465E+03 E0= -.28249185E+03  d E =-.515182E+00  mag=    18.0000
       N       E                     dE             d eps       ncg     rms          rms(c)
DAV:   1    -0.283190111822E+03   -0.69546E+00   -0.49222E+01 27984   0.240E+01    0.360E+00
DAV:   2    -0.283471390855E+03   -0.28128E+00   -0.35538E+00 30132   0.530E+00    0.892E+00
DAV:   3    -0.283392908702E+03    0.78482E-01   -0.74279E-01 34260   0.288E+00    0.232E+00
DAV:   4    -0.283404229272E+03   -0.11321E-01   -0.16518E-01 36600   0.118E+00    0.441E+00
DAV:   5    -0.283387540037E+03    0.16689E-01   -0.11225E-01 33192   0.912E-01    0.161E+00
DAV:   6    -0.283394649882E+03   -0.71098E-02   -0.14042E-01 36936   0.736E-01    0.310E+00
DAV:   7    -0.283386650738E+03    0.79991E-02   -0.23341E-02 33564   0.619E-01    0.159E+00
DAV:   8    -0.283386354658E+03    0.29608E-03   -0.25836E-02 37224   0.279E-01    0.408E-01
DAV:   9    -0.283387738319E+03   -0.13837E-02   -0.22809E-03 32028   0.165E-01    0.583E-01
DAV:  10    -0.283387502452E+03    0.23587E-03   -0.13987E-03 36492   0.951E-02    0.397E-01
DAV:  11    -0.283387447126E+03    0.55327E-04   -0.14267E-03 36408   0.736E-02    0.951E-02
DAV:  12    -0.283387531305E+03   -0.84179E-04   -0.19622E-04 26916   0.337E-02    0.180E-01
DAV:  13    -0.283387505182E+03    0.26123E-04   -0.86456E-05 21288   0.284E-02    0.845E-02
DAV:  14    -0.283387508275E+03   -0.30928E-05   -0.67377E-05 16560   0.148E-02
   4 F= -.28338751E+03 E0= -.28338476E+03  d E =-.892855E+00  mag=    18.0000
       N       E                     dE             d eps       ncg     rms          rms(c)
DAV:   1    -0.283691725233E+03   -0.30422E+00   -0.51096E+01 27468   0.275E+01    0.333E+00
DAV:   2    -0.284120171884E+03   -0.42845E+00   -0.49605E+00 29184   0.620E+00    0.112E+01
DAV:   3    -0.284008512019E+03    0.11166E+00   -0.83325E-01 34500   0.305E+00    0.266E+00
DAV:   4    -0.284045091376E+03   -0.36579E-01   -0.42801E-01 39576   0.138E+00    0.605E+00
DAV:   5    -0.284017053004E+03    0.28038E-01   -0.11781E-01 33600   0.116E+00    0.303E+00
DAV:   6    -0.284018667764E+03   -0.16148E-02   -0.23893E-01 38472   0.885E-01    0.296E+00
DAV:   7    -0.284018005127E+03    0.66264E-03   -0.27723E-02 34008   0.639E-01    0.271E+00
DAV:   8    -0.284012192507E+03    0.58126E-02   -0.36625E-02 36276   0.428E-01    0.976E-01
DAV:   9    -0.284014336839E+03   -0.21443E-02   -0.17689E-02 35616   0.229E-01    0.684E-01
DAV:  10    -0.284015053351E+03   -0.71651E-03   -0.16521E-03 29016   0.122E-01    0.922E-01
DAV:  11    -0.284014444745E+03    0.60861E-03   -0.10800E-03 36444   0.891E-02    0.585E-01
DAV:  12    -0.284014364881E+03    0.79864E-04   -0.24580E-03 37188   0.742E-02    0.541E-02
DAV:  13    -0.284014564801E+03   -0.19992E-03   -0.37463E-04 27492   0.430E-02    0.198E-01
DAV:  14    -0.284014554320E+03    0.10481E-04   -0.34246E-05 20772   0.244E-02    0.187E-01
DAV:  15    -0.284014530843E+03    0.23477E-04   -0.11789E-04 17904   0.193E-02    0.790E-02
DAV:  16    -0.284014539157E+03   -0.83141E-05   -0.51487E-05 17076   0.113E-02
   5 F= -.28401454E+03 E0= -.28401189E+03  d E =-.627031E+00  mag=    18.0000
       N       E                     dE             d eps       ncg     rms          rms(c)
DAV:   1    -0.283900243132E+03    0.11429E+00   -0.71075E+01 27648   0.335E+01    0.366E+00
DAV:   2    -0.284442967211E+03   -0.54272E+00   -0.61023E+00 26856   0.691E+00    0.101E+01
DAV:   3    -0.284373133854E+03    0.69833E-01   -0.99382E-01 36204   0.297E+00    0.305E+00
DAV:   4    -0.284386906105E+03   -0.13772E-01   -0.14111E-01 37284   0.127E+00    0.401E+00
DAV:   5    -0.284373347899E+03    0.13558E-01   -0.10167E-01 34308   0.898E-01    0.198E+00
DAV:   6    -0.284377513550E+03   -0.41657E-02   -0.16464E-01 37056   0.828E-01    0.336E+00
DAV:   7    -0.284368546559E+03    0.89670E-02   -0.36799E-02 35700   0.679E-01    0.162E+00
DAV:   8    -0.284368702617E+03   -0.15606E-03   -0.25318E-02 37944   0.285E-01    0.342E-01
DAV:   9    -0.284370196316E+03   -0.14937E-02   -0.40428E-03 30420   0.166E-01    0.654E-01
DAV:  10    -0.284369868083E+03    0.32823E-03   -0.92778E-04 35256   0.101E-01    0.367E-01
DAV:  11    -0.284369850115E+03    0.17968E-04   -0.13457E-03 36960   0.651E-02    0.834E-02
DAV:  12    -0.284369930573E+03   -0.80458E-04   -0.17293E-04 27168   0.359E-02    0.181E-01
DAV:  13    -0.284369900142E+03    0.30431E-04   -0.14526E-04 23772   0.330E-02    0.428E-02
DAV:  14    -0.284369909738E+03   -0.95962E-05   -0.42850E-05 16548   0.124E-02
   6 F= -.28436991E+03 E0= -.28436737E+03  d E =-.355371E+00  mag=    18.0000
       N       E                     dE             d eps       ncg     rms          rms(c)
DAV:   1    -0.283544649999E+03    0.82525E+00   -0.12096E+02 27648   0.473E+01    0.541E+00
DAV:   2    -0.284722953169E+03   -0.11783E+01   -0.12884E+01 26508   0.101E+01    0.137E+01
DAV:   3    -0.284550610547E+03    0.17234E+00   -0.16494E+00 34524   0.460E+00    0.420E+00
DAV:   4    -0.284627245883E+03   -0.76635E-01   -0.10527E+00 38076   0.226E+00    0.933E+00
DAV:   5    -0.284551388880E+03    0.75857E-01   -0.28601E-01 32832   0.185E+00    0.367E+00
DAV:   6    -0.284566680981E+03   -0.15292E-01   -0.49387E-01 39276   0.116E+00    0.413E+00
DAV:   7    -0.284558089585E+03    0.85914E-02   -0.35768E-02 32256   0.860E-01    0.301E+00
DAV:   8    -0.284551234546E+03    0.68550E-02   -0.62067E-02 38100   0.509E-01    0.937E-01
DAV:   9    -0.284554638576E+03   -0.34040E-02   -0.17779E-02 32256   0.275E-01    0.873E-01
DAV:  10    -0.284554846078E+03   -0.20750E-03   -0.18145E-03 31284   0.151E-01    0.888E-01
DAV:  11    -0.284554222037E+03    0.62404E-03   -0.24128E-03 36300   0.114E-01    0.341E-01
DAV:  12    -0.284554432857E+03   -0.21082E-03   -0.22609E-03 35484   0.695E-02    0.226E-01
DAV:  13    -0.284554533798E+03   -0.10094E-03   -0.14318E-04 27336   0.441E-02    0.302E-01
DAV:  14    -0.284554458261E+03    0.75537E-04   -0.17190E-04 23196   0.322E-02    0.153E-01
DAV:  15    -0.284554465943E+03   -0.76811E-05   -0.18439E-04 20916   0.184E-02    0.275E-02
DAV:  16    -0.284554479301E+03   -0.13358E-04   -0.19489E-05 17616   0.118E-02    0.398E-02
DAV:  17    -0.284554478752E+03    0.54888E-06   -0.77060E-06 16260   0.789E-03
   7 F= -.28455448E+03 E0= -.28455184E+03  d E =-.184569E+00  mag=    18.0000
       N       E                     dE             d eps       ncg     rms          rms(c)
DAV:   1    -0.284261238076E+03    0.29324E+00   -0.64415E+01 26832   0.319E+01    0.475E+00
DAV:   2    -0.284875440069E+03   -0.61420E+00   -0.72060E+00 29088   0.765E+00    0.154E+01
DAV:   3    -0.284613402518E+03    0.26204E+00   -0.12838E+00 30684   0.447E+00    0.314E+00
DAV:   4    -0.284677139430E+03   -0.63737E-01   -0.77160E-01 38844   0.159E+00    0.702E+00
DAV:   5    -0.284650108915E+03    0.27031E-01   -0.20584E-01 30960   0.143E+00    0.507E+00
DAV:   6    -0.284626880415E+03    0.23228E-01   -0.23764E-01 35928   0.100E+00    0.156E+00
DAV:   7    -0.284639271013E+03   -0.12391E-01   -0.10870E-01 32148   0.723E-01    0.325E+00
DAV:   8    -0.284631794461E+03    0.74766E-02   -0.26882E-02 32664   0.556E-01    0.203E+00
DAV:   9    -0.284630878164E+03    0.91630E-03   -0.22178E-02 36936   0.247E-01    0.978E-01
DAV:  10    -0.284631902079E+03   -0.10239E-02   -0.64296E-03 32820   0.172E-01    0.558E-01
DAV:  11    -0.284632095835E+03   -0.19376E-03   -0.23120E-03 35016   0.105E-01    0.420E-01
DAV:  12    -0.284632048952E+03    0.46883E-04   -0.10961E-03 35400   0.729E-02    0.217E-01
DAV:  13    -0.284632072823E+03   -0.23870E-04   -0.52983E-04 33696   0.478E-02    0.102E-01
DAV:  14    -0.284632088631E+03   -0.15808E-04   -0.40898E-05 20172   0.247E-02    0.825E-02
DAV:  15    -0.284632084884E+03    0.37477E-05   -0.33593E-05 16968   0.148E-02
   8 F= -.28463208E+03 E0= -.28462938E+03  d E =-.776061E-01  mag=    18.0000
       N       E                     dE             d eps       ncg     rms          rms(c)
DAV:   1    -0.284613822587E+03    0.18266E-01   -0.12106E+01 26676   0.146E+01    0.196E+00
DAV:   2    -0.284710140085E+03   -0.96317E-01   -0.10462E+00 29904   0.292E+00    0.532E+00
DAV:   3    -0.284690736591E+03    0.19403E-01   -0.23820E-01 32040   0.146E+00    0.139E+00
DAV:   4    -0.284697079759E+03   -0.63432E-02   -0.35886E-02 32412   0.612E-01    0.218E+00
DAV:   5    -0.284693760957E+03    0.33188E-02   -0.29533E-02 32280   0.469E-01    0.144E+00
DAV:   6    -0.284692617874E+03    0.11431E-02   -0.26121E-02 35928   0.380E-01    0.861E-01
DAV:   7    -0.284693363081E+03   -0.74521E-03   -0.89027E-03 32040   0.259E-01    0.135E+00
DAV:   8    -0.284691882947E+03    0.14801E-02   -0.43679E-03 32676   0.189E-01    0.653E-01
DAV:   9    -0.284692037174E+03   -0.15423E-03   -0.41381E-03 36384   0.106E-01    0.241E-01
DAV:  10    -0.284692256145E+03   -0.21897E-03   -0.83832E-04 30528   0.727E-02    0.260E-01
DAV:  11    -0.284692212197E+03    0.43948E-04   -0.26787E-04 32112   0.475E-02    0.133E-01
DAV:  12    -0.284692217123E+03   -0.49259E-05   -0.21275E-04 22824   0.265E-02    0.724E-02
DAV:  13    -0.284692223786E+03   -0.66630E-05   -0.42348E-05 18648   0.185E-02
   9 F= -.28469222E+03 E0= -.28468939E+03  d E =-.601389E-01  mag=    18.0000
       N       E                     dE             d eps       ncg     rms          rms(c)
DAV:   1    -0.284680233552E+03    0.11984E-01   -0.38301E+00 27648   0.929E+00    0.115E+00
DAV:   2    -0.284723949677E+03   -0.43716E-01   -0.46332E-01 28824   0.192E+00    0.388E+00
DAV:   3    -0.284713501228E+03    0.10448E-01   -0.10994E-01 33744   0.101E+00    0.704E-01
DAV:   4    -0.284717811766E+03   -0.43105E-02   -0.15032E-02 33456   0.341E-01    0.141E+00
DAV:   5    -0.284716546523E+03    0.12652E-02   -0.70163E-03 32292   0.245E-01    0.988E-01
DAV:   6    -0.284715993883E+03    0.55264E-03   -0.12244E-02 35712   0.208E-01    0.465E-01
DAV:   7    -0.284716347670E+03   -0.35379E-03   -0.25159E-03 31620   0.147E-01    0.675E-01
DAV:   8    -0.284716027738E+03    0.31993E-03   -0.12010E-03 33528   0.106E-01    0.420E-01
DAV:   9    -0.284716010156E+03    0.17582E-04   -0.95285E-04 35604   0.545E-02    0.203E-01
DAV:  10    -0.284716062023E+03   -0.51866E-04   -0.45196E-04 25824   0.389E-02    0.140E-01
DAV:  11    -0.284716065796E+03   -0.37728E-05   -0.98190E-05 20880   0.268E-02
  10 F= -.28471607E+03 E0= -.28471314E+03  d E =-.238420E-01  mag=    18.0000
       N       E                     dE             d eps       ncg     rms          rms(c)
DAV:   1    -0.284633603491E+03    0.82459E-01   -0.12149E+01 27648   0.162E+01    0.258E+00
DAV:   2    -0.284846055914E+03   -0.21245E+00   -0.24119E+00 30144   0.410E+00    0.116E+01
DAV:   3    -0.284719691897E+03    0.12636E+00   -0.62349E-01 30660   0.277E+00    0.312E+00
DAV:   4    -0.284741157194E+03   -0.21465E-01   -0.21665E-01 34116   0.924E-01    0.278E+00
DAV:   5    -0.284744572040E+03   -0.34148E-02   -0.42287E-02 30312   0.658E-01    0.248E+00
DAV:   6    -0.284738733433E+03    0.58386E-02   -0.30423E-02 33372   0.410E-01    0.813E-01
DAV:   7    -0.284740620565E+03   -0.18871E-02   -0.21832E-02 34968   0.290E-01    0.109E+00
DAV:   8    -0.284741344052E+03   -0.72349E-03   -0.53808E-03 31524   0.204E-01    0.158E+00
DAV:   9    -0.284739461028E+03    0.18830E-02   -0.45623E-03 34692   0.181E-01    0.916E-01
DAV:  10    -0.284739468972E+03   -0.79432E-05   -0.47018E-03 36924   0.104E-01    0.265E-01
DAV:  11    -0.284739856468E+03   -0.38750E-03   -0.12856E-03 30108   0.588E-02    0.259E-01
DAV:  12    -0.284739855158E+03    0.13095E-05   -0.19160E-04 30048   0.468E-02    0.181E-01
DAV:  13    -0.284739837312E+03    0.17846E-04   -0.15853E-04 21000   0.239E-02    0.595E-02
DAV:  14    -0.284739847419E+03   -0.10108E-04   -0.40697E-05 17184   0.170E-02    0.143E-02
DAV:  15    -0.284739851323E+03   -0.39035E-05   -0.18840E-05 15576   0.872E-03
  11 F= -.28473985E+03 E0= -.28473683E+03  d E =-.237855E-01  mag=    18.0000
       N       E                     dE             d eps       ncg     rms          rms(c)
DAV:   1    -0.284299350050E+03    0.44050E+00   -0.48430E+01 27648   0.329E+01    0.459E+00
DAV:   2    -0.284991520988E+03   -0.69217E+00   -0.77310E+00 28188   0.774E+00    0.162E+01
DAV:   3    -0.284729013660E+03    0.26251E+00   -0.14517E+00 30300   0.453E+00    0.411E+00
DAV:   4    -0.284781495653E+03   -0.52482E-01   -0.66365E-01 37272   0.169E+00    0.555E+00
DAV:   5    -0.284769746799E+03    0.11749E-01   -0.16540E-01 31284   0.133E+00    0.361E+00
DAV:   6    -0.284757861072E+03    0.11886E-01   -0.13034E-01 33480   0.835E-01    0.140E+00
DAV:   7    -0.284764640284E+03   -0.67792E-02   -0.52745E-02 33660   0.602E-01    0.275E+00
DAV:   8    -0.284759537673E+03    0.51026E-02   -0.16366E-02 32820   0.451E-01    0.204E+00
DAV:   9    -0.284757344266E+03    0.21934E-02   -0.26617E-02 36156   0.330E-01    0.534E-01
DAV:  10    -0.284758921168E+03   -0.15769E-02   -0.49036E-03 32436   0.154E-01    0.384E-01
DAV:  11    -0.284758988046E+03   -0.66878E-04   -0.55706E-04 33060   0.821E-02    0.312E-01
DAV:  12    -0.284758912438E+03    0.75608E-04   -0.86243E-04 36480   0.603E-02    0.830E-02
DAV:  13    -0.284758957483E+03   -0.45045E-04   -0.20747E-04 27792   0.316E-02    0.129E-01
DAV:  14    -0.284758945894E+03    0.11590E-04   -0.45235E-05 19572   0.232E-02    0.637E-02
DAV:  15    -0.284758946647E+03   -0.75365E-06   -0.32972E-05 16176   0.114E-02
  12 F= -.28475895E+03 E0= -.28475586E+03  d E =-.190953E-01  mag=    18.0000
       N       E                     dE             d eps       ncg     rms          rms(c)
DAV:   1    -0.284351453614E+03    0.40749E+00   -0.54330E+01 27456   0.335E+01    0.496E+00
DAV:   2    -0.285075160394E+03   -0.72371E+00   -0.83068E+00 28656   0.804E+00    0.171E+01
DAV:   3    -0.284779774576E+03    0.29539E+00   -0.17119E+00 30120   0.482E+00    0.457E+00
DAV:   4    -0.284829021139E+03   -0.49247E-01   -0.66431E-01 35448   0.186E+00    0.496E+00
DAV:   5    -0.284820580095E+03    0.84410E-02   -0.16129E-01 31272   0.136E+00    0.337E+00
DAV:   6    -0.284807694840E+03    0.12885E-01   -0.86149E-02 33456   0.835E-01    0.114E+00
DAV:   7    -0.284814492696E+03   -0.67979E-02   -0.79624E-02 35700   0.636E-01    0.305E+00
DAV:   8    -0.284806750885E+03    0.77418E-02   -0.26255E-02 33648   0.513E-01    0.183E+00
DAV:   9    -0.284805745163E+03    0.10057E-02   -0.26205E-02 36492   0.340E-01    0.397E-01
DAV:  10    -0.284807149356E+03   -0.14042E-02   -0.36702E-03 32688   0.169E-01    0.319E-01
DAV:  11    -0.284807144453E+03    0.49031E-05   -0.33227E-04 32628   0.750E-02    0.227E-01
DAV:  12    -0.284807110661E+03    0.33792E-04   -0.79762E-04 37392   0.561E-02    0.978E-02
DAV:  13    -0.284807134201E+03   -0.23540E-04   -0.74501E-05 28320   0.321E-02    0.943E-02
DAV:  14    -0.284807128212E+03    0.59893E-05   -0.23791E-05 17352   0.152E-02
  13 F= -.28480713E+03 E0= -.28480422E+03  d E =-.481816E-01  mag=    18.0000
       N       E                     dE             d eps       ncg     rms          rms(c)
DAV:   1    -0.284693560108E+03    0.11357E+00   -0.20572E+01 26928   0.187E+01    0.347E+00
DAV:   2    -0.284999370457E+03   -0.30581E+00   -0.35984E+00 30696   0.494E+00    0.148E+01
DAV:   3    -0.284799854341E+03    0.19952E+00   -0.11454E+00 30504   0.349E+00    0.280E+00
DAV:   4    -0.284844121147E+03   -0.44267E-01   -0.26193E-01 33492   0.121E+00    0.309E+00
DAV:   5    -0.284842989153E+03    0.11320E-02   -0.50325E-02 29892   0.832E-01    0.246E+00
DAV:   6    -0.284836525550E+03    0.64636E-02   -0.20479E-02 31980   0.486E-01    0.111E+00
DAV:   7    -0.284837324512E+03   -0.79896E-03   -0.37118E-02 37008   0.369E-01    0.132E+00
DAV:   8    -0.284837691214E+03   -0.36670E-03   -0.68468E-03 31656   0.308E-01    0.152E+00
DAV:   9    -0.284835944579E+03    0.17466E-02   -0.66927E-03 35628   0.209E-01    0.887E-01
DAV:  10    -0.284835871114E+03    0.73465E-04   -0.43599E-03 36276   0.137E-01    0.221E-01
DAV:  11    -0.284836208685E+03   -0.33757E-03   -0.90707E-04 31932   0.615E-02    0.141E-01
DAV:  12    -0.284836233515E+03   -0.24830E-04   -0.62547E-05 25140   0.379E-02    0.124E-01
DAV:  13    -0.284836220519E+03    0.12996E-04   -0.16297E-04 22932   0.280E-02    0.465E-02
DAV:  14    -0.284836224562E+03   -0.40433E-05   -0.31606E-05 17868   0.193E-02
  14 F= -.28483622E+03 E0= -.28483366E+03  d E =-.290964E-01  mag=    18.0000
       N       E                     dE             d eps       ncg     rms          rms(c)
DAV:   1    -0.284828079705E+03    0.81408E-02   -0.36199E+00 26976   0.780E+00    0.196E+00
DAV:   2    -0.284903453902E+03   -0.75374E-01   -0.83960E-01 32700   0.257E+00    0.722E+00
DAV:   3    -0.284843122108E+03    0.60332E-01   -0.26413E-01 30852   0.196E+00    0.144E+00
DAV:   4    -0.284853434202E+03   -0.10312E-01   -0.94986E-02 34944   0.526E-01    0.233E+00
DAV:   5    -0.284853110672E+03    0.32353E-03   -0.23009E-02 29004   0.481E-01    0.221E+00
DAV:   6    -0.284848855310E+03    0.42554E-02   -0.17497E-02 32520   0.322E-01    0.592E-01
DAV:   7    -0.284850381796E+03   -0.15265E-02   -0.11353E-02 34932   0.178E-01    0.634E-01
DAV:   8    -0.284850502664E+03   -0.12087E-03   -0.76874E-04 31860   0.133E-01    0.600E-01
DAV:   9    -0.284850272266E+03    0.23040E-03   -0.75482E-04 35676   0.732E-02    0.419E-01
DAV:  10    -0.284850197178E+03    0.75088E-04   -0.77031E-04 36384   0.550E-02    0.986E-02
DAV:  11    -0.284850271406E+03   -0.74228E-04   -0.26154E-04 23484   0.264E-02    0.907E-02
DAV:  12    -0.284850279253E+03   -0.78469E-05   -0.16555E-05 18660   0.186E-02
  15 F= -.28485028E+03 E0= -.28484745E+03  d E =-.140547E-01  mag=    18.0000
       N       E                     dE             d eps       ncg     rms          rms(c)
DAV:   1    -0.284847902575E+03    0.23688E-02   -0.11869E+00 27240   0.459E+00    0.595E-01
DAV:   2    -0.284862081224E+03   -0.14179E-01   -0.14758E-01 28500   0.102E+00    0.297E+00
DAV:   3    -0.284855286485E+03    0.67947E-02   -0.38011E-02 29916   0.625E-01    0.510E-01
DAV:   4    -0.284857361103E+03   -0.20746E-02   -0.91768E-03 34176   0.155E-01    0.607E-01
DAV:   5    -0.284857325771E+03    0.35331E-04   -0.14988E-03 30144   0.147E-01    0.457E-01
DAV:   6    -0.284857141532E+03    0.18424E-03   -0.10616E-03 32208   0.791E-02    0.137E-01
DAV:   7    -0.284857238474E+03   -0.96942E-04   -0.13007E-03 33600   0.759E-02    0.318E-01
DAV:   8    -0.284857275396E+03   -0.36923E-04   -0.24976E-04 31932   0.536E-02    0.417E-01
DAV:   9    -0.284857121190E+03    0.15421E-03   -0.40715E-04 27864   0.498E-02    0.177E-01
DAV:  10    -0.284857148299E+03   -0.27109E-04   -0.27883E-04 25704   0.281E-02    0.228E-02
DAV:  11    -0.284857169547E+03   -0.21248E-04   -0.34749E-05 17688   0.139E-02    0.719E-02
DAV:  12    -0.284857163568E+03    0.59791E-05   -0.19027E-05 16416   0.138E-02
  16 F= -.28485716E+03 E0= -.28485441E+03  d E =-.688432E-02  mag=    18.0000
       N       E                     dE             d eps       ncg     rms          rms(c)
DAV:   1    -0.284617403593E+03    0.23977E+00   -0.37605E+01 27036   0.251E+01    0.352E+00
DAV:   2    -0.285051461794E+03   -0.43406E+00   -0.49502E+00 29112   0.586E+00    0.154E+01
DAV:   3    -0.284843766703E+03    0.20770E+00   -0.12778E+00 29712   0.375E+00    0.340E+00
DAV:   4    -0.284884591164E+03   -0.40824E-01   -0.29766E-01 34260   0.128E+00    0.282E+00
DAV:   5    -0.284886101316E+03   -0.15102E-02   -0.41411E-02 30000   0.840E-01    0.202E+00
DAV:   6    -0.284881355674E+03    0.47456E-02   -0.18325E-02 32616   0.437E-01    0.922E-01
DAV:   7    -0.284881965563E+03   -0.60989E-03   -0.32513E-02 36216   0.365E-01    0.142E+00
DAV:   8    -0.284881773726E+03    0.19184E-03   -0.68951E-03 31260   0.326E-01    0.155E+00
DAV:   9    -0.284879699806E+03    0.20739E-02   -0.88164E-03 35736   0.238E-01    0.594E-01
DAV:  10    -0.284880196964E+03   -0.49716E-03   -0.34671E-03 35484   0.123E-01    0.183E-01
DAV:  11    -0.284880370409E+03   -0.17345E-03   -0.66077E-04 30252   0.710E-02    0.157E-01
DAV:  12    -0.284880355719E+03    0.14690E-04   -0.97860E-05 28356   0.398E-02    0.762E-02
DAV:  13    -0.284880356313E+03   -0.59389E-06   -0.87111E-05 18468   0.189E-02
  17 F= -.28488036E+03 E0= -.28487778E+03  d E =-.231927E-01  mag=    18.0000
       N       E                     dE             d eps       ncg     rms          rms(c)
DAV:   1    -0.283070546259E+03    0.18098E+01   -0.12736E+02 27384   0.343E+01    0.104E+01
DAV:   2    -0.283597529146E+03   -0.52698E+00   -0.64471E+00 30612   0.693E+00    0.708E+00
DAV:   3    -0.283703524846E+03   -0.10600E+00   -0.37211E+00 33852   0.548E+00    0.158E+01
DAV:   4    -0.283436201841E+03    0.26732E+00   -0.16069E+00 33528   0.396E+00    0.429E+00
DAV:   5    -0.283462023429E+03   -0.25822E-01   -0.42447E-01 34008   0.171E+00    0.310E+00
DAV:   6    -0.283446693731E+03    0.15330E-01   -0.85379E-02 33804   0.121E+00    0.153E+00
DAV:   7    -0.283448920120E+03   -0.22264E-02   -0.86267E-02 34056   0.770E-01    0.222E+00
DAV:   8    -0.283446602591E+03    0.23175E-02   -0.19765E-02 34368   0.560E-01    0.142E+00
DAV:   9    -0.283445271962E+03    0.13306E-02   -0.26346E-02 35688   0.338E-01    0.558E-01
DAV:  10    -0.283445904523E+03   -0.63256E-03   -0.26223E-03 33780   0.213E-01    0.487E-01
DAV:  11    -0.283445619739E+03    0.28478E-03   -0.23435E-03 35112   0.123E-01    0.768E-02
DAV:  12    -0.283445729602E+03   -0.10986E-03   -0.28374E-04 29988   0.548E-02    0.995E-02
DAV:  13    -0.283445731592E+03   -0.19893E-05   -0.52290E-05 29016   0.242E-02
  18 F= -.28344573E+03 E0= -.28344330E+03  d E =0.143462E+01  mag=    18.0000
       N       E                     dE             d eps       ncg     rms          rms(c)
DAV:   1    -0.284479404512E+03   -0.10337E+01   -0.26114E+01 26388   0.144E+01    0.439E+00
DAV:   2    -0.284585638052E+03   -0.10623E+00   -0.13672E+00 30192   0.298E+00    0.241E+00
DAV:   3    -0.284588060944E+03   -0.24229E-02   -0.40210E-01 33276   0.183E+00    0.528E+00
DAV:   4    -0.284555329578E+03    0.32731E-01   -0.22004E-01 33912   0.151E+00    0.152E+00
DAV:   5    -0.284567852986E+03   -0.12523E-01   -0.18070E-01 35604   0.957E-01    0.430E+00
DAV:   6    -0.284552709812E+03    0.15143E-01   -0.50132E-02 33072   0.796E-01    0.179E+00
DAV:   7    -0.284553249995E+03   -0.54018E-03   -0.42593E-02 34140   0.485E-01    0.519E-01
DAV:   8    -0.284555663183E+03   -0.24132E-02   -0.77098E-03 33564   0.214E-01    0.109E+00
DAV:   9    -0.284554335837E+03    0.13273E-02   -0.27237E-03 32436   0.174E-01    0.522E-01
DAV:  10    -0.284554305190E+03    0.30647E-04   -0.32753E-03 36504   0.107E-01    0.121E-01
DAV:  11    -0.284554465601E+03   -0.16041E-03   -0.35454E-04 29184   0.566E-02    0.199E-01
DAV:  12    -0.284554425664E+03    0.39938E-04   -0.10575E-04 27624   0.349E-02    0.103E-01
DAV:  13    -0.284554426587E+03   -0.92320E-06   -0.16225E-04 20904   0.231E-02    0.397E-02
DAV:  14    -0.284554431743E+03   -0.51563E-05   -0.97026E-06 17088   0.153E-02
  19 F= -.28455443E+03 E0= -.28455192E+03  d E =-.110870E+01  mag=    18.0000
       N       E                     dE             d eps       ncg     rms          rms(c)
DAV:   1    -0.284783336386E+03   -0.22891E+00   -0.50920E+00 28044   0.625E+00    0.185E+00
DAV:   2    -0.284803714842E+03   -0.20378E-01   -0.25764E-01 30648   0.135E+00    0.213E+00
DAV:   3    -0.284804910015E+03   -0.11952E-02   -0.14619E-01 34092   0.102E+00    0.267E+00
DAV:   4    -0.284797915101E+03    0.69949E-02   -0.34262E-02 32088   0.684E-01    0.161E+00
DAV:   5    -0.284796155331E+03    0.17598E-02   -0.26364E-02 33504   0.450E-01    0.650E-01
DAV:   6    -0.284796643617E+03   -0.48829E-03   -0.12618E-02 33744   0.270E-01    0.831E-01
DAV:   7    -0.284795997984E+03    0.64563E-03   -0.36147E-03 32844   0.199E-01    0.326E-01
DAV:   8    -0.284796044783E+03   -0.46800E-04   -0.11264E-03 35244   0.820E-02    0.887E-02
DAV:   9    -0.284796105229E+03   -0.60446E-04   -0.20939E-04 29712   0.399E-02    0.139E-01
DAV:  10    -0.284796085865E+03    0.19365E-04   -0.11854E-04 22872   0.342E-02    0.575E-02
DAV:  11    -0.284796088559E+03   -0.26942E-05   -0.68021E-05 24828   0.214E-02
  20 F= -.28479609E+03 E0= -.28479350E+03  d E =-.241657E+00  mag=    18.0000
       N       E                     dE             d eps       ncg     rms          rms(c)
DAV:   1    -0.284897437203E+03   -0.10135E+00   -0.71393E+00 27360   0.709E+00    0.222E+00
DAV:   2    -0.284927837008E+03   -0.30400E-01   -0.39045E-01 30864   0.164E+00    0.361E+00
DAV:   3    -0.284920842899E+03    0.69941E-02   -0.23008E-01 33252   0.128E+00    0.248E+00
DAV:   4    -0.284917852643E+03    0.29903E-02   -0.41674E-02 31824   0.723E-01    0.204E+00
DAV:   5    -0.284913920784E+03    0.39319E-02   -0.33737E-02 33432   0.527E-01    0.866E-01
DAV:   6    -0.284914231026E+03   -0.31024E-03   -0.21930E-02 34536   0.342E-01    0.940E-01
DAV:   7    -0.284913565630E+03    0.66540E-03   -0.42604E-03 32676   0.231E-01    0.454E-01
DAV:   8    -0.284913529876E+03    0.35754E-04   -0.15578E-03 35244   0.958E-02    0.133E-01
DAV:   9    -0.284913624737E+03   -0.94860E-04   -0.45981E-04 33924   0.497E-02    0.175E-01
DAV:  10    -0.284913607252E+03    0.17485E-04   -0.15565E-04 25536   0.398E-02    0.103E-01
DAV:  11    -0.284913601752E+03    0.55002E-05   -0.11824E-04 27168   0.283E-02    0.234E-02
DAV:  12    -0.284913607533E+03   -0.57816E-05   -0.17312E-05 16740   0.112E-02
  21 F= -.28491361E+03 E0= -.28491098E+03  d E =-.117519E+00  mag=    18.0000
       N       E                     dE             d eps       ncg     rms          rms(c)
DAV:   1    -0.284920825117E+03   -0.72234E-02   -0.35635E-01 27816   0.173E+00    0.510E-01
DAV:   2    -0.284923193574E+03   -0.23685E-02   -0.28807E-02 32412   0.459E-01    0.151E+00
DAV:   3    -0.284921212926E+03    0.19806E-02   -0.14870E-02 32076   0.371E-01    0.211E-01
DAV:   4    -0.284921798860E+03   -0.58593E-03   -0.22967E-03 31944   0.130E-01    0.478E-01
DAV:   5    -0.284921606019E+03    0.19284E-03   -0.13403E-03 32328   0.115E-01    0.331E-01
DAV:   6    -0.284921513495E+03    0.92524E-04   -0.10482E-03 31560   0.751E-02    0.787E-02
DAV:   7    -0.284921573154E+03   -0.59659E-04   -0.19889E-04 28872   0.360E-02    0.180E-01
DAV:   8    -0.284921548805E+03    0.24350E-04   -0.36060E-05 22680   0.250E-02    0.125E-01
DAV:   9    -0.284921539631E+03    0.91739E-05   -0.85797E-05 17724   0.178E-02
  22 F= -.28492154E+03 E0= -.28491893E+03  d E =-.793210E-02  mag=    18.0000
       N       E                     dE             d eps       ncg     rms          rms(c)
DAV:   1    -0.284922910969E+03   -0.13622E-02   -0.11790E+00 27456   0.352E+00    0.948E-01
DAV:   2    -0.284934377815E+03   -0.11467E-01   -0.13983E-01 32724   0.976E-01    0.355E+00
DAV:   3    -0.284923400246E+03    0.10978E-01   -0.68641E-02 30552   0.781E-01    0.286E-01
DAV:   4    -0.284926806943E+03   -0.34067E-02   -0.12640E-02 32496   0.213E-01    0.942E-01
DAV:   5    -0.284926188506E+03    0.61844E-03   -0.36409E-03 31416   0.209E-01    0.706E-01
DAV:   6    -0.284925745545E+03    0.44296E-03   -0.25628E-03 35832   0.121E-01    0.132E-01
DAV:   7    -0.284925979233E+03   -0.23369E-03   -0.14507E-03 33180   0.694E-02    0.325E-01
DAV:   8    -0.284925947620E+03    0.31613E-04   -0.13725E-04 29364   0.528E-02    0.277E-01
DAV:   9    -0.284925883788E+03    0.63832E-04   -0.27453E-04 28596   0.361E-02    0.995E-02
DAV:  10    -0.284925903379E+03   -0.19592E-04   -0.16614E-04 20520   0.236E-02    0.481E-02
DAV:  11    -0.284925912428E+03   -0.90487E-05   -0.19771E-05 16980   0.124E-02
  23 F= -.28492591E+03 E0= -.28492340E+03  d E =-.437280E-02  mag=    18.0000
       N       E                     dE             d eps       ncg     rms          rms(c)
DAV:   1    -0.284925937508E+03   -0.34129E-04   -0.37212E-02 27780   0.805E-01    0.157E-01
DAV:   2    -0.284926709965E+03   -0.77246E-03   -0.79354E-03 31440   0.236E-01    0.885E-01
DAV:   3    -0.284926036791E+03    0.67317E-03   -0.26471E-03 30000   0.175E-01    0.200E-01
DAV:   4    -0.284926181154E+03   -0.14436E-03   -0.89229E-04 29832   0.480E-02    0.143E-01
DAV:   5    -0.284926211463E+03   -0.30309E-04   -0.15169E-04 24108   0.396E-02    0.174E-01
DAV:   6    -0.284926180254E+03    0.31209E-04   -0.77779E-05 18876   0.264E-02    0.692E-02
DAV:   7    -0.284926184565E+03   -0.43109E-05   -0.11529E-04 20520   0.199E-02    0.601E-02
DAV:   8    -0.284926187934E+03   -0.33686E-05   -0.18697E-05 16896   0.147E-02
  24 F= -.28492619E+03 E0= -.28492358E+03  d E =-.275506E-03  mag=    18.0000
       N       E                     dE             d eps       ncg     rms          rms(c)
DAV:   1    -0.284916072931E+03    0.10112E-01   -0.13628E+00 27060   0.486E+00    0.578E-01
DAV:   2    -0.284929361758E+03   -0.13289E-01   -0.13996E-01 28668   0.106E+00    0.261E+00
DAV:   3    -0.284923960576E+03    0.54012E-02   -0.34534E-02 30312   0.596E-01    0.374E-01
DAV:   4    -0.284925529770E+03   -0.15692E-02   -0.65466E-03 35244   0.175E-01    0.493E-01
DAV:   5    -0.284925500759E+03    0.29011E-04   -0.18394E-03 30600   0.143E-01    0.443E-01
DAV:   6    -0.284925258611E+03    0.24215E-03   -0.12784E-03 30936   0.942E-02    0.799E-02
DAV:   7    -0.284925383939E+03   -0.12533E-03   -0.10252E-03 32484   0.683E-02    0.358E-01
DAV:   8    -0.284925297886E+03    0.86053E-04   -0.16660E-04 30624   0.544E-02    0.259E-01
DAV:   9    -0.284925257482E+03    0.40404E-04   -0.21751E-04 23364   0.309E-02    0.102E-01
DAV:  10    -0.284925272039E+03   -0.14557E-04   -0.92403E-05 18672   0.198E-02    0.107E-02
DAV:  11    -0.284925278964E+03   -0.69252E-05   -0.13673E-05 16428   0.991E-03
  25 F= -.28492528E+03 E0= -.28492271E+03  d E =0.908970E-03  mag=    18.0000
       N       E                     dE             d eps       ncg     rms          rms(c)
DAV:   1    -0.284905051568E+03    0.20220E-01   -0.33483E+00 27288   0.722E+00    0.127E+00
DAV:   2    -0.284955961476E+03   -0.50910E-01   -0.60679E-01 31044   0.198E+00    0.696E+00
DAV:   3    -0.284913418743E+03    0.42543E-01   -0.21112E-01 29784   0.146E+00    0.123E+00
DAV:   4    -0.284923312059E+03   -0.98933E-02   -0.41695E-02 33528   0.306E-01    0.108E+00
DAV:   5    -0.284923623967E+03   -0.31191E-03   -0.30811E-03 29160   0.275E-01    0.727E-01
DAV:   6    -0.284923083842E+03    0.54012E-03   -0.21660E-03 33252   0.127E-01    0.371E-01
DAV:   7    -0.284923114383E+03   -0.30541E-04   -0.30646E-03 35040   0.117E-01    0.315E-01
DAV:   8    -0.284923357265E+03   -0.24288E-03   -0.10346E-03 33252   0.815E-02    0.574E-01
DAV:   9    -0.284923076367E+03    0.28090E-03   -0.38959E-04 33900   0.695E-02    0.359E-01
DAV:  10    -0.284923025817E+03    0.50550E-04   -0.69974E-04 36516   0.464E-02    0.566E-02
DAV:  11    -0.284923082037E+03   -0.56220E-04   -0.80616E-05 18960   0.185E-02    0.427E-02
DAV:  12    -0.284923083348E+03   -0.13108E-05   -0.14552E-05 17316   0.161E-02
  26 F= -.28492308E+03 E0= -.28492065E+03  d E =0.219562E-02  mag=    18.0000
       N       E                     dE             d eps       ncg     rms          rms(c)
DAV:   1    -0.284595560854E+03    0.32752E+00   -0.63286E+01 27624   0.296E+01    0.287E+00
DAV:   2    -0.284987574650E+03   -0.39201E+00   -0.42376E+00 28320   0.583E+00    0.107E+01
DAV:   3    -0.284886040724E+03    0.10153E+00   -0.62962E-01 30612   0.277E+00    0.193E+00
DAV:   4    -0.284904832108E+03   -0.18791E-01   -0.13977E-01 34668   0.761E-01    0.222E+00
DAV:   5    -0.284901464717E+03    0.33674E-02   -0.38833E-02 31608   0.755E-01    0.128E+00
DAV:   6    -0.284899138883E+03    0.23258E-02   -0.27375E-02 34380   0.468E-01    0.894E-01
DAV:   7    -0.284899438342E+03   -0.29946E-03   -0.12949E-02 33480   0.359E-01    0.157E+00
DAV:   8    -0.284897065936E+03    0.23724E-02   -0.87686E-03 35196   0.288E-01    0.568E-01
DAV:   9    -0.284897435652E+03   -0.36972E-03   -0.33608E-03 35196   0.117E-01    0.771E-02
DAV:  10    -0.284897616080E+03   -0.18043E-03   -0.24842E-04 29784   0.617E-02    0.152E-01
DAV:  11    -0.284897588639E+03    0.27441E-04   -0.18022E-04 33240   0.451E-02    0.322E-02
DAV:  12    -0.284897599900E+03   -0.11262E-04   -0.88332E-05 19104   0.212E-02    0.772E-02
DAV:  13    -0.284897594799E+03    0.51011E-05   -0.29105E-05 17376   0.198E-02
  27 F= -.28489759E+03 E0= -.28489485E+03  d E =0.254885E-01  mag=    18.0000
       N       E                     dE             d eps       ncg     rms          rms(c)
DAV:   1    -0.282047053738E+03    0.28505E+01   -0.17068E+02 26508   0.460E+01    0.131E+01
DAV:   2    -0.282995893420E+03   -0.94884E+00   -0.11095E+01 30408   0.962E+00    0.571E+00
DAV:   3    -0.282931403061E+03    0.64490E-01   -0.73874E-01 32904   0.383E+00    0.491E+00
DAV:   4    -0.282886128547E+03    0.45275E-01   -0.25620E-01 32292   0.218E+00    0.209E+00
DAV:   5    -0.282866972854E+03    0.19156E-01   -0.90761E-02 33420   0.120E+00    0.146E+00
DAV:   6    -0.282865297847E+03    0.16750E-02   -0.40652E-02 33624   0.761E-01    0.606E-01
DAV:   7    -0.282865360980E+03   -0.63133E-04   -0.73348E-03 31740   0.363E-01    0.387E-01
DAV:   8    -0.282865236144E+03    0.12484E-03   -0.17456E-03 34776   0.161E-01    0.151E-01
DAV:   9    -0.282865208414E+03    0.27730E-04   -0.71513E-04 30672   0.965E-02    0.792E-02
DAV:  10    -0.282865229301E+03   -0.20887E-04   -0.28383E-04 30732   0.685E-02    0.470E-02
DAV:  11    -0.282865240274E+03   -0.10973E-04   -0.99050E-05 32388   0.376E-02    0.214E-02
DAV:  12    -0.282865247298E+03   -0.70245E-05   -0.17381E-05 19320   0.167E-02
  28 F= -.28286525E+03 E0= -.28286517E+03  d E =0.203235E+01  mag=    18.0000
       N       E                     dE             d eps       ncg     rms          rms(c)
DAV:   1    -0.284355937721E+03   -0.14907E+01   -0.48093E+01 26400   0.185E+01    0.607E+00
DAV:   2    -0.284554849527E+03   -0.19891E+00   -0.25693E+00 31740   0.453E+00    0.408E+00
DAV:   3    -0.284536631625E+03    0.18218E-01   -0.43415E-01 32412   0.250E+00    0.536E+00
DAV:   4    -0.284508188711E+03    0.28443E-01   -0.37351E-01 33252   0.174E+00    0.241E+00
DAV:   5    -0.284499073920E+03    0.91148E-02   -0.34489E-02 31548   0.823E-01    0.126E+00
DAV:   6    -0.284498833328E+03    0.24059E-03   -0.49677E-02 34512   0.607E-01    0.122E+00
DAV:   7    -0.284497001600E+03    0.18317E-02   -0.28272E-02 32328   0.550E-01    0.470E-01
DAV:   8    -0.284497065457E+03   -0.63857E-04   -0.48620E-03 35616   0.232E-01    0.300E-01
DAV:   9    -0.284496891792E+03    0.17367E-03   -0.13613E-03 34908   0.135E-01    0.104E-01
DAV:  10    -0.284496864788E+03    0.27004E-04   -0.25957E-04 29592   0.563E-02    0.563E-02
DAV:  11    -0.284496867218E+03   -0.24301E-05   -0.11318E-04 29988   0.310E-02    0.229E-02
DAV:  12    -0.284496870570E+03   -0.33522E-05   -0.14374E-05 19152   0.141E-02
  29 F= -.28449687E+03 E0= -.28449682E+03  d E =-.163162E+01  mag=    18.0000
       N       E                     dE             d eps       ncg     rms          rms(c)
DAV:   1    -0.284787752361E+03   -0.29089E+00   -0.97038E+00 26784   0.880E+00    0.284E+00
DAV:   2    -0.284831408162E+03   -0.43656E-01   -0.62038E-01 32208   0.239E+00    0.350E+00
DAV:   3    -0.284824889989E+03    0.65182E-02   -0.22145E-01 31440   0.171E+00    0.256E+00
DAV:   4    -0.284817221036E+03    0.76690E-02   -0.79296E-02 31944   0.961E-01    0.109E+00
DAV:   5    -0.284816073077E+03    0.11480E-02   -0.86170E-03 32640   0.409E-01    0.634E-01
DAV:   6    -0.284815486943E+03    0.58613E-03   -0.12339E-02 36648   0.366E-01    0.707E-01
DAV:   7    -0.284815238022E+03    0.24892E-03   -0.72075E-03 35160   0.283E-01    0.412E-01
DAV:   8    -0.284815082361E+03    0.15566E-03   -0.26641E-03 32364   0.155E-01    0.160E-01
DAV:   9    -0.284815089305E+03   -0.69447E-05   -0.28774E-04 34296   0.665E-02    0.695E-02
DAV:  10    -0.284815080542E+03    0.87634E-05   -0.10829E-04 29376   0.341E-02    0.494E-02
DAV:  11    -0.284815079809E+03    0.73339E-06   -0.49677E-05 22152   0.252E-02
  30 F= -.28481508E+03 E0= -.28481428E+03  d E =-.318209E+00  mag=    18.0000
       N       E                     dE             d eps       ncg     rms          rms(c)
DAV:   1    -0.284907630680E+03   -0.92550E-01   -0.52190E+00 26064   0.661E+00    0.281E+00
DAV:   2    -0.284970847100E+03   -0.63216E-01   -0.83055E-01 33516   0.274E+00    0.626E+00
DAV:   3    -0.284920169126E+03    0.50678E-01   -0.28286E-01 31524   0.219E+00    0.833E-01
DAV:   4    -0.284926326381E+03   -0.61573E-02   -0.58289E-02 34488   0.575E-01    0.231E+00
DAV:   5    -0.284920646566E+03    0.56798E-02   -0.35205E-02 31164   0.641E-01    0.467E-01
DAV:   6    -0.284922472225E+03   -0.18257E-02   -0.13771E-02 32628   0.268E-01    0.102E+00
DAV:   7    -0.284921175713E+03    0.12965E-02   -0.54811E-03 35256   0.254E-01    0.385E-01
DAV:   8    -0.284921267188E+03   -0.91475E-04   -0.21697E-03 34608   0.125E-01    0.122E-01
DAV:   9    -0.284921305284E+03   -0.38096E-04   -0.20358E-04 31296   0.611E-02    0.671E-02
DAV:  10    -0.284921300035E+03    0.52490E-05   -0.96218E-05 30132   0.298E-02
  31 F= -.28492130E+03 E0= -.28491927E+03  d E =-.106220E+00  mag=    18.0000
       N       E                     dE             d eps       ncg     rms          rms(c)
DAV:   1    -0.284934738794E+03   -0.13434E-01   -0.71918E-01 26592   0.261E+00    0.843E-01
DAV:   2    -0.284941120794E+03   -0.63820E-02   -0.75774E-02 32124   0.819E-01    0.219E+00
DAV:   3    -0.284936565388E+03    0.45554E-02   -0.37439E-02 30768   0.652E-01    0.465E-01
DAV:   4    -0.284937354799E+03   -0.78941E-03   -0.48176E-03 31740   0.231E-01    0.619E-01
DAV:   5    -0.284936912448E+03    0.44235E-03   -0.34715E-03 33780   0.191E-01    0.235E-01
DAV:   6    -0.284936946394E+03   -0.33946E-04   -0.12612E-03 33720   0.841E-02    0.231E-01
DAV:   7    -0.284936891695E+03    0.54699E-04   -0.34204E-04 34152   0.694E-02    0.608E-02
DAV:   8    -0.284936900909E+03   -0.92135E-05   -0.85456E-05 29100   0.294E-02
  32 F= -.28493690E+03 E0= -.28493458E+03  d E =-.156009E-01  mag=    18.0000
       N       E                     dE             d eps       ncg     rms          rms(c)
DAV:   1    -0.284940150870E+03   -0.32592E-02   -0.67235E-01 26904   0.273E+00    0.615E-01
DAV:   2    -0.284943056751E+03   -0.29059E-02   -0.35047E-02 30852   0.582E-01    0.548E-01
DAV:   3    -0.284943320443E+03   -0.26369E-03   -0.13302E-02 31956   0.356E-01    0.794E-01
DAV:   4    -0.284942650819E+03    0.66962E-03   -0.46896E-03 34308   0.229E-01    0.410E-01
DAV:   5    -0.284942601554E+03    0.49265E-04   -0.19176E-03 33096   0.131E-01    0.157E-01
DAV:   6    -0.284942579842E+03    0.21712E-04   -0.20604E-04 31848   0.604E-02    0.651E-02
DAV:   7    -0.284942577939E+03    0.19028E-05   -0.13789E-04 32304   0.338E-02    0.498E-02
DAV:   8    -0.284942576698E+03    0.12415E-05   -0.32421E-05 19092   0.231E-02
  33 F= -.28494258E+03 E0= -.28494018E+03  d E =-.567579E-02  mag=    18.0000
       N       E                     dE             d eps       ncg     rms          rms(c)
DAV:   1    -0.284943560241E+03   -0.98230E-03   -0.14446E-01 27408   0.142E+00    0.325E-01
DAV:   2    -0.284945750729E+03   -0.21905E-02   -0.23478E-02 32904   0.416E-01    0.151E+00
DAV:   3    -0.284943781626E+03    0.19691E-02   -0.10083E-02 30192   0.325E-01    0.183E-01
DAV:   4    -0.284944332348E+03   -0.55072E-03   -0.21529E-03 32124   0.752E-02    0.325E-01
DAV:   5    -0.284944252426E+03    0.79922E-04   -0.31971E-04 30036   0.754E-02    0.151E-01
DAV:   6    -0.284944239319E+03    0.13107E-04   -0.20424E-04 23256   0.316E-02    0.400E-02
DAV:   7    -0.284944260109E+03   -0.20790E-04   -0.10968E-04 24648   0.252E-02    0.110E-01
DAV:   8    -0.284944257561E+03    0.25477E-05   -0.28321E-05 17280   0.176E-02
  34 F= -.28494426E+03 E0= -.28494181E+03  d E =-.168086E-02  mag=    18.0000
       N       E                     dE             d eps       ncg     rms          rms(c)
DAV:   1    -0.284941649374E+03    0.26107E-02   -0.11606E+00 26796   0.406E+00    0.576E-01
DAV:   2    -0.284952006394E+03   -0.10357E-01   -0.11324E-01 29928   0.951E-01    0.281E+00
DAV:   3    -0.284945748642E+03    0.62578E-02   -0.36814E-02 30252   0.613E-01    0.380E-01
DAV:   4    -0.284947431828E+03   -0.16832E-02   -0.61191E-03 33660   0.138E-01    0.471E-01
DAV:   5    -0.284947266185E+03    0.16564E-03   -0.10293E-03 31944   0.134E-01    0.184E-01
DAV:   6    -0.284947252309E+03    0.13877E-04   -0.79425E-04 35616   0.670E-02    0.173E-01
DAV:   7    -0.284947311503E+03   -0.59194E-04   -0.47636E-04 33840   0.576E-02    0.318E-01
DAV:   8    -0.284947259389E+03    0.52114E-04   -0.11503E-04 28560   0.425E-02    0.264E-01
DAV:   9    -0.284947204448E+03    0.54941E-04   -0.22361E-04 24696   0.335E-02    0.851E-02
DAV:  10    -0.284947225428E+03   -0.20980E-04   -0.11434E-04 20868   0.183E-02    0.315E-02
DAV:  11    -0.284947230919E+03   -0.54904E-05   -0.79579E-06 16452   0.984E-03
  35 F= -.28494723E+03 E0= -.28494497E+03  d E =-.297336E-02  mag=    18.0000
       N       E                     dE             d eps       ncg     rms          rms(c)
DAV:   1    -0.284940621504E+03    0.66039E-02   -0.18771E+00 26400   0.476E+00    0.102E+00
DAV:   2    -0.284965351129E+03   -0.24730E-01   -0.29532E-01 32952   0.139E+00    0.525E+00
DAV:   3    -0.284942444693E+03    0.22906E-01   -0.13065E-01 30252   0.109E+00    0.621E-01
DAV:   4    -0.284948565068E+03   -0.61204E-02   -0.18972E-02 32496   0.228E-01    0.813E-01
DAV:   5    -0.284948344587E+03    0.22048E-03   -0.23989E-03 29640   0.207E-01    0.543E-01
DAV:   6    -0.284948017372E+03    0.32722E-03   -0.14782E-03 35268   0.100E-01    0.175E-01
DAV:   7    -0.284948095927E+03   -0.78555E-04   -0.11140E-03 34980   0.882E-02    0.247E-01
DAV:   8    -0.284948135525E+03   -0.39599E-04   -0.23427E-04 31404   0.536E-02    0.303E-01
DAV:   9    -0.284948052077E+03    0.83448E-04   -0.14176E-04 27084   0.368E-02    0.166E-01
DAV:  10    -0.284948047609E+03    0.44686E-05   -0.20959E-04 24576   0.281E-02    0.168E-02
DAV:  11    -0.284948061947E+03   -0.14338E-04   -0.27263E-05 17196   0.121E-02    0.402E-02
DAV:  12    -0.284948060512E+03    0.14349E-05   -0.33240E-06 15696   0.939E-03
  36 F= -.28494806E+03 E0= -.28494606E+03  d E =-.829593E-03  mag=    18.0000
       N       E                     dE             d eps       ncg     rms          rms(c)
DAV:   1    -0.284907163734E+03    0.40898E-01   -0.10001E+01 26700   0.109E+01    0.128E+00
DAV:   2    -0.284969317704E+03   -0.62154E-01   -0.67739E-01 28884   0.229E+00    0.573E+00
DAV:   3    -0.284944969428E+03    0.24348E-01   -0.17804E-01 30048   0.132E+00    0.686E-01
DAV:   4    -0.284951383852E+03   -0.64144E-02   -0.20634E-02 32352   0.347E-01    0.791E-01
DAV:   5    -0.284950997003E+03    0.38685E-03   -0.51803E-03 31704   0.276E-01    0.582E-01
DAV:   6    -0.284950438649E+03    0.55835E-03   -0.44553E-03 35844   0.180E-01    0.281E-01
DAV:   7    -0.284950590482E+03   -0.15183E-03   -0.16823E-03 32052   0.132E-01    0.575E-01
DAV:   8    -0.284950383397E+03    0.20708E-03   -0.52716E-04 33132   0.947E-02    0.419E-01
DAV:   9    -0.284950261807E+03    0.12159E-03   -0.72261E-04 35256   0.598E-02    0.126E-01
DAV:  10    -0.284950309999E+03   -0.48193E-04   -0.24281E-04 28092   0.334E-02    0.292E-02
DAV:  11    -0.284950320195E+03   -0.10196E-04   -0.20351E-05 18624   0.166E-02    0.520E-02
DAV:  12    -0.284950316308E+03    0.38875E-05   -0.21566E-05 16416   0.153E-02
  37 F= -.28495032E+03 E0= -.28494844E+03  d E =-.225580E-02  mag=    18.0000
       N       E                     dE             d eps       ncg     rms          rms(c)
DAV:   1    -0.283213201945E+03    0.17371E+01   -0.19936E+02 27612   0.511E+01    0.140E+01
DAV:   2    -0.284810630778E+03   -0.15974E+01   -0.23567E+01 32952   0.150E+01    0.219E+01
DAV:   3    -0.284101618628E+03    0.70901E+00   -0.33157E+00 29868   0.100E+01    0.595E+00
DAV:   4    -0.284156234242E+03   -0.54616E-01   -0.25572E+00 35508   0.353E+00    0.893E+00
DAV:   5    -0.284048448414E+03    0.10779E+00   -0.90568E-01 31092   0.333E+00    0.510E+00
DAV:   6    -0.284061294295E+03   -0.12846E-01   -0.68725E-01 33852   0.170E+00    0.560E+00
DAV:   7    -0.284037700527E+03    0.23594E-01   -0.76436E-02 32280   0.120E+00    0.340E+00
DAV:   8    -0.284031486046E+03    0.62145E-02   -0.16441E-01 35652   0.849E-01    0.135E+00
DAV:   9    -0.284033745253E+03   -0.22592E-02   -0.11193E-02 30792   0.489E-01    0.625E-01
DAV:  10    -0.284033632713E+03    0.11254E-03   -0.98810E-03 35832   0.270E-01    0.375E-01
DAV:  11    -0.284033851749E+03   -0.21904E-03   -0.35103E-03 33876   0.164E-01    0.534E-01
DAV:  12    -0.284033536986E+03    0.31476E-03   -0.94220E-04 34860   0.104E-01    0.203E-01
DAV:  13    -0.284033576328E+03   -0.39342E-04   -0.49395E-04 32640   0.434E-02    0.320E-02
DAV:  14    -0.284033606621E+03   -0.30292E-04   -0.70123E-05 20508   0.195E-02    0.857E-02
DAV:  15    -0.284033599247E+03    0.73737E-05   -0.57141E-05 19500   0.223E-02
  38 F= -.28403360E+03 E0= -.28402992E+03  d E =0.916717E+00  mag=    18.0000
       N       E                     dE             d eps       ncg     rms          rms(c)
DAV:   1    -0.284670679115E+03   -0.63707E+00   -0.68938E+01 26760   0.226E+01    0.832E+00
DAV:   2    -0.285186473171E+03   -0.51579E+00   -0.74619E+00 32052   0.772E+00    0.191E+01
DAV:   3    -0.284851453504E+03    0.33502E+00   -0.38631E+00 31068   0.587E+00    0.487E+00
DAV:   4    -0.284876599787E+03   -0.25146E-01   -0.20416E-01 30588   0.206E+00    0.376E+00
DAV:   5    -0.284854206717E+03    0.22393E-01   -0.21664E-01 33912   0.156E+00    0.244E+00
DAV:   6    -0.284850425104E+03    0.37816E-02   -0.91207E-02 35112   0.104E+00    0.187E+00
DAV:   7    -0.284850377143E+03    0.47961E-04   -0.59107E-02 35604   0.742E-01    0.124E+00
DAV:   8    -0.284848591832E+03    0.17853E-02   -0.12337E-02 32664   0.508E-01    0.574E-01
DAV:   9    -0.284848258327E+03    0.33350E-03   -0.74794E-03 36396   0.248E-01    0.481E-01
DAV:  10    -0.284848086705E+03    0.17162E-03   -0.18861E-03 32268   0.161E-01    0.144E-01
DAV:  11    -0.284848097245E+03   -0.10540E-04   -0.53285E-04 32676   0.736E-02    0.965E-02
DAV:  12    -0.284848084671E+03    0.12574E-04   -0.17604E-04 34080   0.489E-02    0.349E-02
DAV:  13    -0.284848086428E+03   -0.17568E-05   -0.25899E-05 20052   0.168E-02
  39 F= -.28484809E+03 E0= -.28484598E+03  d E =-.814487E+00  mag=    18.0000
       N       E                     dE             d eps       ncg     rms          rms(c)
DAV:   1    -0.284879539135E+03   -0.31454E-01   -0.63164E-01 26628   0.250E+00    0.639E-01
DAV:   2    -0.284882793253E+03   -0.32541E-02   -0.37888E-02 30948   0.540E-01    0.927E-01
DAV:   3    -0.284882511373E+03    0.28188E-03   -0.16945E-02 32364   0.370E-01    0.804E-01
DAV:   4    -0.284881931980E+03    0.57939E-03   -0.27825E-03 32460   0.219E-01    0.362E-01
DAV:   5    -0.284881855395E+03    0.76584E-04   -0.24661E-03 34704   0.142E-01    0.220E-01
DAV:   6    -0.284881877152E+03   -0.21756E-04   -0.10958E-03 35448   0.101E-01    0.286E-01
DAV:   7    -0.284881799746E+03    0.77405E-04   -0.28341E-04 33336   0.646E-02    0.126E-01
DAV:   8    -0.284881802826E+03   -0.30793E-05   -0.21195E-04 23208   0.295E-02    0.502E-02
DAV:   9    -0.284881808116E+03   -0.52903E-05   -0.20560E-05 18024   0.214E-02
  40 F= -.28488181E+03 E0= -.28487956E+03  d E =-.337217E-01  mag=    18.0000
       N       E                     dE             d eps       ncg     rms          rms(c)
DAV:   1    -0.284901462155E+03   -0.19659E-01   -0.84091E+00 27132   0.107E+01    0.270E+00
DAV:   2    -0.285020859569E+03   -0.11940E+00   -0.15167E+00 33696   0.314E+00    0.102E+01
DAV:   3    -0.284921095704E+03    0.99764E-01   -0.54341E-01 30564   0.243E+00    0.113E+00
DAV:   4    -0.284943382039E+03   -0.22286E-01   -0.89102E-02 33516   0.567E-01    0.193E+00
DAV:   5    -0.284938844921E+03    0.45371E-02   -0.20320E-02 31776   0.599E-01    0.857E-01
DAV:   6    -0.284938362221E+03    0.48270E-03   -0.13355E-02 35748   0.306E-01    0.481E-01
DAV:   7    -0.284938939325E+03   -0.57710E-03   -0.54821E-03 35412   0.198E-01    0.869E-01
DAV:   8    -0.284938268604E+03    0.67072E-03   -0.16936E-03 33444   0.138E-01    0.438E-01
DAV:   9    -0.284938254507E+03    0.14097E-04   -0.10868E-03 35988   0.768E-02    0.150E-01
DAV:  10    -0.284938331370E+03   -0.76863E-04   -0.48440E-04 33756   0.486E-02    0.127E-01
DAV:  11    -0.284938331329E+03    0.40454E-07   -0.35709E-05 22788   0.286E-02
  41 F= -.28493833E+03 E0= -.28493620E+03  d E =-.565232E-01  mag=    18.0000
       N       E                     dE             d eps       ncg     rms          rms(c)
DAV:   1    -0.284940424222E+03   -0.20929E-02   -0.53024E-01 27204   0.214E+00    0.626E-01
DAV:   2    -0.284942582614E+03   -0.21584E-02   -0.27426E-02 30912   0.484E-01    0.552E-01
DAV:   3    -0.284942713366E+03   -0.13075E-03   -0.10905E-02 32664   0.342E-01    0.717E-01
DAV:   4    -0.284942166300E+03    0.54707E-03   -0.47947E-03 32892   0.232E-01    0.401E-01
DAV:   5    -0.284942080618E+03    0.85682E-04   -0.17739E-03 31812   0.126E-01    0.157E-01
DAV:   6    -0.284942063818E+03    0.16800E-04   -0.30884E-04 34584   0.644E-02    0.132E-01
DAV:   7    -0.284942049373E+03    0.14444E-04   -0.23546E-04 31128   0.479E-02    0.469E-02
DAV:   8    -0.284942053306E+03   -0.39332E-05   -0.14674E-05 17700   0.177E-02
  42 F= -.28494205E+03 E0= -.28493999E+03  d E =-.372198E-02  mag=    18.0000
       N       E                     dE             d eps       ncg     rms          rms(c)
DAV:   1    -0.284946874761E+03   -0.48254E-02   -0.33588E-01 27312   0.225E+00    0.601E-01
DAV:   2    -0.284954695354E+03   -0.78206E-02   -0.90934E-02 34392   0.763E-01    0.311E+00
DAV:   3    -0.284946495112E+03    0.82002E-02   -0.42677E-02 30696   0.638E-01    0.436E-01
DAV:   4    -0.284948630564E+03   -0.21355E-02   -0.74103E-03 33192   0.138E-01    0.471E-01
DAV:   5    -0.284948556104E+03    0.74460E-04   -0.79708E-04 30684   0.128E-01    0.237E-01
DAV:   6    -0.284948496943E+03    0.59160E-04   -0.39203E-04 32976   0.496E-02    0.458E-02
DAV:   7    -0.284948540846E+03   -0.43903E-04   -0.32497E-04 31668   0.381E-02    0.169E-01
DAV:   8    -0.284948538717E+03    0.21294E-05   -0.70980E-05 22968   0.287E-02
  43 F= -.28494854E+03 E0= -.28494644E+03  d E =-.648541E-02  mag=    18.0000
       N       E                     dE             d eps       ncg     rms          rms(c)
DAV:   1    -0.284941185607E+03    0.73552E-02   -0.35079E+00 27336   0.784E+00    0.138E+00
DAV:   2    -0.284994121833E+03   -0.52936E-01   -0.63196E-01 32076   0.205E+00    0.692E+00
DAV:   3    -0.284954933827E+03    0.39188E-01   -0.22180E-01 30012   0.148E+00    0.103E+00
DAV:   4    -0.284964683871E+03   -0.97500E-02   -0.34401E-02 33444   0.322E-01    0.882E-01
DAV:   5    -0.284964396726E+03    0.28715E-03   -0.44996E-03 31596   0.294E-01    0.365E-01
DAV:   6    -0.284964232419E+03    0.16431E-03   -0.27612E-03 36048   0.143E-01    0.306E-01
DAV:   7    -0.284964502085E+03   -0.26967E-03   -0.24246E-03 35604   0.131E-01    0.625E-01
DAV:   8    -0.284964312231E+03    0.18985E-03   -0.59668E-04 32196   0.900E-02    0.545E-01
DAV:   9    -0.284964088500E+03    0.22373E-03   -0.71758E-04 33600   0.626E-02    0.232E-01
DAV:  10    -0.284964132532E+03   -0.44032E-04   -0.45029E-04 31680   0.399E-02    0.259E-02
DAV:  11    -0.284964163301E+03   -0.30770E-04   -0.48522E-05 18612   0.171E-02    0.626E-02
DAV:  12    -0.284964158112E+03    0.51896E-05   -0.23562E-05 16704   0.177E-02
  44 F= -.28496416E+03 E0= -.28496232E+03  d E =-.156194E-01  mag=    18.0000
       N       E                     dE             d eps       ncg     rms          rms(c)
DAV:   1    -0.284960403907E+03    0.37594E-02   -0.13443E+00 27396   0.507E+00    0.703E-01
DAV:   2    -0.284976423633E+03   -0.16020E-01   -0.17184E-01 30276   0.116E+00    0.324E+00
DAV:   3    -0.284968300504E+03    0.81231E-02   -0.51150E-02 30216   0.729E-01    0.439E-01
DAV:   4    -0.284970464960E+03   -0.21645E-02   -0.74524E-03 33852   0.170E-01    0.457E-01
DAV:   5    -0.284970312646E+03    0.15231E-03   -0.12557E-03 32196   0.150E-01    0.180E-01
DAV:   6    -0.284970285933E+03    0.26713E-04   -0.98858E-04 35808   0.778E-02    0.211E-01
DAV:   7    -0.284970327758E+03   -0.41825E-04   -0.48341E-04 34812   0.700E-02    0.321E-01
DAV:   8    -0.284970270602E+03    0.57155E-04   -0.15905E-04 30000   0.509E-02    0.251E-01
DAV:   9    -0.284970219437E+03    0.51165E-04   -0.21190E-04 25644   0.347E-02    0.784E-02
DAV:  10    -0.284970237980E+03   -0.18543E-04   -0.10314E-04 21036   0.194E-02    0.255E-02
DAV:  11    -0.284970242018E+03   -0.40379E-05   -0.63538E-06 16416   0.100E-02
  45 F= -.28497024E+03 E0= -.28496846E+03  d E =-.608391E-02  mag=    18.0000
       N       E                     dE             d eps       ncg     rms          rms(c)
DAV:   1    -0.284968424369E+03    0.18136E-02   -0.74235E-01 26952   0.356E+00    0.475E-01
DAV:   2    -0.284974675697E+03   -0.62513E-02   -0.64676E-02 29292   0.761E-01    0.154E+00
DAV:   3    -0.284972915905E+03    0.17598E-02   -0.15482E-02 30576   0.425E-01    0.221E-01
DAV:   4    -0.284973377957E+03   -0.46205E-03   -0.17446E-03 32976   0.132E-01    0.307E-01
DAV:   5    -0.284973274979E+03    0.10298E-03   -0.81573E-04 32904   0.104E-01    0.198E-01
DAV:   6    -0.284973227910E+03    0.47069E-04   -0.77668E-04 34260   0.735E-02    0.144E-01
DAV:   7    -0.284973225612E+03    0.22974E-05   -0.10918E-04 31212   0.448E-02    0.146E-01
DAV:   8    -0.284973204517E+03    0.21095E-04   -0.64522E-05 22320   0.264E-02    0.637E-02
DAV:   9    -0.284973206640E+03   -0.21225E-05   -0.42046E-05 16596   0.143E-02
  46 F= -.28497321E+03 E0= -.28497148E+03  d E =-.296462E-02  mag=    18.0000
       N       E                     dE             d eps       ncg     rms          rms(c)
DAV:   1    -0.284973736993E+03   -0.53248E-03   -0.12410E-01 27000   0.131E+00    0.160E-01
DAV:   2    -0.284974426222E+03   -0.68923E-03   -0.73422E-03 30276   0.255E-01    0.358E-01
DAV:   3    -0.284974339499E+03    0.86723E-04   -0.14686E-03 30864   0.128E-01    0.125E-01
DAV:   4    -0.284974347751E+03   -0.82519E-05   -0.15437E-04 27648   0.498E-02    0.902E-02
DAV:   5    -0.284974336022E+03    0.11730E-04   -0.92593E-05 20136   0.332E-02    0.369E-02
DAV:   6    -0.284974334443E+03    0.15784E-05   -0.63183E-05 24408   0.217E-02
  47 F= -.28497433E+03 E0= -.28497261E+03  d E =-.112780E-02  mag=    18.0000
       N       E                     dE             d eps       ncg     rms          rms(c)
DAV:   1    -0.284971308716E+03    0.30273E-02   -0.12280E+00 26796   0.400E+00    0.380E-01
DAV:   2    -0.284977057628E+03   -0.57489E-02   -0.59868E-02 29616   0.725E-01    0.483E-01
DAV:   3    -0.284977137944E+03   -0.80316E-04   -0.67579E-03 31956   0.278E-01    0.397E-01
DAV:   4    -0.284976975292E+03    0.16265E-03   -0.13595E-03 33336   0.130E-01    0.181E-01
DAV:   5    -0.284976947647E+03    0.27645E-04   -0.39184E-04 32988   0.657E-02    0.107E-01
DAV:   6    -0.284976896159E+03    0.51488E-04   -0.17200E-04 30564   0.534E-02    0.589E-02
DAV:   7    -0.284976895533E+03    0.62647E-06   -0.78798E-05 30720   0.304E-02
  48 F= -.28497690E+03 E0= -.28497518E+03  d E =-.256109E-02  mag=    18.0000
       N       E                     dE             d eps       ncg     rms          rms(c)
DAV:   1    -0.284936746589E+03    0.40150E-01   -0.12737E+01 26712   0.121E+01    0.111E+00
DAV:   2    -0.284989860196E+03   -0.53114E-01   -0.55961E-01 28344   0.225E+00    0.270E+00
DAV:   3    -0.284986497039E+03    0.33632E-02   -0.79072E-02 31008   0.987E-01    0.933E-01
DAV:   4    -0.284986787667E+03   -0.29063E-03   -0.13495E-02 33084   0.389E-01    0.820E-01
DAV:   5    -0.284985894621E+03    0.89305E-03   -0.59482E-03 33756   0.258E-01    0.291E-01
DAV:   6    -0.284985565219E+03    0.32940E-03   -0.35720E-03 32100   0.199E-01    0.397E-01
DAV:   7    -0.284985397715E+03    0.16750E-03   -0.14794E-03 33636   0.143E-01    0.158E-01
DAV:   8    -0.284985399203E+03   -0.14888E-05   -0.37990E-04 34500   0.548E-02    0.688E-02
DAV:   9    -0.284985404079E+03   -0.48760E-05   -0.87972E-05 27420   0.313E-02
  49 F= -.28498540E+03 E0= -.28498387E+03  d E =-.850855E-02  mag=    18.0000
       N       E                     dE             d eps       ncg     rms          rms(c)
DAV:   1    -0.284789954089E+03    0.19545E+00   -0.25349E+01 26772   0.169E+01    0.297E+00
DAV:   2    -0.284902910865E+03   -0.11296E+00   -0.13060E+00 30732   0.338E+00    0.477E+00
DAV:   3    -0.284895253450E+03    0.76574E-02   -0.43895E-01 31212   0.194E+00    0.271E+00
DAV:   4    -0.284886409170E+03    0.88443E-02   -0.35748E-02 32292   0.887E-01    0.133E+00
DAV:   5    -0.284883381337E+03    0.30278E-02   -0.32437E-02 35304   0.557E-01    0.848E-01
DAV:   6    -0.284883242363E+03    0.13897E-03   -0.19440E-02 34572   0.437E-01    0.106E+00
DAV:   7    -0.284882099986E+03    0.11424E-02   -0.43339E-03 33528   0.272E-01    0.456E-01
DAV:   8    -0.284882088630E+03    0.11357E-04   -0.21886E-03 36912   0.108E-01    0.103E-01
DAV:   9    -0.284882164074E+03   -0.75444E-04   -0.22015E-04 31584   0.522E-02    0.518E-02
DAV:  10    -0.284882163619E+03    0.45508E-06   -0.67975E-05 29556   0.298E-02
  50 F= -.28488216E+03 E0= -.28488119E+03  d E =0.103240E+00  mag=    18.0000
       N       E                     dE             d eps       ncg     rms          rms(c)
DAV:   1    -0.284964812017E+03   -0.82648E-01   -0.21665E+00 27132   0.411E+00    0.130E+00
DAV:   2    -0.284974680841E+03   -0.98688E-02   -0.13376E-01 31776   0.106E+00    0.168E+00
DAV:   3    -0.284972446500E+03    0.22343E-02   -0.53787E-02 32004   0.762E-01    0.117E+00
DAV:   4    -0.284971080876E+03    0.13656E-02   -0.17221E-02 32172   0.451E-01    0.888E-01
DAV:   5    -0.284970261095E+03    0.81978E-03   -0.59849E-03 32568   0.296E-01    0.237E-01
DAV:   6    -0.284970182260E+03    0.78835E-04   -0.14172E-03 33024   0.116E-01    0.213E-01
DAV:   7    -0.284970150505E+03    0.31755E-04   -0.84467E-04 34092   0.101E-01    0.859E-02
DAV:   8    -0.284970155359E+03   -0.48537E-05   -0.60281E-05 29388   0.319E-02
  51 F= -.28497016E+03 E0= -.28496898E+03  d E =-.879917E-01  mag=    18.0000
       N       E                     dE             d eps       ncg     rms          rms(c)
DAV:   1    -0.284984973644E+03   -0.14823E-01   -0.34011E-01 27048   0.173E+00    0.538E-01
DAV:   2    -0.284986934052E+03   -0.19604E-02   -0.25973E-02 32100   0.470E-01    0.890E-01
DAV:   3    -0.284986265223E+03    0.66883E-03   -0.11284E-02 31284   0.341E-01    0.417E-01
DAV:   4    -0.284986200680E+03    0.64543E-04   -0.25186E-03 31728   0.183E-01    0.409E-01
DAV:   5    -0.284986004542E+03    0.19614E-03   -0.11884E-03 33204   0.130E-01    0.770E-02
DAV:   6    -0.284986001988E+03    0.25538E-05   -0.18925E-04 30924   0.429E-02    0.732E-02
DAV:   7    -0.284985997232E+03    0.47560E-05   -0.12355E-04 31980   0.383E-02    0.346E-02
DAV:   8    -0.284985997102E+03    0.13047E-06   -0.18446E-05 16464   0.158E-02
  52 F= -.28498600E+03 E0= -.28498469E+03  d E =-.158417E-01  mag=    18.0000
       N       E                     dE             d eps       ncg     rms          rms(c)
DAV:   1    -0.284989290022E+03   -0.32928E-02   -0.77428E-01 26820   0.296E+00    0.836E-01
DAV:   2    -0.284995679555E+03   -0.63895E-02   -0.83098E-02 32676   0.836E-01    0.184E+00
DAV:   3    -0.284992346832E+03    0.33327E-02   -0.32244E-02 31080   0.610E-01    0.422E-01
DAV:   4    -0.284992679181E+03   -0.33235E-03   -0.43745E-03 31692   0.242E-01    0.544E-01
DAV:   5    -0.284992287133E+03    0.39205E-03   -0.25753E-03 34272   0.189E-01    0.173E-01
DAV:   6    -0.284992286927E+03    0.20691E-06   -0.11703E-03 32064   0.905E-02    0.214E-01
DAV:   7    -0.284992231378E+03    0.55549E-04   -0.39178E-04 35568   0.693E-02    0.528E-02
DAV:   8    -0.284992239942E+03   -0.85644E-05   -0.67460E-05 27420   0.243E-02
  53 F= -.28499224E+03 E0= -.28499080E+03  d E =-.624284E-02  mag=    18.0000
       N       E                     dE             d eps       ncg     rms          rms(c)
DAV:   1    -0.284993657966E+03   -0.14266E-02   -0.61948E-02 27636   0.934E-01    0.161E-01
DAV:   2    -0.284994074996E+03   -0.41703E-03   -0.45329E-03 30672   0.194E-01    0.356E-01
DAV:   3    -0.284993972021E+03    0.10298E-03   -0.12730E-03 31056   0.119E-01    0.941E-02
DAV:   4    -0.284993981166E+03   -0.91450E-05   -0.58467E-05 27780   0.348E-02
  54 F= -.28499398E+03 E0= -.28499251E+03  d E =-.174122E-02  mag=    18.0000
       N       E                     dE             d eps       ncg     rms          rms(c)
DAV:   1    -0.284994229014E+03   -0.25699E-03   -0.44884E-01 26820   0.250E+00    0.396E-01
DAV:   2    -0.284996752489E+03   -0.25235E-02   -0.27352E-02 30276   0.474E-01    0.552E-01
DAV:   3    -0.284996694420E+03    0.58069E-04   -0.69594E-03 32136   0.258E-01    0.476E-01
DAV:   4    -0.284996461675E+03    0.23274E-03   -0.10235E-03 33708   0.132E-01    0.102E-01
DAV:   5    -0.284996471868E+03   -0.10193E-04   -0.69308E-04 35088   0.672E-02    0.170E-01
DAV:   6    -0.284996453334E+03    0.18535E-04   -0.23874E-04 32988   0.573E-02    0.138E-01
DAV:   7    -0.284996432102E+03    0.21232E-04   -0.15898E-04 24384   0.353E-02    0.168E-02
DAV:   8    -0.284996437904E+03   -0.58019E-05   -0.12712E-05 17136   0.150E-02
  55 F= -.28499644E+03 E0= -.28499507E+03  d E =-.245674E-02  mag=    18.0000
       N       E                     dE             d eps       ncg     rms          rms(c)
DAV:   1    -0.284997097967E+03   -0.66586E-03   -0.17916E-02 27804   0.488E-01    0.843E-02
DAV:   2    -0.284997204688E+03   -0.10672E-03   -0.11775E-03 30792   0.106E-01    0.140E-01
DAV:   3    -0.284997190281E+03    0.14407E-04   -0.24891E-04 27864   0.589E-02    0.586E-02
DAV:   4    -0.284997189028E+03    0.12522E-05   -0.63867E-05 19452   0.262E-02
  56 F= -.28499719E+03 E0= -.28499581E+03  d E =-.751125E-03  mag=    18.0000
       N       E                     dE             d eps       ncg     rms          rms(c)
DAV:   1    -0.284998013364E+03   -0.82308E-03   -0.92551E-02 26820   0.117E+00    0.138E-01
DAV:   2    -0.284998549457E+03   -0.53609E-03   -0.57032E-03 29640   0.230E-01    0.242E-01
DAV:   3    -0.284998521742E+03    0.27715E-04   -0.82968E-04 30768   0.109E-01    0.976E-02
DAV:   4    -0.284998516497E+03    0.52452E-05   -0.10801E-04 25956   0.378E-02    0.802E-02
DAV:   5    -0.284998509338E+03    0.71592E-05   -0.90263E-05 19368   0.297E-02
  57 F= -.28499851E+03 E0= -.28499717E+03  d E =-.132031E-02  mag=    18.0000
       N       E                     dE             d eps       ncg     rms          rms(c)
DAV:   1    -0.284999462725E+03   -0.94623E-03   -0.26552E-01 26784   0.192E+00    0.168E-01
DAV:   2    -0.285000788898E+03   -0.13262E-02   -0.13664E-02 28596   0.341E-01    0.161E-01
DAV:   3    -0.285000840498E+03   -0.51600E-04   -0.10610E-03 33540   0.109E-01    0.227E-01
DAV:   4    -0.285000785178E+03    0.55320E-04   -0.31340E-04 29340   0.635E-02    0.640E-02
DAV:   5    -0.285000783368E+03    0.18095E-05   -0.88561E-05 21072   0.320E-02
  58 F= -.28500078E+03 E0= -.28499943E+03  d E =-.227403E-02  mag=    18.0000
       N       E                     dE             d eps       ncg     rms          rms(c)
DAV:   1    -0.284998029369E+03    0.27558E-02   -0.24415E+00 26784   0.546E+00    0.475E-01
DAV:   2    -0.285008385003E+03   -0.10356E-01   -0.11076E-01 28020   0.996E-01    0.756E-01
DAV:   3    -0.285008300220E+03    0.84783E-04   -0.11978E-02 32352   0.377E-01    0.461E-01
DAV:   4    -0.285008107280E+03    0.19294E-03   -0.21546E-03 33672   0.161E-01    0.283E-01
DAV:   5    -0.285008008819E+03    0.98461E-04   -0.76972E-04 33744   0.102E-01    0.126E-01
DAV:   6    -0.285007921026E+03    0.87793E-04   -0.35343E-04 32388   0.730E-02    0.929E-02
DAV:   7    -0.285007921217E+03   -0.19046E-06   -0.18386E-04 32328   0.433E-02    0.436E-02
DAV:   8    -0.285007918989E+03    0.22272E-05   -0.26786E-05 18864   0.209E-02
  59 F= -.28500792E+03 E0= -.28500665E+03  d E =-.713562E-02  mag=    18.0000
       N       E                     dE             d eps       ncg     rms          rms(c)
DAV:   1    -0.284969621789E+03    0.38299E-01   -0.13653E+01 26760   0.128E+01    0.111E+00
DAV:   2    -0.285026324437E+03   -0.56703E-01   -0.60090E-01 27420   0.235E+00    0.180E+00
DAV:   3    -0.285025981937E+03    0.34250E-03   -0.54118E-02 31824   0.879E-01    0.910E-01
DAV:   4    -0.285025024541E+03    0.95740E-03   -0.89107E-03 34740   0.345E-01    0.639E-01
DAV:   5    -0.285024536517E+03    0.48802E-03   -0.57386E-03 34056   0.229E-01    0.358E-01
DAV:   6    -0.285024070181E+03    0.46634E-03   -0.22922E-03 32736   0.196E-01    0.291E-01
DAV:   7    -0.285024008776E+03    0.61405E-04   -0.11513E-03 32544   0.128E-01    0.808E-02
DAV:   8    -0.285024010733E+03   -0.19577E-05   -0.15980E-04 32340   0.403E-02    0.378E-02
DAV:   9    -0.285024010803E+03   -0.69678E-07   -0.39688E-05 25428   0.226E-02
  60 F= -.28502401E+03 E0= -.28502301E+03  d E =-.160918E-01  mag=    18.0000
       N       E                     dE             d eps       ncg     rms          rms(c)
DAV:   1    -0.285021251873E+03    0.27589E-02   -0.21289E+00 26724   0.494E+00    0.482E-01
DAV:   2    -0.285029718445E+03   -0.84666E-02   -0.89785E-02 28272   0.899E-01    0.741E-01
DAV:   3    -0.285029663337E+03    0.55108E-04   -0.12558E-02 32604   0.360E-01    0.561E-01
DAV:   4    -0.285029356529E+03    0.30681E-03   -0.23096E-03 32640   0.172E-01    0.227E-01
DAV:   5    -0.285029299171E+03    0.57358E-04   -0.74136E-04 33456   0.102E-01    0.123E-01
DAV:   6    -0.285029219619E+03    0.79552E-04   -0.26968E-04 30048   0.655E-02    0.567E-02
DAV:   7    -0.285029224737E+03   -0.51178E-05   -0.10054E-04 30492   0.307E-02    0.225E-02
DAV:   8    -0.285029223552E+03    0.11846E-05   -0.14452E-05 16848   0.152E-02
  61 F= -.28502922E+03 E0= -.28502826E+03  d E =-.521275E-02  mag=    18.0000
       N       E                     dE             d eps       ncg     rms          rms(c)
DAV:   1    -0.285028533402E+03    0.69133E-03   -0.99324E-01 26688   0.332E+00    0.314E-01
DAV:   2    -0.285032530028E+03   -0.39966E-02   -0.42851E-02 28848   0.620E-01    0.751E-01
DAV:   3    -0.285032153744E+03    0.37628E-03   -0.69007E-03 31536   0.271E-01    0.234E-01
DAV:   4    -0.285032160450E+03   -0.67058E-05   -0.44474E-04 31560   0.928E-02    0.141E-01
DAV:   5    -0.285032120013E+03    0.40437E-04   -0.28909E-04 34236   0.606E-02    0.800E-02
DAV:   6    -0.285032103703E+03    0.16310E-04   -0.28821E-04 29940   0.482E-02    0.133E-01
DAV:   7    -0.285032083396E+03    0.20307E-04   -0.15342E-04 29844   0.383E-02    0.242E-02
DAV:   8    -0.285032087325E+03   -0.39292E-05   -0.20149E-05 15996   0.122E-02
  62 F= -.28503209E+03 E0= -.28503112E+03  d E =-.286377E-02  mag=    18.0000
       N       E                     dE             d eps       ncg     rms          rms(c)
DAV:   1    -0.284994967745E+03    0.37116E-01   -0.13122E+01 26748   0.122E+01    0.102E+00
DAV:   2    -0.285046585963E+03   -0.51618E-01   -0.54323E-01 27624   0.220E+00    0.189E+00
DAV:   3    -0.285045326072E+03    0.12599E-02   -0.64717E-02 32400   0.844E-01    0.107E+00
DAV:   4    -0.285044368861E+03    0.95721E-03   -0.84498E-03 32400   0.352E-01    0.443E-01
DAV:   5    -0.285044018871E+03    0.34999E-03   -0.27466E-03 33504   0.199E-01    0.262E-01
DAV:   6    -0.285043533934E+03    0.48494E-03   -0.15177E-03 33744   0.156E-01    0.123E-01
DAV:   7    -0.285043569899E+03   -0.35966E-04   -0.54946E-04 31092   0.680E-02    0.497E-02
DAV:   8    -0.285043566322E+03    0.35779E-05   -0.82509E-05 28356   0.326E-02
  63 F= -.28504357E+03 E0= -.28504276E+03  d E =-.114790E-01  mag=    18.0000
       N       E                     dE             d eps       ncg     rms          rms(c)
DAV:   1    -0.284569814959E+03    0.47375E+00   -0.62552E+01 26784   0.308E+01    0.331E+00
DAV:   2    -0.284949765610E+03   -0.37995E+00   -0.38560E+00 28632   0.571E+00    0.256E+00
DAV:   3    -0.284966395368E+03   -0.16630E-01   -0.36399E-01 32844   0.188E+00    0.366E+00
DAV:   4    -0.284948552139E+03    0.17843E-01   -0.82961E-02 34716   0.111E+00    0.917E-01
DAV:   5    -0.284947855869E+03    0.69627E-03   -0.46938E-02 34308   0.533E-01    0.150E+00
DAV:   6    -0.284944960291E+03    0.28956E-02   -0.26715E-02 35016   0.518E-01    0.325E-01
DAV:   7    -0.284945506626E+03   -0.54633E-03   -0.42032E-03 35460   0.241E-01    0.415E-01
DAV:   8    -0.284945342018E+03    0.16461E-03   -0.19743E-03 35316   0.157E-01    0.103E-01
DAV:   9    -0.284945370592E+03   -0.28575E-04   -0.20895E-04 31260   0.473E-02    0.526E-02
DAV:  10    -0.284945368824E+03    0.17687E-05   -0.35745E-05 22644   0.262E-02
  64 F= -.28494537E+03 E0= -.28494478E+03  d E =0.981975E-01  mag=    18.0000
       N       E                     dE             d eps       ncg     rms          rms(c)
DAV:   1    -0.285004601361E+03   -0.59231E-01   -0.20314E+00 26664   0.433E+00    0.134E+00
DAV:   2    -0.285018787463E+03   -0.14186E-01   -0.18390E-01 32016   0.125E+00    0.265E+00
DAV:   3    -0.285011476890E+03    0.73106E-02   -0.76455E-02 31332   0.932E-01    0.737E-01
DAV:   4    -0.285011536686E+03   -0.59796E-04   -0.63548E-03 32052   0.355E-01    0.681E-01
DAV:   5    -0.285010911628E+03    0.62506E-03   -0.49358E-03 32736   0.274E-01    0.230E-01
DAV:   6    -0.285010946357E+03   -0.34729E-04   -0.20372E-03 32868   0.124E-01    0.333E-01
DAV:   7    -0.285010815326E+03    0.13103E-03   -0.94201E-04 34800   0.957E-02    0.567E-02
DAV:   8    -0.285010843483E+03   -0.28157E-04   -0.13242E-04 29148   0.274E-02    0.514E-02
DAV:   9    -0.285010841522E+03    0.19616E-05   -0.23665E-05 17616   0.187E-02
  65 F= -.28501084E+03 E0= -.28501017E+03  d E =-.654727E-01  mag=    18.0000
       N       E                     dE             d eps       ncg     rms          rms(c)
DAV:   1    -0.285020452670E+03   -0.96092E-02   -0.21529E-01 26880   0.156E+00    0.416E-01
DAV:   2    -0.285022137354E+03   -0.16847E-02   -0.21356E-02 31404   0.429E-01    0.979E-01
DAV:   3    -0.285021251474E+03    0.88588E-03   -0.96077E-03 31092   0.308E-01    0.226E-01
DAV:   4    -0.285021326542E+03   -0.75069E-04   -0.44206E-04 31440   0.958E-02    0.195E-01
DAV:   5    -0.285021272676E+03    0.53867E-04   -0.46720E-04 33240   0.750E-02    0.791E-02
DAV:   6    -0.285021285337E+03   -0.12661E-04   -0.25496E-04 28164   0.436E-02    0.132E-01
DAV:   7    -0.285021264781E+03    0.20556E-04   -0.89600E-05 23100   0.316E-02    0.411E-02
DAV:   8    -0.285021267542E+03   -0.27604E-05   -0.37584E-05 16596   0.121E-02
  66 F= -.28502127E+03 E0= -.28502056E+03  d E =-.104260E-01  mag=    18.0000
       N       E                     dE             d eps       ncg     rms          rms(c)
DAV:   1    -0.285028085384E+03   -0.68206E-02   -0.37398E-01 26784   0.229E+00    0.510E-01
DAV:   2    -0.285031410045E+03   -0.33247E-02   -0.41761E-02 30984   0.605E-01    0.135E+00
DAV:   3    -0.285029679605E+03    0.17304E-02   -0.16186E-02 31620   0.408E-01    0.213E-01
DAV:   4    -0.285029939296E+03   -0.25969E-03   -0.82281E-04 31116   0.938E-02    0.269E-01
DAV:   5    -0.285029835555E+03    0.10374E-03   -0.12396E-03 34836   0.905E-02    0.114E-01
DAV:   6    -0.285029842970E+03   -0.74150E-05   -0.94082E-05 30360   0.406E-02
  67 F= -.28502984E+03 E0= -.28502913E+03  d E =-.857543E-02  mag=    18.0000
       N       E                     dE             d eps       ncg     rms          rms(c)
DAV:   1    -0.285033001325E+03   -0.31658E-02   -0.12476E-01 26784   0.148E+00    0.201E-01
DAV:   2    -0.285033839063E+03   -0.83774E-03   -0.94999E-03 28608   0.299E-01    0.202E-01
DAV:   3    -0.285033851197E+03   -0.12134E-04   -0.11759E-03 32352   0.130E-01    0.177E-01
DAV:   4    -0.285033827853E+03    0.23344E-04   -0.51227E-04 30240   0.676E-02    0.147E-01
DAV:   5    -0.285033805471E+03    0.22382E-04   -0.15410E-04 23844   0.425E-02    0.380E-02
DAV:   6    -0.285033808019E+03   -0.25475E-05   -0.82723E-05 27144   0.208E-02
  68 F= -.28503381E+03 E0= -.28503303E+03  d E =-.396505E-02  mag=    18.0000
       N       E                     dE             d eps       ncg     rms          rms(c)
DAV:   1    -0.285037458120E+03   -0.36526E-02   -0.68489E-01 26784   0.360E+00    0.404E-01
DAV:   2    -0.285042591383E+03   -0.51333E-02   -0.57426E-02 27972   0.717E-01    0.552E-01
DAV:   3    -0.285042703810E+03   -0.11243E-03   -0.85566E-03 33312   0.301E-01    0.538E-01
DAV:   4    -0.285042472758E+03    0.23105E-03   -0.25286E-03 35280   0.159E-01    0.236E-01
DAV:   5    -0.285042432600E+03    0.40159E-04   -0.48408E-04 33972   0.916E-02    0.858E-02
DAV:   6    -0.285042404422E+03    0.28177E-04   -0.23846E-04 33540   0.462E-02    0.920E-02
DAV:   7    -0.285042396938E+03    0.74839E-05   -0.13856E-04 28464   0.382E-02    0.324E-02
DAV:   8    -0.285042396580E+03    0.35848E-06   -0.14696E-05 16548   0.165E-02
  69 F= -.28504240E+03 E0= -.28504168E+03  d E =-.858856E-02  mag=    18.0000
       N       E                     dE             d eps       ncg     rms          rms(c)
DAV:   1    -0.285045769027E+03   -0.33721E-02   -0.24208E-01 26772   0.212E+00    0.242E-01
DAV:   2    -0.285047705064E+03   -0.19360E-02   -0.21587E-02 27720   0.434E-01    0.540E-01
DAV:   3    -0.285047557562E+03    0.14750E-03   -0.38872E-03 31380   0.199E-01    0.232E-01
DAV:   4    -0.285047560597E+03   -0.30348E-05   -0.45584E-04 32532   0.866E-02    0.129E-01
DAV:   5    -0.285047535083E+03    0.25514E-04   -0.16632E-04 27972   0.532E-02    0.533E-02
DAV:   6    -0.285047528583E+03    0.64993E-05   -0.94635E-05 30276   0.274E-02
  70 F= -.28504753E+03 E0= -.28504682E+03  d E =-.513200E-02  mag=    18.0000
       N       E                     dE             d eps       ncg     rms          rms(c)
DAV:   1    -0.285043897103E+03    0.36380E-02   -0.28643E+00 26772   0.720E+00    0.754E-01
DAV:   2    -0.285066479868E+03   -0.22583E-01   -0.25256E-01 27024   0.147E+00    0.172E+00
DAV:   3    -0.285064633501E+03    0.18464E-02   -0.38412E-02 31368   0.644E-01    0.639E-01
DAV:   4    -0.285064780254E+03   -0.14675E-03   -0.32463E-03 34908   0.242E-01    0.379E-01
DAV:   5    -0.285064541699E+03    0.23856E-03   -0.16359E-03 34128   0.158E-01    0.174E-01
DAV:   6    -0.285064499149E+03    0.42550E-04   -0.10729E-03 33360   0.860E-02    0.262E-01
DAV:   7    -0.285064416594E+03    0.82555E-04   -0.66239E-04 32820   0.774E-02    0.270E-02
DAV:   8    -0.285064435188E+03   -0.18594E-04   -0.55011E-05 25308   0.226E-02    0.351E-02
DAV:   9    -0.285064433884E+03    0.13041E-05   -0.15775E-05 16440   0.128E-02
  71 F= -.28506443E+03 E0= -.28506381E+03  d E =-.169053E-01  mag=    18.0000
       N       E                     dE             d eps       ncg     rms          rms(c)
DAV:   1    -0.285056217261E+03    0.82179E-02   -0.39047E+00 26772   0.796E+00    0.828E-01
DAV:   2    -0.285080398582E+03   -0.24181E-01   -0.26168E-01 27372   0.151E+00    0.817E-01
DAV:   3    -0.285081536659E+03   -0.11381E-02   -0.28040E-02 34488   0.528E-01    0.116E+00
DAV:   4    -0.285080119119E+03    0.14175E-02   -0.99212E-03 33936   0.316E-01    0.337E-01
[...]
DAV:   4    -0.285124461103E+03   -0.85304E-04   -0.48402E-04 26700   0.295E-02    0.167E-01
DAV:   5    -0.285124439474E+03    0.21628E-04   -0.88234E-05 22272   0.350E-02    0.603E-02
DAV:   6    -0.285124450110E+03   -0.10636E-04   -0.22923E-04 22368   0.242E-02    0.116E-01
DAV:   7    -0.285124443410E+03    0.67002E-05   -0.15450E-05 18204   0.191E-02
 111 F= -.28512444E+03 E0= -.28512369E+03  d E =-.208317E-02  mag=    18.0000
       N       E                     dE             d eps       ncg     rms          rms(c)
DAV:   1    -0.285059936353E+03    0.64514E-01   -0.19933E+01 27216   0.165E+01    0.281E+00
DAV:   2    -0.285290131997E+03   -0.23020E+00   -0.28541E+00 30624   0.461E+00    0.105E+01
DAV:   3    -0.285147938699E+03    0.14219E+00   -0.46568E-01 31056   0.295E+00    0.339E+00
DAV:   4    -0.285155021630E+03   -0.70829E-02   -0.27997E-01 37176   0.784E-01    0.268E+00
DAV:   5    -0.285153346449E+03    0.16752E-02   -0.35787E-02 29304   0.752E-01    0.693E-01
DAV:   6    -0.285153529503E+03   -0.18305E-03   -0.13108E-02 34980   0.239E-01    0.490E-01
DAV:   7    -0.285154454958E+03   -0.92546E-03   -0.34307E-03 31092   0.122E-01    0.987E-01
DAV:   8    -0.285153569859E+03    0.88510E-03   -0.14961E-03 37872   0.108E-01    0.546E-01
DAV:   9    -0.285153571968E+03   -0.21089E-05   -0.31390E-03 36948   0.786E-02    0.108E-01
DAV:  10    -0.285153785113E+03   -0.21314E-03   -0.39950E-04 27024   0.372E-02    0.306E-01
DAV:  11    -0.285153707627E+03    0.77485E-04   -0.10162E-04 23172   0.338E-02    0.192E-01
DAV:  12    -0.285153694200E+03    0.13427E-04   -0.26458E-04 23484   0.229E-02    0.916E-03
DAV:  13    -0.285153713833E+03   -0.19633E-04   -0.26333E-05 17892   0.131E-02    0.381E-02
DAV:  14    -0.285153714056E+03   -0.22332E-06   -0.16558E-06 16404   0.574E-03
 112 F= -.28515371E+03 E0= -.28515292E+03  d E =-.292706E-01  mag=    18.0000
       N       E                     dE             d eps       ncg     rms          rms(c)
DAV:   1    -0.283683375742E+03    0.14703E+01   -0.96030E+01 26364   0.297E+01    0.104E+01
DAV:   2    -0.284222935172E+03   -0.53956E+00   -0.73111E+00 31788   0.770E+00    0.146E+01
DAV:   3    -0.284072225002E+03    0.15071E+00   -0.43458E+00 31764   0.623E+00    0.791E+00
DAV:   4    -0.283985281267E+03    0.86944E-01   -0.25296E-01 30612   0.249E+00    0.361E+00
DAV:   5    -0.283967432360E+03    0.17849E-01   -0.41804E-01 36180   0.155E+00    0.304E+00
DAV:   6    -0.283959583076E+03    0.78493E-02   -0.66575E-02 32832   0.944E-01    0.704E-01
DAV:   7    -0.283960943969E+03   -0.13609E-02   -0.13481E-02 33048   0.326E-01    0.291E-01
DAV:   8    -0.283961218254E+03   -0.27428E-03   -0.28942E-03 31968   0.139E-01    0.347E-01
DAV:   9    -0.283961063040E+03    0.15521E-03   -0.21087E-03 36600   0.122E-01    0.120E-01
DAV:  10    -0.283961131856E+03   -0.68816E-04   -0.32489E-04 29964   0.499E-02    0.167E-01
DAV:  11    -0.283961091484E+03    0.40372E-04   -0.20063E-04 32892   0.399E-02    0.460E-02
DAV:  12    -0.283961101981E+03   -0.10497E-04   -0.57091E-05 25608   0.181E-02    0.139E-02
DAV:  13    -0.283961106671E+03   -0.46904E-05   -0.13697E-05 17100   0.898E-03
 113 F= -.28396111E+03 E0= -.28396104E+03  d E =0.119261E+01  mag=    18.0000
       N       E                     dE             d eps       ncg     rms          rms(c)
DAV:   1    -0.284904094261E+03   -0.94299E+00   -0.34497E+01 26784   0.154E+01    0.621E+00
DAV:   2    -0.285211126975E+03   -0.30703E+00   -0.43726E+00 31680   0.575E+00    0.115E+01
DAV:   3    -0.285006317116E+03    0.20481E+00   -0.84487E-01 31920   0.414E+00    0.242E+00
DAV:   4    -0.285026191196E+03   -0.19874E-01   -0.44737E-01 33072   0.107E+00    0.589E+00
DAV:   5    -0.284993215886E+03    0.32975E-01   -0.66022E-01 32256   0.191E+00    0.329E+00
DAV:   6    -0.284988191103E+03    0.50248E-02   -0.50143E-02 32040   0.944E-01    0.113E+00
DAV:   7    -0.284989330200E+03   -0.11391E-02   -0.11012E-02 31608   0.270E-01    0.476E-01
DAV:   8    -0.284989533265E+03   -0.20306E-03   -0.33203E-03 33744   0.120E-01    0.184E-01
DAV:   9    -0.284989600149E+03   -0.66884E-04   -0.50062E-04 31680   0.777E-02    0.225E-01
DAV:  10    -0.284989533017E+03    0.67132E-04   -0.87194E-04 35616   0.705E-02    0.864E-02
DAV:  11    -0.284989550666E+03   -0.17649E-04   -0.70139E-05 27732   0.314E-02    0.926E-02
DAV:  12    -0.284989543006E+03    0.76599E-05   -0.10109E-04 23976   0.223E-02    0.124E-02
DAV:  13    -0.284989548056E+03   -0.50502E-05   -0.10241E-05 16764   0.875E-03
 114 F= -.28498955E+03 E0= -.28498913E+03  d E =-.102844E+01  mag=    18.0000
       N       E                     dE             d eps       ncg     rms          rms(c)
DAV:   1    -0.285115362810E+03   -0.12582E+00   -0.76027E+00 26052   0.797E+00    0.312E+00
DAV:   2    -0.285232693091E+03   -0.11733E+00   -0.15528E+00 32640   0.316E+00    0.909E+00
DAV:   3    -0.285126198839E+03    0.10649E+00   -0.46578E-01 31584   0.255E+00    0.120E+00
DAV:   4    -0.285149124364E+03   -0.22926E-01   -0.23388E-01 34848   0.665E-01    0.417E+00
DAV:   5    -0.285130032687E+03    0.19092E-01   -0.97323E-02 31728   0.913E-01    0.610E-01
DAV:   6    -0.285134545190E+03   -0.45125E-02   -0.22945E-02 32820   0.265E-01    0.962E-01
DAV:   7    -0.285134703527E+03   -0.15834E-03   -0.12424E-03 32496   0.173E-01    0.954E-01
DAV:   8    -0.285133899435E+03    0.80409E-03   -0.32269E-03 37560   0.120E-01    0.337E-01
DAV:   9    -0.285134211414E+03   -0.31198E-03   -0.34724E-03 35556   0.776E-02    0.345E-01
DAV:  10    -0.285134253513E+03   -0.42099E-04   -0.10745E-04 27168   0.522E-02    0.365E-01
DAV:  11    -0.285134134704E+03    0.11881E-03   -0.45648E-04 34140   0.445E-02    0.127E-01
DAV:  12    -0.285134168431E+03   -0.33727E-04   -0.22841E-04 21828   0.185E-02    0.407E-02
DAV:  13    -0.285134179949E+03   -0.11518E-04   -0.66991E-06 17748   0.135E-02    0.405E-02
DAV:  14    -0.285134178632E+03    0.13169E-05   -0.63484E-06 16140   0.621E-03
 115 F= -.28513418E+03 E0= -.28513348E+03  d E =-.144631E+00  mag=    18.0000
       N       E                     dE             d eps       ncg     rms          rms(c)
DAV:   1    -0.285147906935E+03   -0.13727E-01   -0.19488E+00 27396   0.439E+00    0.161E+00
DAV:   2    -0.285189324911E+03   -0.41418E-01   -0.51371E-01 33444   0.170E+00    0.646E+00
DAV:   3    -0.285145511380E+03    0.43814E-01   -0.20552E-01 31680   0.146E+00    0.809E-01
DAV:   4    -0.285157943562E+03   -0.12432E-01   -0.91268E-02 33396   0.368E-01    0.256E+00
DAV:   5    -0.285152375600E+03    0.55680E-02   -0.16343E-02 30720   0.453E-01    0.110E+00
DAV:   6    -0.285152708925E+03   -0.33332E-03   -0.18598E-02 36852   0.199E-01    0.451E-01
DAV:   7    -0.285153598922E+03   -0.89000E-03   -0.14888E-03 29268   0.111E-01    0.752E-01
DAV:   8    -0.285153106250E+03    0.49267E-03   -0.90131E-04 36216   0.822E-02    0.423E-01
DAV:   9    -0.285153101300E+03    0.49500E-05   -0.19753E-03 37068   0.614E-02    0.999E-02
DAV:  10    -0.285153222631E+03   -0.12133E-03   -0.19373E-04 25080   0.286E-02    0.233E-01
DAV:  11    -0.285153176634E+03    0.45996E-04   -0.67783E-05 22044   0.260E-02    0.140E-01
DAV:  12    -0.285153171358E+03    0.52763E-05   -0.12855E-04 17676   0.152E-02    0.122E-02
DAV:  13    -0.285153181593E+03   -0.10235E-04   -0.14089E-05 16620   0.843E-03    0.207E-02
DAV:  14    -0.285153182161E+03   -0.56748E-06   -0.79611E-07 15552   0.351E-03
 116 F= -.28515318E+03 E0= -.28515239E+03  d E =-.190035E-01  mag=    18.0000
       N       E                     dE             d eps       ncg     rms          rms(c)
DAV:   1    -0.285158329343E+03   -0.51477E-02   -0.30325E-01 27960   0.186E+00    0.435E-01
DAV:   2    -0.285160188653E+03   -0.18593E-02   -0.22698E-02 32772   0.430E-01    0.107E+00
DAV:   3    -0.285159332394E+03    0.85626E-03   -0.11599E-02 31932   0.282E-01    0.380E-01
DAV:   4    -0.285159487115E+03   -0.15472E-03   -0.58937E-04 30744   0.111E-01    0.388E-01
DAV:   5    -0.285159317925E+03    0.16919E-03   -0.14698E-03 36240   0.792E-02    0.799E-02
DAV:   6    -0.285159367526E+03   -0.49601E-04   -0.12504E-04 30840   0.405E-02    0.121E-01
DAV:   7    -0.285159351059E+03    0.16468E-04   -0.83209E-05 22896   0.247E-02    0.305E-02
DAV:   8    -0.285159356375E+03   -0.53163E-05   -0.34932E-05 16740   0.141E-02
 117 F= -.28515936E+03 E0= -.28515857E+03  d E =-.617421E-02  mag=    18.0000
       N       E                     dE             d eps       ncg     rms          rms(c)
DAV:   1    -0.285161939209E+03   -0.25881E-02   -0.24643E-01 27288   0.163E+00    0.430E-01
DAV:   2    -0.285163446203E+03   -0.15070E-02   -0.18244E-02 31584   0.390E-01    0.908E-01
DAV:   3    -0.285163030498E+03    0.41570E-03   -0.12603E-02 31788   0.276E-01    0.596E-01
DAV:   4    -0.285162845301E+03    0.18520E-03   -0.94780E-04 31140   0.143E-01    0.240E-01
DAV:   5    -0.285162844024E+03    0.12771E-05   -0.12936E-03 36264   0.632E-02    0.181E-01
DAV:   6    -0.285162835001E+03    0.90232E-05   -0.11458E-04 29760   0.493E-02    0.911E-02
DAV:   7    -0.285162831940E+03    0.30611E-05   -0.11318E-04 26004   0.208E-02    0.314E-02
DAV:   8    -0.285162835582E+03   -0.36426E-05   -0.92926E-06 17232   0.142E-02
 118 F= -.28516284E+03 E0= -.28516208E+03  d E =-.347921E-02  mag=    18.0000
       N       E                     dE             d eps       ncg     rms          rms(c)
DAV:   1    -0.285163279667E+03   -0.44773E-03   -0.14572E-02 27660   0.433E-01    0.141E-01
DAV:   2    -0.285163656411E+03   -0.37674E-03   -0.45254E-03 32832   0.156E-01    0.705E-01
DAV:   3    -0.285163233334E+03    0.42308E-03   -0.23383E-03 30864   0.137E-01    0.725E-02
DAV:   4    -0.285163388940E+03   -0.15561E-03   -0.76490E-04 28080   0.333E-02    0.242E-01
DAV:   5    -0.285163347300E+03    0.41640E-04   -0.95169E-05 22740   0.386E-02    0.131E-01
DAV:   6    -0.285163343575E+03    0.37250E-05   -0.23382E-04 20952   0.232E-02    0.488E-02
DAV:   7    -0.285163356147E+03   -0.12572E-04   -0.25419E-05 17376   0.134E-02    0.889E-02
DAV:   8    -0.285163349569E+03    0.65784E-05   -0.73939E-06 16416   0.872E-03
 119 F= -.28516335E+03 E0= -.28516260E+03  d E =-.513986E-03  mag=    18.0000
       N       E                     dE             d eps       ncg     rms          rms(c)
DAV:   1    -0.285164125482E+03   -0.76933E-03   -0.56537E-02 27648   0.104E+00    0.125E-01
DAV:   2    -0.285164648204E+03   -0.52272E-03   -0.55280E-03 29304   0.213E-01    0.404E-01
DAV:   3    -0.285164529405E+03    0.11880E-03   -0.10040E-03 31404   0.967E-02    0.579E-02
DAV:   4    -0.285164567866E+03   -0.38461E-04   -0.17545E-04 27912   0.319E-02    0.104E-01
DAV:   5    -0.285164554113E+03    0.13752E-04   -0.11354E-04 20592   0.304E-02    0.283E-02
DAV:   6    -0.285164558915E+03   -0.48022E-05   -0.43029E-05 19752   0.161E-02
 120 F= -.28516456E+03 E0= -.28516383E+03  d E =-.120935E-02  mag=    18.0000
       N       E                     dE             d eps       ncg     rms          rms(c)
DAV:   1    -0.285165503531E+03   -0.94942E-03   -0.61811E-02 26856   0.100E+00    0.168E-01
DAV:   2    -0.285166460766E+03   -0.95724E-03   -0.11015E-02 30144   0.265E-01    0.993E-01
DAV:   3    -0.285165653044E+03    0.80772E-03   -0.36682E-03 30492   0.185E-01    0.206E-01
DAV:   4    -0.285165894595E+03   -0.24155E-03   -0.17550E-03 30192   0.487E-02    0.273E-01
DAV:   5    -0.285165880295E+03    0.14300E-04   -0.88232E-05 25632   0.489E-02    0.188E-01
DAV:   6    -0.285165858540E+03    0.21755E-04   -0.55289E-04 28392   0.400E-02    0.858E-02
DAV:   7    -0.285165889304E+03   -0.30764E-04   -0.78965E-05 19872   0.167E-02    0.171E-01
DAV:   8    -0.285165866366E+03    0.22938E-04   -0.21685E-05 16560   0.137E-02    0.118E-01
DAV:   9    -0.285165860285E+03    0.60817E-05   -0.85957E-05 18192   0.134E-02
 121 F= -.28516586E+03 E0= -.28516512E+03  d E =-.130137E-02  mag=    18.0000
       N       E                     dE             d eps       ncg     rms          rms(c)
DAV:   1    -0.285167092043E+03   -0.12257E-02   -0.17275E-01 26256   0.137E+00    0.492E-01
DAV:   2    -0.285173297740E+03   -0.62057E-02   -0.74543E-02 33528   0.605E-01    0.292E+00
DAV:   3    -0.285165679422E+03    0.76183E-02   -0.32052E-02 31368   0.536E-01    0.544E-01
DAV:   4    -0.285167788667E+03   -0.21092E-02   -0.12796E-02 32856   0.119E-01    0.744E-01
DAV:   5    -0.285167673874E+03    0.11479E-03   -0.62799E-04 28692   0.127E-01    0.511E-01
DAV:   6    -0.285167490586E+03    0.18329E-03   -0.12552E-03 34728   0.608E-02    0.107E-01
DAV:   7    -0.285167632814E+03   -0.14223E-03   -0.93406E-04 28788   0.322E-02    0.244E-01
DAV:   8    -0.285167616834E+03    0.15980E-04   -0.22334E-05 21204   0.292E-02    0.217E-01
DAV:   9    -0.285167580564E+03    0.36270E-04   -0.16754E-04 20580   0.229E-02    0.671E-02
DAV:  10    -0.285167595151E+03   -0.14587E-04   -0.59881E-05 17352   0.104E-02    0.158E-02
DAV:  11    -0.285167599024E+03   -0.38723E-05   -0.40308E-06 16188   0.562E-03
 122 F= -.28516760E+03 E0= -.28516684E+03  d E =-.173874E-02  mag=    18.0000
       N       E                     dE             d eps       ncg     rms          rms(c)
DAV:   1    -0.285168115469E+03   -0.52032E-03   -0.60073E-02 26760   0.915E-01    0.155E-01
DAV:   2    -0.285169151915E+03   -0.10364E-02   -0.11941E-02 33084   0.257E-01    0.110E+00
DAV:   3    -0.285168182237E+03    0.96968E-03   -0.35079E-03 30168   0.191E-01    0.328E-01
DAV:   4    -0.285168365789E+03   -0.18355E-03   -0.17416E-03 30756   0.480E-02    0.151E-01
DAV:   5    -0.285168422743E+03   -0.56955E-04   -0.67084E-05 25980   0.448E-02    0.116E-01
DAV:   6    -0.285168406632E+03    0.16112E-04   -0.14379E-04 21396   0.248E-02    0.244E-02
DAV:   7    -0.285168422183E+03   -0.15551E-04   -0.79883E-05 17076   0.122E-02    0.112E-01
DAV:   8    -0.285168415312E+03    0.68704E-05   -0.29262E-06 16284   0.855E-03
 123 F= -.28516842E+03 E0= -.28516767E+03  d E =-.816289E-03  mag=    18.0000
       N       E                     dE             d eps       ncg     rms          rms(c)
DAV:   1    -0.285168208548E+03    0.21363E-03   -0.61459E-02 26352   0.830E-01    0.321E-01
DAV:   2    -0.285171134815E+03   -0.29263E-02   -0.35720E-02 33588   0.389E-01    0.207E+00
DAV:   3    -0.285167453886E+03    0.36809E-02   -0.15222E-02 31392   0.360E-01    0.428E-01
DAV:   4    -0.285168449717E+03   -0.99583E-03   -0.60745E-03 31212   0.798E-02    0.461E-01
DAV:   5    -0.285168497773E+03   -0.48057E-04   -0.18057E-04 27168   0.776E-02    0.383E-01
DAV:   6    -0.285168379438E+03    0.11834E-03   -0.51335E-04 31788   0.435E-02    0.122E-01
DAV:   7    -0.285168430973E+03   -0.51536E-04   -0.45283E-04 20400   0.231E-02    0.125E-01
DAV:   8    -0.285168439271E+03   -0.82980E-05   -0.13052E-05 18720   0.192E-02
 124 F= -.28516844E+03 E0= -.28516769E+03  d E =-.239590E-04  mag=    18.0000
       N       E                     dE             d eps       ncg     rms          rms(c)
DAV:   1    -0.285167530681E+03    0.90029E-03   -0.16595E-01 26316   0.133E+00    0.422E-01
DAV:   2    -0.285173652890E+03   -0.61222E-02   -0.72678E-02 34740   0.566E-01    0.289E+00
DAV:   3    -0.285166308378E+03    0.73445E-02   -0.25756E-02 31488   0.500E-01    0.772E-01
DAV:   4    -0.285167729925E+03   -0.14215E-02   -0.10101E-02 32628   0.105E-01    0.377E-01
DAV:   5    -0.285168110131E+03   -0.38021E-03   -0.31005E-04 28224   0.934E-02    0.364E-01
DAV:   6    -0.285167997177E+03    0.11295E-03   -0.24154E-04 28884   0.383E-02    0.190E-01
DAV:   7    -0.285168009516E+03   -0.12339E-04   -0.69048E-04 24504   0.329E-02    0.116E-01
DAV:   8    -0.285168038978E+03   -0.29462E-04   -0.47792E-05 20976   0.211E-02    0.168E-01
DAV:   9    -0.285168021329E+03    0.17649E-04   -0.10780E-05 16452   0.111E-02    0.132E-01
DAV:  10    -0.285168013006E+03    0.83230E-05   -0.47349E-05 15876   0.104E-02
 125 F= -.28516801E+03 E0= -.28516727E+03  d E =0.426266E-03  mag=    18.0000
       N       E                     dE             d eps       ncg     rms          rms(c)
DAV:   1    -0.285163064210E+03    0.49571E-02   -0.64925E-01 26352   0.267E+00    0.280E-01
DAV:   2    -0.285165709273E+03   -0.26451E-02   -0.28440E-02 28404   0.492E-01    0.614E-01
DAV:   3    -0.285165568704E+03    0.14057E-03   -0.62279E-03 32220   0.208E-01    0.422E-01
DAV:   4    -0.285165453006E+03    0.11570E-03   -0.42416E-04 31320   0.100E-01    0.194E-01
DAV:   5    -0.285165477891E+03   -0.24885E-04   -0.18110E-03 36996   0.774E-02    0.295E-01
DAV:   6    -0.285165433656E+03    0.44235E-04   -0.13231E-04 30588   0.535E-02    0.212E-01
DAV:   7    -0.285165399782E+03    0.33874E-04   -0.30501E-04 24264   0.294E-02    0.250E-02
DAV:   8    -0.285165421639E+03   -0.21857E-04   -0.48171E-05 20544   0.184E-02    0.383E-02
DAV:   9    -0.285165421700E+03   -0.60718E-07   -0.34230E-06 16416   0.855E-03
 126 F= -.28516542E+03 E0= -.28516469E+03  d E =0.259131E-02  mag=    18.0000
       N       E                     dE             d eps       ncg     rms          rms(c)
DAV:   1    -0.285159258001E+03    0.61636E-02   -0.64246E-01 27192   0.273E+00    0.360E-01
DAV:   2    -0.285162023330E+03   -0.27653E-02   -0.30410E-02 29076   0.508E-01    0.546E-01
DAV:   3    -0.285162061456E+03   -0.38126E-04   -0.81758E-03 33108   0.220E-01    0.648E-01
DAV:   4    -0.285161685678E+03    0.37578E-03   -0.11643E-03 31416   0.139E-01    0.219E-01
DAV:   5    -0.285161735479E+03   -0.49801E-04   -0.19841E-03 36396   0.734E-02    0.293E-01
DAV:   6    -0.285161684180E+03    0.51299E-04   -0.21525E-04 30948   0.627E-02    0.157E-01
DAV:   7    -0.285161675056E+03    0.91240E-05   -0.22910E-04 26076   0.251E-02    0.248E-02
DAV:   8    -0.285161687458E+03   -0.12402E-04   -0.17739E-05 17472   0.171E-02    0.296E-02
DAV:   9    -0.285161686614E+03    0.84433E-06   -0.73179E-06 16248   0.871E-03
 127 F= -.28516169E+03 E0= -.28516095E+03  d E =0.373509E-02  mag=    18.0000
       N       E                     dE             d eps       ncg     rms          rms(c)
DAV:   1    -0.285162554429E+03   -0.86697E-03   -0.11692E-01 26436   0.108E+00    0.276E-01
DAV:   2    -0.285163913601E+03   -0.13592E-02   -0.16073E-02 32052   0.312E-01    0.122E+00
DAV:   3    -0.285162650918E+03    0.12627E-02   -0.71839E-03 31248   0.243E-01    0.125E-01
DAV:   4    -0.285163105407E+03   -0.45449E-03   -0.25177E-03 30300   0.652E-02    0.453E-01
DAV:   5    -0.285162931956E+03    0.17345E-03   -0.50199E-04 29724   0.788E-02    0.196E-01
DAV:   6    -0.285162957870E+03   -0.25913E-04   -0.99837E-04 34488   0.473E-02    0.169E-01
DAV:   7    -0.285162977481E+03   -0.19611E-04   -0.41648E-05 24168   0.284E-02    0.192E-01
DAV:   8    -0.285162946432E+03    0.31049E-04   -0.70827E-05 18588   0.191E-02    0.967E-02
DAV:   9    -0.285162950549E+03   -0.41170E-05   -0.12446E-04 19440   0.145E-02    0.290E-02
DAV:  10    -0.285162957790E+03   -0.72412E-05   -0.11739E-05 16416   0.830E-03
 128 F= -.28516296E+03 E0= -.28516221E+03  d E =-.127118E-02  mag=    18.0000
       N       E                     dE             d eps       ncg     rms          rms(c)
DAV:   1    -0.285162568417E+03    0.38213E-03   -0.18219E-02 27768   0.521E-01    0.924E-02
DAV:   2    -0.285162871408E+03   -0.30299E-03   -0.34445E-03 32256   0.136E-01    0.566E-01
DAV:   3    -0.285162621725E+03    0.24968E-03   -0.75896E-04 30156   0.922E-02    0.214E-01
DAV:   4    -0.285162656100E+03   -0.34375E-04   -0.86478E-04 26412   0.388E-02    0.127E-01
DAV:   5    -0.285162673686E+03   -0.17586E-04   -0.36571E-05 23400   0.329E-02    0.106E-01
DAV:   6    -0.285162661152E+03    0.12534E-04   -0.85080E-05 19560   0.181E-02    0.703E-03
DAV:   7    -0.285162668405E+03   -0.72528E-05   -0.32453E-05 16680   0.988E-03
 129 F= -.28516267E+03 E0= -.28516194E+03  d E =0.289385E-03  mag=    18.0000
